FOO
135168
    1MOL0     O    1   4.545   9.505   0.479  1.3996 -0.6366 -0.2170
    1MOL0     C    2   4.644   9.514   0.410  0.0691 -0.3742  0.4258
    1MOL0     O    3   4.694   9.634   0.354  0.6327 -0.3822 -0.5156
    1MOL0     C    4   4.660   9.756   0.396 -0.1395 -0.7164 -1.0436
    1MOL0     C    5   4.684   9.861   0.303 -0.0491  1.0851 -0.6418
    1MOL0     C    6   4.653   9.990   0.327 -0.0637 -1.1714  0.7411
    1MOL0     C    7   4.608  10.023   0.455 -0.0527 -0.0753 -0.4219
    1MOL0     O    8   4.579  10.151   0.493 -0.0006 -0.0834 -0.2567
    1MOL0     C    9   4.620  10.256   0.412 -0.2089 -0.3266  1.0311
    1MOL0     C   10   4.769  10.272   0.389 -0.1191  0.1601 -1.2341
    1MOL0     C   11   4.829  10.407   0.385  0.3586  0.0012 -0.3907
    1MOL0     C   12   4.769  10.507   0.279  0.0580 -0.2057  0.1705
    1MOL0     C   13   4.829  10.652   0.303  0.0518 -0.5378 -0.1944
    1MOL0     C   14   4.861  10.724   0.171 -0.7016 -0.8291  0.1671
    1MOL0     C   15   4.915  10.866   0.187  1.3638 -0.4450 -0.1787
    1MOL0     C   16   4.946  10.938   0.053  0.2980 -0.7288  0.1060
    1MOL0     N   17   4.847  10.913  -0.062  1.0600 -0.8740 -0.6388
    1MOL0     C   18   4.735  10.985  -0.101 -0.3695  0.5579 -0.5751
    1MOL0     C   19   4.707  10.960  -0.226 -0.0064  0.7713  1.0549
    1MOL0     C   20   4.586  11.005  -0.297 -0.0396 -0.1689  0.4117
    1MOL0     C   21   4.465  10.934  -0.230  0.3879 -0.5251  0.7313
    1MOL0     C   22   4.449  10.787  -0.248  0.2100  0.6774  0.1784
    1MOL0     C   23   4.471  10.726  -0.394 -0.8504 -0.0694  0.0158
    1MOL0     O   24   4.354  10.759  -0.468 -0.5324 -0.5368  0.3177
    1MOL0     C   25   4.259  10.657  -0.471  0.0653 -0.0843  0.0759
    1MOL0     C   26   4.125  10.693  -0.450 -0.1555 -0.4533 -0.6075
    1MOL0     C   27   4.011  10.606  -0.466 -0.2054 -0.5270 -0.3310
    1MOL0     C   28   4.040  10.472  -0.496  0.4666  0.0508  0.0335
    1MOL0     C   29   3.930  10.376  -0.519 -0.1669 -0.7400  0.1845
    1MOL0     O   30   3.954  10.241  -0.517 -0.0584  0.5375 -1.1069
    1MOL0     C   31   3.857  10.151  -0.533  0.4161  0.3693 -0.1188
    1MOL0     C   32   3.886  10.035  -0.601  0.3717  0.2745  1.0338
    1MOL0     C   33   3.789   9.943  -0.634 -0.4628 -1.2569 -0.6208
    1MOL0     C   34   3.652   9.970  -0.594 -0.0008  0.5142 -0.0363
    1MOL0     O   35   3.560   9.870  -0.621 -0.5784  1.1363 -0.5560
    1MOL0     C   36   3.424   9.894  -0.635 -0.5184 -0.1658  0.8128
    1MOL0     C   37   3.345   9.790  -0.726 -1.1480  0.4897 -0.0454
    1MOL0     C   38   3.368   9.652  -0.658 -0.3004 -0.1083 -0.6594
    1MOL0     C   39   3.348   9.534  -0.753 -0.4034 -0.0384 -0.6228
    1MOL0     C   40   3.465   9.441  -0.768  0.6992  0.4004  0.2104
    1MOL0     C   41   3.423   9.295  -0.797 -0.1849  0.1750 -0.3131
    1MOL0     C   42   3.357   9.270  -0.930 -0.3175 -0.5146  1.0332
    1MOL0     C   43   3.279   9.139  -0.959 -0.1098 -0.5213 -0.6925
    1MOL0    Cl   44   3.376   8.994  -0.929  0.1244  0.3048 -0.3154
    1MOL0     C   45   3.623  10.064  -0.501 -0.9719 -0.0172  0.3578
    1MOL0     C   46   3.729  10.165  -0.478  0.3747  0.9450 -0.1037
    1MOL0     O   47   3.820  10.427  -0.532 -0.7157  0.1338  0.2933
    1MOL0     C   48   4.170  10.430  -0.525  0.9573  0.0325 -0.4538
    1MOL0     C   49   4.278  10.521  -0.507  0.4729 -0.4160 -0.3101
    1MOL0     N   50   4.797  10.861  -0.270  0.0379 -0.9553  0.5568
    1MOL0     N   51   4.881  10.840  -0.170  0.2804 -0.1859 -0.5072
    1MOL0     C   52   4.586   9.920   0.554 -1.2427 -0.7899 -0.1129
    1MOL0     C   53   4.605   9.793   0.517  0.4077  0.6118  0.3064
    1MOL0     C   54   4.711   9.396   0.366  0.2809  0.4690  0.3417
    1MOL0     C   55   4.648   9.273   0.390 -0.2865 -0.1716  0.2029
    1MOL0     C   56   4.682   9.157   0.329 -0.2706  0.6217  0.5381
    1MOL0     C   57   4.810   9.150   0.275 -0.5047 -0.6574  0.2640
    1MOL0     O   58   4.848   9.024   0.239 -0.2307 -0.4249 -0.2414
    1MOL0     C   59   4.986   9.002   0.207 -0.5494 -0.0333  0.0138
    1MOL0     C   60   5.012   8.853   0.162  0.6240  0.1730 -0.0664
    1MOL0     C   61   4.926   8.814   0.044  0.0986  0.5358  0.4232
    1MOL0     C   62   4.997   8.688  -0.019 -0.2728  0.4515  0.8735
    1MOL0     C   63   5.003   8.579   0.086 -0.6275 -0.2264 -1.0393
    1MOL0     C   64   5.019   8.489   0.170 -0.5844  0.5000  0.6810
    1MOL0     C   65   4.884   9.274   0.262  0.4923 -0.1044 -0.4317
    1MOL0     C   66   4.833   9.401   0.295 -0.2304 -0.5815 -0.5057
    1MOL0     H   67   4.725   9.833   0.207  4.0624 -0.3557  1.2842
    1MOL0     H   68   4.669  10.062   0.247  1.5318 -0.0590  1.9941
    1MOL0     H   69   4.571  10.345   0.453 -0.2685  0.3534 -0.4666
    1MOL0     H   70   4.558  10.249   0.323 -0.0759  0.2105  0.8916
    1MOL0     H   71   4.794  10.214   0.299 -2.1566 -1.2002 -0.9946
    1MOL0     H   72   4.813  10.218   0.473  2.9525 -0.7705 -3.2339
    1MOL0     H   73   4.935  10.387   0.369  0.8899  1.2009  1.3464
    1MOL0     H   74   4.812  10.453   0.483  0.0877 -0.1442 -0.3680
    1MOL0     H   75   4.780  10.473   0.176 -1.3308  0.6279 -0.2799
    1MOL0     H   76   4.661  10.507   0.293  0.1065 -1.2358  0.6292
    1MOL0     H   77   4.926  10.639   0.352  1.5647 -0.9085 -3.0720
    1MOL0     H   78   4.772  10.719   0.368 -3.0030 -2.2906 -0.8806
    1MOL0     H   79   4.771  10.731   0.111  0.9436 -0.2971 -2.3910
    1MOL0     H   80   4.937  10.667   0.118  1.6215  0.6226  1.7047
    1MOL0     H   81   4.826  10.915   0.227  2.3985  1.6067 -0.2650
    1MOL0     H   82   4.997  10.879   0.258 -0.6020 -0.7415  2.2795
    1MOL0     H   83   5.047  10.911   0.018  0.8956  0.8876  0.4820
    1MOL0     H   84   4.940  11.045   0.075 -1.8491 -0.6227 -0.7792
    1MOL0     H   85   4.675  11.044  -0.032 -2.4459 -0.1228 -1.7185
    1MOL0     H   86   4.591  10.987  -0.405 -0.6524 -3.4860  0.8144
    1MOL0     H   87   4.568  11.111  -0.276  3.4956 -0.1940  5.6112
    1MOL0     H   88   4.373  10.985  -0.259  0.0084 -1.7368 -0.2258
    1MOL0     H   89   4.471  10.946  -0.121  0.7664 -1.3411  0.8043
    1MOL0     H   90   4.519  10.733  -0.183  0.7163  2.3880  1.0975
    1MOL0     H   91   4.348  10.754  -0.222  0.5420 -0.1037  0.5248
    1MOL0     H   92   4.498  10.620  -0.404  1.4945  0.5212 -0.6709
    1MOL0     H   93   4.556  10.777  -0.441 -0.4746 -0.6487  0.0484
    1MOL0     H   94   4.124  10.795  -0.412  1.3049 -1.0310  1.1694
    1MOL0     H   95   3.910  10.643  -0.451 -0.5624  0.0652 -3.4350
    1MOL0     H   96   3.987  10.026  -0.638 -0.4348  2.5954 -2.1274
    1MOL0     H   97   3.813   9.856  -0.695 -0.5442 -2.4058  0.9300
    1MOL0     H   98   3.428   9.993  -0.682  0.8905 -0.1928  0.8449
    1MOL0     H   99   3.388   9.900  -0.532  0.4371  2.6349  1.0601
    1MOL0     H  100   3.387   9.783  -0.826 -2.2081 -0.0743 -0.4729
    1MOL0     H  101   3.240   9.821  -0.728 -1.0373  0.9741  0.9412
    1MOL0     H  102   3.312   9.634  -0.566 -0.7488  1.9669 -0.4786
    1MOL0     H  103   3.472   9.645  -0.624 -1.0192 -2.4632  1.2617
    1MOL0     H  104   3.269   9.477  -0.703 -0.1538 -0.2010 -0.4114
    1MOL0     H  105   3.300   9.568  -0.846 -3.3766 -0.4551  0.6317
    1MOL0     H  106   3.510   9.442  -0.668  0.8904  0.8010  0.1216
    1MOL0     H  107   3.533   9.493  -0.836 -0.1947  0.6998 -0.4571
    1MOL0     H  108   3.354   9.259  -0.721  0.3348 -0.7302 -0.2554
    1MOL0     H  109   3.512   9.232  -0.787  1.4430  2.1579 -1.5349
    1MOL0     H  110   3.291   9.351  -0.961 -0.9138 -0.9851  1.0477
    1MOL0     H  111   3.433   9.250  -1.005 -4.2890  0.3499 -3.7498
    1MOL0     H  112   3.240   9.139  -1.061 -2.2744  0.0981  0.0833
    1MOL0     H  113   3.196   9.132  -0.888  0.5021  0.7310  0.1987
    1MOL0     H  114   3.523  10.073  -0.457 -0.6652 -0.5118  1.1833
    1MOL0     H  115   3.691  10.242  -0.413 -5.2674 -0.4827 -1.1613
    1MOL0     H  116   4.201  10.331  -0.557  2.2689 -0.1946  1.3827
    1MOL0     H  117   4.377  10.479  -0.518  0.8991  0.2220  0.9412
    1MOL0     H  118   4.546   9.940   0.653 -3.7632 -1.4457 -0.9494
    1MOL0     H  119   4.595   9.716   0.593 -3.4225  0.0524 -0.5500
    1MOL0     H  120   4.547   9.273   0.430 -0.4822 -0.9711 -0.2642
    1MOL0     H  121   4.622   9.066   0.334 -1.3633  1.0528 -2.4549
    1MOL0     H  122   5.039   9.006   0.303  0.5058  0.7192 -0.5757
    1MOL0     H  123   5.024   9.071   0.131 -2.3065 -0.3589 -1.2322
    1MOL0     H  124   5.110   8.857   0.113 -0.9219  0.4261 -3.4063
    1MOL0     H  125   5.012   8.779   0.243  1.3741 -0.0321 -0.2434
    1MOL0     H  126   4.911   8.892  -0.032 -1.8076  0.0423  0.2397
    1MOL0     H  127   4.820   8.798   0.069  0.1076 -1.5106 -0.6343
    1MOL0     H  128   4.936   8.649  -0.100  0.7290  3.8224 -1.7584
    1MOL0     H  129   5.098   8.721  -0.048  1.2260 -2.3175  2.5063
    1MOL0     H  130   5.060   8.436   0.253 -1.9010  0.6566  1.4486
    1MOL0     H  131   4.982   9.272   0.214  0.6609  0.3313 -0.1101
    1MOL0     H  132   4.887   9.493   0.274 -1.2488  0.3087  0.6542
    2MOL0     O  133   4.520  10.312   9.873 -0.5351  0.0344  0.3593
    2MOL0     C  134   4.582  10.236   9.798  1.2939 -0.8800  0.5700
    2MOL0     O  135   4.656  10.131   9.833  0.5647  0.2660 -0.2277
    2MOL0     C  136   4.658  10.078   9.966 -0.1861  0.4473  0.6812
    2MOL0     C  137   4.690  10.150  10.085 -0.1334  0.5092 -0.1139
    2MOL0     C  138   4.672  10.089  10.206  0.0247 -0.5571 -0.0456
    2MOL0     C  139   4.646   9.947  10.224 -0.7624  1.0594 -0.3225
    2MOL0     O  140   4.664   9.881  10.346 -0.0555 -0.2274  0.2346
    2MOL0     C  141   4.713   9.955  10.460  0.1705  0.6864  0.1674
    2MOL0     C  142   4.715   9.866  10.595  0.1698 -0.2072  0.1097
    2MOL0     C  143   4.829   9.780  10.614 -1.0445 -0.2567  0.1643
    2MOL0     C  144   4.847   9.709  10.745 -0.3088  0.4624  0.2390
    2MOL0     C  145   4.978   9.630  10.769  0.1111 -0.8593  0.6061
    2MOL0     C  146   5.004   9.541  10.658 -0.3008  0.1343  0.0679
    2MOL0     C  147   5.133   9.460  10.680 -0.2503 -0.5326  0.2509
    2MOL0     C  148   5.259   9.546  10.698 -0.0602 -0.4447 -0.1358
    2MOL0     N  149   5.281   9.632  10.578 -1.0698 -0.3965  0.1451
    2MOL0     C  150   5.229   9.760  10.578  0.1553  0.3309 -0.2999
    2MOL0     C  151   5.256   9.799  10.449 -0.6948 -0.0584  0.2622
    2MOL0     C  152   5.227   9.941  10.393  0.0444  0.7676  0.2340
    2MOL0     C  153   5.089   9.950  10.324 -0.2865 -1.4515 -0.0229
    2MOL0     C  154   5.062   9.859  10.208 -0.6582  1.4702 -0.3605
    2MOL0     C  155   5.160   9.879  10.091  0.1682 -0.7805  0.4384
    2MOL0     O  156   5.124   9.794   9.982 -0.2051  0.0285  0.1282
    2MOL0     C  157   5.111   9.873   9.869  0.7449  0.6014 -0.7086
    2MOL0     C  158   4.989   9.934   9.827 -0.0935 -0.6268  0.2820
    2MOL0     C  159   4.987  10.004   9.699 -0.2622 -0.7337  0.0418
    2MOL0     C  160   5.099  10.004   9.612  0.4630 -0.2889 -0.4347
    2MOL0     C  161   5.097  10.079   9.482  0.8001  0.8053  0.0094
    2MOL0     O  162   4.982  10.147   9.443  0.3518  0.1007  0.1594
    2MOL0     C  163   4.975  10.216   9.325  0.3275 -0.2197  0.1287
    2MOL0     C  164   4.961  10.356   9.319 -1.1031 -0.4071  0.2938
    2MOL0     C  165   4.992  10.421   9.194  0.8653  0.2505  0.0088
    2MOL0     C  166   5.017  10.340   9.081  0.5397  0.3304 -1.3377
    2MOL0     O  167   5.018  10.411   8.964 -0.0382 -0.0320 -0.2623
    2MOL0     C  168   5.010  10.356   8.832 -0.6559 -0.3003 -1.1799
    2MOL0     C  169   5.046  10.480   8.740 -0.2851  0.1973  0.4328
    2MOL0     C  170   5.190  10.538   8.776  0.1279 -1.0678 -0.7607
    2MOL0     C  171   5.264  10.634   8.670 -0.0209  0.2117 -0.0004
    2MOL0     C  172   5.404  10.573   8.626  0.3894  0.7752  0.3811
    2MOL0     C  173   5.499  10.668   8.540  0.2798 -0.1330  0.4670
    2MOL0     C  174   5.569  10.763   8.636  0.8521 -0.6620  0.2033
    2MOL0     C  175   5.678  10.839   8.558  0.1948  0.4552  0.1627
    2MOL0    Cl  176   5.630  10.893   8.398  0.5661 -0.3053 -0.3377
    2MOL0     C  177   4.996  10.205   9.081 -0.5295 -0.2041  0.4121
    2MOL0     C  178   4.989  10.147   9.203  0.5655  0.4407 -0.6566
    2MOL0     O  179   5.192  10.077   9.416 -0.3138  0.2327  0.0533
    2MOL0     C  180   5.217   9.943   9.659  0.2010 -0.6656  0.5327
    2MOL0     C  181   5.215   9.875   9.781 -0.3134  0.2518 -0.6440
    2MOL0     N  182   5.337   9.702  10.388 -0.2824  0.4521 -0.0493
    2MOL0     N  183   5.350   9.597  10.468  0.5292 -0.1907 -0.0239
    2MOL0     C  184   4.621   9.874  10.104  0.3256  0.2436 -0.0517
    2MOL0     C  185   4.626   9.941   9.979  0.3432 -0.0631  0.3868
    2MOL0     C  186   4.561  10.255   9.653  1.3032 -0.1354  0.7354
    2MOL0     C  187   4.455  10.341   9.593  0.9021 -0.6995  0.2946
    2MOL0     C  188   4.443  10.350   9.454 -0.0353 -0.1513  0.2530
    2MOL0     C  189   4.542  10.290   9.375  0.4877  0.1207  0.0335
    2MOL0     O  190   4.516  10.310   9.240  1.1717  0.5270  0.9852
    2MOL0     C  191   4.586  10.234   9.144  0.1202 -0.7030  0.1379
    2MOL0     C  192   4.576  10.324   9.015  0.6466 -0.4457  0.4515
    2MOL0     C  193   4.612  10.269   8.884 -0.5196  0.6457 -0.4577
    2MOL0     C  194   4.646  10.127   8.881 -0.6308  0.1750 -0.1531
    2MOL0     C  195   4.697  10.101   8.751  0.3336  0.0173  0.3901
    2MOL0     C  196   4.720  10.072   8.640 -0.1991  0.0276  0.1581
    2MOL0     C  197   4.639  10.223   9.435 -0.3679 -0.1398  0.2004
    2MOL0     C  198   4.644  10.193   9.570  0.3873  0.8511  0.0866
    2MOL0     H  199   4.716  10.254  10.071 -0.2447  0.8587  2.0054
    2MOL0     H  200   4.702  10.154  10.288 -0.9799  2.5437 -1.9780
    2MOL0     H  201   4.654  10.044  10.482 -2.4250 -0.9709  0.3008
    2MOL0     H  202   4.819   9.977  10.445 -0.3159  1.7708 -2.1129
    2MOL0     H  203   4.630   9.797  10.609  0.9848 -1.1139  0.7164
    2MOL0     H  204   4.718   9.937  10.678  2.3150 -0.3005  0.1620
    2MOL0     H  205   4.921   9.836  10.598 -0.8646 -1.1715 -2.5560
    2MOL0     H  206   4.821   9.701  10.539 -1.4530  0.6401 -0.7741
    2MOL0     H  207   4.849   9.778  10.831  4.6159  1.1914 -0.1457
    2MOL0     H  208   4.764   9.639  10.750 -1.0775  1.0363 -2.7130
    2MOL0     H  209   4.974   9.578  10.866 -0.5813 -0.6012  0.7245
    2MOL0     H  210   5.056   9.706  10.771 -0.0952 -0.5858 -0.8391
    2MOL0     H  211   4.997   9.599  10.566 -0.2158  2.3043  1.3512
    2MOL0     H  212   4.925   9.469  10.633  2.5136 -2.6147 -1.5670
    2MOL0     H  213   5.119   9.395  10.766  0.4804  1.3915  1.8912
    2MOL0     H  214   5.133   9.391  10.595 -2.6497 -0.6228  0.2461
    2MOL0     H  215   5.339   9.472  10.713 -0.0128 -0.1582  1.1510
    2MOL0     H  216   5.249   9.601  10.792  3.9578 -0.8353  0.7438
    2MOL0     H  217   5.184   9.817  10.659 -0.7803  1.5843 -1.6367
    2MOL0     H  218   5.307   9.981  10.330  2.4339 -2.3609  1.0102
    2MOL0     H  219   5.219  10.012  10.476 -2.5089 -1.1775  1.8131
    2MOL0     H  220   5.064  10.053  10.299  1.7228 -1.0029 -0.3762
    2MOL0     H  221   5.020   9.935  10.408 -0.0410 -0.9484  0.2734
    2MOL0     H  222   5.078   9.757  10.245 -2.1599  0.3188 -2.6297
    2MOL0     H  223   4.956   9.866  10.182 -0.7756  2.8432  0.4096
    2MOL0     H  224   5.260   9.851  10.125  1.3524  1.0770 -1.3004
    2MOL0     H  225   5.168   9.985  10.067  0.4235 -0.7910  0.4700
    2MOL0     H  226   4.903   9.936   9.893 -1.0706 -3.8773 -0.7328
    2MOL0     H  227   4.892  10.050   9.674 -3.1520 -3.8784  3.7239
    2MOL0     H  228   4.935  10.418   9.404  0.8306  2.2775 -0.9378
    2MOL0     H  229   4.992  10.529   9.189  2.5166  0.2259 -1.8283
    2MOL0     H  230   4.916  10.309   8.799 -1.0170 -0.1099 -0.4431
    2MOL0     H  231   5.091  10.285   8.818  0.4369  0.6261  0.1968
    2MOL0     H  232   4.963  10.550   8.752 -1.8038 -1.3900 -0.2494
    2MOL0     H  233   5.057  10.450   8.635 -2.4189  1.1376 -0.0994
    2MOL0     H  234   5.256  10.454   8.798 -1.0059 -1.4108  1.7224
    2MOL0     H  235   5.183  10.608   8.860  0.3435 -3.0473  0.9831
    2MOL0     H  236   5.200  10.665   8.586  0.8721  2.1560 -0.0248
    2MOL0     H  237   5.301  10.723   8.722 -3.7934  0.8597  1.9479
    2MOL0     H  238   5.369  10.505   8.548  1.3321  0.3592  0.3086
    2MOL0     H  239   5.446  10.517   8.710 -0.1372  3.5056  2.6269
    2MOL0     H  240   5.437  10.722   8.467 -0.0697 -1.6145 -0.3709
    2MOL0     H  241   5.563  10.610   8.473 -1.1481  0.3795 -1.4304
    2MOL0     H  242   5.501  10.834   8.685 -1.5600 -2.1558 -0.8229
    2MOL0     H  243   5.609  10.696   8.713 -1.6238  0.9852  3.1441
    2MOL0     H  244   5.766  10.776   8.546 -1.6272 -2.1002 -0.9125
    2MOL0     H  245   5.718  10.929   8.606  0.8424  0.2413  0.0298
    2MOL0     H  246   4.992  10.153   8.985 -4.4788 -0.3337  0.5087
    2MOL0     H  247   5.004  10.041   9.189 -0.1296  0.4060 -1.1892
    2MOL0     H  248   5.304   9.940   9.593 -1.4415 -2.3964 -1.7318
    2MOL0     H  249   5.304   9.823   9.816 -1.6011 -2.9778 -1.7881
    2MOL0     H  250   4.619   9.765  10.100 -1.7651  0.2506 -0.4190
    2MOL0     H  251   4.611   9.878   9.892 -1.8446  1.3008 -0.3135
    2MOL0     H  252   4.375  10.386   9.651  0.0659 -0.1838 -1.2078
    2MOL0     H  253   4.363  10.411   9.413  0.4957 -0.2237 -0.9536
    2MOL0     H  254   4.548  10.133   9.124  0.3423 -0.5998 -0.8256
    2MOL0     H  255   4.694  10.231   9.158  0.6112  3.6151 -1.2505
    2MOL0     H  256   4.483  10.381   9.003 -0.3232 -1.1879  3.4860
    2MOL0     H  257   4.643  10.409   9.035 -0.3716  0.1852  1.3253
    2MOL0     H  258   4.689  10.332   8.837 -1.8707  2.1561 -0.7290
    2MOL0     H  259   4.529  10.285   8.815 -0.3028 -0.8902 -1.1270
    2MOL0     H  260   4.728  10.104   8.950  1.0757  2.3660 -1.3093
    2MOL0     H  261   4.556  10.067   8.899 -0.4681 -0.3686 -1.0889
    2MOL0     H  262   4.741  10.021   8.549  2.8124 -0.3493  0.9645
    2MOL0     H  263   4.718  10.178   9.375 -1.6150  1.3970 -2.7800
    2MOL0     H  264   4.707  10.115   9.611 -1.9730 -0.9152  0.5870
    3MOL0     O  265  11.171   4.485   5.014  0.0669 -0.2909 -0.6971
    3MOL0     C  266  11.238   4.544   4.926 -0.0546  0.0395 -0.4637
    3MOL0     O  267  11.369   4.523   4.900 -0.0412 -0.1034  0.4110
    3MOL0     C  268  11.451   4.459   4.989 -0.3754 -0.3992 -0.0703
    3MOL0     C  269  11.456   4.511   5.117  1.0332 -0.1498  0.5709
    3MOL0     C  270  11.560   4.476   5.204 -0.5381 -0.6223  0.4629
    3MOL0     C  271  11.653   4.377   5.168  1.2291  0.4493  0.2192
    3MOL0     O  272  11.741   4.329   5.263  0.4712 -0.7448 -0.3020
    3MOL0     C  273  11.835   4.230   5.219  0.0669  0.3471 -0.1921
    3MOL0     C  274  11.918   4.190   5.345 -0.9024 -1.2264  0.1355
    3MOL0     C  275  11.838   4.099   5.428  0.2528  0.4568  0.8920
    3MOL0     C  276  11.930   4.048   5.541  0.3057  0.2656  0.4073
    3MOL0     C  277  11.853   3.942   5.621 -0.2098 -0.6934  0.2505
    3MOL0     C  278  11.932   3.928   5.753 -0.1829 -1.3799 -0.2690
    3MOL0     C  279  11.848   3.861   5.861 -0.0793  1.0130  0.1109
    3MOL0     C  280  11.814   3.711   5.827 -0.5758 -0.9075  0.5651
    3MOL0     N  281  11.755   3.629   5.933 -0.7080 -0.5589 -0.2149
    3MOL0     C  282  11.817   3.599   6.049 -0.4600  0.1006  0.1965
    3MOL0     C  283  11.731   3.517   6.115  0.3079  0.0917 -0.1260
    3MOL0     C  284  11.749   3.464   6.254 -0.3062 -0.0686  0.5302
    3MOL0     C  285  11.821   3.570   6.350 -0.1983  0.0456 -0.1549
    3MOL0     C  286  11.743   3.695   6.388  0.6738  0.4357 -0.4578
    3MOL0     C  287  11.833   3.799   6.451 -0.2912 -0.2678 -0.4243
    3MOL0     O  288  11.924   3.853   6.356 -0.4267  0.2326  0.2395
    3MOL0     C  289  11.890   3.943   6.259  0.6225 -0.6906  0.3426
    3MOL0     C  290  11.753   4.003   6.266 -0.4842  0.5233 -0.7160
    3MOL0     C  291  11.722   4.113   6.189  0.8023 -0.4183  0.7877
    3MOL0     C  292  11.818   4.166   6.103  0.4753  0.2632  0.3078
    3MOL0     C  293  11.785   4.281   6.020 -0.2209 -0.1994 -0.5733
    3MOL0     O  294  11.844   4.281   5.898  0.2238  0.5103  0.2659
    3MOL0     C  295  11.839   4.405   5.827 -0.2089  0.6188  0.4321
    3MOL0     C  296  11.876   4.526   5.882 -0.4356  0.3610  0.0196
    3MOL0     C  297  11.868   4.648   5.813 -0.5935 -1.0071  0.7743
    3MOL0     C  298  11.834   4.651   5.682 -0.5170  0.2528 -1.4621
    3MOL0     O  299  11.836   4.763   5.607  0.2238 -0.0487  0.6775
    3MOL0     C  300  11.749   4.776   5.496  0.2463  0.1626  0.0902
    3MOL0     C  301  11.732   4.919   5.473 -0.7989 -0.1480  0.1015
    3MOL0     C  302  11.640   4.975   5.591 -0.1177 -0.3388 -0.0994
    3MOL0     C  303  11.609   5.120   5.567  1.4153 -0.5667 -0.6789
    3MOL0     C  304  11.568   5.193   5.704 -0.1771 -0.5201 -1.1042
    3MOL0     C  305  11.489   5.315   5.649 -0.1420  0.4688 -0.2905
    3MOL0     C  306  11.569   5.409   5.549  0.2884  0.1688  0.3822
    3MOL0     C  307  11.456   5.512   5.508 -0.4410  0.0438 -0.1191
    3MOL0    Cl  308  11.365   5.446   5.366  0.0398 -0.2699  0.1048
    3MOL0     C  309  11.799   4.526   5.624  0.1340  0.7090  0.0418
    3MOL0     C  310  11.803   4.406   5.696 -0.5844  0.0603  0.2717
    3MOL0     O  311  11.707   4.367   6.066 -0.6339 -0.0060 -0.4858
    3MOL0     C  312  11.945   4.106   6.089 -0.2170  0.5601 -0.0835
    3MOL0     C  313  11.986   3.999   6.174  0.1320 -0.4203  0.2266
    3MOL0     N  314  11.618   3.503   6.044  0.2492 -0.2274 -0.2731
    3MOL0     N  315  11.635   3.571   5.930 -0.0211 -0.3999  0.3601
    3MOL0     C  316  11.649   4.331   5.033 -0.3189  1.5596 -0.0255
    3MOL0     C  317  11.541   4.368   4.959  0.0441  0.4490  0.1393
    3MOL0     C  318  11.174   4.655   4.847 -0.7216  0.1820  0.4757
    3MOL0     C  319  11.040   4.690   4.860  0.3798  0.8489 -0.3172
    3MOL0     C  320  10.985   4.786   4.773 -0.7462  0.1100 -0.0109
    3MOL0     C  321  11.074   4.845   4.676  0.9158 -0.7927 -0.9779
    3MOL0     O  322  11.000   4.922   4.587  0.3034  0.4437  0.1101
    3MOL0     C  323  11.059   5.040   4.536  1.4152 -1.6653  0.9868
    3MOL0     C  324  10.947   5.147   4.522  0.4145  0.3986 -0.4167
    3MOL0     C  325  11.002   5.267   4.462 -1.6035  0.9843 -0.4079
    3MOL0     C  326  10.898   5.378   4.480 -0.0603 -0.0661 -0.7425
    3MOL0     C  327  10.953   5.494   4.409  0.0123  0.3303 -0.3905
    3MOL0     C  328  11.023   5.590   4.362  1.2615 -0.5090  0.4688
    3MOL0     C  329  11.208   4.822   4.671 -0.9096 -0.4879  0.3214
    3MOL0     C  330  11.262   4.722   4.759  0.0051  0.0073  0.3287
    3MOL0     H  331  11.393   4.589   5.159  1.1504  1.1559 -1.5259
    3MOL0     H  332  11.564   4.528   5.299  0.4177  0.6101 -0.2170
    3MOL0     H  333  11.913   4.267   5.152  1.8112 -0.3056  1.3866
    3MOL0     H  334  11.798   4.133   5.182  0.6737 -0.9199  2.2948
    3MOL0     H  335  11.946   4.284   5.394  1.1649 -0.6931 -1.8994
    3MOL0     H  336  12.009   4.134   5.321 -0.6352 -0.3663 -0.8999
    3MOL0     H  337  11.800   4.016   5.368  1.9346  0.0868  0.2669
    3MOL0     H  338  11.751   4.152   5.468  0.5431  1.0468  0.7587
    3MOL0     H  339  12.025   4.006   5.506  0.7642  0.7904  1.0003
    3MOL0     H  340  11.953   4.140   5.595  0.5183  0.8888 -0.7102
    3MOL0     H  341  11.843   3.852   5.559 -0.5941 -0.7918  0.4509
    3MOL0     H  342  11.757   3.980   5.659  0.8396  0.3880  1.9333
    3MOL0     H  343  11.957   4.030   5.783  0.7888 -1.0076 -2.1661
    3MOL0     H  344  12.026   3.874   5.740  0.5457 -0.4559  1.0133
    3MOL0     H  345  11.919   3.862   5.945 -0.3776 -0.3322  0.4102
    3MOL0     H  346  11.754   3.910   5.886 -2.1042 -2.1820 -0.6533
    3MOL0     H  347  11.906   3.656   5.801 -0.6883 -0.8694  0.0885
    3MOL0     H  348  11.747   3.719   5.742  1.5428  0.1828 -1.1122
    3MOL0     H  349  11.912   3.639   6.082  0.8924 -2.3546 -0.4675
    3MOL0     H  350  11.804   3.370   6.254  2.5105  1.4576  2.0566
    3MOL0     H  351  11.656   3.445   6.308 -1.0951  2.2784  0.1091
    3MOL0     H  352  11.916   3.606   6.311  0.5672 -0.9882  0.6760
    3MOL0     H  353  11.845   3.515   6.442  0.4350  2.5956  1.3000
    3MOL0     H  354  11.689   3.732   6.300  1.8989  3.4850 -0.0571
    3MOL0     H  355  11.670   3.673   6.467  0.8871 -0.4804 -0.5014
    3MOL0     H  356  11.893   3.764   6.535 -0.4387  0.1076 -0.1613
    3MOL0     H  357  11.773   3.881   6.491  0.0649 -1.0949  1.9609
    3MOL0     H  358  11.669   3.970   6.327  0.0284  0.3301 -0.1164
    3MOL0     H  359  11.622   4.153   6.203  1.2946  0.2682  2.5979
    3MOL0     H  360  11.891   4.529   5.990 -1.4617  1.6394  0.1470
    3MOL0     H  361  11.889   4.745   5.858 -0.8340 -0.0133 -1.1444
    3MOL0     H  362  11.652   4.727   5.514 -0.1349  1.0693  0.5701
    3MOL0     H  363  11.791   4.729   5.407 -0.2846 -1.0234  0.4375
    3MOL0     H  364  11.682   4.927   5.376 -2.0071  0.0268  0.7205
    3MOL0     H  365  11.825   4.974   5.466 -0.8641 -0.0366  0.1113
    3MOL0     H  366  11.705   4.965   5.679  0.7283 -0.5762 -0.7430
    3MOL0     H  367  11.548   4.917   5.608  2.0942 -3.7362  1.5504
    3MOL0     H  368  11.701   5.169   5.535 -0.2363  3.3529 -0.0209
    3MOL0     H  369  11.538   5.121   5.484  3.1430  0.2769 -2.2072
    3MOL0     H  370  11.657   5.217   5.763 -0.1379 -1.6409 -0.6978
    3MOL0     H  371  11.504   5.123   5.759  0.0049 -1.8159 -2.4928
    3MOL0     H  372  11.478   5.374   5.741 -3.2054  0.5017 -0.5915
    3MOL0     H  373  11.385   5.301   5.621 -0.1590  0.8701 -0.4409
    3MOL0     H  374  11.650   5.444   5.614 -0.5990 -1.1825  2.3299
    3MOL0     H  375  11.603   5.365   5.455  2.6880  2.1958  0.2223
    3MOL0     H  376  11.522   5.595   5.480  2.0623 -2.2083 -1.3545
    3MOL0     H  377  11.387   5.536   5.589 -0.6357  0.3949 -0.3866
    3MOL0     H  378  11.776   4.523   5.518 -0.5506  0.8908  0.1787
    3MOL0     H  379  11.777   4.310   5.653  0.5265 -0.4838  0.7717
    3MOL0     H  380  12.024   4.159   6.037 -0.0265 -1.3116 -1.8332
    3MOL0     H  381  12.089   3.965   6.176 -0.4021 -2.1310  0.4626
    3MOL0     H  382  11.714   4.261   4.981 -2.7628 -0.9983  0.1121
    3MOL0     H  383  11.543   4.318   4.862 -0.3467  2.2200 -0.8409
    3MOL0     H  384  10.969   4.641   4.925  0.3647  0.0380 -0.9307
    3MOL0     H  385  10.885   4.827   4.783 -0.9104  2.1120 -6.0300
    3MOL0     H  386  11.098   5.019   4.436 -3.2613  0.6047 -1.6709
    3MOL0     H  387  11.143   5.074   4.598  0.1666  0.1589  1.7847
    3MOL0     H  388  10.871   5.107   4.455 -0.4623  0.5462  0.4756
    3MOL0     H  389  10.904   5.172   4.620 -0.6244 -0.1645 -0.7155
    3MOL0     H  390  11.022   5.247   4.356 -0.6395  1.8254 -0.4048
    3MOL0     H  391  11.103   5.291   4.497 -0.9246  0.1743 -1.7059
    3MOL0     H  392  10.796   5.352   4.450  0.2742  0.7535 -2.6564
    3MOL0     H  393  10.881   5.417   4.581  0.7067  1.4383 -1.1642
    3MOL0     H  394  11.083   5.667   4.318 -1.9214  1.5951 -0.5110
    3MOL0     H  395  11.278   4.861   4.598  1.2576  1.3208  3.1574
    3MOL0     H  396  11.370   4.710   4.755  0.2023  1.5653  0.4539
    4MOL0     O  397   7.085   4.364   1.243 -0.1083  0.3486  0.5211
    4MOL0     C  398   6.979   4.318   1.287 -0.1421 -0.2346  0.4214
    4MOL0     O  399   6.901   4.379   1.390 -0.0391 -0.0360 -0.3783
    4MOL0     C  400   6.906   4.510   1.436 -1.0750  0.7763 -0.5162
    4MOL0     C  401   6.976   4.621   1.367  0.0750  0.7037  0.4473
    4MOL0     C  402   6.997   4.742   1.424 -0.7029 -0.5987 -0.3307
    4MOL0     C  403   6.914   4.774   1.535 -0.8687  0.7423 -0.2435
    4MOL0     O  404   6.912   4.906   1.579 -0.4521  0.3425 -0.1710
    4MOL0     C  405   7.032   4.987   1.566  0.5003  0.3437  0.2729
    4MOL0     C  406   7.005   5.114   1.651  0.6932  0.9613  1.2336
    4MOL0     C  407   7.071   5.093   1.791 -0.1856  0.1957  0.7917
    4MOL0     C  408   7.055   5.228   1.868 -0.7304  0.2369  0.5227
    4MOL0     C  409   7.135   5.225   2.004 -0.8895  0.3020 -0.0422
    4MOL0     C  410   7.154   5.362   2.066 -0.2740  0.0182  0.4122
    4MOL0     C  411   7.233   5.347   2.206  0.2193  0.1540  0.5591
    4MOL0     C  412   7.249   5.485   2.280  0.8277  0.2940  0.2117
    4MOL0     N  413   7.325   5.485   2.405  0.4078 -0.0684  0.2765
    4MOL0     C  414   7.441   5.418   2.417  0.2523 -0.3896 -0.2355
    4MOL0     C  415   7.481   5.438   2.549  1.0720  0.2095  0.1050
    4MOL0     C  416   7.591   5.383   2.622 -0.4873 -0.6151  0.8732
    4MOL0     C  417   7.725   5.390   2.534  0.3258  0.6615 -0.4173
    4MOL0     C  418   7.844   5.352   2.620 -0.8808  0.4830 -0.5526
    4MOL0     C  419   7.875   5.439   2.743 -0.2118  0.5169  0.4583
    4MOL0     O  420   8.017   5.418   2.773 -0.8378  0.2580 -0.2103
    4MOL0     C  421   8.049   5.410   2.906  0.7385  0.7193  0.9727
    4MOL0     C  422   8.008   5.307   2.981  0.3439  0.1160 -0.5432
    4MOL0     C  423   8.027   5.310   3.120 -1.0465  0.4195  0.4696
    4MOL0     C  424   8.101   5.418   3.179 -0.7550  1.2909 -0.0138
    4MOL0     C  425   8.124   5.416   3.325 -0.0218  1.0358  0.4443
    4MOL0     O  426   8.085   5.306   3.394  0.3004  0.3453 -0.5579
    4MOL0     C  427   8.108   5.296   3.528 -0.4056  0.0523  0.4112
    4MOL0     C  428   8.151   5.166   3.570  0.8366  0.6430 -0.1980
    4MOL0     C  429   8.208   5.151   3.702  0.2303 -0.5477 -0.9207
    4MOL0     C  430   8.195   5.258   3.791  0.3621 -0.1850  0.5137
    4MOL0     O  431   8.252   5.227   3.913 -0.7202  0.4717  0.5873
    4MOL0     C  432   8.237   5.320   4.025  0.7684  0.3378 -0.3789
    4MOL0     C  433   8.285   5.248   4.152 -0.5290 -0.3284 -0.6718
    4MOL0     C  434   8.431   5.238   4.157 -0.5275 -0.0195 -0.4182
    4MOL0     C  435   8.495   5.175   4.272  0.4069  0.4515 -0.0061
    4MOL0     C  436   8.445   5.038   4.300 -0.2799 -0.3705 -1.2559
    4MOL0     C  437   8.542   4.959   4.385  0.4628 -0.3808 -1.0685
    4MOL0     C  438   8.587   5.030   4.515 -0.4057 -0.1921  0.0037
    4MOL0     C  439   8.681   4.953   4.601  0.3139  0.2165 -0.1168
    4MOL0    Cl  440   8.846   4.946   4.525 -0.0177  0.1453 -0.3256
    4MOL0     C  441   8.137   5.379   3.754  0.2986 -0.2918 -0.1786
    4MOL0     C  442   8.093   5.397   3.625 -0.4424  0.0705  0.5552
    4MOL0     O  443   8.173   5.518   3.372  0.3714 -1.0588  0.1968
    4MOL0     C  444   8.163   5.509   3.096 -0.7639  0.3341  0.4049
    4MOL0     C  445   8.137   5.503   2.962  0.2512  0.0084  0.7540
    4MOL0     N  446   7.372   5.507   2.612 -0.7335 -0.8120  0.0715
    4MOL0     N  447   7.281   5.532   2.521 -0.3284 -0.3749 -0.3500
    4MOL0     C  448   6.844   4.678   1.604  0.3183  0.2033 -1.0914
    4MOL0     C  449   6.847   4.540   1.557  0.3804  0.4570 -0.2357
    4MOL0     C  450   6.924   4.196   1.223 -0.3270 -0.5107 -0.4713
    4MOL0     C  451   6.782   4.181   1.223  0.6949  0.4419  0.5575
    4MOL0     C  452   6.726   4.070   1.152 -0.4613  0.1387  0.0051
    4MOL0     C  453   6.804   3.971   1.091  0.6659  0.0302  0.3040
    4MOL0     O  454   6.736   3.861   1.023  0.5890  0.4597 -0.9750
    4MOL0     C  455   6.812   3.749   0.972 -0.5342 -0.7622  0.0201
    4MOL0     C  456   6.721   3.645   0.908  1.1826  0.4426 -0.2192
    4MOL0     C  457   6.608   3.708   0.828  0.5244  0.4613  0.4403
    4MOL0     C  458   6.532   3.609   0.743  0.0804 -0.1941 -0.4656
    4MOL0     C  459   6.480   3.497   0.827 -0.1336 -0.5653 -0.3385
    4MOL0     C  460   6.420   3.411   0.886  0.1988  0.1737 -1.4364
    4MOL0     C  461   6.941   3.981   1.094  0.0103  0.6055  0.1869
    4MOL0     C  462   7.005   4.092   1.168 -0.7626  0.4693 -0.4984
    4MOL0     H  463   7.028   4.597   1.274 -0.2385  1.1760  0.1480
    4MOL0     H  464   7.057   4.814   1.370  1.0539 -0.1207  2.1031
    4MOL0     H  465   7.047   5.012   1.461 -0.8613 -1.3155 -0.3621
    4MOL0     H  466   7.107   4.922   1.612 -0.6582 -3.7144 -2.9956
    4MOL0     H  467   6.898   5.128   1.667  0.5850  0.3487  1.0557
    4MOL0     H  468   7.066   5.190   1.603  1.2965  0.5333  1.3092
    4MOL0     H  469   7.180   5.088   1.791 -0.1758  0.0600  2.1558
    4MOL0     H  470   7.023   5.005   1.834 -3.0514  0.9702 -0.5408
    4MOL0     H  471   7.079   5.308   1.799  0.5279 -2.1307 -1.9800
    4MOL0     H  472   6.950   5.238   1.895 -0.7203  1.3562  0.1693
    4MOL0     H  473   7.232   5.180   1.982 -1.2306  0.3222 -1.7839
    4MOL0     H  474   7.074   5.162   2.068  0.3800 -2.4429 -1.3770
    4MOL0     H  475   7.055   5.407   2.079 -0.9744 -1.2744 -0.3484
    4MOL0     H  476   7.217   5.421   1.999  1.9739 -0.4779  1.9576
    4MOL0     H  477   7.173   5.276   2.264  0.9099 -0.4389  0.5697
    4MOL0     H  478   7.331   5.301   2.190 -0.7041 -1.7202 -0.0398
    4MOL0     H  479   7.146   5.521   2.288 -0.6673 -2.3400 -3.6648
    4MOL0     H  480   7.298   5.559   2.216 -1.8404  1.7955 -0.2259
    4MOL0     H  481   7.501   5.377   2.336  0.4864 -0.1966 -0.1619
    4MOL0     H  482   7.572   5.278   2.647  0.7541 -0.1103  4.5853
    4MOL0     H  483   7.598   5.437   2.717  0.8344 -0.8965  0.9656
    4MOL0     H  484   7.745   5.491   2.496 -1.1419  1.6735  1.3419
    4MOL0     H  485   7.712   5.318   2.453 -1.4383 -0.6118  0.9194
    4MOL0     H  486   7.833   5.251   2.660  1.8060  0.5371  0.5152
    4MOL0     H  487   7.929   5.348   2.552 -1.0639 -2.3803 -0.7187
    4MOL0     H  488   7.800   5.403   2.814 -0.7505 -4.0180 -2.0066
    4MOL0     H  489   7.865   5.544   2.715 -3.7612 -0.1340 -1.2538
    4MOL0     H  490   7.953   5.224   2.937 -0.4728  0.0117  0.6295
    4MOL0     H  491   7.980   5.240   3.189 -2.7659 -1.2981 -2.2561
    4MOL0     H  492   8.155   5.080   3.504 -2.2259 -0.0580  0.3739
    4MOL0     H  493   8.262   5.068   3.746  0.7850  1.6608  3.0763
    4MOL0     H  494   8.134   5.357   4.025  0.7072  0.1825  0.1542
    4MOL0     H  495   8.308   5.400   4.006  2.4233 -0.8039  0.7825
    4MOL0     H  496   8.229   5.154   4.158 -1.7335  0.4450  2.8660
    4MOL0     H  497   8.258   5.293   4.248  2.6163  5.1513 -1.9333
    4MOL0     H  498   8.470   5.339   4.141  0.9818 -0.6966 -1.2473
    4MOL0     H  499   8.454   5.177   4.069  2.6579 -1.8655  1.4983
    4MOL0     H  500   8.601   5.175   4.244  1.7960  1.3935  4.4715
    4MOL0     H  501   8.476   5.242   4.356 -0.3278  1.1117 -0.6811
    4MOL0     H  502   8.412   4.992   4.206  1.7469  1.0262 -2.7499
    4MOL0     H  503   8.349   5.045   4.353 -1.4908  3.2744 -3.5005
    4MOL0     H  504   8.627   4.920   4.329 -0.6757 -2.5816 -1.3700
    4MOL0     H  505   8.490   4.868   4.414  1.5015 -0.4016  0.8919
    4MOL0     H  506   8.641   5.125   4.506  1.1671 -0.7722  2.4770
    4MOL0     H  507   8.495   5.055   4.568  0.4201  1.1413  0.8542
    4MOL0     H  508   8.640   4.856   4.630  0.0133  1.2163  3.2840
    4MOL0     H  509   8.691   5.004   4.697  0.4318 -1.9171  1.0802
    4MOL0     H  510   8.119   5.465   3.818 -2.8657 -1.7214  1.0367
    4MOL0     H  511   8.033   5.485   3.609 -1.2852 -0.0786  2.5228
    4MOL0     H  512   8.215   5.596   3.135  1.2810 -0.4508 -0.4619
    4MOL0     H  513   8.175   5.585   2.902 -2.0643  0.6089  0.0166
    4MOL0     H  514   6.772   4.710   1.679 -1.9995  1.2451 -3.5907
    4MOL0     H  515   6.794   4.463   1.611  1.2120  0.5890  0.7875
    4MOL0     H  516   6.722   4.268   1.245 -0.6593 -0.4925  0.6309
    4MOL0     H  517   6.620   4.048   1.143 -0.9228  2.0982  0.1016
    4MOL0     H  518   6.874   3.694   1.044  0.7807 -1.9590 -1.9092
    4MOL0     H  519   6.884   3.787   0.899 -1.1607 -1.3522 -0.9212
    4MOL0     H  520   6.785   3.591   0.837  1.8680  1.0412 -0.0702
    4MOL0     H  521   6.674   3.582   0.984 -4.0411 -0.0796 -3.3707
    4MOL0     H  522   6.652   3.771   0.750 -1.7618 -1.1648 -2.3723
    4MOL0     H  523   6.538   3.775   0.880 -1.6519 -2.3568  1.3803
    4MOL0     H  524   6.462   3.663   0.679 -1.3029  0.2718  1.3762
    4MOL0     H  525   6.616   3.571   0.683  0.5073 -0.4041  0.2472
    4MOL0     H  526   6.361   3.333   0.931  0.9267 -0.6219 -1.8176
    4MOL0     H  527   7.005   3.907   1.047 -1.0048 -1.2026  1.5134
    4MOL0     H  528   7.114   4.092   1.170 -0.6071 -3.1942  3.0452
    5MOL0     O  529   7.945   0.157  10.680  0.2734 -0.3164 -0.4091
    5MOL0     C  530   7.960   0.145  10.554  0.1395 -0.8865 -1.0345
    5MOL0     O  531   7.906   0.042  10.478  0.2242  0.1195  0.6224
    5MOL0     C  532   7.826  -0.054  10.537 -0.2689 -0.1160 -0.6755
    5MOL0     C  533   7.730  -0.028  10.642 -0.4298  0.0577  1.2278
    5MOL0     C  534   7.651  -0.122  10.693  0.0054  0.1783  0.4168
    5MOL0     C  535   7.647  -0.251  10.646 -0.0310  0.2133  0.4881
    5MOL0     O  536   7.563  -0.341  10.709  0.1469  0.2358 -0.1223
    5MOL0     C  537   7.580  -0.481  10.683  0.3028 -0.0109 -1.1254
    5MOL0     C  538   7.468  -0.563  10.760 -0.2468 -0.1190  0.4159
    5MOL0     C  539   7.533  -0.661  10.859  0.3313 -1.1872  0.5680
    5MOL0     C  540   7.442  -0.762  10.932 -0.3437  0.4022 -0.2170
    5MOL0     C  541   7.366  -0.709  11.061 -1.0544  0.2650 -0.5234
    5MOL0     C  542   7.460  -0.654  11.163 -0.5286 -0.0642 -0.7722
    5MOL0     C  543   7.404  -0.643  11.306 -0.3740  0.9143  0.9315
    5MOL0     C  544   7.291  -0.550  11.320 -0.8742 -0.2937 -0.0968
    5MOL0     N  545   7.264  -0.518  11.456  0.0830 -1.0728 -0.2678
    5MOL0     C  546   7.204  -0.591  11.554  0.6356  1.2641 -0.4454
    5MOL0     C  547   7.204  -0.522  11.669 -0.2294 -1.2543  0.2514
    5MOL0     C  548   7.151  -0.570  11.804  0.3399  1.0477 -1.0861
    5MOL0     C  549   7.125  -0.471  11.916  0.0678  0.2848 -0.7219
    5MOL0     C  550   7.026  -0.361  11.873  0.1765 -0.5059 -0.9313
    5MOL0     C  551   7.046  -0.242  11.962 -0.1541 -0.2152  0.2778
    5MOL0     O  552   7.169  -0.176  11.916  1.0165  0.0711 -0.6781
    5MOL0     C  553   7.218  -0.070  11.998  0.5371  0.5606 -1.0028
    5MOL0     C  554   7.151  -0.008  12.112 -0.8695  0.5779  0.1598
    5MOL0     C  555   7.194   0.111  12.169  0.4744 -0.3600 -0.5565
    5MOL0     C  556   7.318   0.158  12.130 -0.1991  0.2815  0.8841
    5MOL0     C  557   7.372   0.285  12.194 -0.9344 -0.7819  0.2939
    5MOL0     O  558   7.311   0.335  12.307 -0.2313 -0.6609 -0.5056
    5MOL0     C  559   7.373   0.438  12.380  0.8266 -0.6270  0.8016
    5MOL0     C  560   7.372   0.568  12.325 -0.2225 -0.4527 -1.0382
    5MOL0     C  561   7.414   0.670  12.417 -1.0306  0.5524 -0.2765
    5MOL0     C  562   7.444   0.652  12.550 -0.4988  0.6500  0.2167
    5MOL0     O  563   7.501   0.736  12.641  0.1361 -0.6498  0.9602
    5MOL0     C  564   7.408   0.842  12.664 -0.6691 -0.1054 -0.6058
    5MOL0     C  565   7.485   0.969  12.716  0.4813  0.4844  0.4705
    5MOL0     C  566   7.379   1.080  12.745 -0.5998 -0.3454  1.0633
    5MOL0     C  567   7.432   1.198  12.816  0.0181 -0.6555 -0.2714
    5MOL0     C  568   7.328   1.295  12.875 -0.2708 -0.6999 -0.0324
    5MOL0     C  569   7.295   1.259  13.021 -0.4281  0.9639 -0.8949
    5MOL0     C  570   7.185   1.352  13.080  0.1594  0.2480 -0.5132
    5MOL0     C  571   7.141   1.328  13.223  0.0403 -0.9718 -0.2094
    5MOL0    Cl  572   7.046   1.476  13.257 -0.0887  0.0226 -0.3572
    5MOL0     C  573   7.455   0.522  12.591  0.1200  0.2059  0.1782
    5MOL0     C  574   7.427   0.411  12.505  0.2837  0.0604  0.1038
    5MOL0     O  575   7.470   0.335  12.144  0.1482 -0.0068 -1.1564
    5MOL0     C  576   7.386   0.106  12.019  0.2534  0.8782 -0.4306
    5MOL0     C  577   7.329  -0.009  11.954  0.0750 -0.3750 -0.0143
    5MOL0     N  578   7.287  -0.418  11.648  0.0161  0.3483  0.1077
    5MOL0     N  579   7.323  -0.408  11.522  0.2791  0.0067  0.4662
    5MOL0     C  580   7.742  -0.284  10.546  0.3330 -0.3301  0.1334
    5MOL0     C  581   7.825  -0.184  10.486  0.9444  1.0502  1.3865
    5MOL0     C  582   8.053   0.237  10.497 -0.9019  1.1605 -0.7207
    5MOL0     C  583   8.095   0.216  10.363  0.5132 -0.3858 -0.3914
    5MOL0     C  584   8.178   0.314  10.299 -0.0540 -0.0291  0.4127
    5MOL0     C  585   8.229   0.420  10.367  0.1349  0.0458 -0.8243
    5MOL0     O  586   8.313   0.501  10.306  0.0070 -0.5411  0.1489
    5MOL0     C  587   8.277   0.637  10.270 -0.4004 -0.8086  0.5577
    5MOL0     C  588   8.138   0.668  10.225  0.0422 -0.2566 -0.8994
    5MOL0     C  589   8.112   0.817  10.217  0.0354  0.8290 -0.7197
    5MOL0     C  590   8.147   0.874  10.077 -0.1597  0.7627  1.1714
    5MOL0     C  591   8.120   1.019  10.088 -0.2237 -1.2405  0.2281
    5MOL0     C  592   8.098   1.138  10.094 -0.2189  0.8421 -0.6587
    5MOL0     C  593   8.192   0.433  10.503 -1.2835  0.7514  0.6588
    5MOL0     C  594   8.114   0.344  10.567  0.3126 -0.0682 -0.2281
    5MOL0     H  595   7.722   0.067  10.694 -1.3078 -0.0130  1.2298
    5MOL0     H  596   7.579  -0.093  10.769 -1.8830 -1.1880 -0.7326
    5MOL0     H  597   7.678  -0.502  10.727 -1.1595 -1.7451  1.6165
    5MOL0     H  598   7.578  -0.522  10.582  0.4725 -1.7219 -0.4711
    5MOL0     H  599   7.395  -0.609  10.693 -1.4204  0.1928  1.4481
    5MOL0     H  600   7.409  -0.492  10.818 -2.9876 -0.1572 -2.0505
    5MOL0     H  601   7.596  -0.598  10.923  0.7032  0.4761 -1.3296
    5MOL0     H  602   7.602  -0.718  10.796  1.4005 -1.0645  1.6127
    5MOL0     H  603   7.369  -0.795  10.858 -1.3276 -0.0136  0.9000
    5MOL0     H  604   7.502  -0.847  10.965  0.4104  1.5523  1.5310
    5MOL0     H  605   7.311  -0.791  11.107  2.8811 -2.5809 -0.3574
    5MOL0     H  606   7.292  -0.635  11.029 -1.4788  0.6901  1.3251
    5MOL0     H  607   7.496  -0.561  11.119  2.1062 -1.5833 -2.0403
    5MOL0     H  608   7.548  -0.717  11.180 -1.9370 -1.9166  0.0846
    5MOL0     H  609   7.370  -0.744  11.330  0.3737  0.5255  0.3675
    5MOL0     H  610   7.490  -0.618  11.369  1.6729 -0.7137 -1.0629
    5MOL0     H  611   7.208  -0.600  11.270  0.4210 -0.2260 -2.4370
    5MOL0     H  612   7.330  -0.464  11.265  0.7089  0.4861  2.0849
    5MOL0     H  613   7.163  -0.689  11.533  0.7130  1.4396 -1.4878
    5MOL0     H  614   7.224  -0.646  11.833 -1.7226 -0.9303 -0.6819
    5MOL0     H  615   7.054  -0.618  11.783  1.5898 -0.8635 -2.9715
    5MOL0     H  616   7.223  -0.426  11.936  0.7538  0.0307 -3.1137
    5MOL0     H  617   7.090  -0.516  12.009 -1.8656  0.3718 -1.3763
    5MOL0     H  618   7.041  -0.330  11.769 -1.6495 -0.2972 -1.1680
    5MOL0     H  619   6.923  -0.395  11.882 -0.0481  0.4086  0.3713
    5MOL0     H  620   7.055  -0.268  12.068  0.9342  0.3724  0.3528
    5MOL0     H  621   6.963  -0.172  11.948 -0.7958 -0.8294  0.9766
    5MOL0     H  622   7.048  -0.043  12.122 -0.7206  0.0602 -0.1047
    5MOL0     H  623   7.134   0.165  12.242  1.4984 -0.4693  0.3951
    5MOL0     H  624   7.321   0.591  12.232 -0.2114  0.2755 -0.8690
    5MOL0     H  625   7.422   0.773  12.384 -1.7224  1.5657  2.4180
    5MOL0     H  626   7.331   0.808  12.734 -1.0083  1.8067  0.0091
    5MOL0     H  627   7.355   0.863  12.571 -3.1395  0.1515  0.7824
    5MOL0     H  628   7.548   1.005  12.633  1.1672 -0.0133  0.7677
    5MOL0     H  629   7.531   0.936  12.809  0.1704  0.4009  0.5963
    5MOL0     H  630   7.300   1.040  12.809 -0.4156 -2.0493  0.2644
    5MOL0     H  631   7.347   1.126  12.651  0.8181  0.0714  0.7558
    5MOL0     H  632   7.493   1.170  12.903 -1.2608  2.3525  1.7732
    5MOL0     H  633   7.502   1.252  12.752  1.8765 -1.8686  0.6416
    5MOL0     H  634   7.240   1.306  12.812 -1.6603  0.3739  1.9814
    5MOL0     H  635   7.374   1.394  12.872 -2.0960  0.1693 -1.3273
    5MOL0     H  636   7.388   1.253  13.078 -1.4570 -1.7077  0.6628
    5MOL0     H  637   7.255   1.157  13.022  0.1017  0.7362  0.6978
    5MOL0     H  638   7.215   1.457  13.072  1.2366 -0.1830 -3.8561
    5MOL0     H  639   7.095   1.341  13.019 -0.8987 -1.3078  1.2213
    5MOL0     H  640   7.232   1.309  13.281  1.2253 -1.7607 -2.2377
    5MOL0     H  641   7.069   1.245  13.227 -0.4616 -0.5530 -0.4396
    5MOL0     H  642   7.495   0.496  12.688 -0.6371 -0.0043  0.4412
    5MOL0     H  643   7.429   0.307  12.535 -0.5923  0.0669  0.2102
    5MOL0     H  644   7.461   0.164  11.966  1.5163 -1.4550 -1.3552
    5MOL0     H  645   7.357  -0.056  11.860 -0.7250 -0.6372 -0.1313
    5MOL0     H  646   7.733  -0.382  10.499 -0.6510 -0.5092  0.6809
    5MOL0     H  647   7.893  -0.226  10.413 -0.3260  2.7465 -0.9079
    5MOL0     H  648   8.048   0.133  10.312 -1.3823 -0.0310  0.7036
    5MOL0     H  649   8.214   0.293  10.199 -0.3870 -1.5972  0.5974
    5MOL0     H  650   8.352   0.675  10.201  0.3911  0.1298  1.8976
    5MOL0     H  651   8.307   0.705  10.350  1.5815 -1.3316  0.3173
    5MOL0     H  652   8.125   0.618  10.129  5.4124 -1.7823 -1.1798
    5MOL0     H  653   8.060   0.628  10.291 -0.7017 -0.0189 -1.6252
    5MOL0     H  654   8.166   0.874  10.293  0.1691  2.2861 -1.8653
    5MOL0     H  655   8.005   0.824  10.240  0.2261  0.8299  0.2137
    5MOL0     H  656   8.248   0.858  10.038 -0.7677 -1.9979  0.4890
    5MOL0     H  657   8.078   0.827  10.007 -1.0107 -2.3047  3.7845
    5MOL0     H  658   8.085   1.244  10.103 -0.3119  0.7214  0.9898
    5MOL0     H  659   8.219   0.521  10.561  0.7063  0.5898  0.0338
    5MOL0     H  660   8.107   0.367  10.673  0.0031  0.4479 -0.3577
    6MOL0     O  661   6.852   5.974   0.253 -0.4869  0.1381 -0.1378
    6MOL0     C  662   6.850   5.963   0.375 -0.6960 -0.2517 -0.9146
    6MOL0     O  663   6.752   5.993   0.460  0.2393 -0.0691 -0.7985
    6MOL0     C  664   6.632   6.043   0.425  0.7516 -0.1349 -0.2221
    6MOL0     C  665   6.600   6.140   0.320  0.1732 -0.0539 -0.4515
    6MOL0     C  666   6.465   6.196   0.299  0.4021  0.1317 -1.2688
    6MOL0     C  667   6.362   6.140   0.391  0.2651  0.8945  0.6314
    6MOL0     O  668   6.233   6.178   0.361 -1.2993  0.3865 -0.2136
    6MOL0     C  669   6.164   6.222   0.479  0.6062  0.5834 -0.2105
    6MOL0     C  670   6.024   6.270   0.463  1.3353 -0.5410 -0.4679
    6MOL0     C  671   5.973   6.322   0.603  0.3271 -0.0381  0.0617
    6MOL0     C  672   5.842   6.393   0.586  0.0990  0.6705  0.3181
    6MOL0     C  673   5.731   6.305   0.643 -0.3835  0.2773 -0.1487
    6MOL0     C  674   5.593   6.337   0.594  0.4079  0.6561  0.6850
    6MOL0     C  675   5.573   6.298   0.444 -0.5269 -0.3029 -1.0210
    6MOL0     C  676   5.419   6.289   0.398 -0.5102 -0.3089  0.5535
    6MOL0     N  677   5.338   6.411   0.416 -0.5068 -0.3836 -0.6962
    6MOL0     C  678   5.380   6.542   0.405  0.1959  0.2298  0.0896
    6MOL0     C  679   5.258   6.606   0.420  0.0980 -0.5417 -0.5147
    6MOL0     C  680   5.251   6.756   0.433  0.6916 -0.0250 -0.0543
    6MOL0     C  681   5.119   6.818   0.377  0.3232 -0.2271  0.1603
    6MOL0     C  682   5.127   6.977   0.388  0.3534 -0.5302  0.2138
    6MOL0     C  683   4.997   7.049   0.374 -0.3021 -0.0251  0.5874
    6MOL0     O  684   4.908   7.010   0.489  0.0286 -0.4474  0.3025
    6MOL0     C  685   4.949   7.042   0.623  1.3651  1.1857  0.3571
    6MOL0     C  686   4.989   7.170   0.667  0.5090  0.4881 -0.6939
    6MOL0     C  687   5.028   7.194   0.799 -0.1073 -0.4796 -1.2836
    6MOL0     C  688   5.021   7.092   0.893  0.0737  0.2958  0.6747
    6MOL0     C  689   5.057   7.115   1.031  0.4570  0.0872 -0.5049
    6MOL0     O  690   5.060   7.238   1.065 -0.3894 -0.8988 -0.0945
    6MOL0     C  691   5.101   7.278   1.195  0.3488 -0.4977  0.3805
    6MOL0     C  692   5.048   7.220   1.315 -0.4684 -0.7761 -0.4185
    6MOL0     C  693   5.063   7.280   1.439 -1.0275 -0.8383  0.4830
    6MOL0     C  694   5.146   7.389   1.457 -0.4223  0.0387 -0.3686
    6MOL0     O  695   5.148   7.446   1.583  0.2163  0.1107 -0.4954
    6MOL0     C  696   5.268   7.425   1.657 -0.1566 -0.3409  0.6062
    6MOL0     C  697   5.246   7.446   1.804 -0.6133  0.7650 -1.3017
    6MOL0     C  698   5.187   7.332   1.892 -0.1941  0.6285 -0.1851
    6MOL0     C  699   5.202   7.364   2.048 -0.6662  0.2409  0.6273
    6MOL0     C  700   5.108   7.475   2.079 -0.4290 -0.9375  0.5326
    6MOL0     C  701   5.125   7.519   2.225 -0.5063 -0.6732 -1.0044
    6MOL0     C  702   5.100   7.402   2.329  0.4230 -0.4031  1.0889
    6MOL0     C  703   5.041   7.468   2.449  0.1739  0.0595  0.1430
    6MOL0    Cl  704   5.146   7.602   2.498 -0.0817  0.2035  0.0670
    6MOL0     C  705   5.204   7.439   1.337 -0.7061 -0.7468 -0.6628
    6MOL0     C  706   5.177   7.389   1.208  0.4638  0.4675  0.9118
    6MOL0     O  707   5.079   7.015   1.103  0.4252  0.4027 -0.6849
    6MOL0     C  708   4.996   6.960   0.850  0.2336  0.3082  0.3236
    6MOL0     C  709   4.945   6.938   0.720  0.2116  0.0379  0.2866
    6MOL0     N  710   5.154   6.523   0.449  0.3353  0.9172 -0.8289
    6MOL0     N  711   5.197   6.398   0.430  0.7182 -0.1194  0.5837
    6MOL0     C  712   6.395   6.048   0.491  0.1639 -0.2622  0.0758
    6MOL0     C  713   6.527   5.998   0.507  0.2994 -0.3405  0.0599
    6MOL0     C  714   6.971   5.899   0.443  0.9362 -0.2518  0.4934
    6MOL0     C  715   7.096   5.903   0.390 -0.3807 -0.2386  0.1097
    6MOL0     C  716   7.204   5.842   0.456  0.6788 -0.9359  0.0999
    6MOL0     C  717   7.186   5.787   0.585 -0.2824  0.6439 -0.3666
    6MOL0     O  718   7.291   5.745   0.670  0.7003 -0.6903  0.1391
    6MOL0     C  719   7.373   5.849   0.719  0.0382  0.2821 -0.0402
    6MOL0     C  720   7.501   5.783   0.775  0.1007  0.0170 -0.0255
    6MOL0     C  721   7.467   5.677   0.878 -0.1408 -0.4156  0.0807
    6MOL0     C  722   7.591   5.672   0.960  0.2611 -0.4846  0.1430
    6MOL0     C  723   7.565   5.556   1.052  0.0930 -1.6150  0.1631
    6MOL0     C  724   7.565   5.467   1.130 -0.7945  0.5608 -0.0520
    6MOL0     C  725   7.060   5.777   0.631 -0.3980 -0.0427  0.0801
    6MOL0     C  726   6.954   5.837   0.560  0.6290 -0.1537 -0.5406
    6MOL0     H  727   6.677   6.182   0.256  0.9274 -0.9399 -0.1504
    6MOL0     H  728   6.442   6.266   0.220  1.7042 -0.6744 -2.4146
    6MOL0     H  729   6.214   6.307   0.527  0.1562  0.3974  0.6164
    6MOL0     H  730   6.155   6.143   0.555 -2.3860  1.7159  0.7483
    6MOL0     H  731   5.950   6.200   0.424 -1.9537  1.1706  2.1517
    6MOL0     H  732   6.025   6.350   0.388  3.5324 -1.1684 -1.2000
    6MOL0     H  733   6.036   6.408   0.629  3.2223 -0.6090 -4.1387
    6MOL0     H  734   5.984   6.246   0.680  1.4312 -1.4093 -1.3822
    6MOL0     H  735   5.845   6.487   0.641 -2.7404  1.1830 -0.2734
    6MOL0     H  736   5.819   6.422   0.483 -1.5900  1.2310  0.8343
    6MOL0     H  737   5.727   6.306   0.752 -0.0981 -1.9647 -0.0815
    6MOL0     H  738   5.748   6.199   0.624 -1.3117 -0.8685  4.2312
    6MOL0     H  739   5.579   6.445   0.601  0.6283  0.7497 -0.2436
    6MOL0     H  740   5.527   6.293   0.670 -1.1567 -1.7082 -1.8598
    6MOL0     H  741   5.625   6.372   0.383 -2.5640  3.2980  1.2463
    6MOL0     H  742   5.621   6.203   0.419 -1.8535 -1.7787  1.6204
    6MOL0     H  743   5.366   6.217   0.460  2.3774 -2.0008  1.2341
    6MOL0     H  744   5.433   6.256   0.294  3.1567  0.3244  0.7128
    6MOL0     H  745   5.481   6.577   0.387 -0.3857  1.9005 -0.0225
    6MOL0     H  746   5.337   6.807   0.388 -1.3283  3.0535 -0.7164
    6MOL0     H  747   5.259   6.779   0.540  0.5678  0.9105 -0.2386
    6MOL0     H  748   5.041   6.775   0.440  1.2645  0.1494  1.6464
    6MOL0     H  749   5.113   6.776   0.276 -0.3915  0.7357 -0.2006
    6MOL0     H  750   5.163   7.004   0.488 -2.2168  1.9589  0.5947
    6MOL0     H  751   5.197   7.009   0.310 -0.8213 -1.5466 -1.3227
    6MOL0     H  752   4.951   7.025   0.278  3.6301 -1.7870 -1.1002
    6MOL0     H  753   5.007   7.157   0.385 -1.1803  0.4111 -2.2865
    6MOL0     H  754   4.998   7.244   0.588 -2.0266  2.0312  0.3200
    6MOL0     H  755   5.076   7.286   0.833  0.7489 -1.6801  0.9515
    6MOL0     H  756   4.983   7.133   1.316 -0.7709 -0.5424  0.0845
    6MOL0     H  757   5.016   7.238   1.527  2.9507 -0.9344  2.8055
    6MOL0     H  758   5.337   7.505   1.627  0.8889 -0.9897  1.2221
    6MOL0     H  759   5.318   7.333   1.623 -1.6464 -0.2606 -2.0941
    6MOL0     H  760   5.179   7.533   1.807 -1.3129  0.2380 -1.3189
    6MOL0     H  761   5.339   7.478   1.851  0.1456 -0.2792 -2.0172
    6MOL0     H  762   5.241   7.240   1.869 -1.0673  0.4425 -1.6387
    6MOL0     H  763   5.078   7.330   1.877 -0.2446 -0.6704  0.2625
    6MOL0     H  764   5.182   7.269   2.100 -0.4635 -1.1437 -1.6774
    6MOL0     H  765   5.309   7.378   2.065 -0.8506  0.6350  1.5639
    6MOL0     H  766   5.007   7.442   2.053  0.2471 -2.1957 -0.6672
    6MOL0     H  767   5.138   7.564   2.022  2.8757 -0.8592  2.1786
    6MOL0     H  768   5.057   7.604   2.228 -3.1426 -2.6514 -1.6427
    6MOL0     H  769   5.226   7.562   2.232 -1.6943  2.0857  1.7102
    6MOL0     H  770   5.026   7.343   2.274 -0.0100  0.2884  0.9223
    6MOL0     H  771   5.188   7.340   2.348  1.0889 -0.4737 -1.7345
    6MOL0     H  772   5.025   7.401   2.534 -1.7588 -1.5087 -1.3815
    6MOL0     H  773   4.941   7.507   2.432 -0.4917 -0.6203  2.2219
    6MOL0     H  774   5.245   7.538   1.357  1.8674 -1.4823 -1.9199
    6MOL0     H  775   5.208   7.445   1.120  0.0303 -0.5596  0.0879
    6MOL0     H  776   5.001   6.877   0.921  0.3761 -1.6633 -1.8799
    6MOL0     H  777   4.920   6.838   0.685 -0.2511 -0.4128  1.7798
    6MOL0     H  778   6.316   6.001   0.549  2.0323 -2.4118  1.0377
    6MOL0     H  779   6.558   5.922   0.578 -2.0454 -0.6671  0.8097
    6MOL0     H  780   7.127   5.963   0.305  3.0820 -1.5171  0.3329
    6MOL0     H  781   7.308   5.866   0.435  0.6735 -0.4094  0.6520
    6MOL0     H  782   7.325   5.908   0.797  1.6585  0.2321  1.0132
    6MOL0     H  783   7.379   5.918   0.634 -1.1972  0.3606 -0.0943
    6MOL0     H  784   7.567   5.746   0.696 -1.8540  0.5476 -2.0316
    6MOL0     H  785   7.555   5.869   0.815 -1.3946  1.0206 -0.0539
    6MOL0     H  786   7.458   5.583   0.823  1.8392 -1.1189  0.8298
    6MOL0     H  787   7.374   5.681   0.934  0.0519 -1.8872  0.5553
    6MOL0     H  788   7.681   5.662   0.899 -0.3101  0.2747 -0.8472
    6MOL0     H  789   7.601   5.760   1.025 -3.2519  1.7807 -2.0462
    6MOL0     H  790   7.565   5.381   1.194 -2.0634  1.9143  1.9019
    6MOL0     H  791   7.031   5.732   0.726  2.3942 -4.1845 -0.7360
    6MOL0     H  792   6.862   5.839   0.617  1.3319  0.9349  0.6146
    7MOL0     O  793   3.351   6.273   6.267  0.8696  0.1954 -0.2447
    7MOL0     C  794   3.298   6.378   6.256  0.0849 -0.6107  0.7928
    7MOL0     O  795   3.250   6.427   6.130  0.0153  0.2183 -0.1300
    7MOL0     C  796   3.230   6.341   6.032 -0.1862  0.6788 -0.8176
    7MOL0     C  797   3.108   6.333   5.968  0.9731  0.4626 -0.3172
    7MOL0     C  798   3.087   6.248   5.858 -0.2729 -0.0512 -0.0498
    7MOL0     C  799   3.191   6.172   5.805 -0.6019  0.0089 -0.4205
    7MOL0     O  800   3.146   6.108   5.692 -0.3377 -1.1706  0.2082
    7MOL0     C  801   3.249   6.047   5.604  0.5952 -0.4178 -0.0087
    7MOL0     C  802   3.182   5.971   5.484  0.0886 -0.6952  0.3778
    7MOL0     C  803   3.088   5.857   5.529  0.3493  0.6409  0.0258
    7MOL0     C  804   2.954   5.915   5.558  0.2787  0.2097 -0.9091
    7MOL0     C  805   2.845   5.818   5.539 -0.2273 -0.3422  0.1664
    7MOL0     C  806   2.848   5.692   5.639 -0.3974  0.4943  0.6224
    7MOL0     C  807   2.790   5.731   5.783 -0.5477  0.2864  0.6957
    7MOL0     C  808   2.745   5.605   5.856  1.0924  0.4737  0.3894
    7MOL0     N  809   2.640   5.547   5.771  0.1486  0.3132  0.2004
    7MOL0     C  810   2.510   5.599   5.736 -0.7827 -0.6456  0.0452
    7MOL0     C  811   2.445   5.497   5.673  0.4835  0.4219  0.4385
    7MOL0     C  812   2.304   5.495   5.623 -0.4672 -0.1329  0.3556
    7MOL0     C  813   2.207   5.460   5.732  0.1413  0.2440 -0.9265
    7MOL0     C  814   2.266   5.330   5.802 -0.3781  0.1486  0.8178
    7MOL0     C  815   2.161   5.269   5.889  0.1707 -0.0071  0.1309
    7MOL0     O  816   2.091   5.359   5.987 -0.7642  0.4292  0.0598
    7MOL0     C  817   1.995   5.310   6.066 -0.1609 -0.8851  0.5314
    7MOL0     C  818   1.959   5.179   6.070  0.5882  0.8291  0.6786
    7MOL0     C  819   1.853   5.141   6.168 -0.1639  0.7648 -0.5438
    7MOL0     C  820   1.779   5.230   6.239 -0.5795 -1.1397 -0.7025
    7MOL0     C  821   1.667   5.200   6.326 -0.1279 -0.0676 -0.3217
    7MOL0     O  822   1.657   5.293   6.429 -0.2590  0.0790 -0.5952
    7MOL0     C  823   1.580   5.275   6.546 -0.2064  0.3222  1.1471
    7MOL0     C  824   1.571   5.386   6.618 -0.0321 -0.4533  0.6503
    7MOL0     C  825   1.524   5.393   6.747  0.7832  0.2186 -0.1033
    7MOL0     C  826   1.473   5.272   6.808 -0.5039  0.3110 -0.4220
    7MOL0     O  827   1.440   5.267   6.944  0.9782  0.3203  0.3992
    7MOL0     C  828   1.432   5.147   7.028 -0.8103 -0.0038  0.3907
    7MOL0     C  829   1.443   5.187   7.176 -0.2195  0.1354 -0.1297
    7MOL0     C  830   1.314   5.228   7.235  0.2879  0.1965 -0.8288
    7MOL0     C  831   1.312   5.267   7.386  0.3488 -0.5535 -0.4317
    7MOL0     C  832   1.195   5.221   7.459 -0.0981 -0.5259  0.1269
    7MOL0     C  833   1.199   5.246   7.611 -0.0218  0.0969  0.4127
    7MOL0     C  834   1.283   5.367   7.650 -1.1965 -0.7707  0.0285
    7MOL0     C  835   1.199   5.492   7.618  0.3681 -0.4999 -1.3175
    7MOL0    Cl  836   1.252   5.634   7.707  0.1888  0.3629  0.0463
    7MOL0     C  837   1.476   5.155   6.732 -0.0375 -0.6315 -0.8327
    7MOL0     C  838   1.531   5.160   6.607 -0.9258 -0.3626 -0.0015
    7MOL0     O  839   1.615   5.092   6.314 -0.6474 -0.4676  0.4823
    7MOL0     C  840   1.818   5.364   6.225 -0.0826 -0.0052  0.1035
    7MOL0     C  841   1.916   5.403   6.135 -0.5579  0.8637  0.2586
    7MOL0     N  842   2.543   5.395   5.660 -0.2202 -0.7164 -0.4608
    7MOL0     N  843   2.652   5.428   5.727  0.2441  0.2142 -0.3719
    7MOL0     C  844   3.319   6.187   5.858  0.0464  0.2183 -0.3702
    7MOL0     C  845   3.332   6.269   5.967 -0.6160  0.0766  0.0492
    7MOL0     C  846   3.310   6.465   6.377 -0.8925 -0.4873  0.9841
    7MOL0     C  847   3.302   6.608   6.354 -0.3393  0.8105  0.2328
    7MOL0     C  848   3.319   6.692   6.465  0.4276  0.4559 -0.1328
    7MOL0     C  849   3.341   6.637   6.590  0.4032 -0.1382  0.4014
    7MOL0     O  850   3.366   6.718   6.697  0.3046  0.7777 -0.1508
    7MOL0     C  851   3.300   6.844   6.707 -0.3138 -0.4744 -0.0317
    7MOL0     C  852   3.153   6.829   6.739  0.0613  0.5051 -0.6774
    7MOL0     C  853   3.066   6.865   6.618  0.0593  0.4209 -0.3526
    7MOL0     C  854   3.010   7.013   6.628 -0.2071  0.4105  0.7694
    7MOL0     C  855   3.110   7.124   6.624 -0.9250 -0.0003 -0.1033
    7MOL0     C  856   3.193   7.213   6.624 -0.4553 -0.6522  0.2657
    7MOL0     C  857   3.353   6.499   6.617 -0.7967 -0.2089  0.3022
    7MOL0     C  858   3.339   6.415   6.502 -0.6000  0.6393  0.8586
    7MOL0     H  859   3.032   6.391   6.019  1.7776  1.9508 -0.7449
    7MOL0     H  860   2.987   6.256   5.817 -0.6538  2.3459  1.1070
    7MOL0     H  861   3.303   5.977   5.668 -3.2606 -2.5752  1.2088
    7MOL0     H  862   3.311   6.121   5.552  1.6692 -0.6905  0.8653
    7MOL0     H  863   3.250   5.917   5.418  1.8631 -0.1127  1.6611
    7MOL0     H  864   3.130   6.053   5.433 -0.0732 -0.9188  0.1845
    7MOL0     H  865   3.130   5.803   5.614 -1.7850 -0.3160  0.5308
    7MOL0     H  866   3.068   5.795   5.440 -0.2383  0.3910  0.3243
    7MOL0     H  867   2.957   5.952   5.661  2.0380  0.5673 -1.0458
    7MOL0     H  868   2.946   6.006   5.498  1.3887  2.3767  1.9527
    7MOL0     H  869   2.849   5.774   5.439 -1.7920  0.5871 -0.3440
    7MOL0     H  870   2.747   5.867   5.546 -0.3245 -0.3223 -1.1559
    7MOL0     H  871   2.942   5.636   5.637 -0.3024  0.6534 -0.5900
    7MOL0     H  872   2.765   5.635   5.597  0.0293  0.2419  0.1109
    7MOL0     H  873   2.872   5.780   5.836 -1.2361 -0.1479  2.2293
    7MOL0     H  874   2.707   5.802   5.782 -2.0600 -1.3766  1.3352
    7MOL0     H  875   2.700   5.624   5.954 -0.9072  1.8075 -0.7438
    7MOL0     H  876   2.833   5.542   5.874  0.0049 -1.2060 -0.0092
    7MOL0     H  877   2.460   5.683   5.785  0.5981 -0.4672  1.2311
    7MOL0     H  878   2.304   5.421   5.543  5.6428  1.8995 -2.1099
    7MOL0     H  879   2.287   5.599   5.594  4.2133  0.4493 -1.1264
    7MOL0     H  880   2.111   5.450   5.680  0.5196  0.5776 -1.7072
    7MOL0     H  881   2.197   5.544   5.801 -1.3230  0.7807 -1.7468
    7MOL0     H  882   2.289   5.263   5.719  0.6206  1.5819 -0.1208
    7MOL0     H  883   2.351   5.359   5.865  0.3666 -1.0011  0.3630
    7MOL0     H  884   2.205   5.190   5.949 -3.3895 -1.1224  1.5350
    7MOL0     H  885   2.093   5.216   5.822  2.5070 -0.7706 -1.7507
    7MOL0     H  886   2.009   5.099   6.014 -1.0319  0.7019 -0.6830
    7MOL0     H  887   1.845   5.037   6.199 -1.8674  1.7493  2.8824
    7MOL0     H  888   1.604   5.482   6.580 -0.3514  0.4121  2.4993
    7MOL0     H  889   1.524   5.492   6.791  2.7298  0.6280 -0.9684
    7MOL0     H  890   1.505   5.073   6.994 -0.1315  1.7786 -2.3518
    7MOL0     H  891   1.341   5.086   7.026 -0.1672 -1.1145  2.1947
    7MOL0     H  892   1.524   5.260   7.188 -0.2772  0.0535  0.9262
    7MOL0     H  893   1.474   5.091   7.220 -2.4302 -0.6335 -0.1549
    7MOL0     H  894   1.232   5.159   7.211 -0.4163  0.0778  1.6216
    7MOL0     H  895   1.294   5.328   7.196  1.3803  1.6196  1.9817
    7MOL0     H  896   1.392   5.220   7.444 -3.2538 -1.5401  4.3499
    7MOL0     H  897   1.324   5.375   7.400 -1.2168 -0.5484  1.2730
    7MOL0     H  898   1.179   5.112   7.455 -1.3071 -0.3467 -0.5119
    7MOL0     H  899   1.103   5.263   7.417  0.4350  1.1952  0.5957
    7MOL0     H  900   1.249   5.163   7.661 -2.7221 -2.6734 -1.1840
    7MOL0     H  901   1.099   5.260   7.655 -0.7296  0.0223 -1.1280
    7MOL0     H  902   1.315   5.370   7.754  0.2276  2.3777 -0.3712
    7MOL0     H  903   1.381   5.371   7.602 -0.1277  1.2157  2.2406
    7MOL0     H  904   1.091   5.493   7.638  0.6888 -1.3234  0.6933
    7MOL0     H  905   1.205   5.523   7.514  2.7717  0.0880 -1.0659
    7MOL0     H  906   1.441   5.059   6.770  1.4922 -0.5290  0.9626
    7MOL0     H  907   1.541   5.059   6.570  0.2895 -1.3422  2.7736
    7MOL0     H  908   1.775   5.452   6.273  1.0909 -0.0951  1.4134
    7MOL0     H  909   1.928   5.510   6.116 -1.1853  0.6630 -1.4776
    7MOL0     H  910   3.406   6.137   5.816 -1.1299 -1.1674 -1.2637
    7MOL0     H  911   3.429   6.290   6.011 -0.3365 -0.1159 -0.4612
    7MOL0     H  912   3.280   6.656   6.259  2.8932  2.5608  0.2232
    7MOL0     H  913   3.323   6.797   6.440 -0.7857  1.0200  1.8003
    7MOL0     H  914   3.326   6.918   6.631  0.4548  1.1676  1.7244
    7MOL0     H  915   3.354   6.885   6.793 -1.6275 -3.0845  2.2069
    7MOL0     H  916   3.136   6.724   6.768  2.1393  0.7216  1.6003
    7MOL0     H  917   3.129   6.891   6.825 -0.1982 -2.6560  1.7099
    7MOL0     H  918   2.983   6.794   6.614  1.6035 -1.4818 -0.1560
    7MOL0     H  919   3.125   6.854   6.526  3.4915  0.3126  1.6726
    7MOL0     H  920   2.944   7.024   6.542 -1.9831 -2.6175  1.6014
    7MOL0     H  921   2.942   7.012   6.714 -1.6223 -3.0249 -0.2107
    7MOL0     H  922   3.275   7.281   6.617 -2.2396  1.5526 -0.4539
    7MOL0     H  923   3.388   6.460   6.712 -2.2077 -3.4521 -0.3646
    7MOL0     H  924   3.353   6.307   6.509 -1.4866  0.5949  2.2397
    8MOL0     O  925  10.374   8.919   0.555  0.1841 -0.0488 -0.2926
    8MOL0     C  926  10.280   8.848   0.504  0.1629 -0.7816 -0.0302
    8MOL0     O  927  10.176   8.793   0.566  0.3576  0.2060  0.0651
    8MOL0     C  928  10.177   8.816   0.700 -0.1087 -0.0668  1.0996
    8MOL0     C  929  10.261   8.770   0.803  0.2581 -0.4430 -0.4316
    8MOL0     C  930  10.211   8.780   0.935  0.3617 -0.5334 -0.3236
    8MOL0     C  931  10.105   8.872   0.970  0.4317 -0.1441 -0.1667
    8MOL0     O  932  10.064   8.873   1.100  0.7659 -0.6138  0.5618
    8MOL0     C  933  10.080   8.986   1.181 -0.8138 -0.6807 -0.3654
    8MOL0     C  934  10.126   8.940   1.320  0.6365 -0.0918  0.2760
    8MOL0     C  935  10.006   8.906   1.406 -0.4800 -0.0717 -0.2210
    8MOL0     C  936  10.039   8.843   1.536  0.5832 -0.2017 -0.0970
    8MOL0     C  937  10.092   8.944   1.637  0.5612  0.2202 -0.2324
    8MOL0     C  938  10.229   8.912   1.689  0.3387  0.2885 -0.5722
    8MOL0     C  939  10.305   9.032   1.734  0.2112  0.0853  0.0414
    8MOL0     C  940  10.254   9.104   1.859  0.1983 -0.5230 -0.0845
    8MOL0     N  941  10.337   9.223   1.904 -1.2199  0.4968  0.6028
    8MOL0     C  942  10.428   9.222   2.004  0.1780  0.3387 -0.9759
    8MOL0     C  943  10.490   9.345   2.001 -0.2426 -0.8514  0.3116
    8MOL0     C  944  10.597   9.392   2.095 -0.5380 -0.7100 -0.0550
    8MOL0     C  945  10.547   9.504   2.189 -0.2651  0.1408 -0.3410
    8MOL0     C  946  10.502   9.636   2.113  0.3116 -0.1351 -0.2952
    8MOL0     C  947  10.489   9.750   2.210 -0.5037 -0.1350  0.5898
    8MOL0     O  948  10.486   9.870   2.137  0.1461  0.1161 -0.7073
    8MOL0     C  949  10.487   9.989   2.199  0.5074  0.0795 -0.8776
    8MOL0     C  950  10.505  10.001   2.334 -0.0379 -0.5459  0.9656
    8MOL0     C  951  10.491  10.131   2.393 -0.1186 -0.0159 -0.0038
    8MOL0     C  952  10.457  10.246   2.308  0.1872 -0.7294  0.8598
    8MOL0     C  953  10.433  10.382   2.362  0.2845 -1.0299  0.1204
    8MOL0     O  954  10.367  10.472   2.285  0.5161  0.0533  0.4467
    8MOL0     C  955  10.381  10.611   2.312 -0.2044 -0.2283 -1.0660
    8MOL0     C  956  10.488  10.678   2.259 -0.0778  0.1372 -0.6669
    8MOL0     C  957  10.506  10.817   2.269  0.0653 -0.3601 -0.9391
    8MOL0     C  958  10.390  10.892   2.311  0.7616  0.9803  0.3219
    8MOL0     O  959  10.397  11.030   2.325 -0.0986  0.4224  0.5664
    8MOL0     C  960  10.513  11.105   2.292 -1.0747 -0.6102 -0.8339
    8MOL0     C  961  10.492  11.245   2.329  1.0078  0.1162  0.4550
    8MOL0     C  962  10.528  11.295   2.471  0.5054 -0.0441  0.2887
    8MOL0     C  963  10.529  11.444   2.483  0.4893  0.0021  0.0103
    8MOL0     C  964  10.392  11.516   2.503 -0.2257  0.1851 -0.0306
    8MOL0     C  965  10.417  11.662   2.544  0.4717  1.3426  0.4796
    8MOL0     C  966  10.300  11.756   2.582  0.3728 -0.3296 -0.3804
    8MOL0     C  967  10.235  11.739   2.722 -0.3532 -0.0485  0.4008
    8MOL0    Cl  968  10.174  11.906   2.778  0.2095 -0.0553  0.0122
    8MOL0     C  969  10.279  10.826   2.367 -0.4585 -0.0158 -0.0197
    8MOL0     C  970  10.272  10.683   2.358  0.6904  0.0806  0.4365
    8MOL0     O  971  10.472  10.402   2.477 -0.9032  0.3621  1.0264
    8MOL0     C  972  10.448  10.222   2.166  0.1372 -0.2029 -0.1300
    8MOL0     C  973  10.465  10.098   2.123 -0.1917  0.4451 -0.6277
    8MOL0     N  974  10.435   9.416   1.893  0.2141 -0.5580  0.3601
    8MOL0     N  975  10.343   9.338   1.833 -0.4256  0.0416 -0.0009
    8MOL0     C  976  10.023   8.916   0.864 -0.5527 -0.3773  0.5474
    8MOL0     C  977  10.060   8.889   0.736  0.6729 -0.1830 -0.4379
    8MOL0     C  978  10.252   8.872   0.356  0.5225 -0.0846 -0.4481
    8MOL0     C  979  10.178   8.779   0.284 -0.2528  0.0249 -0.0765
    8MOL0     C  980  10.180   8.774   0.150 -0.0785 -0.6078  0.1949
    8MOL0     C  981  10.233   8.872   0.070 -0.5613  0.1091  0.2612
    8MOL0     O  982  10.240   8.862  -0.066  0.5881 -0.4121 -0.9944
    8MOL0     C  983  10.284   8.980  -0.140  0.5070 -0.3162 -0.2176
    8MOL0     C  984  10.276   8.946  -0.288 -0.2462  0.4625 -0.9516
    8MOL0     C  985  10.308   9.050  -0.391 -0.0718 -0.6729 -0.1727
    8MOL0     C  986  10.264   9.194  -0.354 -0.2352  0.1332  0.5044
    8MOL0     C  987  10.115   9.189  -0.340  0.6651 -0.3313  0.1182
    8MOL0     C  988   9.995   9.176  -0.326  0.2503  0.1566 -0.1093
    8MOL0     C  989  10.288   8.976   0.138  0.2393 -0.7532  0.7251
    8MOL0     C  990  10.298   8.979   0.279  0.7096  0.4345 -0.0282
    8MOL0     H  991  10.351   8.716   0.777  1.9896  2.4428 -0.8915
    8MOL0     H  992  10.265   8.741   1.021 -1.7484 -0.0928  1.2996
    8MOL0     H  993   9.990   9.047   1.192 -0.7970 -0.5042 -1.1719
    8MOL0     H  994  10.149   9.059   1.137 -0.8855 -1.2465 -1.4612
    8MOL0     H  995  10.195   9.009   1.368 -0.1812  0.6044  0.4730
    8MOL0     H  996  10.186   8.852   1.296  1.4356  1.2253 -3.2463
    8MOL0     H  997   9.937   8.839   1.353 -2.2618  0.4166  1.3533
    8MOL0     H  998   9.945   8.996   1.404  1.7238  1.4903 -0.7994
    8MOL0     H  999   9.945   8.807   1.580 -0.0357 -1.0861 -2.0012
    8MOL0     H 1000  10.098   8.751   1.528 -1.1523 -1.5731  1.5812
    8MOL0     H 1001  10.028   8.965   1.723  2.3550  1.4965  0.8429
    8MOL0     H 1002  10.091   9.038   1.580  0.1162  0.1382 -0.3648
    8MOL0     H 1003  10.298   8.871   1.614  3.1262  1.3920  1.2024
    8MOL0     H 1004  10.217   8.838   1.768  1.7678  2.3867  1.7666
    8MOL0     H 1005  10.402   8.987   1.758  1.3257  0.7299 -2.7419
    8MOL0     H 1006  10.321   9.106   1.654 -1.1639  0.2778 -0.0768
    8MOL0     H 1007  10.235   9.035   1.941 -3.2773 -1.0880 -1.1922
    8MOL0     H 1008  10.158   9.144   1.824  1.6496  2.0987 -1.3774
    8MOL0     H 1009  10.475   9.135   2.048  3.3780  0.9250 -2.8942
    8MOL0     H 1010  10.674   9.442   2.035 -0.5750 -2.6173 -1.7980
    8MOL0     H 1011  10.630   9.308   2.157  1.7674  0.8149  0.9488
    8MOL0     H 1012  10.628   9.526   2.259  2.3680  0.8094 -3.4146
    8MOL0     H 1013  10.460   9.471   2.246  0.4854  3.1143  2.8689
    8MOL0     H 1014  10.567   9.665   2.031 -1.5204 -0.0664 -1.7850
    8MOL0     H 1015  10.401   9.611   2.078 -1.1172  1.9517  1.9919
    8MOL0     H 1016  10.576   9.779   2.269 -0.5910  4.1896 -1.0478
    8MOL0     H 1017  10.396   9.750   2.268  0.6119 -2.2266  2.5291
    8MOL0     H 1018  10.518   9.914   2.398  2.4212 -1.2448 -0.3432
    8MOL0     H 1019  10.483  10.148   2.500 -2.5474 -0.8217  0.0181
    8MOL0     H 1020  10.573  10.616   2.231 -0.0576 -3.4360  5.3650
    8MOL0     H 1021  10.603  10.865   2.259 -0.5323  0.8706 -0.9680
    8MOL0     H 1022  10.554  11.090   2.192  2.2816  0.0216  0.3397
    8MOL0     H 1023  10.594  11.071   2.356 -0.7488  1.8914  0.1957
    8MOL0     H 1024  10.386  11.266   2.314  0.7143 -1.4070  0.1946
    8MOL0     H 1025  10.548  11.312   2.263 -1.5268  0.5096 -1.4621
    8MOL0     H 1026  10.630  11.258   2.487  0.5131  0.0281  0.4101
    8MOL0     H 1027  10.453  11.256   2.541 -0.1131  0.2352 -0.2109
    8MOL0     H 1028  10.598  11.464   2.565  0.3787 -2.1754  0.7173
    8MOL0     H 1029  10.580  11.480   2.393  0.0350 -3.0422 -1.6244
    8MOL0     H 1030  10.356  11.473   2.597  0.0203 -0.5373 -0.2644
    8MOL0     H 1031  10.317  11.497   2.425 -0.1110 -3.5936  0.5749
    8MOL0     H 1032  10.469  11.700   2.455  1.7548 -2.5964 -0.6629
    8MOL0     H 1033  10.490  11.663   2.626 -1.2988  1.0819  2.1151
    8MOL0     H 1034  10.343  11.857   2.589 -0.5121 -0.0498  1.6691
    8MOL0     H 1035  10.228  11.740   2.501  0.0486  0.3548 -0.2369
    8MOL0     H 1036  10.315  11.711   2.791 -0.7974 -0.7212  0.6548
    8MOL0     H 1037  10.160  11.659   2.723 -0.3502 -0.2290 -2.8126
    8MOL0     H 1038  10.203  10.890   2.410 -1.3569  0.6799 -2.4467
    8MOL0     H 1039  10.182  10.632   2.390 -1.2273  4.1353  2.2334
    8MOL0     H 1040  10.422  10.306   2.102 -3.5599  1.2073  2.7809
    8MOL0     H 1041  10.451  10.085   2.016 -0.8316 -0.3726 -0.4488
    8MOL0     H 1042   9.924   8.951   0.890 -0.5603 -0.6001  0.8346
    8MOL0     H 1043   9.986   8.902   0.658 -0.1010 -0.9198  0.1542
    8MOL0     H 1044  10.104   8.710   0.326 -1.2589 -0.5632 -2.6178
    8MOL0     H 1045  10.120   8.687   0.126 -1.6994  0.0949  1.5386
    8MOL0     H 1046  10.389   9.007  -0.126  1.0199 -2.3984  0.2490
    8MOL0     H 1047  10.222   9.068  -0.121  0.3488 -0.6182  0.7306
    8MOL0     H 1048  10.341   8.859  -0.305  0.6635  1.0299 -0.4469
    8MOL0     H 1049  10.172   8.911  -0.291 -0.9811  2.1838  1.2374
    8MOL0     H 1050  10.256   9.025  -0.484 -1.1412  1.4057 -0.1953
    8MOL0     H 1051  10.417   9.040  -0.395  0.0508 -2.5676  3.5570
    8MOL0     H 1052  10.305   9.249  -0.269 -0.9824  3.6029 -1.1860
    8MOL0     H 1053  10.284   9.250  -0.446 -3.6598  1.0264  0.1723
    8MOL0     H 1054   9.891   9.191  -0.304  0.7312  2.3192  1.0437
    8MOL0     H 1055  10.332   9.068   0.100 -4.7337  1.8900  0.5355
    8MOL0     H 1056  10.354   9.055   0.331 -0.6346 -0.1155  2.3671
    9MOL0     O 1057   8.910   9.768   9.030  0.1992 -0.7947 -0.7067
    9MOL0     C 1058   8.902   9.803   9.154 -0.6204  0.9493 -0.8308
    9MOL0     O 1059   8.855   9.919   9.211  0.1671  0.0810  0.7361
    9MOL0     C 1060   8.768   9.999   9.138 -0.9877 -0.1468  0.3554
    9MOL0     C 1061   8.647  10.036   9.187 -0.3377 -0.2418  0.0409
    9MOL0     C 1062   8.563  10.138   9.139 -0.2228  0.3279  0.5998
    9MOL0     C 1063   8.619  10.215   9.033  0.3192 -0.8072 -0.2781
    9MOL0     O 1064   8.558  10.320   8.969 -0.1583 -0.3556 -0.2959
    9MOL0     C 1065   8.417  10.344   9.016  0.0760  0.5510  0.0811
    9MOL0     C 1066   8.371  10.477   8.957 -0.5233  0.2434 -0.1467
    9MOL0     C 1067   8.403  10.500   8.810  0.0543 -0.1743  0.8654
    9MOL0     C 1068   8.378  10.650   8.780  0.3109  0.4864  0.0429
    9MOL0     C 1069   8.234  10.716   8.788  0.6343  0.1887 -0.1018
    9MOL0     C 1070   8.257  10.867   8.753  0.1953  0.3621  0.1666
    9MOL0     C 1071   8.130  10.947   8.789 -0.0073  0.3599  0.2305
    9MOL0     C 1072   8.157  11.093   8.760  1.0299 -0.9237  0.0590
    9MOL0     N 1073   8.032  11.147   8.711 -0.0824 -1.1599 -0.6477
    9MOL0     C 1074   8.002  11.154   8.579 -0.2913 -0.5298  0.3743
    9MOL0     C 1075   7.873  11.196   8.580 -0.0602 -0.5582  0.5180
    9MOL0     C 1076   7.799  11.234   8.458 -0.5601  0.1320  0.3342
    9MOL0     C 1077   7.736  11.374   8.467  0.2623  1.5357  0.1967
    9MOL0     C 1078   7.834  11.489   8.459  0.1314 -0.3287  0.3068
    9MOL0     C 1079   7.767  11.619   8.487 -0.3023 -0.3989  0.3425
    9MOL0     O 1080   7.671  11.636   8.376  0.3977  0.6699  1.0675
    9MOL0     C 1081   7.634  11.759   8.347  0.2809 -0.3200  0.3545
    9MOL0     C 1082   7.720  11.854   8.294 -0.5152  0.7473 -0.2014
    9MOL0     C 1083   7.676  11.971   8.244  0.0309 -0.2488 -0.3391
    9MOL0     C 1084   7.535  11.994   8.235 -1.5186 -0.0068  0.5099
    9MOL0     C 1085   7.482  12.126   8.183 -0.2442 -0.5262  0.1358
    9MOL0     O 1086   7.552  12.196   8.085 -0.4882 -0.0948 -0.4884
    9MOL0     C 1087   7.487  12.296   8.030  0.7241 -0.1097  0.7161
    9MOL0     C 1088   7.467  12.431   8.067  0.9183 -0.7246 -0.2574
    9MOL0     C 1089   7.412  12.523   7.973 -0.6661 -0.4253 -1.2962
    9MOL0     C 1090   7.339  12.484   7.858  0.4133  0.0680  0.4724
    9MOL0     O 1091   7.270  12.569   7.779  0.9383 -0.3602  0.4795
    9MOL0     C 1092   7.128  12.541   7.750  0.4996  0.2975 -0.4322
    9MOL0     C 1093   7.037  12.543   7.878 -0.6265  0.7769  0.8956
    9MOL0     C 1094   7.050  12.670   7.962  0.6291  0.0175 -0.1958
    9MOL0     C 1095   7.057  12.811   7.885  0.4460 -0.8212  1.2119
    9MOL0     C 1096   6.930  12.829   7.804  0.0626  0.1631  0.5261
    9MOL0     C 1097   6.942  12.942   7.703  0.2518  0.4615  0.3934
    9MOL0     C 1098   7.016  13.069   7.756 -0.6318 -0.9512  0.0420
    9MOL0     C 1099   6.921  13.145   7.850  0.0317 -0.2820  1.3897
    9MOL0    Cl 1100   6.977  13.307   7.900 -0.1485  0.0145  0.3954
    9MOL0     C 1101   7.337  12.350   7.834 -0.4359 -0.0213 -0.8758
    9MOL0     C 1102   7.424  12.252   7.906  0.1072  0.1399  0.6051
    9MOL0     O 1103   7.372  12.171   8.236 -0.7321 -0.0365  0.9378
    9MOL0     C 1104   7.447  11.905   8.300  0.9897  0.2768  0.4853
    9MOL0     C 1105   7.497  11.786   8.356  0.0162  0.2946  0.2934
    9MOL0     N 1106   7.830  11.211   8.709 -0.6455  0.6612  0.6433
    9MOL0     N 1107   7.928  11.192   8.784  0.7263 -0.4540  0.0100
    9MOL0     C 1108   8.744  10.181   8.974  0.4390 -0.2274 -0.5152
    9MOL0     C 1109   8.821  10.074   9.034  0.1987 -0.3273  0.9762
    9MOL0     C 1110   8.978   9.712   9.264  0.6257 -0.0118  0.3647
    9MOL0     C 1111   8.953   9.718   9.408 -0.3159  0.4292  0.1294
    9MOL0     C 1112   9.000   9.613   9.488 -0.9025 -0.3583 -0.1857
    9MOL0     C 1113   9.092   9.513   9.439 -0.5385  0.0312 -0.3025
    9MOL0     O 1114   9.147   9.418   9.527 -0.5136 -0.4303 -0.1951
    9MOL0     C 1115   9.157   9.282   9.476  0.0577  0.3846 -0.8832
    9MOL0     C 1116   9.100   9.186   9.588 -0.2929 -0.0624  0.2215
    9MOL0     C 1117   9.174   9.208   9.725 -0.2142  0.3092 -0.0537
    9MOL0     C 1118   9.142   9.107   9.830  0.3790 -0.8024 -0.5321
    9MOL0     C 1119   9.222   8.992   9.811 -0.3954 -1.0617  0.4813
    9MOL0     C 1120   9.272   8.883   9.790  0.3592  0.6985 -0.6427
    9MOL0     C 1121   9.121   9.510   9.300  0.1399  0.1210 -0.4121
    9MOL0     C 1122   9.059   9.606   9.219  0.7059  0.2058  0.0368
    9MOL0     H 1123   8.614   9.978   9.273  2.7901  1.4185  2.6182
    9MOL0     H 1124   8.461  10.151   9.171 -0.3149 -1.5376  1.1665
    9MOL0     H 1125   8.394  10.346   9.123  0.8583 -0.4269  0.2845
    9MOL0     H 1126   8.369  10.253   8.980 -0.9622  1.8326 -2.0025
    9MOL0     H 1127   8.420  10.552   9.019  0.4727  0.2209 -0.8900
    9MOL0     H 1128   8.263  10.474   8.976 -0.1773 -1.6937  2.0736
    9MOL0     H 1129   8.356  10.433   8.736 -0.6583  1.5976 -0.3667
    9MOL0     H 1130   8.509  10.491   8.784 -0.3150 -3.7583  0.0500
    9MOL0     H 1131   8.449  10.709   8.839  2.1892 -2.4240  0.9092
    9MOL0     H 1132   8.412  10.665   8.677  0.0985  2.7787  0.2687
    9MOL0     H 1133   8.198  10.687   8.887 -0.0611 -2.8622 -1.1212
    9MOL0     H 1134   8.158  10.681   8.718 -0.2264  2.9617 -0.6813
    9MOL0     H 1135   8.278  10.876   8.646 -3.4754 -0.2986 -0.7437
    9MOL0     H 1136   8.338  10.904   8.818  0.5979 -2.0091  1.1559
    9MOL0     H 1137   8.041  10.914   8.734  0.5352 -1.6246  0.4395
    9MOL0     H 1138   8.118  10.949   8.898 -0.2452  2.1451  0.2016
    9MOL0     H 1139   8.241  11.108   8.691  1.9489  1.9517  1.6540
    9MOL0     H 1140   8.203  11.139   8.848  3.6021 -3.8743  0.4312
    9MOL0     H 1141   8.066  11.136   8.493  1.0672 -0.4110  1.3343
    9MOL0     H 1142   7.729  11.150   8.452 -0.3954  0.0996 -1.7739
    9MOL0     H 1143   7.861  11.237   8.369  1.5694  0.9429  1.7686
    9MOL0     H 1144   7.672  11.374   8.556 -1.7220 -1.1453 -1.0655
    9MOL0     H 1145   7.668  11.390   8.384  1.3418  5.1758 -0.1437
    9MOL0     H 1146   7.915  11.487   8.532 -0.8700  0.3064  1.4676
    9MOL0     H 1147   7.884  11.483   8.362  2.0301 -5.3509  1.3037
    9MOL0     H 1148   7.841  11.699   8.485  0.6954 -1.3081  0.1901
    9MOL0     H 1149   7.715  11.619   8.584 -1.9064  1.4688 -0.4360
    9MOL0     H 1150   7.825  11.828   8.289 -0.5682  0.7165 -1.2621
    9MOL0     H 1151   7.755  12.030   8.199 -0.7670 -0.0677 -1.5688
    9MOL0     H 1152   7.517  12.473   8.153  0.1310 -0.3611  0.0386
    9MOL0     H 1153   7.426  12.629   7.994  2.5093 -1.1226  0.7821
    9MOL0     H 1154   7.108  12.460   7.680 -3.4942  2.1636 -1.7885
    9MOL0     H 1155   7.098  12.624   7.684  0.8053 -0.9724 -2.2396
    9MOL0     H 1156   7.059  12.458   7.942 -1.6882 -0.6775 -0.5792
    9MOL0     H 1157   6.938  12.537   7.833 -0.1717 -1.6256  0.0406
    9MOL0     H 1158   7.143  12.652   8.016  0.2236  0.3172  0.6166
    9MOL0     H 1159   6.964  12.672   8.029 -0.2529  3.6714 -1.2160
    9MOL0     H 1160   7.074  12.891   7.958  2.5213  0.3424 -0.4421
    9MOL0     H 1161   7.146  12.810   7.821 -3.0490 -0.8881 -4.3311
    9MOL0     H 1162   6.848  12.852   7.873  0.7929 -0.5994  1.6863
    9MOL0     H 1163   6.907  12.740   7.745  1.0809  0.7959 -0.8760
    9MOL0     H 1164   6.843  12.960   7.659 -0.2553 -3.9240 -0.7931
    9MOL0     H 1165   7.002  12.902   7.622 -0.7961 -1.1946  0.3791
    9MOL0     H 1166   7.109  13.044   7.806 -0.2454  0.6753  0.1914
    9MOL0     H 1167   7.053  13.132   7.674  1.0272 -0.0847  1.4144
    9MOL0     H 1168   6.906  13.096   7.946  1.3155  0.3338  1.9303
    9MOL0     H 1169   6.823  13.155   7.802 -0.5513 -0.2322  2.5659
    9MOL0     H 1170   7.295  12.319   7.739  0.7137  1.6878 -2.0008
    9MOL0     H 1171   7.430  12.147   7.880  2.6747  0.3922 -0.0692
    9MOL0     H 1172   7.340  11.922   8.297  0.6153 -1.8717 -1.5080
    9MOL0     H 1173   7.440  11.709   8.407  0.3418 -0.0069  0.2091
    9MOL0     H 1174   8.789  10.234   8.891 -2.0219  1.0055 -1.1764
    9MOL0     H 1175   8.918  10.040   8.997 -1.2358 -2.5316 -1.0165
    9MOL0     H 1176   8.876   9.787   9.442 -0.4620  2.2243 -3.3835
    9MOL0     H 1177   8.967   9.603   9.591 -1.8101  0.1914 -0.4180
    9MOL0     H 1178   9.260   9.254   9.451 -0.2164 -2.0909  0.4139
    9MOL0     H 1179   9.089   9.261   9.393 -1.4654  2.1787 -0.1678
    9MOL0     H 1180   8.994   9.209   9.600  0.0275  1.7546 -0.1642
    9MOL0     H 1181   9.108   9.087   9.543  1.3406  0.1088  0.0847
    9MOL0     H 1182   9.133   9.301   9.764 -1.6407 -0.5236  0.5372
    9MOL0     H 1183   9.281   9.227   9.716  0.2659 -2.3562 -1.0884
    9MOL0     H 1184   9.161   9.154   9.927  1.2325  0.5092 -1.3082
    9MOL0     H 1185   9.035   9.086   9.818  0.1111  0.2169 -0.0877
    9MOL0     H 1186   9.318   8.790   9.764  0.9985  0.6665  0.5379
    9MOL0     H 1187   9.173   9.434   9.243 -0.6880 -0.2538 -0.6737
    9MOL0     H 1188   9.094   9.611   9.116  3.0920  0.2999  0.7888
   10MOL0     O 1189   9.472   7.789  11.429 -0.1293  0.0443 -0.2435
   10MOL0     C 1190   9.484   7.847  11.317 -0.3215  0.8020  0.0954
   10MOL0     O 1191   9.464   7.987  11.299 -0.8849  0.7326  0.6598
   10MOL0     C 1192   9.458   8.075  11.405 -0.4152  0.2489 -0.1204
   10MOL0     C 1193   9.560   8.171  11.428  0.1781  0.5487  0.2985
   10MOL0     C 1194   9.565   8.249  11.541  0.0685  0.4429 -0.5919
   10MOL0     C 1195   9.466   8.220  11.640 -0.8013  0.1171 -1.1189
   10MOL0     O 1196   9.458   8.274  11.767  0.6676 -0.2143  0.2107
   10MOL0     C 1197   9.564   8.371  11.810  0.1987 -0.8595  0.0759
   10MOL0     C 1198   9.677   8.285  11.881  0.8806  0.3143 -0.1547
   10MOL0     C 1199   9.781   8.362  11.967  0.9689  0.0113  0.2469
   10MOL0     C 1200   9.719   8.470  12.058  0.1013 -0.2915 -0.1630
   10MOL0     C 1201   9.714   8.614  11.993  0.1214 -1.0653  0.5435
   10MOL0     C 1202   9.623   8.716  12.081  0.4444 -0.2265 -0.6311
   10MOL0     C 1203   9.649   8.734  12.229 -0.5601  0.7793  0.3815
   10MOL0     C 1204   9.588   8.852  12.290  0.2937  0.2013 -0.9596
   10MOL0     N 1205   9.442   8.827  12.304  0.3582 -0.1753 -0.8694
   10MOL0     C 1206   9.361   8.868  12.212  0.4749  0.3868 -0.1882
   10MOL0     C 1207   9.250   8.801  12.220 -0.6766 -0.4551  0.1789
   10MOL0     C 1208   9.126   8.809  12.137 -0.2652  1.2082 -0.9887
   10MOL0     C 1209   9.035   8.901  12.217 -0.2880 -0.4769  0.4521
   10MOL0     C 1210   8.937   8.976  12.120  0.3354  1.0309  0.1499
   10MOL0     C 1211   8.837   9.064  12.205  0.1963  0.5754 -0.2596
   10MOL0     O 1212   8.887   9.143  12.325 -0.2393  0.5725  0.2274
   10MOL0     C 1213   8.964   9.248  12.306 -0.0462  0.1587 -0.2221
   10MOL0     C 1214   8.996   9.309  12.185  0.1648  0.4114  0.2624
   10MOL0     C 1215   9.103   9.390  12.177 -0.7835  0.6268 -0.3040
   10MOL0     C 1216   9.197   9.409  12.283 -0.1677  0.3344 -0.5069
   10MOL0     C 1217   9.324   9.492  12.274  1.1038 -0.0734 -0.4016
   10MOL0     O 1218   9.356   9.519  12.147  0.5214  0.3592  0.2948
   10MOL0     C 1219   9.431   9.422  12.081  0.1640  0.2588  0.0516
   10MOL0     C 1220   9.410   9.399  11.947  0.3334 -0.0035  0.1830
   10MOL0     C 1221   9.487   9.294  11.881 -0.7714 -0.0313  0.6224
   10MOL0     C 1222   9.581   9.219  11.946 -0.4999 -0.2067 -0.2941
   10MOL0     O 1223   9.638   9.102  11.895  0.1026  0.4051  0.0888
   10MOL0     C 1224   9.549   9.007  11.832 -0.2891  0.2747 -0.9435
   10MOL0     C 1225   9.615   8.893  11.756  0.0828 -1.4751 -0.3125
   10MOL0     C 1226   9.668   8.941  11.617  1.2277 -0.1066  0.2838
   10MOL0     C 1227   9.715   8.835  11.531  0.0899  0.0183  0.3179
   10MOL0     C 1228   9.784   8.887  11.396 -0.3584  0.6215  0.9012
   10MOL0     C 1229   9.826   8.762  11.321 -0.6043  0.3011 -0.5405
   10MOL0     C 1230   9.916   8.787  11.203  0.4137  0.4292 -0.6233
   10MOL0     C 1231   9.823   8.771  11.085  0.6596 -0.1305  0.2104
   10MOL0    Cl 1232   9.915   8.812  10.944 -0.1056  0.2388  0.2096
   10MOL0     C 1233   9.615   9.257  12.072 -0.3068  0.0124  0.6215
   10MOL0     C 1234   9.535   9.350  12.136  0.3312  0.9875  0.4203
   10MOL0     O 1235   9.385   9.534  12.376  0.6710 -0.4715  0.6246
   10MOL0     C 1236   9.155   9.360  12.407  0.1661  0.1270 -0.0058
   10MOL0     C 1237   9.035   9.296  12.413  0.0514 -0.3969 -0.1405
   10MOL0     N 1238   9.263   8.745  12.339  0.4871  0.5435  0.1971
   10MOL0     N 1239   9.375   8.757  12.399  0.0227 -0.4749 -0.4652
   10MOL0     C 1240   9.362   8.131  11.615 -0.4932 -0.2210  0.6908
   10MOL0     C 1241   9.355   8.065  11.501  0.2930  0.3854  0.5627
   10MOL0     C 1242   9.519   7.758  11.203  0.4720 -0.9761  0.2157
   10MOL0     C 1243   9.527   7.619  11.219  0.1962  0.2734  0.8557
   10MOL0     C 1244   9.562   7.532  11.111 -0.5408 -1.1454 -0.3128
   10MOL0     C 1245   9.575   7.588  10.981  0.2557 -0.3718  1.1789
   10MOL0     O 1246   9.606   7.496  10.886  0.0831  0.7846  0.0345
   10MOL0     C 1247   9.661   7.552  10.761  0.2253 -0.1706  0.4641
   10MOL0     C 1248   9.765   7.459  10.718  0.6912 -1.0459 -0.9428
   10MOL0     C 1249   9.813   7.490  10.583 -0.4686  0.3182  0.4104
   10MOL0     C 1250   9.912   7.387  10.526  0.3078 -0.3309  0.5222
   10MOL0     C 1251  10.033   7.380  10.609  0.9933  0.5541  0.0566
   10MOL0     C 1252  10.129   7.372  10.689 -0.8331 -0.1901 -0.1047
   10MOL0     C 1253   9.555   7.728  10.959  0.8076 -0.2805  0.3833
   10MOL0     C 1254   9.535   7.815  11.070  1.0349 -0.3081 -0.2137
   10MOL0     H 1255   9.634   8.192  11.352  0.9799 -0.7969  0.6781
   10MOL0     H 1256   9.648   8.315  11.562 -0.8688  2.1320 -1.9641
   10MOL0     H 1257   9.522   8.448  11.875  1.9512  0.2429 -0.0112
   10MOL0     H 1258   9.602   8.424  11.722  3.8328  1.4713  2.7620
   10MOL0     H 1259   9.715   8.229  11.795 -1.9976  1.4194 -2.3284
   10MOL0     H 1260   9.631   8.214  11.951 -0.2558 -0.8661 -2.0091
   10MOL0     H 1261   9.860   8.404  11.903  1.0571 -2.2897 -1.2942
   10MOL0     H 1262   9.827   8.284  12.028 -0.2685 -0.2940  0.8172
   10MOL0     H 1263   9.615   8.448  12.084  0.6576 -3.1794 -0.0294
   10MOL0     H 1264   9.773   8.484  12.152 -2.4177 -4.6425  2.2838
   10MOL0     H 1265   9.681   8.611  11.889  1.7209  0.2564 -0.0327
   10MOL0     H 1266   9.819   8.644  11.995 -0.6348  2.1772 -1.3869
   10MOL0     H 1267   9.524   8.673  12.067  0.1400  0.5910 -1.0735
   10MOL0     H 1268   9.641   8.812  12.030  4.6901 -1.9471 -2.9302
   10MOL0     H 1269   9.631   8.641  12.284 -0.6284  0.3806 -0.3003
   10MOL0     H 1270   9.757   8.749  12.235 -0.1545 -0.3165 -2.4334
   10MOL0     H 1271   9.603   8.945  12.236 -3.4666 -0.1744 -3.0103
   10MOL0     H 1272   9.622   8.862  12.394 -3.7430  2.8111  0.3658
   10MOL0     H 1273   9.393   8.931  12.129 -0.3825 -0.1163 -0.9189
   10MOL0     H 1274   9.078   8.714  12.111 -0.4336  1.3884 -1.3383
   10MOL0     H 1275   9.156   8.864  12.047  2.2041  3.0158  0.7944
   10MOL0     H 1276   9.084   8.976  12.280 -0.7426 -1.8635  2.5971
   10MOL0     H 1277   8.964   8.848  12.281  0.8647 -3.2857 -0.4314
   10MOL0     H 1278   8.985   9.037  12.043 -0.3280  0.9662 -0.3233
   10MOL0     H 1279   8.875   8.902  12.068  2.4889 -1.1392  0.4975
   10MOL0     H 1280   8.749   9.003  12.229  1.3000 -0.7962  0.4318
   10MOL0     H 1281   8.802   9.132  12.126 -1.9244 -1.1758 -0.9260
   10MOL0     H 1282   8.936   9.282  12.098 -0.3813  1.0523  0.4366
   10MOL0     H 1283   9.108   9.448  12.085 -1.2266  2.6898  0.8900
   10MOL0     H 1284   9.334   9.454  11.891 -3.0482 -2.5248  1.9326
   10MOL0     H 1285   9.475   9.272  11.775 -0.4524 -1.8279  0.9276
   10MOL0     H 1286   9.475   9.057  11.768 -0.3338 -0.6980 -1.6704
   10MOL0     H 1287   9.491   8.966  11.915  0.8033 -0.7401 -0.6617
   10MOL0     H 1288   9.531   8.824  11.740 -1.5486 -0.1162  1.8568
   10MOL0     H 1289   9.693   8.843  11.814  1.1776  0.7176  0.1946
   10MOL0     H 1290   9.754   9.005  11.640  4.7691 -4.3340  0.1430
   10MOL0     H 1291   9.587   8.995  11.568  1.9050 -0.0978 -0.8688
   10MOL0     H 1292   9.787   8.778  11.590  0.1379 -2.1043 -1.6780
   10MOL0     H 1293   9.630   8.770  11.511  0.7591 -1.4256  1.8718
   10MOL0     H 1294   9.875   8.942  11.421  0.6031 -0.7115  0.4137
   10MOL0     H 1295   9.714   8.944  11.335  2.1363  1.2611 -1.5471
   10MOL0     H 1296   9.743   8.694  11.301  0.3592 -0.7496 -1.1121
   10MOL0     H 1297   9.894   8.700  11.381 -2.3799  0.2151  1.5270
   10MOL0     H 1298   9.967   8.883  11.212  0.7919  0.1374  0.5155
   10MOL0     H 1299   9.993   8.710  11.195 -1.1185 -1.0786 -1.4888
   10MOL0     H 1300   9.736   8.835  11.100  1.1966  0.5989  0.2868
   10MOL0     H 1301   9.800   8.665  11.072 -0.4342  0.3746 -2.9526
   10MOL0     H 1302   9.692   9.196  12.118 -1.0567 -1.0642  0.5015
   10MOL0     H 1303   9.537   9.384  12.239 -4.9014  1.0878  0.8021
   10MOL0     H 1304   9.214   9.360  12.497  0.3835  1.3902 -0.1168
   10MOL0     H 1305   9.002   9.262  12.511 -1.7248 -1.2403 -0.9959
   10MOL0     H 1306   9.281   8.114  11.686 -2.7093  0.5216 -1.5386
   10MOL0     H 1307   9.270   7.997  11.497 -1.2091  2.1476  0.8871
   10MOL0     H 1308   9.510   7.564  11.311 -0.1288 -1.1566 -0.0211
   10MOL0     H 1309   9.576   7.426  11.126 -1.7102 -0.9616  2.8363
   10MOL0     H 1310   9.713   7.648  10.764  0.7725 -0.2885 -2.4197
   10MOL0     H 1311   9.579   7.548  10.689 -0.8996 -0.3639  1.7074
   10MOL0     H 1312   9.844   7.453  10.793 -0.3734 -0.3785  0.2670
   10MOL0     H 1313   9.723   7.359  10.716  2.1243 -1.6964 -0.2587
   10MOL0     H 1314   9.862   7.588  10.576  2.1073 -1.0048 -1.9586
   10MOL0     H 1315   9.728   7.472  10.517 -0.2070  0.4819  0.0253
   10MOL0     H 1316   9.855   7.295  10.540  0.6221 -0.3234  2.1400
   10MOL0     H 1317   9.940   7.400  10.421 -1.9165  0.4237 -0.0114
   10MOL0     H 1318  10.208   7.378  10.761 -2.7162  2.2660  1.9433
   10MOL0     H 1319   9.561   7.771  10.860  0.3541 -1.0796 -0.0103
   10MOL0     H 1320   9.511   7.919  11.050 -0.4264 -0.1103  2.1977
   11MOL0     O 1321   7.341   1.170   3.446  0.3291  0.1442  0.4767
   11MOL0     C 1322   7.370   1.271   3.499 -0.8861  0.3779 -0.9566
   11MOL0     O 1323   7.444   1.288   3.605 -0.1438 -0.2761 -0.4013
   11MOL0     C 1324   7.466   1.174   3.677  0.5247 -0.5184 -0.3764
   11MOL0     C 1325   7.405   1.159   3.803 -0.4738  0.7243  0.4385
   11MOL0     C 1326   7.415   1.044   3.887  0.4118  0.2969 -0.2429
   11MOL0     C 1327   7.489   0.940   3.838 -0.3995  0.5682  0.0125
   11MOL0     O 1328   7.486   0.828   3.908  0.4656  0.4709 -0.0328
   11MOL0     C 1329   7.540   0.708   3.860  0.4686  0.6632  0.1727
   11MOL0     C 1330   7.434   0.641   3.771 -0.3019  0.1827 -0.1041
   11MOL0     C 1331   7.288   0.621   3.827 -0.0642 -0.0580  1.1323
   11MOL0     C 1332   7.216   0.751   3.816  0.0658  0.1242 -0.1951
   11MOL0     C 1333   7.060   0.725   3.820  0.4307 -0.5650 -0.0372
   11MOL0     C 1334   6.974   0.838   3.880 -0.4515 -0.2559  0.6682
   11MOL0     C 1335   6.963   0.971   3.804 -0.7019  1.1442  0.5618
   11MOL0     C 1336   6.863   1.063   3.865  0.4901 -0.8386  0.2181
   11MOL0     N 1337   6.847   1.192   3.781  0.4696  0.3499 -0.1097
   11MOL0     C 1338   6.949   1.278   3.754  0.2434 -0.1138  0.0688
   11MOL0     C 1339   6.893   1.377   3.679 -1.0226  0.3416 -0.0482
   11MOL0     C 1340   6.968   1.488   3.627 -0.0436 -0.1947 -0.2741
   11MOL0     C 1341   6.948   1.503   3.479  0.2602 -0.2931 -0.2651
   11MOL0     C 1342   6.854   1.614   3.448  0.6009 -0.1767 -0.5809
   11MOL0     C 1343   6.842   1.647   3.298  0.8221 -0.3357  0.2776
   11MOL0     O 1344   6.797   1.782   3.303  0.7056  0.1243  1.2221
   11MOL0     C 1345   6.759   1.849   3.194  0.1806  0.6658  0.1152
   11MOL0     C 1346   6.723   1.971   3.225  0.6143 -0.3349  0.1587
   11MOL0     C 1347   6.693   2.068   3.131 -0.5281  0.0822 -0.2594
   11MOL0     C 1348   6.700   2.043   2.994  0.7109  0.4083  0.6770
   11MOL0     C 1349   6.670   2.154   2.898  0.0589  0.3224 -1.0124
   11MOL0     O 1350   6.688   2.281   2.946  0.8827  0.5425  0.4355
   11MOL0     C 1351   6.685   2.381   2.855  0.9121 -0.4236 -0.0390
   11MOL0     C 1352   6.794   2.411   2.774 -1.1661 -0.0409 -0.1974
   11MOL0     C 1353   6.788   2.519   2.679 -0.9875  0.0851 -0.2435
   11MOL0     C 1354   6.673   2.601   2.673 -1.0649  0.5750 -0.5019
   11MOL0     O 1355   6.655   2.698   2.584  0.4919 -0.4082  0.3718
   11MOL0     C 1356   6.762   2.759   2.515 -0.5195  0.2094  0.3256
   11MOL0     C 1357   6.709   2.872   2.431  0.1495 -0.1639 -0.7703
   11MOL0     C 1358   6.642   2.991   2.513  0.1332  1.1209  1.3631
   11MOL0     C 1359   6.730   3.055   2.615 -0.7027  0.1531 -0.7413
   11MOL0     C 1360   6.631   3.128   2.701 -0.7936 -0.1409 -0.0908
   11MOL0     C 1361   6.697   3.216   2.803 -0.0518  0.3933 -0.0741
   11MOL0     C 1362   6.770   3.348   2.740  0.0125 -0.0660  0.6325
   11MOL0     C 1363   6.792   3.457   2.843 -1.0482 -0.0851  0.4190
   11MOL0    Cl 1364   6.905   3.404   2.980 -0.0386 -0.1694 -0.4161
   11MOL0     C 1365   6.569   2.572   2.761 -0.2272 -0.8375 -0.8203
   11MOL0     C 1366   6.576   2.465   2.857 -0.5408 -0.8611  0.2071
   11MOL0     O 1367   6.629   2.117   2.785  0.3525 -0.4370 -0.6575
   11MOL0     C 1368   6.733   1.908   2.962 -0.1234  0.3997  0.5727
   11MOL0     C 1369   6.769   1.812   3.063  0.4692 -0.0061 -0.4196
   11MOL0     N 1370   6.760   1.347   3.660  0.4728 -0.3269  0.5033
   11MOL0     N 1371   6.727   1.241   3.720 -1.0459 -0.6372  0.3195
   11MOL0     C 1372   7.569   0.958   3.715 -0.2259 -0.6638  0.5837
   11MOL0     C 1373   7.566   1.083   3.646 -0.7943  0.3307  0.0330
   11MOL0     C 1374   7.326   1.399   3.425  0.1724  0.8563 -0.0733
   11MOL0     C 1375   7.249   1.393   3.305 -1.1593  0.6088  0.8634
   11MOL0     C 1376   7.207   1.509   3.237 -0.9202  0.5965  0.1871
   11MOL0     C 1377   7.250   1.633   3.280 -0.1216  0.6526 -0.9950
   11MOL0     O 1378   7.203   1.728   3.198  0.3960  0.1085 -0.0731
   11MOL0     C 1379   7.256   1.860   3.212 -0.1005 -0.2451 -1.1952
   11MOL0     C 1380   7.406   1.871   3.184  0.2359  0.2640  2.0374
   11MOL0     C 1381   7.434   1.837   3.032 -0.3982  0.6829  0.7301
   11MOL0     C 1382   7.587   1.828   3.001 -0.3835  1.1866 -0.7121
   11MOL0     C 1383   7.611   1.817   2.854  1.1721  0.2582 -0.9981
   11MOL0     C 1384   7.649   1.828   2.740  0.6701 -0.4430  0.3860
   11MOL0     C 1385   7.331   1.638   3.400  0.6545 -0.1205 -0.3247
   11MOL0     C 1386   7.367   1.526   3.471 -0.4549 -0.5179  0.6718
   11MOL0     H 1387   7.335   1.237   3.830 -2.6492 -1.1800  0.6584
   11MOL0     H 1388   7.370   1.030   3.985  1.2063  1.1674  0.2576
   11MOL0     H 1389   7.551   0.644   3.948 -0.6666 -3.2372 -2.2450
   11MOL0     H 1390   7.634   0.733   3.811  1.6632  1.1815  2.5990
   11MOL0     H 1391   7.484   0.544   3.759 -2.0970 -1.2010  2.4969
   11MOL0     H 1392   7.435   0.694   3.675  0.0987 -0.3941 -0.4258
   11MOL0     H 1393   7.282   0.572   3.924 -0.9514  0.4000  1.3177
   11MOL0     H 1394   7.236   0.551   3.761 -1.9555  0.8826  1.5572
   11MOL0     H 1395   7.246   0.811   3.902 -0.2946  0.8628 -0.5818
   11MOL0     H 1396   7.248   0.802   3.725  0.4939 -1.7850 -1.1826
   11MOL0     H 1397   7.044   0.643   3.890 -0.5384  1.6234  2.4754
   11MOL0     H 1398   7.031   0.701   3.717  1.9838  0.1095 -0.6604
   11MOL0     H 1399   7.010   0.857   3.981  1.5510 -2.0919  0.3641
   11MOL0     H 1400   6.873   0.796   3.888 -0.1935 -0.5387  3.5729
   11MOL0     H 1401   7.062   1.015   3.788 -1.7293  2.6712 -2.4149
   11MOL0     H 1402   6.931   0.946   3.702 -0.5310  1.5977  0.3942
   11MOL0     H 1403   6.898   1.086   3.966 -0.1736  3.7236 -0.3995
   11MOL0     H 1404   6.772   1.002   3.864 -1.4148  1.8232  0.1874
   11MOL0     H 1405   7.045   1.277   3.805  0.1163 -0.1426  0.3099
   11MOL0     H 1406   7.075   1.475   3.646  0.0873  1.4063  0.2556
   11MOL0     H 1407   6.943   1.578   3.683  3.7469  1.7775 -1.3731
   11MOL0     H 1408   6.919   1.407   3.435  0.1471  0.6746 -2.4382
   11MOL0     H 1409   7.041   1.535   3.431 -1.4817 -0.8615 -4.5313
   11MOL0     H 1410   6.761   1.580   3.493  1.3156  0.2227  1.2694
   11MOL0     H 1411   6.890   1.704   3.500 -0.5060  0.9973 -1.7652
   11MOL0     H 1412   6.770   1.585   3.244  0.5918  0.8254 -0.8057
   11MOL0     H 1413   6.937   1.641   3.244  2.5897  0.7393  3.0749
   11MOL0     H 1414   6.716   1.987   3.332 -1.6428  2.4676 -0.3027
   11MOL0     H 1415   6.670   2.167   3.168  0.2457 -0.6561  2.4751
   11MOL0     H 1416   6.873   2.338   2.787 -1.9604 -0.6968  1.2507
   11MOL0     H 1417   6.868   2.538   2.608  0.8375 -2.4699  0.9585
   11MOL0     H 1418   6.812   2.691   2.446  1.1508  0.1950  1.5049
   11MOL0     H 1419   6.839   2.784   2.588  0.4606 -2.9089  0.4959
   11MOL0     H 1420   6.636   2.838   2.358 -3.6175  2.7147  1.2957
   11MOL0     H 1421   6.800   2.912   2.385 -0.2252  0.4140 -1.0256
   11MOL0     H 1422   6.556   2.944   2.560 -0.4689 -0.6984 -1.3567
   11MOL0     H 1423   6.603   3.054   2.433 -4.0035 -4.5625 -1.8083
   11MOL0     H 1424   6.785   2.987   2.681 -1.6611 -1.1133 -1.2046
   11MOL0     H 1425   6.804   3.114   2.561 -0.8675 -0.5967 -1.8182
   11MOL0     H 1426   6.563   3.065   2.759 -3.1475  3.1118  0.9985
   11MOL0     H 1427   6.561   3.185   2.639  0.8412  1.0777 -0.9091
   11MOL0     H 1428   6.765   3.144   2.850  0.4305 -1.3021 -3.1143
   11MOL0     H 1429   6.623   3.240   2.879 -2.5939 -3.1107 -1.1907
   11MOL0     H 1430   6.866   3.317   2.698 -0.0228  2.0142 -1.1589
   11MOL0     H 1431   6.709   3.379   2.655 -0.0931 -3.3625 -0.6254
   11MOL0     H 1432   6.698   3.480   2.894  0.2260  0.8310  2.4841
   11MOL0     H 1433   6.826   3.547   2.792 -0.3089 -0.1511  0.7820
   11MOL0     H 1434   6.488   2.644   2.757 -2.0003 -2.6147  0.8411
   11MOL0     H 1435   6.494   2.435   2.921 -0.4315 -2.6017 -0.4379
   11MOL0     H 1436   6.742   1.882   2.857  1.9020 -0.3852  0.8832
   11MOL0     H 1437   6.800   1.711   3.040  0.6202  0.6671 -3.6981
   11MOL0     H 1438   7.633   0.882   3.671  0.8749  0.4861  0.1485
   11MOL0     H 1439   7.638   1.098   3.566  0.2883  0.0193  0.9038
   11MOL0     H 1440   7.232   1.300   3.252 -0.3139  0.1721  1.3435
   11MOL0     H 1441   7.148   1.503   3.145  1.3254 -0.1736 -1.2911
   11MOL0     H 1442   7.243   1.898   3.313 -0.6249 -1.3038 -0.8519
   11MOL0     H 1443   7.195   1.922   3.145 -1.4230 -0.6342 -0.3827
   11MOL0     H 1444   7.447   1.968   3.214 -1.7610  2.7129 -2.1573
   11MOL0     H 1445   7.451   1.793   3.246  1.2251  0.3843  1.4905
   11MOL0     H 1446   7.379   1.909   2.972 -1.6590  0.8396  2.0213
   11MOL0     H 1447   7.394   1.740   3.003  0.1642  0.6302  0.1049
   11MOL0     H 1448   7.640   1.914   3.043 -0.8759  0.0244  2.6515
   11MOL0     H 1449   7.635   1.745   3.054  2.1385  3.2266  0.4604
   11MOL0     H 1450   7.685   1.850   2.641 -0.4861  1.4935  0.3355
   11MOL0     H 1451   7.363   1.734   3.442  0.6157  1.2347 -3.1715
   11MOL0     H 1452   7.441   1.535   3.549  0.5899 -4.3747  0.2926
   12MOL0     O 1453  10.574   2.125   8.159  0.0250 -0.0907  0.8309
   12MOL0     C 1454  10.461   2.132   8.200  0.5887 -0.4928 -0.9515
   12MOL0     O 1455  10.355   2.063   8.150  0.5291 -0.4493  0.2643
   12MOL0     C 1456  10.365   1.985   8.038  0.2377  0.1232  0.4750
   12MOL0     C 1457  10.374   2.045   7.910 -0.5261  1.4070 -0.6413
   12MOL0     C 1458  10.373   1.971   7.790  0.1592  0.1403  0.1234
   12MOL0     C 1459  10.362   1.827   7.788 -0.3274 -0.7390 -0.3108
   12MOL0     O 1460  10.341   1.763   7.668 -0.3932  0.7289 -0.1098
   12MOL0     C 1461  10.210   1.722   7.641  1.1525 -0.1102  0.3384
   12MOL0     C 1462  10.182   1.675   7.492 -0.7173 -0.4806 -0.0523
   12MOL0     C 1463  10.219   1.792   7.395  0.0071 -0.3286 -0.2165
   12MOL0     C 1464  10.123   1.795   7.275  0.4413 -0.5669 -0.3815
   12MOL0     C 1465  10.161   1.708   7.156  1.2502 -1.0392  0.0343
   12MOL0     C 1466  10.216   1.567   7.192 -0.2231 -1.3147 -0.3539
   12MOL0     C 1467  10.248   1.488   7.066 -0.2209  0.1891 -0.4247
   12MOL0     C 1468  10.117   1.392   7.054 -0.1279 -0.9238 -0.6765
   12MOL0     N 1469  10.120   1.312   6.934  0.1095 -0.3409 -0.3006
   12MOL0     C 1470  10.196   1.194   6.933  0.0862 -0.5732 -1.5558
   12MOL0     C 1471  10.178   1.142   6.812 -0.6669  0.0752  0.3726
   12MOL0     C 1472  10.206   0.993   6.775 -0.8549 -0.1651 -0.0917
   12MOL0     C 1473  10.283   0.974   6.647  1.1249  0.5614  0.4858
   12MOL0     C 1474  10.300   0.819   6.634 -0.1212  0.6282 -0.2850
   12MOL0     C 1475  10.347   0.781   6.497 -0.5206 -0.8946 -0.5576
   12MOL0     O 1476  10.251   0.823   6.404 -0.6182  0.1728 -0.1373
   12MOL0     C 1477  10.269   0.782   6.266 -0.1026 -0.6519 -0.3932
   12MOL0     C 1478  10.158   0.785   6.174 -0.3205 -0.6982 -0.1206
   12MOL0     C 1479  10.165   0.745   6.043  0.1697 -1.1033  0.4964
   12MOL0     C 1480  10.284   0.688   5.991 -0.6864 -0.2360 -0.2488
   12MOL0     C 1481  10.296   0.639   5.858 -0.7716 -0.1412 -0.4150
   12MOL0     O 1482  10.418   0.589   5.815 -0.2017 -0.2589  0.3169
   12MOL0     C 1483  10.435   0.572   5.676 -1.1801  0.2000  0.3515
   12MOL0     C 1484  10.383   0.456   5.616 -0.2683  0.9924 -0.9568
   12MOL0     C 1485  10.396   0.443   5.478  0.5849  0.1830  0.2574
   12MOL0     C 1486  10.456   0.547   5.403 -0.4187 -0.3387  0.1634
   12MOL0     O 1487  10.451   0.523   5.275  0.1469 -0.0708  0.8619
   12MOL0     C 1488  10.568   0.544   5.202  0.1459 -0.6169 -0.5673
   12MOL0     C 1489  10.573   0.497   5.062  0.4542 -0.8029 -0.1567
   12MOL0     C 1490  10.443   0.501   4.982  0.1162 -0.3027 -0.1536
   12MOL0     C 1491  10.388   0.646   4.960 -0.6673 -0.5307  0.0648
   12MOL0     C 1492  10.297   0.642   4.839  0.0185  0.4642  0.0323
   12MOL0     C 1493  10.182   0.739   4.860  0.1025  0.1632  0.3150
   12MOL0     C 1494  10.241   0.891   4.864  0.3572  0.9823  0.0988
   12MOL0     C 1495  10.129   0.995   4.848  0.3690  0.0000 -0.4452
   12MOL0    Cl 1496  10.094   1.028   4.677  0.0474  0.8846  0.2789
   12MOL0     C 1497  10.495   0.668   5.468 -0.4824  0.6986  1.3486
   12MOL0     C 1498  10.484   0.678   5.606  1.1656  0.1018  0.8804
   12MOL0     O 1499  10.194   0.634   5.794 -0.0124 -0.2749 -0.2400
   12MOL0     C 1500  10.400   0.688   6.074 -0.1637  0.9895 -0.3623
   12MOL0     C 1501  10.386   0.733   6.208  0.0808  0.0218  1.1744
   12MOL0     N 1502  10.091   1.225   6.744 -0.3307  0.3512  0.0240
   12MOL0     N 1503  10.062   1.323   6.818  0.3588 -0.0599  0.2601
   12MOL0     C 1504  10.341   1.774   7.910  0.5282 -0.1741 -0.2787
   12MOL0     C 1505  10.346   1.848   8.035  0.4958  0.1836 -0.0118
   12MOL0     C 1506  10.443   2.224   8.320  0.4827  0.2139 -0.4002
   12MOL0     C 1507  10.542   2.315   8.356 -0.0520 -0.6347 -0.3217
   12MOL0     C 1508  10.533   2.395   8.464 -0.0832 -0.4201 -1.3120
   12MOL0     C 1509  10.414   2.400   8.544 -0.0220  0.1023  0.3543
   12MOL0     O 1510  10.396   2.483   8.658 -0.3043  0.7225  0.1752
   12MOL0     C 1511  10.398   2.408   8.784 -0.8646  0.3077 -0.4624
   12MOL0     C 1512  10.270   2.389   8.853 -0.6625  0.3051 -0.2016
   12MOL0     C 1513  10.305   2.316   8.982  0.3105  0.2267 -0.8612
   12MOL0     C 1514  10.183   2.299   9.068  1.5685 -0.3442 -0.3558
   12MOL0     C 1515  10.162   2.417   9.141  0.4909  0.4506  0.5978
   12MOL0     C 1516  10.175   2.525   9.188  0.0669 -1.4371  0.4576
   12MOL0     C 1517  10.309   2.308   8.504 -0.4197 -0.9035  0.2001
   12MOL0     C 1518  10.319   2.226   8.393 -0.9905 -0.3577  0.5026
   12MOL0     H 1519  10.371   2.153   7.907 -1.1687  1.3912 -0.6207
   12MOL0     H 1520  10.377   2.020   7.692 -0.4285 -2.7477 -1.4475
   12MOL0     H 1521  10.139   1.800   7.668  2.6571  0.7103  2.2058
   12MOL0     H 1522  10.187   1.631   7.697 -3.5753 -0.7632 -2.1876
   12MOL0     H 1523  10.075   1.653   7.490 -0.9500 -0.2779  3.6901
   12MOL0     H 1524  10.235   1.580   7.479 -1.2502 -1.1576  2.2459
   12MOL0     H 1525  10.320   1.761   7.368  1.6411  0.3649  4.1875
   12MOL0     H 1526  10.220   1.890   7.444  1.2328  1.2764 -3.2098
   12MOL0     H 1527  10.025   1.765   7.313 -0.2947  1.8124 -0.2578
   12MOL0     H 1528  10.118   1.900   7.245 -2.0620 -0.8927 -1.2869
   12MOL0     H 1529  10.234   1.770   7.103 -0.1374  1.7065  1.1375
   12MOL0     H 1530  10.076   1.695   7.089  0.0636 -1.3062  1.5402
   12MOL0     H 1531  10.157   1.519   7.271 -0.7748 -2.9058 -1.6748
   12MOL0     H 1532  10.312   1.577   7.243 -1.3015  0.0566  1.6011
   12MOL0     H 1533  10.257   1.556   6.980 -4.0087 -0.8560 -1.8814
   12MOL0     H 1534  10.347   1.443   7.070  0.3616  0.8299 -4.0258
   12MOL0     H 1535  10.035   1.463   7.037  0.8206  0.5671  0.6545
   12MOL0     H 1536  10.113   1.335   7.148  1.3656 -0.7241 -0.4681
   12MOL0     H 1537  10.247   1.148   7.016  0.6485  0.7711 -1.1221
   12MOL0     H 1538  10.109   0.944   6.764 -2.2952  1.9772  1.9598
   12MOL0     H 1539  10.269   0.954   6.856 -1.1389  1.0273  0.7312
   12MOL0     H 1540  10.378   1.026   6.664  0.8699  0.9578  0.7089
   12MOL0     H 1541  10.242   1.017   6.555  0.8604  1.8994  1.2002
   12MOL0     H 1542  10.372   0.787   6.709 -3.1707 -0.9859  2.2069
   12MOL0     H 1543  10.207   0.762   6.640  0.0917  0.4121  3.5065
   12MOL0     H 1544  10.360   0.672   6.502 -0.0733 -0.7934  2.0080
   12MOL0     H 1545  10.436   0.836   6.465 -1.4386 -0.3378 -2.2345
   12MOL0     H 1546  10.075   0.837   6.221 -1.5721  0.0654 -2.9387
   12MOL0     H 1547  10.076   0.761   5.983  0.0463  0.2693  1.0211
   12MOL0     H 1548  10.327   0.380   5.668  0.2144 -0.3603 -2.3377
   12MOL0     H 1549  10.341   0.366   5.425 -3.8852  1.7881  2.0475
   12MOL0     H 1550  10.662   0.506   5.242 -0.4055 -2.1902 -0.6736
   12MOL0     H 1551  10.567   0.652   5.189  3.0714 -0.6868 -2.0766
   12MOL0     H 1552  10.608   0.393   5.064 -0.0739 -0.9901  1.6468
   12MOL0     H 1553  10.652   0.564   5.028  0.1242  0.1480  0.8716
   12MOL0     H 1554  10.363   0.448   5.035 -1.2479  0.6375 -1.1869
   12MOL0     H 1555  10.458   0.447   4.889  0.6841  0.2052 -0.3633
   12MOL0     H 1556  10.342   0.673   5.055  2.5509 -1.2631  1.9461
   12MOL0     H 1557  10.474   0.708   4.933 -0.6270 -0.3251  0.6577
   12MOL0     H 1558  10.238   0.550   4.831 -2.5295  2.0635 -0.5952
   12MOL0     H 1559  10.349   0.651   4.744 -1.5114  1.3657 -0.7497
   12MOL0     H 1560  10.126   0.723   4.953 -2.5223  3.5238 -0.5050
   12MOL0     H 1561  10.100   0.726   4.789  1.3968  2.9337 -1.8730
   12MOL0     H 1562  10.289   0.905   4.961 -1.3335 -4.0337  1.9935
   12MOL0     H 1563  10.326   0.902   4.797  2.7671 -0.2052  2.7390
   12MOL0     H 1564  10.148   1.090   4.900 -2.1656  1.0540 -1.2841
   12MOL0     H 1565  10.039   0.960   4.899  2.1572 -1.8939  1.6237
   12MOL0     H 1566  10.532   0.745   5.401 -0.9746  1.5624  2.0459
   12MOL0     H 1567  10.516   0.768   5.657  1.7497 -0.1746  1.0111
   12MOL0     H 1568  10.498   0.663   6.035 -0.5892  2.2988 -2.4211
   12MOL0     H 1569  10.470   0.738   6.276  1.0315 -0.1489  0.0361
   12MOL0     H 1570  10.320   1.668   7.908  2.7520 -0.6692  0.0013
   12MOL0     H 1571  10.308   1.799   8.125 -0.2016  1.4820  0.4310
   12MOL0     H 1572  10.626   2.329   8.289 -0.3988 -2.4176 -1.2165
   12MOL0     H 1573  10.604   2.473   8.490 -0.8141 -0.7723  2.3479
   12MOL0     H 1574  10.448   2.467   8.862 -3.2469  2.1986 -0.2551
   12MOL0     H 1575  10.453   2.316   8.761 -3.8786 -0.8174 -4.2212
   12MOL0     H 1576  10.219   2.478   8.891 -0.2248  1.4014 -2.0389
   12MOL0     H 1577  10.199   2.336   8.788 -3.2937 -0.7435  3.2297
   12MOL0     H 1578  10.385   2.371   9.032  0.4706  0.0950 -0.9670
   12MOL0     H 1579  10.355   2.221   8.960  0.1512 -1.2213  4.0238
   12MOL0     H 1580  10.086   2.284   9.019  2.2391 -2.3572 -1.1828
   12MOL0     H 1581  10.192   2.211   9.133 -1.3015 -1.5788 -1.4402
   12MOL0     H 1582  10.179   2.615   9.245 -0.8992 -0.2249 -1.3185
   12MOL0     H 1583  10.224   2.303   8.570  0.1030  1.6837  1.1863
   12MOL0     H 1584  10.242   2.155   8.367  0.7213 -2.3833  0.7398
   13MOL0     O 1585   8.236   3.219   6.467 -0.1190  0.4071 -0.3660
   13MOL0     C 1586   8.270   3.210   6.585  0.0091  0.8108  0.6417
   13MOL0     O 1587   8.376   3.131   6.626  0.1956  0.1840 -0.1964
   13MOL0     C 1588   8.437   3.042   6.542 -0.7055  0.1979  0.4446
   13MOL0     C 1589   8.381   2.964   6.435 -0.1042 -0.1508 -0.0275
   13MOL0     C 1590   8.469   2.883   6.352 -0.6514  0.6419 -0.1851
   13MOL0     C 1591   8.601   2.856   6.386  0.6607 -0.1708  0.7540
   13MOL0     O 1592   8.676   2.774   6.312  0.7328  0.6602  0.7607
   13MOL0     C 1593   8.767   2.684   6.384  0.7781 -0.7387 -0.4498
   13MOL0     C 1594   8.742   2.541   6.337  0.4162  0.8969  0.8113
   13MOL0     C 1595   8.593   2.503   6.362 -0.3248  0.1271 -0.2393
   13MOL0     C 1596   8.563   2.364   6.320  0.2285  1.3393 -0.0083
   13MOL0     C 1597   8.625   2.268   6.422 -0.1908  0.6648 -0.4826
   13MOL0     C 1598   8.584   2.116   6.391 -1.1082 -1.3639 -0.0458
   13MOL0     C 1599   8.601   2.064   6.246  0.0052 -0.4888 -0.5492
   13MOL0     C 1600   8.469   2.083   6.162 -0.7450 -0.7964  0.5292
   13MOL0     N 1601   8.480   2.011   6.034 -0.1958  0.4400 -0.5269
   13MOL0     C 1602   8.517   1.878   6.010  0.3900  0.2955  0.8591
   13MOL0     C 1603   8.512   1.862   5.876 -0.2628 -0.5890  0.1335
   13MOL0     C 1604   8.574   1.748   5.810 -0.0098  0.0927  0.8080
   13MOL0     C 1605   8.729   1.735   5.820 -1.0359  0.1194 -0.1104
   13MOL0     C 1606   8.786   1.677   5.948  0.1436 -0.6033  0.2137
   13MOL0     C 1607   8.937   1.701   5.938  0.0119  0.6191 -0.8802
   13MOL0     O 1608   8.988   1.662   6.070  0.7439 -0.6273  0.7370
   13MOL0     C 1609   9.011   1.752   6.179 -0.8832  0.8263 -0.5111
   13MOL0     C 1610   8.981   1.892   6.174  0.3603  0.3921 -0.2974
   13MOL0     C 1611   8.995   1.969   6.290  0.8209 -0.9846 -1.6162
   13MOL0     C 1612   9.027   1.916   6.410 -0.4616  0.5411  0.1212
   13MOL0     C 1613   9.053   2.006   6.525  0.6626 -0.8300 -0.0418
   13MOL0     O 1614   9.023   2.134   6.514  0.1182  0.1583  0.0585
   13MOL0     C 1615   9.003   2.217   6.624 -0.0419 -0.0254  0.0466
   13MOL0     C 1616   8.912   2.190   6.728  0.0838 -0.7500  0.9518
   13MOL0     C 1617   8.873   2.299   6.812 -0.5499  0.4487  0.5206
   13MOL0     C 1618   8.935   2.418   6.804 -0.6331  0.6088 -0.0229
   13MOL0     O 1619   8.905   2.505   6.909 -0.4955 -1.0108 -0.2455
   13MOL0     C 1620   9.011   2.582   6.969 -1.0591  1.0767  0.7672
   13MOL0     C 1621   8.953   2.683   7.066  0.1169  0.2193 -0.0784
   13MOL0     C 1622   8.890   2.797   6.997 -0.4836  0.4723 -0.6969
   13MOL0     C 1623   8.785   2.868   7.086 -0.8200  0.0388 -0.5008
   13MOL0     C 1624   8.747   3.009   7.047 -0.1594 -0.7421 -0.3669
   13MOL0     C 1625   8.861   3.110   7.061  0.6712 -0.5055 -0.5571
   13MOL0     C 1626   8.818   3.250   7.052  0.1302  0.2083 -0.2389
   13MOL0     C 1627   8.754   3.300   7.187 -0.4354  0.5007  0.7033
   13MOL0    Cl 1628   8.842   3.444   7.247 -0.1632  0.3010  0.1877
   13MOL0     C 1629   9.034   2.434   6.703 -0.4951 -0.7061  0.3940
   13MOL0     C 1630   9.070   2.332   6.617 -0.2756  0.3376 -0.5348
   13MOL0     O 1631   9.103   1.959   6.629 -0.4724  0.7207  0.3759
   13MOL0     C 1632   9.063   1.784   6.411  0.6047  0.2979 -0.9059
   13MOL0     C 1633   9.058   1.704   6.302  1.2769  0.6873 -0.0077
   13MOL0     N 1634   8.457   1.974   5.821  0.2813 -0.3932  0.3158
   13MOL0     N 1635   8.421   2.052   5.919  0.4574 -0.2638 -0.3778
   13MOL0     C 1636   8.655   2.924   6.494  0.1777 -0.2113 -0.3767
   13MOL0     C 1637   8.570   3.013   6.566  0.2634 -0.2930  0.3098
   13MOL0     C 1638   8.188   3.282   6.691  1.1150  0.5446  0.6055
   13MOL0     C 1639   8.057   3.335   6.678  0.2855  0.1799 -0.3213
   13MOL0     C 1640   7.985   3.387   6.784  0.4723  1.2073  0.2933
   13MOL0     C 1641   8.044   3.406   6.908  0.0877  0.3932 -0.0996
   13MOL0     O 1642   7.976   3.473   7.007  0.1803  0.1553 -0.1769
   13MOL0     C 1643   8.004   3.442   7.144 -0.5188 -0.4561  0.4908
   13MOL0     C 1644   7.876   3.407   7.204 -0.4531 -0.0597 -0.6161
   13MOL0     C 1645   7.840   3.272   7.160  0.2070  0.0619  0.0409
   13MOL0     C 1646   7.724   3.214   7.231  0.4492  0.4344  0.6610
   13MOL0     C 1647   7.710   3.227   7.363 -0.2700 -0.3961 -0.4208
   13MOL0     C 1648   7.697   3.224   7.485 -0.7460  0.2636  0.5764
   13MOL0     C 1649   8.177   3.354   6.928  0.0863  0.0199 -0.3612
   13MOL0     C 1650   8.237   3.283   6.822 -0.8243  0.7600  0.0883
   13MOL0     H 1651   8.274   2.966   6.415 -0.2725 -1.7982  0.5431
   13MOL0     H 1652   8.428   2.835   6.264 -3.2239  4.2416 -1.1594
   13MOL0     H 1653   8.746   2.678   6.491 -0.7824  0.3659 -0.6619
   13MOL0     H 1654   8.872   2.707   6.363  1.6226 -1.4790  2.4817
   13MOL0     H 1655   8.811   2.469   6.383 -1.2848 -1.1955  0.2490
   13MOL0     H 1656   8.753   2.541   6.229  1.2537 -2.0551  0.8060
   13MOL0     H 1657   8.531   2.571   6.302  0.9379 -0.4884 -2.3600
   13MOL0     H 1658   8.568   2.505   6.468 -1.2875  0.4133 -0.4585
   13MOL0     H 1659   8.454   2.350   6.326  0.2525  1.5096  1.0308
   13MOL0     H 1660   8.601   2.337   6.221  2.1608 -0.2632  1.1021
   13MOL0     H 1661   8.606   2.292   6.527  1.6684 -1.4015  0.4014
   13MOL0     H 1662   8.735   2.270   6.419  0.0085 -2.2634  0.7817
   13MOL0     H 1663   8.476   2.104   6.407 -0.9771 -1.2500  1.0242
   13MOL0     H 1664   8.642   2.058   6.464 -0.9230 -0.9097  0.1739
   13MOL0     H 1665   8.688   2.109   6.198 -0.7606  2.3806  0.5647
   13MOL0     H 1666   8.625   1.957   6.251 -0.5782 -0.5795  0.6835
   13MOL0     H 1667   8.450   2.190   6.148  1.6943 -0.5809 -1.9068
   13MOL0     H 1668   8.392   2.038   6.225 -1.3082 -0.1797  0.2958
   13MOL0     H 1669   8.550   1.799   6.077 -1.2160 -1.5353 -0.3852
   13MOL0     H 1670   8.554   1.775   5.705 -2.8754 -2.0133  0.6845
   13MOL0     H 1671   8.527   1.656   5.846 -0.0087  0.0201  0.6245
   13MOL0     H 1672   8.771   1.835   5.809 -0.8422  0.6859  3.9949
   13MOL0     H 1673   8.771   1.680   5.735  2.5582 -0.5533  1.8670
   13MOL0     H 1674   8.742   1.723   6.037  2.0347  1.5240  0.1313
   13MOL0     H 1675   8.760   1.571   5.954  0.8088 -0.6946  2.3025
   13MOL0     H 1676   8.955   1.804   5.909 -1.2920  0.2657 -3.1804
   13MOL0     H 1677   8.982   1.646   5.855  1.2279  2.4102 -1.4503
   13MOL0     H 1678   8.955   1.941   6.081 -1.5353 -1.0280 -0.5775
   13MOL0     H 1679   8.984   2.077   6.294  0.5483 -1.0631  1.1309
   13MOL0     H 1680   8.862   2.095   6.739  2.7899 -2.2833  0.6777
   13MOL0     H 1681   8.804   2.288   6.895 -1.7776  2.0961 -0.2155
   13MOL0     H 1682   9.068   2.633   6.892 -2.3112 -0.8729 -1.5971
   13MOL0     H 1683   9.087   2.522   7.022 -0.6332  0.9245 -0.0051
   13MOL0     H 1684   9.026   2.703   7.145 -0.2489  0.0054  0.3185
   13MOL0     H 1685   8.872   2.625   7.112 -0.5054  0.1756 -1.1804
   13MOL0     H 1686   8.832   2.767   6.909 -0.8757 -1.7726  0.2714
   13MOL0     H 1687   8.968   2.864   6.960  0.2176  0.6463  1.0483
   13MOL0     H 1688   8.697   2.803   7.090 -0.2719 -0.6860  1.9515
   13MOL0     H 1689   8.832   2.872   7.185 -0.3622  3.5413 -0.7352
   13MOL0     H 1690   8.663   3.034   7.113  0.2108  2.3951 -0.9479
   13MOL0     H 1691   8.723   3.010   6.941 -0.1845 -3.9154 -0.4948
   13MOL0     H 1692   8.923   3.076   6.977 -1.1732 -1.8061 -1.4519
   13MOL0     H 1693   8.912   3.099   7.157  2.2182  1.8434 -1.0440
   13MOL0     H 1694   8.901   3.314   7.021  0.1024 -0.0797 -0.9153
   13MOL0     H 1695   8.744   3.261   6.973  1.0956 -2.1662 -1.5649
   13MOL0     H 1696   8.762   3.225   7.266 -1.1582  0.5148  0.7929
   13MOL0     H 1697   8.650   3.330   7.173  0.3443  2.0374 -3.1149
   13MOL0     H 1698   9.091   2.526   6.705 -1.4920 -0.0741  0.9891
   13MOL0     H 1699   9.142   2.341   6.536  0.5068 -3.3397 -0.4179
   13MOL0     H 1700   9.121   1.737   6.491  0.6115 -1.6611 -2.0035
   13MOL0     H 1701   9.077   1.599   6.317 -0.8740  0.0820 -1.0510
   13MOL0     H 1702   8.757   2.903   6.523  1.3766  4.3198 -0.4624
   13MOL0     H 1703   8.600   3.058   6.660 -3.5302  0.8593  1.1488
   13MOL0     H 1704   8.019   3.324   6.577  1.9401  1.5003 -1.1409
   13MOL0     H 1705   7.880   3.411   6.771 -0.1489 -0.4977  1.8314
   13MOL0     H 1706   8.071   3.510   7.198  1.4397 -2.8755  1.3062
   13MOL0     H 1707   8.066   3.353   7.157  1.3027 -0.1416 -4.2401
   13MOL0     H 1708   7.886   3.411   7.313 -0.8553  2.9184 -0.6194
   13MOL0     H 1709   7.804   3.485   7.179  1.3221  1.2528 -1.8356
   13MOL0     H 1710   7.923   3.201   7.168  1.2860  1.2707 -0.1408
   13MOL0     H 1711   7.811   3.279   7.055  1.2507  2.7081 -0.1247
   13MOL0     H 1712   7.629   3.257   7.197  0.2158 -0.6517 -0.1055
   13MOL0     H 1713   7.728   3.107   7.209  3.9545  0.5316  0.2048
   13MOL0     H 1714   7.691   3.229   7.592 -0.2718  1.9798  0.5589
   13MOL0     H 1715   8.231   3.370   7.020  0.0437 -0.9446 -0.1538
   13MOL0     H 1716   8.338   3.250   6.844  1.0118  1.6288 -5.4125
   14MOL0     O 1717   5.774   9.836   9.829  0.1291 -0.1407 -0.3078
   14MOL0     C 1718   5.653   9.802   9.802 -0.2333  0.1901 -0.6673
   14MOL0     O 1719   5.582   9.856   9.704  0.9971 -0.6251 -1.8860
   14MOL0     C 1720   5.628   9.939   9.611 -0.2919 -0.1980 -0.3545
   14MOL0     C 1721   5.574  10.066   9.595 -0.2002 -0.4493 -0.3953
   14MOL0     C 1722   5.622  10.151   9.489  0.7604 -0.3957  0.1644
   14MOL0     C 1723   5.727  10.114   9.408 -0.2437  1.1309  1.2564
   14MOL0     O 1724   5.776  10.196   9.306  0.0878 -0.1085 -0.0115
   14MOL0     C 1725   5.867  10.283   9.362 -0.3637 -0.0921  0.8874
   14MOL0     C 1726   6.012  10.220   9.354 -0.5659 -0.2237  0.4994
   14MOL0     C 1727   6.109  10.265   9.463 -0.0706 -0.2692  0.6179
   14MOL0     C 1728   6.263  10.260   9.426 -0.3837  1.0858 -0.8761
   14MOL0     C 1729   6.313  10.401   9.414  0.3261  0.2886 -0.1349
   14MOL0     C 1730   6.447  10.406   9.361 -0.1556  0.4017 -0.9543
   14MOL0     C 1731   6.519  10.546   9.347 -0.3406 -0.8831 -0.0480
   14MOL0     C 1732   6.441  10.654   9.269  0.6834 -0.1906 -0.6101
   14MOL0     N 1733   6.346  10.730   9.354  0.4812 -0.5996  0.6414
   14MOL0     C 1734   6.356  10.820   9.457 -0.6591 -0.2990 -0.4275
   14MOL0     C 1735   6.235  10.884   9.465  0.4427 -0.1062  0.4910
   14MOL0     C 1736   6.205  11.010   9.553 -0.0375 -0.3487  0.3080
   14MOL0     C 1737   6.116  10.977   9.681 -0.0474 -0.4194  0.0821
   14MOL0     C 1738   5.987  10.910   9.630 -0.6672 -0.7919  0.5122
   14MOL0     C 1739   5.869  10.922   9.728 -0.0766 -0.3649  0.2637
   14MOL0     O 1740   5.893  10.818   9.830  0.5331 -1.0388 -0.4731
   14MOL0     C 1741   5.995  10.835   9.928  0.8541 -0.4369 -0.2454
   14MOL0     C 1742   6.055  10.729   9.979 -0.3954  0.6434 -0.2207
   14MOL0     C 1743   6.145  10.728  10.083 -0.4356 -0.0738 -0.2392
   14MOL0     C 1744   6.167  10.850  10.155  0.7999 -0.1886  0.2691
   14MOL0     C 1745   6.265  10.856  10.263  0.4048 -0.3203  0.5262
   14MOL0     O 1746   6.307  10.740  10.304  0.3273  0.0478 -0.6300
   14MOL0     C 1747   6.395  10.744  10.412 -0.4743 -0.5574  0.7292
   14MOL0     C 1748   6.334  10.731  10.538  0.6545  0.0167  0.6418
   14MOL0     C 1749   6.404  10.718  10.655  0.7862 -0.0901  0.6273
   14MOL0     C 1750   6.547  10.742  10.649 -0.1806 -0.0846 -0.8331
   14MOL0     O 1751   6.637  10.751  10.755  0.3609  0.2100 -0.2608
   14MOL0     C 1752   6.593  10.711  10.889  0.2812  0.0671 -0.2833
   14MOL0     C 1753   6.543  10.827  10.980 -0.0704  0.1885  0.2568
   14MOL0     C 1754   6.503  10.782  11.119  0.7427 -0.1810 -0.4098
   14MOL0     C 1755   6.433  10.882  11.214 -1.0563  0.1877  0.4719
   14MOL0     C 1756   6.380  10.806  11.341  0.2598  0.7764 -0.0919
   14MOL0     C 1757   6.492  10.730  11.433 -0.5788 -0.6868  0.2167
   14MOL0     C 1758   6.422  10.642  11.541  0.8951 -0.3629 -0.7173
   14MOL0     C 1759   6.380  10.509  11.483  0.2599 -0.4323  0.3903
   14MOL0    Cl 1760   6.516  10.400  11.512 -0.8261 -0.1689  0.3452
   14MOL0     C 1761   6.602  10.766  10.526 -0.7506 -0.9733  0.6710
   14MOL0     C 1762   6.533  10.769  10.402 -0.3584 -0.5369  0.4195
   14MOL0     O 1763   6.298  10.961  10.304 -0.6020 -0.1180  0.9559
   14MOL0     C 1764   6.092  10.962  10.113 -0.3393  0.0670  0.5101
   14MOL0     C 1765   6.016  10.958  10.000  0.7302  0.0636  0.4543
   14MOL0     N 1766   6.149  10.827   9.374  0.3891 -0.5998 -0.0075
   14MOL0     N 1767   6.208  10.740   9.307 -0.1814  0.7379  0.4899
   14MOL0     C 1768   5.776   9.987   9.429 -0.7046 -0.1569  0.7116
   14MOL0     C 1769   5.727   9.896   9.519  0.0006  1.3574 -0.2044
   14MOL0     C 1770   5.579   9.695   9.874 -0.6608 -0.2908  0.5734
   14MOL0     C 1771   5.605   9.680  10.015 -0.5150 -0.3179  0.2048
   14MOL0     C 1772   5.536   9.584  10.084  0.4031  0.1768  0.1217
   14MOL0     C 1773   5.437   9.511  10.023  0.7268 -0.9221 -0.4716
   14MOL0     O 1774   5.357   9.418  10.080  0.4290  0.0755  0.1724
   14MOL0     C 1775   5.249   9.465  10.158  0.9109  0.8240  0.4895
   14MOL0     C 1776   5.127   9.369  10.147  1.2253 -0.1549 -0.2559
   14MOL0     C 1777   4.999   9.443  10.209  1.0677 -0.2673  0.0211
   14MOL0     C 1778   4.864   9.346  10.223 -1.1383  0.3426  0.1628
   14MOL0     C 1779   4.748   9.422  10.241 -0.9323 -0.4347 -0.8662
   14MOL0     C 1780   4.654   9.496  10.229  0.8347  0.5464  0.2949
   14MOL0     C 1781   5.404   9.540   9.887 -0.8841  0.9818  0.5759
   14MOL0     C 1782   5.485   9.619   9.812 -0.5489 -0.6265  0.2415
   14MOL0     H 1783   5.504  10.105   9.667 -0.0568 -2.1154  0.7213
   14MOL0     H 1784   5.593  10.256   9.481 -0.2760 -0.8002 -2.7616
   14MOL0     H 1785   5.833  10.304   9.464  2.1344 -2.2682  2.3076
   14MOL0     H 1786   5.876  10.384   9.320  2.6617  0.8459  3.3644
   14MOL0     H 1787   6.064  10.246   9.261 -2.4836 -0.4213 -0.6892
   14MOL0     H 1788   6.004  10.111   9.363  0.3170 -0.4157 -0.7332
   14MOL0     H 1789   6.083  10.192   9.540  1.6113 -2.1561 -0.5271
   14MOL0     H 1790   6.075  10.363   9.499  1.4166  2.1183 -3.8410
   14MOL0     H 1791   6.322  10.208   9.502  0.7033  0.7741 -1.8943
   14MOL0     H 1792   6.277  10.194   9.340  0.8015  1.1477 -0.7539
   14MOL0     H 1793   6.314  10.450   9.512  0.7083  0.5514 -0.2705
   14MOL0     H 1794   6.247  10.450   9.342  0.8031 -0.6797 -1.2578
   14MOL0     H 1795   6.456  10.374   9.257  0.5478  0.7920 -1.0178
   14MOL0     H 1796   6.511  10.349   9.429  0.2856  1.4501 -0.4606
   14MOL0     H 1797   6.535  10.597   9.443 -1.0740  0.9873 -0.8719
   14MOL0     H 1798   6.621  10.533   9.311 -0.2423 -0.9971  0.2620
   14MOL0     H 1799   6.386  10.610   9.186  0.5152  1.9986 -1.7167
   14MOL0     H 1800   6.508  10.728   9.224 -0.8761  0.6579 -1.6022
   14MOL0     H 1801   6.449  10.845   9.506 -0.2624  0.6892 -1.6386
   14MOL0     H 1802   6.165  11.094   9.496  0.4550 -1.4099 -1.7097
   14MOL0     H 1803   6.304  11.045   9.584  0.0725 -0.8588  0.5537
   14MOL0     H 1804   6.083  11.068   9.732  1.5748 -1.4363  3.2485
   14MOL0     H 1805   6.169  10.918   9.757 -0.2167 -0.6319  0.0391
   14MOL0     H 1806   5.960  10.968   9.541 -4.6130 -1.8651  0.8119
   14MOL0     H 1807   6.013  10.809   9.597  2.2913  0.8944 -3.0434
   14MOL0     H 1808   5.778  10.892   9.676  0.2658 -0.5783 -0.2245
   14MOL0     H 1809   5.865  11.028   9.751  0.0220  0.5543 -3.2830
   14MOL0     H 1810   6.039  10.626   9.951  1.0538 -0.0726  1.4033
   14MOL0     H 1811   6.195  10.639  10.118 -1.6234 -0.5413  0.3348
   14MOL0     H 1812   6.226  10.718  10.544  0.2710  1.9259 -0.9237
   14MOL0     H 1813   6.357  10.685  10.748 -1.5049 -0.2657 -0.5332
   14MOL0     H 1814   6.686  10.675  10.933  0.2418  1.0889  0.6822
   14MOL0     H 1815   6.520  10.629  10.882 -1.5969  1.6973 -0.9332
   14MOL0     H 1816   6.474  10.899  10.934  0.1441 -0.5835 -1.3585
   14MOL0     H 1817   6.638  10.880  10.991  1.1261 -0.9189 -3.2984
   14MOL0     H 1818   6.586  10.741  11.178  0.9830  0.8698 -0.0066
   14MOL0     H 1819   6.421  10.712  11.099  0.8389 -0.5369  0.4140
   14MOL0     H 1820   6.501  10.963  11.240  0.0015 -1.2307  2.4178
   14MOL0     H 1821   6.351  10.937  11.168 -2.1280  2.3898  4.4963
   14MOL0     H 1822   6.314  10.731  11.297 -1.0878  3.9779 -4.2067
   14MOL0     H 1823   6.331  10.884  11.401  1.2306  2.1854 -1.0727
   14MOL0     H 1824   6.555  10.803  11.485  1.5539 -1.3134 -1.3536
   14MOL0     H 1825   6.557  10.657  11.384 -1.3995  0.5692 -2.9919
   14MOL0     H 1826   6.479  10.631  11.634 -1.1819  3.0527  1.1564
   14MOL0     H 1827   6.344  10.706  11.582  0.2302  1.5488 -4.5427
   14MOL0     H 1828   6.356  10.518  11.377  1.2311  2.9370  0.3496
   14MOL0     H 1829   6.287  10.463  11.517  0.9517 -1.4388  0.9572
   14MOL0     H 1830   6.704  10.799  10.513 -0.9776 -0.6495 -0.3248
   14MOL0     H 1831   6.591  10.755  10.310 -4.4765 -1.6252 -2.2887
   14MOL0     H 1832   6.100  11.057  10.165 -1.1715 -0.0331  0.8431
   14MOL0     H 1833   5.975  11.047   9.953  3.0139  1.1669  0.4656
   14MOL0     H 1834   5.858   9.957   9.365  0.9398 -0.1586  2.7353
   14MOL0     H 1835   5.770   9.797   9.532  1.3504  1.5290 -2.6584
   14MOL0     H 1836   5.675   9.740  10.073  2.0371 -0.9560 -2.0069
   14MOL0     H 1837   5.575   9.565  10.184 -0.6133 -0.1814  0.4606
   14MOL0     H 1838   5.227   9.558  10.105  1.3270 -0.7421 -2.6733
   14MOL0     H 1839   5.277   9.472  10.263 -0.4486  0.7539  0.8739
   14MOL0     H 1840   5.108   9.349  10.041 -1.8482 -1.1467  0.3687
   14MOL0     H 1841   5.146   9.272  10.192 -0.0777 -0.1801  0.2728
   14MOL0     H 1842   4.962   9.530  10.153  0.8542 -1.8761 -2.5244
   14MOL0     H 1843   5.015   9.471  10.313 -0.3252  2.1976 -0.3279
   14MOL0     H 1844   4.862   9.291  10.128  1.3081  0.1769  0.1326
   14MOL0     H 1845   4.874   9.281  10.310  2.8642 -0.6564 -0.8091
   14MOL0     H 1846   4.565   9.556  10.227 -0.1468 -0.8309 -2.3244
   14MOL0     H 1847   5.321   9.488   9.841  0.4422  0.8179 -1.7855
   14MOL0     H 1848   5.463   9.625   9.706 -1.4564 -0.3052  0.4385
   15MOL0     O 1849  11.309   5.788   8.431 -1.2127 -0.5134  0.8124
   15MOL0     C 1850  11.337   5.901   8.474 -0.5770  0.4841  0.5084
   15MOL0     O 1851  11.458   5.961   8.459 -0.1324 -0.0894  0.4512
   15MOL0     C 1852  11.568   5.900   8.399  0.2478  0.8541 -0.2885
   15MOL0     C 1853  11.657   5.970   8.320 -0.6447 -0.1824  0.1348
   15MOL0     C 1854  11.782   5.920   8.279  0.2468  0.4071  0.1918
   15MOL0     C 1855  11.801   5.777   8.304 -0.4234  1.0519 -0.6504
   15MOL0     O 1856  11.892   5.689   8.248  0.4434 -0.2214 -0.8287
   15MOL0     C 1857  11.963   5.739   8.140 -0.0245 -0.1650  1.0153
   15MOL0     C 1858  12.036   5.634   8.052 -1.3680 -0.6388 -0.2459
   15MOL0     C 1859  12.122   5.689   7.930 -0.0675  0.1640  0.0033
   15MOL0     C 1860  12.240   5.776   7.957 -0.4399 -0.5568 -0.3175
   15MOL0     C 1861  12.308   5.818   7.832 -0.7364 -0.9258 -0.0027
   15MOL0     C 1862  12.446   5.881   7.864  0.1647 -0.4799  0.6714
   15MOL0     C 1863  12.436   6.014   7.941  1.1927 -0.7226  0.4420
   15MOL0     C 1864  12.579   6.053   7.965 -1.1132 -0.6854 -0.0325
   15MOL0     N 1865  12.592   6.169   8.056  0.2083  1.1920  0.0030
   15MOL0     C 1866  12.541   6.294   8.020 -0.1421 -0.6855  0.3560
   15MOL0     C 1867  12.608   6.378   8.101 -0.2660 -0.0671 -0.7580
   15MOL0     C 1868  12.580   6.521   8.113 -0.2921 -0.5026  0.5712
   15MOL0     C 1869  12.449   6.560   8.187 -0.9304  0.6093 -0.6574
   15MOL0     C 1870  12.423   6.510   8.327  0.3158  0.4372 -0.1980
   15MOL0     C 1871  12.359   6.375   8.333  0.0740  0.1312 -0.5444
   15MOL0     O 1872  12.232   6.356   8.252 -0.7571  0.6460  0.3329
   15MOL0     C 1873  12.113   6.388   8.297  0.7848 -0.2502 -0.0753
   15MOL0     C 1874  12.103   6.437   8.426 -0.1984  0.0611 -0.4899
   15MOL0     C 1875  11.972   6.451   8.469 -0.6551 -0.1128 -0.2715
   15MOL0     C 1876  11.855   6.411   8.390 -0.2069 -0.4058 -0.0823
   15MOL0     C 1877  11.717   6.433   8.447  0.4292  0.3250 -0.2835
   15MOL0     O 1878  11.697   6.435   8.577 -0.0970 -0.1280 -0.0032
   15MOL0     C 1879  11.586   6.506   8.615 -0.8022 -1.3523  0.9986
   15MOL0     C 1880  11.458   6.473   8.593 -0.3855 -0.2821  0.1675
   15MOL0     C 1881  11.355   6.560   8.629 -0.0262 -0.0706  0.0847
   15MOL0     C 1882  11.372   6.676   8.701 -0.4772  0.7326  0.0306
   15MOL0     O 1883  11.264   6.757   8.720  0.1896 -0.2157 -0.7117
   15MOL0     C 1884  11.290   6.894   8.776  0.7146  0.0129 -0.3613
   15MOL0     C 1885  11.154   6.969   8.795  0.2723  0.5297 -0.0255
   15MOL0     C 1886  11.164   7.119   8.822  0.4236  0.1715 -0.8686
   15MOL0     C 1887  11.200   7.195   8.695 -0.7241  0.0072 -0.1137
   15MOL0     C 1888  11.217   7.341   8.736 -0.2933  0.6041 -0.4388
   15MOL0     C 1889  11.213   7.437   8.619  0.7283  0.1742 -0.0117
   15MOL0     C 1890  11.193   7.583   8.667  0.3699  1.0739  0.0711
   15MOL0     C 1891  11.154   7.671   8.555 -0.4710 -0.6134 -0.0436
   15MOL0    Cl 1892  11.299   7.700   8.456 -0.6117 -0.2927 -0.0376
   15MOL0     C 1893  11.510   6.708   8.724 -0.2749  0.2434 -0.8494
   15MOL0     C 1894  11.619   6.627   8.686 -0.6899  0.2051  0.0840
   15MOL0     O 1895  11.630   6.430   8.360 -0.3102  0.1799 -0.1673
   15MOL0     C 1896  11.875   6.381   8.261  0.7149  0.0636 -1.0491
   15MOL0     C 1897  12.000   6.361   8.215  0.5291 -0.2256  0.7512
   15MOL0     N 1898  12.675   6.302   8.192 -0.7119 -0.1891 -0.8548
   15MOL0     N 1899  12.663   6.185   8.171 -0.5192  0.0653  0.9765
   15MOL0     C 1900  11.714   5.699   8.378  0.3733 -1.2709 -0.0794
   15MOL0     C 1901  11.604   5.760   8.430 -0.1947  0.1384  0.2734
   15MOL0     C 1902  11.217   5.977   8.528 -0.0904 -0.4441 -1.0642
   15MOL0     C 1903  11.081   5.947   8.514 -0.5423 -0.9104 -0.2327
   15MOL0     C 1904  10.985   6.048   8.553  0.2042  0.2592 -0.5701
   15MOL0     C 1905  11.014   6.162   8.629  1.0230 -0.1502 -0.7862
   15MOL0     O 1906  10.905   6.242   8.675 -0.8176  0.1431 -0.5586
   15MOL0     C 1907  10.935   6.372   8.733  0.1329  0.1233  0.1930
   15MOL0     C 1908  10.812   6.434   8.803  1.2644  0.3420 -0.6306
   15MOL0     C 1909  10.823   6.586   8.827 -0.7237 -0.0035 -0.6431
   15MOL0     C 1910  10.938   6.628   8.914  1.7993 -0.9353  0.5760
   15MOL0     C 1911  10.927   6.592   9.050  0.8006 -0.2033  1.0851
   15MOL0     C 1912  10.925   6.564   9.160  0.0837 -0.0474 -0.5993
   15MOL0     C 1913  11.151   6.183   8.649  0.6270 -0.0030 -0.0383
   15MOL0     C 1914  11.245   6.093   8.606 -0.1762 -0.0137 -0.0590
   15MOL0     H 1915  11.635   6.075   8.302 -1.8502 -0.4212  0.1793
   15MOL0     H 1916  11.844   5.972   8.206 -1.4489 -0.9811 -2.4074
   15MOL0     H 1917  12.035   5.813   8.178  0.2756 -0.6995  1.5037
   15MOL0     H 1918  11.892   5.789   8.073  0.4722 -1.1100 -0.2590
   15MOL0     H 1919  11.974   5.554   8.010  0.2130 -1.4336 -1.1678
   15MOL0     H 1920  12.095   5.573   8.122 -2.6222 -0.8411  0.6659
   15MOL0     H 1921  12.041   5.745   7.884  0.8599  1.7913  0.2644
   15MOL0     H 1922  12.154   5.610   7.862 -1.8069  0.5666 -1.3241
   15MOL0     H 1923  12.212   5.869   8.008 -1.8450 -0.9788 -0.2862
   15MOL0     H 1924  12.304   5.719   8.025 -0.6732 -3.1354 -2.1367
   15MOL0     H 1925  12.242   5.885   7.777 -2.6606  0.2480  3.3948
   15MOL0     H 1926  12.324   5.739   7.758  1.0303  1.5818 -2.5023
   15MOL0     H 1927  12.482   5.898   7.762 -0.6309 -0.8115  0.3259
   15MOL0     H 1928  12.516   5.813   7.914  2.8645 -1.2223 -3.5294
   15MOL0     H 1929  12.387   6.091   7.881  2.3964  1.0235  1.6042
   15MOL0     H 1930  12.380   5.993   8.032  0.2585 -0.9857 -0.1774
   15MOL0     H 1931  12.630   6.076   7.871  0.0107 -1.1940  0.4424
   15MOL0     H 1932  12.617   5.968   8.022 -0.0389  0.5406  1.1364
   15MOL0     H 1933  12.472   6.332   7.946 -1.4263  1.0193  2.3068
   15MOL0     H 1934  12.604   6.565   8.015 -0.7133  0.6543  0.9696
   15MOL0     H 1935  12.651   6.561   8.185 -0.2096  0.4710 -0.0264
   15MOL0     H 1936  12.369   6.531   8.119 -0.7117  1.2795 -1.2234
   15MOL0     H 1937  12.448   6.669   8.201 -0.4694  0.7570 -1.6767
   15MOL0     H 1938  12.522   6.510   8.372 -0.9885  4.1254  3.2547
   15MOL0     H 1939  12.353   6.582   8.371  0.5609  1.2769 -1.1458
   15MOL0     H 1940  12.334   6.346   8.435 -1.6877  1.0640 -0.6559
   15MOL0     H 1941  12.425   6.301   8.288 -1.0066 -1.3837  0.2763
   15MOL0     H 1942  12.186   6.468   8.489 -0.4753 -1.3767  0.6307
   15MOL0     H 1943  11.964   6.480   8.573  0.8653  1.6085 -0.5771
   15MOL0     H 1944  11.439   6.381   8.538 -3.3096  0.2479  0.1257
   15MOL0     H 1945  11.255   6.535   8.596  1.1806 -2.8195 -1.9681
   15MOL0     H 1946  11.358   6.957   8.717 -1.2748  2.1410 -0.5285
   15MOL0     H 1947  11.336   6.877   8.874 -1.3795 -1.0599  0.4993
   15MOL0     H 1948  11.096   6.923   8.875  0.7247  2.0509  1.2466
   15MOL0     H 1949  11.094   6.952   8.705 -1.0606 -0.5572  1.0295
   15MOL0     H 1950  11.238   7.141   8.899 -1.7676 -0.7546  1.6645
   15MOL0     H 1951  11.074   7.153   8.872  1.3120  2.7329 -0.8859
   15MOL0     H 1952  11.298   7.164   8.659  0.5073  1.3348  1.9036
   15MOL0     H 1953  11.129   7.178   8.613 -0.4457  0.7852 -0.5228
   15MOL0     H 1954  11.319   7.353   8.775 -0.2373 -2.0870  0.4254
   15MOL0     H 1955  11.143   7.380   8.807  0.8108  0.4475  0.8325
   15MOL0     H 1956  11.129   7.409   8.555  1.3425  4.0832 -2.9023
   15MOL0     H 1957  11.307   7.433   8.563  1.9203  0.7848  1.8633
   15MOL0     H 1958  11.108   7.587   8.736  0.1207  0.3233 -0.1785
   15MOL0     H 1959  11.288   7.620   8.707  1.1780  0.0086 -0.7776
   15MOL0     H 1960  11.120   7.768   8.591  0.2052 -0.3424 -0.1085
   15MOL0     H 1961  11.069   7.626   8.502 -2.3243  2.6769 -0.0846
   15MOL0     H 1962  11.527   6.789   8.793  0.8663 -1.4733  0.9852
   15MOL0     H 1963  11.725   6.644   8.703  0.4857 -3.6503 -2.1041
   15MOL0     H 1964  11.806   6.346   8.184  0.4524 -3.1186  0.4661
   15MOL0     H 1965  12.016   6.326   8.114  1.3785 -2.2723  1.5337
   15MOL0     H 1966  11.730   5.593   8.397  1.1712 -1.0111  0.7702
   15MOL0     H 1967  11.535   5.705   8.493 -1.6015  0.0846 -1.2364
   15MOL0     H 1968  11.064   5.858   8.455 -1.0646 -1.8933  1.3405
   15MOL0     H 1969  10.888   6.008   8.523  0.6222 -0.9540 -0.3597
   15MOL0     H 1970  10.970   6.442   8.657  0.2886 -2.5295 -2.3873
   15MOL0     H 1971  11.002   6.352   8.818 -1.4393 -3.7790  0.7496
   15MOL0     H 1972  10.725   6.429   8.737  1.5312  2.4140 -1.2327
   15MOL0     H 1973  10.799   6.382   8.899  1.5147 -1.4125 -1.5108
   15MOL0     H 1974  10.732   6.619   8.878  0.7375  1.9132  0.8518
   15MOL0     H 1975  10.822   6.634   8.728  0.3091  0.3131 -0.5082
   15MOL0     H 1976  11.040   6.612   8.876  1.7641  1.8598 -0.9884
   15MOL0     H 1977  10.914   6.734   8.926  0.3438 -0.9825 -1.3749
   15MOL0     H 1978  10.910   6.524   9.258 -1.2535  1.1319 -0.2986
   15MOL0     H 1979  11.185   6.271   8.703 -1.5941  2.3602 -2.1712
   15MOL0     H 1980  11.348   6.101   8.639 -0.8439  0.6105  2.1000
   16MOL0     O 1981   7.432   6.843   6.726  0.2179  0.0919  0.1261
   16MOL0     C 1982   7.546   6.881   6.688 -0.1291 -0.8660 -0.8157
   16MOL0     O 1983   7.570   7.005   6.631  0.4621  0.4723  0.3836
   16MOL0     C 1984   7.468   7.052   6.555  0.4561 -0.2648 -0.7542
   16MOL0     C 1985   7.351   7.119   6.605  0.1588  0.4891 -0.0422
   16MOL0     C 1986   7.272   7.192   6.519 -0.2788  0.2699 -0.2847
   16MOL0     C 1987   7.306   7.205   6.382  0.2830 -0.5612  0.7325
   16MOL0     O 1988   7.227   7.283   6.295  0.3329  0.6644  0.7105
   16MOL0     C 1989   7.245   7.282   6.156  0.8001  0.3693 -0.3092
   16MOL0     C 1990   7.170   7.403   6.094 -0.9072  0.6418 -0.1902
   16MOL0     C 1991   7.019   7.386   6.094 -1.1273 -0.6798  0.7906
   16MOL0     C 1992   6.953   7.378   6.231 -1.5229 -0.3116  0.1819
   16MOL0     C 1993   6.804   7.366   6.222 -0.0777 -0.8022  0.3349
   16MOL0     C 1994   6.731   7.431   6.350  0.3494  0.0520  0.8256
   16MOL0     C 1995   6.596   7.372   6.368  0.3707 -0.6994  0.2562
   16MOL0     C 1996   6.496   7.481   6.424  0.6271  0.1468 -1.0047
   16MOL0     N 1997   6.452   7.567   6.311 -0.2883 -0.3221 -0.3597
   16MOL0     C 1998   6.532   7.675   6.282 -1.4229  0.4868  0.8648
   16MOL0     C 1999   6.487   7.713   6.154 -0.4078  0.1244 -0.2811
   16MOL0     C 2000   6.537   7.842   6.089  0.0211  1.3326 -0.5136
   16MOL0     C 2001   6.613   7.807   5.958 -0.3811 -0.8120  0.2530
   16MOL0     C 2002   6.682   7.937   5.912 -0.0954 -1.1515  0.6729
   16MOL0     C 2003   6.748   7.935   5.778  0.1580  0.4979 -0.0727
   16MOL0     O 2004   6.853   7.838   5.766  0.1852  0.4294 -0.1166
   16MOL0     C 2005   6.968   7.876   5.695 -0.0793 -1.1440 -1.1747
   16MOL0     C 2006   7.035   7.989   5.729  0.5211 -0.9906 -0.0029
   16MOL0     C 2007   7.152   8.025   5.674 -0.2839  0.8756 -0.7767
   16MOL0     C 2008   7.211   7.943   5.571  0.1897  0.3095 -0.0009
   16MOL0     C 2009   7.355   7.970   5.524 -0.4962 -0.3737 -0.1344
   16MOL0     O 2010   7.438   8.038   5.603 -0.0150  0.9477 -0.6903
   16MOL0     C 2011   7.565   8.058   5.562 -0.9489  0.4606  0.0138
   16MOL0     C 2012   7.647   7.972   5.489 -0.6493 -0.9623 -1.5127
   16MOL0     C 2013   7.779   8.005   5.463  0.3782 -1.0294 -0.1935
   16MOL0     C 2014   7.837   8.122   5.505 -0.0726 -0.3137 -1.3350
   16MOL0     O 2015   7.967   8.147   5.477 -0.0314 -0.5667  0.6273
   16MOL0     C 2016   8.014   8.279   5.500  0.1183  0.0638  0.5308
   16MOL0     C 2017   8.056   8.324   5.638  0.3670  0.3477 -0.5524
   16MOL0     C 2018   8.190   8.263   5.679 -0.9768 -0.5539  0.1765
   16MOL0     C 2019   8.243   8.327   5.821  0.0075 -0.0918 -0.2218
   16MOL0     C 2020   8.385   8.282   5.849 -0.3202 -0.1157  0.1372
   16MOL0     C 2021   8.423   8.127   5.850 -0.0839  0.3866 -0.0967
   16MOL0     C 2022   8.570   8.110   5.828 -0.3013 -0.6393 -0.0454
   16MOL0     C 2023   8.610   7.966   5.823 -0.3277 -0.5544 -0.4444
   16MOL0    Cl 2024   8.566   7.870   5.956  0.1806  0.4148  0.6263
   16MOL0     C 2025   7.753   8.201   5.586 -0.6193  0.1206  0.2305
   16MOL0     C 2026   7.622   8.176   5.608 -0.5828 -0.6790 -0.6318
   16MOL0     O 2027   7.379   7.926   5.416  0.3091  0.4895 -0.3851
   16MOL0     C 2028   7.139   7.833   5.530 -0.6482 -0.5407  0.4334
   16MOL0     C 2029   7.020   7.798   5.598 -0.1191 -0.5763 -0.1705
   16MOL0     N 2030   6.389   7.616   6.109 -0.3185 -0.2434  0.0149
   16MOL0     N 2031   6.380   7.533   6.204 -0.2838  0.7657 -0.3371
   16MOL0     C 2032   7.424   7.146   6.337 -0.2094  0.5491  0.5077
   16MOL0     C 2033   7.499   7.067   6.422 -0.0602  0.3276 -0.4545
   16MOL0     C 2034   7.663   6.801   6.731 -0.3375  0.7477 -0.2947
   16MOL0     C 2035   7.793   6.837   6.687 -0.4431  0.5562 -0.4547
   16MOL0     C 2036   7.903   6.760   6.746  0.3327 -0.3631  0.0378
   16MOL0     C 2037   7.875   6.641   6.824  0.3412  0.0389  0.0596
   16MOL0     O 2038   7.985   6.567   6.865  0.3935 -0.1937 -1.0144
   16MOL0     C 2039   7.981   6.420   6.887  0.2307 -0.9889  1.1329
   16MOL0     C 2040   7.996   6.342   6.759 -0.5281  0.5818 -0.0904
   16MOL0     C 2041   7.980   6.189   6.773 -0.3023  0.3563 -0.0995
   16MOL0     C 2042   7.967   6.113   6.642 -0.4169 -0.4552  0.4286
   16MOL0     C 2043   8.051   6.160   6.530 -0.1070  0.0518  0.1451
   16MOL0     C 2044   8.114   6.220   6.445 -0.0219  0.8572 -0.2753
   16MOL0     C 2045   7.744   6.611   6.862 -0.2304  0.2302  0.6281
   16MOL0     C 2046   7.645   6.689   6.815 -0.0872  1.2972  0.5431
   16MOL0     H 2047   7.325   7.112   6.711  2.4362 -1.1526  0.4986
   16MOL0     H 2048   7.187   7.229   6.576  0.8637  1.2168  0.8586
   16MOL0     H 2049   7.213   7.188   6.110 -0.9503  0.0157  1.4960
   16MOL0     H 2050   7.349   7.303   6.132  0.9876  1.8388  1.4963
   16MOL0     H 2051   7.195   7.429   5.991 -0.8319 -2.6884 -1.1072
   16MOL0     H 2052   7.194   7.495   6.149 -0.6330 -0.5226  1.7092
   16MOL0     H 2053   7.001   7.292   6.042 -3.4721  1.1697 -2.0871
   16MOL0     H 2054   6.961   7.462   6.040 -0.7128  1.3785  3.0261
   16MOL0     H 2055   6.998   7.299   6.291 -1.1574 -1.0787 -1.0696
   16MOL0     H 2056   6.982   7.470   6.282 -0.4118 -0.7905  0.4384
   16MOL0     H 2057   6.799   7.256   6.223  0.4544 -0.8255  0.8777
   16MOL0     H 2058   6.767   7.411   6.130 -2.2514 -2.0560  0.5142
   16MOL0     H 2059   6.730   7.539   6.332 -3.8834 -0.3727 -3.6632
   16MOL0     H 2060   6.784   7.409   6.443 -1.6047  0.4523  2.0891
   16MOL0     H 2061   6.560   7.320   6.278 -0.2150  0.8025 -0.4014
   16MOL0     H 2062   6.583   7.299   6.449 -2.4335 -2.0175 -1.2378
   16MOL0     H 2063   6.542   7.536   6.505  1.6616  0.6028 -1.8818
   16MOL0     H 2064   6.402   7.430   6.450  0.9403  0.6353  1.2237
   16MOL0     H 2065   6.623   7.712   6.326  2.1805 -5.3031 -0.6558
   16MOL0     H 2066   6.598   7.899   6.159  0.3200  1.5567 -0.9522
   16MOL0     H 2067   6.456   7.912   6.065 -0.3471  1.3034  0.6078
   16MOL0     H 2068   6.546   7.775   5.877 -2.6979 -0.4555  1.9392
   16MOL0     H 2069   6.689   7.732   5.980  0.7355  1.3064  4.6823
   16MOL0     H 2070   6.604   8.013   5.904 -0.0276 -1.1262  0.2292
   16MOL0     H 2071   6.762   7.964   5.982  0.2854 -2.0323  0.5916
   16MOL0     H 2072   6.781   8.037   5.756 -3.9948  1.4056 -3.2456
   16MOL0     H 2073   6.670   7.919   5.703  0.9657 -1.6918 -0.5292
   16MOL0     H 2074   6.995   8.054   5.806  0.1352  0.9759 -1.7583
   16MOL0     H 2075   7.200   8.118   5.703  1.1139  0.1651 -0.7213
   16MOL0     H 2076   7.610   7.878   5.448  1.5675 -2.4448 -0.3317
   16MOL0     H 2077   7.828   7.938   5.394  0.6984  0.3161 -1.3312
   16MOL0     H 2078   7.942   8.354   5.465  0.8740 -0.2962 -1.9874
   16MOL0     H 2079   8.092   8.301   5.427 -1.6574 -1.8976 -2.1692
   16MOL0     H 2080   7.984   8.283   5.708 -1.0482 -0.0494 -2.1709
   16MOL0     H 2081   8.049   8.432   5.648  0.3503  0.1061  3.1468
   16MOL0     H 2082   8.246   8.311   5.598  0.1437 -1.0521  0.6236
   16MOL0     H 2083   8.185   8.154   5.664  0.4828 -0.7272  0.7585
   16MOL0     H 2084   8.243   8.436   5.817 -1.9792 -0.0861 -1.5410
   16MOL0     H 2085   8.175   8.294   5.900  1.3632  1.0718  1.5052
   16MOL0     H 2086   8.430   8.330   5.937  0.2484 -1.2826  0.5023
   16MOL0     H 2087   8.442   8.327   5.767 -4.0258 -1.6655 -3.6399
   16MOL0     H 2088   8.379   8.075   5.765  1.1043  0.6892 -0.9239
   16MOL0     H 2089   8.390   8.086   5.946  1.9410  0.3666  0.6514
   16MOL0     H 2090   8.594   8.152   5.729 -0.4318 -4.6953 -2.0122
   16MOL0     H 2091   8.629   8.162   5.903 -1.4349 -0.8346  1.0143
   16MOL0     H 2092   8.719   7.973   5.821 -0.4051  2.4240  1.2582
   16MOL0     H 2093   8.570   7.919   5.732 -2.3701  1.3525 -0.6110
   16MOL0     H 2094   7.787   8.295   5.626 -0.2274  0.0494  0.0739
   16MOL0     H 2095   7.550   8.235   5.664  0.8164  1.9742 -1.4239
   16MOL0     H 2096   7.178   7.775   5.447  2.3924 -0.3354  1.5553
   16MOL0     H 2097   6.972   7.706   5.564  0.6993 -1.0164 -0.1605
   16MOL0     H 2098   7.462   7.153   6.236 -0.9767  0.8647  0.2317
   16MOL0     H 2099   7.594   7.029   6.384 -0.5960  1.0868 -2.6943
   16MOL0     H 2100   7.807   6.933   6.638 -0.8619 -0.2088 -2.1377
   16MOL0     H 2101   7.999   6.788   6.704  0.0837 -0.3269 -0.5184
   16MOL0     H 2102   7.890   6.391   6.939 -0.1342 -3.7588 -0.8256
   16MOL0     H 2103   8.062   6.377   6.945 -0.5513 -3.3956  0.5552
   16MOL0     H 2104   7.928   6.374   6.680  1.1256  0.8166 -1.5073
   16MOL0     H 2105   8.097   6.364   6.721 -0.3589  2.0205  1.0874
   16MOL0     H 2106   7.883   6.171   6.820  0.0594 -0.1140  0.4756
   16MOL0     H 2107   8.064   6.150   6.831 -0.3991 -0.2156 -0.3394
   16MOL0     H 2108   7.981   6.005   6.650  2.5591 -0.2081 -0.1760
   16MOL0     H 2109   7.864   6.117   6.605 -0.0229 -0.3360 -0.7021
   16MOL0     H 2110   8.184   6.275   6.385 -0.9655 -0.6991 -2.9942
   16MOL0     H 2111   7.714   6.526   6.922 -0.0547  0.0484  0.4604
   16MOL0     H 2112   7.542   6.660   6.836 -1.1485  0.8908 -4.1216
   17MOL0     O 2113   3.101   3.340   6.455 -0.2920 -0.2040 -0.8043
   17MOL0     C 2114   3.104   3.349   6.578 -0.3515  1.1292  0.2422
   17MOL0     O 2115   3.127   3.462   6.661 -0.5195  1.6803 -0.3716
   17MOL0     C 2116   3.169   3.585   6.616  0.0361 -0.9353 -0.2600
   17MOL0     C 2117   3.230   3.667   6.715  0.5568 -0.9937 -0.1330
   17MOL0     C 2118   3.290   3.784   6.674  0.5877 -0.2464  0.9533
   17MOL0     C 2119   3.276   3.837   6.547  1.3669 -0.9467  0.0413
   17MOL0     O 2120   3.332   3.967   6.537  0.7599  0.8415  0.7939
   17MOL0     C 2121   3.352   4.009   6.405  0.3693 -0.6842  0.3123
   17MOL0     C 2122   3.439   4.138   6.366  0.2125 -0.4394 -0.7398
   17MOL0     C 2123   3.584   4.100   6.335 -0.6453 -0.8228 -0.1267
   17MOL0     C 2124   3.653   4.101   6.470 -0.1126 -0.0889 -0.6802
   17MOL0     C 2125   3.805   4.069   6.447 -0.2343 -0.3265  0.7744
   17MOL0     C 2126   3.872   4.060   6.581  0.2921  0.3511  0.2421
   17MOL0     C 2127   4.024   4.053   6.563  0.6146  0.5554  0.0494
   17MOL0     C 2128   4.095   4.037   6.699 -0.0273 -0.7589 -0.6453
   17MOL0     N 2129   4.244   4.060   6.704  0.9450  0.2370  0.5198
   17MOL0     C 2130   4.332   4.002   6.613  0.2709  0.8704 -0.5404
   17MOL0     C 2131   4.452   4.033   6.668 -0.4425 -0.3195 -1.0462
   17MOL0     C 2132   4.589   3.988   6.619 -0.2327  0.2934 -0.3688
   17MOL0     C 2133   4.677   4.089   6.547 -0.5809 -0.0769  0.4337
   17MOL0     C 2134   4.740   4.191   6.638 -1.1206 -0.9146  0.0792
   17MOL0     C 2135   4.867   4.259   6.577 -0.5762 -0.2485  0.0651
   17MOL0     O 2136   4.971   4.169   6.554  0.0409  0.6042 -0.3896
   17MOL0     C 2137   5.067   4.202   6.456  0.0078  0.3595 -0.8811
   17MOL0     C 2138   5.127   4.093   6.381  1.2834 -0.1460  0.2540
   17MOL0     C 2139   5.230   4.123   6.292  0.2348 -0.3055  0.3921
   17MOL0     C 2140   5.271   4.255   6.271 -0.1487  0.2160  0.2306
   17MOL0     C 2141   5.384   4.289   6.185 -0.6011 -0.2536 -0.5895
   17MOL0     O 2142   5.377   4.424   6.137 -0.1896  0.8274  0.4866
   17MOL0     C 2143   5.487   4.460   6.068 -0.2467 -0.6178  0.8141
   17MOL0     C 2144   5.607   4.488   6.136 -0.4587  0.5142 -0.7320
   17MOL0     C 2145   5.714   4.551   6.081  0.1500 -0.0075  0.4032
   17MOL0     C 2146   5.710   4.577   5.943 -0.9559 -0.0497  0.5081
   17MOL0     O 2147   5.821   4.620   5.872  0.4448  0.2116 -0.2988
   17MOL0     C 2148   5.944   4.647   5.940  0.1964 -0.1221 -0.3221
   17MOL0     C 2149   6.042   4.712   5.834  0.0128  0.2938 -0.0954
   17MOL0     C 2150   6.190   4.720   5.882  0.1434 -0.7692 -0.6028
   17MOL0     C 2151   6.247   4.579   5.913  0.4821 -0.4741  0.0338
   17MOL0     C 2152   6.401   4.585   5.930  0.1090 -0.6846  0.4463
   17MOL0     C 2153   6.428   4.624   6.074 -0.1332  0.6113  0.5863
   17MOL0     C 2154   6.564   4.712   6.086 -0.3579  0.5067 -0.0086
   17MOL0     C 2155   6.685   4.662   6.014  1.3352  1.0376  0.0406
   17MOL0    Cl 2156   6.823   4.763   6.048  0.5881 -0.6469 -0.0441
   17MOL0     C 2157   5.587   4.563   5.878 -0.8200 -0.0816  0.2512
   17MOL0     C 2158   5.477   4.503   5.937  0.0602  0.3017 -1.3550
   17MOL0     O 2159   5.462   4.202   6.155 -0.1769  0.8699 -0.5908
   17MOL0     C 2160   5.214   4.355   6.346  0.2241  0.5210  0.3184
   17MOL0     C 2161   5.115   4.334   6.445  0.2251 -0.9688  0.4803
   17MOL0     N 2162   4.427   4.116   6.775 -0.0417 -0.7794  0.7767
   17MOL0     N 2163   4.309   4.145   6.784  0.6346  0.3566  0.4866
   17MOL0     C 2164   3.203   3.755   6.447 -0.2592  0.2296 -0.0807
   17MOL0     C 2165   3.157   3.629   6.486  0.8305  0.3339  0.7539
   17MOL0     C 2166   3.106   3.215   6.653  0.2990  0.1848  0.7348
   17MOL0     C 2167   3.181   3.106   6.609  0.1867 -0.7740  0.1187
   17MOL0     C 2168   3.183   2.982   6.671 -0.5235  0.3717  0.5120
   17MOL0     C 2169   3.108   2.956   6.785 -0.7619  0.1498 -0.3006
   17MOL0     O 2170   3.092   2.839   6.854 -0.6260 -0.1029 -0.9718
   17MOL0     C 2171   3.187   2.735   6.812 -0.2164 -0.2878 -0.1156
   17MOL0     C 2172   3.166   2.616   6.912 -1.0471  0.1501  0.0144
   17MOL0     C 2173   3.022   2.575   6.921 -0.3147 -0.7677  0.6826
   17MOL0     C 2174   3.003   2.433   6.960 -0.9840 -0.1005 -0.2798
   17MOL0     C 2175   3.054   2.412   7.099  0.2134 -0.1341  0.1331
   17MOL0     C 2176   3.098   2.412   7.211 -0.5282  0.1438 -0.7175
   17MOL0     C 2177   3.019   3.046   6.824 -0.5501  0.2304 -0.2223
   17MOL0     C 2178   3.022   3.176   6.761 -1.4924  0.1294  0.3057
   17MOL0     H 2179   3.224   3.629   6.816 -1.6137  1.2904  0.6980
   17MOL0     H 2180   3.361   3.814   6.750  2.1643  1.8246 -1.1762
   17MOL0     H 2181   3.254   4.030   6.360  1.3574  0.6434 -1.3336
   17MOL0     H 2182   3.402   3.937   6.339  1.1501  1.8991 -2.1297
   17MOL0     H 2183   3.443   4.215   6.444 -1.0946  0.1393 -1.2159
   17MOL0     H 2184   3.388   4.180   6.279 -1.9523 -0.0590  0.6416
   17MOL0     H 2185   3.641   4.169   6.271  2.4523 -2.9991  0.0381
   17MOL0     H 2186   3.586   4.002   6.287 -0.4001  0.7407 -3.6183
   17MOL0     H 2187   3.640   4.196   6.523  0.2228 -0.6897  0.5139
   17MOL0     H 2188   3.605   4.021   6.527 -2.0770  0.1258 -1.9480
   17MOL0     H 2189   3.858   4.139   6.382 -1.2482 -1.7465 -1.7368
   17MOL0     H 2190   3.809   3.972   6.397 -2.9898 -0.4329  0.5787
   17MOL0     H 2191   3.828   3.973   6.630  3.1173 -1.1239  0.3937
   17MOL0     H 2192   3.860   4.146   6.648  3.1086  0.2295  1.0648
   17MOL0     H 2193   4.052   3.977   6.489 -1.7073 -0.9915  0.6490
   17MOL0     H 2194   4.045   4.147   6.513 -4.2703  1.7789 -0.1754
   17MOL0     H 2195   4.071   3.936   6.735 -0.7459 -1.1507 -2.1728
   17MOL0     H 2196   4.039   4.102   6.767  1.0403 -2.5180  2.0831
   17MOL0     H 2197   4.327   3.932   6.530 -0.3249  0.8713 -0.5131
   17MOL0     H 2198   4.575   3.894   6.564  2.0015 -2.0721  2.7608
   17MOL0     H 2199   4.649   3.966   6.707  0.4354 -0.3092 -0.9652
   17MOL0     H 2200   4.612   4.136   6.474 -1.9633 -1.0726  0.9754
   17MOL0     H 2201   4.754   4.030   6.496 -2.1792 -1.1247 -0.8798
   17MOL0     H 2202   4.669   4.270   6.665 -0.6105  1.2937 -4.1612
   17MOL0     H 2203   4.761   4.145   6.735 -3.4418 -2.4153 -0.0505
   17MOL0     H 2204   4.893   4.338   6.648 -1.1874 -0.2429  0.2884
   17MOL0     H 2205   4.851   4.300   6.477 -3.1532 -1.5524 -0.1528
   17MOL0     H 2206   5.084   3.997   6.405 -1.1394  1.6835  4.5031
   17MOL0     H 2207   5.291   4.048   6.242 -0.6274 -0.5722 -0.2926
   17MOL0     H 2208   5.628   4.469   6.240  1.7759  3.3165 -0.5726
   17MOL0     H 2209   5.800   4.569   6.145  2.4896  2.5366 -3.0068
   17MOL0     H 2210   5.985   4.552   5.975  0.9285  0.1933 -0.3048
   17MOL0     H 2211   5.914   4.707   6.026 -2.3744 -1.3154 -0.2976
   17MOL0     H 2212   6.026   4.816   5.804  0.8634  1.2000  2.4198
   17MOL0     H 2213   6.045   4.654   5.741 -1.5182  2.6610 -1.7426
   17MOL0     H 2214   6.178   4.778   5.974 -4.4260 -1.5336 -0.4477
   17MOL0     H 2215   6.240   4.768   5.798 -1.3325 -0.8124 -1.5511
   17MOL0     H 2216   6.201   4.537   6.003 -0.2917 -1.1419 -0.6552
   17MOL0     H 2217   6.231   4.514   5.827 -0.1773  0.4010 -0.5174
   17MOL0     H 2218   6.449   4.651   5.857 -0.3166 -0.9703 -0.1016
   17MOL0     H 2219   6.446   4.488   5.906  1.1191  0.3017 -2.0684
   17MOL0     H 2220   6.421   4.536   6.137 -1.0064  0.1418 -0.1474
   17MOL0     H 2221   6.351   4.689   6.116 -1.5147 -0.7942  0.2799
   17MOL0     H 2222   6.542   4.805   6.032  1.6740 -0.1628 -2.1504
   17MOL0     H 2223   6.592   4.739   6.188 -0.9850 -2.3549  1.0103
   17MOL0     H 2224   6.663   4.679   5.908 -1.1726  0.8669  0.4519
   17MOL0     H 2225   6.698   4.554   6.028 -2.1287  0.0535 -2.6528
   17MOL0     H 2226   5.585   4.598   5.775 -0.9698 -2.1289 -0.4936
   17MOL0     H 2227   5.385   4.515   5.881  1.4504  1.4329 -3.5363
   17MOL0     H 2228   5.237   4.460   6.340 -0.8151  0.7604  0.2872
   17MOL0     H 2229   5.080   4.415   6.508 -0.2910  0.3426 -1.4153
   17MOL0     H 2230   3.170   3.820   6.367 -2.0748  5.0012  3.9799
   17MOL0     H 2231   3.113   3.564   6.411 -1.4079  2.2096  0.3417
   17MOL0     H 2232   3.239   3.116   6.518 -2.5389  0.8517 -1.6126
   17MOL0     H 2233   3.243   2.909   6.617 -0.3319  1.7547 -1.2176
   17MOL0     H 2234   3.285   2.781   6.830 -0.2756 -0.5657  0.9795
   17MOL0     H 2235   3.184   2.698   6.709  0.6939 -3.0727  0.7669
   17MOL0     H 2236   3.225   2.530   6.881  0.2450  0.2465  2.0224
   17MOL0     H 2237   3.194   2.639   7.016  1.8085 -0.6359 -0.5023
   17MOL0     H 2238   2.970   2.586   6.825  0.3874  0.8945  0.4492
   17MOL0     H 2239   2.973   2.645   6.989 -2.0152 -0.6802 -0.5594
   17MOL0     H 2240   2.897   2.408   6.957 -0.4991 -3.0650  2.2797
   17MOL0     H 2241   3.044   2.355   6.894 -1.9333 -0.5859 -0.3026
   17MOL0     H 2242   3.139   2.406   7.310  0.1919 -1.2779 -1.0869
   17MOL0     H 2243   2.952   3.029   6.908 -0.9589  0.1070 -0.5700
   17MOL0     H 2244   2.960   3.251   6.808 -5.1234 -1.6658 -1.2217
   18MOL0     O 2245   0.269   8.357  10.308 -0.3325  0.1543  0.1808
   18MOL0     C 2246   0.347   8.378  10.216 -0.5423  0.5153 -0.8013
   18MOL0     O 2247   0.412   8.289  10.134  0.5414  0.0216 -0.7934
   18MOL0     C 2248   0.401   8.156  10.171 -0.2209 -0.1611 -0.7268
   18MOL0     C 2249   0.272   8.092  10.186 -0.9615 -0.6471 -0.5233
   18MOL0     C 2250   0.272   7.953  10.225  0.2306  1.1008 -0.2745
   18MOL0     C 2251   0.392   7.877  10.244  0.3279  0.5295 -1.1460
   18MOL0     O 2252   0.398   7.750  10.290  0.6267  0.0510  0.2509
   18MOL0     C 2253   0.348   7.747  10.421  0.1251 -1.0886 -0.3240
   18MOL0     C 2254   0.368   7.606  10.476 -0.2782 -0.6143 -0.0967
   18MOL0     C 2255   0.315   7.593  10.623 -0.5273  0.1936 -0.3344
   18MOL0     C 2256   0.404   7.645  10.737 -0.0045  1.6330 -0.5289
   18MOL0     C 2257   0.537   7.567  10.747  0.2673 -0.4961  0.3367
   18MOL0     C 2258   0.653   7.659  10.702  0.6921  0.0850 -0.1905
   18MOL0     C 2259   0.790   7.591  10.680 -1.1808 -0.4182  0.3709
   18MOL0     C 2260   0.905   7.682  10.732 -0.0190  0.5447  1.4091
   18MOL0     N 2261   0.935   7.792  10.634 -0.5107 -0.4114 -0.6463
   18MOL0     C 2262   0.846   7.886  10.595  0.6726  0.4309  0.2100
   18MOL0     C 2263   0.894   7.940  10.483 -0.7436  0.2382 -0.4185
   18MOL0     C 2264   0.822   8.023  10.386 -0.4211  0.3783  0.1651
   18MOL0     C 2265   0.918   8.151  10.365  1.0010 -0.2657 -0.2509
   18MOL0     C 2266   0.851   8.232  10.261 -0.5210 -0.7620 -0.3708
   18MOL0     C 2267   0.921   8.356  10.235 -0.4685  1.0216  0.5414
   18MOL0     O 2268   0.822   8.439  10.182  0.3225  0.3742 -0.5101
   18MOL0     C 2269   0.859   8.560  10.138  0.2810 -0.3735  0.6307
   18MOL0     C 2270   0.753   8.641  10.111 -0.6365  0.1069 -0.7219
   18MOL0     C 2271   0.765   8.770  10.055 -0.1108 -0.5034  0.7411
   18MOL0     C 2272   0.892   8.826  10.031  0.2794  0.5910  0.8759
   18MOL0     C 2273   0.908   8.955   9.972  0.2980  0.7019 -0.7342
   18MOL0     O 2274   0.799   9.035   9.949 -0.5903  0.3353  0.2492
   18MOL0     C 2275   0.817   9.150   9.880  0.2157 -1.1925 -0.7142
   18MOL0     C 2276   0.733   9.177   9.779 -0.0686 -0.1374 -0.3416
   18MOL0     C 2277   0.739   9.303   9.709 -0.1656  0.1959  0.1723
   18MOL0     C 2278   0.850   9.387   9.720 -0.1097  0.0486  1.0359
   18MOL0     O 2279   0.900   9.484   9.645 -0.3406 -0.1317  0.4928
   18MOL0     C 2280   0.819   9.556   9.560  0.3152  0.2929  0.6741
   18MOL0     C 2281   0.864   9.697   9.538  0.4809 -0.8537  0.2361
   18MOL0     C 2282   0.748   9.780   9.476  0.6145  0.1484  0.4163
   18MOL0     C 2283   0.772   9.929   9.481 -0.4672  0.1346 -0.3524
   18MOL0     C 2284   0.889   9.966   9.380  0.1932 -0.2610  0.0127
   18MOL0     C 2285   0.936  10.112   9.392  0.0898 -0.3159  0.6822
   18MOL0     C 2286   1.042  10.145   9.283  0.1512 -0.6481  0.1841
   18MOL0     C 2287   1.175  10.078   9.295  1.0336  0.3710  0.3888
   18MOL0    Cl 2288   1.193   9.910   9.229 -0.3091  0.3086 -0.2872
   18MOL0     C 2289   0.941   9.363   9.832  0.9493 -0.4163  0.1202
   18MOL0     C 2290   0.915   9.251   9.919  0.3420  0.1258 -0.6823
   18MOL0     O 2291   1.020   8.983   9.934 -0.2517  1.1414 -0.0910
   18MOL0     C 2292   1.006   8.745  10.059  0.7234 -0.5551 -1.1227
   18MOL0     C 2293   0.994   8.606  10.114 -0.0863  0.4848 -0.6510
   18MOL0     N 2294   1.022   7.888  10.464  0.5787 -0.0742  0.3470
   18MOL0     N 2295   1.044   7.805  10.555  0.2321 -0.0007  0.9507
   18MOL0     C 2296   0.508   7.942  10.229  0.4024 -0.2776 -0.1197
   18MOL0     C 2297   0.521   8.075  10.194 -0.1432 -1.0997  1.0528
   18MOL0     C 2298   0.376   8.521  10.199  0.7023 -0.0549  0.2356
   18MOL0     C 2299   0.304   8.615  10.286  0.1100 -0.0163 -0.4412
   18MOL0     C 2300   0.314   8.748  10.260  0.6376 -0.5695  0.8163
   18MOL0     C 2301   0.365   8.804  10.131  0.2907  0.4647 -0.6492
   18MOL0     O 2302   0.344   8.939  10.104  0.3389  0.3209 -0.6848
   18MOL0     C 2303   0.426   9.015  10.014  0.4308 -0.1740  0.2992
   18MOL0     C 2304   0.380   9.160  10.021 -0.2420  0.5876 -1.3526
   18MOL0     C 2305   0.453   9.248  10.132 -0.3788 -0.1804 -0.3312
   18MOL0     C 2306   0.554   9.343  10.073  0.8901  0.1726  0.5141
   18MOL0     C 2307   0.470   9.437   9.996 -0.1405 -0.8515  0.7888
   18MOL0     C 2308   0.400   9.504   9.913  0.7718 -0.8244 -0.1029
   18MOL0     C 2309   0.437   8.710  10.048 -0.0981 -0.7460  0.3347
   18MOL0     C 2310   0.440   8.574  10.078 -0.8270  0.1967 -0.4348
   18MOL0     H 2311   0.173   8.131  10.166  0.0347  1.5096 -1.5254
   18MOL0     H 2312   0.178   7.899  10.218  0.9901 -0.0490 -2.9484
   18MOL0     H 2313   0.240   7.760  10.416  0.1642 -0.0941  0.9112
   18MOL0     H 2314   0.389   7.825  10.486  1.1631 -2.5260  0.8130
   18MOL0     H 2315   0.468   7.563  10.463 -0.8791 -1.2199 -3.8000
   18MOL0     H 2316   0.304   7.540  10.417  0.8051 -0.5862 -1.3492
   18MOL0     H 2317   0.285   7.489  10.640  1.3156 -0.8151 -2.6474
   18MOL0     H 2318   0.224   7.654  10.629 -3.1383 -3.5135  1.9368
   18MOL0     H 2319   0.428   7.752  10.738  2.0592  1.2193 -0.5862
   18MOL0     H 2320   0.346   7.634  10.829 -1.9873  4.0680 -1.3942
   18MOL0     H 2321   0.534   7.474  10.689 -1.0714  1.7438 -3.5424
   18MOL0     H 2322   0.556   7.528  10.848 -0.0453 -4.5035 -0.9564
   18MOL0     H 2323   0.657   7.749  10.763  3.1231 -0.9887  1.3744
   18MOL0     H 2324   0.617   7.706  10.610  1.9107  0.8794 -0.2865
   18MOL0     H 2325   0.804   7.495  10.730 -2.8437 -1.2762 -0.6954
   18MOL0     H 2326   0.811   7.570  10.575 -1.6183 -1.9014  0.5515
   18MOL0     H 2327   0.993   7.618  10.748 -1.7345 -2.4038 -0.0198
   18MOL0     H 2328   0.880   7.733  10.826 -2.3818  4.1548 -0.9510
   18MOL0     H 2329   0.742   7.899  10.624  0.5025 -0.5383  0.0754
   18MOL0     H 2330   0.716   8.039  10.411 -0.8657 -1.6542 -0.2590
   18MOL0     H 2331   0.803   7.971  10.292 -4.9242 -1.8466  2.0095
   18MOL0     H 2332   1.013   8.120  10.321  2.1550  0.0283  1.8962
   18MOL0     H 2333   0.916   8.209  10.457 -1.3659  0.8191 -0.9113
   18MOL0     H 2334   0.843   8.175  10.169 -1.9058 -1.1047 -0.0574
   18MOL0     H 2335   0.750   8.252  10.299  0.6965  2.9832  1.4409
   18MOL0     H 2336   1.004   8.339  10.166 -0.0813  1.9520  0.7599
   18MOL0     H 2337   0.967   8.402  10.324  1.0625 -0.3714  0.5163
   18MOL0     H 2338   0.652   8.620  10.145 -0.4349 -0.1072 -0.2479
   18MOL0     H 2339   0.683   8.836  10.028  1.5978  1.9876  1.2991
   18MOL0     H 2340   0.643   9.122   9.753 -0.5260  0.8027 -0.8251
   18MOL0     H 2341   0.671   9.331   9.630 -0.0846 -2.5158 -0.9813
   18MOL0     H 2342   0.712   9.556   9.584  0.1741 -1.7753  0.2463
   18MOL0     H 2343   0.822   9.493   9.471  1.3970  0.1407  0.8118
   18MOL0     H 2344   0.941   9.694   9.460  2.9001 -1.6785  2.4694
   18MOL0     H 2345   0.895   9.743   9.632  1.2403  1.0427 -0.8853
   18MOL0     H 2346   0.659   9.751   9.532  2.5269  0.7136  4.0851
   18MOL0     H 2347   0.733   9.736   9.377 -1.6571  0.4228  0.6049
   18MOL0     H 2348   0.682   9.984   9.455 -0.0292  1.6395  1.1553
   18MOL0     H 2349   0.797   9.972   9.579  2.5908 -2.4882  0.2007
   18MOL0     H 2350   0.848   9.937   9.283 -3.7975  1.8241  0.8453
   18MOL0     H 2351   0.978   9.908   9.405 -0.1931 -2.1147 -2.4951
   18MOL0     H 2352   0.976  10.140   9.490  4.0766  0.0970 -0.8745
   18MOL0     H 2353   0.844  10.169   9.377  0.0259 -0.2328  1.3553
   18MOL0     H 2354   1.003  10.118   9.185  0.1078 -3.0404  0.7861
   18MOL0     H 2355   1.056  10.251   9.305 -0.3792 -0.5694  0.1504
   18MOL0     H 2356   1.210  10.070   9.399  0.2846 -1.6025  0.5268
   18MOL0     H 2357   1.235  10.146   9.233  1.2609 -0.0696  0.1174
   18MOL0     H 2358   1.019   9.434   9.856  2.8540 -2.6269  0.8419
   18MOL0     H 2359   0.971   9.251  10.013 -2.5979 -3.1941  1.3006
   18MOL0     H 2360   1.103   8.787  10.037 -0.3556  1.8642 -1.5206
   18MOL0     H 2361   1.078   8.542  10.137 -1.1727 -1.9688 -3.0066
   18MOL0     H 2362   0.594   7.876  10.237  0.0517 -1.0671 -2.1461
   18MOL0     H 2363   0.616   8.127  10.180 -0.8592 -0.4180 -2.1848
   18MOL0     H 2364   0.244   8.591  10.373 -1.6326  2.2334 -0.9052
   18MOL0     H 2365   0.266   8.818  10.328 -0.5046 -1.5318  1.0265
   18MOL0     H 2366   0.417   8.978   9.912 -2.6467  0.7260  0.1531
   18MOL0     H 2367   0.528   9.014  10.056 -0.4320 -2.1317  2.6370
   18MOL0     H 2368   0.397   9.204   9.922  1.1550  1.6990 -0.6503
   18MOL0     H 2369   0.275   9.159  10.052  0.3805 -0.5360  0.9471
   18MOL0     H 2370   0.516   9.192  10.202  0.0468  1.3422  0.5521
   18MOL0     H 2371   0.371   9.306  10.174 -0.8291 -1.0309 -0.0147
   18MOL0     H 2372   0.594   9.400  10.158 -2.1313  3.2444  0.1087
   18MOL0     H 2373   0.625   9.288  10.011 -2.1729 -0.4313 -2.8124
   18MOL0     H 2374   0.343   9.557   9.840 -0.4259 -0.7600  0.8466
   18MOL0     H 2375   0.484   8.737   9.954  0.3278 -0.0809  0.7243
   18MOL0     H 2376   0.496   8.499  10.023 -0.1738  0.7164 -0.4938
   19MOL0     O 2377  10.927   6.154   1.254 -1.1006 -0.7567 -0.0878
   19MOL0     C 2378  10.910   6.277   1.232  0.1334 -0.2479  0.3821
   19MOL0     O 2379  10.914   6.338   1.110  0.3331 -0.1515  0.0292
   19MOL0     C 2380  10.915   6.250   0.997  0.2324  0.2586 -0.1850
   19MOL0     C 2381  10.802   6.174   0.949  0.7288 -0.9887 -0.2481
   19MOL0     C 2382  10.823   6.102   0.830  0.5373  0.4789 -0.9037
   19MOL0     C 2383  10.941   6.112   0.758 -0.3728  0.2837 -0.0691
   19MOL0     O 2384  10.943   6.043   0.636 -0.3816 -0.3686 -0.5054
   19MOL0     C 2385  11.073   5.998   0.595 -0.5174  0.5737 -0.1019
   19MOL0     C 2386  11.072   5.903   0.469  0.9747  0.1664 -0.5359
   19MOL0     C 2387  11.005   5.961   0.343  0.5159 -0.2024  0.1507
   19MOL0     C 2388  11.049   6.107   0.318  0.2151  0.0513  0.8450
   19MOL0     C 2389  11.003   6.144   0.180 -0.1827  0.1669  0.3949
   19MOL0     C 2390  11.013   6.289   0.157  0.0125  0.4462 -0.4479
   19MOL0     C 2391  10.973   6.341   0.022 -0.2119 -0.4708  0.2981
   19MOL0     C 2392  11.018   6.478  -0.004 -0.4890  0.1583 -0.1678
   19MOL0     N 2393  11.023   6.533  -0.139 -0.4332  0.0117  0.5479
   19MOL0     C 2394  10.913   6.552  -0.215  0.7507  0.4949 -0.0604
   19MOL0     C 2395  10.956   6.554  -0.337  0.1892 -0.8904  0.3783
   19MOL0     C 2396  10.869   6.559  -0.458  1.1258 -0.1688 -0.4471
   19MOL0     C 2397  10.813   6.690  -0.505  0.1724 -1.1071  0.5471
   19MOL0     C 2398  10.921   6.804  -0.528  0.2254  0.7370 -0.3662
   19MOL0     C 2399  11.006   6.770  -0.647  0.0208 -0.3901  0.8774
   19MOL0     O 2400  10.932   6.802  -0.765 -0.7422  0.3844 -0.6083
   19MOL0     C 2401  10.965   6.738  -0.883  0.3119  0.1996 -0.2654
   19MOL0     C 2402  11.093   6.690  -0.904  0.1295  0.2160 -0.1904
   19MOL0     C 2403  11.131   6.612  -1.019  0.4232  0.2976  0.4970
   19MOL0     C 2404  11.040   6.591  -1.123  0.6488  1.6594 -0.5526
   19MOL0     C 2405  11.080   6.531  -1.245 -0.9278 -0.2113  1.0112
   19MOL0     O 2406  11.213   6.494  -1.260  0.0805 -0.3939  0.6902
   19MOL0     C 2407  11.247   6.433  -1.381  0.5022 -0.0299  0.8298
   19MOL0     C 2408  11.234   6.303  -1.404  1.1717  0.3006  0.2936
   19MOL0     C 2409  11.233   6.252  -1.538 -0.5243  0.1379 -0.3269
   19MOL0     C 2410  11.271   6.338  -1.648 -0.3962 -0.2641  0.1268
   19MOL0     O 2411  11.280   6.290  -1.774  0.1959 -0.0225 -0.4691
   19MOL0     C 2412  11.222   6.369  -1.888  0.3603  0.3022 -0.2212
   19MOL0     C 2413  11.331   6.346  -2.003  0.8604  0.3495  0.6303
   19MOL0     C 2414  11.472   6.389  -1.962  0.0691  0.4636 -0.8145
   19MOL0     C 2415  11.580   6.355  -2.075 -0.8068  1.0875  0.0522
   19MOL0     C 2416  11.731   6.384  -2.041  0.0454 -0.3026 -0.1639
   19MOL0     C 2417  11.797   6.304  -1.927 -0.2670  0.6530 -0.6830
   19MOL0     C 2418  11.949   6.316  -1.950  0.3973 -0.5532 -0.9660
   19MOL0     C 2419  12.024   6.294  -1.825  0.5638 -0.6610  0.6997
   19MOL0    Cl 2420  12.191   6.344  -1.860 -0.0088  0.3931 -0.1227
   19MOL0     C 2421  11.299   6.471  -1.623 -1.1143  0.1756  1.4687
   19MOL0     C 2422  11.289   6.520  -1.491  0.9515 -0.4751 -0.4374
   19MOL0     O 2423  10.996   6.521  -1.338 -0.1471 -0.5216  0.2184
   19MOL0     C 2424  10.902   6.654  -1.105 -1.0783  0.6706 -0.2931
   19MOL0     C 2425  10.875   6.727  -0.987 -0.1172 -0.4247 -0.1974
   19MOL0     N 2426  11.098   6.553  -0.336  0.3318  0.9849 -0.6404
   19MOL0     N 2427  11.137   6.535  -0.211  0.9552 -0.4206  0.5853
   19MOL0     C 2428  11.048   6.177   0.818 -0.9237 -0.5080 -1.0618
   19MOL0     C 2429  11.037   6.254   0.932  1.1234 -0.0887  0.3800
   19MOL0     C 2430  10.907   6.371   1.343  0.0394  0.7892  0.1472
   19MOL0     C 2431  10.862   6.499   1.318  0.0001 -0.0053  0.6435
   19MOL0     C 2432  10.852   6.586   1.425 -0.2069  0.1206 -0.2909
   19MOL0     C 2433  10.895   6.542   1.553 -0.1950  0.3622 -0.0856
   19MOL0     O 2434  10.890   6.634   1.658 -0.6011 -1.0142  0.0788
   19MOL0     C 2435  10.813   6.753   1.653  0.2218  0.1708  0.0221
   19MOL0     C 2436  10.851   6.828   1.778  0.3723 -0.7183 -0.2015
   19MOL0     C 2437  10.849   6.755   1.917  0.0163 -0.1446  0.9964
   19MOL0     C 2438  10.749   6.642   1.927 -0.5854  0.4838 -0.4954
   19MOL0     C 2439  10.615   6.680   1.894 -0.2209 -1.0262  0.2243
   19MOL0     C 2440  10.499   6.706   1.858 -0.6502 -0.7594  0.0722
   19MOL0     C 2441  10.941   6.417   1.580 -0.5483  0.3845 -0.0288
   19MOL0     C 2442  10.928   6.327   1.479 -0.4209 -0.8050 -0.1816
   19MOL0     H 2443  10.713   6.174   1.011  1.5545  1.1390  1.0177
   19MOL0     H 2444  10.745   6.037   0.791  2.3122 -1.9029 -0.6937
   19MOL0     H 2445  11.120   5.942   0.676  1.4631 -2.3735 -3.0335
   19MOL0     H 2446  11.135   6.087   0.575  1.6500 -0.4780  1.4693
   19MOL0     H 2447  11.027   5.806   0.490  1.5877 -0.1973 -0.8560
   19MOL0     H 2448  11.179   5.890   0.447  1.4579  0.8970  1.2543
   19MOL0     H 2449  10.895   5.957   0.344  0.5304 -2.7553  2.0194
   19MOL0     H 2450  11.045   5.903   0.260 -0.2716 -1.9046  0.9046
   19MOL0     H 2451  11.014   6.182   0.390 -1.1812  1.7732 -1.4636
   19MOL0     H 2452  11.158   6.104   0.326  0.4635  0.0169 -1.8283
   19MOL0     H 2453  10.899   6.115   0.166  0.2051 -0.2345 -2.2313
   19MOL0     H 2454  11.078   6.109   0.108  0.9219  1.2027  0.9897
   19MOL0     H 2455  11.119   6.311   0.173  1.0896 -2.0740 -3.2459
   19MOL0     H 2456  10.961   6.341   0.238 -0.2548 -2.7207  1.5985
   19MOL0     H 2457  11.027   6.263  -0.032 -0.4660 -1.3909  1.3386
   19MOL0     H 2458  10.867   6.339  -0.006 -0.0075 -1.7087 -0.4802
   19MOL0     H 2459  11.123   6.491   0.023 -0.7717  0.9983  0.5645
   19MOL0     H 2460  10.956   6.549   0.052  1.5804  1.0403  1.1332
   19MOL0     H 2461  10.816   6.534  -0.172  1.2307  2.2919  1.9283
   19MOL0     H 2462  10.793   6.484  -0.435  2.4970 -2.1187 -1.9613
   19MOL0     H 2463  10.922   6.519  -0.546  0.1861 -0.9842 -0.6582
   19MOL0     H 2464  10.742   6.727  -0.430  1.2183 -0.6170  1.3450
   19MOL0     H 2465  10.751   6.682  -0.594  0.6708 -3.6473  0.3642
   19MOL0     H 2466  10.866   6.898  -0.535 -0.8148  0.0339 -3.5966
   19MOL0     H 2467  10.987   6.819  -0.442  0.0038 -0.3804  0.0150
   19MOL0     H 2468  11.040   6.666  -0.654  0.2061 -0.4298  2.0279
   19MOL0     H 2469  11.086   6.845  -0.642 -2.4369  2.4346  0.4451
   19MOL0     H 2470  11.173   6.729  -0.842 -0.0900 -1.7271  1.3932
   19MOL0     H 2471  11.236   6.587  -1.030 -0.1268 -1.0050 -2.6963
   19MOL0     H 2472  11.204   6.241  -1.321  1.0303  1.6955  1.3270
   19MOL0     H 2473  11.211   6.149  -1.560 -3.4232  0.5012  0.4069
   19MOL0     H 2474  11.207   6.476  -1.873 -4.0255  0.2415 -2.4569
   19MOL0     H 2475  11.128   6.319  -1.914  1.4686 -0.8206 -2.3489
   19MOL0     H 2476  11.296   6.403  -2.090 -1.8069 -0.4868  1.0677
   19MOL0     H 2477  11.322   6.239  -2.023 -0.2858  0.2007  1.8158
   19MOL0     H 2478  11.493   6.339  -1.867  0.4117 -0.9209 -1.5967
   19MOL0     H 2479  11.504   6.490  -1.934  3.8209 -0.7909  0.0685
   19MOL0     H 2480  11.580   6.255  -2.118 -0.9759  1.8788 -1.8916
   19MOL0     H 2481  11.552   6.422  -2.157  2.0795  1.2847 -0.8632
   19MOL0     H 2482  11.755   6.490  -2.032  1.1780 -0.6087  0.5589
   19MOL0     H 2483  11.787   6.363  -2.133  1.2636  2.0048 -0.0041
   19MOL0     H 2484  11.761   6.201  -1.923 -1.1693  0.9781  2.5970
   19MOL0     H 2485  11.770   6.355  -1.834  0.5541 -0.8729  0.4258
   19MOL0     H 2486  11.965   6.245  -2.032 -0.4892 -0.9668 -0.7935
   19MOL0     H 2487  11.990   6.415  -1.970  0.6370 -0.4043  0.2232
   19MOL0     H 2488  12.020   6.198  -1.773 -0.7449 -0.8605  0.2761
   19MOL0     H 2489  11.985   6.362  -1.748  1.6011 -0.8682  1.4146
   19MOL0     H 2490  11.335   6.528  -1.708  0.8176 -0.8511  1.5422
   19MOL0     H 2491  11.299   6.627  -1.480  0.8467 -0.3042 -1.8223
   19MOL0     H 2492  10.825   6.640  -1.180  0.4777 -0.2287 -1.8123
   19MOL0     H 2493  10.774   6.760  -0.965 -0.7373 -2.4988  0.3304
   19MOL0     H 2494  11.146   6.187   0.772  2.0961 -1.5519  4.3355
   19MOL0     H 2495  11.115   6.313   0.977  0.6328  1.8877 -1.2065
   19MOL0     H 2496  10.823   6.523   1.219  1.1870  0.3353  0.2439
   19MOL0     H 2497  10.797   6.676   1.400 -0.6110  0.2505  0.9899
   19MOL0     H 2498  10.708   6.725   1.638  0.4015  0.4910 -2.3212
   19MOL0     H 2499  10.847   6.820   1.573  2.9672  0.3144  1.1900
   19MOL0     H 2500  10.956   6.856   1.766  0.1626  0.6303  0.8317
   19MOL0     H 2501  10.793   6.921   1.778  2.8121  0.8888 -0.5290
   19MOL0     H 2502  10.828   6.833   1.991 -0.9718  1.0170 -0.4612
   19MOL0     H 2503  10.952   6.719   1.931  0.4601  1.4139  1.8910
   19MOL0     H 2504  10.783   6.565   1.857 -1.5765 -2.3161  1.9084
   19MOL0     H 2505  10.766   6.611   2.030  2.1286  2.5762 -0.1774
   19MOL0     H 2506  10.395   6.731   1.847  0.0131  2.9404  1.0679
   19MOL0     H 2507  10.971   6.394   1.682  0.0093  1.2530  0.0153
   19MOL0     H 2508  10.946   6.223   1.503  1.5120 -0.7152 -1.0482
   20MOL0     O 2509   6.517   3.230   3.722 -0.2732  0.6581 -0.4145
   20MOL0     C 2510   6.571   3.299   3.638  0.4163  0.1300 -0.0569
   20MOL0     O 2511   6.619   3.428   3.661 -0.6310  0.0862  0.2685
   20MOL0     C 2512   6.572   3.498   3.765 -0.0892  0.6633 -0.2894
   20MOL0     C 2513   6.661   3.583   3.826 -0.0298  0.0803  0.6250
   20MOL0     C 2514   6.638   3.641   3.952  0.5150  0.8099  0.2461
   20MOL0     C 2515   6.522   3.613   4.013  0.2440  0.4326  0.0839
   20MOL0     O 2516   6.497   3.687   4.119  0.1439 -0.2282  0.1712
   20MOL0     C 2517   6.365   3.682   4.185 -0.2021 -0.2164 -0.6011
   20MOL0     C 2518   6.391   3.771   4.304 -0.3598  0.1243  0.4284
   20MOL0     C 2519   6.497   3.712   4.394  0.6437  0.0014  0.6780
   20MOL0     C 2520   6.559   3.805   4.507  0.5493  0.5310  0.1899
   20MOL0     C 2521   6.702   3.805   4.526 -0.6326  0.5141 -0.7017
   20MOL0     C 2522   6.760   3.677   4.590 -0.0218 -0.0475  0.0968
   20MOL0     C 2523   6.729   3.652   4.739  0.1756  0.0021 -1.1000
   20MOL0     C 2524   6.822   3.551   4.805  0.2086  0.3772  0.1738
   20MOL0     N 2525   6.824   3.421   4.732  0.6912 -0.7988  0.5822
   20MOL0     C 2526   6.721   3.322   4.731 -0.7831  0.1269 -0.0491
   20MOL0     C 2527   6.758   3.231   4.639  0.5250  0.2330  0.3377
   20MOL0     C 2528   6.665   3.121   4.597 -0.1171  0.8021 -0.1071
   20MOL0     C 2529   6.668   3.017   4.698  0.1302 -0.7665 -0.1908
   20MOL0     C 2530   6.609   2.878   4.644 -0.4307  0.1344 -0.8228
   20MOL0     C 2531   6.487   2.825   4.718  0.2016 -0.6574  0.1281
   20MOL0     O 2532   6.360   2.886   4.690  0.4475 -0.0527  0.1921
   20MOL0     C 2533   6.262   2.866   4.793 -0.6965 -1.4644 -0.2763
   20MOL0     C 2534   6.263   2.948   4.906 -0.5498 -0.1343 -1.1396
   20MOL0     C 2535   6.159   2.939   5.003 -0.8761 -0.4584  0.1920
   20MOL0     C 2536   6.055   2.841   4.978  0.7842 -0.3367 -0.7984
   20MOL0     C 2537   5.947   2.804   5.079  0.0341 -0.3512 -0.1838
   20MOL0     O 2538   5.976   2.848   5.201 -0.1035 -0.2881 -0.0372
   20MOL0     C 2539   5.927   2.789   5.312  0.2710  0.3216  0.2858
   20MOL0     C 2540   5.954   2.860   5.430 -0.0073 -0.3501  1.1885
   20MOL0     C 2541   5.909   2.798   5.555 -0.2248 -0.6939  0.4464
   20MOL0     C 2542   5.846   2.671   5.566 -0.5040  0.4285  0.9529
   20MOL0     O 2543   5.822   2.609   5.686  0.2669  0.3537  0.1864
   20MOL0     C 2544   5.855   2.666   5.811 -0.7282 -0.9465  0.6627
   20MOL0     C 2545   5.811   2.577   5.923 -0.3309 -0.2234 -0.1170
   20MOL0     C 2546   5.872   2.601   6.057 -0.7596 -0.3094 -0.5435
   20MOL0     C 2547   5.798   2.514   6.162 -0.2724 -1.5408 -0.3941
   20MOL0     C 2548   5.811   2.362   6.133 -0.5142 -0.3470  0.5583
   20MOL0     C 2549   5.739   2.276   6.238  0.5161  0.5869  0.9111
   20MOL0     C 2550   5.777   2.128   6.225 -0.4274 -0.3766  0.3242
   20MOL0     C 2551   5.678   2.043   6.313  0.5302 -0.2593  0.1882
   20MOL0    Cl 2552   5.713   1.876   6.280  0.0782  0.7648  0.0551
   20MOL0     C 2553   5.815   2.607   5.450  0.4415 -0.1025  0.6520
   20MOL0     C 2554   5.860   2.665   5.328 -0.8357  1.3558  0.1825
   20MOL0     O 2555   5.843   2.756   5.044 -0.3581  0.2102  0.4652
   20MOL0     C 2556   6.059   2.762   4.866 -0.9705  0.4620 -0.3465
   20MOL0     C 2557   6.164   2.777   4.773  1.0944  0.5573  0.1161
   20MOL0     N 2558   6.882   3.275   4.589 -0.2284  0.3209  0.2038
   20MOL0     N 2559   6.920   3.390   4.645 -0.1915 -0.3073 -0.2068
   20MOL0     C 2560   6.430   3.529   3.956  0.6084 -0.9544  0.2518
   20MOL0     C 2561   6.454   3.471   3.831  0.6664  0.8602  0.1271
   20MOL0     C 2562   6.579   3.245   3.505  0.8006 -0.1397 -0.6374
   20MOL0     C 2563   6.627   3.113   3.503  0.2442  0.7615  0.3892
   20MOL0     C 2564   6.649   3.058   3.377 -0.1948  0.0034  0.4544
   20MOL0     C 2565   6.626   3.134   3.255 -0.6851  0.5778 -1.3104
   20MOL0     O 2566   6.649   3.085   3.132 -0.6737  1.3087 -0.5249
   20MOL0     C 2567   6.645   2.936   3.116 -0.7517  0.4157 -0.1399
   20MOL0     C 2568   6.788   2.894   3.070 -0.5049  0.2204 -0.2278
   20MOL0     C 2569   6.795   2.744   3.041  0.2013  0.9721  0.8379
   20MOL0     C 2570   6.938   2.700   2.999  1.0634  1.2998  0.4826
   20MOL0     C 2571   7.049   2.735   3.086 -0.3008 -1.3915 -0.1352
   20MOL0     C 2572   7.133   2.771   3.164  0.9937  0.0364  0.1025
   20MOL0     C 2573   6.584   3.269   3.274  0.3164  0.0251  0.0291
   20MOL0     C 2574   6.568   3.325   3.395  0.6840 -0.1533 -0.5841
   20MOL0     H 2575   6.752   3.597   3.769 -0.4373 -0.8645 -0.2899
   20MOL0     H 2576   6.714   3.703   3.998 -1.0500  5.3215 -2.5510
   20MOL0     H 2577   6.339   3.582   4.221 -0.6445 -0.6741 -2.1010
   20MOL0     H 2578   6.286   3.715   4.118  0.3093  1.4513 -0.4214
   20MOL0     H 2579   6.295   3.787   4.354 -1.7968  1.2724 -2.4733
   20MOL0     H 2580   6.431   3.871   4.285 -0.3899  0.1222  0.3516
   20MOL0     H 2581   6.580   3.679   4.331  0.4760  1.3864 -0.3158
   20MOL0     H 2582   6.455   3.624   4.444 -1.4946 -0.9499 -2.4579
   20MOL0     H 2583   6.529   3.908   4.485 -1.1988  0.0453  0.1528
   20MOL0     H 2584   6.521   3.791   4.608  0.2202 -0.8718 -0.1130
   20MOL0     H 2585   6.730   3.891   4.588 -0.6138 -0.3033  0.4672
   20MOL0     H 2586   6.750   3.818   4.429 -0.0215  3.0520 -0.1215
   20MOL0     H 2587   6.868   3.695   4.581  0.5086 -3.1195 -0.7787
   20MOL0     H 2588   6.725   3.589   4.536  3.5226 -1.6197  0.0936
   20MOL0     H 2589   6.735   3.739   4.805 -2.5236  0.0034 -0.7613
   20MOL0     H 2590   6.625   3.622   4.754  0.4059 -0.1981  0.3004
   20MOL0     H 2591   6.783   3.544   4.907 -3.8393  1.0908 -1.1709
   20MOL0     H 2592   6.920   3.599   4.800 -0.0087  0.8072  0.0301
   20MOL0     H 2593   6.627   3.323   4.785 -2.0021  3.1435 -1.9470
   20MOL0     H 2594   6.702   3.077   4.504  2.8223  0.9504  0.8850
   20MOL0     H 2595   6.566   3.167   4.590  0.6144  2.2829 -1.6079
   20MOL0     H 2596   6.605   3.042   4.783  1.6606 -0.8682  1.0133
   20MOL0     H 2597   6.773   2.997   4.723 -0.0991 -0.7790  0.7767
   20MOL0     H 2598   6.590   2.874   4.536 -0.0580 -0.5456 -0.8678
   20MOL0     H 2599   6.683   2.797   4.648 -0.9699 -0.3183  1.1543
   20MOL0     H 2600   6.496   2.834   4.827  1.9137 -0.6130  0.0193
   20MOL0     H 2601   6.478   2.719   4.691 -1.7431 -0.4121 -0.2811
   20MOL0     H 2602   6.341   3.021   4.925  0.4768 -1.1899 -1.1850
   20MOL0     H 2603   6.161   2.991   5.098 -0.9510 -0.6724  0.3100
   20MOL0     H 2604   6.018   2.948   5.423  2.0096 -1.7328  1.3773
   20MOL0     H 2605   5.930   2.859   5.642  0.7011 -0.2023 -0.1071
   20MOL0     H 2606   5.808   2.763   5.827  1.7054  0.5991 -0.8065
   20MOL0     H 2607   5.964   2.681   5.812 -0.7165 -1.0429  1.2626
   20MOL0     H 2608   5.843   2.475   5.899  0.3654 -0.7117  2.5572
   20MOL0     H 2609   5.702   2.576   5.916 -0.3638  1.6005 -0.3212
   20MOL0     H 2610   5.849   2.702   6.092  2.7347  0.6970 -0.7604
   20MOL0     H 2611   5.981   2.594   6.056 -0.5446  1.7980 -2.3615
   20MOL0     H 2612   5.849   2.533   6.257 -1.2607 -0.6285 -0.0289
   20MOL0     H 2613   5.692   2.536   6.170  0.2648  1.0076  0.5908
   20MOL0     H 2614   5.917   2.336   6.139 -0.9680 -2.3614  0.7032
   20MOL0     H 2615   5.764   2.334   6.038 -1.0766 -1.7489  1.2101
   20MOL0     H 2616   5.631   2.281   6.219  0.6320 -1.2160 -0.5707
   20MOL0     H 2617   5.758   2.319   6.337 -0.6572 -1.1017  1.9250
   20MOL0     H 2618   5.778   2.097   6.120  1.3772  2.1190 -0.4898
   20MOL0     H 2619   5.885   2.118   6.243  0.2194  4.0627  0.0369
   20MOL0     H 2620   5.574   2.062   6.284  0.5728  1.1449  0.8841
   20MOL0     H 2621   5.689   2.065   6.419 -0.2812  1.1021  0.0185
   20MOL0     H 2622   5.762   2.512   5.447 -0.4895  0.4119 -2.3413
   20MOL0     H 2623   5.833   2.605   5.241 -0.4109 -0.2583  1.1108
   20MOL0     H 2624   5.982   2.685   4.856 -2.0990  1.7149 -1.8379
   20MOL0     H 2625   6.166   2.720   4.681 -0.4601  1.7163 -0.6859
   20MOL0     H 2626   6.340   3.502   4.010  2.6683 -2.0653  3.3615
   20MOL0     H 2627   6.380   3.411   3.779  1.1547  0.3938 -0.0426
   20MOL0     H 2628   6.658   3.058   3.591  2.1383  0.4374 -0.4271
   20MOL0     H 2629   6.690   2.958   3.369 -2.7505 -1.0308 -1.1777
   20MOL0     H 2630   6.576   2.917   3.033 -1.7470 -0.4326  0.8476
   20MOL0     H 2631   6.609   2.875   3.200 -0.8085 -1.6314 -1.5809
   20MOL0     H 2632   6.805   2.950   2.977 -1.1868 -1.6015 -1.4951
   20MOL0     H 2633   6.857   2.926   3.149 -0.4662 -2.8040  1.0817
   20MOL0     H 2634   6.732   2.717   2.956  1.2867 -1.4925  0.7240
   20MOL0     H 2635   6.766   2.690   3.132 -2.2129  0.4209 -0.1737
   20MOL0     H 2636   6.938   2.593   2.975 -2.1181  1.1572  0.6913
   20MOL0     H 2637   6.957   2.759   2.909 -1.1073 -0.8789 -1.5658
   20MOL0     H 2638   7.226   2.776   3.217  1.5931  1.4225 -1.0093
   20MOL0     H 2639   6.571   3.332   3.186 -0.5463 -2.6152 -1.8490
   20MOL0     H 2640   6.544   3.428   3.418  1.0939 -0.9310  4.3820
   21MOL0     O 2641   0.493   3.771  10.244  0.6983 -0.1292  0.0238
   21MOL0     C 2642   0.402   3.709  10.186 -0.5126 -0.3945  0.4378
   21MOL0     O 2643   0.419   3.651  10.062  1.3778 -0.3365 -0.1151
   21MOL0     C 2644   0.541   3.680   9.988  0.9492  1.4216 -0.9549
   21MOL0     C 2645   0.645   3.579   9.964  0.3338  0.1622 -0.4787
   21MOL0     C 2646   0.758   3.605   9.883 -0.6639  1.2174  0.3785
   21MOL0     C 2647   0.772   3.725   9.822 -0.0485 -0.1472 -0.0181
   21MOL0     O 2648   0.891   3.749   9.763 -0.2717  0.7466  0.0572
   21MOL0     C 2649   0.897   3.849   9.657 -0.7562  0.2174  0.0933
   21MOL0     C 2650   1.045   3.863   9.596  0.8490  0.3810 -0.1009
   21MOL0     C 2651   1.124   3.745   9.549 -0.6221 -0.1931  0.7719
   21MOL0     C 2652   1.151   3.641   9.664  0.4803  0.2993  0.4298
   21MOL0     C 2653   1.238   3.516   9.623  0.7344 -0.1760 -0.4090
   21MOL0     C 2654   1.336   3.477   9.733  0.1135  0.0420 -0.7362
   21MOL0     C 2655   1.271   3.407   9.851 -0.0257  0.3399  0.2442
   21MOL0     C 2656   1.367   3.339   9.954 -0.0105 -0.7247  0.0814
   21MOL0     N 2657   1.358   3.388  10.085 -0.4894  0.4570 -0.7762
   21MOL0     C 2658   1.412   3.501  10.154  0.7297  0.2391  0.2347
   21MOL0     C 2659   1.335   3.507  10.269 -0.4714 -0.2394  0.0292
   21MOL0     C 2660   1.344   3.617  10.381 -0.0565  0.2621 -0.0486
   21MOL0     C 2661   1.459   3.580  10.487  0.9061  0.0234  0.1985
   21MOL0     C 2662   1.472   3.682  10.611  0.3951  0.8100 -0.1516
   21MOL0     C 2663   1.509   3.827  10.591  0.2786  0.0204 -0.1015
   21MOL0     O 2664   1.627   3.847  10.518  0.3696  0.2103 -0.4054
   21MOL0     C 2665   1.611   3.851  10.381  1.3503  0.1456 -0.3827
   21MOL0     C 2666   1.686   3.771  10.304 -0.3528  1.0239 -0.1236
   21MOL0     C 2667   1.673   3.772  10.172 -0.7457 -0.0440  0.4869
   21MOL0     C 2668   1.595   3.874  10.110 -0.9046 -0.3695 -0.6332
   21MOL0     C 2669   1.585   3.889   9.960 -0.3352 -1.2780  0.0502
   21MOL0     O 2670   1.602   3.772   9.901 -0.7535 -0.1903 -0.3474
   21MOL0     C 2671   1.596   3.762   9.763  0.2077 -0.7809  0.8339
   21MOL0     C 2672   1.686   3.693   9.677  0.0193 -0.4419 -0.2497
   21MOL0     C 2673   1.654   3.668   9.543 -0.3646 -0.4522  0.2720
   21MOL0     C 2674   1.550   3.739   9.475  0.9550 -0.0453  0.1028
   21MOL0     O 2675   1.536   3.726   9.342  0.9127  0.0460 -0.0401
   21MOL0     C 2676   1.466   3.612   9.297 -0.4828 -0.2135 -0.3440
   21MOL0     C 2677   1.461   3.600   9.139 -0.9655 -0.6072 -0.5334
   21MOL0     C 2678   1.589   3.554   9.088  0.2923 -0.5961 -0.4143
   21MOL0     C 2679   1.589   3.548   8.941  0.3328  0.6735 -0.3610
   21MOL0     C 2680   1.726   3.489   8.884  1.2746  0.1810 -0.3378
   21MOL0     C 2681   1.855   3.580   8.919  0.8971 -0.0517 -0.2572
   21MOL0     C 2682   1.982   3.506   8.882  0.1790  0.3708  2.1631
   21MOL0     C 2683   2.098   3.607   8.884 -0.2702 -0.1277 -0.0117
   21MOL0    Cl 2684   2.085   3.759   8.781  0.2344  0.2702 -0.2117
   21MOL0     C 2685   1.474   3.822   9.556  0.2812 -0.3931 -0.0517
   21MOL0     C 2686   1.485   3.834   9.694  1.6143  0.5069 -0.8738
   21MOL0     O 2687   1.559   4.002   9.913 -0.6140  0.5656  0.2817
   21MOL0     C 2688   1.527   3.971  10.192 -0.0034  0.5230 -1.4093
   21MOL0     C 2689   1.533   3.962  10.330 -0.0885 -0.3438  0.2990
   21MOL0     N 2690   1.256   3.398  10.274 -0.1699  0.2936 -0.1046
   21MOL0     N 2691   1.269   3.324  10.168  0.6670  1.1781  0.3921
   21MOL0     C 2692   0.677   3.824   9.846  0.2060 -0.5426 -1.2705
   21MOL0     C 2693   0.556   3.806   9.928  0.0818  0.1085  0.9962
   21MOL0     C 2694   0.296   3.673  10.260  0.4524 -0.5672 -0.6341
   21MOL0     C 2695   0.262   3.723  10.388 -0.2313 -0.0738 -0.2012
   21MOL0     C 2696   0.147   3.692  10.452 -0.1129 -0.1051 -0.0238
   21MOL0     C 2697   0.047   3.612  10.389  0.0612 -0.2235  0.6219
   21MOL0     O 2698  -0.077   3.564  10.434 -0.5519 -0.2716 -0.1933
   21MOL0     C 2699  -0.159   3.646  10.525  0.1077 -0.0148  0.3268
   21MOL0     C 2700  -0.194   3.560  10.652  0.7008  0.2244  0.0361
   21MOL0     C 2701  -0.074   3.516  10.738 -0.0815  0.0874 -0.1372
   21MOL0     C 2702   0.008   3.622  10.811  0.1036 -0.3761  0.1730
   21MOL0     C 2703   0.097   3.575  10.918 -0.1562  0.7814 -0.2405
   21MOL0     C 2704   0.152   3.522  11.007 -0.6076 -0.1723 -0.1835
   21MOL0     C 2705   0.086   3.555  10.269  0.9464  0.2665 -0.2901
   21MOL0     C 2706   0.215   3.573  10.211  0.6423 -0.2368 -0.1365
   21MOL0     H 2707   0.621   3.478   9.997 -1.1437  1.2015  1.9051
   21MOL0     H 2708   0.830   3.523   9.884 -1.7418  0.1643 -1.5428
   21MOL0     H 2709   0.867   3.949   9.690  0.1101 -0.1260  2.0711
   21MOL0     H 2710   0.825   3.827   9.577 -0.6880 -0.2970  0.1664
   21MOL0     H 2711   1.097   3.914   9.678  1.0943 -0.0759  0.0308
   21MOL0     H 2712   1.038   3.932   9.512 -2.0940  1.1687  0.6691
   21MOL0     H 2713   1.222   3.781   9.516 -0.3561 -0.2563  1.4733
   21MOL0     H 2714   1.074   3.702   9.462  1.2770  0.3352 -0.6498
   21MOL0     H 2715   1.178   3.701   9.751  0.9540 -0.0777  0.5482
   21MOL0     H 2716   1.055   3.593   9.683 -1.3203  1.5687 -4.1082
   21MOL0     H 2717   1.305   3.541   9.541  0.7025  1.8194  0.1290
   21MOL0     H 2718   1.176   3.430   9.598 -2.7260  0.6580  3.9847
   21MOL0     H 2719   1.385   3.564   9.779  0.8172 -1.4024  1.4070
   21MOL0     H 2720   1.413   3.417   9.685 -1.2542 -1.6534 -0.8926
   21MOL0     H 2721   1.195   3.469   9.899  1.0308  1.9888 -0.1375
   21MOL0     H 2722   1.214   3.322   9.811 -0.2289  0.1480  0.9308
   21MOL0     H 2723   1.469   3.345   9.916 -0.9347 -0.2482 -2.5448
   21MOL0     H 2724   1.346   3.232   9.952  2.6702 -1.3056 -0.4708
   21MOL0     H 2725   1.479   3.580  10.122 -0.7124  1.9128  1.1416
   21MOL0     H 2726   1.246   3.620  10.429 -0.0928  0.8253 -0.1531
   21MOL0     H 2727   1.361   3.717  10.342 -2.1360  1.9280  2.8944
   21MOL0     H 2728   1.547   3.581  10.422 -0.3313  1.3531 -1.5443
   21MOL0     H 2729   1.440   3.474  10.507  0.3364 -0.1748 -1.2590
   21MOL0     H 2730   1.376   3.684  10.662  0.9735  0.1674  1.0188
   21MOL0     H 2731   1.549   3.640  10.677 -0.2917 -1.3879 -0.6553
   21MOL0     H 2732   1.531   3.855  10.695  2.8200 -1.0570 -0.2801
   21MOL0     H 2733   1.429   3.891  10.553  2.0900  2.1272 -0.5836
   21MOL0     H 2734   1.753   3.706  10.359 -3.7358 -1.1737  1.7872
   21MOL0     H 2735   1.733   3.712  10.103 -4.4510 -1.5499 -1.7159
   21MOL0     H 2736   1.775   3.636   9.704  1.2087  1.2823 -0.3830
   21MOL0     H 2737   1.715   3.603   9.481  0.8487 -0.4531  1.4328
   21MOL0     H 2738   1.363   3.613   9.334  0.2891 -2.7516  2.2297
   21MOL0     H 2739   1.509   3.521   9.341 -0.2264 -1.6894 -3.3214
   21MOL0     H 2740   1.436   3.700   9.103  1.1063  0.6063  1.0960
   21MOL0     H 2741   1.385   3.527   9.110 -2.4147  0.8780 -0.6301
   21MOL0     H 2742   1.608   3.456   9.133  0.5741  1.4046  4.4901
   21MOL0     H 2743   1.666   3.621   9.126  0.5292 -1.7046  1.1611
   21MOL0     H 2744   1.498   3.499   8.905 -1.5999  4.1581 -0.7335
   21MOL0     H 2745   1.596   3.646   8.894 -4.2239  0.4526 -2.0694
   21MOL0     H 2746   1.719   3.466   8.778  3.1822  0.2648 -0.5113
   21MOL0     H 2747   1.732   3.400   8.947 -0.9629  0.5216  0.4632
   21MOL0     H 2748   1.858   3.602   9.026 -0.0514 -0.7046 -0.0888
   21MOL0     H 2749   1.855   3.670   8.857 -0.5286 -0.2476 -0.5607
   21MOL0     H 2750   1.989   3.418   8.947 -0.9441 -0.6459  0.9810
   21MOL0     H 2751   1.968   3.467   8.781 -0.0194  1.8021  1.6274
   21MOL0     H 2752   2.181   3.548   8.844  0.7709  0.0261  1.8368
   21MOL0     H 2753   2.113   3.639   8.987 -1.4130 -1.4026  0.5811
   21MOL0     H 2754   1.404   3.880   9.498 -0.5609 -1.5671 -0.2319
   21MOL0     H 2755   1.412   3.897   9.743  0.9065 -0.5490 -0.5497
   21MOL0     H 2756   1.461   4.045  10.147 -0.0335  0.9844 -0.6265
   21MOL0     H 2757   1.478   4.036  10.387 -2.1768 -1.3998 -0.2729
   21MOL0     H 2758   0.702   3.928   9.825 -1.3620  0.0149 -0.5753
   21MOL0     H 2759   0.483   3.886   9.937 -2.7544 -1.5321 -3.7506
   21MOL0     H 2760   0.325   3.791  10.445 -1.0930  0.8027 -0.2764
   21MOL0     H 2761   0.121   3.730  10.550  1.4231  3.5887 -0.8949
   21MOL0     H 2762  -0.248   3.667  10.466  1.4976  1.5100 -1.3504
   21MOL0     H 2763  -0.117   3.743  10.555 -1.0445  1.1523 -1.6395
   21MOL0     H 2764  -0.245   3.620  10.728 -0.1397 -0.3454 -0.0562
   21MOL0     H 2765  -0.246   3.469  10.619 -0.1831  1.3507 -1.8644
   21MOL0     H 2766  -0.005   3.468  10.669  0.9419  0.7496  0.3915
   21MOL0     H 2767  -0.100   3.435  10.807 -1.2256  0.1551 -0.4614
   21MOL0     H 2768   0.065   3.672  10.731 -1.3317  1.7924  0.4107
   21MOL0     H 2769  -0.051   3.703  10.856  1.4543  1.5628 -1.3225
   21MOL0     H 2770   0.227   3.476  11.069  0.3155 -1.1236 -1.9404
   21MOL0     H 2771   0.015   3.502  10.206  0.4506 -0.3008  0.7330
   21MOL0     H 2772   0.247   3.511  10.127  1.2725  0.7200 -0.6223
   22MOL0     O 2773  10.972  10.604   3.261 -0.6224  0.3703 -0.5715
   22MOL0     C 2774  10.869  10.541   3.266  0.2345  0.4784 -0.3873
   22MOL0     O 2775  10.751  10.585   3.218  0.8034  0.3966  0.6871
   22MOL0     C 2776  10.725  10.721   3.210 -0.1851 -0.5047  0.2166
   22MOL0     C 2777  10.697  10.781   3.088  0.4449 -0.5933  0.1884
   22MOL0     C 2778  10.692  10.920   3.087 -0.5877  1.2858  0.5332
   22MOL0     C 2779  10.723  11.002   3.199 -0.5468 -1.0995  0.5687
   22MOL0     O 2780  10.721  11.132   3.184 -0.1464 -0.2824  0.7075
   22MOL0     C 2781  10.833  11.218   3.240  0.2323  0.6474 -0.1564
   22MOL0     C 2782  10.803  11.278   3.373  0.1097  0.1581 -0.6214
   22MOL0     C 2783  10.847  11.428   3.380 -0.0125  0.0955  0.4398
   22MOL0     C 2784  10.843  11.470   3.525  0.4333 -0.2482 -0.4258
   22MOL0     C 2785  10.870  11.619   3.547  0.7183  0.6502  0.7939
   22MOL0     C 2786  10.823  11.658   3.685 -0.0707 -0.3106 -0.3289
   22MOL0     C 2787  10.892  11.788   3.735 -0.4970  0.2507  0.6505
   22MOL0     C 2788  10.914  11.897   3.632 -0.1015 -1.1028  0.4042
   22MOL0     N 2789  11.001  12.004   3.693  0.4764  0.6448 -0.2826
   22MOL0     C 2790  10.979  12.078   3.803 -0.2061  0.0664  0.5632
   22MOL0     C 2791  11.078  12.164   3.808 -0.1275  0.1914  0.5108
   22MOL0     C 2792  11.083  12.268   3.909  0.0181 -0.1057  0.6982
   22MOL0     C 2793  10.965  12.356   3.877  1.5766  0.1323  0.1709
   22MOL0     C 2794  10.962  12.500   3.938 -0.1120 -0.2050  0.0116
   22MOL0     C 2795  11.089  12.577   3.909 -0.5435  0.3211  0.6881
   22MOL0     O 2796  11.088  12.708   3.958  0.3047 -0.0085 -0.7423
   22MOL0     C 2797  11.207  12.783   3.945  0.6415 -0.0655  0.0213
   22MOL0     C 2798  11.207  12.904   4.003 -0.2159 -0.1520 -0.1270
   22MOL0     C 2799  11.322  12.989   3.987 -0.3103 -1.0832  0.8945
   22MOL0     C 2800  11.430  12.948   3.909 -0.5891 -0.6294 -0.5217
   22MOL0     C 2801  11.559  13.038   3.884  0.5325 -0.0958  0.2358
   22MOL0     O 2802  11.598  13.124   3.981  0.4251  0.5453  1.0168
   22MOL0     C 2803  11.698  13.210   3.943  0.1402 -0.0881  0.3100
   22MOL0     C 2804  11.806  13.227   4.027  0.3993 -0.1619  1.7685
   22MOL0     C 2805  11.905  13.330   3.994  0.2766 -0.1650  0.1218
   22MOL0     C 2806  11.873  13.425   3.892 -0.8788  0.0043  0.2262
   22MOL0     O 2807  11.949  13.533   3.860 -0.5072 -0.2104 -0.6378
   22MOL0     C 2808  12.004  13.596   3.980  0.4041  0.0217 -0.6003
   22MOL0     C 2809  12.098  13.717   3.946 -0.7509  0.5298  0.3600
   22MOL0     C 2810  12.230  13.663   3.887  0.5843 -0.0112  0.0408
   22MOL0     C 2811  12.335  13.781   3.870 -0.4096  0.7373 -0.7353
   22MOL0     C 2812  12.461  13.730   3.805 -0.7580 -0.5679  1.3772
   22MOL0     C 2813  12.554  13.851   3.759  0.0505  0.5016 -0.5064
   22MOL0     C 2814  12.674  13.790   3.682  0.0988  0.6067 -0.0805
   22MOL0     C 2815  12.781  13.895   3.640  0.1671  0.1804 -0.4985
   22MOL0    Cl 2816  12.691  14.022   3.535 -0.2870 -0.3607 -0.6196
   22MOL0     C 2817  11.765  13.408   3.810 -0.1751 -0.0656  0.1472
   22MOL0     C 2818  11.673  13.304   3.839 -0.3814 -0.0176 -0.6615
   22MOL0     O 2819  11.619  13.012   3.780 -0.0402 -0.7341 -0.0736
   22MOL0     C 2820  11.421  12.830   3.847 -0.0578 -0.2880 -0.3354
   22MOL0     C 2821  11.317  12.742   3.865  0.2055 -0.5899  0.4331
   22MOL0     N 2822  11.151  12.160   3.696 -0.7148  0.0611 -0.3040
   22MOL0     N 2823  11.118  12.056   3.632 -0.0645  0.1448  0.0941
   22MOL0     C 2824  10.728  10.944   3.320  1.0422 -0.8280  0.4466
   22MOL0     C 2825  10.742  10.804   3.324 -0.6322  0.4056 -0.4969
   22MOL0     C 2826  10.878  10.393   3.269 -1.0872 -0.5436  0.4307
   22MOL0     C 2827  11.000  10.334   3.243 -1.2966  0.8851 -0.2556
   22MOL0     C 2828  11.014  10.194   3.247 -0.9498  0.3813  0.5265
   22MOL0     C 2829  10.913  10.118   3.294  0.4966  0.2723  0.0634
   22MOL0     O 2830  10.940   9.987   3.310  0.9922  0.0896  0.1645
   22MOL0     C 2831  10.862   9.915   3.402  0.0655  0.0451  0.3114
   22MOL0     C 2832  10.915   9.764   3.432  0.3197  0.1138 -0.0513
   22MOL0     C 2833  10.821   9.693   3.536  0.0565  0.6316  0.1272
   22MOL0     C 2834  10.692   9.659   3.472 -1.0271  1.1622 -0.6223
   22MOL0     C 2835  10.626   9.550   3.555 -0.3628 -0.5082  0.1528
   22MOL0     C 2836  10.596   9.457   3.624 -0.3444  0.8027  0.6887
   22MOL0     C 2837  10.791  10.172   3.319  0.0396 -0.6028  0.2047
   22MOL0     C 2838  10.774  10.307   3.297  0.6871 -0.3636  0.1786
   22MOL0     H 2839  10.691  10.727   2.994 -2.8700 -2.1823  1.1416
   22MOL0     H 2840  10.667  10.958   2.988  3.0623 -0.1747 -1.1494
   22MOL0     H 2841  10.853  11.289   3.160 -1.0692 -0.9256 -1.9897
   22MOL0     H 2842  10.921  11.154   3.252 -0.4778 -0.2794  0.2455
   22MOL0     H 2843  10.841  11.220   3.457  0.7639  3.7700  1.8192
   22MOL0     H 2844  10.696  11.262   3.391  0.4295 -2.9738 -0.9147
   22MOL0     H 2845  10.766  11.483   3.334 -0.9974 -1.0718  0.7245
   22MOL0     H 2846  10.941  11.436   3.325 -0.3977 -1.9637 -0.5978
   22MOL0     H 2847  10.740  11.451   3.559  0.4646 -0.2603 -0.3349
   22MOL0     H 2848  10.916  11.415   3.585 -0.8261 -3.0339 -1.3024
   22MOL0     H 2849  10.818  11.672   3.467  1.1215 -0.2807 -0.1142
   22MOL0     H 2850  10.979  11.624   3.534  0.7898 -2.7877 -1.3990
   22MOL0     H 2851  10.857  11.590   3.764  3.7304  1.6820  0.0002
   22MOL0     H 2852  10.716  11.680   3.692  0.5816  3.0133  3.6760
   22MOL0     H 2853  10.830  11.838   3.810 -1.6716 -1.8866  1.1744
   22MOL0     H 2854  10.987  11.751   3.774  0.4555 -0.8453 -2.4420
   22MOL0     H 2855  10.823  11.941   3.591 -0.5472 -1.3600  1.1115
   22MOL0     H 2856  10.966  11.851   3.548  1.2404 -2.1912  1.7701
   22MOL0     H 2857  10.889  12.072   3.863 -3.0557  1.7225 -3.1601
   22MOL0     H 2858  11.175  12.324   3.889  1.4149 -2.4347  0.3397
   22MOL0     H 2859  11.070  12.233   4.012 -3.4589  2.0499  1.1791
   22MOL0     H 2860  10.878  12.304   3.918  1.1686 -0.9250 -1.9067
   22MOL0     H 2861  10.945  12.373   3.771  0.3883  0.3614  0.4250
   22MOL0     H 2862  10.880  12.553   3.889  1.0604  1.3628 -0.3334
   22MOL0     H 2863  10.950  12.501   4.047  1.9332 -2.9298  0.3692
   22MOL0     H 2864  11.098  12.584   3.800 -0.8842 -2.8121  0.3694
   22MOL0     H 2865  11.178  12.528   3.948 -1.0740  1.3457  3.3761
   22MOL0     H 2866  11.117  12.932   4.057  0.3636 -1.7559  1.8119
   22MOL0     H 2867  11.320  13.085   4.038  0.7021  0.0217 -1.0605
   22MOL0     H 2868  11.823  13.154   4.105  0.0903  1.6112  3.5862
   22MOL0     H 2869  11.987  13.332   4.065 -0.4272  1.5394  0.9470
   22MOL0     H 2870  12.061  13.526   4.042 -1.0671 -1.3043 -0.6739
   22MOL0     H 2871  11.934  13.639   4.052 -1.1619 -0.7456 -1.5896
   22MOL0     H 2872  12.125  13.770   4.037  1.6036 -0.3109  0.2053
   22MOL0     H 2873  12.037  13.779   3.879 -0.0553  0.2076 -0.5887
   22MOL0     H 2874  12.210  13.622   3.788 -0.2111 -1.0695  0.6183
   22MOL0     H 2875  12.277  13.586   3.949  4.8092  0.2868 -2.4656
   22MOL0     H 2876  12.280  13.862   3.822 -2.0393  0.6143  0.7860
   22MOL0     H 2877  12.365  13.829   3.964  0.9168  0.9356 -1.2433
   22MOL0     H 2878  12.427  13.678   3.715  1.8621 -1.7663  0.9958
   22MOL0     H 2879  12.516  13.668   3.875  0.7656 -2.5986 -1.4163
   22MOL0     H 2880  12.588  13.914   3.842  1.4953 -0.8647 -0.0175
   22MOL0     H 2881  12.485  13.917   3.705 -3.5272  0.1052  3.0450
   22MOL0     H 2882  12.724  13.721   3.751 -2.7691 -0.0539  1.4654
   22MOL0     H 2883  12.641  13.738   3.592  1.0029 -0.5469  0.2293
   22MOL0     H 2884  12.861  13.844   3.586 -1.4553 -3.5102  0.2953
   22MOL0     H 2885  12.827  13.942   3.728  0.7788 -1.1590 -0.0823
   22MOL0     H 2886  11.753  13.484   3.734  2.0563  0.3058  0.0986
   22MOL0     H 2887  11.590  13.293   3.770 -2.3981  1.7632  1.3586
   22MOL0     H 2888  11.507  12.807   3.785  0.7003 -0.3451  0.7192
   22MOL0     H 2889  11.328  12.646   3.815  3.1526 -0.8115  1.3070
   22MOL0     H 2890  10.743  11.015   3.401 -1.5047  1.7479 -1.1635
   22MOL0     H 2891  10.768  10.762   3.420  0.2382 -2.6674 -1.9430
   22MOL0     H 2892  11.087  10.396   3.223 -1.6056  1.1829 -0.7071
   22MOL0     H 2893  11.107  10.138   3.241 -2.6157 -2.5502  0.5495
   22MOL0     H 2894  10.759   9.913   3.364 -0.1111  5.5806 -0.2249
   22MOL0     H 2895  10.867   9.977   3.492 -1.9599 -2.7484  2.5391
   22MOL0     H 2896  10.922   9.707   3.339 -0.7554  0.5054 -0.3787
   22MOL0     H 2897  11.019   9.782   3.464  0.3084  1.1065 -0.5371
   22MOL0     H 2898  10.806   9.750   3.628 -4.1374  0.3020 -0.1268
   22MOL0     H 2899  10.874   9.604   3.570 -2.8726  0.1098  3.9370
   22MOL0     H 2900  10.625   9.745   3.458 -0.0488  2.6543  2.7886
   22MOL0     H 2901  10.710   9.630   3.368 -0.6073  2.4406 -0.9228
   22MOL0     H 2902  10.590   9.374   3.691 -2.5757  0.3217 -0.0386
   22MOL0     H 2903  10.707  10.109   3.347  0.4918 -0.5325  1.8602
   22MOL0     H 2904  10.673  10.348   3.298  0.5424 -0.5723 -1.8528
   23MOL0     O 2905   4.821  10.936   2.275 -0.2185 -0.6092  0.3118
   23MOL0     C 2906   4.844  10.821   2.323  0.3164  0.5407 -0.5201
   23MOL0     O 2907   4.872  10.704   2.250 -0.9700 -0.8421 -0.0856
   23MOL0     C 2908   4.863  10.702   2.111  1.2494 -0.0780 -0.4551
   23MOL0     C 2909   4.962  10.742   2.017 -0.1443 -1.1824  0.4219
   23MOL0     C 2910   4.943  10.733   1.876 -0.8022  0.4594  0.5847
   23MOL0     C 2911   4.831  10.676   1.825 -1.0564  0.0229 -0.3745
   23MOL0     O 2912   4.804  10.672   1.689  0.5496 -0.5607 -1.1196
   23MOL0     C 2913   4.917  10.671   1.604 -0.6712  0.2154  0.1727
   23MOL0     C 2914   4.915  10.564   1.496 -0.5089  0.8276 -0.3155
   23MOL0     C 2915   4.878  10.626   1.354 -0.2007  0.0454  0.2507
   23MOL0     C 2916   4.837  10.536   1.248 -0.8219  0.1589 -0.6870
   23MOL0     C 2917   4.943  10.426   1.220 -0.2324  0.0391 -0.6263
   23MOL0     C 2918   5.084  10.476   1.178  0.2733  0.7172 -0.0827
   23MOL0     C 2919   5.181  10.372   1.127 -0.8133  0.5644 -0.6297
   23MOL0     C 2920   5.196  10.255   1.221 -1.2074  0.2334 -0.8159
   23MOL0     N 2921   5.284  10.150   1.182 -0.1268  0.2920 -0.0587
   23MOL0     C 2922   5.273  10.067   1.076 -0.0070 -0.1879  0.3567
   23MOL0     C 2923   5.383   9.991   1.082 -0.5620  0.2187  1.0834
   23MOL0     C 2924   5.441   9.902   0.969  0.2657 -0.0489 -0.3730
   23MOL0     C 2925   5.592   9.917   0.941 -0.6775 -0.6359  0.2803
   23MOL0     C 2926   5.601  10.006   0.812  0.3908  0.2906  0.0963
   23MOL0     C 2927   5.736  10.060   0.783  0.4560  0.0304 -0.3626
   23MOL0     O 2928   5.833   9.953   0.780  0.8792 -0.2339  0.3268
   23MOL0     C 2929   5.959   9.993   0.814  0.0058  0.4994  0.4968
   23MOL0     C 2930   6.026   9.903   0.898  0.6792 -0.4617  0.7584
   23MOL0     C 2931   6.156   9.939   0.930 -0.6491 -0.8232 -0.4686
   23MOL0     C 2932   6.226  10.048   0.896 -0.7318 -0.6699  0.0425
   23MOL0     C 2933   6.362  10.079   0.937  0.0172  0.0082  0.4034
   23MOL0     O 2934   6.389  10.213   0.932 -0.2997 -1.2346  0.1462
   23MOL0     C 2935   6.517  10.252   0.948 -0.1901  0.2853  1.1954
   23MOL0     C 2936   6.624  10.200   0.877  0.0548  0.0432  0.5554
   23MOL0     C 2937   6.746  10.257   0.889  0.2335 -0.1894  1.5460
   23MOL0     C 2938   6.769  10.366   0.985 -0.2283  0.2185  0.2662
   23MOL0     O 2939   6.888  10.432   0.994  0.7914 -0.4660  0.3684
   23MOL0     C 2940   6.964  10.372   1.095  0.9233  0.6419  0.0302
   23MOL0     C 2941   7.104  10.445   1.088  0.2321  0.8873 -0.0563
   23MOL0     C 2942   7.191  10.409   1.210  1.1192 -0.8459  0.2203
   23MOL0     C 2943   7.191  10.263   1.246 -0.6358  0.4388 -0.5079
   23MOL0     C 2944   7.272  10.234   1.372 -0.6262  0.5935  0.4274
   23MOL0     C 2945   7.249  10.093   1.431 -1.0036  0.1072 -0.4081
   23MOL0     C 2946   7.338  10.083   1.552 -0.2896 -1.1246 -0.6742
   23MOL0     C 2947   7.288   9.966   1.638 -0.8165 -0.7486  0.0968
   23MOL0    Cl 2948   7.342   9.806   1.572 -0.1229  0.1842  0.1661
   23MOL0     C 2949   6.662  10.422   1.058 -0.2290 -0.2207  0.6703
   23MOL0     C 2950   6.537  10.360   1.036 -0.1605 -0.4628 -0.5282
   23MOL0     O 2951   6.425   9.990   0.995  0.8134  0.7649  0.5575
   23MOL0     C 2952   6.149  10.144   0.825  0.2135  1.0558  0.4416
   23MOL0     C 2953   6.020  10.114   0.775  1.0422 -0.6229  1.0213
   23MOL0     N 2954   5.457  10.028   1.194  1.2379  0.6219 -0.4694
   23MOL0     N 2955   5.398  10.126   1.262 -0.0600 -0.5657 -0.3859
   23MOL0     C 2956   4.731  10.636   1.913  0.3302  0.9692 -0.6641
   23MOL0     C 2957   4.751  10.643   2.052  0.0162  0.4231  0.5876
   23MOL0     C 2958   4.869  10.810   2.471 -0.2970  0.1235  0.0197
   23MOL0     C 2959   4.948  10.709   2.523 -0.4929  0.4514  0.4001
   23MOL0     C 2960   5.001  10.721   2.651  1.3329  0.5057  0.2746
   23MOL0     C 2961   4.974  10.830   2.735 -0.1722  0.3658  0.1089
   23MOL0     O 2962   5.021  10.825   2.866  0.7389 -0.7672  0.7304
   23MOL0     C 2963   4.987  10.931   2.960 -0.5559 -0.5489  0.1524
   23MOL0     C 2964   5.031  10.889   3.106  0.3027  0.5410  0.4241
   23MOL0     C 2965   5.181  10.880   3.126 -1.1785  0.1174 -0.1099
   23MOL0     C 2966   5.210  10.817   3.265  0.0038  0.3119 -0.2585
   23MOL0     C 2967   5.357  10.815   3.277 -0.0445  0.2036 -0.3232
   23MOL0     C 2968   5.478  10.805   3.296  0.2651  0.2968  0.0351
   23MOL0     C 2969   4.898  10.934   2.679  0.0037  0.3093 -0.5176
   23MOL0     C 2970   4.843  10.928   2.550  0.2431  0.0472 -0.4812
   23MOL0     H 2971   5.057  10.789   2.044  1.6736 -4.0661 -0.4746
   23MOL0     H 2972   5.027  10.782   1.830 -1.6366  1.6064  0.2376
   23MOL0     H 2973   5.014  10.674   1.655 -1.3951  3.9232  1.6815
   23MOL0     H 2974   4.914  10.772   1.562  2.0567 -0.2341 -1.3627
   23MOL0     H 2975   4.847  10.482   1.520 -1.1714  1.1420 -1.0797
   23MOL0     H 2976   5.017  10.528   1.478 -0.3255  0.6750  0.8945
   23MOL0     H 2977   4.960  10.682   1.309  1.1482 -1.6690  0.4665
   23MOL0     H 2978   4.787  10.687   1.363 -0.4607 -0.0929 -1.1840
   23MOL0     H 2979   4.738  10.499   1.277 -1.0740  1.7469  0.5807
   23MOL0     H 2980   4.826  10.599   1.160  1.8911  1.2110 -0.3384
   23MOL0     H 2981   4.897  10.368   1.139 -0.0648 -1.8501  0.5643
   23MOL0     H 2982   4.952  10.363   1.309 -2.3629  1.3322  0.5893
   23MOL0     H 2983   5.129  10.534   1.259 -1.7395  1.9432  0.2201
   23MOL0     H 2984   5.079  10.539   1.089 -0.0158 -2.4507 -2.4849
   23MOL0     H 2985   5.154  10.342   1.025 -0.2565 -1.6409 -0.1657
   23MOL0     H 2986   5.274  10.428   1.110 -1.5819  2.5658  1.3003
   23MOL0     H 2987   5.094  10.220   1.236 -0.8790 -0.0931  1.0008
   23MOL0     H 2988   5.231  10.289   1.319  4.6406 -1.0544 -2.0750
   23MOL0     H 2989   5.207  10.080   0.990  0.9980  0.8159 -0.2813
   23MOL0     H 2990   5.378   9.898   0.880  0.6460  0.1140 -0.6503
   23MOL0     H 2991   5.454   9.800   1.009  3.5372 -0.8238 -2.9651
   23MOL0     H 2992   5.646   9.822   0.931  3.8066  1.8341 -2.1020
   23MOL0     H 2993   5.653   9.977   1.008  2.4909  1.0597 -3.7059
   23MOL0     H 2994   5.565   9.940   0.732  1.8380  2.5379 -2.5923
   23MOL0     H 2995   5.526  10.083   0.830 -2.1562 -1.4643 -2.2047
   23MOL0     H 2996   5.763  10.138   0.855  0.5896  2.4373 -2.8451
   23MOL0     H 2997   5.729  10.128   0.697 -0.5695  2.2531  1.3708
   23MOL0     H 2998   5.985   9.807   0.928 -1.9167 -1.1336 -3.9882
   23MOL0     H 2999   6.193   9.871   1.006 -3.0578 -0.1878  1.3955
   23MOL0     H 3000   6.605  10.112   0.817 -1.0070 -1.3201  2.7509
   23MOL0     H 3001   6.827  10.217   0.828  0.5922  0.8625  1.3090
   23MOL0     H 3002   6.984  10.267   1.073 -0.3932 -0.9905  5.2083
   23MOL0     H 3003   6.924  10.390   1.195 -1.2911 -2.2111 -0.2307
   23MOL0     H 3004   7.083  10.552   1.072  0.2714  0.9255  0.1485
   23MOL0     H 3005   7.154  10.415   0.996 -1.5078 -0.5444 -0.6099
   23MOL0     H 3006   7.141  10.450   1.298 -0.8407  2.7326 -2.3134
   23MOL0     H 3007   7.290  10.453   1.201  0.7329 -0.4636 -3.3667
   23MOL0     H 3008   7.086  10.239   1.269 -0.4728  2.8140  3.5592
   23MOL0     H 3009   7.221  10.200   1.161  0.1431 -1.3886  1.0556
   23MOL0     H 3010   7.255  10.312   1.446 -3.8721  0.3819  0.0510
   23MOL0     H 3011   7.376  10.241   1.340 -0.8370 -2.1549 -1.1796
   23MOL0     H 3012   7.277  10.015   1.360  2.4018  2.8772 -2.4748
   23MOL0     H 3013   7.143  10.090   1.455 -2.1263  1.2133 -4.3682
   23MOL0     H 3014   7.440  10.057   1.522  0.6101 -1.1260  2.0484
   23MOL0     H 3015   7.332  10.172   1.616 -0.8755 -1.5831 -0.0710
   23MOL0     H 3016   7.180   9.951   1.641 -0.6464 -1.9525  1.3414
   23MOL0     H 3017   7.337   9.978   1.735 -1.1461 -0.7045  0.2571
   23MOL0     H 3018   6.676  10.510   1.120  2.9190 -0.6989  0.7747
   23MOL0     H 3019   6.456  10.408   1.090 -0.9078 -0.9258 -1.2210
   23MOL0     H 3020   6.186  10.241   0.792  2.2685  0.3424  0.4781
   23MOL0     H 3021   5.978  10.178   0.699  0.9505 -0.4975  1.1792
   23MOL0     H 3022   4.632  10.599   1.888  0.0862  1.1417  0.0234
   23MOL0     H 3023   4.677  10.602   2.119  1.5650  0.5133  2.4448
   23MOL0     H 3024   4.971  10.618   2.468  3.4424  0.2435  2.0497
   23MOL0     H 3025   5.063  10.638   2.684 -1.8295 -1.9388  0.4991
   23MOL0     H 3026   4.878  10.944   2.962 -0.4666  0.4379  2.8067
   23MOL0     H 3027   5.039  11.021   2.927  0.4333 -0.9168  0.6806
   23MOL0     H 3028   4.991  10.957   3.181  0.0484  0.3488  0.4656
   23MOL0     H 3029   4.990  10.790   3.130  2.3752  0.3004  3.5413
   23MOL0     H 3030   5.220  10.982   3.121 -0.5657 -0.1648 -3.0128
   23MOL0     H 3031   5.231  10.814   3.054 -1.6002 -3.0683  2.3195
   23MOL0     H 3032   5.151  10.873   3.339 -2.3828  1.3159 -2.7582
   23MOL0     H 3033   5.163  10.719   3.279  0.6566  0.0179 -0.1044
   23MOL0     H 3034   5.578  10.798   3.334  0.7323 -0.6789 -1.3055
   23MOL0     H 3035   4.874  11.029   2.726  0.6349  0.3858 -0.3370
   23MOL0     H 3036   4.799  11.019   2.510  1.7000  0.5402 -1.0074
   24MOL0     O 3037   6.074   1.053   7.408 -0.3049  0.8809 -0.4042
   24MOL0     C 3038   6.099   0.970   7.492  0.4730  0.0261 -0.6501
   24MOL0     O 3039   6.108   0.829   7.471 -0.1780  0.1030 -0.3705
   24MOL0     C 3040   6.095   0.798   7.336  0.2462  0.4629 -0.5304
   24MOL0     C 3041   6.174   0.833   7.226  0.3911 -0.8807 -0.2334
   24MOL0     C 3042   6.147   0.786   7.094 -1.1181  1.0119  0.0263
   24MOL0     C 3043   6.044   0.703   7.067  0.3404  0.2510 -0.1661
   24MOL0     O 3044   6.008   0.643   6.945  0.6791  0.0543 -0.0144
   24MOL0     C 3045   6.035   0.717   6.829 -0.3298  0.1610 -0.0559
   24MOL0     C 3046   6.100   0.636   6.727  0.1935  0.0301  0.4503
   24MOL0     C 3047   6.153   0.727   6.614 -0.3225  0.3309 -0.5075
   24MOL0     C 3048   6.032   0.793   6.535 -0.5510  0.1607 -0.6225
   24MOL0     C 3049   6.093   0.903   6.456 -0.9034  0.3671  0.2767
   24MOL0     C 3050   5.987   0.985   6.386  0.4980 -1.1256  0.4227
   24MOL0     C 3051   5.909   0.907   6.283  0.8753  0.3656 -0.7896
   24MOL0     C 3052   5.812   0.998   6.199  0.0827 -0.0680  0.4010
   24MOL0     N 3053   5.735   0.906   6.111  0.0101  0.7567 -0.5440
   24MOL0     C 3054   5.796   0.824   6.013  0.0041  0.8065 -0.1196
   24MOL0     C 3055   5.697   0.786   5.931  0.0086 -0.9832  0.9861
   24MOL0     C 3056   5.735   0.701   5.811 -0.2687  0.4148 -0.2024
   24MOL0     C 3057   5.840   0.601   5.848  0.6669 -0.6502 -1.1064
   24MOL0     C 3058   5.847   0.483   5.753  1.2411 -0.5684 -0.9670
   24MOL0     C 3059   5.917   0.519   5.614  1.0095  0.1594  0.2723
   24MOL0     O 3060   6.060   0.549   5.620  0.1061  0.5236  0.8624
   24MOL0     C 3061   6.130   0.472   5.537  0.3983 -0.2208  0.6125
   24MOL0     C 3062   6.173   0.342   5.575 -0.9408 -0.0569  0.2952
   24MOL0     C 3063   6.254   0.265   5.486  0.2798 -1.4885  0.7099
   24MOL0     C 3064   6.291   0.323   5.357  1.0723  0.5072  0.3375
   24MOL0     C 3065   6.383   0.256   5.264 -0.3728 -0.6327 -0.4156
   24MOL0     O 3066   6.416   0.324   5.149  0.1500  1.9881 -0.0368
   24MOL0     C 3067   6.505   0.260   5.063 -0.6699  0.1504 -1.4310
   24MOL0     C 3068   6.475   0.277   4.929 -0.0816 -0.2542 -1.4180
   24MOL0     C 3069   6.550   0.226   4.825 -0.6886 -0.2171  0.1893
   24MOL0     C 3070   6.663   0.151   4.856  0.6202 -0.0518  0.3712
   24MOL0     O 3071   6.743   0.138   4.748 -0.1293 -0.4869  0.1933
   24MOL0     C 3072   6.867   0.055   4.757 -0.5470  0.1473 -0.7080
   24MOL0     C 3073   6.919   0.002   4.627 -0.3698 -0.2899 -0.2564
   24MOL0     C 3074   7.048  -0.084   4.638  0.2000 -0.1182 -0.6018
   24MOL0     C 3075   7.154  -0.058   4.533 -0.2501  0.7582  0.4128
   24MOL0     C 3076   7.265  -0.168   4.552  1.0522  0.6034 -0.6152
   24MOL0     C 3077   7.405  -0.138   4.489 -0.3194  0.0821 -0.5727
   24MOL0     C 3078   7.395  -0.137   4.332 -0.7355 -0.0273  0.3954
   24MOL0     C 3079   7.535  -0.130   4.280  0.3374 -0.4156 -1.0643
   24MOL0    Cl 3080   7.599   0.029   4.325  0.2157  0.2199 -0.1799
   24MOL0     C 3081   6.703   0.130   4.991  0.3353  0.0625  0.2797
   24MOL0     C 3082   6.627   0.187   5.088 -0.0127 -0.1140 -1.4635
   24MOL0     O 3083   6.426   0.141   5.296  0.8712 -0.2341 -1.0806
   24MOL0     C 3084   6.230   0.442   5.318  0.5411  0.4622  0.5662
   24MOL0     C 3085   6.151   0.515   5.408 -0.2304  0.7199  0.5693
   24MOL0     N 3086   5.579   0.851   5.970 -0.1424 -0.5808  0.3642
   24MOL0     N 3087   5.610   0.927   6.072 -0.3576  0.6540  0.7194
   24MOL0     C 3088   5.948   0.677   7.169 -0.1979 -1.0231  0.3331
   24MOL0     C 3089   5.968   0.727   7.307  0.5142 -0.4492 -0.1853
   24MOL0     C 3090   6.143   1.010   7.621 -1.1897 -0.1227  0.4646
   24MOL0     C 3091   6.189   0.924   7.723 -0.2742  0.4530 -0.7754
   24MOL0     C 3092   6.234   0.977   7.848  0.5013  0.1137 -0.3033
   24MOL0     C 3093   6.221   1.109   7.877 -0.1687 -0.5512 -0.9706
   24MOL0     O 3094   6.241   1.165   8.003  0.4200  0.9919 -0.8436
   24MOL0     C 3095   6.236   1.089   8.128 -0.5005  0.3616  0.0195
   24MOL0     C 3096   6.373   1.042   8.187 -0.2269  0.1439 -0.3479
   24MOL0     C 3097   6.353   0.966   8.320  0.0263  0.0415  0.2941
   24MOL0     C 3098   6.481   0.881   8.337  1.0151  0.2106 -0.1275
   24MOL0     C 3099   6.475   0.813   8.473  0.0149  0.1418  0.6045
   24MOL0     C 3100   6.453   0.762   8.580  0.6496  0.3928  0.3364
   24MOL0     C 3101   6.177   1.197   7.774 -1.1609  0.3752  0.6713
   24MOL0     C 3102   6.139   1.147   7.650  0.0769  0.1893 -0.5206
   24MOL0     H 3103   6.262   0.891   7.251 -0.4728 -0.1827  1.3750
   24MOL0     H 3104   6.222   0.813   7.021 -0.3902 -4.6535 -1.8365
   24MOL0     H 3105   6.087   0.813   6.839  1.1803 -0.8236  2.7056
   24MOL0     H 3106   5.936   0.736   6.785  0.4235  0.2694 -1.7807
   24MOL0     H 3107   6.038   0.561   6.677 -2.2469  1.8199  0.6339
   24MOL0     H 3108   6.194   0.592   6.763 -0.0074 -2.6808 -1.9222
   24MOL0     H 3109   6.214   0.667   6.545  0.3596  0.4471 -0.0135
   24MOL0     H 3110   6.215   0.804   6.660  3.3509 -2.5228 -0.1847
   24MOL0     H 3111   5.975   0.719   6.478 -0.7223 -0.4100  0.2702
   24MOL0     H 3112   5.960   0.844   6.600  1.2537  1.2476  0.6061
   24MOL0     H 3113   6.158   0.853   6.384  1.9095 -0.0405  2.9352
   24MOL0     H 3114   6.172   0.958   6.507  0.5208 -1.1578 -0.2253
   24MOL0     H 3115   6.026   1.070   6.328  3.1849 -1.5546  1.4533
   24MOL0     H 3116   5.920   1.037   6.455  0.8855  2.5959 -1.7164
   24MOL0     H 3117   5.960   0.844   6.209  1.1677 -1.8592  1.1790
   24MOL0     H 3118   5.854   0.835   6.344  1.5799 -0.6177 -1.2788
   24MOL0     H 3119   5.874   1.067   6.142 -1.9451  0.3742 -1.4113
   24MOL0     H 3120   5.735   1.054   6.252 -1.3050  0.7441 -2.2710
   24MOL0     H 3121   5.895   0.780   6.012  1.2854  3.4479  1.1380
   24MOL0     H 3122   5.760   0.762   5.724  0.1170  3.4528  1.9086
   24MOL0     H 3123   5.650   0.641   5.774  0.3373  0.0368 -1.0173
   24MOL0     H 3124   5.838   0.576   5.954  1.1642 -2.7319 -1.5442
   24MOL0     H 3125   5.940   0.645   5.846  0.8272 -1.0414 -1.8735
   24MOL0     H 3126   5.904   0.403   5.802  0.2897  0.0124  1.2007
   24MOL0     H 3127   5.746   0.445   5.734  0.0096  1.2040  1.5585
   24MOL0     H 3128   5.864   0.605   5.570  1.5039 -0.4818 -1.6839
   24MOL0     H 3129   5.890   0.428   5.559 -2.1535 -1.8347  4.5541
   24MOL0     H 3130   6.147   0.309   5.675  1.0925  2.7049  1.8652
   24MOL0     H 3131   6.273   0.161   5.513 -3.5375 -2.6779 -0.5072
   24MOL0     H 3132   6.388   0.343   4.928 -1.2386 -1.5756  1.3445
   24MOL0     H 3133   6.523   0.256   4.725 -3.0626  1.0519  1.1504
   24MOL0     H 3134   6.836  -0.030   4.818  1.9854 -0.4501 -0.1407
   24MOL0     H 3135   6.954   0.104   4.801  0.2446 -0.5079 -1.4961
   24MOL0     H 3136   6.944   0.097   4.579 -0.8203  0.3214  0.6778
   24MOL0     H 3137   6.848  -0.056   4.568  0.2854 -1.3949  0.0223
   24MOL0     H 3138   7.029  -0.191   4.647  1.3749 -0.2602  0.6457
   24MOL0     H 3139   7.097  -0.065   4.734 -1.9043  0.4747  0.4242
   24MOL0     H 3140   7.128  -0.069   4.428  7.3344 -0.8311 -1.9003
   24MOL0     H 3141   7.188   0.044   4.550 -1.1640  1.3277 -1.0416
   24MOL0     H 3142   7.223  -0.263   4.518 -1.4363  1.4613 -0.1692
   24MOL0     H 3143   7.274  -0.167   4.661  0.8585 -1.3208 -0.5585
   24MOL0     H 3144   7.483  -0.206   4.524 -1.3247 -0.4528  0.7006
   24MOL0     H 3145   7.432  -0.043   4.538  0.5100 -0.0544 -0.7420
   24MOL0     H 3146   7.349  -0.227   4.291  0.6474  0.2483 -1.9340
   24MOL0     H 3147   7.333  -0.053   4.300 -2.5361 -1.8033 -1.0327
   24MOL0     H 3148   7.526  -0.143   4.172 -1.8820  1.2961 -1.1619
   24MOL0     H 3149   7.612  -0.200   4.312  2.2261  1.8105 -0.5287
   24MOL0     H 3150   6.793   0.072   5.008  3.7821  3.6850 -3.5001
   24MOL0     H 3151   6.658   0.156   5.188  0.6661  4.0349 -0.1833
   24MOL0     H 3152   6.254   0.495   5.226 -2.5660 -0.4387 -0.9032
   24MOL0     H 3153   6.111   0.616   5.405 -1.3861  0.2718  0.5764
   24MOL0     H 3154   5.865   0.614   7.138  1.3001 -2.3353 -1.2106
   24MOL0     H 3155   5.901   0.711   7.391  0.8355 -0.0194  0.1592
   24MOL0     H 3156   6.176   0.819   7.696 -0.7350  0.4336 -0.4836
   24MOL0     H 3157   6.251   0.905   7.927  0.4542 -0.3606 -0.7212
   24MOL0     H 3158   6.177   0.998   8.118  1.2026 -0.7411 -0.4905
   24MOL0     H 3159   6.186   1.155   8.199  4.2521  1.6735  2.5497
   24MOL0     H 3160   6.408   0.965   8.118 -0.8181  0.9121 -1.5595
   24MOL0     H 3161   6.439   1.128   8.200 -2.4003  2.2167 -2.1015
   24MOL0     H 3162   6.274   0.893   8.307  2.4206 -2.5149 -1.1100
   24MOL0     H 3163   6.334   1.039   8.399 -0.5524 -1.0572  1.1867
   24MOL0     H 3164   6.491   0.815   8.250  0.4736 -1.0834  0.7515
   24MOL0     H 3165   6.573   0.940   8.334  1.0180  0.2060 -0.1388
   24MOL0     H 3166   6.457   0.709   8.673  0.0203 -0.6586 -0.2201
   24MOL0     H 3167   6.183   1.303   7.795  1.7707  0.4138  0.1036
   24MOL0     H 3168   6.115   1.225   7.578 -0.2889 -0.0182 -0.6245
   25MOL0     O 3169   5.598   0.496   7.317  0.1598  0.3187 -0.3304
   25MOL0     C 3170   5.483   0.464   7.290  0.3934 -0.6303 -0.2350
   25MOL0     O 3171   5.396   0.403   7.383  0.8300 -0.5460 -0.0843
   25MOL0     C 3172   5.430   0.365   7.503 -1.3332 -0.4107 -0.5929
   25MOL0     C 3173   5.333   0.291   7.566  0.8780 -0.6349 -0.2081
   25MOL0     C 3174   5.351   0.242   7.695  0.4155  0.3706  0.4493
   25MOL0     C 3175   5.474   0.252   7.760  0.3901 -0.8070 -0.9194
   25MOL0     O 3176   5.488   0.189   7.881  0.4078  0.1695  0.4276
   25MOL0     C 3177   5.494   0.273   8.002 -0.1297 -0.7480 -0.0370
   25MOL0     C 3178   5.469   0.186   8.127 -1.0574  0.9764 -0.9868
   25MOL0     C 3179   5.341   0.085   8.111 -0.0361  0.2065  0.1407
   25MOL0     C 3180   5.209   0.162   8.081 -0.5986  0.0353 -0.0372
   25MOL0     C 3181   5.090   0.077   8.070  0.1575  0.8739 -0.0254
   25MOL0     C 3182   4.958   0.154   8.031 -0.2528 -0.0899 -0.2438
   25MOL0     C 3183   4.822   0.079   8.025 -0.8765  0.2891  0.2290
   25MOL0     C 3184   4.702   0.163   8.044 -1.0174 -0.3823 -0.7696
   25MOL0     N 3185   4.701   0.227   8.180  1.1402  0.4505  0.5840
   25MOL0     C 3186   4.624   0.176   8.279 -0.9266 -0.0855  0.2283
   25MOL0     C 3187   4.628   0.265   8.382 -0.4918  0.0792 -0.4068
   25MOL0     C 3188   4.569   0.266   8.522 -0.8177  1.4079 -0.8023
   25MOL0     C 3189   4.648   0.160   8.608 -1.4390  0.4574  0.6601
   25MOL0     C 3190   4.605   0.149   8.759  0.5677  1.1319  0.1868
   25MOL0     C 3191   4.673   0.034   8.827 -0.6910  0.0725  0.0487
   25MOL0     O 3192   4.813   0.062   8.849 -0.2436  0.8065  0.2593
   25MOL0     C 3193   4.877  -0.038   8.918 -0.8287  0.3896  0.1036
   25MOL0     C 3194   4.826  -0.114   9.017 -0.4471  0.8484  0.4484
   25MOL0     C 3195   4.909  -0.212   9.078  0.4086 -0.6831  0.6972
   25MOL0     C 3196   5.044  -0.227   9.034 -0.1932  0.0884 -1.0241
   25MOL0     C 3197   5.146  -0.321   9.104  0.1782  0.5651  0.0637
   25MOL0     O 3198   5.092  -0.408   9.188  1.2286 -0.1807  0.3097
   25MOL0     C 3199   5.153  -0.435   9.304 -0.7440 -1.2468 -0.1341
   25MOL0     C 3200   5.214  -0.561   9.333  0.1344  0.0008  0.3621
   25MOL0     C 3201   5.269  -0.573   9.460  0.5419  0.4585  0.2503
   25MOL0     C 3202   5.283  -0.481   9.566 -0.2716 -0.7490 -0.3187
   25MOL0     O 3203   5.335  -0.497   9.687 -0.3365 -0.6025 -0.2198
   25MOL0     C 3204   5.451  -0.576   9.716  0.0366 -0.3767 -0.7154
   25MOL0     C 3205   5.452  -0.620   9.863  1.2282 -0.5730  0.3035
   25MOL0     C 3206   5.591  -0.647   9.918  0.8100  0.4617  0.5515
   25MOL0     C 3207   5.569  -0.700  10.058  0.6203 -0.6210 -0.5377
   25MOL0     C 3208   5.700  -0.703  10.137 -0.7994 -1.0753  0.8003
   25MOL0     C 3209   5.706  -0.776  10.261 -0.6503  0.4135 -0.5417
   25MOL0     C 3210   5.846  -0.741  10.332  0.5770  0.3072 -0.4850
   25MOL0     C 3211   5.868  -0.605  10.396  0.2782 -1.1718  0.7080
   25MOL0    Cl 3212   5.745  -0.568  10.510  0.5625 -0.2715 -0.1370
   25MOL0     C 3213   5.210  -0.358   9.535  0.0927  0.0573  0.7793
   25MOL0     C 3214   5.150  -0.334   9.404 -0.3040  0.1251  0.8055
   25MOL0     O 3215   5.267  -0.310   9.084 -0.0924 -0.0332 -0.2884
   25MOL0     C 3216   5.092  -0.143   8.940  0.0680 -0.3553  0.6884
   25MOL0     C 3217   5.009  -0.053   8.880  0.1855 -0.2243 -0.5028
   25MOL0     N 3218   4.699   0.379   8.335 -0.8977 -0.2935  0.1997
   25MOL0     N 3219   4.735   0.353   8.216  0.1787  0.4802  0.2937
   25MOL0     C 3220   5.577   0.322   7.709  0.1535 -0.8782  0.0539
   25MOL0     C 3221   5.558   0.379   7.577  0.6641 -0.1401  0.3610
   25MOL0     C 3222   5.441   0.455   7.145 -0.2135 -1.0216  1.0641
   25MOL0     C 3223   5.313   0.458   7.106  0.1627 -0.1177 -0.8722
   25MOL0     C 3224   5.260   0.457   6.979  0.3179  0.1920 -0.5744
   25MOL0     C 3225   5.354   0.440   6.877  0.4388  0.4688  0.1448
   25MOL0     O 3226   5.315   0.433   6.743  0.6189 -0.2920  0.2364
   25MOL0     C 3227   5.185   0.465   6.699  1.0426 -0.3449  0.0686
   25MOL0     C 3228   5.171   0.435   6.546  0.7136 -0.3421 -0.6897
   25MOL0     C 3229   5.026   0.459   6.499  0.4999 -0.2762  0.3685
   25MOL0     C 3230   5.008   0.610   6.498  0.4765  0.9052  0.6138
   25MOL0     C 3231   4.890   0.656   6.436  0.6892  0.6282 -0.2429
   25MOL0     C 3232   4.809   0.717   6.367 -0.2777  0.1831  0.8310
   25MOL0     C 3233   5.494   0.433   6.907  1.0453  0.0080  0.4188
   25MOL0     C 3234   5.534   0.443   7.039  0.1483  0.5661 -1.0198
   25MOL0     H 3235   5.236   0.288   7.518  1.7364  1.6420 -2.3008
   25MOL0     H 3236   5.277   0.171   7.732  3.1359 -4.1509 -1.8736
   25MOL0     H 3237   5.410   0.342   8.001 -1.4597 -2.3155 -0.2754
   25MOL0     H 3238   5.591   0.321   8.017 -0.7077 -0.0351  1.6405
   25MOL0     H 3239   5.454   0.250   8.214 -0.6018  0.5319 -0.5694
   25MOL0     H 3240   5.557   0.132   8.162 -2.6354 -1.7094 -0.8335
   25MOL0     H 3241   5.327   0.026   8.202  0.2410 -0.5099 -0.2716
   25MOL0     H 3242   5.365   0.005   8.040  1.4579  0.3634  0.4399
   25MOL0     H 3243   5.196   0.235   8.161 -0.6014 -0.0831  0.0697
   25MOL0     H 3244   5.216   0.214   7.984 -1.0457 -3.1357 -1.9076
   25MOL0     H 3245   5.079   0.015   8.160  3.2106  0.4914  0.2013
   25MOL0     H 3246   5.103   0.002   7.991 -1.1612 -3.5095  3.5095
   25MOL0     H 3247   4.981   0.207   7.938  0.4937  2.1144  1.0997
   25MOL0     H 3248   4.944   0.238   8.100  2.2860  2.1632 -2.2112
   25MOL0     H 3249   4.809   0.034   7.926  1.9988  0.5789 -0.3651
   25MOL0     H 3250   4.840   0.004   8.102  3.1924 -0.7274 -1.4687
   25MOL0     H 3251   4.617   0.098   8.022 -1.5051  0.1032 -0.3419
   25MOL0     H 3252   4.705   0.246   7.973  0.2991  0.3009  0.0544
   25MOL0     H 3253   4.595   0.071   8.284  2.5179 -1.1142  1.0145
   25MOL0     H 3254   4.470   0.221   8.513  0.0063 -1.4201  2.3626
   25MOL0     H 3255   4.585   0.365   8.564  0.9048  0.5396  0.7131
   25MOL0     H 3256   4.754   0.185   8.611 -1.2921 -0.1970  0.9864
   25MOL0     H 3257   4.648   0.060   8.565  3.5365 -0.1054  1.4517
   25MOL0     H 3258   4.633   0.236   8.818 -1.8894  0.8518  1.9117
   25MOL0     H 3259   4.499   0.122   8.763  1.5020 -3.0909  1.8129
   25MOL0     H 3260   4.672  -0.056   8.765 -1.0553 -1.1588  1.7565
   25MOL0     H 3261   4.622   0.012   8.921 -2.2268 -0.3297 -0.8290
   25MOL0     H 3262   4.729  -0.109   9.064 -0.1374  1.0486  1.0841
   25MOL0     H 3263   4.862  -0.282   9.146 -2.4395  0.5495  0.1337
   25MOL0     H 3264   5.234  -0.648   9.271  1.4283 -1.2925  2.4285
   25MOL0     H 3265   5.330  -0.660   9.482 -0.2459 -0.0315  0.5268
   25MOL0     H 3266   5.541  -0.518   9.693  0.6192  0.7477  3.6159
   25MOL0     H 3267   5.442  -0.659   9.644 -2.2910 -0.0130 -0.9293
   25MOL0     H 3268   5.395  -0.713   9.874 -2.7393  1.7583  1.6313
   25MOL0     H 3269   5.405  -0.545   9.927 -0.1201 -1.0977 -0.0394
   25MOL0     H 3270   5.651  -0.556   9.919  1.3958  0.0802  1.5956
   25MOL0     H 3271   5.650  -0.715   9.855 -0.0213  1.3359 -1.2565
   25MOL0     H 3272   5.501  -0.632  10.110 -0.4875 -0.7158 -1.7999
   25MOL0     H 3273   5.517  -0.796  10.060 -2.7747  1.0692 -0.8256
   25MOL0     H 3274   5.731  -0.598  10.138  0.8605 -1.4838 -0.8533
   25MOL0     H 3275   5.776  -0.747  10.071 -0.1622  0.5081  0.4106
   25MOL0     H 3276   5.720  -0.883  10.244  2.4554  0.8191 -1.1040
   25MOL0     H 3277   5.619  -0.755  10.324  0.1298  1.0963  0.3200
   25MOL0     H 3278   5.844  -0.816  10.412  1.7454 -0.6608 -1.3327
   25MOL0     H 3279   5.932  -0.765  10.269 -0.2416  2.3331 -2.4769
   25MOL0     H 3280   5.875  -0.550  10.301  0.4126 -3.7043 -0.8582
   25MOL0     H 3281   5.962  -0.590  10.449 -0.1470  1.6972  0.7925
   25MOL0     H 3282   5.203  -0.270   9.599 -2.6396  1.2211 -0.9032
   25MOL0     H 3283   5.098  -0.239   9.393 -1.7980 -0.9096 -1.8929
   25MOL0     H 3284   5.191  -0.150   8.896 -0.7857  1.8129 -1.8747
   25MOL0     H 3285   5.047   0.019   8.809  0.3689  2.8466  2.4891
   25MOL0     H 3286   5.669   0.331   7.766  1.3631 -0.9636 -1.8072
   25MOL0     H 3287   5.634   0.441   7.532  0.9663 -0.8271 -0.0858
   25MOL0     H 3288   5.241   0.482   7.184  1.1729 -1.8545  0.6879
   25MOL0     H 3289   5.152   0.447   6.969  0.4420  0.3756 -2.4490
   25MOL0     H 3290   5.167   0.567   6.734  0.0803 -1.3103  2.6102
   25MOL0     H 3291   5.109   0.407   6.752 -1.0352 -2.8927 -5.0628
   25MOL0     H 3292   5.244   0.495   6.491  2.8093 -1.6458  0.5437
   25MOL0     H 3293   5.209   0.336   6.516 -2.6864 -1.7437 -0.8294
   25MOL0     H 3294   4.956   0.403   6.562  1.0851  0.0719  1.3471
   25MOL0     H 3295   5.015   0.438   6.393  0.3045  4.7602 -0.8603
   25MOL0     H 3296   5.006   0.650   6.600 -0.7553  2.4171  0.0302
   25MOL0     H 3297   5.088   0.652   6.435 -0.3912  0.5901 -0.7389
   25MOL0     H 3298   4.731   0.768   6.314 -0.6010  0.1793  1.3044
   25MOL0     H 3299   5.569   0.425   6.828  2.4491 -0.8251  1.7678
   25MOL0     H 3300   5.639   0.428   7.062 -0.1623 -1.6925 -0.8878
   26MOL0     O 3301   0.774  11.365   1.560  0.4339  0.1896 -0.0277
   26MOL0     C 3302   0.661  11.306   1.561  0.8611 -2.0221 -0.3864
   26MOL0     O 3303   0.642  11.165   1.548 -0.2882  0.2671 -0.0759
   26MOL0     C 3304   0.747  11.086   1.535 -0.2833  0.8566 -0.1299
   26MOL0     C 3305   0.755  10.989   1.433  0.3915  0.2583  0.6285
   26MOL0     C 3306   0.843  10.883   1.430  0.0387  0.4706 -0.2676
   26MOL0     C 3307   0.938  10.878   1.533  0.1842  0.4140  0.0103
   26MOL0     O 3308   1.032  10.783   1.562  0.1031 -0.5801 -0.0309
   26MOL0     C 3309   1.061  10.696   1.454  0.1787 -1.1657 -0.0387
   26MOL0     C 3310   1.196  10.633   1.469 -0.0229  0.5607 -0.0084
   26MOL0     C 3311   1.210  10.488   1.396  0.1929 -0.3378 -0.2996
   26MOL0     C 3312   1.304  10.488   1.273 -0.3275 -0.2264 -1.4798
   26MOL0     C 3313   1.303  10.351   1.199  0.1972  0.5806 -0.6171
   26MOL0     C 3314   1.419  10.276   1.259  0.2093  1.0756  0.0795
   26MOL0     C 3315   1.449  10.141   1.193  0.1781 -0.4566  0.2330
   26MOL0     C 3316   1.383  10.030   1.270  0.3852  0.8579  0.5959
   26MOL0     N 3317   1.247   9.979   1.249  0.5143 -0.4976 -0.4515
   26MOL0     C 3318   1.178   9.989   1.128 -0.1071  0.8019 -0.2015
   26MOL0     C 3319   1.052   9.976   1.169  0.0673 -0.0908 -0.5256
   26MOL0     C 3320   0.927   9.982   1.084  0.3777 -0.0837 -0.8071
   26MOL0     C 3321   0.842  10.114   1.095 -0.2330 -0.3510 -1.0484
   26MOL0     C 3322   0.927  10.247   1.118  0.2408 -0.2158  0.2497
   26MOL0     C 3323   0.855  10.371   1.063  0.1110 -0.1415 -1.1626
   26MOL0     O 3324   0.948  10.477   1.075  0.3456 -1.1603  0.8146
   26MOL0     C 3325   0.900  10.612   1.067 -0.5408  0.7469 -0.1881
   26MOL0     C 3326   0.759  10.644   1.063 -0.0039 -0.0989 -0.0013
   26MOL0     C 3327   0.719  10.778   1.063  0.7043  0.5895  0.0757
   26MOL0     C 3328   0.811  10.877   1.081 -0.6054 -0.6853  0.3354
   26MOL0     C 3329   0.782  11.025   1.069  0.5680  0.0866  0.6406
   26MOL0     O 3330   0.647  11.048   1.073  0.4747  0.3184  0.0090
   26MOL0     C 3331   0.610  11.180   1.089  0.3253 -0.1219  1.4127
   26MOL0     C 3332   0.528  11.229   0.986 -0.0076  0.5764  0.6066
   26MOL0     C 3333   0.502  11.368   0.990 -0.0214  0.7588  0.2270
   26MOL0     C 3334   0.536  11.452   1.094  1.4710 -0.8497 -0.3009
   26MOL0     O 3335   0.518  11.584   1.078 -0.0940 -0.4145  0.4924
   26MOL0     C 3336   0.502  11.675   1.192 -0.3477  0.5642 -0.5459
   26MOL0     C 3337   0.397  11.779   1.179  0.7885 -0.1962  0.2996
   26MOL0     C 3338   0.251  11.720   1.162  0.6932  0.5171  0.1109
   26MOL0     C 3339   0.140  11.812   1.135 -0.0251  0.5439  0.7573
   26MOL0     C 3340   0.141  11.887   1.000 -0.6204  0.5445  0.2906
   26MOL0     C 3341   0.114  11.795   0.883 -0.3345 -1.1036 -0.2432
   26MOL0     C 3342   0.080  11.865   0.752 -0.0877 -0.3578 -0.2167
   26MOL0     C 3343   0.060  11.772   0.633 -0.4991  0.3058  0.7674
   26MOL0    Cl 3344  -0.034  11.865   0.520  0.4323 -0.2699  0.5425
   26MOL0     C 3345   0.617  11.394   1.199  0.8271  0.2455 -0.5727
   26MOL0     C 3346   0.652  11.258   1.195 -0.6873  0.7015 -0.6217
   26MOL0     O 3347   0.864  11.112   1.076 -0.2096 -0.3972  0.1352
   26MOL0     C 3348   0.947  10.845   1.100  0.4207 -0.5927  0.5882
   26MOL0     C 3349   0.990  10.714   1.087  0.5262  0.3534 -0.9577
   26MOL0     N 3350   1.041   9.977   1.303  0.1845  0.2450 -0.4513
   26MOL0     N 3351   1.158   9.960   1.354 -0.3089 -0.6015  0.6068
   26MOL0     C 3352   0.926  10.964   1.639  0.2339 -0.8639 -0.1547
   26MOL0     C 3353   0.827  11.065   1.652 -0.0493  0.2279 -0.3763
   26MOL0     C 3354   0.537  11.389   1.575 -0.2295 -1.0254 -0.3761
   26MOL0     C 3355   0.411  11.325   1.590 -0.8997 -0.5125  0.2426
   26MOL0     C 3356   0.292  11.404   1.586 -0.0933 -0.0136 -0.1054
   26MOL0     C 3357   0.296  11.542   1.579  0.2222  0.2982  0.1473
   26MOL0     O 3358   0.195  11.630   1.590  0.4208 -0.0105  0.2628
   26MOL0     C 3359   0.068  11.574   1.620  0.0633 -0.4348  0.4254
   26MOL0     C 3360  -0.040  11.687   1.617 -0.2713 -0.6517  1.3014
   26MOL0     C 3361  -0.010  11.771   1.491  0.0066  0.0086  1.5554
   26MOL0     C 3362  -0.128  11.872   1.452 -0.0727 -0.0620 -0.6187
   26MOL0     C 3363  -0.265  11.819   1.456  0.6921  0.6108 -0.7872
   26MOL0     C 3364  -0.382  11.788   1.449 -0.0735  0.1081 -0.0185
   26MOL0     C 3365   0.421  11.598   1.560 -0.2138  0.2135 -0.4200
   26MOL0     C 3366   0.538  11.527   1.550  0.0215  0.2216 -0.2781
   26MOL0     H 3367   0.679  11.013   1.360 -0.0923  2.7582  1.8571
   26MOL0     H 3368   0.839  10.804   1.356  0.1306 -0.5202  0.7637
   26MOL0     H 3369   1.041  10.738   1.355 -1.3700 -1.0303  0.3215
   26MOL0     H 3370   0.983  10.620   1.467 -0.9274 -0.0862 -0.2357
   26MOL0     H 3371   1.201  10.599   1.573  0.7685 -1.3496 -0.6231
   26MOL0     H 3372   1.286  10.694   1.457  0.8909 -0.3160  2.0978
   26MOL0     H 3373   1.110  10.454   1.366 -1.2502 -2.6196  5.6656
   26MOL0     H 3374   1.241  10.410   1.465 -1.9133 -1.9740 -1.0745
   26MOL0     H 3375   1.260  10.564   1.208 -0.9499  0.2851 -0.4951
   26MOL0     H 3376   1.400  10.533   1.298 -0.4466 -1.0724  0.7457
   26MOL0     H 3377   1.317  10.375   1.093 -0.2496  0.2029 -0.7665
   26MOL0     H 3378   1.203  10.307   1.208 -0.4024  1.5943 -1.9891
   26MOL0     H 3379   1.400  10.262   1.366 -2.5569 -0.1532 -0.4863
   26MOL0     H 3380   1.509  10.336   1.245 -0.1542  1.7947  0.7697
   26MOL0     H 3381   1.424  10.147   1.087 -0.0790  3.0364  0.3664
   26MOL0     H 3382   1.557  10.135   1.207  0.5518 -2.6399 -2.7957
   26MOL0     H 3383   1.387  10.045   1.378  0.0668  2.5845  0.4096
   26MOL0     H 3384   1.447   9.944   1.248 -1.2322 -0.3769  0.5209
   26MOL0     H 3385   1.213  10.012   1.028  0.3026  1.7936  0.1577
   26MOL0     H 3386   0.857   9.901   1.107  0.5882 -1.5441 -4.5395
   26MOL0     H 3387   0.963   9.968   0.981 -1.7056  2.5359 -2.0215
   26MOL0     H 3388   0.798  10.097   1.193 -1.5615 -2.5454 -1.9439
   26MOL0     H 3389   0.770  10.123   1.013  2.0697 -0.2140 -3.1814
   26MOL0     H 3390   0.960  10.254   1.222  2.2829  0.4001 -0.3895
   26MOL0     H 3391   1.020  10.234   1.061  0.9884  0.5552  1.2474
   26MOL0     H 3392   0.766  10.397   1.122 -0.4814 -0.6166 -1.8219
   26MOL0     H 3393   0.825  10.370   0.958 -1.0709  3.2841 -0.9907
   26MOL0     H 3394   0.683  10.566   1.057  0.3004 -0.4685  0.8023
   26MOL0     H 3395   0.613  10.797   1.046 -0.4968 -3.9706  1.0397
   26MOL0     H 3396   0.491  11.168   0.904  4.6923 -1.6720 -0.1759
   26MOL0     H 3397   0.444  11.416   0.912 -3.1954 -2.6818  0.2073
   26MOL0     H 3398   0.599  11.727   1.193  1.3951 -2.3325 -2.5014
   26MOL0     H 3399   0.485  11.627   1.289  0.5627  1.1399 -0.0830
   26MOL0     H 3400   0.429  11.837   1.091 -1.0108 -2.4042 -1.9634
   26MOL0     H 3401   0.390  11.852   1.260  1.0407 -0.3893  0.4927
   26MOL0     H 3402   0.225  11.659   1.249  1.3358  1.6431  1.1086
   26MOL0     H 3403   0.235  11.649   1.079 -4.2179  2.0761 -0.6419
   26MOL0     H 3404   0.042  11.763   1.137 -0.6169  1.5479 -1.4150
   26MOL0     H 3405   0.134  11.896   1.205 -4.1753  2.0601 -1.0768
   26MOL0     H 3406   0.236  11.939   0.989 -0.1738  0.4432  2.9278
   26MOL0     H 3407   0.058  11.958   1.004 -0.9558  0.1786 -0.1011
   26MOL0     H 3408   0.023  11.744   0.916 -0.4778 -2.0613 -2.0014
   26MOL0     H 3409   0.196  11.723   0.879  2.2679  1.7165 -2.2977
   26MOL0     H 3410  -0.013  11.922   0.762  0.6099  1.1768 -1.9856
   26MOL0     H 3411   0.151  11.946   0.735  1.5934 -1.9922 -1.4484
   26MOL0     H 3412   0.004  11.680   0.654  1.7943 -1.0119  1.4761
   26MOL0     H 3413   0.154  11.751   0.581 -1.2403  0.3177 -0.6286
   26MOL0     H 3414   0.655  11.469   1.268 -0.5726  4.1431 -3.6221
   26MOL0     H 3415   0.714  11.221   1.276 -0.8389  1.0030 -0.3649
   26MOL0     H 3416   1.031  10.912   1.116 -1.9683  2.4974  1.2404
   26MOL0     H 3417   1.089  10.698   1.129  0.2609  1.9380  0.3828
   26MOL0     H 3418   1.000  10.968   1.719  0.8058  0.3388 -0.7082
   26MOL0     H 3419   0.818  11.124   1.742 -2.2826 -2.6503  1.4779
   26MOL0     H 3420   0.409  11.217   1.596  3.6643 -0.8539 -0.9208
   26MOL0     H 3421   0.196  11.355   1.600 -0.2499  1.0320  3.7054
   26MOL0     H 3422   0.059  11.538   1.723  0.0745 -2.6670 -0.3111
   26MOL0     H 3423   0.043  11.499   1.545 -2.6917  0.2659  0.5147
   26MOL0     H 3424  -0.143  11.649   1.609 -0.8555  0.9544  0.8442
   26MOL0     H 3425  -0.045  11.754   1.703 -0.8093  3.6471 -1.7592
   26MOL0     H 3426   0.006  11.707   1.405 -1.6789  1.1014  0.3506
   26MOL0     H 3427   0.073  11.840   1.507  0.5204  0.2734 -1.5912
   26MOL0     H 3428  -0.118  11.959   1.517 -3.0800 -0.8248  1.0510
   26MOL0     H 3429  -0.121  11.913   1.351 -1.4305  1.1263 -0.2603
   26MOL0     H 3430  -0.485  11.763   1.434 -0.4116  0.3663  1.6861
   26MOL0     H 3431   0.435  11.706   1.558 -2.5813  0.6120 -3.6925
   26MOL0     H 3432   0.633  11.577   1.529 -0.5788  0.5600 -2.4987
   27MOL0     O 3433  10.076   2.146  10.897  0.0215 -0.3590 -0.1850
   27MOL0     C 3434  10.035   2.097  11.007 -1.1005 -0.6184  0.1907
   27MOL0     O 3435   9.986   2.177  11.109 -0.1699 -0.3315 -0.2401
   27MOL0     C 3436   9.996   2.312  11.087 -1.1436 -1.9167  0.2975
   27MOL0     C 3437   9.935   2.386  10.989  0.3333  0.5461 -0.0732
   27MOL0     C 3438   9.937   2.526  10.986 -0.3615  0.3188 -0.2807
   27MOL0     C 3439  10.003   2.600  11.085 -0.7678 -0.6848  0.2104
   27MOL0     O 3440  10.009   2.740  11.082 -0.7030 -0.1476  0.3246
   27MOL0     C 3441   9.914   2.815  11.010 -0.4558  0.1437 -0.1897
   27MOL0     C 3442   9.769   2.806  11.057 -0.4785  0.6641  0.1956
   27MOL0     C 3443   9.764   2.852  11.202  0.5146 -0.1250 -0.2819
   27MOL0     C 3444   9.767   3.001  11.218  0.3448 -0.0717 -0.2544
   27MOL0     C 3445   9.690   3.036  11.355 -0.6512  0.7484  0.1082
   27MOL0     C 3446   9.666   3.186  11.407  0.9158  0.1711  0.7173
   27MOL0     C 3447   9.783   3.276  11.364  0.3042  1.2232 -0.2129
   27MOL0     C 3448   9.759   3.352  11.230  0.0597  0.4086  0.1794
   27MOL0     N 3449   9.893   3.400  11.187  0.1809  0.1227 -0.3887
   27MOL0     C 3450   9.994   3.453  11.272  0.4209 -0.3546 -0.7411
   27MOL0     C 3451  10.095   3.466  11.180  0.1988 -0.2554 -0.2812
   27MOL0     C 3452  10.232   3.520  11.202  0.2075 -0.3716  0.6315
   27MOL0     C 3453  10.250   3.653  11.271  0.7013 -0.5069 -0.0652
   27MOL0     C 3454  10.176   3.767  11.199 -0.2721 -0.2601  1.2210
   27MOL0     C 3455  10.214   3.899  11.265  0.3205  0.5058 -0.6343
   27MOL0     O 3456  10.348   3.903  11.317  0.1089  0.5192  1.2079
   27MOL0     C 3457  10.439   3.978  11.247 -0.3088 -0.5193  0.9544
   27MOL0     C 3458  10.425   4.025  11.112  1.0948 -0.2159 -0.0568
   27MOL0     C 3459  10.518   4.109  11.053  0.5455  0.2634 -0.1758
   27MOL0     C 3460  10.646   4.135  11.113  0.8294  0.3608  0.2195
   27MOL0     C 3461  10.755   4.199  11.037  0.9294  0.1836 -0.0882
   27MOL0     O 3462  10.733   4.264  10.921 -1.0337  0.4223 -0.7621
   27MOL0     C 3463  10.829   4.294  10.832 -0.2575  0.7960 -0.1384
   27MOL0     C 3464  10.944   4.367  10.866  0.7279 -0.5734 -0.4774
   27MOL0     C 3465  11.034   4.411  10.775 -0.6075 -0.0348  0.2805
   27MOL0     C 3466  11.006   4.392  10.641  0.0214 -0.0265  0.4559
   27MOL0     O 3467  11.069   4.451  10.534  0.8068  0.7312 -0.1117
   27MOL0     C 3468  11.206   4.483  10.561  0.5656 -0.1774  0.2911
   27MOL0     C 3469  11.278   4.498  10.429 -0.8348  0.1172  0.0051
   27MOL0     C 3470  11.257   4.615  10.344 -0.0943 -0.3410  0.4322
   27MOL0     C 3471  11.379   4.649  10.259  0.0270  0.4600 -0.0079
   27MOL0     C 3472  11.367   4.785  10.189  1.8845 -0.0732 -0.2022
   27MOL0     C 3473  11.496   4.809  10.106  0.0894 -0.4989  0.3799
   27MOL0     C 3474  11.497   4.947  10.034 -0.0632 -0.1261  0.2222
   27MOL0     C 3475  11.620   4.982   9.942  0.4092 -0.9346 -0.0508
   27MOL0    Cl 3476  11.629   4.890   9.785 -0.0133  0.0543  0.4156
   27MOL0     C 3477  10.889   4.317  10.606 -0.5070  0.0808  0.9552
   27MOL0     C 3478  10.795   4.284  10.699  0.0095  0.1732 -0.2074
   27MOL0     O 3479  10.859   4.176  11.095  0.1626 -0.6875 -0.0597
   27MOL0     C 3480  10.659   4.084  11.242  1.0078 -1.2080 -1.5000
   27MOL0     C 3481  10.556   4.012  11.310  0.7543 -1.0744  0.6766
   27MOL0     N 3482  10.066   3.415  11.061 -0.0761  1.1374  0.8473
   27MOL0     N 3483   9.944   3.366  11.065  0.4107 -0.3543 -0.0478
   27MOL0     C 3484  10.082   2.526  11.176  0.6502 -0.2336 -0.2711
   27MOL0     C 3485  10.075   2.384  11.179 -0.2246 -1.0543  1.3553
   27MOL0     C 3486  10.042   1.951  11.028 -0.4380 -0.6023 -0.0505
   27MOL0     C 3487   9.924   1.891  11.085 -0.3251  0.6678 -0.0425
   27MOL0     C 3488   9.912   1.747  11.097 -0.1090  0.2488 -0.0230
   27MOL0     C 3489  10.025   1.668  11.066 -0.0959  0.1263  0.2336
   27MOL0     O 3490  10.014   1.530  11.080  0.4846  0.1541 -0.0167
   27MOL0     C 3491  10.116   1.444  11.046 -0.3494  0.7439  0.2719
   27MOL0     C 3492  10.054   1.314  11.090 -0.4898 -0.5915 -0.5461
   27MOL0     C 3493  10.164   1.201  11.107 -0.0840  0.0364 -0.9029
   27MOL0     C 3494  10.108   1.081  11.183 -0.0302  0.5220 -0.3412
   27MOL0     C 3495  10.198   0.964  11.167  0.1997 -0.2858 -0.3011
   27MOL0     C 3496  10.275   0.866  11.180 -0.5508  0.6340  0.3557
   27MOL0     C 3497  10.133   1.733  11.013  0.2256  0.4835  0.7338
   27MOL0     C 3498  10.143   1.870  10.977  0.4253  0.0229  0.2883
   27MOL0     H 3499   9.886   2.323  10.916  3.5942 -1.7104 -0.5272
   27MOL0     H 3500   9.880   2.579  10.910  0.1273 -0.2903 -1.0951
   27MOL0     H 3501   9.919   2.778  10.907 -1.8692 -2.2451  0.5049
   27MOL0     H 3502   9.943   2.920  11.015  0.7033 -0.1442 -0.4943
   27MOL0     H 3503   9.743   2.700  11.050 -0.6662  0.7840 -1.1347
   27MOL0     H 3504   9.698   2.861  10.994 -0.6987  0.8349  0.5874
   27MOL0     H 3505   9.852   2.817  11.257  2.2139 -1.0861 -3.3643
   27MOL0     H 3506   9.682   2.799  11.250  0.3943  0.1282 -0.2064
   27MOL0     H 3507   9.869   3.041  11.208  0.0185  1.3319  1.4811
   27MOL0     H 3508   9.707   3.055  11.144  1.1867  1.0725 -0.1394
   27MOL0     H 3509   9.731   2.975  11.436 -1.1460  2.1013  1.4534
   27MOL0     H 3510   9.588   2.997  11.344 -0.3270  0.2911 -1.3560
   27MOL0     H 3511   9.646   3.192  11.514  2.0723  1.6945  0.8867
   27MOL0     H 3512   9.578   3.223  11.353 -1.2178 -3.4121  1.4498
   27MOL0     H 3513   9.801   3.344  11.448  0.3778 -2.5303  3.1339
   27MOL0     H 3514   9.866   3.204  11.366 -1.2782 -0.7064 -0.2501
   27MOL0     H 3515   9.689   3.436  11.241  0.9368  0.8899  2.6358
   27MOL0     H 3516   9.713   3.288  11.154 -3.4199  1.3834  1.3002
   27MOL0     H 3517  10.005   3.471  11.378 -1.3037 -1.7362 -0.2866
   27MOL0     H 3518  10.283   3.504  11.107 -2.8935 -1.2593 -1.0347
   27MOL0     H 3519  10.277   3.447  11.269  1.4814  0.9523  1.2788
   27MOL0     H 3520  10.358   3.654  11.254  0.4528 -1.6861 -2.1479
   27MOL0     H 3521  10.229   3.660  11.378 -0.7222 -0.4231 -0.3293
   27MOL0     H 3522  10.220   3.769  11.099  3.8764  3.0472  2.8021
   27MOL0     H 3523  10.067   3.759  11.193 -0.1994 -0.1209 -2.2739
   27MOL0     H 3524  10.152   3.918  11.353 -1.4279  0.1254 -1.7343
   27MOL0     H 3525  10.183   3.986  11.206 -2.1738 -1.2838 -2.1641
   27MOL0     H 3526  10.342   3.991  11.051 -1.1827  0.6490  2.3565
   27MOL0     H 3527  10.509   4.151  10.953  0.5784 -1.6769 -1.0394
   27MOL0     H 3528  10.961   4.395  10.969  2.7502 -0.5046 -0.7815
   27MOL0     H 3529  11.115   4.472  10.814 -0.8314 -0.0042  0.7058
   27MOL0     H 3530  11.251   4.409  10.627 -0.1098 -1.3068 -0.4681
   27MOL0     H 3531  11.211   4.576  10.617  0.0497  0.7853 -1.2037
   27MOL0     H 3532  11.261   4.413  10.361  0.0040  0.9018 -1.2367
   27MOL0     H 3533  11.385   4.501  10.452 -0.2197  4.8414 -2.2115
   27MOL0     H 3534  11.234   4.708  10.398 -1.0192  1.4093 -2.6759
   27MOL0     H 3535  11.175   4.602  10.272  1.1787  0.4408 -1.2291
   27MOL0     H 3536  11.461   4.653  10.331 -0.5341 -0.9292  0.7482
   27MOL0     H 3537  11.396   4.569  10.186  0.7418  1.9385 -1.5183
   27MOL0     H 3538  11.361   4.866  10.262 -1.2930  0.1064 -0.5162
   27MOL0     H 3539  11.274   4.790  10.131  0.3081  0.9696  2.2608
   27MOL0     H 3540  11.494   4.732  10.028 -0.4506  1.8349 -2.0412
   27MOL0     H 3541  11.589   4.809  10.164  1.5231  0.7577 -1.7811
   27MOL0     H 3542  11.408   4.930   9.972 -0.1592 -3.5020  1.0852
   27MOL0     H 3543  11.498   5.033  10.101  1.9901 -0.9071  1.2927
   27MOL0     H 3544  11.712   4.965   9.999 -0.3309 -0.0775  1.4744
   27MOL0     H 3545  11.616   5.087   9.913  1.9600 -0.5431  1.0267
   27MOL0     H 3546  10.874   4.300  10.500 -1.3377 -2.6305  1.4429
   27MOL0     H 3547  10.704   4.235  10.665 -0.9384  2.4123 -1.1025
   27MOL0     H 3548  10.751   4.109  11.294 -1.7711  3.1445  2.1233
   27MOL0     H 3549  10.579   3.984  11.413  1.4667  2.2584  1.5560
   27MOL0     H 3550  10.137   2.587  11.247  0.1196  0.2471 -0.2778
   27MOL0     H 3551  10.141   2.316  11.233 -0.7261 -4.1936 -1.5878
   27MOL0     H 3552   9.846   1.960  11.114 -1.0306  0.7735 -2.0356
   27MOL0     H 3553   9.833   1.702  11.157  2.7562 -3.4207  1.3426
   27MOL0     H 3554  10.192   1.467  11.122 -1.7408  1.5708  1.4580
   27MOL0     H 3555  10.135   1.443  10.938 -1.4986  2.6953  0.0110
   27MOL0     H 3556  10.003   1.334  11.185 -1.4500  0.0340 -1.1781
   27MOL0     H 3557   9.974   1.290  11.021  0.6700 -0.8224 -1.8537
   27MOL0     H 3558  10.241   1.243  11.173  0.8010 -3.6595  0.6446
   27MOL0     H 3559  10.203   1.178  11.007 -0.5577  0.7382 -1.2612
   27MOL0     H 3560  10.087   1.110  11.286 -3.2041  4.0372 -1.7259
   27MOL0     H 3561  10.011   1.051  11.142 -0.7256  1.4019  0.6314
   27MOL0     H 3562  10.336   0.780  11.195 -0.8626  0.2062 -0.7425
   27MOL0     H 3563  10.222   1.679  10.983 -1.4164 -0.8569 -2.2166
   27MOL0     H 3564  10.242   1.892  10.938  0.5132 -1.8998 -0.7282
   28MOL0     O 3565   0.497   1.621   9.183 -0.6535  0.1050 -0.3420
   28MOL0     C 3566   0.528   1.647   9.300 -0.9106 -0.1132 -0.3140
   28MOL0     O 3567   0.540   1.552   9.400  0.2099  0.2371  0.5882
   28MOL0     C 3568   0.561   1.426   9.350 -0.8733 -0.4141  0.1598
   28MOL0     C 3569   0.462   1.326   9.350 -0.1357 -0.0718 -0.5437
   28MOL0     C 3570   0.488   1.196   9.301 -0.7022  0.1808  0.0337
   28MOL0     C 3571   0.624   1.164   9.256  0.5804  0.5630  0.6164
   28MOL0     O 3572   0.641   1.036   9.218 -0.0122  0.4111  1.1210
   28MOL0     C 3573   0.764   0.976   9.260  0.7912 -0.1007 -0.3996
   28MOL0     C 3574   0.762   0.826   9.242  0.0501  0.1501  1.2549
   28MOL0     C 3575   0.854   0.747   9.330  0.5187 -0.6113  0.8242
   28MOL0     C 3576   0.847   0.602   9.297  0.1804 -0.2427 -0.1912
   28MOL0     C 3577   0.935   0.517   9.398  0.3845  0.7975  0.7911
   28MOL0     C 3578   1.019   0.414   9.326  0.5108  0.4452 -0.2460
   28MOL0     C 3579   0.943   0.297   9.268 -0.5933 -0.1075 -0.3574
   28MOL0     C 3580   1.032   0.194   9.196 -0.0853  0.0532 -0.0768
   28MOL0     N 3581   0.974   0.074   9.146 -0.1940 -0.5500  0.5211
   28MOL0     C 3582   0.838   0.044   9.128  0.1543  0.0652 -0.5546
   28MOL0     C 3583   0.849  -0.082   9.085  0.2031 -0.2673 -0.3726
   28MOL0     C 3584   0.745  -0.173   9.048 -0.1612 -0.7378  0.2903
   28MOL0     C 3585   0.613  -0.137   9.109 -0.6407  0.9314  0.3495
   28MOL0     C 3586   0.515  -0.251   9.087  0.8614  0.1069  0.4213
   28MOL0     C 3587   0.388  -0.243   9.180 -0.4090 -0.1346  0.8538
   28MOL0     O 3588   0.306  -0.123   9.170  0.1042  0.7133  0.7271
   28MOL0     C 3589   0.335  -0.025   9.259 -1.2973  0.5155 -0.0114
   28MOL0     C 3590   0.407   0.092   9.216  0.4314 -0.1167  0.3131
   28MOL0     C 3591   0.444   0.201   9.299  0.5682 -0.3417  0.0488
   28MOL0     C 3592   0.408   0.201   9.437 -0.3027  0.0026 -0.5119
   28MOL0     C 3593   0.433   0.313   9.527 -0.2703 -0.8952 -0.6230
   28MOL0     O 3594   0.499   0.417   9.468 -0.6259  0.0690 -0.3497
   28MOL0     C 3595   0.499   0.547   9.527  0.8021 -0.3046 -0.2177
   28MOL0     C 3596   0.512   0.572   9.666 -0.3155  0.7728  0.5028
   28MOL0     C 3597   0.510   0.709   9.713  0.2483 -0.2347  0.0373
   28MOL0     C 3598   0.472   0.815   9.624 -1.0303 -0.3354 -0.5562
   28MOL0     O 3599   0.483   0.946   9.672 -0.1262  1.0368 -0.3383
   28MOL0     C 3600   0.374   0.982   9.757  0.7903  0.1097  0.2780
   28MOL0     C 3601   0.405   1.075   9.877  0.7148 -0.3575 -0.3029
   28MOL0     C 3602   0.471   1.008  10.001 -0.5384  0.5075  0.6396
   28MOL0     C 3603   0.378   0.912  10.080  0.1449 -1.3616  0.4449
   28MOL0     C 3604   0.450   0.866  10.212 -0.4094 -0.8531  1.0785
   28MOL0     C 3605   0.579   0.788  10.190  0.4158  0.0441 -0.4483
   28MOL0     C 3606   0.618   0.719  10.324 -0.7986  0.3236 -0.8079
   28MOL0     C 3607   0.761   0.746  10.385  0.1848 -0.8998  0.1069
   28MOL0    Cl 3608   0.798   0.646  10.520  0.0613  0.3143 -0.1477
   28MOL0     C 3609   0.468   0.787   9.486  0.4686 -0.7693  0.0371
   28MOL0     C 3610   0.483   0.654   9.436  0.2135 -0.6586  0.5107
   28MOL0     O 3611   0.374   0.315   9.631  0.1890 -0.4515  0.6612
   28MOL0     C 3612   0.330   0.088   9.479  0.1608  0.1727  0.5801
   28MOL0     C 3613   0.301  -0.018   9.392 -0.1756 -0.2633 -0.1341
   28MOL0     N 3614   0.980  -0.131   9.074 -0.1177  0.4269 -0.1060
   28MOL0     N 3615   1.055  -0.037   9.122 -0.7932  0.9678 -0.4690
   28MOL0     C 3616   0.722   1.259   9.261 -0.2964  0.7910 -0.0231
   28MOL0     C 3617   0.695   1.390   9.314  0.0167 -0.3180 -0.0431
   28MOL0     C 3618   0.561   1.791   9.318  0.5335 -0.1092 -0.8403
   28MOL0     C 3619   0.576   1.864   9.200 -0.0570  0.9290  0.1086
   28MOL0     C 3620   0.584   2.004   9.201  0.8505  0.1593  0.3927
   28MOL0     C 3621   0.583   2.067   9.322 -1.2266  0.1304  0.5748
   28MOL0     O 3622   0.593   2.209   9.318 -0.4054  0.1789  0.3728
   28MOL0     C 3623   0.709   2.269   9.259 -0.5353  0.4937  0.2169
   28MOL0     C 3624   0.838   2.209   9.319 -0.4521 -0.2052  0.0582
   28MOL0     C 3625   0.951   2.314   9.289  0.2666 -0.1567  0.4874
   28MOL0     C 3626   1.082   2.288   9.356 -0.1364  0.7125 -0.2296
   28MOL0     C 3627   1.157   2.170   9.317 -0.1863 -0.0133  0.0202
   28MOL0     C 3628   1.232   2.083   9.271  0.2636  0.7570 -0.8937
   28MOL0     C 3629   0.577   1.993   9.441 -0.6017 -0.4174  0.0543
   28MOL0     C 3630   0.563   1.859   9.439  1.9350  0.0108 -1.1012
   28MOL0     H 3631   0.368   1.357   9.393  0.4891  0.7066  0.2845
   28MOL0     H 3632   0.409   1.122   9.297 -2.7224  2.2702 -1.9173
   28MOL0     H 3633   0.779   0.990   9.367 -3.2617  2.1748  0.0704
   28MOL0     H 3634   0.851   1.006   9.201  1.8707 -0.7126  0.8253
   28MOL0     H 3635   0.801   0.808   9.142 -1.9135  0.1487  0.4405
   28MOL0     H 3636   0.661   0.786   9.255  1.0157 -2.5644  0.9602
   28MOL0     H 3637   0.824   0.764   9.434 -1.6240 -0.6346  0.2396
   28MOL0     H 3638   0.952   0.795   9.317 -0.5675  1.6570  0.5222
   28MOL0     H 3639   0.740   0.579   9.305 -1.0014  4.4543  0.7674
   28MOL0     H 3640   0.872   0.575   9.194 -0.5595 -0.7959 -0.2403
   28MOL0     H 3641   0.878   0.473   9.481 -0.6562  1.0409  0.2202
   28MOL0     H 3642   1.008   0.589   9.438  3.3475 -0.0896 -2.4655
   28MOL0     H 3643   1.081   0.368   9.404 -1.6438 -0.4960  0.9959
   28MOL0     H 3644   1.074   0.451   9.239 -0.9514 -0.3340 -1.5487
   28MOL0     H 3645   0.894   0.257   9.357 -0.0648  1.6964  0.7949
   28MOL0     H 3646   0.858   0.324   9.205 -1.2179  0.4951  0.7387
   28MOL0     H 3647   1.094   0.158   9.278 -2.8753 -2.1874  1.2359
   28MOL0     H 3648   1.104   0.241   9.129 -1.4344  0.5536 -1.2361
   28MOL0     H 3649   0.749   0.106   9.127  0.3864  0.5523  1.9309
   28MOL0     H 3650   0.783  -0.273   9.071 -1.0943 -1.0516  0.5241
   28MOL0     H 3651   0.733  -0.166   8.939 -1.2973  0.6563  0.4715
   28MOL0     H 3652   0.590  -0.043   9.058  0.3058  0.1431 -1.6508
   28MOL0     H 3653   0.616  -0.123   9.217 -2.1093  1.9207  0.2841
   28MOL0     H 3654   0.476  -0.242   8.985 -1.3490  2.0453  1.3586
   28MOL0     H 3655   0.564  -0.348   9.104  3.8709  1.3439 -0.4956
   28MOL0     H 3656   0.435  -0.257   9.278  4.4461 -3.6386 -1.5461
   28MOL0     H 3657   0.313  -0.322   9.176 -0.1647 -0.3279 -0.3165
   28MOL0     H 3658   0.445   0.112   9.117  1.0675  5.9056  1.4441
   28MOL0     H 3659   0.520   0.273   9.269  2.0390 -1.8592 -0.0190
   28MOL0     H 3660   0.522   0.488   9.734  0.1134  1.0321  0.7639
   28MOL0     H 3661   0.508   0.728   9.820 -2.5229  3.1530 -0.4225
   28MOL0     H 3662   0.321   0.902   9.812  2.9392 -1.0153  0.8361
   28MOL0     H 3663   0.302   1.030   9.691  1.1145 -2.2342 -1.9317
   28MOL0     H 3664   0.312   1.120   9.913  1.6740  0.8656  0.7516
   28MOL0     H 3665   0.467   1.162   9.854  1.1169 -0.3363  0.8195
   28MOL0     H 3666   0.522   1.083  10.063 -0.3205 -0.6511  1.9314
   28MOL0     H 3667   0.542   0.939   9.955 -4.1907 -1.5299 -2.4477
   28MOL0     H 3668   0.280   0.948  10.112 -1.6152 -5.0890 -0.2189
   28MOL0     H 3669   0.362   0.833  10.006 -2.1561  3.0620 -4.4695
   28MOL0     H 3670   0.382   0.805  10.273  1.5804 -1.2910  2.9629
   28MOL0     H 3671   0.466   0.956  10.271  0.0389 -0.3151  0.1527
   28MOL0     H 3672   0.655   0.858  10.152  3.1756 -2.8501 -0.6976
   28MOL0     H 3673   0.573   0.711  10.112  2.3621 -1.2019  0.5330
   28MOL0     H 3674   0.539   0.721  10.399 -1.5238 -0.2984 -1.5400
   28MOL0     H 3675   0.625   0.614  10.294 -2.1199 -0.2369  0.7312
   28MOL0     H 3676   0.759   0.849  10.422  0.5250 -0.3491 -1.3528
   28MOL0     H 3677   0.830   0.733  10.302 -0.1169 -0.8285 -0.1571
   28MOL0     H 3678   0.457   0.867   9.413 -0.8508  0.7538  1.8111
   28MOL0     H 3679   0.493   0.643   9.329  4.4616 -1.7275  0.8396
   28MOL0     H 3680   0.289   0.085   9.580 -1.7237  2.5176 -0.0313
   28MOL0     H 3681   0.247  -0.104   9.430  2.8524 -1.9677  0.7140
   28MOL0     H 3682   0.825   1.232   9.239 -0.5597  0.4332 -0.8385
   28MOL0     H 3683   0.778   1.459   9.327 -0.4004  0.1043  0.4083
   28MOL0     H 3684   0.584   1.828   9.098  0.0391  0.5082  0.2662
   28MOL0     H 3685   0.568   2.065   9.113 -1.8746  1.3652  1.5981
   28MOL0     H 3686   0.714   2.377   9.279 -0.4351  0.8121 -1.3616
   28MOL0     H 3687   0.710   2.247   9.152  0.1234 -1.3466  0.5667
   28MOL0     H 3688   0.831   2.205   9.428  0.2870  2.9587  0.3167
   28MOL0     H 3689   0.862   2.107   9.287  3.9199  1.2752 -2.1835
   28MOL0     H 3690   0.921   2.413   9.324 -1.5320 -0.7793  0.8251
   28MOL0     H 3691   0.957   2.327   9.181 -0.0983  1.0027  0.5959
   28MOL0     H 3692   1.132   2.381   9.328 -0.7713  0.5242 -2.2061
   28MOL0     H 3693   1.071   2.286   9.465 -1.4938  2.3745 -0.2936
   28MOL0     H 3694   1.271   1.989   9.237  0.3741  0.2499  0.5643
   28MOL0     H 3695   0.575   2.050   9.534 -0.1100  1.8698 -1.2812
   28MOL0     H 3696   0.543   1.800   9.528 -2.9945 -0.5152 -2.2546
   29MOL0     O 3697   1.698   7.351   2.762  0.5775 -0.1858 -0.6346
   29MOL0     C 3698   1.802   7.325   2.704  1.0273 -0.7265 -0.8527
   29MOL0     O 3699   1.903   7.418   2.695 -0.4086  0.9767 -0.4161
   29MOL0     C 3700   1.889   7.547   2.735  0.1933 -0.5089 -0.2246
   29MOL0     C 3701   1.880   7.656   2.638 -0.3403  0.5272 -0.4804
   29MOL0     C 3702   1.893   7.791   2.691 -0.2740  0.5708 -0.4296
   29MOL0     C 3703   1.896   7.814   2.829  0.7684 -0.7749 -0.2124
   29MOL0     O 3704   1.902   7.944   2.867 -0.5212  0.5621  0.3440
   29MOL0     C 3705   1.826   7.987   2.982  0.8568  1.3912 -0.4927
   29MOL0     C 3706   1.871   8.115   3.048  0.2212  0.1202 -0.1871
   29MOL0     C 3707   1.939   8.084   3.175 -0.1949  0.3021  0.2564
   29MOL0     C 3708   2.002   8.210   3.236 -0.5530  1.2713 -0.0672
   29MOL0     C 3709   2.105   8.199   3.350 -0.5992  0.9082 -0.3486
   29MOL0     C 3710   2.199   8.076   3.342 -0.7541 -0.1522  0.2649
   29MOL0     C 3711   2.152   7.954   3.430 -0.2584  0.9145  0.2747
   29MOL0     C 3712   2.261   7.850   3.414 -0.5584  0.8295 -0.3441
   29MOL0     N 3713   2.254   7.752   3.296 -0.1597 -0.6332  0.4604
   29MOL0     C 3714   2.313   7.747   3.172 -0.4488 -0.4255  0.6422
   29MOL0     C 3715   2.240   7.661   3.101 -0.0532  1.1869 -0.1532
   29MOL0     C 3716   2.247   7.635   2.957 -0.9224  0.6786  0.5736
   29MOL0     C 3717   2.251   7.754   2.872  0.6292 -0.0640  1.0863
   29MOL0     C 3718   2.264   7.692   2.723 -0.4098 -0.7153 -0.0585
   29MOL0     C 3719   2.270   7.806   2.622  0.1923  0.8866 -0.2738
   29MOL0     O 3720   2.329   7.751   2.504  1.1520 -0.3043 -0.0958
   29MOL0     C 3721   2.468   7.767   2.488  0.0623  0.6416  0.2586
   29MOL0     C 3722   2.566   7.831   2.565 -0.2153  0.0600 -0.8296
   29MOL0     C 3723   2.699   7.834   2.535 -0.5138  0.4223 -0.7233
   29MOL0     C 3724   2.744   7.760   2.434  0.2391  0.4441  0.3843
   29MOL0     C 3725   2.893   7.763   2.407  0.6472 -0.3116 -0.6120
   29MOL0     O 3726   2.940   7.756   2.274 -0.2048 -0.3740 -0.0941
   29MOL0     C 3727   3.076   7.781   2.260 -0.4647  0.4998  0.0967
   29MOL0     C 3728   3.122   7.912   2.297 -0.6385 -0.0390 -0.5918
   29MOL0     C 3729   3.248   7.946   2.246 -0.2041  1.1682  0.2238
   29MOL0     C 3730   3.343   7.850   2.207  0.2410  0.5396  0.3265
   29MOL0     O 3731   3.468   7.916   2.193 -0.7312  0.7581  0.2737
   29MOL0     C 3732   3.582   7.831   2.149  0.1490 -0.2505  0.2920
   29MOL0     C 3733   3.694   7.837   2.253 -0.6723  0.1533  0.1840
   29MOL0     C 3734   3.814   7.753   2.202 -0.2140  0.5323  0.2530
   29MOL0     C 3735   3.906   7.714   2.309 -0.6276  0.0613 -0.3893
   29MOL0     C 3736   4.000   7.600   2.250 -0.5835  0.9928  0.4510
   29MOL0     C 3737   4.131   7.565   2.320  0.1231  0.8928  0.0894
   29MOL0     C 3738   4.103   7.541   2.463 -0.1352  0.1425  1.0519
   29MOL0     C 3739   4.220   7.528   2.554  1.2384  0.6767  0.1737
   29MOL0    Cl 3740   4.325   7.676   2.575  0.4312  0.4493 -0.1961
   29MOL0     C 3741   3.301   7.713   2.189 -0.6974  0.1984  0.0136
   29MOL0     C 3742   3.169   7.681   2.213 -0.3714 -0.3706 -0.0098
   29MOL0     O 3743   2.965   7.775   2.505 -0.2410  0.0672  0.0571
   29MOL0     C 3744   2.661   7.674   2.356 -0.3478 -0.0399  0.3060
   29MOL0     C 3745   2.522   7.677   2.379 -0.0029 -0.6763 -0.7776
   29MOL0     N 3746   2.145   7.611   3.189 -0.5598 -0.1752  0.1377
   29MOL0     N 3747   2.151   7.668   3.295 -0.0607  0.1747 -0.9393
   29MOL0     C 3748   1.905   7.701   2.917 -0.0903 -0.8596  0.0520
   29MOL0     C 3749   1.903   7.568   2.874  0.3546 -0.0944  0.6475
   29MOL0     C 3750   1.815   7.199   2.624  0.5669  0.2426  0.0736
   29MOL0     C 3751   1.694   7.147   2.573 -0.1063  0.6322  0.4417
   29MOL0     C 3752   1.704   7.043   2.475  0.2788 -0.1790 -0.9038
   29MOL0     C 3753   1.825   7.008   2.418 -0.2568  0.2864  0.6528
   29MOL0     O 3754   1.835   6.918   2.313  0.6027  0.1503  0.6446
   29MOL0     C 3755   1.766   6.955   2.190  0.3213  0.1462 -0.0410
   29MOL0     C 3756   1.858   6.988   2.077  0.1722 -1.2790 -0.2836
   29MOL0     C 3757   1.780   7.061   1.958  0.9376  0.0883 -0.2483
   29MOL0     C 3758   1.727   6.961   1.847 -0.2944  0.0473 -0.0208
   29MOL0     C 3759   1.651   6.845   1.899  0.2330  0.4989  0.1336
   29MOL0     C 3760   1.588   6.751   1.939  1.2215  0.5425 -0.1781
   29MOL0     C 3761   1.940   7.070   2.476 -0.1595 -1.6771  0.2000
   29MOL0     C 3762   1.936   7.148   2.592  0.7593  0.5406  0.3965
   29MOL0     H 3763   1.890   7.634   2.532  2.5011  1.3606 -0.4675
   29MOL0     H 3764   1.901   7.867   2.613  1.9679  1.7713  0.8592
   29MOL0     H 3765   1.816   7.909   3.058  1.8683  1.2503 -0.4801
   29MOL0     H 3766   1.724   7.997   2.944 -0.9844 -3.4769  2.1926
   29MOL0     H 3767   1.782   8.176   3.071  0.6367  0.1520  1.4582
   29MOL0     H 3768   1.934   8.183   2.989  0.9148 -0.6950 -0.4003
   29MOL0     H 3769   2.006   8.000   3.154  0.6057  1.0162 -0.0907
   29MOL0     H 3770   1.871   8.035   3.246 -1.6752  2.6281  0.5381
   29MOL0     H 3771   2.056   8.265   3.159  0.3714  2.6054  1.4587
   29MOL0     H 3772   1.918   8.276   3.262  0.7794  3.5264 -1.1689
   29MOL0     H 3773   2.053   8.199   3.446 -1.7040  1.3703 -0.9325
   29MOL0     H 3774   2.161   8.293   3.353 -1.4988  1.4606 -0.6151
   29MOL0     H 3775   2.295   8.115   3.377 -0.1665  0.1309 -1.5651
   29MOL0     H 3776   2.207   8.045   3.237 -1.1621 -1.0263  0.4844
   29MOL0     H 3777   2.156   7.993   3.532  0.4622  1.7510 -0.0536
   29MOL0     H 3778   2.057   7.907   3.405 -0.7511  3.6957 -4.2060
   29MOL0     H 3779   2.255   7.787   3.503 -0.3256  1.0303 -0.1849
   29MOL0     H 3780   2.363   7.888   3.425 -0.1443  0.8726 -3.4262
   29MOL0     H 3781   2.401   7.793   3.128 -1.5646 -1.1711 -2.6560
   29MOL0     H 3782   2.167   7.569   2.924  1.4050 -1.3790 -1.3769
   29MOL0     H 3783   2.343   7.584   2.944 -0.7118  0.8503  1.3895
   29MOL0     H 3784   2.320   7.833   2.903 -0.9617  1.6618  0.4000
   29MOL0     H 3785   2.154   7.802   2.888 -1.4515 -3.9360  1.2570
   29MOL0     H 3786   2.363   7.646   2.721  0.3115  0.6125  1.8409
   29MOL0     H 3787   2.184   7.619   2.710 -1.1387  0.0903 -0.1524
   29MOL0     H 3788   2.326   7.891   2.661  1.2436  0.1544 -0.1451
   29MOL0     H 3789   2.175   7.856   2.601 -0.4631 -0.8543 -1.7187
   29MOL0     H 3790   2.532   7.893   2.647  2.1123 -0.3671  0.5537
   29MOL0     H 3791   2.765   7.902   2.588 -0.0677  1.0440 -2.0064
   29MOL0     H 3792   3.062   7.994   2.335 -1.2900 -1.0869  0.7270
   29MOL0     H 3793   3.285   8.046   2.261  2.4414  0.5927 -1.6987
   29MOL0     H 3794   3.611   7.872   2.052 -3.9082  1.0537 -0.5478
   29MOL0     H 3795   3.558   7.726   2.132 -1.2426 -0.0524  0.8836
   29MOL0     H 3796   3.661   7.790   2.346  0.1717 -0.1748  0.3217
   29MOL0     H 3797   3.717   7.942   2.272  3.2284 -0.5641  0.0825
   29MOL0     H 3798   3.863   7.814   2.126  1.8704 -2.0506 -0.6200
   29MOL0     H 3799   3.772   7.673   2.140  0.2282  0.7362 -0.3157
   29MOL0     H 3800   3.957   7.796   2.361 -1.6723  1.4299 -1.4742
   29MOL0     H 3801   3.851   7.672   2.394  0.0024 -0.8131 -0.3987
   29MOL0     H 3802   4.043   7.636   2.156  1.6225  0.2914  1.1444
   29MOL0     H 3803   3.939   7.508   2.253 -1.2700  1.4029 -0.4016
   29MOL0     H 3804   4.196   7.653   2.318  0.6504  0.5033  0.0861
   29MOL0     H 3805   4.180   7.476   2.281 -3.6482 -1.2082 -0.3639
   29MOL0     H 3806   4.029   7.612   2.502 -1.6506 -2.0641  2.3774
   29MOL0     H 3807   4.063   7.440   2.459  1.0153 -0.3096  0.6523
   29MOL0     H 3808   4.280   7.439   2.534 -1.7630 -1.3216 -0.5690
   29MOL0     H 3809   4.172   7.494   2.647 -0.7316  2.6844 -0.0301
   29MOL0     H 3810   3.375   7.643   2.152 -0.0587  1.3821 -1.0497
   29MOL0     H 3811   3.128   7.582   2.192 -2.7470  0.9122 -1.9235
   29MOL0     H 3812   2.705   7.603   2.286  0.0890  0.6777 -0.1594
   29MOL0     H 3813   2.458   7.605   2.330  0.0256  1.2901 -3.9858
   29MOL0     H 3814   1.926   7.716   3.022  1.2211  2.0587 -0.5472
   29MOL0     H 3815   1.893   7.489   2.947  2.2368 -1.4084 -0.4259
   29MOL0     H 3816   1.594   7.167   2.610 -0.2575  1.6292 -0.4240
   29MOL0     H 3817   1.611   6.995   2.448 -0.8889  0.5755  1.5520
   29MOL0     H 3818   1.720   7.050   2.221  1.0444 -0.2949  2.6637
   29MOL0     H 3819   1.695   6.875   2.166  2.2321 -1.4331 -0.6198
   29MOL0     H 3820   1.935   7.059   2.109  1.1369 -1.8727 -1.2236
   29MOL0     H 3821   1.918   6.902   2.044 -1.6836 -2.4005 -0.8740
   29MOL0     H 3822   1.857   7.118   1.906  1.1310  0.9474  0.9409
   29MOL0     H 3823   1.704   7.128   1.998  0.7845  0.1363 -0.6163
   29MOL0     H 3824   1.664   7.012   1.774  0.9673  0.8962 -0.5702
   29MOL0     H 3825   1.817   6.921   1.800  0.1352  2.1015 -1.1017
   29MOL0     H 3826   1.545   6.658   1.972 -1.1850  1.3022 -0.9868
   29MOL0     H 3827   2.044   7.047   2.452  0.8308  2.2466  0.1033
   29MOL0     H 3828   2.023   7.183   2.647 -1.4606  0.7472  4.0537
   30MOL0     O 3829   2.986   7.483   5.151  0.0848  0.5335 -0.3164
   30MOL0     C 3830   2.976   7.412   5.049  1.1794 -1.2861  0.0449
   30MOL0     O 3831   2.941   7.284   5.041 -0.5459  0.4154 -0.1923
   30MOL0     C 3832   2.934   7.224   5.171 -0.1524 -0.3267 -0.1738
   30MOL0     C 3833   2.807   7.216   5.237  0.0271 -0.1310 -0.9494
   30MOL0     C 3834   2.813   7.181   5.371  0.5992  0.5592  0.8615
   30MOL0     C 3835   2.928   7.129   5.424  0.0782 -0.1719  0.5315
   30MOL0     O 3836   2.918   7.101   5.557  0.0437 -0.7160 -0.0893
   30MOL0     C 3837   2.974   6.975   5.608  0.4568  0.8436 -0.2928
   30MOL0     C 3838   2.966   6.994   5.758  0.5767  0.4146  0.5065
   30MOL0     C 3839   2.981   6.856   5.823  0.8258 -0.7278  1.1331
   30MOL0     C 3840   3.028   6.863   5.968  0.2323 -0.5778  0.6025
   30MOL0     C 3841   2.916   6.822   6.070  0.1834  1.0787 -0.2121
   30MOL0     C 3842   2.968   6.800   6.210  0.1314 -0.6791 -0.3152
   30MOL0     C 3843   2.885   6.705   6.296  0.3770 -0.2034  0.5385
   30MOL0     C 3844   2.774   6.791   6.369  0.5008 -0.9055 -0.4802
   30MOL0     N 3845   2.666   6.833   6.270  0.6854  0.0893  0.3579
   30MOL0     C 3846   2.589   6.742   6.202 -0.3331 -0.4481 -0.4802
   30MOL0     C 3847   2.503   6.820   6.128 -0.6182 -0.8112 -0.3162
   30MOL0     C 3848   2.381   6.776   6.044 -0.3555  0.4803 -0.9293
   30MOL0     C 3849   2.418   6.732   5.906  0.9331 -0.8321  0.3907
   30MOL0     C 3850   2.484   6.842   5.824 -0.3858 -0.5644  1.2196
   30MOL0     C 3851   2.524   6.792   5.689 -0.6078  0.2715 -1.1106
   30MOL0     O 3852   2.635   6.706   5.703 -0.0129  0.2536  0.1079
   30MOL0     C 3853   2.663   6.611   5.612 -0.7935 -0.9583 -0.2670
   30MOL0     C 3854   2.759   6.519   5.637  0.8480  1.2410 -0.0322
   30MOL0     C 3855   2.807   6.427   5.540 -0.4002 -0.3662  0.2357
   30MOL0     C 3856   2.752   6.428   5.409  0.1253 -0.8359  0.3641
   30MOL0     C 3857   2.798   6.337   5.302  0.6993 -0.5377  0.4586
   30MOL0     O 3858   2.869   6.229   5.338 -0.3239  0.2006  0.2996
   30MOL0     C 3859   2.921   6.140   5.252  0.4739  0.7938  0.1466
   30MOL0     C 3860   3.035   6.172   5.174  0.1378 -0.1437  0.7284
   30MOL0     C 3861   3.080   6.080   5.070  0.5076  0.0043  0.6896
   30MOL0     C 3862   3.020   5.948   5.061  1.2848 -0.4150  1.4771
   30MOL0     O 3863   3.034   5.864   4.958 -0.8061 -0.2263  0.1573
   30MOL0     C 3864   3.101   5.888   4.835 -0.3702 -0.1288  0.1685
   30MOL0     C 3865   3.131   5.757   4.761  0.6175  0.4083  0.0319
   30MOL0     C 3866   3.177   5.640   4.860  0.4908 -0.1762  0.6362
   30MOL0     C 3867   3.087   5.508   4.834 -0.6621  0.1067 -0.0551
   30MOL0     C 3868   3.132   5.388   4.921 -0.3496 -0.7416  0.1874
   30MOL0     C 3869   3.040   5.269   4.907  0.9072  0.5336  0.5265
   30MOL0     C 3870   3.062   5.177   5.034  1.0585 -0.5321  0.1189
   30MOL0     C 3871   3.020   5.035   4.999 -0.7258 -0.2256  0.1363
   30MOL0    Cl 3872   2.999   4.951   5.157 -0.1327  0.1069 -0.6029
   30MOL0     C 3873   2.922   5.911   5.154  0.2989 -0.1431  0.4846
   30MOL0     C 3874   2.871   6.002   5.242  0.2177 -0.5769 -0.1245
   30MOL0     O 3875   2.772   6.378   5.189  0.8685  0.3397 -0.3292
   30MOL0     C 3876   2.653   6.530   5.382 -0.7825 -0.0714  0.2067
   30MOL0     C 3877   2.613   6.622   5.480  0.5922 -0.8024 -0.2473
   30MOL0     N 3878   2.541   6.954   6.143  0.3336  0.0513  0.4984
   30MOL0     N 3879   2.635   6.963   6.233 -0.0402 -0.0535  0.1026
   30MOL0     C 3880   3.045   7.134   5.360 -0.3454  0.3964  0.3269
   30MOL0     C 3881   3.057   7.189   5.230 -0.2709  0.0738 -0.1087
   30MOL0     C 3882   3.025   7.476   4.923  0.1105  0.5069 -0.2031
   30MOL0     C 3883   3.109   7.592   4.921  0.0978  1.4462  0.2891
   30MOL0     C 3884   3.153   7.642   4.799  0.6165 -0.6863 -0.8911
   30MOL0     C 3885   3.109   7.596   4.679  0.2381 -0.5021 -0.4648
   30MOL0     O 3886   3.157   7.658   4.565  0.5253 -0.1018 -0.2220
   30MOL0     C 3887   3.058   7.701   4.466  0.0075  0.0372 -0.3160
   30MOL0     C 3888   2.993   7.834   4.513 -0.0186 -0.9639 -0.2020
   30MOL0     C 3889   3.093   7.953   4.535  0.2805 -0.1987 -0.3131
   30MOL0     C 3890   3.183   7.981   4.417  0.6320 -0.2562  0.0423
   30MOL0     C 3891   3.098   8.021   4.304  0.4513  0.4683  0.1888
   30MOL0     C 3892   3.031   8.054   4.203 -0.1522  0.5606  0.2361
   30MOL0     C 3893   3.003   7.499   4.679 -0.8851  0.5612 -0.5537
   30MOL0     C 3894   2.957   7.437   4.800 -0.9031 -0.2905  0.9893
   30MOL0     H 3895   2.725   7.259   5.180  0.4493 -0.7600 -2.0459
   30MOL0     H 3896   2.736   7.189   5.447  1.5270  0.5787  1.8245
   30MOL0     H 3897   3.080   6.960   5.589  0.2940  1.0761 -1.4864
   30MOL0     H 3898   2.916   6.887   5.580  1.0247 -0.3642  2.0811
   30MOL0     H 3899   2.866   7.028   5.787  0.5157  0.5880  0.0960
   30MOL0     H 3900   3.036   7.074   5.785  0.1314  0.0388  3.0225
   30MOL0     H 3901   3.047   6.805   5.753  0.6648  0.6712 -0.0951
   30MOL0     H 3902   2.895   6.789   5.811  0.2859  0.2285 -0.7658
   30MOL0     H 3903   3.116   6.800   5.984 -0.1785 -0.8285  2.0210
   30MOL0     H 3904   3.048   6.968   5.993 -2.4731 -0.6135  3.5779
   30MOL0     H 3905   2.869   6.728   6.039 -1.6429  1.6781  0.5739
   30MOL0     H 3906   2.827   6.886   6.069  0.0063  0.8686 -2.3849
   30MOL0     H 3907   2.986   6.900   6.251 -2.6701 -0.2575  0.0645
   30MOL0     H 3908   3.063   6.746   6.198  1.5178  0.6512  3.2108
   30MOL0     H 3909   2.849   6.619   6.237 -1.1483 -0.6433  2.0199
   30MOL0     H 3910   2.947   6.660   6.373 -1.0647 -0.2054  1.7442
   30MOL0     H 3911   2.823   6.878   6.412 -2.9105  0.3434  1.2829
   30MOL0     H 3912   2.730   6.743   6.456  1.3293  0.7009  0.8688
   30MOL0     H 3913   2.579   6.634   6.196  0.4649 -0.5697  0.1410
   30MOL0     H 3914   2.302   6.850   6.033 -2.0369 -1.1622 -0.4395
   30MOL0     H 3915   2.329   6.694   6.095  3.1885 -1.4507 -0.0749
   30MOL0     H 3916   2.324   6.709   5.856  0.3102  1.3495  0.4554
   30MOL0     H 3917   2.479   6.641   5.904  0.7285 -0.9740 -1.1757
   30MOL0     H 3918   2.415   6.921   5.793 -0.8305 -2.2691 -2.7008
   30MOL0     H 3919   2.573   6.886   5.869 -0.3028  1.5992 -0.8376
   30MOL0     H 3920   2.560   6.878   5.632 -1.8364  1.9388  0.5048
   30MOL0     H 3921   2.439   6.733   5.653  0.8795 -1.7217 -1.5811
   30MOL0     H 3922   2.779   6.531   5.743 -3.6186  1.6800  0.9720
   30MOL0     H 3923   2.880   6.355   5.577 -0.6227 -0.9966 -0.5144
   30MOL0     H 3924   3.076   6.271   5.162  1.2086 -0.5771  0.7283
   30MOL0     H 3925   3.153   6.114   4.998 -1.0996 -0.3951 -1.2146
   30MOL0     H 3926   3.188   5.952   4.853  0.3267 -0.0354 -2.9871
   30MOL0     H 3927   3.056   5.950   4.757  1.3064 -1.2568 -1.8054
   30MOL0     H 3928   3.201   5.770   4.677 -0.5885 -1.9943 -1.4459
   30MOL0     H 3929   3.040   5.720   4.714 -0.3254  1.7775  0.7085
   30MOL0     H 3930   3.177   5.676   4.963 -1.5943  4.2144 -0.6525
   30MOL0     H 3931   3.277   5.602   4.834 -0.0762 -4.0347  3.2671
   30MOL0     H 3932   2.982   5.529   4.859 -0.9126 -0.2941 -0.7183
   30MOL0     H 3933   3.085   5.473   4.730 -0.9337 -1.0957  0.3329
   30MOL0     H 3934   3.125   5.414   5.027 -1.1696  0.1031 -0.0575
   30MOL0     H 3935   3.230   5.350   4.892  0.0002  0.8225 -0.8338
   30MOL0     H 3936   3.055   5.197   4.825 -1.4439  0.5560  0.0009
   30MOL0     H 3937   2.936   5.300   4.893 -0.4578 -3.5456  0.1870
   30MOL0     H 3938   3.166   5.184   5.067  1.4944 -0.8626 -1.1020
   30MOL0     H 3939   2.983   5.211   5.102  2.1977 -1.7030  2.1153
   30MOL0     H 3940   3.104   4.991   4.944  0.0164  0.5034  0.6515
   30MOL0     H 3941   2.922   5.020   4.954 -1.5075 -4.1170  2.6147
   30MOL0     H 3942   2.880   5.810   5.151  2.0251 -0.8982  0.5691
   30MOL0     H 3943   2.791   5.951   5.293 -1.0675 -0.1756 -1.6541
   30MOL0     H 3944   2.629   6.545   5.277  1.2620  1.3292 -0.1107
   30MOL0     H 3945   2.532   6.691   5.454  1.3861  1.0032  1.7266
   30MOL0     H 3946   3.119   7.089   5.425  0.4579 -1.5423 -1.7936
   30MOL0     H 3947   3.152   7.205   5.181 -0.4814 -1.1290 -0.9651
   30MOL0     H 3948   3.138   7.630   5.018  3.7086  0.7404 -0.3639
   30MOL0     H 3949   3.217   7.729   4.802  0.8212 -0.8224  1.6373
   30MOL0     H 3950   2.977   7.631   4.446  1.8088 -0.9998 -5.4076
   30MOL0     H 3951   3.110   7.706   4.371 -0.1293  2.1172 -0.3386
   30MOL0     H 3952   2.924   7.875   4.439 -0.7498 -2.3038 -0.3044
   30MOL0     H 3953   2.924   7.822   4.597 -1.3815  3.3685 -0.4796
   30MOL0     H 3954   3.157   7.930   4.620  1.8045  2.4771 -0.6311
   30MOL0     H 3955   3.041   8.044   4.565  0.7808  0.0180 -0.0951
   30MOL0     H 3956   3.244   8.063   4.456 -0.4629 -0.6771  2.8892
   30MOL0     H 3957   3.251   7.900   4.389 -1.3857 -1.3783 -1.8775
   30MOL0     H 3958   2.973   8.091   4.121  1.0761 -1.6326 -1.7433
   30MOL0     H 3959   2.970   7.465   4.582  2.3731 -0.9499 -1.2932
   30MOL0     H 3960   2.885   7.356   4.795 -1.9014  0.6005  0.7327
   31MOL0     O 3961   4.280   1.993  10.738  0.2648 -0.2930 -0.6754
   31MOL0     C 3962   4.260   2.079  10.828 -0.7282  0.7194  0.4886
   31MOL0     O 3963   4.142   2.090  10.901  0.3086 -0.3799  0.6269
   31MOL0     C 3964   4.036   2.013  10.865  0.1191  0.0521 -0.2589
   31MOL0     C 3965   3.942   2.052  10.768 -0.2614  0.0673  0.0295
   31MOL0     C 3966   3.820   1.984  10.753 -0.5303  1.1802  0.3012
   31MOL0     C 3967   3.793   1.872  10.827 -0.1748  0.1728  0.1493
   31MOL0     O 3968   3.668   1.791  10.827 -0.9299 -0.7564 -0.3813
   31MOL0     C 3969   3.642   1.733  10.702  0.0456  0.9120 -0.5988
   31MOL0     C 3970   3.727   1.618  10.666 -0.4398 -0.4265  0.1858
   31MOL0     C 3971   3.698   1.547  10.528  0.1957  0.0160  0.8116
   31MOL0     C 3972   3.571   1.470  10.544 -1.0390  1.1439  0.1782
   31MOL0     C 3973   3.517   1.434  10.405 -1.6016  0.4743  1.2216
   31MOL0     C 3974   3.410   1.319  10.409  0.7129  0.5114 -0.2558
   31MOL0     C 3975   3.268   1.357  10.449 -0.1322 -0.6475  0.2057
   31MOL0     C 3976   3.239   1.320  10.600  0.5734  0.0537  0.3588
   31MOL0     N 3977   3.259   1.171  10.609 -0.8343 -0.1582 -0.6721
   31MOL0     C 3978   3.204   1.071  10.532 -0.6264 -0.5557 -0.0320
   31MOL0     C 3979   3.274   0.968  10.565  0.3441  0.0359  0.2140
   31MOL0     C 3980   3.268   0.832  10.510  0.2098 -0.7330  0.5245
   31MOL0     C 3981   3.183   0.737  10.598  1.0861  0.4840  0.3376
   31MOL0     C 3982   3.240   0.593  10.629 -0.1348  0.8735  0.4677
   31MOL0     C 3983   3.281   0.500  10.515 -0.0474 -0.1950 -0.5553
   31MOL0     O 3984   3.167   0.474  10.428 -0.0921  0.1670  0.1744
   31MOL0     C 3985   3.077   0.383  10.469  0.0172 -0.3395  0.4235
   31MOL0     C 3986   2.962   0.367  10.392  0.1254  0.4613 -0.1600
   31MOL0     C 3987   2.857   0.280  10.422  0.1437 -0.0771 -0.4599
   31MOL0     C 3988   2.876   0.185  10.523  0.1520  0.0377 -1.4729
   31MOL0     C 3989   2.763   0.091  10.546 -0.8879  0.4415  0.1273
   31MOL0     O 3990   2.688   0.052  10.436 -0.6939  0.3996  0.4081
   31MOL0     C 3991   2.587  -0.039  10.428 -0.7050 -0.4677 -0.2914
   31MOL0     C 3992   2.516  -0.045  10.311  0.7061  0.1836  0.3750
   31MOL0     C 3993   2.396  -0.120  10.301 -0.9457 -0.2995 -0.2161
   31MOL0     C 3994   2.358  -0.204  10.398 -0.7373 -0.4356 -0.5297
   31MOL0     O 3995   2.250  -0.284  10.389 -0.3050  0.5932 -0.0163
   31MOL0     C 3996   2.139  -0.204  10.351  0.2043 -0.2848 -0.0049
   31MOL0     C 3997   2.014  -0.298  10.369 -0.4046  0.3146 -0.6446
   31MOL0     C 3998   1.895  -0.252  10.294 -0.2104 -0.0736  0.4836
   31MOL0     C 3999   1.768  -0.301  10.352  0.2356  0.0423 -0.0876
   31MOL0     C 4000   1.659  -0.305  10.242  0.2983  0.6635 -0.1979
   31MOL0     C 4001   1.537  -0.357  10.313  0.8763 -0.2572  0.8558
   31MOL0     C 4002   1.422  -0.385  10.213 -0.4995  0.3166 -0.0262
   31MOL0     C 4003   1.273  -0.367  10.266 -0.9974 -0.1601  0.1092
   31MOL0    Cl 4004   1.251  -0.462  10.413  0.0439  0.0851 -0.4050
   31MOL0     C 4005   2.441  -0.212  10.515 -0.2433  0.0958  0.2998
   31MOL0     C 4006   2.555  -0.124  10.535 -0.1435 -0.2290  0.3218
   31MOL0     O 4007   2.766   0.033  10.647  0.3893 -1.1197 -0.9577
   31MOL0     C 4008   2.994   0.202  10.604  0.7166 -0.7201 -0.4369
   31MOL0     C 4009   3.091   0.299  10.583 -0.1045 -0.5602  0.0961
   31MOL0     N 4010   3.362   0.993  10.666 -0.6276 -0.9247 -0.4868
   31MOL0     N 4011   3.365   1.126  10.674  0.1033  0.6840  0.2576
   31MOL0     C 4012   3.883   1.837  10.928  0.2491 -0.4965 -1.1556
   31MOL0     C 4013   4.001   1.901  10.947 -0.7363 -0.1367  0.5063
   31MOL0     C 4014   4.363   2.178  10.859  0.1756 -0.1811 -0.3559
   31MOL0     C 4015   4.331   2.308  10.884 -0.5095  0.2959  0.8709
   31MOL0     C 4016   4.427   2.411  10.915  0.3736 -0.1910  0.0454
   31MOL0     C 4017   4.559   2.369  10.909 -0.2130  0.2885  0.7786
   31MOL0     O 4018   4.671   2.446  10.939  0.4745  0.0640  0.1367
   31MOL0     C 4019   4.659   2.563  11.028 -0.2163 -0.5086  0.4300
   31MOL0     C 4020   4.765   2.659  10.989 -0.1052 -0.5322 -1.0618
   31MOL0     C 4021   4.909   2.599  10.994  0.0421 -0.6845 -0.2025
   31MOL0     C 4022   4.946   2.536  10.863  0.1797  0.0829 -0.0996
   31MOL0     C 4023   5.000   2.651  10.780  0.9082  0.3986  0.5005
   31MOL0     C 4024   5.039   2.744  10.718 -0.1949  0.2919  0.9826
   31MOL0     C 4025   4.591   2.243  10.862  0.1313  0.3977  0.0507
   31MOL0     C 4026   4.501   2.146  10.850 -0.6663 -0.1710  0.1361
   31MOL0     H 4027   3.957   2.141  10.708 -0.3761 -0.3929 -0.6838
   31MOL0     H 4028   3.734   2.010  10.693 -1.0661 -0.2074  0.4313
   31MOL0     H 4029   3.653   1.812  10.628  0.3975  0.6390 -0.8358
   31MOL0     H 4030   3.539   1.695  10.697  0.9199 -1.7604 -0.0682
   31MOL0     H 4031   3.726   1.534  10.736  1.1062 -1.1628 -0.6224
   31MOL0     H 4032   3.823   1.666  10.642  1.9885 -6.2803 -4.7167
   31MOL0     H 4033   3.781   1.481  10.502 -0.5322 -0.8943  0.7587
   31MOL0     H 4034   3.696   1.629  10.456  1.2536  2.2046  3.0862
   31MOL0     H 4035   3.596   1.384  10.608  3.6951 -0.0570 -2.7966
   31MOL0     H 4036   3.498   1.538  10.590 -0.3286  1.4595  0.8709
   31MOL0     H 4037   3.597   1.383  10.349 -1.1863  0.3108  1.9429
   31MOL0     H 4038   3.494   1.525  10.349  1.3159  0.6835  0.1809
   31MOL0     H 4039   3.448   1.227  10.454  0.0820  0.2995 -0.1419
   31MOL0     H 4040   3.398   1.281  10.307 -0.9477  3.3865 -1.2630
   31MOL0     H 4041   3.257   1.465  10.445 -0.8122 -0.7189  0.1680
   31MOL0     H 4042   3.186   1.317  10.389 -1.8046  1.8233  0.7014
   31MOL0     H 4043   3.134   1.343  10.619  0.2064 -1.7090  0.6332
   31MOL0     H 4044   3.311   1.376  10.660  0.0226  1.6114 -0.3780
   31MOL0     H 4045   3.128   1.077  10.455 -0.5038 -1.7839 -0.2642
   31MOL0     H 4046   3.370   0.792  10.518  0.6163 -0.3520 -2.0124
   31MOL0     H 4047   3.230   0.833  10.408  2.1537 -2.1614 -0.2763
   31MOL0     H 4048   3.084   0.718  10.557  0.5997  2.6555  0.4072
   31MOL0     H 4049   3.163   0.787  10.693 -0.1609 -0.8260  0.7955
   31MOL0     H 4050   3.327   0.607  10.693 -0.0436 -3.4065  1.5283
   31MOL0     H 4051   3.172   0.532  10.689 -0.1860 -1.6520 -1.9385
   31MOL0     H 4052   3.320   0.401  10.542 -0.4158  0.1922  1.6385
   31MOL0     H 4053   3.354   0.546  10.449 -1.1505  2.4024 -0.0633
   31MOL0     H 4054   2.949   0.418  10.296 -5.1901  0.1764  0.0888
   31MOL0     H 4055   2.773   0.265  10.354 -0.1524 -0.0326 -0.1052
   31MOL0     H 4056   2.533   0.023  10.228  1.0698 -0.7807 -0.3489
   31MOL0     H 4057   2.341  -0.122  10.208 -0.5764  1.9607 -0.5358
   31MOL0     H 4058   2.142  -0.179  10.244  1.0418 -0.4587 -0.0219
   31MOL0     H 4059   2.138  -0.113  10.412 -0.8500 -1.4462  1.7952
   31MOL0     H 4060   1.992  -0.319  10.473 -2.8271  1.0715 -0.9600
   31MOL0     H 4061   2.046  -0.391  10.320  0.5164  0.8618 -1.1199
   31MOL0     H 4062   1.914  -0.300  10.198 -0.0157 -0.4795  0.7206
   31MOL0     H 4063   1.909  -0.144  10.295  0.6234 -0.1314  2.9704
   31MOL0     H 4064   1.775  -0.402  10.392 -2.2509 -0.5977 -1.0679
   31MOL0     H 4065   1.730  -0.239  10.434 -1.9755 -1.6363  0.2435
   31MOL0     H 4066   1.691  -0.378  10.168  2.2205  1.3543 -0.1034
   31MOL0     H 4067   1.669  -0.202  10.206  1.5744 -0.7887 -4.5194
   31MOL0     H 4068   1.515  -0.274  10.381  1.8087  0.1675  0.6526
   31MOL0     H 4069   1.555  -0.450  10.366  2.1169  0.6011  2.0152
   31MOL0     H 4070   1.434  -0.315  10.130 -2.4829  1.6836  0.7558
   31MOL0     H 4071   1.432  -0.486  10.172  0.0143  0.0001  0.8590
   31MOL0     H 4072   1.198  -0.372  10.186  0.2097  1.8066 -1.2193
   31MOL0     H 4073   1.267  -0.261  10.292 -2.0933 -0.1297 -0.1921
   31MOL0     H 4074   2.402  -0.267  10.600  1.3354 -0.9317  0.3751
   31MOL0     H 4075   2.602  -0.115  10.633 -0.8248  2.7336  0.4590
   31MOL0     H 4076   2.997   0.126  10.681 -1.0173 -1.6498 -1.2175
   31MOL0     H 4077   3.171   0.321  10.653  1.5538  2.3757 -2.4220
   31MOL0     H 4078   3.847   1.755  10.989 -2.3420  2.0581  1.0148
   31MOL0     H 4079   4.069   1.885  11.030  0.7622 -1.9091 -0.9800
   31MOL0     H 4080   4.229   2.343  10.889 -1.0705 -1.0990 -0.1485
   31MOL0     H 4081   4.397   2.506  10.957 -0.0853 -0.3421  0.0624
   31MOL0     H 4082   4.668   2.522  11.129  2.2630  0.7457  0.7978
   31MOL0     H 4083   4.565   2.617  11.012  1.1691  2.1209  0.6908
   31MOL0     H 4084   4.737   2.708  10.895 -0.9939 -0.7043 -0.8981
   31MOL0     H 4085   4.764   2.741  11.062 -1.4616 -1.2743 -0.2110
   31MOL0     H 4086   4.917   2.531  11.078 -0.6773 -0.7819 -0.2061
   31MOL0     H 4087   4.980   2.679  11.015 -0.4353 -0.0293 -1.0066
   31MOL0     H 4088   5.030   2.469  10.884 -0.8468 -0.4138  2.7249
   31MOL0     H 4089   4.862   2.488  10.812  0.1756  0.2906 -0.2949
   31MOL0     H 4090   5.084   2.818  10.655 -1.2848 -0.2236 -0.4453
   31MOL0     H 4091   4.698   2.227  10.863  0.5023  2.5890  0.4453
   31MOL0     H 4092   4.544   2.051  10.818  2.4456  0.4064  2.2335
   32MOL0     O 4093  11.406   6.885   3.049  0.5603 -0.1847  0.3835
   32MOL0     C 4094  11.407   6.876   3.168 -0.0458  0.4395 -0.0395
   32MOL0     O 4095  11.508   6.896   3.251 -0.5476  0.9706  0.2538
   32MOL0     C 4096  11.628   6.937   3.193 -0.5682  0.3279  0.4816
   32MOL0     C 4097  11.658   7.071   3.166  0.3065 -0.3199 -0.3641
   32MOL0     C 4098  11.787   7.120   3.115  1.7229 -0.3135  0.1436
   32MOL0     C 4099  11.883   7.025   3.081  1.2073  0.0908  0.6149
   32MOL0     O 4100  12.006   7.057   3.026 -0.0413 -0.1735  0.0860
   32MOL0     C 4101  12.066   7.161   3.106  0.6806 -0.1685  0.6232
   32MOL0     C 4102  12.211   7.182   3.064 -0.0256  0.4053 -0.0427
   32MOL0     C 4103  12.311   7.090   3.131  0.6983  0.3599  0.3086
   32MOL0     C 4104  12.460   7.128   3.098  0.7877 -0.4705  0.4980
   32MOL0     C 4105  12.567   7.043   3.173  0.7018 -0.6868 -0.8110
   32MOL0     C 4106  12.608   7.099   3.316 -0.2071 -0.3951  0.7920
   32MOL0     C 4107  12.709   7.000   3.389  0.9190 -0.7882 -0.6649
   32MOL0     C 4108  12.850   7.016   3.337 -0.6244 -0.4562 -0.3530
   32MOL0     N 4109  12.897   7.161   3.348 -0.1124 -0.1114 -0.0437
   32MOL0     C 4110  12.951   7.238   3.244 -1.0633 -0.9081 -0.2072
   32MOL0     C 4111  12.985   7.358   3.310  0.2596 -0.2835 -0.6589
   32MOL0     C 4112  13.056   7.479   3.254  0.1615  1.3147 -0.2816
   32MOL0     C 4113  13.208   7.492   3.293 -1.1027 -0.3801 -0.0711
   32MOL0     C 4114  13.253   7.597   3.388  0.5009  0.1873  0.1710
   32MOL0     C 4115  13.157   7.609   3.509  0.4501 -0.8673  0.1160
   32MOL0     O 4116  13.182   7.720   3.593  0.2076 -0.4659 -0.2338
   32MOL0     C 4117  13.178   7.848   3.552  0.3369 -0.6076  0.2995
   32MOL0     C 4118  13.256   7.940   3.632 -0.1526  0.5746 -1.0335
   32MOL0     C 4119  13.264   8.080   3.601 -0.2708  0.5534 -0.3270
   32MOL0     C 4120  13.184   8.132   3.499  0.6165 -0.1395 -0.1695
   32MOL0     C 4121  13.182   8.279   3.474  0.2791 -0.4481  0.5072
   32MOL0     O 4122  13.122   8.339   3.359  0.0372  0.5843  0.4092
   32MOL0     C 4123  13.123   8.475   3.352 -0.2749  0.0958  0.6480
   32MOL0     C 4124  13.217   8.546   3.278 -0.0941  0.5723 -0.2922
   32MOL0     C 4125  13.221   8.687   3.281 -0.0120  0.0501  0.7230
   32MOL0     C 4126  13.108   8.759   3.331  0.9258 -0.8239  0.0237
   32MOL0     O 4127  13.100   8.897   3.315  0.4084  0.0004  0.2722
   32MOL0     C 4128  12.993   8.987   3.354  0.2607 -0.2805 -1.1268
   32MOL0     C 4129  13.036   9.125   3.303  1.2068  0.1691  0.2774
   32MOL0     C 4130  13.107   9.215   3.410  1.0933 -0.5412  0.1055
   32MOL0     C 4131  13.118   9.358   3.367  0.3588 -0.0877 -0.2728
   32MOL0     C 4132  13.148   9.452   3.486  1.0246 -0.4494 -0.1708
   32MOL0     C 4133  13.229   9.574   3.458  0.0960 -0.5424 -0.4183
   32MOL0     C 4134  13.227   9.667   3.582 -0.2524  0.5734  0.4218
   32MOL0     C 4135  13.336   9.767   3.588 -0.3896 -0.3544  0.2866
   32MOL0    Cl 4136  13.297   9.862   3.446 -0.0235 -0.0069 -0.5219
   32MOL0     C 4137  13.013   8.690   3.400  0.0873 -0.0626 -0.8186
   32MOL0     C 4138  13.018   8.548   3.411 -0.5098  0.1051  0.0591
   32MOL0     O 4139  13.235   8.337   3.567  0.1305  0.2406 -0.0849
   32MOL0     C 4140  13.105   8.046   3.419  0.2839  1.0948  0.5516
   32MOL0     C 4141  13.095   7.903   3.444 -0.0389 -0.4352 -0.5641
   32MOL0     N 4142  12.952   7.352   3.443 -0.1179 -0.0931  0.5673
   32MOL0     N 4143  12.892   7.235   3.465  0.2531 -0.7689 -0.5219
   32MOL0     C 4144  11.855   6.886   3.104  0.0451 -0.9682  0.0053
   32MOL0     C 4145  11.731   6.842   3.166  0.0839  0.1039  0.6324
   32MOL0     C 4146  11.283   6.822   3.228 -0.2249  0.1803 -0.0639
   32MOL0     C 4147  11.165   6.817   3.155  0.7799  0.6956 -0.0906
   32MOL0     C 4148  11.059   6.750   3.207  0.2223  0.4447 -0.1859
   32MOL0     C 4149  11.053   6.717   3.334 -0.0935  0.8617 -0.6541
   32MOL0     O 4150  10.926   6.669   3.363  0.3117  0.4909  0.0222
   32MOL0     C 4151  10.901   6.603   3.483  0.6114  0.4762  0.3916
   32MOL0     C 4152  10.755   6.547   3.469 -0.3439  0.1923 -0.4863
   32MOL0     C 4153  10.655   6.648   3.493  0.1038  0.3890 -0.5183
   32MOL0     C 4154  10.522   6.577   3.529  0.0060 -0.0192 -0.3227
   32MOL0     C 4155  10.440   6.684   3.590  0.6756 -0.3065 -0.3776
   32MOL0     C 4156  10.382   6.778   3.647  0.2375  0.3481 -0.3668
   32MOL0     C 4157  11.172   6.698   3.404  0.1127  0.5261  0.2371
   32MOL0     C 4158  11.289   6.757   3.355 -0.3967  0.5237 -0.2364
   32MOL0     H 4159  11.583   7.149   3.175  2.0516  1.2127  3.0453
   32MOL0     H 4160  11.792   7.228   3.106  1.9984 -0.2169  1.3698
   32MOL0     H 4161  12.067   7.128   3.210  3.2700  2.2947  1.5139
   32MOL0     H 4162  12.003   7.250   3.101  1.3699  0.3999  1.7296
   32MOL0     H 4163  12.247   7.280   3.098 -0.7431  1.4342 -2.0856
   32MOL0     H 4164  12.216   7.175   2.955  2.8581  1.2585 -0.0490
   32MOL0     H 4165  12.289   6.987   3.100 -0.9951  1.9802 -5.0484
   32MOL0     H 4166  12.312   7.092   3.240  2.6366  0.9738  0.3151
   32MOL0     H 4167  12.451   7.110   2.990 -3.4578  2.8508  0.0134
   32MOL0     H 4168  12.479   7.235   3.101 -2.8403  0.4285  5.4224
   32MOL0     H 4169  12.659   7.041   3.113  1.1088  0.2858 -0.2329
   32MOL0     H 4170  12.529   6.941   3.178 -1.0607 -0.1290 -1.7895
   32MOL0     H 4171  12.517   7.105   3.376 -0.2474 -4.5813  1.4909
   32MOL0     H 4172  12.652   7.198   3.308  0.9126 -0.7892  1.7809
   32MOL0     H 4173  12.718   7.022   3.496  3.1515 -1.5470 -0.6555
   32MOL0     H 4174  12.676   6.896   3.387 -0.8111 -0.3076  0.7428
   32MOL0     H 4175  12.849   6.990   3.231  2.0875  2.5307 -1.2658
   32MOL0     H 4176  12.914   6.954   3.400 -0.9701 -1.3547 -0.8630
   32MOL0     H 4177  12.963   7.221   3.138  1.9289 -1.7670  0.1805
   32MOL0     H 4178  13.002   7.563   3.300 -2.4028  0.3579 -1.3867
   32MOL0     H 4179  13.052   7.463   3.146  0.4715 -3.0961  0.1838
   32MOL0     H 4180  13.258   7.509   3.197  1.2752 -0.9713  0.9814
   32MOL0     H 4181  13.258   7.406   3.340  2.6239  3.3507  3.7102
   32MOL0     H 4182  13.353   7.565   3.420  1.0688 -0.7840 -2.3912
   32MOL0     H 4183  13.261   7.697   3.343  3.0393 -1.0800 -2.4928
   32MOL0     H 4184  13.175   7.522   3.573  1.1846 -0.2535  0.7816
   32MOL0     H 4185  13.050   7.613   3.490 -0.0070  0.3693  2.5602
   32MOL0     H 4186  13.324   7.899   3.706 -0.6861  0.2510 -0.7141
   32MOL0     H 4187  13.320   8.134   3.675  0.9967 -2.1508  0.8314
   32MOL0     H 4188  13.295   8.496   3.222  1.6340  0.9817  1.6191
   32MOL0     H 4189  13.288   8.758   3.234 -2.9234  0.3685 -3.5674
   32MOL0     H 4190  12.959   9.004   3.456 -0.4349  1.0678 -1.5629
   32MOL0     H 4191  12.902   8.938   3.318 -1.2275 -0.0012  1.9628
   32MOL0     H 4192  12.938   9.167   3.278  1.3045  0.8239  0.9694
   32MOL0     H 4193  13.086   9.114   3.206 -0.1439  1.4414 -0.5991
   32MOL0     H 4194  13.208   9.186   3.437  2.0042  2.9757  1.0026
   32MOL0     H 4195  13.042   9.224   3.497 -2.0091  0.6372 -2.1267
   32MOL0     H 4196  13.207   9.373   3.305  1.9440 -0.2264  1.8607
   32MOL0     H 4197  13.026   9.387   3.316 -3.1162 -2.2962  4.0280
   32MOL0     H 4198  13.200   9.392   3.560  0.1732 -0.5200  0.3776
   32MOL0     H 4199  13.053   9.483   3.530  1.7275  2.3325 -0.4410
   32MOL0     H 4200  13.173   9.617   3.375  0.2813  1.0373  0.2381
   32MOL0     H 4201  13.327   9.557   3.413 -0.0569 -2.8172  0.0065
   32MOL0     H 4202  13.130   9.715   3.598 -1.4672 -2.3557  2.6560
   32MOL0     H 4203  13.248   9.596   3.663 -1.1399  1.1981  1.2169
   32MOL0     H 4204  13.427   9.709   3.569 -2.0592 -2.5670 -1.4831
   32MOL0     H 4205  13.330   9.828   3.678  2.0203  1.8102 -0.8782
   32MOL0     H 4206  12.930   8.746   3.442 -1.2072 -2.3731 -0.0591
   32MOL0     H 4207  12.954   8.486   3.474  0.0247  1.1559  1.6975
   32MOL0     H 4208  13.048   8.101   3.345 -1.2152 -0.9387  0.1183
   32MOL0     H 4209  13.028   7.844   3.382 -0.9089 -0.8391  0.7342
   32MOL0     H 4210  11.932   6.815   3.077  0.9395 -0.8709  2.0700
   32MOL0     H 4211  11.701   6.738   3.174 -0.5188  0.0075 -1.9391
   32MOL0     H 4212  11.159   6.857   3.055 -4.6057  0.8038 -0.0168
   32MOL0     H 4213  10.975   6.736   3.140  0.2339  2.2989 -0.6621
   32MOL0     H 4214  10.904   6.676   3.565  0.5197 -2.9430  3.6840
   32MOL0     H 4215  10.968   6.522   3.513 -2.5468 -2.3734  0.3186
   32MOL0     H 4216  10.740   6.496   3.374  0.7114 -4.1389  1.3940
   32MOL0     H 4217  10.745   6.484   3.558 -3.0520  3.0822  1.4501
   32MOL0     H 4218  10.641   6.706   3.401  1.2098  0.3942 -0.6983
   32MOL0     H 4219  10.681   6.713   3.577  1.3844 -0.8005  0.0620
   32MOL0     H 4220  10.477   6.542   3.436 -0.2879 -2.8045  0.7844
   32MOL0     H 4221  10.520   6.504   3.611  2.1590  1.7939  1.4708
   32MOL0     H 4222  10.337   6.863   3.694 -2.5293 -0.8398 -0.6863
   32MOL0     H 4223  11.158   6.660   3.505  2.7163 -0.2044  0.3957
   32MOL0     H 4224  11.378   6.744   3.417 -2.0369 -0.3986  2.0716
   33MOL0     O 4225  10.602   9.160   6.506  0.7260  0.4140 -0.8259
   33MOL0     C 4226  10.509   9.129   6.425 -0.3213  0.1814  0.3462
   33MOL0     O 4227  10.435   9.019   6.425 -0.1709 -0.4444  0.1248
   33MOL0     C 4228  10.453   8.931   6.528 -0.1142 -0.8886 -0.3571
   33MOL0     C 4229  10.455   8.969   6.664  0.0120 -0.2618  1.0114
   33MOL0     C 4230  10.491   8.870   6.764  0.4006 -0.2478 -0.0411
   33MOL0     C 4231  10.520   8.736   6.735  0.3036  0.0645  1.2178
   33MOL0     O 4232  10.572   8.666   6.838 -0.6560 -0.1704 -0.1527
   33MOL0     C 4233  10.690   8.590   6.805 -0.1276 -0.0473  0.7539
   33MOL0     C 4234  10.774   8.548   6.929  1.4302 -0.8165 -0.0380
   33MOL0     C 4235  10.780   8.398   6.952  0.0438 -0.0151 -0.0331
   33MOL0     C 4236  10.857   8.353   7.070 -0.6639  0.6098 -0.3084
   33MOL0     C 4237  10.846   8.200   7.094  0.0989  0.5863 -0.0731
   33MOL0     C 4238  10.896   8.157   7.227 -0.9346 -1.0550 -0.2353
   33MOL0     C 4239  10.815   8.208   7.347  0.9796  0.1968  0.3038
   33MOL0     C 4240  10.664   8.173   7.340 -0.1594  0.7873 -0.8087
   33MOL0     N 4241  10.628   8.032   7.345  0.0597  0.1634 -0.0723
   33MOL0     C 4242  10.631   7.963   7.461 -0.0513  1.0903  0.4369
   33MOL0     C 4243  10.576   7.846   7.434  0.4880 -0.3746  0.2210
   33MOL0     C 4244  10.542   7.748   7.545 -1.2688 -0.0142  0.1318
   33MOL0     C 4245  10.391   7.741   7.598  0.4993  0.2414  0.3500
   33MOL0     C 4246  10.367   7.844   7.716  0.1649 -0.1705  0.4923
   33MOL0     C 4247  10.228   7.829   7.766  0.6896 -0.2847 -0.9203
   33MOL0     O 4248  10.243   7.708   7.845 -0.4844  0.2039 -0.3900
   33MOL0     C 4249  10.153   7.663   7.930 -0.6984  0.2772 -0.2987
   33MOL0     C 4250  10.202   7.580   8.031 -0.5740 -1.5785  0.2880
   33MOL0     C 4251  10.110   7.512   8.118 -0.2703  0.9927  1.4845
   33MOL0     C 4252   9.979   7.532   8.108 -1.4024 -0.3162  0.0314
   33MOL0     C 4253   9.886   7.455   8.194  0.4894  0.5498 -0.7372
   33MOL0     O 4254   9.927   7.338   8.262  0.1770 -0.6784  0.0486
   33MOL0     C 4255   9.834   7.280   8.342 -0.5633 -1.1798 -0.0788
   33MOL0     C 4256   9.721   7.214   8.286 -0.2976 -1.4763 -0.8009
   33MOL0     C 4257   9.619   7.170   8.367 -0.3557  0.6760  0.2963
   33MOL0     C 4258   9.642   7.175   8.505  0.2530  0.4301  0.4665
   33MOL0     O 4259   9.547   7.116   8.588 -0.2207 -0.3064 -0.2240
   33MOL0     C 4260   9.595   7.015   8.676  0.7593 -0.3636 -0.0588
   33MOL0     C 4261   9.495   6.984   8.796 -0.0773 -0.7649  0.5522
   33MOL0     C 4262   9.419   6.851   8.774 -0.3300 -0.3162  0.4790
   33MOL0     C 4263   9.313   6.832   8.888 -0.4246  0.5816 -0.7907
   33MOL0     C 4264   9.236   6.702   8.871  0.8164 -0.5344 -1.2521
   33MOL0     C 4265   9.141   6.727   8.748 -0.2866  0.1626 -1.2375
   33MOL0     C 4266   9.034   6.612   8.725  0.2472 -1.3179  0.1559
   33MOL0     C 4267   9.101   6.472   8.698  0.5401 -0.4570  0.1037
   33MOL0    Cl 4268   9.141   6.420   8.862 -0.5014 -0.0653  0.5143
   33MOL0     C 4269   9.746   7.231   8.561 -0.0948  0.2045  0.1736
   33MOL0     C 4270   9.849   7.287   8.478 -0.1756  0.4621  0.1946
   33MOL0     O 4271   9.775   7.512   8.208 -0.3311 -0.1608  0.3848
   33MOL0     C 4272   9.933   7.616   8.013  0.1123 -0.3954 -0.0714
   33MOL0     C 4273  10.019   7.693   7.924 -0.1276  0.4550  0.2323
   33MOL0     N 4274  10.534   7.852   7.299  0.3341  1.0043  0.3641
   33MOL0     N 4275  10.552   7.966   7.257  0.5377  0.2589  0.8190
   33MOL0     C 4276  10.521   8.699   6.600 -0.2911 -0.2586  0.6240
   33MOL0     C 4277  10.492   8.791   6.497  0.8883 -0.2693 -0.4839
   33MOL0     C 4278  10.482   9.234   6.314 -0.0285 -0.6956 -0.1775
   33MOL0     C 4279  10.542   9.361   6.329 -0.8039 -0.1413  0.0884
   33MOL0     C 4280  10.512   9.454   6.236  0.0560 -0.0448 -1.1842
   33MOL0     C 4281  10.433   9.438   6.121  0.5113  0.2433 -0.8193
   33MOL0     O 4282  10.411   9.525   6.027 -0.0621  0.5609  0.1878
   33MOL0     C 4283  10.374   9.665   6.062 -0.5529  0.3164  0.1499
   33MOL0     C 4284  10.263   9.693   6.152 -1.4823  0.3302  0.2938
   33MOL0     C 4285  10.136   9.669   6.066  0.5059 -0.5334 -0.1154
   33MOL0     C 4286  10.013   9.669   6.154 -0.4538 -0.1527  0.3092
   33MOL0     C 4287   9.972   9.787   6.226  0.7886 -0.9557 -0.0068
   33MOL0     C 4288   9.948   9.897   6.266  0.5093 -0.3765  0.8325
   33MOL0     C 4289  10.392   9.306   6.101 -0.7464 -1.3080 -1.0420
   33MOL0     C 4290  10.414   9.207   6.196 -0.5389  0.9543 -0.2098
   33MOL0     H 4291  10.438   9.074   6.683 -1.8669 -0.7069  1.9875
   33MOL0     H 4292  10.493   8.907   6.866  1.5210  2.1499 -0.8614
   33MOL0     H 4293  10.752   8.642   6.730 -0.2557 -1.3709 -0.3033
   33MOL0     H 4294  10.644   8.504   6.756  3.3380 -0.1432 -2.8404
   33MOL0     H 4295  10.730   8.595   7.018 -0.1637  0.2991 -1.3551
   33MOL0     H 4296  10.878   8.578   6.917  1.9282 -1.1671  2.6835
   33MOL0     H 4297  10.823   8.350   6.863  3.2150  1.0680  0.7523
   33MOL0     H 4298  10.673   8.381   6.964 -0.7724  3.7915 -0.5531
   33MOL0     H 4299  10.961   8.385   7.058  0.0321 -0.1019  2.8940
   33MOL0     H 4300  10.821   8.407   7.158 -1.5188  5.6632 -3.3241
   33MOL0     H 4301  10.911   8.153   7.019  1.3297  3.7445 -1.1328
   33MOL0     H 4302  10.746   8.163   7.070 -0.9212  0.7557  3.4516
   33MOL0     H 4303  10.995   8.201   7.239 -1.0856 -1.2719  2.2532
   33MOL0     H 4304  10.901   8.048   7.236 -1.0739 -1.0960 -0.6083
   33MOL0     H 4305  10.849   8.173   7.445 -0.6146  4.0184  2.4603
   33MOL0     H 4306  10.824   8.317   7.354 -0.0925  0.7300 -3.8244
   33MOL0     H 4307  10.629   8.216   7.246  1.9223  0.5277 -1.7548
   33MOL0     H 4308  10.617   8.226   7.423 -1.7121  1.0958 -1.8324
   33MOL0     H 4309  10.664   7.988   7.562 -0.5864 -2.6566  1.7027
   33MOL0     H 4310  10.602   7.777   7.631  0.3670  3.4243 -1.9532
   33MOL0     H 4311  10.566   7.652   7.497 -2.7081 -0.1030 -0.4719
   33MOL0     H 4312  10.380   7.636   7.627  0.2363  0.5149  1.2848
   33MOL0     H 4313  10.313   7.761   7.523  1.2884 -0.3518 -0.6461
   33MOL0     H 4314  10.444   7.842   7.794  0.2749 -2.7168  0.3747
   33MOL0     H 4315  10.367   7.948   7.680  0.9570 -0.2976  0.0964
   33MOL0     H 4316  10.155   7.813   7.686  0.9559 -0.3622 -1.1481
   33MOL0     H 4317  10.204   7.915   7.828  1.4834  0.3521 -1.4768
   33MOL0     H 4318  10.308   7.563   8.044  0.1992 -0.8609 -3.8618
   33MOL0     H 4319  10.159   7.440   8.183  3.5949  1.8671 -0.1330
   33MOL0     H 4320   9.719   7.213   8.177  0.0068  1.1468 -0.9005
   33MOL0     H 4321   9.543   7.108   8.320 -0.1404  1.1021 -0.6381
   33MOL0     H 4322   9.696   7.033   8.714  0.3758 -0.1606  0.9107
   33MOL0     H 4323   9.601   6.921   8.620 -2.4264 -2.0435  2.0174
   33MOL0     H 4324   9.429   7.071   8.798  0.7074 -0.1293 -0.1135
   33MOL0     H 4325   9.537   6.979   8.897 -2.0130 -0.3223  1.4232
   33MOL0     H 4326   9.495   6.773   8.775  1.8284  1.6660 -1.0176
   33MOL0     H 4327   9.371   6.843   8.676 -1.8885  3.0892  0.8289
   33MOL0     H 4328   9.349   6.838   8.992  1.0188  1.3951 -1.3034
   33MOL0     H 4329   9.252   6.922   8.881  0.7186  1.4896  0.4828
   33MOL0     H 4330   9.162   6.676   8.948 -0.9987  1.6137 -2.1416
   33MOL0     H 4331   9.311   6.627   8.847 -0.0770 -1.0220 -2.5960
   33MOL0     H 4332   9.201   6.726   8.657  2.1104  1.5718  0.2206
   33MOL0     H 4333   9.091   6.821   8.776 -2.2828 -0.6427 -1.9251
   33MOL0     H 4334   8.961   6.599   8.806  0.6707 -0.7483  0.6420
   33MOL0     H 4335   8.980   6.639   8.634  2.4539 -2.4979 -1.5907
   33MOL0     H 4336   9.183   6.478   8.627  1.2405 -1.0461  0.8348
   33MOL0     H 4337   9.029   6.400   8.658 -0.3324 -0.1159  1.0083
   33MOL0     H 4338   9.755   7.249   8.668 -1.0260  4.9512 -0.3282
   33MOL0     H 4339   9.934   7.345   8.513  1.6084 -1.8159 -0.0808
   33MOL0     H 4340   9.828   7.632   7.992  0.3466  1.3964 -0.0217
   33MOL0     H 4341   9.994   7.775   7.858  2.3914  0.8502 -0.3376
   33MOL0     H 4342  10.553   8.601   6.566 -1.8603  0.3102 -3.0300
   33MOL0     H 4343  10.513   8.780   6.391 -2.4599  4.6340 -2.0375
   33MOL0     H 4344  10.593   9.378   6.423 -0.8218 -2.1762  0.5008
   33MOL0     H 4345  10.554   9.552   6.258  0.8046 -0.3664 -1.1817
   33MOL0     H 4346  10.375   9.738   5.980  1.5791 -0.7519 -0.8587
   33MOL0     H 4347  10.460   9.704   6.118 -1.4778 -0.3762  2.1555
   33MOL0     H 4348  10.266   9.626   6.238 -0.3872 -0.6296 -0.4690
   33MOL0     H 4349  10.270   9.795   6.191  0.6421 -0.2869  1.6964
   33MOL0     H 4350  10.149   9.573   6.016  0.6381 -0.2520 -0.6282
   33MOL0     H 4351  10.122   9.744   5.987  1.3599 -1.5119 -1.2212
   33MOL0     H 4352   9.929   9.633   6.093  0.5667 -2.2042  0.0412
   33MOL0     H 4353  10.036   9.598   6.234 -3.1489 -2.4967 -0.7791
   33MOL0     H 4354   9.928   9.992   6.313 -4.4133  0.6242 -2.4978
   33MOL0     H 4355  10.338   9.282   6.010 -1.6664 -0.0536 -0.8667
   33MOL0     H 4356  10.370   9.109   6.177 -1.0745  1.1140  0.1618
   34MOL0     O 4357   0.813   2.195   0.659 -0.6251  0.5941  0.1053
   34MOL0     C 4358   0.893   2.182   0.749 -0.2871 -0.6806  1.3210
   34MOL0     O 4359   1.027   2.189   0.738  0.3086  0.5141  0.8419
   34MOL0     C 4360   1.079   2.230   0.616 -0.2796 -0.5066 -1.0778
   34MOL0     C 4361   1.128   2.363   0.601  0.3470 -0.5670  0.1851
   34MOL0     C 4362   1.173   2.410   0.477  0.1055  0.5053 -0.5712
   34MOL0     C 4363   1.177   2.319   0.372 -1.3800  0.3571 -0.1814
   34MOL0     O 4364   1.239   2.371   0.261 -0.7561  0.8098  0.3176
   34MOL0     C 4365   1.269   2.274   0.154  0.1143  0.6303  0.1972
   34MOL0     C 4366   1.361   2.327   0.053  0.1702 -0.5519 -0.4980
   34MOL0     C 4367   1.506   2.334   0.097 -0.6212  1.1656 -0.4327
   34MOL0     C 4368   1.608   2.376  -0.011 -0.4863 -0.1542 -0.1568
   34MOL0     C 4369   1.744   2.419   0.061 -0.6764  0.9590 -1.2749
   34MOL0     C 4370   1.821   2.313   0.153  0.2084 -0.5334  0.7510
   34MOL0     C 4371   1.971   2.334   0.121 -0.3728  0.1658  0.8345
   34MOL0     C 4372   2.013   2.244   0.017 -0.1831  0.6671 -0.2707
   34MOL0     N 4373   2.164   2.234   0.008  0.7237  0.2015  0.1757
   34MOL0     C 4374   2.246   2.331  -0.038 -0.9402 -0.7724  0.5882
   34MOL0     C 4375   2.368   2.281  -0.017 -0.8353  0.5164  0.2101
   34MOL0     C 4376   2.501   2.343  -0.044 -0.1105  0.6953 -1.3055
   34MOL0     C 4377   2.581   2.284  -0.161  0.3266  0.4389  0.2481
   34MOL0     C 4378   2.547   2.340  -0.297 -0.5449  0.4037 -0.1885
   34MOL0     C 4379   2.426   2.264  -0.353 -0.1045 -0.3148  0.3927
   34MOL0     O 4380   2.312   2.353  -0.347 -0.2884  0.0995 -0.2333
   34MOL0     C 4381   2.186   2.303  -0.350  0.6633  0.3528  0.2809
   34MOL0     C 4382   2.139   2.171  -0.375 -0.3292  0.1892 -0.2486
   34MOL0     C 4383   2.005   2.141  -0.365  0.2337 -0.4039 -0.7143
   34MOL0     C 4384   1.906   2.232  -0.334 -0.1063 -0.1227 -0.0251
   34MOL0     C 4385   1.763   2.191  -0.336 -0.9190 -1.3894 -0.6165
   34MOL0     O 4386   1.677   2.290  -0.360 -0.7284  0.0679  0.4010
   34MOL0     C 4387   1.546   2.257  -0.391  0.6451  0.0034  0.5497
   34MOL0     C 4388   1.517   2.186  -0.510  0.6192 -0.3879 -0.2238
   34MOL0     C 4389   1.382   2.161  -0.540  0.7847 -0.2616  0.7780
   34MOL0     C 4390   1.267   2.177  -0.453 -1.3812  0.4479  0.4578
   34MOL0     O 4391   1.138   2.144  -0.474  0.3576  0.6410  0.4716
   34MOL0     C 4392   1.089   2.166  -0.610 -0.6270  0.1747 -0.1274
   34MOL0     C 4393   0.941   2.132  -0.629 -0.5117  0.1470  1.4498
   34MOL0     C 4394   0.891   2.182  -0.770  0.5671  0.9952 -0.5692
   34MOL0     C 4395   0.742   2.152  -0.783 -0.3331 -0.0029 -0.5178
   34MOL0     C 4396   0.671   2.191  -0.914 -0.5053  0.2660  1.2894
   34MOL0     C 4397   0.646   2.338  -0.910 -0.4590  0.5577 -0.7817
   34MOL0     C 4398   0.613   2.380  -1.057 -0.1933  0.1419  0.6780
   34MOL0     C 4399   0.569   2.524  -1.070  0.2445 -0.5868  1.0375
   34MOL0    Cl 4400   0.553   2.571  -1.251  0.2184 -0.0762  0.1280
   34MOL0     C 4401   1.306   2.247  -0.330  0.2339  0.0449  0.1925
   34MOL0     C 4402   1.432   2.285  -0.305 -0.4379 -0.0788  0.0039
   34MOL0     O 4403   1.726   2.073  -0.339 -0.5832 -0.1650 -0.4983
   34MOL0     C 4404   1.943   2.362  -0.309  0.0327 -0.4949 -0.3564
   34MOL0     C 4405   2.083   2.394  -0.318  0.6052  0.5069 -0.5996
   34MOL0     N 4406   2.355   2.158   0.040 -0.6868  0.2435 -0.0414
   34MOL0     N 4407   2.231   2.135   0.063 -0.5343  0.3693 -0.4409
   34MOL0     C 4408   1.135   2.190   0.388 -0.0577  0.9146 -0.0325
   34MOL0     C 4409   1.086   2.141   0.510  0.2853  1.4333 -0.1897
   34MOL0     C 4410   0.821   2.158   0.882 -0.0256 -0.7304 -0.0952
   34MOL0     C 4411   0.690   2.114   0.884  0.2122  0.4264 -0.2546
   34MOL0     C 4412   0.625   2.106   1.003 -0.4953 -0.3467 -0.5883
   34MOL0     C 4413   0.691   2.122   1.131  0.0906 -0.0994 -0.2638
   34MOL0     O 4414   0.617   2.105   1.246  0.5470  1.0987 -0.1642
   34MOL0     C 4415   0.627   1.981   1.296  0.5327  0.3520  0.4158
   34MOL0     C 4416   0.489   1.920   1.324  0.5440  0.2698  0.1740
   34MOL0     C 4417   0.424   1.863   1.202 -0.0950  0.1234  0.4472
   34MOL0     C 4418   0.266   1.876   1.195  0.2676  0.3187  0.0336
   34MOL0     C 4419   0.210   1.795   1.305 -0.1442 -0.4282 -0.0594
   34MOL0     C 4420   0.167   1.740   1.404 -0.3248  0.9147  0.7850
   34MOL0     C 4421   0.826   2.172   1.132  0.4182 -0.2029 -0.2702
   34MOL0     C 4422   0.882   2.203   1.007 -0.1816 -0.6964 -0.4110
   34MOL0     H 4423   1.123   2.450   0.665 -0.2712 -1.4029  1.3200
   34MOL0     H 4424   1.201   2.512   0.455 -2.8878  0.7342 -4.4925
   34MOL0     H 4425   1.185   2.229   0.100  0.0558 -1.8983  2.1811
   34MOL0     H 4426   1.318   2.189   0.204 -0.7744 -0.3829 -0.6149
   34MOL0     H 4427   1.330   2.432   0.047 -3.8144 -1.6507 -2.0325
   34MOL0     H 4428   1.350   2.281  -0.046 -0.9791  3.2111 -2.3316
   34MOL0     H 4429   1.532   2.233   0.130  0.6733  1.4793 -0.4269
   34MOL0     H 4430   1.529   2.388   0.189  1.0641 -2.6414  1.6211
   34MOL0     H 4431   1.629   2.287  -0.071 -3.8248 -2.9251  2.3880
   34MOL0     H 4432   1.570   2.456  -0.077 -4.4274 -1.3746  0.3424
   34MOL0     H 4433   1.725   2.515   0.111  1.3750  1.7006 -1.8059
   34MOL0     H 4434   1.812   2.439  -0.023  1.7173 -0.0671  0.2940
   34MOL0     H 4435   1.780   2.218   0.117  1.1406  0.1946 -2.5776
   34MOL0     H 4436   1.803   2.319   0.261  0.8092 -3.3208  1.1130
   34MOL0     H 4437   2.003   2.434   0.091 -1.6654 -0.0316 -1.3781
   34MOL0     H 4438   2.032   2.303   0.206  0.3218  0.1386  0.3289
   34MOL0     H 4439   1.970   2.276  -0.078  0.4262  0.2556 -0.6945
   34MOL0     H 4440   1.969   2.146   0.037 -0.3085  0.9550  0.9630
   34MOL0     H 4441   2.221   2.428  -0.081 -0.1899 -2.1210 -3.2777
   34MOL0     H 4442   2.560   2.330   0.047 -0.3829  0.8035 -1.1120
   34MOL0     H 4443   2.483   2.450  -0.057 -3.7481  0.4864  0.7375
   34MOL0     H 4444   2.557   2.177  -0.155 -2.2189  0.9614  0.6975
   34MOL0     H 4445   2.683   2.294  -0.124 -0.5259 -0.6715  3.1255
   34MOL0     H 4446   2.520   2.446  -0.295  0.5081  0.8004  4.0401
   34MOL0     H 4447   2.627   2.323  -0.370  0.8380 -0.9615  1.5493
   34MOL0     H 4448   2.409   2.165  -0.309  1.2607 -1.3231 -1.2063
   34MOL0     H 4449   2.433   2.243  -0.461 -2.2380 -0.2836  0.2110
   34MOL0     H 4450   2.217   2.105  -0.414 -2.1759 -0.3567 -3.3817
   34MOL0     H 4451   1.966   2.043  -0.390  1.2789 -0.9734 -0.1785
   34MOL0     H 4452   1.584   2.165  -0.593 -0.7593  2.2588 -2.1782
   34MOL0     H 4453   1.361   2.105  -0.631 -0.6439  2.8613 -0.9649
   34MOL0     H 4454   1.145   2.106  -0.682 -0.7887  2.6507 -2.4512
   34MOL0     H 4455   1.096   2.272  -0.633 -4.3738  1.4696  3.4417
   34MOL0     H 4456   0.900   2.200  -0.554 -0.0573 -0.0821  1.9132
   34MOL0     H 4457   0.920   2.025  -0.617 -0.9145 -0.0475 -0.6105
   34MOL0     H 4458   0.943   2.127  -0.849 -2.4871 -0.4530 -1.7531
   34MOL0     H 4459   0.903   2.289  -0.786  0.2445  1.1416  0.1265
   34MOL0     H 4460   0.724   2.046  -0.763 -1.9628 -0.0240 -1.9122
   34MOL0     H 4461   0.690   2.205  -0.703 -2.6786 -2.3871 -0.3277
   34MOL0     H 4462   0.578   2.142  -0.944 -1.0515  1.8974  0.1590
   34MOL0     H 4463   0.749   2.168  -0.987  1.6441  0.0221  3.5297
   34MOL0     H 4464   0.733   2.396  -0.882 -2.7559  3.7155  0.3723
   34MOL0     H 4465   0.564   2.365  -0.843  2.8152  0.4148  3.6644
   34MOL0     H 4466   0.703   2.375  -1.119 -1.3486  3.0930 -1.4544
   34MOL0     H 4467   0.529   2.315  -1.083  0.9755 -1.9962  1.8748
   34MOL0     H 4468   0.632   2.591  -1.011 -0.6609 -0.3283  1.7281
   34MOL0     H 4469   0.466   2.523  -1.033 -0.0558  0.8564  0.3285
   34MOL0     H 4470   1.222   2.261  -0.263  1.6708  4.5866  1.4531
   34MOL0     H 4471   1.448   2.336  -0.211  1.1164 -0.1245 -0.2008
   34MOL0     H 4472   1.876   2.443  -0.284 -1.0071 -1.8868  1.6307
   34MOL0     H 4473   2.116   2.493  -0.285 -2.4992  0.9173  1.7116
   34MOL0     H 4474   1.124   2.130   0.299 -1.6429  1.5312 -0.2927
   34MOL0     H 4475   1.049   2.039   0.507  0.3842  1.4131 -2.4503
   34MOL0     H 4476   0.638   2.116   0.789 -0.6098  1.6338  0.1854
   34MOL0     H 4477   0.519   2.083   1.006 -0.6553 -0.2569 -3.0590
   34MOL0     H 4478   0.683   2.004   1.387  0.6099  2.6793 -0.1649
   34MOL0     H 4479   0.681   1.911   1.230  1.4920  1.3760  0.0799
   34MOL0     H 4480   0.500   1.846   1.404 -0.6813  3.4084  3.5486
   34MOL0     H 4481   0.425   1.996   1.369 -0.4050 -0.6848  0.4846
   34MOL0     H 4482   0.450   1.758   1.189  0.0163  0.4370 -2.3086
   34MOL0     H 4483   0.456   1.923   1.116 -3.1629  0.5252 -0.5446
   34MOL0     H 4484   0.239   1.981   1.191  3.3410  1.1726 -1.6960
   34MOL0     H 4485   0.228   1.833   1.101  0.8317 -1.4759  0.5847
   34MOL0     H 4486   0.129   1.694   1.493  1.1110 -1.0782  0.4318
   34MOL0     H 4487   0.853   2.208   1.231 -6.8954 -2.0070  3.0612
   34MOL0     H 4488   0.969   2.264   0.985 -0.0841  0.1375  1.9779
   35MOL0     O 4489   6.914  10.720   5.685  0.4878 -0.7659 -0.4984
   35MOL0     C 4490   6.881  10.666   5.583 -0.5055 -0.1435  0.1370
   35MOL0     O 4491   6.853  10.725   5.468  1.4566  0.0968  0.3132
   35MOL0     C 4492   6.847  10.862   5.452  1.9543 -0.0396 -0.2029
   35MOL0     C 4493   6.722  10.919   5.403  0.2251  1.1296 -0.2183
   35MOL0     C 4494   6.709  11.047   5.370 -0.6127 -0.5219  0.0587
   35MOL0     C 4495   6.824  11.128   5.359 -0.2550  1.1270  0.8885
   35MOL0     O 4496   6.822  11.256   5.304  0.2444  0.1026 -0.2023
   35MOL0     C 4497   6.767  11.263   5.179  0.5045  0.4546  0.4905
   35MOL0     C 4498   6.835  11.184   5.069  0.2767 -0.2860  0.0330
   35MOL0     C 4499   6.981  11.198   5.069 -0.6303  0.3259  0.2738
   35MOL0     C 4500   7.040  11.155   4.934 -0.6801 -0.3833  0.3337
   35MOL0     C 4501   7.039  10.990   4.912 -0.1898 -0.0208 -0.7380
   35MOL0     C 4502   7.157  10.932   4.983  0.1372  1.3086  0.4045
   35MOL0     C 4503   7.144  10.775   4.970  0.0312 -0.1814  0.0528
   35MOL0     C 4504   7.033  10.716   5.052  0.3459 -0.8206  0.1625
   35MOL0     N 4505   7.043  10.574   5.083  0.2495  0.6986 -0.6843
   35MOL0     C 4506   7.007  10.471   5.006  0.0155 -0.2420 -0.1942
   35MOL0     C 4507   7.067  10.358   5.050  0.0120 -0.1330  0.9186
   35MOL0     C 4508   7.078  10.228   4.980 -0.2042  0.4236 -0.0788
   35MOL0     C 4509   6.945  10.158   5.008  0.1621 -0.5082  0.2230
   35MOL0     C 4510   6.932  10.011   4.983 -0.0543  1.3662 -0.5999
   35MOL0     C 4511   7.008   9.928   5.090  0.5631 -1.0815 -0.0233
   35MOL0     O 4512   6.943   9.794   5.091 -0.5133  0.2680 -0.2963
   35MOL0     C 4513   7.026   9.695   5.132 -0.8982 -0.1543 -0.4534
   35MOL0     C 4514   6.992   9.572   5.083  0.5025  0.2828 -0.4012
   35MOL0     C 4515   7.064   9.455   5.121  0.0874  0.1425 -0.4530
   35MOL0     C 4516   7.175   9.468   5.206 -0.4093 -0.4522 -0.0636
   35MOL0     C 4517   7.256   9.350   5.242  0.2957 -0.8765 -0.1151
   35MOL0     O 4518   7.300   9.340   5.366 -0.0720 -0.4472 -0.5679
   35MOL0     C 4519   7.368   9.223   5.389  0.2007 -0.8044  0.7823
   35MOL0     C 4520   7.486   9.194   5.322  0.4468  0.2882  0.6706
   35MOL0     C 4521   7.538   9.065   5.311 -0.5490 -0.2605  0.2430
   35MOL0     C 4522   7.482   8.966   5.391 -1.2542  0.5991 -1.1167
   35MOL0     O 4523   7.545   8.838   5.393 -0.5726 -0.4025 -0.1220
   35MOL0     C 4524   7.687   8.842   5.380 -0.8133 -0.8199 -0.7134
   35MOL0     C 4525   7.743   8.701   5.390 -0.8769 -0.3180  0.2686
   35MOL0     C 4526   7.890   8.696   5.337 -0.1234 -0.0631  0.4009
   35MOL0     C 4527   7.990   8.797   5.399  0.4337  0.1048 -1.1378
   35MOL0     C 4528   8.126   8.756   5.359 -1.2468  0.1512 -0.9186
   35MOL0     C 4529   8.241   8.858   5.388 -0.0659 -0.4183  0.1811
   35MOL0     C 4530   8.259   8.909   5.528  0.4906 -0.8223 -0.9913
   35MOL0     C 4531   8.348   8.821   5.609  0.2452 -0.3136 -0.3682
   35MOL0    Cl 4532   8.242   8.691   5.664 -0.1586  0.1346  0.1831
   35MOL0     C 4533   7.372   8.995   5.473 -0.8774  0.1271  0.0618
   35MOL0     C 4534   7.317   9.126   5.466 -0.0570  0.0353 -0.6519
   35MOL0     O 4535   7.268   9.263   5.157  0.2341 -0.5644 -0.3238
   35MOL0     C 4536   7.213   9.597   5.254 -0.4124 -0.0647 -0.3554
   35MOL0     C 4537   7.134   9.703   5.216 -0.5363  1.2785  0.1405
   35MOL0     N 4538   7.142  10.399   5.155  0.1209 -0.7278  0.0019
   35MOL0     N 4539   7.130  10.525   5.175  0.4208 -0.7699  0.3235
   35MOL0     C 4540   6.945  11.081   5.403 -0.1556  0.0941 -0.6534
   35MOL0     C 4541   6.959  10.948   5.450  0.1314 -1.0266 -1.3176
   35MOL0     C 4542   6.879  10.516   5.581 -0.7849  0.2540 -0.1644
   35MOL0     C 4543   6.886  10.455   5.449 -0.3145 -0.0304 -0.6612
   35MOL0     C 4544   6.883  10.325   5.437  0.0118  1.1560  0.3088
   35MOL0     C 4545   6.905  10.238   5.546 -0.3431  0.0195  1.1909
   35MOL0     O 4546   6.923  10.107   5.510  0.4449  0.0426 -0.0293
   35MOL0     C 4547   6.955  10.006   5.604  1.0488  1.0053 -0.3337
   35MOL0     C 4548   7.016   9.890   5.526  0.1771  0.3115  0.6668
   35MOL0     C 4549   7.050   9.764   5.603  0.0293 -0.0701 -0.4472
   35MOL0     C 4550   7.209   9.734   5.612  0.9475 -0.3684 -0.3095
   35MOL0     C 4551   7.219   9.606   5.687  1.2456 -0.0815 -0.5378
   35MOL0     C 4552   7.247   9.508   5.750  0.2574  0.4512  0.2953
   35MOL0     C 4553   6.906  10.292   5.676 -0.7608 -0.3337  0.6040
   35MOL0     C 4554   6.897  10.433   5.694  0.3375 -0.8447  0.1179
   35MOL0     H 4555   6.637  10.853   5.394  0.7346  0.4188  0.1201
   35MOL0     H 4556   6.616  11.089   5.334 -0.1283 -0.3318 -1.0265
   35MOL0     H 4557   6.789  11.364   5.143 -0.3619 -0.2812 -2.4254
   35MOL0     H 4558   6.660  11.243   5.187  0.9558 -2.3581  0.5708
   35MOL0     H 4559   6.799  11.220   4.972  1.6117  2.0656  0.3432
   35MOL0     H 4560   6.803  11.079   5.072 -2.0679  0.3902  1.1403
   35MOL0     H 4561   7.024  11.139   5.150  1.3762 -1.1793 -1.7759
   35MOL0     H 4562   7.010  11.301   5.091 -0.8010  0.1218  1.4767
   35MOL0     H 4563   6.978  11.201   4.857 -0.6748 -2.8996 -1.2835
   35MOL0     H 4564   7.143  11.188   4.921 -0.3222 -1.1844  0.9598
   35MOL0     H 4565   7.047  10.971   4.805 -0.1578  1.2244 -0.9707
   35MOL0     H 4566   6.941  10.954   4.943 -1.4283  1.1906 -3.0104
   35MOL0     H 4567   7.148  10.965   5.087  0.4579  0.0991  0.8346
   35MOL0     H 4568   7.249  10.984   4.951  2.4618  0.2575  4.6461
   35MOL0     H 4569   7.138  10.747   4.865  0.8560 -2.0517  0.4590
   35MOL0     H 4570   7.231  10.727   5.017  0.6011  1.9447  1.3379
   35MOL0     H 4571   6.938  10.734   5.001  0.0742 -2.5238 -0.0008
   35MOL0     H 4572   7.027  10.767   5.148  0.8049 -1.3189  0.4576
   35MOL0     H 4573   6.949  10.489   4.917  0.1005  0.0220 -0.1976
   35MOL0     H 4574   7.170  10.174   5.004 -0.2390 -0.6351 -2.1537
   35MOL0     H 4575   7.076  10.244   4.872  2.0818  3.4733  0.1987
   35MOL0     H 4576   6.873  10.210   4.943  1.4132 -1.9215 -2.4311
   35MOL0     H 4577   6.914  10.172   5.112  1.1556 -1.2842  0.6414
   35MOL0     H 4578   6.827   9.987   4.996  0.4553  0.4765  2.9724
   35MOL0     H 4579   6.974   9.994   4.883  1.8736 -0.4990  0.4497
   35MOL0     H 4580   6.997   9.969   5.191 -3.0907 -1.0863 -0.2920
   35MOL0     H 4581   7.114   9.924   5.062  0.1106  0.8142 -2.4629
   35MOL0     H 4582   6.905   9.562   5.020 -0.5592 -0.5884  1.1321
   35MOL0     H 4583   7.040   9.361   5.073 -1.3521  1.3486 -2.2299
   35MOL0     H 4584   7.525   9.271   5.257 -0.6944  1.3479  1.2165
   35MOL0     H 4585   7.623   9.040   5.248 -1.2468 -1.9439 -0.0624
   35MOL0     H 4586   7.727   8.912   5.455 -0.9201 -0.2362 -1.1923
   35MOL0     H 4587   7.711   8.865   5.276  1.1178 -3.8324 -1.0573
   35MOL0     H 4588   7.679   8.636   5.329 -1.2069 -0.0611  0.3354
   35MOL0     H 4589   7.741   8.658   5.491 -3.3034  0.1108  0.4599
   35MOL0     H 4590   7.892   8.723   5.231 -5.7765  0.0262  0.0393
   35MOL0     H 4591   7.930   8.596   5.354  1.7353  0.1935 -1.8187
   35MOL0     H 4592   7.972   8.900   5.368 -0.6600  0.4345  0.4781
   35MOL0     H 4593   7.981   8.813   5.506 -2.8914  1.1247 -1.4675
   35MOL0     H 4594   8.147   8.738   5.253  0.1871  1.5791 -0.9233
   35MOL0     H 4595   8.159   8.664   5.408  0.3221 -0.2901 -2.6569
   35MOL0     H 4596   8.229   8.940   5.317  0.4450 -2.7411 -2.8407
   35MOL0     H 4597   8.333   8.808   5.355 -0.6183 -1.3422 -0.0044
   35MOL0     H 4598   8.300   9.010   5.526 -2.7554  0.6868  1.2004
   35MOL0     H 4599   8.164   8.915   5.581  0.3612 -3.6555 -0.7489
   35MOL0     H 4600   8.399   8.862   5.697 -1.4804  0.2526  0.4184
   35MOL0     H 4601   8.431   8.783   5.549  0.9221 -0.4974  0.6574
   35MOL0     H 4602   7.331   8.916   5.534  0.3085 -0.1270  0.5520
   35MOL0     H 4603   7.230   9.150   5.527  0.7449  2.3934 -0.3171
   35MOL0     H 4604   7.293   9.618   5.325 -3.7514 -0.4648  3.9676
   35MOL0     H 4605   7.164   9.799   5.256 -2.4205  0.6373  3.4736
   35MOL0     H 4606   7.025  11.153   5.387 -1.3283  1.5063 -0.4383
   35MOL0     H 4607   7.054  10.914   5.490 -0.3283  1.7697  2.8352
   35MOL0     H 4608   6.859  10.499   5.353 -1.4667  0.8887  0.0620
   35MOL0     H 4609   6.849  10.295   5.338  0.6207  0.1628  0.3861
   35MOL0     H 4610   6.865   9.961   5.648  0.5602  1.8663 -0.4383
   35MOL0     H 4611   7.019  10.041   5.685  2.2490 -4.9896  1.8205
   35MOL0     H 4612   6.940   9.862   5.452  0.8510 -0.4971  0.2560
   35MOL0     H 4613   7.107   9.924   5.476  1.1101 -1.2634  1.2098
   35MOL0     H 4614   6.999   9.689   5.542  3.3679 -1.6266 -1.5414
   35MOL0     H 4615   7.008   9.760   5.704 -1.3483 -2.0920 -1.0417
   35MOL0     H 4616   7.263   9.719   5.518 -0.6529  0.6583 -1.4593
   35MOL0     H 4617   7.251   9.824   5.658  0.1781 -1.0909  1.9419
   35MOL0     H 4618   7.280   9.420   5.800  0.1348 -0.5591 -1.3204
   35MOL0     H 4619   6.912  10.232   5.767  2.6262  0.7727  1.2815
   35MOL0     H 4620   6.903  10.484   5.789 -2.1425  0.3865 -0.3132
   36MOL0     O 4621  10.611   5.795  10.783 -0.7501 -0.2060 -0.6684
   36MOL0     C 4622  10.585   5.682  10.739  0.3027 -0.0809 -0.1215
   36MOL0     O 4623  10.635   5.628  10.621  0.2314 -0.7311 -0.0039
   36MOL0     C 4624  10.715   5.707  10.544 -0.4539  0.5907  0.9338
   36MOL0     C 4625  10.855   5.725  10.554 -0.5038  0.4073 -0.0969
   36MOL0     C 4626  10.927   5.814  10.462 -0.7904 -0.1947  0.1667
   36MOL0     C 4627  10.850   5.874  10.360 -0.8196  0.2282 -1.1306
   36MOL0     O 4628  10.916   5.958  10.279 -0.2748 -0.0467  0.7370
   36MOL0     C 4629  10.846   6.034  10.175  0.1279 -0.0765 -0.1272
   36MOL0     C 4630  10.920   6.137  10.087  0.3805  0.4343 -0.8770
   36MOL0     C 4631  10.817   6.223  10.016  0.1151  0.4411 -0.6781
   36MOL0     C 4632  10.896   6.285   9.901 -0.4183  0.2530  0.4848
   36MOL0     C 4633  10.821   6.392   9.821  0.6736 -0.5319  0.5974
   36MOL0     C 4634  10.917   6.452   9.718  1.0783  0.5598  0.0819
   36MOL0     C 4635  10.856   6.540   9.610 -0.2574  0.2214 -1.1148
   36MOL0     C 4636  10.797   6.679   9.673  0.2624  0.3495 -0.8419
   36MOL0     N 4637  10.897   6.764   9.744  0.1716  0.8102  0.2657
   36MOL0     C 4638  10.921   6.789   9.878  0.9986  0.2109  0.4641
   36MOL0     C 4639  11.047   6.823   9.888 -0.7081  0.6898  0.2414
   36MOL0     C 4640  11.096   6.856  10.025  0.8648 -0.0350 -0.5113
   36MOL0     C 4641  11.071   7.004  10.073 -0.6088  0.6988 -0.2325
   36MOL0     C 4642  11.071   7.106   9.951 -0.8241 -0.1158 -0.1806
   36MOL0     C 4643  11.213   7.133   9.904  0.7943  0.4476  0.0404
   36MOL0     O 4644  11.318   7.160  10.001 -0.1809  0.4960 -0.1716
   36MOL0     C 4645  11.334   7.280  10.069  0.0388  0.2061 -0.0955
   36MOL0     C 4646  11.419   7.295  10.176  0.4695  0.8371 -0.7857
   36MOL0     C 4647  11.415   7.415  10.245 -0.3607  0.6470 -0.1220
   36MOL0     C 4648  11.343   7.524  10.200 -0.2537 -0.4976  0.7714
   36MOL0     C 4649  11.342   7.655  10.271 -0.7331  0.4312 -0.6715
   36MOL0     O 4650  11.250   7.752  10.232  0.0183  1.0475 -0.3771
   36MOL0     C 4651  11.184   7.839  10.324 -0.5097  0.8679  0.6547
   36MOL0     C 4652  11.104   7.929  10.261  0.3111 -0.9370  1.1186
   36MOL0     C 4653  11.035   8.030  10.324 -0.3233  0.1086  0.1989
   36MOL0     C 4654  11.025   8.027  10.463 -0.7439 -0.1876  1.3917
   36MOL0     O 4655  10.953   8.121  10.524  0.0710 -0.6274 -0.1741
   36MOL0     C 4656  10.817   8.118  10.469  0.1329  0.6139  0.4239
   36MOL0     C 4657  10.740   8.194  10.582  0.7721 -0.3037 -0.1155
   36MOL0     C 4658  10.736   8.100  10.708 -0.1553  0.0876  0.4388
   36MOL0     C 4659  10.720   8.201  10.830 -0.2728  0.2910  0.3538
   36MOL0     C 4660  10.681   8.115  10.949 -0.6506  0.5376  0.0030
   36MOL0     C 4661  10.627   8.195  11.065  0.4138  0.7192  0.3142
   36MOL0     C 4662  10.553   8.114  11.171 -0.6789  0.0818  0.4898
   36MOL0     C 4663  10.479   8.204  11.275  0.4635 -0.2476 -0.8563
   36MOL0    Cl 4664  10.326   8.245  11.199 -0.2473  0.2702 -0.2565
   36MOL0     C 4665  11.112   7.935  10.530 -0.3660 -0.6481 -0.6517
   36MOL0     C 4666  11.188   7.828  10.462 -0.5467 -0.4488 -0.3007
   36MOL0     O 4667  11.439   7.672  10.348 -0.6462  0.4036 -0.4610
   36MOL0     C 4668  11.266   7.511  10.083  0.0998 -0.8293 -0.1590
   36MOL0     C 4669  11.266   7.390  10.022  0.6551 -0.0503  0.0186
   36MOL0     N 4670  11.111   6.826   9.770  0.3567  0.0402  0.7106
   36MOL0     N 4671  11.019   6.787   9.685  0.0806 -0.2993  0.6602
   36MOL0     C 4672  10.712   5.860  10.358  0.6092 -0.0904 -0.5428
   36MOL0     C 4673  10.645   5.781  10.454  0.3403  0.6253  0.5241
   36MOL0     C 4674  10.504   5.593  10.821 -0.2818  0.5367 -0.2633
   36MOL0     C 4675  10.464   5.465  10.783 -0.5925 -0.4134  0.2480
   36MOL0     C 4676  10.360   5.397  10.844  0.0383 -0.1619  0.2402
   36MOL0     C 4677  10.294   5.460  10.960 -0.0070 -0.2237  0.2208
   36MOL0     O 4678  10.189   5.385  11.019 -0.3029  0.8505 -0.2855
   36MOL0     C 4679  10.107   5.451  11.119  0.2128 -0.4808  0.5670
   36MOL0     C 4680   9.976   5.390  11.158 -0.8919  0.5321 -0.0074
   36MOL0     C 4681   9.864   5.368  11.054 -1.4042 -0.2334  0.1539
   36MOL0     C 4682   9.903   5.286  10.923 -0.0819 -0.0002 -0.2164
   36MOL0     C 4683   9.954   5.374  10.820  0.0063  0.8603 -0.7670
   36MOL0     C 4684   9.989   5.440  10.722 -0.4805 -0.7309  1.1859
   36MOL0     C 4685  10.336   5.588  11.003 -1.0023  1.1059 -0.0597
   36MOL0     C 4686  10.449   5.650  10.938 -0.3649  0.2606 -0.4723
   36MOL0     H 4687  10.903   5.682  10.642 -0.9663  1.0099  0.4653
   36MOL0     H 4688  11.032   5.837  10.474 -1.0756  0.3108  1.8856
   36MOL0     H 4689  10.769   6.096  10.221 -2.2272  0.8014 -4.7241
   36MOL0     H 4690  10.784   5.969  10.113  0.0133 -0.4036  0.3155
   36MOL0     H 4691  10.976   6.077  10.014 -0.3365 -2.6945  0.9687
   36MOL0     H 4692  10.998   6.195  10.139 -0.5460  0.6347  0.3283
   36MOL0     H 4693  10.777   6.307  10.073 -0.6406 -2.3055  3.2212
   36MOL0     H 4694  10.733   6.163   9.980  1.6434 -1.6974 -0.8393
   36MOL0     H 4695  10.984   6.338   9.941 -0.9487 -2.0039  5.3002
   36MOL0     H 4696  10.934   6.209   9.832  1.7327  0.8373  0.9385
   36MOL0     H 4697  10.764   6.468   9.876  1.5674 -0.5027  1.5124
   36MOL0     H 4698  10.743   6.356   9.753 -0.2595  5.5149 -2.1521
   36MOL0     H 4699  10.967   6.368   9.668  1.0771 -0.3060  1.4872
   36MOL0     H 4700  10.995   6.510   9.768  0.5694  0.1099  1.4592
   36MOL0     H 4701  10.940   6.561   9.542 -0.1094  1.7506 -0.4992
   36MOL0     H 4702  10.768   6.514   9.550 -0.7716  2.0522 -1.2071
   36MOL0     H 4703  10.712   6.641   9.730  1.2591  0.7094  0.9699
   36MOL0     H 4704  10.757   6.743   9.594 -0.9305  0.2886 -0.2946
   36MOL0     H 4705  10.859   6.765   9.964  0.1922  0.3065 -0.0721
   36MOL0     H 4706  11.203   6.833  10.032  0.4482 -2.0136 -0.1647
   36MOL0     H 4707  11.041   6.794  10.096  1.3846 -0.1741 -0.2234
   36MOL0     H 4708  11.152   7.024  10.144 -0.9172 -0.9955  0.6350
   36MOL0     H 4709  10.982   7.019  10.133 -0.1119  2.8583  0.0542
   36MOL0     H 4710  11.006   7.059   9.876 -2.8642  1.3877  0.5636
   36MOL0     H 4711  11.031   7.205   9.974 -1.0693  0.1457 -1.6315
   36MOL0     H 4712  11.209   7.210   9.826 -3.5394  1.4351  0.9864
   36MOL0     H 4713  11.240   7.038   9.858 -2.7252  0.3445 -2.2619
   36MOL0     H 4714  11.477   7.210  10.211 -2.3931  0.4181  3.6172
   36MOL0     H 4715  11.474   7.418  10.336 -2.3064  1.0454  1.1834
   36MOL0     H 4716  11.114   7.939  10.153  0.6457  2.5004  1.3440
   36MOL0     H 4717  10.995   8.103  10.254  2.0908  0.6774 -0.6821
   36MOL0     H 4718  10.775   8.018  10.452  0.6941  0.4122  0.2084
   36MOL0     H 4719  10.819   8.184  10.382  2.1851  1.8083  1.2912
   36MOL0     H 4720  10.639   8.203  10.540  1.2618  6.1187 -0.8761
   36MOL0     H 4721  10.772   8.297  10.597 -0.1306  0.2029 -1.4356
   36MOL0     H 4722  10.825   8.039  10.725  1.4780  1.4902 -2.3078
   36MOL0     H 4723  10.645   8.040  10.696  0.1573 -0.8848  2.5654
   36MOL0     H 4724  10.809   8.259  10.857  0.4316 -1.2557  1.5236
   36MOL0     H 4725  10.641   8.270  10.799 -1.8694 -1.4170  0.4368
   36MOL0     H 4726  10.771   8.063  10.981 -1.2108  0.3831  1.4332
   36MOL0     H 4727  10.597   8.052  10.919 -2.1536  1.5631  1.8231
   36MOL0     H 4728  10.562   8.273  11.024  0.6598 -0.8649 -3.5921
   36MOL0     H 4729  10.716   8.238  11.110  1.9347  1.3146 -2.9901
   36MOL0     H 4730  10.487   8.045  11.119 -0.2264  1.0558 -1.5083
   36MOL0     H 4731  10.631   8.051  11.214 -0.8710 -1.1039 -0.8310
   36MOL0     H 4732  10.536   8.292  11.306  2.3167 -1.7483  0.1407
   36MOL0     H 4733  10.451   8.147  11.364 -2.0806  1.3124 -0.5387
   36MOL0     H 4734  11.125   7.943  10.637 -0.4372 -1.7286 -0.5529
   36MOL0     H 4735  11.250   7.760  10.520 -0.3574 -0.6721 -0.7660
   36MOL0     H 4736  11.203   7.583  10.033 -4.1091 -3.3772  0.9911
   36MOL0     H 4737  11.217   7.397   9.925  0.0922  2.9679  0.4130
   36MOL0     H 4738  10.659   5.926  10.289 -0.2263  0.6856  0.8122
   36MOL0     H 4739  10.537   5.777  10.466  0.7421 -0.7811  5.6431
   36MOL0     H 4740  10.506   5.414  10.696 -0.5049  0.8627 -0.4884
   36MOL0     H 4741  10.328   5.301  10.804 -0.9981  0.7170 -1.1048
   36MOL0     H 4742  10.084   5.551  11.080 -0.6512 -1.3446 -1.2446
   36MOL0     H 4743  10.168   5.460  11.209  4.2974 -1.3169 -1.8295
   36MOL0     H 4744   9.997   5.295  11.206  0.9970  0.5648 -0.6977
   36MOL0     H 4745   9.935   5.453  11.238  2.1438  1.7471  0.7347
   36MOL0     H 4746   9.822   5.461  11.014  0.2550 -0.5902 -2.7460
   36MOL0     H 4747   9.779   5.316  11.097  0.4640 -6.1464 -2.3440
   36MOL0     H 4748   9.978   5.209  10.944  1.7674  1.8036  0.1612
   36MOL0     H 4749   9.819   5.232  10.879  0.0325 -1.1792  0.9316
   36MOL0     H 4750  10.019   5.505  10.642 -0.0138 -2.1285  0.1946
   36MOL0     H 4751  10.285   5.647  11.079 -0.4060 -0.0187  1.2695
   36MOL0     H 4752  10.476   5.752  10.965 -0.0537  0.0479  0.0314
   37MOL0     O 4753   6.868   0.306   7.648  0.7137 -0.7823 -1.2168
   37MOL0     C 4754   6.759   0.250   7.628 -0.3870 -0.3255 -0.0923
   37MOL0     O 4755   6.698   0.244   7.508  0.2659  0.0862 -0.3196
   37MOL0     C 4756   6.773   0.274   7.401 -1.1567 -0.3205 -0.8736
   37MOL0     C 4757   6.855   0.178   7.344 -0.3646  0.2576 -1.2887
   37MOL0     C 4758   6.938   0.202   7.230 -0.2218  0.5439 -0.1077
   37MOL0     C 4759   6.936   0.325   7.173  0.4659  0.2821  0.2444
   37MOL0     O 4760   7.007   0.339   7.053 -0.5391  0.6219  0.2647
   37MOL0     C 4761   7.108   0.437   7.076  0.7585 -0.7789 -0.6760
   37MOL0     C 4762   7.215   0.430   6.962 -0.6706 -0.0362  0.7095
   37MOL0     C 4763   7.316   0.321   7.001  0.2907  0.5384  0.5927
   37MOL0     C 4764   7.450   0.342   6.917 -0.1116  0.2694  0.0433
   37MOL0     C 4765   7.568   0.244   6.951  0.5363 -0.7867  0.3870
   37MOL0     C 4766   7.625   0.291   7.085  0.2733 -0.0945  0.5519
   37MOL0     C 4767   7.726   0.212   7.149 -0.0109  0.5562 -0.2448
   37MOL0     C 4768   7.757   0.273   7.283 -0.8090  0.6208 -0.0626
   37MOL0     N 4769   7.844   0.189   7.372 -0.3802 -0.7383 -0.1926
   37MOL0     C 4770   7.808   0.111   7.478  0.6542 -0.1637 -0.0297
   37MOL0     C 4771   7.918   0.075   7.544  0.5898  0.5109  0.5364
   37MOL0     C 4772   7.919  -0.019   7.657  0.1294  0.0667 -0.0440
   37MOL0     C 4773   7.923   0.062   7.790  1.0131 -0.2129 -0.3214
   37MOL0     C 4774   7.958  -0.036   7.905  0.0576  0.1645 -0.4326
   37MOL0     C 4775   7.926   0.031   8.046  0.0215  0.0101 -0.4223
   37MOL0     O 4776   8.008   0.144   8.082 -0.1562 -0.1914  0.8682
   37MOL0     C 4777   7.982   0.280   8.062 -0.0543  1.0681 -0.5146
   37MOL0     C 4778   7.871   0.351   7.997 -0.7502  0.7052  0.2437
   37MOL0     C 4779   7.868   0.488   7.980 -0.1169 -0.0767  0.3176
   37MOL0     C 4780   7.966   0.561   8.038 -0.1464  1.2033 -0.4059
   37MOL0     C 4781   7.967   0.715   8.031  0.0581  0.0479 -0.8096
   37MOL0     O 4782   7.857   0.770   7.971  0.9353  0.3139  0.2462
   37MOL0     C 4783   7.853   0.913   7.959 -0.4102  0.2905  0.0607
   37MOL0     C 4784   7.890   1.003   8.060  0.4151 -0.4203  0.5898
   37MOL0     C 4785   7.895   1.142   8.026 -0.6528  0.3901 -0.0599
   37MOL0     C 4786   7.842   1.191   7.906  0.0250 -1.2544  1.0376
   37MOL0     O 4787   7.839   1.324   7.875  0.6640  0.8037  0.0615
   37MOL0     C 4788   7.808   1.419   7.975 -0.5111 -0.3573  0.5476
   37MOL0     C 4789   7.703   1.503   7.907 -0.1098  1.7163 -1.2043
   37MOL0     C 4790   7.753   1.601   7.804 -0.3104 -0.6510 -0.3639
   37MOL0     C 4791   7.657   1.661   7.704 -0.9532  0.0425  0.4076
   37MOL0     C 4792   7.559   1.779   7.746  0.0377 -0.0375 -0.2326
   37MOL0     C 4793   7.429   1.778   7.683  0.4701 -0.8261 -0.9528
   37MOL0     C 4794   7.349   1.904   7.714  0.0420 -0.7011  0.1092
   37MOL0     C 4795   7.222   1.917   7.621 -0.2881 -0.1446 -0.1968
   37MOL0    Cl 4796   7.245   2.033   7.480  0.4145  0.0541  0.1672
   37MOL0     C 4797   7.781   1.104   7.825 -0.3812 -0.2482  0.2974
   37MOL0     C 4798   7.793   0.965   7.842 -1.0105  0.0939 -0.4314
   37MOL0     O 4799   8.067   0.763   8.069 -0.3266 -0.4797 -0.2004
   37MOL0     C 4800   8.078   0.495   8.106  0.3803  0.3837 -0.6340
   37MOL0     C 4801   8.089   0.357   8.115  1.8326  0.6423  0.4595
   37MOL0     N 4802   8.026   0.133   7.474  0.5160 -0.1302  0.3805
   37MOL0     N 4803   7.984   0.189   7.366  1.0103 -0.2533 -0.2090
   37MOL0     C 4804   6.859   0.430   7.232 -0.0082 -0.7566 -0.3385
   37MOL0     C 4805   6.774   0.404   7.339  0.4987  0.2211 -0.5750
   37MOL0     C 4806   6.681   0.215   7.751 -0.9423  0.4959 -1.3657
   37MOL0     C 4807   6.564   0.138   7.739  0.3336 -0.1844  0.9684
   37MOL0     C 4808   6.490   0.102   7.846  0.5930 -0.0408  0.1477
   37MOL0     C 4809   6.518   0.158   7.971  0.7705 -0.2775  0.4689
   37MOL0     O 4810   6.450   0.129   8.087  0.0902  0.1673 -0.1638
   37MOL0     C 4811   6.310   0.111   8.060 -0.1626 -0.8362 -1.2289
   37MOL0     C 4812   6.222   0.148   8.178 -0.4028  0.9725  1.1517
   37MOL0     C 4813   6.106   0.250   8.136 -0.0558  0.3548 -0.5449
   37MOL0     C 4814   6.027   0.295   8.262 -0.1864  0.3168 -0.4533
   37MOL0     C 4815   5.926   0.392   8.236  0.4254  0.1130  0.7419
   37MOL0     C 4816   5.844   0.466   8.191  0.7867 -0.9773 -0.8648
   37MOL0     C 4817   6.629   0.239   7.986  0.1859  0.1775  0.4810
   37MOL0     C 4818   6.723   0.263   7.876  0.8139  1.5048 -0.9111
   37MOL0     H 4819   6.858   0.078   7.387  2.8628  1.4364  1.6691
   37MOL0     H 4820   6.995   0.128   7.176  0.6040  0.7440  0.4796
   37MOL0     H 4821   7.151   0.432   7.177  1.4728 -0.1043 -0.9337
   37MOL0     H 4822   7.064   0.537   7.072  0.8145 -0.7140  0.2100
   37MOL0     H 4823   7.255   0.531   6.947 -4.9198  1.5384 -1.6746
   37MOL0     H 4824   7.169   0.402   6.868  0.2494  0.0986  0.2086
   37MOL0     H 4825   7.275   0.221   6.981  1.4727  0.3448 -0.9931
   37MOL0     H 4826   7.337   0.322   7.108 -2.9111 -0.7448  1.3476
   37MOL0     H 4827   7.415   0.306   6.820  4.9746 -0.8104 -1.7046
   37MOL0     H 4828   7.473   0.449   6.908 -4.9812  1.6152  0.8948
   37MOL0     H 4829   7.658   0.264   6.892  0.8305  2.2864  1.6989
   37MOL0     H 4830   7.529   0.144   6.933 -1.8173 -0.2891  2.2311
   37MOL0     H 4831   7.546   0.292   7.161 -0.2535  1.9383  0.0547
   37MOL0     H 4832   7.652   0.397   7.087  2.5768 -0.6052 -0.6130
   37MOL0     H 4833   7.682   0.114   7.168 -0.0431  1.1672  3.6121
   37MOL0     H 4834   7.808   0.203   7.078 -0.9554 -1.0894 -1.1960
   37MOL0     H 4835   7.666   0.313   7.330  0.7057  1.7446  2.0932
   37MOL0     H 4836   7.816   0.361   7.255  0.3386 -0.4802 -1.1700
   37MOL0     H 4837   7.709   0.077   7.507  0.5587 -1.4754 -1.7212
   37MOL0     H 4838   8.001  -0.092   7.655 -2.2570 -2.8406 -2.7222
   37MOL0     H 4839   7.837  -0.092   7.652  2.2935 -2.4257 -1.4409
   37MOL0     H 4840   7.829   0.107   7.823  1.2517  1.6486 -1.9846
   37MOL0     H 4841   7.994   0.145   7.783  2.9245 -1.7209  0.0535
   37MOL0     H 4842   7.897  -0.126   7.897  1.1463 -0.7370  0.8959
   37MOL0     H 4843   8.066  -0.053   7.914  0.6412  2.8471 -1.3626
   37MOL0     H 4844   7.950  -0.046   8.120 -1.5640 -0.9334 -0.8321
   37MOL0     H 4845   7.823   0.068   8.051  0.3895  1.0472 -0.4839
   37MOL0     H 4846   7.785   0.294   7.965  0.2590 -1.1182  0.6429
   37MOL0     H 4847   7.789   0.532   7.919  1.8087 -1.6021 -3.6591
   37MOL0     H 4848   7.935   0.974   8.154 -1.8844 -1.7209  1.3651
   37MOL0     H 4849   7.943   1.206   8.099  0.9427 -0.0245 -0.6960
   37MOL0     H 4850   7.893   1.488   7.986 -2.5546  1.8444  5.0681
   37MOL0     H 4851   7.789   1.371   8.071  2.4991 -1.3050  0.7890
   37MOL0     H 4852   7.650   1.558   7.985  0.9816  0.6766  0.3300
   37MOL0     H 4853   7.637   1.436   7.851 -2.3953  0.6920  2.4429
   37MOL0     H 4854   7.830   1.549   7.747 -0.4210 -1.7581  0.4764
   37MOL0     H 4855   7.804   1.685   7.853 -1.8093  0.5126 -0.7043
   37MOL0     H 4856   7.712   1.691   7.614 -1.1625 -0.5967  0.0662
   37MOL0     H 4857   7.592   1.579   7.674 -3.1748  1.3802  1.3239
   37MOL0     H 4858   7.603   1.875   7.718  1.0306 -0.9609 -2.0350
   37MOL0     H 4859   7.533   1.767   7.851 -2.1008 -0.3411 -0.7556
   37MOL0     H 4860   7.371   1.693   7.721 -4.2295  1.8629 -1.3219
   37MOL0     H 4861   7.446   1.765   7.575  0.4255 -1.3013 -0.9042
   37MOL0     H 4862   7.308   1.903   7.815 -1.4785  1.2487 -0.4191
   37MOL0     H 4863   7.414   1.992   7.708 -0.3501 -0.4847 -1.5258
   37MOL0     H 4864   7.142   1.950   7.688  3.9525  2.8165  4.0402
   37MOL0     H 4865   7.205   1.821   7.571 -0.9072 -0.1045 -0.0742
   37MOL0     H 4866   7.732   1.152   7.741  0.1023 -0.1901  0.0433
   37MOL0     H 4867   7.747   0.892   7.776 -2.1977  0.3871  0.0466
   37MOL0     H 4868   8.158   0.548   8.156 -0.6490 -0.0652  1.6363
   37MOL0     H 4869   8.164   0.306   8.174 -0.8617 -1.6958  2.1408
   37MOL0     H 4870   6.859   0.520   7.171  0.0877 -0.6232 -0.1418
   37MOL0     H 4871   6.705   0.482   7.368  1.8099  2.3586 -2.9121
   37MOL0     H 4872   6.530   0.103   7.642 -2.7757  0.3267  1.7847
   37MOL0     H 4873   6.404   0.038   7.829  1.5612 -1.5904  0.9252
   37MOL0     H 4874   6.289   0.008   8.029 -0.1331 -0.7950 -1.3909
   37MOL0     H 4875   6.273   0.177   7.981  1.9760  2.7403  0.5439
   37MOL0     H 4876   6.183   0.046   8.188 -1.4018  0.4600 -4.5630
   37MOL0     H 4877   6.283   0.179   8.263  2.8224 -0.0330 -0.6450
   37MOL0     H 4878   6.044   0.200   8.061  0.5436 -5.3224  2.2680
   37MOL0     H 4879   6.132   0.343   8.084 -1.7044  2.4021  2.0517
   37MOL0     H 4880   5.975   0.208   8.303 -0.3584  0.7077  0.1650
   37MOL0     H 4881   6.096   0.327   8.340  2.3566 -0.8127 -2.0779
   37MOL0     H 4882   5.760   0.510   8.140  1.2593  1.8257  0.5825
   37MOL0     H 4883   6.662   0.288   8.076 -0.9343  1.7509  0.0784
   37MOL0     H 4884   6.820   0.310   7.878  1.1335  1.0487 -3.1096
   38MOL0     O 4885  10.830   3.562   1.153  0.6682 -0.2627 -0.6986
   38MOL0     C 4886  10.926   3.643   1.164  0.2926  0.0288  0.7504
   38MOL0     O 4887  10.935   3.743   1.247  0.0075  0.1726  0.3010
   38MOL0     C 4888  10.832   3.790   1.322  0.0478  0.1086  0.2831
   38MOL0     C 4889  10.714   3.721   1.360 -0.2519  0.4412  0.2610
   38MOL0     C 4890  10.621   3.783   1.440  0.6821  0.7168 -0.7000
   38MOL0     C 4891  10.637   3.904   1.495  0.2001 -0.4527 -0.3642
   38MOL0     O 4892  10.549   3.957   1.584  0.0390 -0.6475 -0.4744
   38MOL0     C 4893  10.412   3.903   1.594  0.7311 -0.2266 -0.5434
   38MOL0     C 4894  10.322   3.997   1.683 -0.8215 -0.0915  0.5338
   38MOL0     C 4895  10.382   4.025   1.828  0.0684 -0.1079  0.0563
   38MOL0     C 4896  10.282   4.118   1.900 -0.0908 -0.2307 -1.0583
   38MOL0     C 4897  10.337   4.143   2.035  0.0328  0.9322  0.4129
   38MOL0     C 4898  10.238   4.215   2.129  0.0059 -0.6098 -0.1968
   38MOL0     C 4899  10.156   4.107   2.208  0.6553 -0.5542  0.3262
   38MOL0     C 4900  10.054   4.167   2.302 -0.2242 -0.0692  0.5130
   38MOL0     N 4901   9.919   4.189   2.245  0.5508  1.1248 -0.0345
   38MOL0     C 4902   9.863   4.119   2.138 -0.0816 -0.2666  0.0803
   38MOL0     C 4903   9.741   4.170   2.116 -0.2876  0.8243 -0.3539
   38MOL0     C 4904   9.650   4.147   1.996 -0.2296 -0.0619  0.5330
   38MOL0     C 4905   9.552   4.027   2.033 -1.6170 -1.1341  0.0811
   38MOL0     C 4906   9.450   4.067   2.138  0.0264 -0.8402 -0.2904
   38MOL0     C 4907   9.327   3.975   2.149  0.0012  0.4979 -0.1861
   38MOL0     O 4908   9.360   3.840   2.188 -0.0011  0.9454 -1.0185
   38MOL0     C 4909   9.259   3.745   2.191  0.2683 -0.0737  0.0523
   38MOL0     C 4910   9.293   3.611   2.216 -0.0278 -0.5373 -0.1207
   38MOL0     C 4911   9.199   3.516   2.216 -0.4522 -0.6441  0.1098
   38MOL0     C 4912   9.063   3.549   2.212 -0.3151 -0.1892 -0.3432
   38MOL0     C 4913   8.957   3.445   2.234  0.1695  1.2738 -0.2811
   38MOL0     O 4914   8.996   3.321   2.276  0.0163 -0.0367 -0.0089
   38MOL0     C 4915   8.917   3.212   2.317  0.3694 -0.7681  0.3659
   38MOL0     C 4916   8.979   3.080   2.335  0.4592  0.1333  0.0414
   38MOL0     C 4917   8.912   2.961   2.355  0.6924 -0.2892  0.9368
   38MOL0     C 4918   8.770   2.966   2.352 -0.8807  1.5866 -0.0355
   38MOL0     O 4919   8.720   2.837   2.346 -0.1277  0.0164 -0.4082
   38MOL0     C 4920   8.586   2.814   2.397 -0.2113 -0.8129  0.4374
   38MOL0     C 4921   8.564   2.663   2.404 -0.5839  0.6379 -0.2924
   38MOL0     C 4922   8.557   2.594   2.268 -1.2265 -0.2631  0.3659
   38MOL0     C 4923   8.533   2.438   2.278  0.8034 -0.8114 -0.8495
   38MOL0     C 4924   8.566   2.356   2.153  0.3504  0.7178 -0.2406
   38MOL0     C 4925   8.439   2.326   2.075  0.9194  0.5829 -0.9447
   38MOL0     C 4926   8.406   2.433   1.975 -0.0734 -0.0458 -0.4648
   38MOL0     C 4927   8.302   2.407   1.881  0.4553 -0.3585 -0.0482
   38MOL0    Cl 4928   8.150   2.388   1.988 -0.4257 -0.0939  0.2107
   38MOL0     C 4929   8.705   3.085   2.321  0.4239  0.8360 -0.8946
   38MOL0     C 4930   8.775   3.207   2.309  0.2284  0.7198  1.2199
   38MOL0     O 4931   8.842   3.479   2.216  0.1614  0.6631 -0.1050
   38MOL0     C 4932   9.017   3.684   2.195 -0.4300  0.5237 -0.8663
   38MOL0     C 4933   9.116   3.774   2.175  0.1900 -0.2086 -0.6697
   38MOL0     N 4934   9.706   4.257   2.214  0.3282  0.7595 -0.7887
   38MOL0     N 4935   9.810   4.266   2.294  0.0383 -0.7226  1.5398
   38MOL0     C 4936  10.754   3.973   1.467 -0.9742 -0.3580  0.2971
   38MOL0     C 4937  10.848   3.920   1.377 -0.7283 -0.9284 -1.0428
   38MOL0     C 4938  11.034   3.633   1.060  0.3587  0.2043 -0.2957
   38MOL0     C 4939  11.035   3.532   0.961  0.5362  0.0293  0.7214
   38MOL0     C 4940  11.129   3.531   0.859 -0.6179 -0.4321  0.7588
   38MOL0     C 4941  11.236   3.622   0.856 -0.1341 -0.4219  0.1941
   38MOL0     O 4942  11.330   3.598   0.749 -0.3902 -0.2349 -0.2405
   38MOL0     C 4943  11.436   3.692   0.728  0.3623 -0.1690 -1.0254
   38MOL0     C 4944  11.476   3.672   0.578  0.5535 -0.7307 -0.1307
   38MOL0     C 4945  11.543   3.540   0.531 -0.4073 -0.2781  0.4780
   38MOL0     C 4946  11.444   3.428   0.518 -0.1188  1.3942  0.1072
   38MOL0     C 4947  11.520   3.303   0.476 -0.6979 -0.1950 -0.6861
   38MOL0     C 4948  11.589   3.215   0.440 -0.1646  0.8052 -0.9709
   38MOL0     C 4949  11.240   3.729   0.950 -0.0231  0.0261  0.0314
   38MOL0     C 4950  11.142   3.729   1.047  0.0856 -0.2317 -0.0620
   38MOL0     H 4951  10.688   3.623   1.323  1.3029  0.6166 -1.4684
   38MOL0     H 4952  10.536   3.721   1.463  0.1072  2.0813  1.1737
   38MOL0     H 4953  10.403   3.803   1.638  4.2723 -0.9605 -1.1968
   38MOL0     H 4954  10.373   3.897   1.492  2.9578  0.8992 -1.5422
   38MOL0     H 4955  10.225   3.948   1.688 -0.1180 -1.6203 -0.1958
   38MOL0     H 4956  10.324   4.092   1.629 -1.1365  0.2727  1.1542
   38MOL0     H 4957  10.481   4.071   1.824 -0.1693  0.5320  1.1000
   38MOL0     H 4958  10.391   3.928   1.879 -2.8166  0.0362  1.0332
   38MOL0     H 4959  10.267   4.214   1.849 -0.8751  0.4183  0.3344
   38MOL0     H 4960  10.185   4.075   1.926  0.5162 -0.6040  0.7626
   38MOL0     H 4961  10.426   4.207   2.028  2.1565 -1.7397  1.0700
   38MOL0     H 4962  10.385   4.055   2.079  1.6893  0.9504 -1.2460
   38MOL0     H 4963  10.173   4.275   2.065 -2.3675 -3.6822 -0.9305
   38MOL0     H 4964  10.289   4.275   2.205 -1.1569 -2.4352  2.1639
   38MOL0     H 4965  10.106   4.036   2.142 -0.9299  1.2174 -0.4752
   38MOL0     H 4966  10.229   4.050   2.265  0.9736 -0.8439 -0.3546
   38MOL0     H 4967  10.090   4.257   2.351 -3.2441  2.3208 -1.2852
   38MOL0     H 4968  10.035   4.093   2.381 -1.4645 -0.0143  0.2905
   38MOL0     H 4969   9.918   4.052   2.074  2.0550  0.1806  1.3470
   38MOL0     H 4970   9.713   4.128   1.908  0.6122 -0.2558  1.1682
   38MOL0     H 4971   9.589   4.238   1.991  1.0672  0.9313  1.8483
   38MOL0     H 4972   9.608   3.952   2.090 -1.3166 -0.4157  0.7368
   38MOL0     H 4973   9.498   3.987   1.947 -3.9130  0.0106  0.9187
   38MOL0     H 4974   9.501   4.075   2.235  0.0347 -0.2381 -0.3428
   38MOL0     H 4975   9.410   4.166   2.117  1.6684 -0.3998 -1.5457
   38MOL0     H 4976   9.278   3.968   2.051 -0.4832 -2.1122  0.1586
   38MOL0     H 4977   9.256   4.019   2.219 -0.2687  1.7835 -1.2209
   38MOL0     H 4978   9.396   3.588   2.240 -0.1500 -1.6675 -0.6349
   38MOL0     H 4979   9.223   3.413   2.240 -2.3876 -0.7476  1.8493
   38MOL0     H 4980   9.084   3.069   2.308 -0.0123 -1.1194 -1.4113
   38MOL0     H 4981   8.972   2.874   2.378 -1.3035 -1.3892  2.3292
   38MOL0     H 4982   8.524   2.863   2.321  1.5273 -0.3199 -0.7071
   38MOL0     H 4983   8.574   2.862   2.494  0.2486 -0.0270  0.1156
   38MOL0     H 4984   8.472   2.649   2.461  0.0931  4.0312  1.9581
   38MOL0     H 4985   8.637   2.610   2.467  0.1508  1.7200 -0.2143
   38MOL0     H 4986   8.651   2.612   2.215 -1.5810 -3.3207 -1.5175
   38MOL0     H 4987   8.491   2.644   2.197  0.7735 -1.0068 -2.1702
   38MOL0     H 4988   8.596   2.400   2.359 -1.5665 -1.1506  0.9272
   38MOL0     H 4989   8.438   2.419   2.329  1.1816  0.9424  0.6417
   38MOL0     H 4990   8.611   2.258   2.169 -4.7186 -1.8456  0.6041
   38MOL0     H 4991   8.640   2.402   2.087  3.4943 -1.6897  1.3197
   38MOL0     H 4992   8.358   2.311   2.148  0.9018 -2.8543 -1.4834
   38MOL0     H 4993   8.436   2.228   2.027  2.8084 -0.1258  0.2735
   38MOL0     H 4994   8.376   2.525   2.027 -4.1878 -1.4842  0.0590
   38MOL0     H 4995   8.498   2.447   1.916  0.2990 -0.6472 -0.0355
   38MOL0     H 4996   8.306   2.311   1.829 -2.0943  0.3847 -1.8455
   38MOL0     H 4997   8.306   2.482   1.801  1.6883 -1.6690 -1.2745
   38MOL0     H 4998   8.601   3.078   2.292  0.9859  3.2058 -4.0302
   38MOL0     H 4999   8.707   3.286   2.280 -2.6483 -2.0442 -0.2421
   38MOL0     H 5000   8.914   3.718   2.186 -0.3591  0.4993 -1.8410
   38MOL0     H 5001   9.080   3.875   2.161 -1.9758 -1.2542 -4.1164
   38MOL0     H 5002  10.777   4.062   1.524 -0.1554  0.6658 -1.5347
   38MOL0     H 5003  10.937   3.979   1.355  0.0460 -1.7712 -0.2627
   38MOL0     H 5004  10.955   3.459   0.958  1.1011 -0.5798  0.0227
   38MOL0     H 5005  11.117   3.452   0.787 -2.7133  1.6854 -1.4277
   38MOL0     H 5006  11.519   3.671   0.796 -0.9457  1.0888  1.0771
   38MOL0     H 5007  11.387   3.788   0.741 -0.2802 -0.3365 -2.0948
   38MOL0     H 5008  11.391   3.693   0.512  1.0225 -0.5799 -0.6877
   38MOL0     H 5009  11.538   3.757   0.548  0.3114 -0.6539 -0.4118
   38MOL0     H 5010  11.608   3.500   0.609 -1.0266  0.4564  1.3906
   38MOL0     H 5011  11.612   3.537   0.447 -2.8263  0.7871 -1.7008
   38MOL0     H 5012  11.383   3.405   0.606 -0.8561  2.3037 -0.1392
   38MOL0     H 5013  11.376   3.467   0.441 -1.4482  0.3647  0.7218
   38MOL0     H 5014  11.657   3.139   0.408  0.3098  0.7651  0.1125
   38MOL0     H 5015  11.316   3.807   0.952 -0.8820  0.8524  1.2548
   38MOL0     H 5016  11.141   3.814   1.114  1.7197  2.8160 -3.5314
   39MOL0     O 5017   3.047   6.500  10.010  0.0377  0.4435  0.1167
   39MOL0     C 5018   3.114   6.499  10.116  0.4148  0.1831 -0.0071
   39MOL0     O 5019   3.077   6.435  10.235 -0.0900  0.0031  0.0170
   39MOL0     C 5020   2.948   6.406  10.266 -0.2042 -0.2723  0.5290
   39MOL0     C 5021   2.923   6.408  10.405 -0.1280  0.3305 -0.6556
   39MOL0     C 5022   2.784   6.387  10.450  0.4931 -0.3047  0.0553
   39MOL0     C 5023   2.679   6.363  10.354  0.5436 -0.1216  0.0475
   39MOL0     O 5024   2.544   6.371  10.384 -1.1019 -0.1975  0.8262
   39MOL0     C 5025   2.506   6.341  10.519 -0.8909  0.3803  0.0264
   39MOL0     C 5026   2.378   6.253  10.527 -0.2631 -1.5752 -0.0128
   39MOL0     C 5027   2.409   6.114  10.478 -1.2300  0.1164  0.2478
   39MOL0     C 5028   2.279   6.022  10.479 -0.3053  0.2593  0.9751
   39MOL0     C 5029   2.284   5.904  10.570  0.0696 -1.1065 -0.0450
   39MOL0     C 5030   2.396   5.808  10.541 -0.4741 -0.1617 -0.0387
   39MOL0     C 5031   2.374   5.690  10.633  0.1391 -0.5447 -0.2761
   39MOL0     C 5032   2.495   5.607  10.636 -1.0233 -0.0100 -0.1639
   39MOL0     N 5033   2.494   5.512  10.741  0.0180 -0.5930 -0.7764
   39MOL0     C 5034   2.419   5.398  10.744  0.7665  1.0579 -0.0923
   39MOL0     C 5035   2.446   5.331  10.858 -0.3541 -1.2058  0.6655
   39MOL0     C 5036   2.370   5.223  10.912 -0.1879  1.3164  1.0325
   39MOL0     C 5037   2.264   5.258  11.022  0.2918 -0.4634  1.2210
   39MOL0     C 5038   2.218   5.139  11.108 -0.4524 -0.7719 -0.9337
   39MOL0     C 5039   2.091   5.186  11.184  0.6261 -0.0200  0.1413
   39MOL0     O 5040   1.995   5.076  11.178 -0.7296 -1.1506  0.0696
   39MOL0     C 5041   1.866   5.116  11.200  0.4656  0.3086  0.7210
   39MOL0     C 5042   1.816   5.230  11.273 -1.2565  0.7255  0.3609
   39MOL0     C 5043   1.688   5.229  11.303  0.5460  0.3831  0.1701
   39MOL0     C 5044   1.597   5.128  11.256 -0.7727 -0.4795 -0.0240
   39MOL0     C 5045   1.453   5.139  11.300  0.2660  0.7445 -0.2488
   39MOL0     O 5046   1.374   5.031  11.270 -0.2201  0.1790 -0.4558
   39MOL0     C 5047   1.246   5.038  11.308  0.1292  0.0376  0.4507
   39MOL0     C 5048   1.197   4.965  11.416  0.6421 -0.4587  0.3221
   39MOL0     C 5049   1.051   4.952  11.428 -0.3052  0.7172  0.2357
   39MOL0     C 5050   0.959   5.001  11.331 -0.2138  0.3030  0.8331
   39MOL0     O 5051   0.829   4.955  11.334  0.0354  0.1701 -0.9574
   39MOL0     C 5052   0.783   4.854  11.417 -0.1473  1.3142  0.1926
   39MOL0     C 5053   0.646   4.803  11.369  0.3828  0.2579  0.6374
   39MOL0     C 5054   0.547   4.925  11.379  0.5914 -0.2258  0.1247
   39MOL0     C 5055   0.568   5.011  11.505 -0.0290 -0.0802  0.9516
   39MOL0     C 5056   0.476   5.130  11.512 -0.2523  0.8737  0.1353
   39MOL0     C 5057   0.465   5.182  11.656  0.1651 -0.8807 -0.0848
   39MOL0     C 5058   0.424   5.325  11.668  0.6325 -0.9828 -1.2536
   39MOL0     C 5059   0.335   5.328  11.784 -0.7875 -1.0621 -0.0767
   39MOL0    Cl 5060   0.399   5.277  11.947  0.0438 -0.3318 -0.2822
   39MOL0     C 5061   1.022   5.068  11.221  0.3597  0.5935 -0.9278
   39MOL0     C 5062   1.161   5.083  11.210  0.2828 -0.3243  0.0344
   39MOL0     O 5063   1.402   5.246  11.334  0.4587  0.0939 -0.1129
   39MOL0     C 5064   1.644   5.021  11.174  0.2229  0.3321 -0.8531
   39MOL0     C 5065   1.772   5.023  11.149  0.5138  0.2877  0.0965
   39MOL0     N 5066   2.535   5.406  10.928 -0.2503 -0.5077  0.8323
   39MOL0     N 5067   2.556   5.519  10.858  0.5121  0.3935 -0.2759
   39MOL0     C 5068   2.708   6.353  10.216  0.7884  0.6199 -0.4128
   39MOL0     C 5069   2.839   6.380  10.175 -0.2986 -0.6379 -1.2683
   39MOL0     C 5070   3.257   6.549  10.097  0.5781 -0.4068  0.2668
   39MOL0     C 5071   3.355   6.502  10.187  0.5186  0.8966  0.0840
   39MOL0     C 5072   3.489   6.550  10.175 -0.2312 -0.3648 -0.5024
   39MOL0     C 5073   3.525   6.645  10.083  0.4168  0.1807 -0.2500
   39MOL0     O 5074   3.648   6.700  10.093 -0.4638 -0.7613  0.4265
   39MOL0     C 5075   3.747   6.637  10.011 -0.6210  0.3197  0.7148
   39MOL0     C 5076   3.874   6.597  10.084 -0.5765 -0.2126 -0.4141
   39MOL0     C 5077   3.863   6.486  10.184  0.2457 -0.2878  0.4493
   39MOL0     C 5078   3.998   6.436  10.231 -0.1879  0.3310  0.1967
   39MOL0     C 5079   4.061   6.548  10.306  1.0003  0.0542  0.8285
   39MOL0     C 5080   4.109   6.644  10.368 -0.1552  0.7485  1.0193
   39MOL0     C 5081   3.439   6.672   9.981 -0.6970 -0.8953 -1.1257
   39MOL0     C 5082   3.302   6.634   9.993 -0.1505  0.4067  0.4264
   39MOL0     H 5083   3.013   6.426  10.463  2.3464  0.1987 -4.1410
   39MOL0     H 5084   2.750   6.418  10.549  0.7388  2.9909 -0.7799
   39MOL0     H 5085   2.499   6.436  10.572 -0.8710  0.2445  0.2789
   39MOL0     H 5086   2.583   6.288  10.576 -0.7136 -1.1209 -1.5004
   39MOL0     H 5087   2.296   6.305  10.476 -0.7069 -2.1675  0.0789
   39MOL0     H 5088   2.336   6.243  10.627 -1.5251  3.0054  0.1327
   39MOL0     H 5089   2.491   6.088  10.546 -0.0134  4.1491  0.5487
   39MOL0     H 5090   2.461   6.109  10.382 -1.9815  0.8395 -0.2039
   39MOL0     H 5091   2.196   6.087  10.508  1.9057  3.2627  0.9696
   39MOL0     H 5092   2.256   5.989  10.377 -3.1821  3.6183  0.3532
   39MOL0     H 5093   2.185   5.858  10.563  0.1344 -1.2235 -0.2111
   39MOL0     H 5094   2.299   5.938  10.673 -0.5557 -0.5893 -0.1188
   39MOL0     H 5095   2.493   5.854  10.564  0.2198 -0.4957 -2.0715
   39MOL0     H 5096   2.398   5.789  10.433  2.2079 -0.2522 -0.0585
   39MOL0     H 5097   2.371   5.731  10.734  2.6901  1.9752 -1.0733
   39MOL0     H 5098   2.294   5.621  10.606  3.4519 -4.6324 -0.6926
   39MOL0     H 5099   2.587   5.667  10.640  0.0326 -1.3303 -2.5718
   39MOL0     H 5100   2.503   5.548  10.544 -0.5471 -2.9321  1.6278
   39MOL0     H 5101   2.355   5.359  10.665  3.5777  1.3907 -2.7075
   39MOL0     H 5102   2.444   5.156  10.955 -0.7053  0.5170  0.7062
   39MOL0     H 5103   2.321   5.175  10.826  0.7198  1.2029  0.5689
   39MOL0     H 5104   2.186   5.306  10.962  0.9875  1.4778  1.7741
   39MOL0     H 5105   2.304   5.335  11.089  3.7239  0.4079 -1.4751
   39MOL0     H 5106   2.191   5.048  11.054 -0.1670 -2.5438  1.6950
   39MOL0     H 5107   2.284   5.100  11.185 -3.0197 -0.7840  1.4382
   39MOL0     H 5108   2.053   5.280  11.142  0.4353  0.8887  2.2404
   39MOL0     H 5109   2.102   5.213  11.289  0.7698 -0.0439  0.1319
   39MOL0     H 5110   1.883   5.307  11.311 -1.8119  1.4815 -0.1744
   39MOL0     H 5111   1.666   5.302  11.381  0.3809 -1.6526  2.1450
   39MOL0     H 5112   1.254   4.918  11.495  1.4079  2.6766  1.7866
   39MOL0     H 5113   1.022   4.892  11.514  0.8815  0.4746  0.4869
   39MOL0     H 5114   0.787   4.883  11.523 -1.5977  2.7615 -0.1236
   39MOL0     H 5115   0.836   4.758  11.413 -1.8662  0.3789 -0.9373
   39MOL0     H 5116   0.606   4.733  11.443 -1.8916  1.1796  0.3589
   39MOL0     H 5117   0.636   4.755  11.271 -3.0734 -1.6877  1.7765
   39MOL0     H 5118   0.443   4.892  11.375  0.6183 -0.5437  1.4498
   39MOL0     H 5119   0.566   4.982  11.288 -1.1897  0.4285  0.1142
   39MOL0     H 5120   0.550   4.944  11.590 -2.0095 -2.9021 -1.5047
   39MOL0     H 5121   0.667   5.057  11.512 -0.8495  1.9464  0.0858
   39MOL0     H 5122   0.377   5.091  11.486  0.2482 -0.4972  0.2016
   39MOL0     H 5123   0.497   5.197  11.428 -1.2349 -0.4286 -1.2278
   39MOL0     H 5124   0.556   5.164  11.714  0.0936  0.3916  0.4443
   39MOL0     H 5125   0.387   5.119  11.701 -1.3321  0.5416 -0.6016
   39MOL0     H 5126   0.501   5.400  11.688 -1.2706  0.7075  0.1107
   39MOL0     H 5127   0.380   5.354  11.572  2.9979 -2.2420 -2.8063
   39MOL0     H 5128   0.238   5.288  11.753 -0.8655  0.8987 -2.7777
   39MOL0     H 5129   0.309   5.434  11.794 -0.4440 -0.9266 -0.5715
   39MOL0     H 5130   0.958   5.098  11.139  0.4985  0.5199 -1.0628
   39MOL0     H 5131   1.202   5.112  11.114  2.0653 -5.2883 -1.0110
   39MOL0     H 5132   1.566   4.951  11.147 -2.7316  2.7006  0.9126
   39MOL0     H 5133   1.815   4.940  11.094 -1.4457 -0.2489 -0.7097
   39MOL0     H 5134   2.630   6.332  10.144  0.7158 -0.5939 -0.0104
   39MOL0     H 5135   2.833   6.416  10.073 -3.0559 -1.9092 -1.6704
   39MOL0     H 5136   3.332   6.420  10.254 -0.1753  2.0156  1.2601
   39MOL0     H 5137   3.561   6.525  10.253 -2.6321  0.6394  2.2443
   39MOL0     H 5138   3.779   6.696   9.924  1.3822 -0.8899  0.5714
   39MOL0     H 5139   3.709   6.542   9.973  1.4653  0.4876 -2.1209
   39MOL0     H 5140   3.957   6.570  10.019  0.6724  1.0458  0.5914
   39MOL0     H 5141   3.913   6.678  10.146 -0.8738 -0.1994 -0.2390
   39MOL0     H 5142   3.802   6.414  10.130 -0.7009  1.1254 -0.4423
   39MOL0     H 5143   3.801   6.519  10.268 -2.3506  2.2667 -2.2146
   39MOL0     H 5144   3.978   6.345  10.288  0.4658 -1.5778 -2.4113
   39MOL0     H 5145   4.060   6.413  10.143 -0.6567 -1.0416  0.1995
   39MOL0     H 5146   4.155   6.723  10.423  0.6008  0.4689  0.7967
   39MOL0     H 5147   3.470   6.736   9.899 -1.2182  0.8632  0.0120
   39MOL0     H 5148   3.237   6.667   9.912  0.2818  0.4966  0.1120
   40MOL0     O 5149   8.864   1.103   0.168  0.3353 -0.5910 -0.2388
   40MOL0     C 5150   8.768   1.085   0.095  0.2051 -0.2161 -0.5532
   40MOL0     O 5151   8.719   1.164  -0.001  0.0283 -0.9516 -0.0848
   40MOL0     C 5152   8.813   1.257  -0.053  0.0006  0.3061 -0.3969
   40MOL0     C 5153   8.762   1.385  -0.083 -0.7448 -0.1074 -0.6259
   40MOL0     C 5154   8.847   1.492  -0.101  0.1141 -0.2494  1.4286
   40MOL0     C 5155   8.986   1.473  -0.107 -0.5195  0.0626  0.1926
   40MOL0     O 5156   9.056   1.578  -0.149 -0.7533  0.2125  0.3936
   40MOL0     C 5157   9.191   1.588  -0.195 -0.4950  0.3095 -0.9030
   40MOL0     C 5158   9.213   1.744  -0.232 -0.2014 -0.6196  0.3522
   40MOL0     C 5159   9.178   1.783  -0.388  0.3188 -0.5512  0.4745
   40MOL0     C 5160   9.031   1.778  -0.415 -0.3434  0.6590 -0.5907
   40MOL0     C 5161   8.977   1.803  -0.555  0.4564 -0.2384  0.4738
   40MOL0     C 5162   8.824   1.767  -0.577 -0.6668 -0.5090  0.1585
   40MOL0     C 5163   8.788   1.620  -0.555 -0.3222  0.6528  0.4765
   40MOL0     C 5164   8.844   1.524  -0.666  0.2474 -0.0854 -0.5469
   40MOL0     N 5165   8.795   1.393  -0.629  0.1609  0.3019 -0.1201
   40MOL0     C 5166   8.800   1.330  -0.509 -0.4096  0.9327  0.3199
   40MOL0     C 5167   8.723   1.225  -0.529  0.4175  0.4273 -0.7963
   40MOL0     C 5168   8.695   1.129  -0.409  0.9557 -0.7562  0.0791
   40MOL0     C 5169   8.687   0.973  -0.455 -0.2806  0.1999 -0.5967
   40MOL0     C 5170   8.811   0.924  -0.515  0.3396 -0.7649  0.5573
   40MOL0     C 5171   8.921   0.916  -0.407 -0.8473 -0.4455  0.6494
   40MOL0     O 5172   8.907   0.865  -0.287  0.3737 -0.3338 -0.7331
   40MOL0     C 5173   8.874   0.731  -0.267  0.0638 -0.0055 -0.8711
   40MOL0     C 5174   8.879   0.626  -0.363 -0.0228 -0.4823 -0.0404
   40MOL0     C 5175   8.840   0.494  -0.342 -0.1963  0.6800 -0.1140
   40MOL0     C 5176   8.817   0.463  -0.202 -0.0684 -1.0131 -0.3028
   40MOL0     C 5177   8.809   0.321  -0.154  0.7189 -0.2666  0.0083
   40MOL0     O 5178   8.736   0.301  -0.035  0.1118  0.1991 -0.1762
   40MOL0     C 5179   8.713   0.172   0.012  0.0931 -1.0157 -0.3811
   40MOL0     C 5180   8.618   0.085  -0.046 -0.1346  0.1250  0.0837
   40MOL0     C 5181   8.594  -0.043   0.010 -0.2241 -1.1954  1.0217
   40MOL0     C 5182   8.651  -0.080   0.126  1.1250  0.4887 -0.0196
   40MOL0     O 5183   8.629  -0.205   0.169 -0.0930  0.2828 -0.6469
   40MOL0     C 5184   8.734  -0.300   0.160 -0.0290  0.0954 -0.0110
   40MOL0     C 5185   8.699  -0.416   0.262  0.1178  0.1917  0.3858
   40MOL0     C 5186   8.770  -0.394   0.397 -0.2578  0.1165  0.5691
   40MOL0     C 5187   8.727  -0.488   0.507  0.5759 -0.4029 -0.1949
   40MOL0     C 5188   8.775  -0.452   0.638 -0.6579  0.6152 -0.7991
   40MOL0     C 5189   8.715  -0.319   0.685  0.2041 -0.3329 -0.2277
   40MOL0     C 5190   8.726  -0.329   0.842 -0.9650  0.7320 -0.9170
   40MOL0     C 5191   8.677  -0.200   0.898 -0.2514  0.5626  0.0043
   40MOL0    Cl 5192   8.777  -0.059   0.884  0.0963  0.3577  0.8473
   40MOL0     C 5193   8.734   0.017   0.189 -0.1050 -0.5412 -1.2688
   40MOL0     C 5194   8.766   0.144   0.134  0.1880  0.6783  0.1603
   40MOL0     O 5195   8.867   0.233  -0.220  0.4387 -0.5771  0.1947
   40MOL0     C 5196   8.808   0.569  -0.109 -0.3177  0.8649 -0.5623
   40MOL0     C 5197   8.840   0.696  -0.132  0.6411  0.6131  1.0509
   40MOL0     N 5198   8.677   1.215  -0.657  0.3080 -0.3501  0.2299
   40MOL0     N 5199   8.714   1.324  -0.713 -0.3721 -0.6257  0.1881
   40MOL0     C 5200   9.040   1.347  -0.080  0.3273 -0.3188  0.4893
   40MOL0     C 5201   8.958   1.241  -0.061  0.8399 -0.0854 -0.1772
   40MOL0     C 5202   8.700   0.955   0.110 -0.0433 -0.3123 -0.3766
   40MOL0     C 5203   8.750   0.856   0.194  0.1954 -0.1632 -0.2436
   40MOL0     C 5204   8.670   0.739   0.214 -1.2241 -0.3674 -0.5459
   40MOL0     C 5205   8.551   0.715   0.158  0.0567 -0.4072 -0.9036
   40MOL0     O 5206   8.475   0.608   0.179  0.7102  0.1540  0.6972
   40MOL0     C 5207   8.545   0.478   0.191 -0.5985 -0.5657 -0.9162
   40MOL0     C 5208   8.476   0.390   0.307 -0.0341  0.3439 -0.5818
   40MOL0     C 5209   8.356   0.310   0.262 -0.1809  0.1406 -0.1707
   40MOL0     C 5210   8.250   0.312   0.362 -0.7259  0.6062  0.2806
   40MOL0     C 5211   8.124   0.250   0.311 -0.2046 -1.4788  0.1294
   40MOL0     C 5212   8.014   0.216   0.269  0.1799 -0.3142 -1.2454
   40MOL0     C 5213   8.503   0.808   0.070  0.0862  1.0038  0.2750
   40MOL0     C 5214   8.576   0.931   0.040 -1.2391  0.1571  1.3217
   40MOL0     H 5215   8.656   1.410  -0.078 -0.5889  0.3363  0.7749
   40MOL0     H 5216   8.815   1.596  -0.098 -0.6991 -0.4575  0.6660
   40MOL0     H 5217   9.207   1.534  -0.289  2.9286 -0.4615  0.0005
   40MOL0     H 5218   9.265   1.551  -0.123 -2.0880  0.1558  0.7283
   40MOL0     H 5219   9.318   1.772  -0.219  0.1901 -2.6300  2.2418
   40MOL0     H 5220   9.150   1.802  -0.165  2.0343  0.4622  1.5961
   40MOL0     H 5221   9.230   1.726  -0.465 -1.3714  0.7080 -1.6928
   40MOL0     H 5222   9.214   1.885  -0.397 -0.0349 -0.6204 -3.3253
   40MOL0     H 5223   9.012   1.672  -0.398  1.2466  0.2482 -1.2018
   40MOL0     H 5224   8.992   1.837  -0.332 -0.1682 -0.5712  0.3860
   40MOL0     H 5225   9.046   1.744  -0.616 -0.2130  1.1737 -1.7916
   40MOL0     H 5226   8.987   1.907  -0.589  1.2629  0.8348  3.7128
   40MOL0     H 5227   8.794   1.804  -0.676 -1.2809 -2.7515 -0.5528
   40MOL0     H 5228   8.769   1.819  -0.499 -2.1717 -2.5484  0.5132
   40MOL0     H 5229   8.818   1.602  -0.451 -2.0002 -0.5952  0.7913
   40MOL0     H 5230   8.680   1.603  -0.554 -0.1305 -1.3874 -2.0223
   40MOL0     H 5231   8.953   1.523  -0.660  0.2538  1.8079  0.4937
   40MOL0     H 5232   8.810   1.560  -0.764 -2.8863  2.8203  1.3966
   40MOL0     H 5233   8.862   1.364  -0.427  0.9387 -3.1637  1.2024
   40MOL0     H 5234   8.603   1.150  -0.354  1.3179 -1.1359  0.8545
   40MOL0     H 5235   8.770   1.143  -0.330  0.1713  2.9048  0.3275
   40MOL0     H 5236   8.602   0.970  -0.524  1.3776  0.1683 -2.7589
   40MOL0     H 5237   8.654   0.903  -0.378 -1.8878 -0.9664 -2.2605
   40MOL0     H 5238   8.799   0.825  -0.561 -0.7520 -1.0014  1.2977
   40MOL0     H 5239   8.843   0.983  -0.602  3.0814 -0.7697  1.4910
   40MOL0     H 5240   8.953   1.019  -0.386  2.0503 -1.6331  2.5764
   40MOL0     H 5241   9.005   0.865  -0.455 -0.6385 -0.9034  1.4906
   40MOL0     H 5242   8.908   0.647  -0.466  0.4818 -1.1284 -0.0339
   40MOL0     H 5243   8.847   0.429  -0.428 -0.1707  2.3945 -1.4614
   40MOL0     H 5244   8.564   0.113  -0.136 -0.2530 -2.3292 -0.6907
   40MOL0     H 5245   8.544  -0.117  -0.052 -0.6023  0.3045 -0.5466
   40MOL0     H 5246   8.834  -0.258   0.176  1.0618 -1.4672 -2.0966
   40MOL0     H 5247   8.739  -0.334   0.056  2.3629 -0.6979  0.3006
   40MOL0     H 5248   8.712  -0.517   0.222  1.1678  0.9748 -1.3419
   40MOL0     H 5249   8.592  -0.404   0.279  0.2967  1.8923  0.5100
   40MOL0     H 5250   8.758  -0.289   0.424  1.6142 -0.0598  2.3070
   40MOL0     H 5251   8.878  -0.409   0.394 -0.1174  0.7132  1.9620
   40MOL0     H 5252   8.617  -0.488   0.511  0.4821  0.8849  5.8639
   40MOL0     H 5253   8.761  -0.589   0.482  0.3213 -0.3286 -0.8723
   40MOL0     H 5254   8.884  -0.448   0.629 -0.8058  1.8390 -2.7531
   40MOL0     H 5255   8.751  -0.534   0.705  0.7306  0.2443 -0.7295
   40MOL0     H 5256   8.615  -0.293   0.650 -0.4734  1.1655  2.4911
   40MOL0     H 5257   8.774  -0.234   0.648  0.1347 -0.6766 -1.1515
   40MOL0     H 5258   8.657  -0.406   0.878  1.5295 -1.0998  0.2724
   40MOL0     H 5259   8.832  -0.348   0.862 -0.2624  0.1051 -4.6005
   40MOL0     H 5260   8.658  -0.204   1.006  1.4668  0.1289  0.3286
   40MOL0     H 5261   8.576  -0.197   0.857  0.1318  0.1056 -0.9933
   40MOL0     H 5262   8.775  -0.020   0.282  0.1328 -1.9740 -1.9108
   40MOL0     H 5263   8.835   0.207   0.188 -0.1715  1.0629  0.1815
   40MOL0     H 5264   8.791   0.536  -0.007 -0.2720  1.9412 -0.1961
   40MOL0     H 5265   8.849   0.773  -0.056 -0.1181  2.1304 -0.3456
   40MOL0     H 5266   9.148   1.338  -0.081  0.4519  0.7525 -1.3449
   40MOL0     H 5267   8.988   1.142  -0.029  0.5419  1.1319  4.6277
   40MOL0     H 5268   8.835   0.880   0.258 -0.0899 -2.6475  1.2214
   40MOL0     H 5269   8.722   0.655   0.260 -1.8201 -1.8930 -2.5211
   40MOL0     H 5270   8.653   0.483   0.206 -0.9297  0.6284  1.3368
   40MOL0     H 5271   8.539   0.432   0.091 -0.4518  0.7078 -1.5307
   40MOL0     H 5272   8.549   0.318   0.345  3.2356  4.0066  0.7726
   40MOL0     H 5273   8.444   0.454   0.390  1.6262  1.7788 -0.9852
   40MOL0     H 5274   8.380   0.204   0.247  1.6701  0.4987  0.0021
   40MOL0     H 5275   8.323   0.349   0.165 -1.5704  2.0327  0.9925
   40MOL0     H 5276   8.290   0.255   0.446  1.5072 -1.7578 -2.2172
   40MOL0     H 5277   8.224   0.412   0.401 -0.6028 -0.1311  2.3977
   40MOL0     H 5278   7.915   0.196   0.234 -0.5145 -2.4678  1.5326
   40MOL0     H 5279   8.408   0.797   0.019  0.4203  1.5865 -0.4957
   40MOL0     H 5280   8.539   1.008  -0.028 -1.7152  0.8571  2.3583
   41MOL0     O 5281   1.173   2.925   4.525 -0.0073  0.2175  0.6621
   41MOL0     C 5282   1.125   3.031   4.569 -0.4770 -0.0989 -0.3693
   41MOL0     O 5283   1.016   3.038   4.660  0.2047  0.5053 -0.0734
   41MOL0     C 5284   0.962   2.919   4.710  0.0459 -0.2071  0.9522
   41MOL0     C 5285   0.837   2.893   4.669  0.9444  1.0755  0.8440
   41MOL0     C 5286   0.767   2.775   4.700  0.0068  0.8556 -0.4840
   41MOL0     C 5287   0.825   2.680   4.790 -0.0244  0.1413  0.1483
   41MOL0     O 5288   0.760   2.566   4.815 -0.2606  0.4307 -0.3590
   41MOL0     C 5289   0.652   2.578   4.912  0.3435  0.4476  0.4110
   41MOL0     C 5290   0.555   2.461   4.905  0.7605 -0.0612 -0.1129
   41MOL0     C 5291   0.617   2.319   4.931  0.1479  0.4047  0.2244
   41MOL0     C 5292   0.513   2.217   4.920  0.9901  0.3280 -0.8552
   41MOL0     C 5293   0.574   2.077   4.893 -0.4256  0.5518 -0.7874
   41MOL0     C 5294   0.475   1.962   4.920  1.0104 -0.1544  0.3066
   41MOL0     C 5295   0.546   1.826   4.898 -0.5049 -0.3905  0.3539
   41MOL0     C 5296   0.546   1.787   4.754  0.1353 -0.2576  1.0531
   41MOL0     N 5297   0.578   1.642   4.753  0.1396  0.0366  0.3617
   41MOL0     C 5298   0.512   1.540   4.814 -0.3885 -0.1782 -0.0043
   41MOL0     C 5299   0.576   1.430   4.774  0.2166  0.0531  1.0221
   41MOL0     C 5300   0.541   1.296   4.824 -0.5629 -0.3138 -0.8482
   41MOL0     C 5301   0.667   1.207   4.839 -0.1203 -0.2232  0.5801
   41MOL0     C 5302   0.625   1.071   4.908 -1.0163 -0.6941 -0.4846
   41MOL0     C 5303   0.726   0.966   4.882 -0.0436 -1.0935  0.1425
   41MOL0     O 5304   0.705   0.906   4.755  0.5109  0.3889  0.3558
   41MOL0     C 5305   0.808   0.835   4.700 -0.2708  0.0435 -0.7368
   41MOL0     C 5306   0.847   0.871   4.567 -0.6288  0.6404 -0.2447
   41MOL0     C 5307   0.957   0.808   4.507  0.2137  0.8983  0.5582
   41MOL0     C 5308   1.023   0.696   4.575  0.0650 -0.4801  0.2545
   41MOL0     C 5309   1.116   0.608   4.502 -0.2008  0.6793 -1.1508
   41MOL0     O 5310   1.103   0.575   4.366  0.6403  0.4313  0.4416
   41MOL0     C 5311   1.211   0.506   4.314  0.7357  0.9713  0.3586
   41MOL0     C 5312   1.335   0.568   4.279  0.3165  0.2583 -0.8328
   41MOL0     C 5313   1.444   0.494   4.230  0.5714  0.4480  0.4817
   41MOL0     C 5314   1.438   0.350   4.218  0.2580 -0.6083 -0.7537
   41MOL0     O 5315   1.536   0.285   4.143  0.8815  0.5379  0.9444
   41MOL0     C 5316   1.491   0.219   4.024 -0.1289  0.5295  0.1735
   41MOL0     C 5317   1.421   0.303   3.921 -0.5963  0.2110  0.4404
   41MOL0     C 5318   1.390   0.247   3.782  0.4703 -0.5859 -0.1005
   41MOL0     C 5319   1.294   0.331   3.699 -0.3503  1.1380 -0.3649
   41MOL0     C 5320   1.232   0.264   3.573  0.3593 -0.2678 -1.0667
   41MOL0     C 5321   1.214   0.113   3.574  0.5398 -0.4834 -0.3531
   41MOL0     C 5322   1.096   0.072   3.666 -0.1518  0.2740  0.0302
   41MOL0     C 5323   0.957   0.119   3.639 -0.8572  0.1018 -0.4155
   41MOL0    Cl 5324   0.910   0.053   3.477  0.5544 -0.0680  0.2071
   41MOL0     C 5325   1.311   0.292   4.249  0.1826 -0.0554 -0.3458
   41MOL0     C 5326   1.206   0.370   4.293  0.6639 -0.0184  0.6574
   41MOL0     O 5327   1.219   0.602   4.572  0.8223 -1.2355 -0.3431
   41MOL0     C 5328   0.990   0.680   4.709  0.9404 -0.5373  0.2871
   41MOL0     C 5329   0.888   0.752   4.775 -1.0566 -0.2502  0.0910
   41MOL0     N 5330   0.683   1.471   4.690  0.2389 -1.1287 -0.5565
   41MOL0     N 5331   0.674   1.595   4.670  0.1820 -0.1807 -0.4386
   41MOL0     C 5332   0.954   2.706   4.835 -0.1693  0.7279  0.0564
   41MOL0     C 5333   1.020   2.827   4.792  0.6049 -0.3161  0.6495
   41MOL0     C 5334   1.158   3.149   4.489 -0.8606 -0.3143  0.8460
   41MOL0     C 5335   1.216   3.136   4.364 -0.1639 -0.0392 -0.1507
   41MOL0     C 5336   1.228   3.252   4.286 -0.1509  1.1315  0.4432
   41MOL0     C 5337   1.167   3.374   4.320  0.3326 -0.0874  0.0045
   41MOL0     O 5338   1.173   3.497   4.248  0.3974 -0.2397  0.1860
   41MOL0     C 5339   1.291   3.534   4.183  0.1438  0.8389  0.1928
   41MOL0     C 5340   1.255   3.494   4.044 -0.1183  0.0079 -0.8649
   41MOL0     C 5341   1.382   3.508   3.951  0.4893  0.9245 -0.5885
   41MOL0     C 5342   1.499   3.404   3.965  0.3369  0.6924 -0.6126
   41MOL0     C 5343   1.617   3.460   3.891  0.2606  0.3805 -0.9174
   41MOL0     C 5344   1.718   3.489   3.828  0.0758  0.4803 -0.8530
   41MOL0     C 5345   1.101   3.378   4.447 -0.7138  0.2491  0.0153
   41MOL0     C 5346   1.109   3.268   4.534 -0.4878 -0.2684 -0.5505
   41MOL0     H 5347   0.780   2.955   4.601 -0.7320 -1.7027 -0.4671
   41MOL0     H 5348   0.672   2.749   4.656  0.6877 -2.4599 -0.2572
   41MOL0     H 5349   0.594   2.665   4.880  3.3405  3.8810  3.3889
   41MOL0     H 5350   0.676   2.590   5.018  3.2543 -0.7777 -0.0130
   41MOL0     H 5351   0.512   2.467   4.805  1.5372 -2.5826 -0.6749
   41MOL0     H 5352   0.477   2.480   4.979  2.1568 -1.8845  1.9829
   41MOL0     H 5353   0.654   2.305   5.033  2.6421 -1.3526 -0.8388
   41MOL0     H 5354   0.697   2.306   4.857 -0.9419 -0.1259 -0.9043
   41MOL0     H 5355   0.446   2.220   5.006  1.0457 -0.6654 -0.7622
   41MOL0     H 5356   0.448   2.242   4.836 -0.2388  3.3530  0.8497
   41MOL0     H 5357   0.649   2.056   4.970 -1.7844 -3.1012 -0.2561
   41MOL0     H 5358   0.624   2.055   4.798 -0.2086  2.6471 -1.2142
   41MOL0     H 5359   0.392   1.963   4.849  0.5785  0.2921  0.8124
   41MOL0     H 5360   0.430   1.986   5.016  0.7229  1.9582 -0.2901
   41MOL0     H 5361   0.651   1.836   4.926 -0.3736  1.4163 -0.5737
   41MOL0     H 5362   0.480   1.755   4.947 -2.6893  1.5525  0.4362
   41MOL0     H 5363   0.629   1.828   4.696  2.1340 -2.6489  2.0142
   41MOL0     H 5364   0.459   1.817   4.695  1.2441  0.8666 -0.0674
   41MOL0     H 5365   0.424   1.554   4.876  0.8771  1.4461  1.5110
   41MOL0     H 5366   0.471   1.248   4.756 -0.2387 -1.6544 -0.2616
   41MOL0     H 5367   0.499   1.313   4.923 -2.4173  3.3546 -2.0977
   41MOL0     H 5368   0.752   1.259   4.883  2.2970 -2.5436 -1.0465
   41MOL0     H 5369   0.696   1.172   4.739  1.3288 -2.0197  1.5829
   41MOL0     H 5370   0.618   1.096   5.014 -2.8995 -0.5815 -0.5966
   41MOL0     H 5371   0.525   1.031   4.888 -1.2166 -0.0479 -0.7967
   41MOL0     H 5372   0.699   0.888   4.954 -1.4694  0.8467  1.8540
   41MOL0     H 5373   0.831   0.983   4.910 -0.0607 -2.8623  1.4482
   41MOL0     H 5374   0.789   0.949   4.519  1.7030  3.2022  0.8030
   41MOL0     H 5375   0.989   0.827   4.405  1.5004 -0.2713  0.7177
   41MOL0     H 5376   1.353   0.674   4.297  0.2628  0.1458 -0.1081
   41MOL0     H 5377   1.531   0.551   4.200  0.5597 -1.8184 -5.2018
   41MOL0     H 5378   1.424   0.138   4.052 -0.0215 -1.0134 -3.4257
   41MOL0     H 5379   1.578   0.164   3.988  0.7937 -0.4797  3.5876
   41MOL0     H 5380   1.477   0.396   3.905 -2.7896  1.7401  1.2076
   41MOL0     H 5381   1.326   0.331   3.967 -1.6226 -0.6246 -1.0691
   41MOL0     H 5382   1.347   0.149   3.803 -0.3763 -0.7746 -2.4015
   41MOL0     H 5383   1.487   0.237   3.730  2.7765 -1.5364  3.9624
   41MOL0     H 5384   1.214   0.369   3.763 -1.5722  3.1209 -2.9099
   41MOL0     H 5385   1.348   0.421   3.666 -0.8742  1.5181 -0.1924
   41MOL0     H 5386   1.311   0.277   3.499  0.3508 -0.8760 -1.1903
   41MOL0     H 5387   1.146   0.315   3.529 -2.3701 -1.8483  1.9748
   41MOL0     H 5388   1.316   0.074   3.585  0.2636 -0.6914  1.8411
   41MOL0     H 5389   1.181   0.080   3.475  3.2577 -0.1553 -1.4506
   41MOL0     H 5390   1.088  -0.037   3.659 -0.1507 -0.0227  3.2006
   41MOL0     H 5391   1.126   0.097   3.769  1.0455 -0.0789 -0.2189
   41MOL0     H 5392   0.951   0.228   3.635 -1.7810  0.0797  0.0952
   41MOL0     H 5393   0.890   0.070   3.710 -0.6711 -1.0393 -1.0034
   41MOL0     H 5394   1.313   0.184   4.235  0.5054  0.1127 -1.8389
   41MOL0     H 5395   1.116   0.315   4.320  0.3219  1.3108  2.3336
   41MOL0     H 5396   1.047   0.599   4.754  2.6070 -0.1559 -1.0406
   41MOL0     H 5397   0.861   0.722   4.876  1.0559  1.2087  1.1389
   41MOL0     H 5398   1.008   2.628   4.888 -0.6410 -0.4995 -1.2078
   41MOL0     H 5399   1.121   2.852   4.820  0.0462  1.3035  1.3152
   41MOL0     H 5400   1.277   3.048   4.348  0.5811  0.0388  1.9739
   41MOL0     H 5401   1.269   3.225   4.189  1.3802 -0.4603  1.4673
   41MOL0     H 5402   1.371   3.465   4.214 -0.9035 -0.3086  0.4387
   41MOL0     H 5403   1.312   3.638   4.207 -0.4050  0.3848  3.0273
   41MOL0     H 5404   1.200   3.402   4.027  0.6339 -1.5219  3.7025
   41MOL0     H 5405   1.182   3.569   4.012 -0.3276  1.0263  1.7431
   41MOL0     H 5406   1.425   3.608   3.961 -0.9965  1.5297 -0.0436
   41MOL0     H 5407   1.345   3.506   3.848  0.0445  2.8544 -0.5084
   41MOL0     H 5408   1.524   3.391   4.070 -0.5082  0.3418 -0.4471
   41MOL0     H 5409   1.468   3.303   3.938 -2.6566  1.0277  1.1898
   41MOL0     H 5410   1.805   3.533   3.784 -0.1937  1.3239 -0.5577
   41MOL0     H 5411   1.066   3.472   4.488 -3.7134 -0.4259 -0.7915
   41MOL0     H 5412   1.066   3.284   4.633 -1.3383  1.1149 -1.1069
   42MOL0     O 5413   1.714   2.220   8.688  0.3439  0.4994 -0.5293
   42MOL0     C 5414   1.663   2.328   8.647  0.0337 -0.3912 -0.4888
   42MOL0     O 5415   1.553   2.338   8.561  0.1979 -1.4949  0.0012
   42MOL0     C 5416   1.534   2.220   8.491  0.6594  0.7696 -0.4974
   42MOL0     C 5417   1.403   2.162   8.495  0.0175  0.9347 -0.2308
   42MOL0     C 5418   1.385   2.033   8.441 -0.2454 -0.4442  0.8823
   42MOL0     C 5419   1.486   1.974   8.364 -0.1420 -1.4351  0.5495
   42MOL0     O 5420   1.462   1.860   8.292 -1.1726 -0.8989  0.4420
   42MOL0     C 5421   1.386   1.873   8.175 -0.0610  0.6814  0.2586
   42MOL0     C 5422   1.389   1.735   8.112 -0.2542  0.0881 -0.2937
   42MOL0     C 5423   1.333   1.629   8.201  0.2010  0.3937 -0.2552
   42MOL0     C 5424   1.286   1.509   8.128  0.9081 -0.5942  0.3229
   42MOL0     C 5425   1.243   1.393   8.224 -0.3540  0.0944  0.1745
   42MOL0     C 5426   1.177   1.293   8.137  0.5699  1.0458  0.1206
   42MOL0     C 5427   1.153   1.153   8.191  0.2121  0.4436  0.1765
   42MOL0     C 5428   1.210   1.047   8.097  0.5606 -0.0684  0.3943
   42MOL0     N 5429   1.172   0.908   8.149 -0.0734  0.2143 -0.0550
   42MOL0     C 5430   1.165   0.867   8.284 -0.7165 -0.6223 -0.7036
   42MOL0     C 5431   1.088   0.752   8.274 -0.0121 -0.5279  0.7755
   42MOL0     C 5432   1.033   0.667   8.383  0.3656  0.0651  0.3197
   42MOL0     C 5433   0.875   0.666   8.385 -0.5366  0.0233  0.4058
   42MOL0     C 5434   0.806   0.795   8.406  1.1695  1.6661 -0.0439
   42MOL0     C 5435   0.829   0.907   8.315  0.0267  1.2224 -0.3327
   42MOL0     O 5436   0.739   1.014   8.331 -0.2167  0.1124  0.4260
   42MOL0     C 5437   0.605   0.998   8.283  0.5045 -0.0599 -0.7752
   42MOL0     C 5438   0.554   0.880   8.230 -0.3388  0.0423  0.5388
   42MOL0     C 5439   0.422   0.863   8.202  0.4068 -1.2494  0.4656
   42MOL0     C 5440   0.327   0.962   8.223  0.6284  0.0914 -0.3535
   42MOL0     C 5441   0.189   0.936   8.183  0.5570 -0.4235  0.4104
   42MOL0     O 5442   0.157   0.817   8.117  0.1411 -0.2153  0.4325
   42MOL0     C 5443   0.025   0.798   8.091  0.3558  0.7022  0.3295
   42MOL0     C 5444  -0.054   0.737   8.183  0.0436  0.0496  0.5067
   42MOL0     C 5445  -0.190   0.701   8.153 -0.4193  0.6417 -0.0584
   42MOL0     C 5446  -0.244   0.720   8.022  0.1169 -0.0458 -0.4967
   42MOL0     O 5447  -0.377   0.686   8.000  0.7131 -0.0180  0.4546
   42MOL0     C 5448  -0.390   0.626   7.865  0.8053  0.3141 -0.4838
   42MOL0     C 5449  -0.371   0.479   7.877 -0.2062  0.5368  0.4966
   42MOL0     C 5450  -0.441   0.400   7.765  0.7221  0.2602  0.0516
   42MOL0     C 5451  -0.423   0.254   7.796  0.1705 -0.3779  0.4321
   42MOL0     C 5452  -0.501   0.177   7.697  0.1508  0.0285 -0.1129
   42MOL0     C 5453  -0.514   0.028   7.739  0.0849 -0.1331  0.4254
   42MOL0     C 5454  -0.384  -0.052   7.745  0.1577 -0.2703  0.7397
   42MOL0     C 5455  -0.395  -0.171   7.844  0.8782  0.3055 -0.1119
   42MOL0    Cl 5456  -0.377  -0.142   8.012  0.4451 -0.4545 -0.0392
   42MOL0     C 5457  -0.151   0.785   7.936 -0.7169 -0.3026  0.3679
   42MOL0     C 5458  -0.022   0.837   7.968  0.2297  0.6541 -0.1197
   42MOL0     O 5459   0.109   1.028   8.216  0.0650  0.9208 -0.5601
   42MOL0     C 5460   0.372   1.081   8.275 -0.3342  0.6251  0.8304
   42MOL0     C 5461   0.510   1.101   8.301 -0.1839  0.2036 -0.0771
   42MOL0     N 5462   1.053   0.728   8.138 -0.1201 -0.0259 -0.0881
   42MOL0     N 5463   1.108   0.822   8.063  0.1535  0.6186 -0.3058
   42MOL0     C 5464   1.615   2.034   8.364  1.0451 -0.0087  0.1562
   42MOL0     C 5465   1.644   2.156   8.418 -0.0092 -0.1672 -0.6779
   42MOL0     C 5466   1.695   2.447   8.720 -0.4581  0.0915 -0.5629
   42MOL0     C 5467   1.787   2.442   8.828  0.2859 -0.4872  0.0259
   42MOL0     C 5468   1.817   2.553   8.915 -0.5669 -0.0193 -0.6979
   42MOL0     C 5469   1.747   2.675   8.901 -0.4136  0.4016  0.5992
   42MOL0     O 5470   1.772   2.777   8.993 -0.6818 -0.2126 -0.1548
   42MOL0     C 5471   1.867   2.878   8.944  0.6970 -0.2174 -0.3823
   42MOL0     C 5472   1.844   3.009   9.046 -0.0618  0.3231  0.8990
   42MOL0     C 5473   1.864   2.979   9.190  0.6028  0.5508 -0.6164
   42MOL0     C 5474   1.761   3.064   9.271  0.1859  0.9755 -0.4993
   42MOL0     C 5475   1.785   3.210   9.283  0.5319  0.5619 -0.7566
   42MOL0     C 5476   1.794   3.326   9.310  0.4725 -0.0547 -0.6642
   42MOL0     C 5477   1.654   2.678   8.796  1.0954 -0.4462 -0.5400
   42MOL0     C 5478   1.625   2.570   8.709 -0.7005 -0.0946 -0.9555
   42MOL0     H 5479   1.323   2.216   8.544 -0.1481 -0.5258  1.2106
   42MOL0     H 5480   1.279   2.008   8.434 -0.4213  0.4408  0.1254
   42MOL0     H 5481   1.440   1.942   8.110  1.4208  0.8024  1.5528
   42MOL0     H 5482   1.286   1.916   8.186  0.1539  1.7333 -1.6354
   42MOL0     H 5483   1.490   1.704   8.083  0.6912  1.6874  1.0867
   42MOL0     H 5484   1.336   1.733   8.016  0.3995 -0.3622 -0.6520
   42MOL0     H 5485   1.250   1.678   8.252  1.0215 -0.4220  1.9814
   42MOL0     H 5486   1.409   1.594   8.272  1.5454 -0.9495 -2.2379
   42MOL0     H 5487   1.201   1.534   8.063  0.9487 -2.1021 -0.3754
   42MOL0     H 5488   1.367   1.480   8.060  1.9025  2.1676  0.2323
   42MOL0     H 5489   1.173   1.435   8.297 -2.8317  1.1496 -2.6452
   42MOL0     H 5490   1.332   1.355   8.276 -0.0735  0.9067  0.3084
   42MOL0     H 5491   1.251   1.280   8.057  1.5507  2.7321  0.7074
   42MOL0     H 5492   1.089   1.346   8.100  0.5332  0.3186 -0.8868
   42MOL0     H 5493   1.197   1.146   8.291  2.6984 -0.3351 -0.9108
   42MOL0     H 5494   1.046   1.128   8.195  0.0983 -0.1790 -3.4547
   42MOL0     H 5495   1.318   1.067   8.089  0.5134  0.8610  1.6869
   42MOL0     H 5496   1.170   1.054   7.995 -0.4263 -1.1999  0.6809
   42MOL0     H 5497   1.206   0.921   8.368 -1.2096  0.5413 -1.1876
   42MOL0     H 5498   1.071   0.696   8.481 -1.0070  1.1532  0.5636
   42MOL0     H 5499   1.065   0.564   8.361 -1.5908 -0.4176 -0.5480
   42MOL0     H 5500   0.835   0.607   8.468 -2.6830  1.6155  0.5762
   42MOL0     H 5501   0.838   0.615   8.296 -0.5485 -0.5983  0.7582
   42MOL0     H 5502   0.700   0.767   8.404  1.6720 -0.5691 -3.0648
   42MOL0     H 5503   0.810   0.834   8.508 -2.7196  5.1970 -0.9792
   42MOL0     H 5504   0.848   0.888   8.209 -0.4491  0.7744 -0.3448
   42MOL0     H 5505   0.932   0.939   8.333 -0.1044  2.0569 -1.0130
   42MOL0     H 5506   0.613   0.789   8.226 -1.3703 -0.8606  3.5334
   42MOL0     H 5507   0.384   0.765   8.176 -1.2450 -0.3526 -0.7176
   42MOL0     H 5508  -0.024   0.722   8.286 -0.6752  1.6117  0.9649
   42MOL0     H 5509  -0.262   0.659   8.223 -0.0055 -0.9926 -0.5831
   42MOL0     H 5510  -0.320   0.671   7.794 -2.2533  5.6725 -0.6944
   42MOL0     H 5511  -0.493   0.646   7.834  1.1406  0.0399 -1.8463
   42MOL0     H 5512  -0.418   0.433   7.964  4.9465 -1.6615  2.5144
   42MOL0     H 5513  -0.264   0.456   7.885  0.1174  1.6976 -0.1812
   42MOL0     H 5514  -0.398   0.424   7.667  0.2627  0.8620 -0.0100
   42MOL0     H 5515  -0.540   0.445   7.757 -0.0636 -1.2556  0.7646
   42MOL0     H 5516  -0.318   0.228   7.787  0.0167 -0.7645 -0.3933
   42MOL0     H 5517  -0.446   0.231   7.900  0.6077 -2.0365  0.1837
   42MOL0     H 5518  -0.462   0.184   7.595  0.5475  2.8545  0.1596
   42MOL0     H 5519  -0.605   0.210   7.698 -0.6463 -2.1707  2.1427
   42MOL0     H 5520  -0.577  -0.021   7.664 -0.3093 -1.5818  1.6530
   42MOL0     H 5521  -0.559   0.005   7.836  1.7061 -2.4064  0.7198
   42MOL0     H 5522  -0.376  -0.081   7.640 -1.6855  6.3717 -1.7242
   42MOL0     H 5523  -0.292   0.005   7.760  0.3456  0.0863 -1.4292
   42MOL0     H 5524  -0.323  -0.249   7.816 -0.7565 -0.5209 -2.3320
   42MOL0     H 5525  -0.490  -0.223   7.830  0.3562  0.9394  0.9762
   42MOL0     H 5526  -0.189   0.821   7.840 -0.5936  2.7248  1.3701
   42MOL0     H 5527   0.040   0.899   7.905  0.0663  2.4591  1.3860
   42MOL0     H 5528   0.296   1.158   8.274 -1.3301 -0.2863  2.6076
   42MOL0     H 5529   0.536   1.192   8.353 -2.2459  0.0917  1.2479
   42MOL0     H 5530   1.686   1.975   8.306  0.8217  0.0289 -0.1517
   42MOL0     H 5531   1.742   2.203   8.426  0.8713 -2.1416  0.8394
   42MOL0     H 5532   1.842   2.354   8.859  1.6522  1.1276  2.4747
   42MOL0     H 5533   1.884   2.548   9.000 -1.4283  1.8935  0.1603
   42MOL0     H 5534   1.845   2.907   8.841  2.4576 -2.2372 -1.4102
   42MOL0     H 5535   1.972   2.848   8.950  0.4942 -1.1441 -1.3019
   42MOL0     H 5536   1.923   3.083   9.029 -1.3802  1.9223  1.4578
   42MOL0     H 5537   1.745   3.053   9.029  0.5146  1.9711  1.6037
   42MOL0     H 5538   1.962   3.012   9.224  0.3505  1.2592 -0.5536
   42MOL0     H 5539   1.841   2.878   9.227 -0.6823  1.4861  1.3375
   42MOL0     H 5540   1.659   3.046   9.236 -0.1707  2.1656 -0.1334
   42MOL0     H 5541   1.773   3.024   9.371  0.7540 -0.9105 -1.2811
   42MOL0     H 5542   1.815   3.429   9.335 -0.1791 -0.2230  0.6377
   42MOL0     H 5543   1.585   2.760   8.784 -0.0215 -1.3482 -0.5075
   42MOL0     H 5544   1.541   2.584   8.642 -1.0553 -1.5125 -0.8457
   43MOL0     O 5545   6.329  11.252  11.225 -0.0985  0.5215  0.6734
   43MOL0     C 5546   6.422  11.324  11.253  0.7692 -0.5549 -0.7982
   43MOL0     O 5547   6.419  11.397  11.365  0.0760 -0.2515  0.2354
   43MOL0     C 5548   6.345  11.337  11.468  0.2864 -0.1151 -0.2738
   43MOL0     C 5549   6.403  11.233  11.551 -0.9319 -0.0919  0.4088
   43MOL0     C 5550   6.328  11.186  11.660  0.0010  0.7335 -0.4430
   43MOL0     C 5551   6.194  11.228  11.689 -1.0220  0.0551 -1.3298
   43MOL0     O 5552   6.113  11.189  11.789 -0.4837  0.2272 -0.3438
   43MOL0     C 5553   6.177  11.096  11.877  0.8272 -0.0564  0.4380
   43MOL0     C 5554   6.076  11.022  11.964 -0.3769 -0.2904 -0.1350
   43MOL0     C 5555   6.043  11.131  12.069 -0.0480 -1.0821 -0.4121
   43MOL0     C 5556   5.907  11.112  12.131 -0.1814  0.0175 -0.4071
   43MOL0     C 5557   5.884  11.177  12.260  0.4501 -0.0991 -0.6828
   43MOL0     C 5558   5.933  11.102  12.383  0.5289  0.8334  0.3922
   43MOL0     C 5559   5.876  10.955  12.388 -0.9304 -0.2309  0.2501
   43MOL0     C 5560   5.894  10.916  12.533  0.6249  0.5186 -0.5320
   43MOL0     N 5561   6.031  10.914  12.581  0.1696  0.1377  0.6026
   43MOL0     C 5562   6.137  10.838  12.533  0.1653 -0.6143 -0.0657
   43MOL0     C 5563   6.241  10.899  12.593  0.6031 -0.0152 -0.1821
   43MOL0     C 5564   6.391  10.850  12.594  0.0334  0.0618  0.9308
   43MOL0     C 5565   6.452  10.830  12.446  0.3237  0.3803  0.2099
   43MOL0     C 5566   6.468  10.959  12.369 -0.1032  0.8309  0.1823
   43MOL0     C 5567   6.361  10.997  12.273  0.2732 -0.0270 -0.0445
   43MOL0     O 5568   6.373  10.925  12.158 -0.0560 -0.0155  0.6214
   43MOL0     C 5569   6.461  10.971  12.053 -0.7523  0.3100 -0.0762
   43MOL0     C 5570   6.564  11.060  12.052 -0.2951 -0.0088 -0.0422
   43MOL0     C 5571   6.634  11.087  11.936 -0.7680 -0.3459  0.9284
   43MOL0     C 5572   6.621  11.008  11.824 -0.8059 -0.2910 -0.0060
   43MOL0     C 5573   6.717  11.018  11.718 -0.1705 -0.5402  0.1665
   43MOL0     O 5574   6.739  10.919  11.638 -0.0465 -0.0773  0.1693
   43MOL0     C 5575   6.800  10.939  11.515 -0.2215 -0.0817 -0.3465
   43MOL0     C 5576   6.882  10.834  11.467 -1.0495 -0.1939  0.7583
   43MOL0     C 5577   6.916  10.827  11.328  0.9892  0.4914 -0.9556
   43MOL0     C 5578   6.892  10.935  11.247  0.4592  0.6633  0.5936
   43MOL0     O 5579   6.928  10.945  11.116 -0.4681 -0.4142 -0.7991
   43MOL0     C 5580   6.985  10.836  11.043  0.7546 -0.4910 -0.6389
   43MOL0     C 5581   7.007  10.872  10.894 -0.1839 -0.1070  0.0748
   43MOL0     C 5582   7.032  10.745  10.808  1.0473  0.1513 -0.0704
   43MOL0     C 5583   7.057  10.801  10.669 -1.1266  0.1148  0.7061
   43MOL0     C 5584   7.107  10.692  10.567 -0.1872  0.5812  0.4688
   43MOL0     C 5585   7.030  10.718  10.438  0.6540  0.1902  0.4905
   43MOL0     C 5586   7.061  10.843  10.354 -0.3849  0.1561 -0.5437
   43MOL0     C 5587   6.999  10.836  10.216  0.3338 -0.0259 -0.2406
   43MOL0    Cl 5588   6.826  10.834  10.225  0.1642  0.2755  0.2859
   43MOL0     C 5589   6.820  11.041  11.297  0.1296 -0.4032 -0.3332
   43MOL0     C 5590   6.773  11.052  11.427 -0.2606 -0.5409 -0.6562
   43MOL0     O 5591   6.762  11.131  11.700  0.1052  0.1443  0.7709
   43MOL0     C 5592   6.529  10.911  11.828  0.6594  0.0726 -0.4949
   43MOL0     C 5593   6.447  10.895  11.939 -0.0965  0.0242 -0.9501
   43MOL0     N 5594   6.197  11.010  12.665  0.1149 -0.4046 -0.1648
   43MOL0     N 5595   6.067  11.018  12.657 -0.0974  0.3662 -0.4189
   43MOL0     C 5596   6.146  11.332  11.605  0.5111  0.6073 -0.5190
   43MOL0     C 5597   6.214  11.377  11.499 -0.6414 -0.1899 -0.3149
   43MOL0     C 5598   6.546  11.327  11.170  0.8439  0.4079  0.0356
   43MOL0     C 5599   6.571  11.227  11.072 -0.9658  0.1197 -0.3781
   43MOL0     C 5600   6.698  11.231  11.006 -0.3963 -0.6123  0.3651
   43MOL0     C 5601   6.795  11.325  11.032 -0.5635 -0.8159  0.0459
   43MOL0     O 5602   6.916  11.341  10.978  0.1144  0.1573 -0.1134
   43MOL0     C 5603   6.978  11.248  10.894 -0.0291  0.2831  0.0164
   43MOL0     C 5604   7.113  11.291  10.844 -0.7698 -0.5195  0.4473
   43MOL0     C 5605   7.211  11.324  10.960 -0.4013 -0.6293  0.1335
   43MOL0     C 5606   7.243  11.213  11.056  1.2527  0.2821  0.4710
   43MOL0     C 5607   7.167  11.231  11.181  0.2536  1.0726  0.1564
   43MOL0     C 5608   7.109  11.259  11.284  1.1176 -0.6958  0.5431
   43MOL0     C 5609   6.766  11.410  11.142 -0.3713  0.1415  0.9017
   43MOL0     C 5610   6.646  11.414  11.202  0.3409 -0.9913 -0.0526
   43MOL0     H 5611   6.504  11.210  11.519 -0.0277  3.5745  0.1385
   43MOL0     H 5612   6.383  11.123  11.729 -1.7999 -0.1884  0.2197
   43MOL0     H 5613   6.247  11.141  11.948  1.3039  0.8761 -0.5891
   43MOL0     H 5614   6.234  11.026  11.816 -0.4853  0.3933 -1.4121
   43MOL0     H 5615   6.136  10.945  12.014  1.1684  3.4220  4.4490
   43MOL0     H 5616   5.992  10.983  11.906 -2.3884  3.1702  0.2099
   43MOL0     H 5617   6.039  11.233  12.031 -2.7317 -0.9668 -0.0134
   43MOL0     H 5618   6.120  11.126  12.146 -0.4612  2.0641  0.3506
   43MOL0     H 5619   5.834  11.151  12.059  1.5841 -0.5810 -2.6511
   43MOL0     H 5620   5.882  11.006  12.131  0.0856 -0.0472 -0.2464
   43MOL0     H 5621   5.778  11.201  12.271  0.5313 -0.0332  0.0074
   43MOL0     H 5622   5.937  11.272  12.253  0.3158 -0.0165 -0.5738
   43MOL0     H 5623   5.911  11.163  12.471 -0.6025  1.7083 -0.4758
   43MOL0     H 5624   6.042  11.100  12.378  0.5265  2.3029 -1.8765
   43MOL0     H 5625   5.774  10.951  12.347 -1.0211 -2.1351  0.5810
   43MOL0     H 5626   5.940  10.889  12.330  0.1474  0.3512  0.7556
   43MOL0     H 5627   5.847  10.818  12.542 -0.2642  0.9201 -0.7268
   43MOL0     H 5628   5.832  10.988  12.587 -1.1331 -0.6104 -0.9800
   43MOL0     H 5629   6.137  10.751  12.469  0.3156 -0.4003 -0.3609
   43MOL0     H 5630   6.411  10.763  12.657  0.1276  1.3787  2.7937
   43MOL0     H 5631   6.440  10.933  12.645 -1.4603  0.3734  1.9033
   43MOL0     H 5632   6.394  10.771  12.374 -0.9631  1.0213  0.6879
   43MOL0     H 5633   6.550  10.782  12.451  0.0553 -0.4293 -1.5479
   43MOL0     H 5634   6.463  11.043  12.439  0.7552  1.1390 -0.1111
   43MOL0     H 5635   6.566  10.958  12.320 -0.0899  0.8264  0.2088
   43MOL0     H 5636   6.382  11.101  12.247  1.1564 -0.9254 -3.3581
   43MOL0     H 5637   6.262  10.991  12.319 -0.5234  1.7523 -1.4334
   43MOL0     H 5638   6.580  11.118  12.142  0.5503  0.0556 -0.2253
   43MOL0     H 5639   6.714  11.160  11.935  1.9553 -3.1103 -0.1878
   43MOL0     H 5640   6.917  10.755  11.533  1.1996  0.1864  0.0911
   43MOL0     H 5641   6.969  10.744  11.282 -0.5266 -1.5771  0.8092
   43MOL0     H 5642   6.923  10.747  11.056 -2.4676  2.0752  5.7833
   43MOL0     H 5643   7.084  10.826  11.089  0.6131  1.4452  0.1977
   43MOL0     H 5644   7.089  10.944  10.901 -0.3425 -0.0976  2.6999
   43MOL0     H 5645   6.924  10.925  10.846  1.2351  3.5820  1.3995
   43MOL0     H 5646   6.941  10.684  10.816  1.3689 -0.2466  0.7718
   43MOL0     H 5647   7.120  10.697  10.852 -1.0363 -1.8285  2.3166
   43MOL0     H 5648   6.962  10.851  10.645 -2.0667 -1.1818  1.5486
   43MOL0     H 5649   7.140  10.871  10.675 -0.1848 -0.8880 -0.2115
   43MOL0     H 5650   7.068  10.599  10.611 -2.1155  0.8384 -0.5826
   43MOL0     H 5651   7.212  10.674  10.545 -0.3175 -0.4596  0.6565
   43MOL0     H 5652   6.926  10.725  10.470 -0.2888 -1.7148 -1.7976
   43MOL0     H 5653   7.034  10.626  10.379  2.1497 -1.8756  3.5239
   43MOL0     H 5654   7.037  10.936  10.407  1.0552 -1.1034  2.6054
   43MOL0     H 5655   7.170  10.850  10.343 -0.4438 -0.0082 -1.2482
   43MOL0     H 5656   7.025  10.747  10.158  0.2434  0.8164 -1.6336
   43MOL0     H 5657   7.039  10.912  10.149 -0.1044 -1.3960 -2.1300
   43MOL0     H 5658   6.796  11.119  11.226 -1.9194  0.2758  1.0096
   43MOL0     H 5659   6.712  11.137  11.456  1.4330 -0.0438  1.8004
   43MOL0     H 5660   6.524  10.837  11.749  1.6240  0.7217 -1.1826
   43MOL0     H 5661   6.365  10.825  11.948 -0.4056  0.0152 -3.2158
   43MOL0     H 5662   6.043  11.366  11.596  0.3724 -0.3038 -5.8913
   43MOL0     H 5663   6.175  11.435  11.416 -3.1757  0.4597  1.2480
   43MOL0     H 5664   6.502  11.145  11.051 -0.2968 -0.1915 -1.4754
   43MOL0     H 5665   6.733  11.155  10.938 -3.8736 -1.0909 -1.1232
   43MOL0     H 5666   6.914  11.213  10.812 -0.9469  0.0916  0.7918
   43MOL0     H 5667   6.984  11.156  10.953 -1.7487  1.5239  2.2743
   43MOL0     H 5668   7.150  11.207  10.784 -1.2833  0.1007 -0.7649
   43MOL0     H 5669   7.100  11.379  10.780 -0.8083 -1.1337 -0.4170
   43MOL0     H 5670   7.176  11.418  11.004  1.9434  0.2239  0.3306
   43MOL0     H 5671   7.303  11.344  10.904  0.5976 -0.0698  1.8995
   43MOL0     H 5672   7.210  11.128  10.995 -1.0842  2.3367 -1.3392
   43MOL0     H 5673   7.349  11.214  11.082  0.5940  2.6808  3.7365
   43MOL0     H 5674   7.062  11.281  11.378 -1.1583 -1.8714 -0.2388
   43MOL0     H 5675   6.836  11.484  11.179 -0.1680  1.5996 -2.0902
   43MOL0     H 5676   6.638  11.487  11.282  2.2637 -0.8701  0.0822
   44MOL0     O 5677   8.298   7.630   6.438 -0.0649 -0.1032  0.4854
   44MOL0     C 5678   8.366   7.703   6.364 -0.0926 -0.4019  0.1772
   44MOL0     O 5679   8.446   7.661   6.258 -0.1370 -0.1921 -0.7813
   44MOL0     C 5680   8.469   7.522   6.258  0.4084 -0.1199 -0.0059
   44MOL0     C 5681   8.553   7.485   6.145  0.4368  0.4928  0.9483
   44MOL0     C 5682   8.608   7.356   6.129  0.3042  0.2349 -0.4630
   44MOL0     C 5683   8.571   7.256   6.227 -0.4834 -0.6279 -0.6470
   44MOL0     O 5684   8.622   7.136   6.204  0.4002  0.7043 -0.1358
   44MOL0     C 5685   8.602   7.016   6.292 -1.0726 -0.6205  0.2879
   44MOL0     C 5686   8.740   6.973   6.349 -0.7800  0.4230  0.2565
   44MOL0     C 5687   8.730   6.830   6.412  0.0305 -0.0142 -0.4874
   44MOL0     C 5688   8.798   6.721   6.327  0.6904 -0.1975 -0.2188
   44MOL0     C 5689   8.833   6.596   6.420  0.6700 -0.1579  0.8056
   44MOL0     C 5690   8.710   6.525   6.472 -0.9387 -0.0202 -0.6091
   44MOL0     C 5691   8.758   6.435   6.591 -0.2364 -0.4688 -0.4916
   44MOL0     C 5692   8.637   6.337   6.612  0.5656 -1.1722 -0.5644
   44MOL0     N 5693   8.508   6.403   6.637 -0.0210 -0.9638 -0.8931
   44MOL0     C 5694   8.404   6.412   6.551  1.1778 -0.0986 -0.2199
   44MOL0     C 5695   8.314   6.489   6.617  0.3196 -0.4076  0.8106
   44MOL0     C 5696   8.203   6.559   6.538  0.5855  0.1120  0.4770
   44MOL0     C 5697   8.232   6.690   6.462 -0.1646 -0.4806 -0.6202
   44MOL0     C 5698   8.277   6.810   6.550 -0.4046  0.0692  0.5560
   44MOL0     C 5699   8.262   6.948   6.472 -1.0444  0.4475  0.5276
   44MOL0     O 5700   8.139   6.970   6.425 -0.0281  0.3005  0.8141
   44MOL0     C 5701   8.111   7.090   6.358  0.5809 -0.8442 -0.1531
   44MOL0     C 5702   8.017   7.087   6.257  0.5144  0.1481  0.1483
   44MOL0     C 5703   7.971   7.212   6.197 -0.5288  0.4811  0.7191
   44MOL0     C 5704   8.013   7.332   6.244 -0.0780 -0.4549 -0.5319
   44MOL0     C 5705   7.968   7.459   6.170 -0.1378  0.2108  0.0663
   44MOL0     O 5706   7.974   7.573   6.243 -0.1013 -0.5960  0.1289
   44MOL0     C 5707   7.901   7.685   6.218  0.0634  0.2844  1.6830
   44MOL0     C 5708   7.809   7.700   6.110  0.3876 -0.6460 -1.7228
   44MOL0     C 5709   7.743   7.826   6.080 -0.1953 -0.0582  0.0397
   44MOL0     C 5710   7.756   7.932   6.170 -0.2721  0.5109  0.6969
   44MOL0     O 5711   7.721   8.059   6.149 -0.0526  0.1218 -0.6075
   44MOL0     C 5712   7.751   8.104   6.015  0.6177  1.1210 -0.1278
   44MOL0     C 5713   7.896   8.139   5.987  0.3488  0.9161 -0.2539
   44MOL0     C 5714   8.000   8.017   5.971  0.2138  0.2092  0.1682
   44MOL0     C 5715   7.990   7.965   5.833  0.0826  0.2153  0.5133
   44MOL0     C 5716   8.116   7.892   5.783 -0.1436  0.1926  0.0505
   44MOL0     C 5717   8.121   7.747   5.850  0.5699 -0.0615 -0.2266
   44MOL0     C 5718   8.255   7.697   5.811 -0.7481 -0.3076  0.8170
   44MOL0     C 5719   8.271   7.565   5.882  0.2391  0.1930  0.4740
   44MOL0    Cl 5720   8.402   7.478   5.819 -0.7194 -0.3592 -0.2170
   44MOL0     C 5721   7.825   7.908   6.288 -0.0463  0.3421  0.0917
   44MOL0     C 5722   7.896   7.787   6.308  0.3125  0.9886 -0.1421
   44MOL0     O 5723   7.924   7.440   6.052  0.7164  0.0131  0.0809
   44MOL0     C 5724   8.109   7.338   6.351  0.9867 -0.1868  0.3929
   44MOL0     C 5725   8.151   7.221   6.406 -0.8856 -0.4034  0.2407
   44MOL0     N 5726   8.359   6.520   6.743  0.1978  0.4197 -0.3142
   44MOL0     N 5727   8.482   6.477   6.752 -0.0181 -0.0838 -0.2062
   44MOL0     C 5728   8.492   7.294   6.338  0.2970 -0.3220  0.4467
   44MOL0     C 5729   8.440   7.420   6.347 -0.3516 -0.3024 -0.6342
   44MOL0     C 5730   8.341   7.851   6.376 -0.4574 -1.2969  0.4594
   44MOL0     C 5731   8.360   7.929   6.261 -0.6023 -0.7864  0.4547
   44MOL0     C 5732   8.328   8.066   6.267 -0.4775 -1.1453  0.6765
   44MOL0     C 5733   8.297   8.134   6.386  0.9851 -0.2897 -0.1691
   44MOL0     O 5734   8.265   8.267   6.367  1.0676  0.4426 -1.0141
   44MOL0     C 5735   8.233   8.356   6.482  0.2279 -0.3951 -1.0065
   44MOL0     C 5736   8.163   8.486   6.424 -0.0202  0.2010  0.0254
   44MOL0     C 5737   8.148   8.591   6.531  0.0466  0.1891  0.2697
   44MOL0     C 5738   8.090   8.538   6.663  0.4711 -0.7506 -0.5004
   44MOL0     C 5739   7.972   8.448   6.651 -1.1538  0.4278 -0.1294
   44MOL0     C 5740   7.872   8.390   6.642 -0.2927 -0.8630  0.7227
   44MOL0     C 5741   8.285   8.062   6.505 -0.2827  0.4448  0.6081
   44MOL0     C 5742   8.306   7.917   6.501  0.0874 -0.4565 -0.7114
   44MOL0     H 5743   8.572   7.553   6.063  0.5315 -0.8313 -0.1701
   44MOL0     H 5744   8.671   7.332   6.044  1.0345 -0.2908  0.2132
   44MOL0     H 5745   8.570   6.940   6.220  3.9575 -4.6930  1.6815
   44MOL0     H 5746   8.543   7.031   6.383 -2.0549  3.1977 -0.8073
   44MOL0     H 5747   8.780   7.053   6.412 -1.3784  1.6866 -0.9079
   44MOL0     H 5748   8.791   6.971   6.252 -1.9430 -1.6432 -0.3815
   44MOL0     H 5749   8.628   6.798   6.433  0.4838 -2.4128 -1.6814
   44MOL0     H 5750   8.772   6.833   6.513  2.6785  1.1143 -1.5250
   44MOL0     H 5751   8.729   6.684   6.251  0.3799  1.5628 -0.8307
   44MOL0     H 5752   8.892   6.749   6.279 -0.0551 -1.7479 -2.7745
   44MOL0     H 5753   8.905   6.619   6.499 -0.6502  1.4577  1.6000
   44MOL0     H 5754   8.885   6.537   6.344 -0.1094 -0.1564  0.2597
   44MOL0     H 5755   8.666   6.453   6.402  1.9588 -0.8801 -1.6659
   44MOL0     H 5756   8.634   6.601   6.496  0.2888  1.1519 -0.2960
   44MOL0     H 5757   8.838   6.365   6.565 -1.0423 -1.1680 -1.1395
   44MOL0     H 5758   8.785   6.502   6.673 -0.4322 -1.3017  0.2595
   44MOL0     H 5759   8.668   6.280   6.699  1.0072 -1.4323 -0.8915
   44MOL0     H 5760   8.620   6.270   6.528 -0.5850 -0.3146 -1.0554
   44MOL0     H 5761   8.391   6.368   6.453 -0.4262 -0.7109  0.2235
   44MOL0     H 5762   8.117   6.579   6.603  0.2321 -0.9060  0.3356
   44MOL0     H 5763   8.163   6.498   6.457 -0.2909  0.5882  0.5428
   44MOL0     H 5764   8.143   6.719   6.405 -0.2527  3.1960  1.1259
   44MOL0     H 5765   8.317   6.677   6.395 -1.3420 -3.0264 -1.7736
   44MOL0     H 5766   8.220   6.820   6.643  1.4094 -1.5958  1.9422
   44MOL0     H 5767   8.381   6.782   6.573 -0.8002 -1.7756  0.2074
   44MOL0     H 5768   8.339   6.941   6.395  1.7585 -2.5232  3.2958
   44MOL0     H 5769   8.295   7.029   6.538 -3.6205  2.4692 -0.4406
   44MOL0     H 5770   7.974   6.997   6.214 -0.0252  0.7549 -0.6247
   44MOL0     H 5771   7.900   7.200   6.116  1.6621 -0.3116 -1.1609
   44MOL0     H 5772   7.809   7.627   6.029  0.2321 -2.0683 -0.4920
   44MOL0     H 5773   7.684   7.841   5.990  1.1222  1.3701 -0.6360
   44MOL0     H 5774   7.685   8.192   6.006 -2.4632 -1.0091 -0.0969
   44MOL0     H 5775   7.699   8.040   5.943  2.6435 -2.9565  1.7029
   44MOL0     H 5776   7.938   8.193   6.073  4.6783 -0.2987 -1.3366
   44MOL0     H 5777   7.913   8.210   5.906 -0.1319  1.9824  0.5542
   44MOL0     H 5778   7.982   7.935   6.042  0.0305 -0.4758 -0.6567
   44MOL0     H 5779   8.102   8.056   5.981  1.0168 -1.8608  0.5577
   44MOL0     H 5780   7.911   7.889   5.830 -0.5601  0.7874  1.9850
   44MOL0     H 5781   7.949   8.041   5.766 -2.9524 -2.7496 -1.3201
   44MOL0     H 5782   8.208   7.944   5.813  0.1994 -0.6288  0.4472
   44MOL0     H 5783   8.114   7.876   5.675 -2.0734 -2.4306  0.3770
   44MOL0     H 5784   8.033   7.692   5.818 -0.4134 -0.3661  2.6594
   44MOL0     H 5785   8.127   7.750   5.960 -1.9608 -3.7648  0.1941
   44MOL0     H 5786   8.262   7.693   5.702  0.8105 -1.3362  0.9395
   44MOL0     H 5787   8.335   7.768   5.836 -1.5539  0.5408  1.0801
   44MOL0     H 5788   8.182   7.502   5.868  1.8613 -2.1289 -0.0927
   44MOL0     H 5789   8.287   7.580   5.989 -1.9145  0.3663  0.8172
   44MOL0     H 5790   7.848   7.969   6.375  0.6682 -1.1324  0.9816
   44MOL0     H 5791   7.951   7.770   6.400  3.4029  0.3784 -1.9513
   44MOL0     H 5792   8.154   7.430   6.388  2.7439 -0.9177  0.1693
   44MOL0     H 5793   8.218   7.230   6.491 -3.0073  1.7628  1.8233
   44MOL0     H 5794   8.470   7.218   6.413 -1.3545 -0.5101 -0.1724
   44MOL0     H 5795   8.398   7.435   6.446  1.9021 -1.4268  0.5941
   44MOL0     H 5796   8.396   7.894   6.165 -0.7851 -0.3360  0.2217
   44MOL0     H 5797   8.329   8.138   6.186  0.3377  0.1039  1.7646
   44MOL0     H 5798   8.328   8.387   6.527 -1.6951  0.3790  2.9644
   44MOL0     H 5799   8.168   8.304   6.552  1.4635  1.8345  2.0068
   44MOL0     H 5800   8.229   8.528   6.348 -0.4499  1.1996  0.1866
   44MOL0     H 5801   8.066   8.457   6.384  0.2894  1.5292 -1.7998
   44MOL0     H 5802   8.077   8.662   6.487  0.1188 -1.0405 -1.9621
   44MOL0     H 5803   8.243   8.641   6.550  1.8672 -1.9024 -2.6140
   44MOL0     H 5804   8.171   8.502   6.727  0.2563 -0.4814 -0.0702
   44MOL0     H 5805   8.055   8.626   6.717  1.4745 -2.1256  2.6303
   44MOL0     H 5806   7.781   8.335   6.625 -0.2385 -0.3248 -1.6934
   44MOL0     H 5807   8.266   8.104   6.604  0.7774 -1.1916  1.5513
   44MOL0     H 5808   8.290   7.873   6.599  0.7154  1.2410  0.1889
   45MOL0     O 5809   4.984   3.973   4.364  0.4813 -0.4741 -0.2674
   45MOL0     C 5810   4.905   3.882   4.382 -0.2931 -0.9736  0.7531
   45MOL0     O 5811   4.784   3.879   4.449 -0.1575 -0.1397 -0.1321
   45MOL0     C 5812   4.725   3.994   4.498  0.0245 -0.4901  1.2279
   45MOL0     C 5813   4.615   3.970   4.587 -0.9307  0.1669 -0.7583
   45MOL0     C 5814   4.531   4.068   4.636  0.4461 -0.6904 -0.6087
   45MOL0     C 5815   4.554   4.205   4.602 -0.1089  0.7804  0.0706
   45MOL0     O 5816   4.453   4.290   4.645  0.2220 -0.3863  0.1471
   45MOL0     C 5817   4.451   4.425   4.597  0.1837 -0.5710  0.3190
   45MOL0     C 5818   4.318   4.487   4.664 -0.2896 -0.3779  0.6908
   45MOL0     C 5819   4.329   4.474   4.816  0.4070  0.5780 -0.5495
   45MOL0     C 5820   4.215   4.548   4.893 -1.5525  0.6116  0.4078
   45MOL0     C 5821   4.207   4.504   5.040  0.5035 -0.0203  0.7966
   45MOL0     C 5822   4.105   4.590   5.131 -0.0604 -0.8470 -0.2095
   45MOL0     C 5823   3.964   4.616   5.065 -0.3493  0.5454  0.3423
   45MOL0     C 5824   3.864   4.684   5.159 -0.4114 -0.3319  0.9185
   45MOL0     N 5825   3.908   4.821   5.184  0.5235 -1.2922  0.3150
   45MOL0     C 5826   3.878   4.940   5.122 -0.4126 -0.4373  0.0995
   45MOL0     C 5827   3.923   5.040   5.216  1.0760 -0.2185  1.0666
   45MOL0     C 5828   3.915   5.185   5.198  0.3766 -0.3405 -0.0512
   45MOL0     C 5829   3.802   5.243   5.280  0.9128 -0.3439 -0.5784
   45MOL0     C 5830   3.650   5.201   5.244 -1.2916  0.1730 -0.2994
   45MOL0     C 5831   3.605   5.296   5.136 -0.7417 -0.0778  0.9504
   45MOL0     O 5832   3.571   5.208   5.024  0.4747 -0.2012 -0.0290
   45MOL0     C 5833   3.518   5.262   4.912  0.0524  0.1286  0.0460
   45MOL0     C 5834   3.544   5.394   4.871  0.4726  0.0428 -0.4172
   45MOL0     C 5835   3.485   5.445   4.754 -0.7806  1.1155  0.7304
   45MOL0     C 5836   3.411   5.363   4.673  0.2724  0.5424 -0.2803
   45MOL0     C 5837   3.341   5.425   4.547  0.3611 -0.1421  0.3781
   45MOL0     O 5838   3.234   5.355   4.497  1.2006 -0.5723 -0.1991
   45MOL0     C 5839   3.183   5.379   4.375  0.3757  0.0282  0.3609
   45MOL0     C 5840   3.056   5.330   4.352  0.6198 -0.0002 -0.8490
   45MOL0     C 5841   3.000   5.321   4.221 -0.0757  0.8301  0.0572
   45MOL0     C 5842   3.066   5.386   4.116 -0.0039 -0.3447 -0.4028
   45MOL0     O 5843   3.009   5.388   3.999 -0.4440 -0.0214  0.8212
   45MOL0     C 5844   2.986   5.512   3.940 -0.5499 -0.6104 -0.9419
   45MOL0     C 5845   2.947   5.633   4.028 -0.6868  0.5244 -0.3335
   45MOL0     C 5846   2.913   5.752   3.937 -0.1910 -0.2391 -1.1651
   45MOL0     C 5847   3.024   5.786   3.834 -0.4773 -0.2397  0.2329
   45MOL0     C 5848   3.000   5.936   3.789 -0.7273  0.4316  0.2993
   45MOL0     C 5849   3.018   6.045   3.893  0.1498 -0.0102 -0.1928
   45MOL0     C 5850   2.999   6.193   3.831  0.1246 -0.2934 -0.2904
   45MOL0     C 5851   2.895   6.265   3.905 -0.3293  0.7225  0.2365
   45MOL0    Cl 5852   2.733   6.195   3.908  0.0310 -0.0743 -0.0158
   45MOL0     C 5853   3.189   5.444   4.146  0.4790 -0.3522  0.1288
   45MOL0     C 5854   3.251   5.438   4.269  1.5068 -0.1340  0.2298
   45MOL0     O 5855   3.389   5.529   4.494  0.3804  0.6111 -0.9684
   45MOL0     C 5856   3.393   5.232   4.716  0.4290  0.7837 -0.7471
   45MOL0     C 5857   3.446   5.183   4.824 -0.3225 -0.2882 -0.8035
   45MOL0     N 5858   3.982   4.973   5.320 -0.5152 -0.4586  0.2064
   45MOL0     N 5859   3.977   4.850   5.295 -0.3411 -0.5477 -0.9986
   45MOL0     C 5860   4.666   4.232   4.518  0.6714 -0.1690 -1.0101
   45MOL0     C 5861   4.744   4.123   4.469 -1.8411  0.2124 -0.0047
   45MOL0     C 5862   4.952   3.758   4.322  0.4404  0.2015  0.0700
   45MOL0     C 5863   4.898   3.633   4.368 -0.0895  0.5605 -0.9078
   45MOL0     C 5864   4.957   3.515   4.317 -0.3114 -0.2367 -0.5315
   45MOL0     C 5865   5.065   3.525   4.216  0.1795  0.9863 -0.5554
   45MOL0     O 5866   5.130   3.407   4.178  0.3905  0.4141 -0.3063
   45MOL0     C 5867   5.252   3.417   4.101 -0.4572  0.5964 -0.3315
   45MOL0     C 5868   5.339   3.287   4.093 -0.6366 -0.2347 -0.2619
   45MOL0     C 5869   5.356   3.227   4.234 -0.2270 -0.4361  0.2557
   45MOL0     C 5870   5.440   3.311   4.337  0.0173 -0.0725  0.1120
   45MOL0     C 5871   5.442   3.252   4.468  0.2411  0.7111  0.0881
   45MOL0     C 5872   5.457   3.188   4.568  0.1317 -1.0842 -1.0453
   45MOL0     C 5873   5.115   3.647   4.170 -0.5321 -0.9260  0.2303
   45MOL0     C 5874   5.052   3.760   4.224  0.2571 -0.0567  0.3069
   45MOL0     H 5875   4.594   3.869   4.621  3.1248 -0.3355  0.7518
   45MOL0     H 5876   4.450   4.032   4.698  1.0815 -0.7025  0.2306
   45MOL0     H 5877   4.448   4.434   4.488  1.0640  0.2041  0.3388
   45MOL0     H 5878   4.538   4.482   4.633 -0.5593 -1.3357  3.6893
   45MOL0     H 5879   4.231   4.449   4.609 -2.3931  1.2278  2.7264
   45MOL0     H 5880   4.317   4.594   4.642 -3.6827 -0.4714 -0.1868
   45MOL0     H 5881   4.427   4.515   4.844  1.5305  1.4266 -4.8977
   45MOL0     H 5882   4.340   4.370   4.850 -0.3934  0.6569 -0.0353
   45MOL0     H 5883   4.234   4.656   4.891  0.6079  0.2722 -1.1345
   45MOL0     H 5884   4.118   4.532   4.847 -1.8691  4.2013 -0.4892
   45MOL0     H 5885   4.308   4.510   5.081  0.3866  0.7467  0.9772
   45MOL0     H 5886   4.188   4.396   5.036  1.8297 -0.2719  0.8149
   45MOL0     H 5887   4.155   4.687   5.144  0.2803 -1.1110  0.5643
   45MOL0     H 5888   4.109   4.546   5.231  1.9317  0.5170  0.3746
   45MOL0     H 5889   3.980   4.676   4.976 -1.0708  1.7182  0.9813
   45MOL0     H 5890   3.913   4.526   5.030 -0.2428  0.3387  0.7036
   45MOL0     H 5891   3.860   4.635   5.256  0.5364  0.4977  1.3959
   45MOL0     H 5892   3.765   4.685   5.112 -0.9921 -0.6339  2.1015
   45MOL0     H 5893   3.835   4.951   5.023  0.6375 -1.0419 -0.4407
   45MOL0     H 5894   3.916   5.200   5.090  0.1981 -2.1032 -0.3335
   45MOL0     H 5895   4.015   5.213   5.231  0.4314 -0.8055  0.1805
   45MOL0     H 5896   3.809   5.350   5.262 -2.9614 -0.0664 -1.3319
   45MOL0     H 5897   3.832   5.227   5.384 -1.4873  0.8512  0.3767
   45MOL0     H 5898   3.649   5.096   5.211  1.6298 -0.7074  2.0537
   45MOL0     H 5899   3.584   5.211   5.331 -1.2708  0.3402 -0.3032
   45MOL0     H 5900   3.690   5.357   5.106  0.4146 -0.2372  3.6330
   45MOL0     H 5901   3.523   5.362   5.168  0.2424  1.0954  1.1262
   45MOL0     H 5902   3.577   5.473   4.939 -2.3840  1.2190 -0.2486
   45MOL0     H 5903   3.492   5.548   4.721  0.2225  0.5310 -1.0099
   45MOL0     H 5904   3.000   5.275   4.426  1.1144  0.0539 -0.4284
   45MOL0     H 5905   2.914   5.260   4.195  1.3819 -1.7015  0.8349
   45MOL0     H 5906   2.915   5.496   3.858 -0.6387 -2.3511 -0.5592
   45MOL0     H 5907   3.079   5.539   3.890 -0.0333 -3.0922 -1.4655
   45MOL0     H 5908   3.034   5.653   4.090  0.2980  0.8533 -1.7577
   45MOL0     H 5909   2.855   5.616   4.085 -0.5189  2.2259  0.5028
   45MOL0     H 5910   2.888   5.836   4.003 -4.6339 -0.4246 -2.2756
   45MOL0     H 5911   2.818   5.729   3.888  0.2211 -2.5734 -0.9759
   45MOL0     H 5912   3.124   5.785   3.879 -0.0667  0.0856 -0.6492
   45MOL0     H 5913   3.025   5.716   3.750  0.6479 -0.9760  0.8380
   45MOL0     H 5914   2.896   5.939   3.755 -0.7835 -0.3971  0.3640
   45MOL0     H 5915   3.068   5.955   3.705  0.7242  3.7586  2.0349
   45MOL0     H 5916   3.109   6.030   3.952  0.7553 -0.4496 -1.2152
   45MOL0     H 5917   2.942   6.036   3.971 -0.9075 -0.6484 -1.2653
   45MOL0     H 5918   3.088   6.258   3.836 -0.6290  0.6741  1.4411
   45MOL0     H 5919   2.960   6.175   3.730 -1.5646 -0.7703  0.4131
   45MOL0     H 5920   2.888   6.363   3.858  1.4975  0.3355 -0.9311
   45MOL0     H 5921   2.921   6.295   4.007  0.9528  1.2281 -0.2194
   45MOL0     H 5922   3.241   5.488   4.062  0.0728 -0.8766 -0.4061
   45MOL0     H 5923   3.342   5.496   4.284  0.3502  1.3358  2.0571
   45MOL0     H 5924   3.333   5.177   4.644  0.5249  2.0380 -1.8180
   45MOL0     H 5925   3.428   5.080   4.855 -3.4781  0.7962  1.5552
   45MOL0     H 5926   4.693   4.328   4.475  0.2562 -0.2832 -1.5482
   45MOL0     H 5927   4.825   4.139   4.399 -2.4517  0.9148 -0.5800
   45MOL0     H 5928   4.830   3.623   4.452 -1.6068  1.9860 -1.9008
   45MOL0     H 5929   4.930   3.420   4.362 -1.8878  0.9643  1.2404
   45MOL0     H 5930   5.320   3.486   4.151 -0.9604  0.3150  0.7727
   45MOL0     H 5931   5.232   3.447   3.997 -0.6841  0.1744 -0.4119
   45MOL0     H 5932   5.290   3.213   4.029 -0.7144 -0.8738  0.5274
   45MOL0     H 5933   5.431   3.318   4.041 -0.6541 -0.1913 -0.2674
   45MOL0     H 5934   5.395   3.126   4.220 -0.5031 -0.7065  1.3347
   45MOL0     H 5935   5.257   3.216   4.280 -1.1428 -2.1594 -1.9315
   45MOL0     H 5936   5.540   3.300   4.295 -0.3402  0.3185 -0.8558
   45MOL0     H 5937   5.415   3.417   4.329  0.8176  0.2130  1.1275
   45MOL0     H 5938   5.473   3.129   4.656  0.3896  1.2212  0.5365
   45MOL0     H 5939   5.185   3.670   4.091 -3.8601  5.8359 -1.4916
   45MOL0     H 5940   5.097   3.849   4.181  1.9259 -3.0090 -4.8944
   46MOL0     O 5941   0.500   6.990   1.195 -0.6344  0.2642  0.1752
   46MOL0     C 5942   0.527   6.975   1.316  0.2574 -0.5693 -0.3172
   46MOL0     O 5943   0.607   6.890   1.374  0.3257 -0.3852  1.0248
   46MOL0     C 5944   0.709   6.834   1.297  0.9686 -0.0075  0.3398
   46MOL0     C 5945   0.768   6.891   1.184 -0.1208 -0.4370  0.9781
   46MOL0     C 5946   0.866   6.813   1.116 -0.2853  0.5878  0.2530
   46MOL0     C 5947   0.923   6.705   1.178  1.5384 -0.6399 -0.2288
   46MOL0     O 5948   1.026   6.652   1.113  0.2278  0.8516  0.2971
   46MOL0     C 5949   1.155   6.675   1.187 -0.2540 -0.5677  0.5129
   46MOL0     C 5950   1.224   6.810   1.157  0.4697 -0.4255 -0.1311
   46MOL0     C 5951   1.263   6.813   1.011  0.7238 -0.6172 -0.1524
   46MOL0     C 5952   1.354   6.942   0.982 -0.2143 -0.2196 -0.9620
   46MOL0     C 5953   1.374   6.969   0.836  0.2047 -0.6063 -1.1880
   46MOL0     C 5954   1.507   7.030   0.800  0.2987 -0.2442  0.1142
   46MOL0     C 5955   1.636   6.951   0.832 -0.0910 -0.0278 -0.0340
   46MOL0     C 5956   1.637   6.816   0.769  0.0782  0.6617  0.2218
   46MOL0     N 5957   1.770   6.756   0.764 -0.1223  0.4304  0.3676
   46MOL0     C 5958   1.847   6.737   0.870 -0.0978  0.0404 -0.9296
   46MOL0     C 5959   1.960   6.679   0.837  0.0552  0.8516 -0.8735
   46MOL0     C 5960   2.056   6.633   0.942 -0.8259 -0.0381 -0.2789
   46MOL0     C 5961   2.207   6.641   0.900  0.4395  0.1543  0.6322
   46MOL0     C 5962   2.302   6.525   0.941  0.0062 -0.6279  0.1038
   46MOL0     C 5963   2.344   6.543   1.079  1.0374  0.1225 -1.0999
   46MOL0     O 5964   2.248   6.567   1.173 -0.1194  0.3702 -0.5112
   46MOL0     C 5965   2.292   6.599   1.305 -0.8395  0.2481 -0.1691
   46MOL0     C 5966   2.206   6.637   1.409  1.0558 -0.8929 -0.1372
   46MOL0     C 5967   2.249   6.665   1.541 -0.3126 -0.8166 -0.0119
   46MOL0     C 5968   2.388   6.672   1.570  0.5882  0.4535 -0.1871
   46MOL0     C 5969   2.430   6.705   1.707 -0.4454 -0.8031  0.2547
   46MOL0     O 5970   2.326   6.740   1.795 -0.3879  0.2670 -0.8154
   46MOL0     C 5971   2.343   6.768   1.924  0.1446 -0.2839  0.0371
   46MOL0     C 5972   2.240   6.856   1.968  0.0431 -0.4387  0.8942
   46MOL0     C 5973   2.233   6.911   2.095 -0.1880 -0.4257  0.2848
   46MOL0     C 5974   2.340   6.901   2.175 -1.0010 -0.5632 -0.7862
   46MOL0     O 5975   2.335   6.968   2.291 -0.2289  0.4124 -0.8883
   46MOL0     C 5976   2.322   6.878   2.398  0.7662 -0.3180  1.4631
   46MOL0     C 5977   2.305   6.968   2.522  0.3605 -0.0239  0.8442
   46MOL0     C 5978   2.443   6.998   2.577 -0.6628 -0.2967 -0.9787
   46MOL0     C 5979   2.437   7.115   2.691 -0.6279  0.6133 -0.2241
   46MOL0     C 5980   2.351   7.072   2.813 -0.1329  0.1610 -0.1471
   46MOL0     C 5981   2.344   7.202   2.905  0.4865  0.5146  0.5810
   46MOL0     C 5982   2.281   7.170   3.043 -0.5498 -0.9530 -0.1237
   46MOL0     C 5983   2.133   7.114   3.027 -0.2561 -0.0765  0.0067
   46MOL0    Cl 5984   2.037   7.246   3.075  0.3482 -0.3012  0.0985
   46MOL0     C 5985   2.461   6.832   2.129 -0.1152  0.2662 -1.3494
   46MOL0     C 5986   2.458   6.752   2.012 -0.1902 -0.8527 -0.1613
   46MOL0     O 5987   2.548   6.705   1.734  0.1493 -0.4907 -0.0909
   46MOL0     C 5988   2.477   6.626   1.475  0.1617  0.4643  0.4635
   46MOL0     C 5989   2.435   6.601   1.341 -0.1295 -0.3679 -0.4671
   46MOL0     N 5990   1.959   6.666   0.706  0.2655 -0.2760 -0.5782
   46MOL0     N 5991   1.843   6.698   0.661  0.4761 -0.3881  0.3284
   46MOL0     C 5992   0.863   6.645   1.283 -0.7098  0.1855 -0.1005
   46MOL0     C 5993   0.745   6.706   1.342 -0.8318  0.0930  0.7334
   46MOL0     C 5994   0.445   7.076   1.394 -0.1354  0.6125 -0.4877
   46MOL0     C 5995   0.409   7.200   1.349  0.2897 -0.1746 -0.4038
   46MOL0     C 5996   0.349   7.295   1.437  0.5584  0.1647 -1.2733
   46MOL0     C 5997   0.316   7.260   1.568  1.5351 -0.3773  0.0830
   46MOL0     O 5998   0.250   7.355   1.648 -0.2688 -0.8208  0.4160
   46MOL0     C 5999   0.114   7.378   1.620  0.1281  0.3147 -0.4329
   46MOL0     C 6000   0.020   7.271   1.690 -0.3549  0.8881  0.0971
   46MOL0     C 6001   0.010   7.301   1.842  0.4141  0.0363  0.2614
   46MOL0     C 6002   0.091   7.197   1.917 -0.0290 -0.2688 -0.4393
   46MOL0     C 6003   0.205   7.279   1.967  0.5916  0.2577  0.0151
   46MOL0     C 6004   0.281   7.354   2.027 -0.3339 -0.2206  0.3548
   46MOL0     C 6005   0.348   7.141   1.623  0.6857 -0.4486 -0.1291
   46MOL0     C 6006   0.403   7.043   1.530  0.8580 -0.3526  0.0483
   46MOL0     H 6007   0.736   6.988   1.147  1.1749 -0.0586  0.7865
   46MOL0     H 6008   0.905   6.842   1.020 -0.1753  3.2246  1.0335
   46MOL0     H 6009   1.220   6.587   1.181 -1.0526 -1.1791  0.6734
   46MOL0     H 6010   1.130   6.693   1.292  0.7356  0.0049  0.6643
   46MOL0     H 6011   1.312   6.820   1.221  0.5851  4.4514 -0.6420
   46MOL0     H 6012   1.157   6.892   1.184 -1.5751 -1.2102 -2.4593
   46MOL0     H 6013   1.179   6.811   0.942  1.3039 -1.0167 -0.8625
   46MOL0     H 6014   1.322   6.724   0.987  2.0625  0.2408 -0.1762
   46MOL0     H 6015   1.304   7.026   1.030  0.1638 -0.8203  0.5283
   46MOL0     H 6016   1.454   6.939   1.025 -0.3924  0.4215 -0.4969
   46MOL0     H 6017   1.300   7.039   0.797  1.8749  2.6313  1.0052
   46MOL0     H 6018   1.369   6.876   0.779  4.5764 -1.4583 -0.5723
   46MOL0     H 6019   1.524   7.128   0.845  2.8428  0.0137 -1.1975
   46MOL0     H 6020   1.511   7.037   0.691  3.5872  0.1248  0.1496
   46MOL0     H 6021   1.729   7.002   0.804 -0.4538 -0.0667 -1.3634
   46MOL0     H 6022   1.648   6.943   0.940 -2.0529 -1.2192  0.1402
   46MOL0     H 6023   1.597   6.826   0.667  2.7269 -0.6982 -1.0493
   46MOL0     H 6024   1.567   6.755   0.827 -0.4082  1.8036  0.8711
   46MOL0     H 6025   1.822   6.765   0.972  3.1796  2.0878 -0.5455
   46MOL0     H 6026   2.041   6.528   0.969 -2.0670 -0.4734 -2.4526
   46MOL0     H 6027   2.037   6.696   1.029 -1.1822 -2.0547  1.1810
   46MOL0     H 6028   2.245   6.741   0.921  2.0293  0.0287 -1.3452
   46MOL0     H 6029   2.225   6.625   0.794 -1.8068 -2.0377  0.4831
   46MOL0     H 6030   2.240   6.436   0.935 -1.3218  0.3410 -1.3577
   46MOL0     H 6031   2.386   6.503   0.874  0.5237  2.7141 -0.5402
   46MOL0     H 6032   2.416   6.625   1.084  0.6469  0.3961  1.8870
   46MOL0     H 6033   2.395   6.451   1.112 -1.0119 -0.1392  1.6135
   46MOL0     H 6034   2.102   6.639   1.377  1.7490 -0.6808 -2.6283
   46MOL0     H 6035   2.167   6.699   1.604 -1.5164 -0.6957 -1.5857
   46MOL0     H 6036   2.154   6.873   1.905  1.3594 -0.5381 -1.0336
   46MOL0     H 6037   2.143   6.968   2.114  1.6880  1.7615  3.7036
   46MOL0     H 6038   2.416   6.825   2.414  0.6895 -0.2436  2.1607
   46MOL0     H 6039   2.232   6.822   2.369  0.8574  0.2185  0.0243
   46MOL0     H 6040   2.244   6.915   2.595 -3.6874 -1.0817 -2.8963
   46MOL0     H 6041   2.260   7.066   2.503  0.3685  0.8424  4.6271
   46MOL0     H 6042   2.504   7.030   2.492 -1.7432 -1.2481 -2.1564
   46MOL0     H 6043   2.481   6.913   2.634  0.6535  2.0554  1.9817
   46MOL0     H 6044   2.533   7.129   2.742 -1.8257 -0.8510  2.7335
   46MOL0     H 6045   2.406   7.210   2.648  2.2496 -0.0563 -4.2706
   46MOL0     H 6046   2.379   6.981   2.867  0.6461 -1.2905 -2.8290
   46MOL0     H 6047   2.252   7.035   2.786 -0.0158  0.8235 -1.5456
   46MOL0     H 6048   2.293   7.282   2.850 -0.9667 -0.9982 -0.3634
   46MOL0     H 6049   2.443   7.239   2.934  0.7617 -2.1005  3.4609
   46MOL0     H 6050   2.342   7.097   3.096  0.6506  1.2401  1.7231
   46MOL0     H 6051   2.287   7.258   3.107 -2.7772 -0.5137 -0.4256
   46MOL0     H 6052   2.117   7.027   3.092 -2.3456 -0.4583 -0.9267
   46MOL0     H 6053   2.108   7.079   2.927  2.2641 -2.6400  0.1215
   46MOL0     H 6054   2.545   6.822   2.196  0.2820  1.3297 -1.6634
   46MOL0     H 6055   2.540   6.683   1.994  0.3248  0.1664 -2.0780
   46MOL0     H 6056   2.584   6.625   1.495  0.2584 -3.8833  0.7505
   46MOL0     H 6057   2.506   6.576   1.263 -0.4156 -4.8330  0.3905
   46MOL0     H 6058   0.899   6.545   1.306  0.4948  0.9072  1.3438
   46MOL0     H 6059   0.685   6.658   1.419 -2.2628 -1.6060 -1.3266
   46MOL0     H 6060   0.449   7.237   1.256  0.5060 -0.2644 -0.3466
   46MOL0     H 6061   0.326   7.397   1.405 -0.2505 -0.7892 -4.0556
   46MOL0     H 6062   0.083   7.369   1.515 -2.2710  0.7672  0.1781
   46MOL0     H 6063   0.065   7.470   1.652 -4.2937 -2.0492  0.3200
   46MOL0     H 6064  -0.083   7.285   1.656 -1.7555  1.3785  4.0234
   46MOL0     H 6065   0.045   7.168   1.663 -0.8167  1.0635 -1.0378
   46MOL0     H 6066  -0.092   7.296   1.882 -0.5965 -0.2335 -2.1300
   46MOL0     H 6067   0.044   7.403   1.858  0.5219  0.0620 -0.1101
   46MOL0     H 6068   0.035   7.150   1.998 -3.6541  2.0760 -1.3111
   46MOL0     H 6069   0.134   7.115   1.858  0.9575 -1.5159  1.8867
   46MOL0     H 6070   0.331   7.434   2.078 -0.8382  0.3328  0.0040
   46MOL0     H 6071   0.325   7.122   1.727 -0.8151  0.8348 -0.1916
   46MOL0     H 6072   0.442   6.949   1.568  2.1825 -1.2082 -3.0413
   47MOL0     O 6073   0.016  11.448   1.290 -0.1849  0.1961 -0.3919
   47MOL0     C 6074  -0.002  11.413   1.171  1.3322  0.6269  0.2231
   47MOL0     O 6075   0.063  11.315   1.112  0.4701  0.8699  0.4739
   47MOL0     C 6076   0.121  11.225   1.189  1.0193  0.1755 -1.2363
   47MOL0     C 6077   0.257  11.222   1.231 -0.7171  0.2622  0.0408
   47MOL0     C 6078   0.314  11.120   1.308  0.0164 -0.2914  0.3184
   47MOL0     C 6079   0.238  11.014   1.339  0.3422 -0.2762  0.0912
   47MOL0     O 6080   0.282  10.900   1.395 -0.0831 -0.2210  0.4008
   47MOL0     C 6081   0.409  10.855   1.377 -0.1336  0.3049 -0.6736
   47MOL0     C 6082   0.426  10.718   1.443 -0.3893  0.3438  1.2182
   47MOL0     C 6083   0.569  10.670   1.438 -1.1700 -0.2890  0.2430
   47MOL0     C 6084   0.576  10.545   1.505  0.0928 -0.0259 -0.0774
   47MOL0     C 6085   0.700  10.463   1.469 -0.7018 -0.2456  0.0832
   47MOL0     C 6086   0.702  10.328   1.541  0.1629  0.7959  0.0288
   47MOL0     C 6087   0.835  10.255   1.513  0.7054 -0.2324  0.8772
   47MOL0     C 6088   0.850  10.128   1.600  0.5869  0.0417  0.2957
   47MOL0     N 6089   0.744  10.033   1.586  0.1140 -0.0071  0.1046
   47MOL0     C 6090   0.747   9.943   1.483  0.8498 -0.3133  0.9131
   47MOL0     C 6091   0.632   9.865   1.511  0.3561 -0.9148 -0.0482
   47MOL0     C 6092   0.589   9.750   1.431 -0.0617  0.4990  0.4925
   47MOL0     C 6093   0.701   9.677   1.348 -0.5569 -0.1352 -0.7650
   47MOL0     C 6094   0.815   9.620   1.433 -0.2905  0.6856 -0.0484
   47MOL0     C 6095   0.902   9.508   1.361 -0.4406 -0.3789 -0.2816
   47MOL0     O 6096   1.012   9.452   1.440 -0.2835  0.0571 -0.4187
   47MOL0     C 6097   1.139   9.502   1.457  0.3523  0.1600  0.3185
   47MOL0     C 6098   1.180   9.628   1.409  0.8344 -0.8484 -0.3365
   47MOL0     C 6099   1.309   9.678   1.422  0.2880  0.4616 -0.3705
   47MOL0     C 6100   1.408   9.602   1.494 -1.4417  0.0779 -0.7631
   47MOL0     C 6101   1.550   9.655   1.497  0.5813 -0.2729 -0.5664
   47MOL0     O 6102   1.574   9.766   1.429  0.0375 -0.0141  0.3262
   47MOL0     C 6103   1.705   9.822   1.421  0.5459 -0.5306 -0.2154
   47MOL0     C 6104   1.755   9.878   1.305 -0.2933  0.5219  0.2240
   47MOL0     C 6105   1.880   9.932   1.296 -0.5362 -0.2790 -1.0668
   47MOL0     C 6106   1.961   9.951   1.410  0.4433  0.5430  0.0186
   47MOL0     O 6107   2.069  10.025   1.388  1.1094 -0.9213 -0.2444
   47MOL0     C 6108   2.144  10.060   1.507 -1.2081  0.0387  0.2951
   47MOL0     C 6109   2.226  10.185   1.465  0.2076 -0.2350  0.5161
   47MOL0     C 6110   2.151  10.312   1.504 -0.6904  0.4027  0.2064
   47MOL0     C 6111   2.170  10.344   1.654  0.3342 -0.7627 -0.1779
   47MOL0     C 6112   2.139  10.499   1.656  0.0575 -0.7731 -0.6309
   47MOL0     C 6113   2.180  10.557   1.798 -0.2863  0.9572  0.5517
   47MOL0     C 6114   2.185  10.709   1.790  0.3167 -0.2618 -0.3478
   47MOL0     C 6115   2.177  10.785   1.921  0.0199 -0.1963 -0.7602
   47MOL0    Cl 6116   2.344  10.770   2.000 -0.6252  0.1713  0.0371
   47MOL0     C 6117   1.901   9.908   1.531 -0.5187  0.0141 -1.2576
   47MOL0     C 6118   1.779   9.844   1.539  0.3055  0.5805  0.0822
   47MOL0     O 6119   1.632   9.597   1.564 -0.0798  0.5693  0.7798
   47MOL0     C 6120   1.371   9.477   1.542 -0.1106  0.5842  1.0005
   47MOL0     C 6121   1.243   9.430   1.517  0.3285  1.1540 -0.1070
   47MOL0     N 6122   0.567   9.918   1.628 -0.4750  0.1295  0.0133
   47MOL0     N 6123   0.635  10.024   1.666 -0.0032 -0.7156 -0.9234
   47MOL0     C 6124   0.100  11.017   1.309 -0.1687  1.3921  0.5263
   47MOL0     C 6125   0.044  11.118   1.230  0.8851 -0.1413 -0.2713
   47MOL0     C 6126  -0.106  11.494   1.092  0.3014  0.7628  0.4385
   47MOL0     C 6127  -0.205  11.574   1.157 -0.5486 -0.5388 -0.5396
   47MOL0     C 6128  -0.286  11.650   1.086  0.4281  1.1262  0.8370
   47MOL0     C 6129  -0.283  11.658   0.939  0.4988 -0.0035  1.5335
   47MOL0     O 6130  -0.370  11.737   0.854  0.2752  0.6160  0.5210
   47MOL0     C 6131  -0.389  11.863   0.913 -0.4630 -0.1183 -0.4019
   47MOL0     C 6132  -0.476  11.945   0.820 -0.4120 -0.3397  1.1880
   47MOL0     C 6133  -0.572  12.033   0.890  0.8671  0.6385 -0.0553
   47MOL0     C 6134  -0.508  12.165   0.946 -0.0971 -0.2803 -0.3911
   47MOL0     C 6135  -0.606  12.254   1.005  0.1047 -0.6284  0.8206
   47MOL0     C 6136  -0.692  12.334   1.038 -0.0954 -0.6419  0.3832
   47MOL0     C 6137  -0.193  11.575   0.873  0.2027 -0.9288 -0.1154
   47MOL0     C 6138  -0.107  11.494   0.947  0.2080  0.1231 -0.2765
   47MOL0     H 6139   0.313  11.305   1.190 -3.7882  2.0706 -0.8297
   47MOL0     H 6140   0.420  11.132   1.327  0.2949  0.3269 -1.4637
   47MOL0     H 6141   0.472  10.930   1.426 -0.8464  0.4753  0.0059
   47MOL0     H 6142   0.423  10.848   1.268 -2.4900  1.3957 -1.1116
   47MOL0     H 6143   0.355  10.647   1.400 -0.5751  0.7826  0.7965
   47MOL0     H 6144   0.393  10.734   1.546 -0.6675  0.0279  1.1784
   47MOL0     H 6145   0.621  10.745   1.499 -0.8904  1.9012 -2.4845
   47MOL0     H 6146   0.597  10.667   1.332  0.6556  1.1812  0.6370
   47MOL0     H 6147   0.583  10.571   1.611  2.0332  0.2707 -0.2504
   47MOL0     H 6148   0.485  10.484   1.494  0.1904 -0.0915 -0.5289
   47MOL0     H 6149   0.791  10.513   1.501 -1.4096  1.5558 -0.5737
   47MOL0     H 6150   0.703  10.451   1.360 -1.4911  0.6684 -0.0570
   47MOL0     H 6151   0.622  10.265   1.502 -2.8435  3.3863  1.5318
   47MOL0     H 6152   0.690  10.344   1.648 -0.9611  1.8035 -0.2296
   47MOL0     H 6153   0.831  10.228   1.407 -1.5643 -0.1747  0.8946
   47MOL0     H 6154   0.912  10.329   1.538 -1.7713  1.8993  2.9574
   47MOL0     H 6155   0.845  10.161   1.704  1.0700  0.0342  0.3206
   47MOL0     H 6156   0.945  10.081   1.575  0.1100 -1.0613  0.4906
   47MOL0     H 6157   0.822   9.919   1.407  0.3478 -1.2014  0.6805
   47MOL0     H 6158   0.517   9.783   1.356  0.2810 -0.9543 -0.5195
   47MOL0     H 6159   0.531   9.678   1.489  0.5716  0.1550  0.7176
   47MOL0     H 6160   0.736   9.755   1.279 -0.2664  0.7574  0.3484
   47MOL0     H 6161   0.656   9.600   1.285 -0.9560  2.8281 -4.4962
   47MOL0     H 6162   0.876   9.706   1.463 -1.4708  1.4881  0.1017
   47MOL0     H 6163   0.768   9.579   1.523 -1.7669 -1.8056 -1.8458
   47MOL0     H 6164   0.948   9.555   1.274 -0.1309  0.3508  0.2675
   47MOL0     H 6165   0.833   9.425   1.340  0.8382 -0.7028 -3.7399
   47MOL0     H 6166   1.095   9.689   1.380  1.3685 -0.0668 -0.2576
   47MOL0     H 6167   1.344   9.771   1.376  2.6287 -0.2295 -0.1042
   47MOL0     H 6168   1.702   9.865   1.211  0.7203 -1.5639 -0.1233
   47MOL0     H 6169   1.916   9.971   1.201  1.0458  3.3793  0.8351
   47MOL0     H 6170   2.211   9.981   1.542 -2.3788  0.2350  3.3153
   47MOL0     H 6171   2.087  10.090   1.595 -1.4555 -1.6031  0.7096
   47MOL0     H 6172   2.238  10.187   1.356 -4.8786 -2.5355 -0.3672
   47MOL0     H 6173   2.330  10.178   1.497  0.7077 -0.7528 -1.1104
   47MOL0     H 6174   2.050  10.326   1.465  0.0935  3.6886 -0.9401
   47MOL0     H 6175   2.203  10.396   1.458 -1.5236  2.1826  2.3119
   47MOL0     H 6176   2.098  10.288   1.713  0.3740  0.4531  1.0659
   47MOL0     H 6177   2.272  10.315   1.682 -0.2377 -1.6320  1.0667
   47MOL0     H 6178   2.032  10.520   1.650  0.0384 -0.3461  0.7113
   47MOL0     H 6179   2.191  10.553   1.576  1.3149  0.0125  0.6634
   47MOL0     H 6180   2.279  10.527   1.836 -0.7092 -0.8706  0.3025
   47MOL0     H 6181   2.113  10.522   1.877 -1.3259  2.3731  0.3311
   47MOL0     H 6182   2.267  10.758   1.737 -0.3869  0.5261 -0.7205
   47MOL0     H 6183   2.099  10.729   1.725  0.9800  2.9231 -0.3604
   47MOL0     H 6184   2.107  10.749   1.998 -0.4347  0.1977 -0.9840
   47MOL0     H 6185   2.156  10.891   1.906 -3.1485 -0.4346  1.0330
   47MOL0     H 6186   1.952   9.919   1.626 -0.5962 -1.5102 -1.0129
   47MOL0     H 6187   1.740   9.810   1.634 -5.1016  2.1527 -1.1799
   47MOL0     H 6188   1.426   9.419   1.616  2.0980  2.6582  1.0842
   47MOL0     H 6189   1.198   9.333   1.538 -0.1157  1.0265 -1.5057
   47MOL0     H 6190   0.042  10.928   1.332  0.4674  0.7002 -0.4702
   47MOL0     H 6191  -0.060  11.104   1.201  0.6435 -1.7351  1.2412
   47MOL0     H 6192  -0.224  11.573   1.264 -1.0805  0.8946 -0.5900
   47MOL0     H 6193  -0.374  11.690   1.136 -1.3089  0.6786 -1.6196
   47MOL0     H 6194  -0.298  11.923   0.918  0.2678 -1.1623 -0.6546
   47MOL0     H 6195  -0.435  11.856   1.011 -3.5528  5.5686 -1.0617
   47MOL0     H 6196  -0.406  12.006   0.762  1.1046 -1.3721  1.8630
   47MOL0     H 6197  -0.517  11.872   0.749  3.7251 -0.0037 -1.9221
   47MOL0     H 6198  -0.630  11.986   0.970 -0.1819  2.0977  0.0863
   47MOL0     H 6199  -0.642  12.066   0.813 -0.7341 -5.0491 -1.5264
   47MOL0     H 6200  -0.428  12.144   1.018  0.0383  0.5885 -0.2752
   47MOL0     H 6201  -0.469  12.224   0.863  1.1531 -0.1491  0.2648
   47MOL0     H 6202  -0.779  12.388   1.070 -2.4581 -1.8392 -3.3570
   47MOL0     H 6203  -0.193  11.567   0.764  3.0533 -4.1358 -0.0547
   47MOL0     H 6204  -0.031  11.434   0.897  2.2846  0.7298  1.9865
   48MOL0     O 6205  10.177   7.335   4.728 -0.2823 -0.2998 -0.3265
   48MOL0     C 6206  10.110   7.238   4.705 -1.0180 -0.2612  0.0891
   48MOL0     O 6207  10.019   7.225   4.607  0.3090 -0.1848  0.2094
   48MOL0     C 6208   9.940   7.324   4.560  1.7030 -0.3657  0.2509
   48MOL0     C 6209   9.903   7.444   4.638  0.4741 -0.5668 -0.4522
   48MOL0     C 6210   9.820   7.545   4.592  0.2222 -0.0022 -1.0979
   48MOL0     C 6211   9.764   7.523   4.460 -0.5841 -0.8903 -1.0616
   48MOL0     O 6212   9.681   7.628   4.420  0.0771  0.2714  0.2316
   48MOL0     C 6213   9.599   7.628   4.312  0.3152 -0.1841  0.7755
   48MOL0     C 6214   9.471   7.553   4.345 -0.5077 -0.1747  0.5845
   48MOL0     C 6215   9.385   7.618   4.456  0.1832  0.1950 -0.9482
   48MOL0     C 6216   9.237   7.542   4.470  0.6591  0.6700  0.1165
   48MOL0     C 6217   9.151   7.615   4.579 -0.9872  0.5460 -0.2084
   48MOL0     C 6218   9.106   7.750   4.530  0.0979 -0.8818  0.8708
   48MOL0     C 6219   8.985   7.749   4.434 -1.2088 -0.2464 -0.5524
   48MOL0     C 6220   8.863   7.681   4.492  0.0354 -0.1325 -0.0130
   48MOL0     N 6221   8.838   7.544   4.432 -0.4853  0.4900 -0.4719
   48MOL0     C 6222   8.816   7.511   4.294 -0.2649 -0.5981 -0.2896
   48MOL0     C 6223   8.825   7.377   4.291  1.6683  0.4017 -0.4102
   48MOL0     C 6224   8.815   7.309   4.159 -0.3758  0.7057 -0.7778
   48MOL0     C 6225   8.936   7.295   4.075  0.6267 -0.3786  0.0752
   48MOL0     C 6226   8.886   7.270   3.929  0.4830 -0.0181  0.5359
   48MOL0     C 6227   8.990   7.294   3.817 -0.5374  0.4055  0.4651
   48MOL0     O 6228   9.065   7.173   3.808  0.0992  1.2255  0.2953
   48MOL0     C 6229   9.197   7.166   3.821  0.0309  0.2210  0.4007
   48MOL0     C 6230   9.270   7.098   3.717 -0.5325 -0.4692  0.3111
   48MOL0     C 6231   9.410   7.093   3.737  0.0373  0.7031  0.4510
   48MOL0     C 6232   9.469   7.145   3.850 -0.7501 -0.0632 -0.0936
   48MOL0     C 6233   9.607   7.148   3.864 -0.3126 -0.0466  0.6870
   48MOL0     O 6234   9.655   7.183   3.986  0.3709  0.2165 -0.7602
   48MOL0     C 6235   9.784   7.215   3.997 -0.4294 -0.5707 -0.5454
   48MOL0     C 6236   9.823   7.352   3.999  0.6111  0.4067 -0.8801
   48MOL0     C 6237   9.956   7.383   4.005  0.0558  0.0406  0.6034
   48MOL0     C 6238  10.045   7.292   4.040  0.6434 -0.0150  0.9096
   48MOL0     O 6239  10.178   7.327   4.056  0.3791  0.9118  0.1938
   48MOL0     C 6240  10.234   7.430   4.143  0.0772 -0.2148 -0.4721
   48MOL0     C 6241  10.375   7.408   4.193 -0.1928 -0.2917  0.5356
   48MOL0     C 6242  10.459   7.420   4.070 -0.8953  0.0772 -0.5102
   48MOL0     C 6243  10.599   7.370   4.109  0.7191  0.3967  0.1190
   48MOL0     C 6244  10.702   7.384   3.992 -0.2005 -0.2666 -0.5995
   48MOL0     C 6245  10.761   7.518   3.975  0.6866  0.3825 -0.1045
   48MOL0     C 6246  10.832   7.587   4.103  0.1465 -0.4278  0.2193
   48MOL0     C 6247  10.929   7.693   4.067  0.0590  0.0856 -0.6708
   48MOL0    Cl 6248  11.082   7.618   4.006 -0.5385 -0.1908 -0.1591
   48MOL0     C 6249  10.010   7.162   4.041  0.1587  0.0659  0.2033
   48MOL0     C 6250   9.878   7.118   4.020 -0.5413 -0.2399  0.8223
   48MOL0     O 6251   9.683   7.131   3.767 -0.3620  0.3946 -0.5870
   48MOL0     C 6252   9.391   7.219   3.944 -0.5511  0.1998  0.0817
   48MOL0     C 6253   9.259   7.229   3.923 -0.5567  0.6998  0.1793
   48MOL0     N 6254   8.856   7.321   4.414  0.2936  0.3561  0.5245
   48MOL0     N 6255   8.843   7.425   4.499  0.6831  0.6378  0.6324
   48MOL0     C 6256   9.810   7.421   4.382  0.7413  0.4079 -0.4913
   48MOL0     C 6257   9.892   7.319   4.426  0.7358  0.1573  0.0620
   48MOL0     C 6258  10.133   7.124   4.796 -0.0861 -0.4629 -0.0522
   48MOL0     C 6259  10.214   7.131   4.904  0.1997  0.2203 -0.3897
   48MOL0     C 6260  10.238   7.026   4.990  0.1824 -1.0756  0.1988
   48MOL0     C 6261  10.173   6.896   4.961 -0.2532 -0.5497 -0.9974
   48MOL0     O 6262  10.196   6.792   5.053  0.2162 -0.0732  0.3067
   48MOL0     C 6263  10.171   6.658   5.015 -0.5862 -0.2405  0.4545
   48MOL0     C 6264  10.289   6.574   5.086  0.2997 -0.1593  0.2395
   48MOL0     C 6265  10.296   6.591   5.241 -0.5246 -0.4337  0.2438
   48MOL0     C 6266  10.404   6.511   5.312 -0.1979 -0.6409 -0.3551
   48MOL0     C 6267  10.358   6.373   5.320  0.2477  0.7825 -0.4412
   48MOL0     C 6268  10.333   6.253   5.338 -0.5357  0.7354 -0.3081
   48MOL0     C 6269  10.078   6.892   4.855  0.4963 -0.4611  0.3441
   48MOL0     C 6270  10.061   7.003   4.768 -0.3754 -0.1217  0.0723
   48MOL0     H 6271   9.933   7.445   4.742  0.8646  2.3293 -0.5132
   48MOL0     H 6272   9.799   7.637   4.645  1.7676 -0.2094 -0.0768
   48MOL0     H 6273   9.642   7.587   4.219 -1.1106 -3.0062  1.2351
   48MOL0     H 6274   9.569   7.729   4.282 -2.2326 -0.6898  1.4024
   48MOL0     H 6275   9.494   7.450   4.372  3.3834  0.3268 -0.2444
   48MOL0     H 6276   9.403   7.540   4.261 -0.9914 -5.2752  1.4403
   48MOL0     H 6277   9.367   7.725   4.446  1.1892  0.7399  1.9979
   48MOL0     H 6278   9.442   7.624   4.549 -0.1428 -1.8809 -0.5436
   48MOL0     H 6279   9.188   7.538   4.372 -3.0127 -0.5772  1.8231
   48MOL0     H 6280   9.246   7.437   4.501  1.5743  1.0517  1.1938
   48MOL0     H 6281   9.198   7.627   4.678 -0.8741  0.0400 -0.1979
   48MOL0     H 6282   9.062   7.561   4.611 -2.6264  2.4101 -1.3961
   48MOL0     H 6283   9.188   7.809   4.486  2.4748 -2.1407  3.3013
   48MOL0     H 6284   9.083   7.819   4.612  1.2305 -0.7894  1.1345
   48MOL0     H 6285   8.952   7.847   4.397  0.6959 -0.6739 -3.7590
   48MOL0     H 6286   9.026   7.710   4.341  0.6442  0.5604 -0.1314
   48MOL0     H 6287   8.779   7.751   4.482 -2.5368 -2.2967  3.6455
   48MOL0     H 6288   8.874   7.677   4.601  2.4761  0.2099 -0.1856
   48MOL0     H 6289   8.809   7.570   4.204  2.1324 -0.5824 -0.5122
   48MOL0     H 6290   8.729   7.354   4.108 -1.2659  0.2520  0.2676
   48MOL0     H 6291   8.770   7.209   4.170  1.6753 -0.3915 -1.8269
   48MOL0     H 6292   9.004   7.215   4.104  0.5837  0.1822  1.8129
   48MOL0     H 6293   9.003   7.381   4.085  2.1030 -1.4736 -0.0485
   48MOL0     H 6294   8.850   7.168   3.909  1.5402 -0.2667 -0.1689
   48MOL0     H 6295   8.799   7.329   3.900  1.3720 -0.1586 -2.7427
   48MOL0     H 6296   9.046   7.386   3.839  1.0513 -0.2055 -0.8084
   48MOL0     H 6297   8.939   7.320   3.724  4.2159  0.4859 -2.4882
   48MOL0     H 6298   9.213   7.066   3.630 -0.7461 -0.0491  0.2956
   48MOL0     H 6299   9.471   7.053   3.656  0.1030 -2.6812  2.0000
   48MOL0     H 6300   9.750   7.426   3.969  0.1937 -0.6554 -2.6683
   48MOL0     H 6301   9.976   7.490   4.008 -4.1725  1.0257 -0.0888
   48MOL0     H 6302  10.173   7.413   4.232  1.8211 -2.1264  0.4283
   48MOL0     H 6303  10.213   7.520   4.083 -0.7456 -0.8199 -1.1187
   48MOL0     H 6304  10.373   7.305   4.228  1.1445 -0.9070 -1.0876
   48MOL0     H 6305  10.408   7.483   4.265 -0.9885  0.7105 -0.1102
   48MOL0     H 6306  10.454   7.523   4.032 -0.5693 -0.6199 -2.5468
   48MOL0     H 6307  10.424   7.358   3.988  0.0496  0.1805 -1.0098
   48MOL0     H 6308  10.644   7.416   4.198  1.2715 -1.9960  1.1631
   48MOL0     H 6309  10.590   7.266   4.143  3.2512 -1.0189 -2.9407
   48MOL0     H 6310  10.660   7.351   3.897  0.4837 -0.0159 -0.9952
   48MOL0     H 6311  10.790   7.322   4.013 -0.0580  0.4868  1.2736
   48MOL0     H 6312  10.678   7.585   3.950  0.3849  0.1107  0.1582
   48MOL0     H 6313  10.828   7.529   3.889 -1.5041  0.4504 -1.9181
   48MOL0     H 6314  10.757   7.633   4.168  2.5408  3.3800  0.6054
   48MOL0     H 6315  10.883   7.508   4.159  1.6356  0.7328  0.5896
   48MOL0     H 6316  10.952   7.766   4.145  1.3504 -1.5528  0.5476
   48MOL0     H 6317  10.884   7.756   3.989 -0.7583  0.3966  0.0369
   48MOL0     H 6318  10.086   7.089   4.063  0.8889  1.1535  1.3962
   48MOL0     H 6319   9.861   7.011   4.014  1.2820 -0.4896 -1.2989
   48MOL0     H 6320   9.423   7.270   4.034 -2.0335 -1.1420  1.4256
   48MOL0     H 6321   9.214   7.299   3.992  0.7277  0.9349  0.8064
   48MOL0     H 6322   9.772   7.410   4.281  2.6188  2.5178 -1.5042
   48MOL0     H 6323   9.919   7.242   4.354 -0.2278  1.2744 -1.5603
   48MOL0     H 6324  10.254   7.228   4.933 -2.4680  0.8343  1.6297
   48MOL0     H 6325  10.302   7.020   5.077 -1.4443 -3.4568  1.3443
   48MOL0     H 6326  10.174   6.648   4.906 -0.8314  0.8850  0.3262
   48MOL0     H 6327  10.076   6.623   5.056  0.0331 -2.0950  0.3705
   48MOL0     H 6328  10.291   6.469   5.056  2.5905 -0.0287 -0.2563
   48MOL0     H 6329  10.384   6.609   5.045  2.2607 -3.4260  1.6222
   48MOL0     H 6330  10.196   6.568   5.277 -2.4952 -0.7901 -4.5937
   48MOL0     H 6331  10.310   6.698   5.260 -1.0632 -0.4264  0.6240
   48MOL0     H 6332  10.507   6.514   5.276 -1.5718  1.7846 -4.7733
   48MOL0     H 6333  10.412   6.543   5.416 -1.8802 -0.9568 -0.1073
   48MOL0     H 6334  10.310   6.151   5.362 -2.3905  1.9233  3.9238
   48MOL0     H 6335  10.029   6.803   4.818  0.8674  0.8231 -3.8046
   48MOL0     H 6336   9.996   7.005   4.681 -2.7801  2.4690  1.7283
   49MOL0     O 6337   6.667   8.219  10.990  0.5101  0.4157 -0.3583
   49MOL0     C 6338   6.643   8.241  10.873  0.9038  0.0785 -0.2384
   49MOL0     O 6339   6.618   8.360  10.820 -0.9077 -0.7399  1.0115
   49MOL0     C 6340   6.653   8.476  10.884 -0.2553  0.2029 -0.0487
   49MOL0     C 6341   6.564   8.581  10.880  0.4346 -0.0652 -0.4975
   49MOL0     C 6342   6.602   8.706  10.925  0.2762 -0.0831  0.1552
   49MOL0     C 6343   6.732   8.731  10.971  0.2172 -0.3897 -1.1920
   49MOL0     O 6344   6.788   8.851  11.008  0.0525  0.0486  0.3346
   49MOL0     C 6345   6.720   8.962  10.945 -0.4527 -0.6225  0.6462
   49MOL0     C 6346   6.789   9.102  10.972  0.5888  0.2177 -0.2907
   49MOL0     C 6347   6.807   9.130  11.127  0.2686  0.4852  0.3975
   49MOL0     C 6348   6.931   9.226  11.147 -0.5474  0.8981  0.7856
   49MOL0     C 6349   6.960   9.270  11.292  0.0104  0.8619 -0.6709
   49MOL0     C 6350   7.078   9.356  11.312 -0.5042  0.5119  0.1575
   49MOL0     C 6351   7.075   9.482  11.216 -0.2263  0.3449 -0.1818
   49MOL0     C 6352   7.163   9.595  11.259 -0.5874 -0.6410 -0.8855
   49MOL0     N 6353   7.308   9.569  11.249 -0.3244  0.3580 -0.0804
   49MOL0     C 6354   7.399   9.621  11.157 -0.1928  0.2888  0.2173
   49MOL0     C 6355   7.520   9.576  11.191  0.2609  0.9183 -0.2218
   49MOL0     C 6356   7.645   9.592  11.119  0.3957  0.5340  0.1595
   49MOL0     C 6357   7.671   9.467  11.032  0.5908 -0.8381 -0.3432
   49MOL0     C 6358   7.822   9.458  10.985  1.0286 -0.7299  0.0335
   49MOL0     C 6359   7.854   9.354  10.882 -0.0697 -0.0319  0.6681
   49MOL0     O 6360   7.753   9.347  10.776  0.2075 -0.6262  0.7365
   49MOL0     C 6361   7.763   9.435  10.673 -0.4948  0.7604 -0.0220
   49MOL0     C 6362   7.650   9.435  10.591 -0.2963 -0.8150 -0.0166
   49MOL0     C 6363   7.649   9.523  10.480  0.0936 -0.2158 -1.4537
   49MOL0     C 6364   7.751   9.624  10.465 -0.3680 -0.9978 -0.0205
   49MOL0     C 6365   7.757   9.725  10.345 -0.1565 -0.4995  0.9359
   49MOL0     O 6366   7.874   9.781  10.310 -0.4790  0.1465 -0.3085
   49MOL0     C 6367   7.885   9.849  10.193  0.1400 -0.7975  0.2524
   49MOL0     C 6368   7.833   9.790  10.069  0.9394 -0.2640 -0.3624
   49MOL0     C 6369   7.851   9.843   9.937  0.1667 -0.2409  0.1564
   49MOL0     C 6370   7.937   9.953   9.938 -0.1010  0.4204  0.0539
   49MOL0     O 6371   7.982   9.996   9.821  0.0007  0.0944  1.0620
   49MOL0     C 6372   7.962  10.125   9.777  0.6794 -0.1453  0.0307
   49MOL0     C 6373   8.035  10.142   9.645  0.2041 -0.0815  0.8764
   49MOL0     C 6374   8.111  10.278   9.646  0.9726  0.1096  1.0365
   49MOL0     C 6375   8.245  10.257   9.713 -0.5608 -0.3885 -0.1587
   49MOL0     C 6376   8.295  10.393   9.754  0.1281 -0.4566  0.0286
   49MOL0     C 6377   8.440  10.386   9.818  0.3200 -0.6190 -0.3689
   49MOL0     C 6378   8.448  10.349   9.960 -0.8438 -1.1789  1.0398
   49MOL0     C 6379   8.567  10.402  10.024  0.4157  0.2666  0.0035
   49MOL0    Cl 6380   8.586  10.374  10.204 -0.0117 -0.2962 -0.1927
   49MOL0     C 6381   8.001  10.003  10.051  0.4968  0.3352 -0.0754
   49MOL0     C 6382   7.972   9.960  10.179 -0.0813 -0.5902  0.0586
   49MOL0     O 6383   7.650   9.741  10.299 -0.0207 -0.0537 -0.1010
   49MOL0     C 6384   7.861   9.614  10.549 -0.3038  0.5514 -0.2693
   49MOL0     C 6385   7.867   9.521  10.648 -0.0437 -0.2370 -1.1432
   49MOL0     N 6386   7.505   9.491  11.301 -0.3002  0.0887 -0.1034
   49MOL0     N 6387   7.379   9.498  11.338  0.0266 -0.3857 -0.2934
   49MOL0     C 6388   6.819   8.625  10.982 -0.2521  0.9581  0.7133
   49MOL0     C 6389   6.786   8.492  10.933  1.0150  0.2862 -0.1616
   49MOL0     C 6390   6.611   8.128  10.781 -0.4169  0.2810 -0.3227
   49MOL0     C 6391   6.632   8.144  10.634 -0.3328 -1.2313 -0.3787
   49MOL0     C 6392   6.631   8.041  10.542 -0.6594 -0.4022  0.3839
   49MOL0     C 6393   6.608   7.910  10.589 -0.2513  0.0833 -0.8943
   49MOL0     O 6394   6.627   7.815  10.501  0.3040  0.4591 -0.0795
   49MOL0     C 6395   6.570   7.691  10.526 -1.0409  0.4867 -1.1217
   49MOL0     C 6396   6.566   7.613  10.398  0.4826 -0.1219 -0.0185
   49MOL0     C 6397   6.473   7.491  10.409 -0.1113 -0.7505 -0.4594
   49MOL0     C 6398   6.459   7.425  10.277 -0.3308 -0.2100  0.4983
   49MOL0     C 6399   6.359   7.319  10.299  0.5277  0.2526 -1.1786
   49MOL0     C 6400   6.282   7.233  10.348 -0.9397 -0.2851 -0.4786
   49MOL0     C 6401   6.577   7.893  10.730 -0.1079  0.2527  0.1707
   49MOL0     C 6402   6.582   7.999  10.820  0.4759 -0.9755  0.8494
   49MOL0     H 6403   6.469   8.576  10.829  1.2399 -0.3987 -2.0068
   49MOL0     H 6404   6.525   8.782  10.931  0.1078 -0.1389 -1.0492
   49MOL0     H 6405   6.630   8.979  11.003  1.5454  4.9391  2.7964
   49MOL0     H 6406   6.705   8.950  10.837  2.3757 -0.9727  0.2069
   49MOL0     H 6407   6.751   9.185  10.912  2.1596  0.8871 -0.4042
   49MOL0     H 6408   6.894   9.098  10.941  1.1524  3.9068  0.7031
   49MOL0     H 6409   6.821   9.035  11.180  0.7992 -0.2002 -0.9340
   49MOL0     H 6410   6.720   9.188  11.161 -1.2998 -1.2467 -0.4377
   49MOL0     H 6411   7.011   9.161  11.111 -2.7486 -0.9356 -1.2419
   49MOL0     H 6412   6.914   9.313  11.083  1.3908  0.7600  0.0198
   49MOL0     H 6413   6.977   9.182  11.354  1.0525 -0.9029 -3.2585
   49MOL0     H 6414   6.871   9.326  11.321  0.0149  1.8389 -2.4023
   49MOL0     H 6415   7.164   9.292  11.288 -0.7541  0.1033  0.3561
   49MOL0     H 6416   7.097   9.387  11.416  2.2693  1.5959 -0.5587
   49MOL0     H 6417   7.100   9.445  11.116  0.5472  0.8870 -0.1952
   49MOL0     H 6418   6.975   9.525  11.212  0.2813  1.4609 -1.8366
   49MOL0     H 6419   7.131   9.619  11.361 -0.2215 -0.9145 -0.7006
   49MOL0     H 6420   7.147   9.683  11.196  1.5851  2.2593  2.2293
   49MOL0     H 6421   7.379   9.690  11.076  0.4621 -0.1879 -0.3561
   49MOL0     H 6422   7.720   9.613  11.195 -0.0272  0.6179  0.5585
   49MOL0     H 6423   7.638   9.682  11.057 -3.2223  0.0709 -0.3232
   49MOL0     H 6424   7.619   9.486  10.938  2.6785  0.2759 -1.3337
   49MOL0     H 6425   7.641   9.382  11.094 -1.5633  0.2625  0.2004
   49MOL0     H 6426   7.854   9.554  10.943  0.8064 -0.5992  0.1572
   49MOL0     H 6427   7.892   9.442  11.068 -0.3256  1.8616  1.8342
   49MOL0     H 6428   7.861   9.256  10.928  0.5576 -0.6029 -0.6016
   49MOL0     H 6429   7.958   9.369  10.852 -0.5211 -2.2315 -2.5201
   49MOL0     H 6430   7.578   9.356  10.606  2.3073 -3.3670 -0.0376
   49MOL0     H 6431   7.558   9.521  10.421 -2.0525 -1.8122  1.6221
   49MOL0     H 6432   7.768   9.703  10.064 -0.8857  1.0577 -0.4144
   49MOL0     H 6433   7.815   9.785   9.853 -0.9965 -2.8602  2.3275
   49MOL0     H 6434   8.014  10.196   9.842  1.6184  1.6328 -2.4641
   49MOL0     H 6435   7.857  10.158   9.781 -0.3585 -3.0060 -1.0065
   49MOL0     H 6436   7.957  10.159   9.570 -0.1351 -2.8046  0.5024
   49MOL0     H 6437   8.094  10.055   9.612  0.4150  0.8939 -1.5537
   49MOL0     H 6438   8.045  10.355   9.687  1.8728  2.0185 -0.9008
   49MOL0     H 6439   8.127  10.307   9.542 -0.2734  2.1582  1.3590
   49MOL0     H 6440   8.254  10.192   9.801  2.7572  0.5313  0.3361
   49MOL0     H 6441   8.323  10.210   9.652  0.1543 -3.2435  2.6159
   49MOL0     H 6442   8.216  10.433   9.818 -0.4420 -0.5126 -0.6280
   49MOL0     H 6443   8.304  10.454   9.664  1.9728 -2.2472 -1.0995
   49MOL0     H 6444   8.492  10.481   9.802  0.5411 -0.4535  1.1589
   49MOL0     H 6445   8.493  10.306   9.765 -1.1064 -0.7452 -1.6490
   49MOL0     H 6446   8.368  10.402  10.014  0.9467  0.6406  2.0181
   49MOL0     H 6447   8.441  10.242   9.983 -4.3118 -1.2698  0.1845
   49MOL0     H 6448   8.580  10.507   9.997  1.0579  0.5306  1.2646
   49MOL0     H 6449   8.652  10.347   9.983  1.1617 -1.1099  3.0839
   49MOL0     H 6450   8.080  10.077  10.042 -0.3203  1.1406 -0.8052
   49MOL0     H 6451   8.028  10.000  10.263 -0.7325 -3.9347  2.3032
   49MOL0     H 6452   7.953   9.669  10.528 -1.4603  3.0311  0.7616
   49MOL0     H 6453   7.958   9.495  10.701  0.6531 -2.0665 -3.0717
   49MOL0     H 6454   6.912   8.646  11.034  1.5773  1.1056 -2.3560
   49MOL0     H 6455   6.860   8.413  10.943  0.0658 -0.6822 -0.6428
   49MOL0     H 6456   6.675   8.235  10.593 -0.4996 -1.7252 -1.6771
   49MOL0     H 6457   6.666   8.054  10.440 -2.2387  0.6295 -0.0695
   49MOL0     H 6458   6.466   7.709  10.555 -0.7703  1.6140 -0.8131
   49MOL0     H 6459   6.632   7.649  10.605  0.3511  2.1865 -1.2610
   49MOL0     H 6460   6.517   7.683  10.330  1.0215  1.9151  1.5807
   49MOL0     H 6461   6.664   7.586  10.361 -0.7891  0.8244 -4.6831
   49MOL0     H 6462   6.373   7.522  10.441 -0.0965  0.9974 -1.9687
   49MOL0     H 6463   6.514   7.418  10.480  1.5099  2.8188  2.6492
   49MOL0     H 6464   6.420   7.490  10.197 -0.8455 -0.3502  0.6290
   49MOL0     H 6465   6.556   7.392  10.239  1.0153  2.4927  1.3487
   49MOL0     H 6466   6.222   7.157  10.393  0.7587 -0.2197  2.1216
   49MOL0     H 6467   6.576   7.790  10.766  0.2893 -0.1771 -0.9861
   49MOL0     H 6468   6.583   7.979  10.927 -0.7712 -3.5067  0.4469
   50MOL0     O 6469   6.307   4.958   0.717  0.1432  0.5408  0.8794
   50MOL0     C 6470   6.211   4.953   0.640  0.5919  0.5975  0.4240
   50MOL0     O 6471   6.082   4.994   0.675  0.2396 -0.2051  0.1692
   50MOL0     C 6472   6.077   5.034   0.806  0.1467  0.2332  0.1344
   50MOL0     C 6473   6.089   5.167   0.842  0.6816  0.8465  0.2693
   50MOL0     C 6474   6.083   5.210   0.968  0.9161  1.1465  0.5097
   50MOL0     C 6475   6.054   5.119   1.076  0.1779  0.1876  0.1278
   50MOL0     O 6476   6.031   5.151   1.209  0.4987  0.0360 -0.2103
   50MOL0     C 6477   6.069   5.281   1.254  0.0320 -0.5334  0.2751
   50MOL0     C 6478   6.022   5.312   1.395 -0.0129  0.9553  0.0465
   50MOL0     C 6479   6.056   5.199   1.499  0.3218  0.0197 -0.3083
   50MOL0     C 6480   5.998   5.226   1.641 -0.6053 -0.7400 -0.9125
   50MOL0     C 6481   5.863   5.153   1.659 -0.1070 -0.1013  0.4156
   50MOL0     C 6482   5.815   5.167   1.810  0.3848  0.5156 -0.6776
   50MOL0     C 6483   5.726   5.046   1.851  0.3844  0.5903 -0.6143
   50MOL0     C 6484   5.690   5.049   2.008  1.4564 -0.5360  0.3058
   50MOL0     N 6485   5.596   5.161   2.033  0.0924  1.1835 -0.3558
   50MOL0     C 6486   5.460   5.151   2.041 -0.0361  0.0896 -0.1697
   50MOL0     C 6487   5.422   5.272   2.078 -0.5306  0.1353 -0.1018
   50MOL0     C 6488   5.282   5.303   2.112  0.8971  1.0050 -0.1473
   50MOL0     C 6489   5.282   5.440   2.188  0.3225  0.5089 -0.5890
   50MOL0     C 6490   5.341   5.427   2.330  0.6739 -0.5043 -1.1404
   50MOL0     C 6491   5.359   5.555   2.405 -0.4787  0.2276 -0.9205
   50MOL0     O 6492   5.223   5.606   2.420 -0.4719 -0.3052 -0.4383
   50MOL0     C 6493   5.191   5.661   2.540  0.7526 -0.0042 -0.5189
   50MOL0     C 6494   5.060   5.651   2.583  1.3659  0.0054 -0.2253
   50MOL0     C 6495   5.018   5.694   2.712  0.5030  0.0076  0.0929
   50MOL0     C 6496   5.108   5.755   2.798 -0.6813  0.4136 -0.0782
   50MOL0     C 6497   5.051   5.787   2.929  0.3534 -0.2889  0.1629
   50MOL0     O 6498   4.963   5.704   2.985 -0.4759 -0.0025 -0.7088
   50MOL0     C 6499   4.918   5.731   3.109  1.1294 -0.9888 -0.4796
   50MOL0     C 6500   4.879   5.859   3.152  0.7772 -0.2952 -0.0826
   50MOL0     C 6501   4.848   5.889   3.285  0.6965  0.0985 -0.0355
   50MOL0     C 6502   4.871   5.797   3.388 -0.9156  0.0009 -0.8101
   50MOL0     O 6503   4.834   5.836   3.518  0.2429 -0.3285  0.2097
   50MOL0     C 6504   4.887   5.781   3.636 -0.0298 -0.7684 -0.5830
   50MOL0     C 6505   4.794   5.668   3.699 -0.6121 -0.0322  0.8174
   50MOL0     C 6506   4.660   5.734   3.747 -0.5500 -1.1189  0.7343
   50MOL0     C 6507   4.679   5.818   3.866  0.1018 -0.1264  0.3455
   50MOL0     C 6508   4.547   5.817   3.946 -0.4950 -1.0198  0.2470
   50MOL0     C 6509   4.424   5.860   3.866 -0.3172  0.1608 -0.4884
   50MOL0     C 6510   4.298   5.877   3.942  0.2321  0.7149 -0.4236
   50MOL0     C 6511   4.196   5.928   3.843 -0.4365 -0.3495 -1.2984
   50MOL0    Cl 6512   4.039   5.968   3.926 -0.2229 -0.1998  0.0906
   50MOL0     C 6513   4.919   5.675   3.348  0.1195  0.4262 -0.1976
   50MOL0     C 6514   4.929   5.634   3.211 -0.1509  0.2703 -1.0521
   50MOL0     O 6515   5.099   5.891   2.976  0.1332  0.0397 -0.0833
   50MOL0     C 6516   5.244   5.785   2.745 -0.2442  0.1913  0.0757
   50MOL0     C 6517   5.282   5.738   2.614 -0.3690  0.1029 -0.3260
   50MOL0     N 6518   5.529   5.358   2.071 -0.4932  0.1144  0.2691
   50MOL0     N 6519   5.641   5.292   2.055  0.3480  0.9606 -0.2064
   50MOL0     C 6520   6.056   4.986   1.035  0.3283  0.0422 -1.1162
   50MOL0     C 6521   6.069   4.942   0.908  0.4036 -0.3741  0.8156
   50MOL0     C 6522   6.243   4.926   0.498 -0.6453  0.1230 -0.2791
   50MOL0     C 6523   6.133   4.889   0.416 -0.6811 -0.6387 -0.5800
   50MOL0     C 6524   6.149   4.879   0.273  0.5200  0.3338  0.2223
   50MOL0     C 6525   6.269   4.875   0.212  0.4786  1.2070  0.2602
   50MOL0     O 6526   6.290   4.856   0.079  0.0931  0.1304 -0.2664
   50MOL0     C 6527   6.179   4.797  -0.003  0.9582  0.3770 -0.5119
   50MOL0     C 6528   6.135   4.649   0.041  0.3015 -0.5879 -0.9678
   50MOL0     C 6529   6.249   4.550   0.020 -0.2012 -0.3250 -0.1508
   50MOL0     C 6530   6.214   4.432  -0.065  0.5273  0.4701 -0.7374
   50MOL0     C 6531   6.202   4.462  -0.208 -0.9054 -0.3460  0.3510
   50MOL0     C 6532   6.161   4.474  -0.321 -0.3901 -0.9969 -0.8997
   50MOL0     C 6533   6.381   4.904   0.299 -0.3003 -0.4510  0.4643
   50MOL0     C 6534   6.371   4.929   0.439 -0.7896  0.2980  0.0786
   50MOL0     H 6535   6.108   5.250   0.776  1.0437  3.8703  3.8621
   50MOL0     H 6536   6.091   5.315   0.992  1.4153  0.2371  5.2632
   50MOL0     H 6537   6.020   5.355   1.189  1.6440 -1.9519 -2.7475
   50MOL0     H 6538   6.178   5.275   1.244  0.1588 -0.5455  1.5863
   50MOL0     H 6539   5.914   5.326   1.386 -0.2683 -1.4954 -1.5148
   50MOL0     H 6540   6.076   5.402   1.428  0.1591  0.4424  1.2088
   50MOL0     H 6541   6.163   5.176   1.493 -0.0616 -2.2272  0.6725
   50MOL0     H 6542   6.019   5.103   1.462  0.4086  0.2658 -1.0654
   50MOL0     H 6543   6.071   5.190   1.714 -1.5431 -2.5234 -0.8117
   50MOL0     H 6544   5.972   5.332   1.651 -1.4019 -1.0241  0.2262
   50MOL0     H 6545   5.869   5.045   1.644 -2.5995 -0.2951  0.4592
   50MOL0     H 6546   5.797   5.197   1.584  0.5451 -2.2277 -1.5466
   50MOL0     H 6547   5.766   5.264   1.823 -0.1921  0.1599 -0.1449
   50MOL0     H 6548   5.903   5.166   1.875 -0.5471 -0.7416  0.6237
   50MOL0     H 6549   5.637   5.034   1.789  0.1057  0.8613 -0.2721
   50MOL0     H 6550   5.778   4.952   1.829  0.7359  0.7444 -0.4518
   50MOL0     H 6551   5.779   5.048   2.071  0.0714  0.3734  2.4027
   50MOL0     H 6552   5.629   4.959   2.018 -0.3175  0.1781 -2.6770
   50MOL0     H 6553   5.393   5.067   2.024 -2.9048  2.0705  0.5342
   50MOL0     H 6554   5.237   5.226   2.175  1.2909  1.8320  1.1692
   50MOL0     H 6555   5.228   5.314   2.017 -1.4941 -2.0233  0.6762
   50MOL0     H 6556   5.182   5.484   2.199  1.2472  2.6903 -0.3948
   50MOL0     H 6557   5.349   5.512   2.142 -0.5100  1.4384 -0.3710
   50MOL0     H 6558   5.280   5.376   2.405 -0.3678  5.3153  2.6144
   50MOL0     H 6559   5.437   5.375   2.325  0.7628 -0.4029 -0.5595
   50MOL0     H 6560   5.426   5.617   2.346  0.4290 -0.6362 -0.8127
   50MOL0     H 6561   5.407   5.540   2.502 -1.2835  0.1184 -0.5271
   50MOL0     H 6562   4.990   5.594   2.522  1.7376 -3.3303  2.1477
   50MOL0     H 6563   4.913   5.681   2.737  0.6600 -0.5371  0.4970
   50MOL0     H 6564   4.870   5.937   3.078  0.1029  1.6944  1.9911
   50MOL0     H 6565   4.800   5.986   3.291  0.9508  0.2453 -0.3638
   50MOL0     H 6566   4.919   5.866   3.698 -0.4723  0.5481 -2.0908
   50MOL0     H 6567   4.984   5.734   3.618 -0.2499 -1.6726  0.5021
   50MOL0     H 6568   4.853   5.619   3.777  0.2053 -1.4274 -0.6202
   50MOL0     H 6569   4.773   5.594   3.621 -1.9633 -0.4553  1.5491
   50MOL0     H 6570   4.595   5.647   3.755 -0.7296 -1.0902 -0.2636
   50MOL0     H 6571   4.619   5.795   3.666 -3.9060 -5.5455 -1.2962
   50MOL0     H 6572   4.753   5.768   3.928 -1.6001 -0.8785  1.8585
   50MOL0     H 6573   4.727   5.915   3.848  1.6669 -0.8828  0.3121
   50MOL0     H 6574   4.552   5.887   4.031 -1.2288 -1.7929  0.9496
   50MOL0     H 6575   4.526   5.723   3.998 -0.6160 -0.0746  1.9790
   50MOL0     H 6576   4.404   5.785   3.789 -1.4880  1.3663 -1.4152
   50MOL0     H 6577   4.456   5.949   3.809 -1.7903  0.3718 -1.0376
   50MOL0     H 6578   4.281   5.783   3.997  1.1723  0.5228 -0.4491
   50MOL0     H 6579   4.299   5.948   4.025 -1.6494 -0.9798  1.1763
   50MOL0     H 6580   4.179   5.861   3.759 -1.7214  2.2863 -3.2698
   50MOL0     H 6581   4.227   6.022   3.797 -0.3017 -1.3415 -3.3561
   50MOL0     H 6582   4.940   5.606   3.428  2.7450  2.7083  1.2767
   50MOL0     H 6583   4.982   5.540   3.197  0.3060  0.2679  0.4378
   50MOL0     H 6584   5.316   5.807   2.822 -0.5008 -2.6609  1.2736
   50MOL0     H 6585   5.382   5.755   2.576 -0.0825 -1.5868 -0.3879
   50MOL0     H 6586   6.055   4.899   1.100  0.6000 -0.4176 -1.7234
   50MOL0     H 6587   6.058   4.835   0.890  5.4997 -0.9506 -0.2991
   50MOL0     H 6588   6.032   4.880   0.456  0.1108 -0.1142  1.6748
   50MOL0     H 6589   6.059   4.869   0.213 -0.3720  2.9320  1.0017
   50MOL0     H 6590   6.212   4.795  -0.108  1.1956  1.2608 -0.4600
   50MOL0     H 6591   6.096   4.866  -0.014  1.6704  1.0166 -2.3675
   50MOL0     H 6592   6.100   4.640   0.144  0.6191 -0.5581 -0.8550
   50MOL0     H 6593   6.060   4.619  -0.033  1.8288 -0.2157 -2.7667
   50MOL0     H 6594   6.269   4.511   0.121 -1.7407 -0.8474 -0.0096
   50MOL0     H 6595   6.331   4.609  -0.020 -0.7839  0.8535  0.3295
   50MOL0     H 6596   6.288   4.352  -0.064 -1.9900 -2.0268 -1.4702
   50MOL0     H 6597   6.118   4.389  -0.036  0.9286  0.3458  0.4413
   50MOL0     H 6598   6.135   4.487  -0.424 -0.3826 -1.8711 -1.0255
   50MOL0     H 6599   6.476   4.905   0.248  0.3463 -0.8119  1.6232
   50MOL0     H 6600   6.464   4.936   0.494 -0.7709 -0.7459  0.1923
   51MOL0     O 6601   2.059   9.417   2.375  1.0299  0.7367  0.0407
   51MOL0     C 6602   2.111   9.494   2.454 -0.3978 -0.0347  0.7912
   51MOL0     O 6603   2.113   9.480   2.591 -0.5414 -0.1483  0.4064
   51MOL0     C 6604   2.065   9.366   2.655 -0.4074 -0.3449 -0.4487
   51MOL0     C 6605   2.084   9.236   2.616  0.3256  0.3737 -0.2503
   51MOL0     C 6606   2.031   9.125   2.683 -0.1560 -0.7906  0.8324
   51MOL0     C 6607   1.954   9.146   2.799  0.1475 -0.2418 -0.3810
   51MOL0     O 6608   1.897   9.049   2.874  0.7990  0.3644 -0.1415
   51MOL0     C 6609   1.926   8.903   2.860 -0.8365  0.1532  0.0712
   51MOL0     C 6610   1.833   8.815   2.938  0.5188  1.0862  0.5395
   51MOL0     C 6611   1.687   8.873   2.939 -0.1983 -0.2954 -0.0114
   51MOL0     C 6612   1.590   8.748   2.963 -0.4614  1.2154 -0.3275
   51MOL0     C 6613   1.446   8.792   2.956 -0.6665 -0.5933 -0.0167
   51MOL0     C 6614   1.347   8.698   3.029 -0.8488 -0.2323  0.3032
   51MOL0     C 6615   1.195   8.705   2.995 -0.0920 -0.8153 -0.1710
   51MOL0     C 6616   1.139   8.577   3.048 -0.2146 -0.4486  0.1289
   51MOL0     N 6617   1.001   8.590   3.085  0.2686 -0.4730 -0.1609
   51MOL0     C 6618   0.898   8.587   2.987  0.2059  0.7877 -0.3047
   51MOL0     C 6619   0.791   8.614   3.060  0.6337 -0.5004 -0.0950
   51MOL0     C 6620   0.663   8.635   2.996  0.2372  0.0333 -0.8767
   51MOL0     C 6621   0.554   8.570   3.086  1.0911 -0.2034 -0.2963
   51MOL0     C 6622   0.413   8.580   3.031  0.1782 -0.1993  0.4319
   51MOL0     C 6623   0.314   8.505   3.125 -1.0116  0.1609  0.7069
   51MOL0     O 6624   0.321   8.552   3.259 -0.0278 -0.4849  0.1124
   51MOL0     C 6625   0.223   8.521   3.353 -0.6656  0.6478  0.2476
   51MOL0     C 6626   0.089   8.555   3.347 -0.8655 -0.0699 -1.1041
   51MOL0     C 6627   0.003   8.523   3.456 -0.7628  0.1086  0.1713
   51MOL0     C 6628   0.040   8.427   3.550 -0.2062  0.3241 -0.5195
   51MOL0     C 6629  -0.048   8.373   3.646  0.0887  0.0997  0.4520
   51MOL0     O 6630  -0.183   8.390   3.618  0.6700 -0.6988 -0.4873
   51MOL0     C 6631  -0.272   8.301   3.679  0.0125  0.1718 -0.2408
   51MOL0     C 6632  -0.300   8.182   3.616  0.6809 -0.6399  1.0573
   51MOL0     C 6633  -0.389   8.094   3.679 -0.3324  0.3932 -0.4409
   51MOL0     C 6634  -0.450   8.120   3.807  0.3034 -0.5286  0.4169
   51MOL0     O 6635  -0.538   8.025   3.860 -0.2649 -0.2372  0.3804
   51MOL0     C 6636  -0.601   8.040   4.002 -0.2329 -0.4560  0.4967
   51MOL0     C 6637  -0.740   7.980   3.979  0.4474  0.1845 -0.5285
   51MOL0     C 6638  -0.822   7.977   4.108 -0.3041 -0.7105  0.2275
   51MOL0     C 6639  -0.962   7.928   4.069  0.1434  0.0588 -0.6004
   51MOL0     C 6640  -1.040   7.925   4.193 -0.5066 -0.6106 -0.2696
   51MOL0     C 6641  -1.153   7.821   4.196  0.5817 -0.9368 -0.5401
   51MOL0     C 6642  -1.228   7.845   4.322 -0.1635  0.6420  0.5837
   51MOL0     C 6643  -1.308   7.726   4.353 -0.4473 -0.3151  0.1458
   51MOL0    Cl 6644  -1.447   7.697   4.235 -0.0271  0.7500 -0.5087
   51MOL0     C 6645  -0.417   8.236   3.869  0.6644  0.0931  0.7181
   51MOL0     C 6646  -0.332   8.327   3.809 -0.5667 -0.1819  0.1046
   51MOL0     O 6647  -0.002   8.316   3.748 -0.1563 -0.2262 -0.5674
   51MOL0     C 6648   0.179   8.387   3.550 -0.9080  0.7682  0.4438
   51MOL0     C 6649   0.263   8.433   3.452 -0.1416 -0.4203  0.2379
   51MOL0     N 6650   0.828   8.627   3.197  0.5897 -0.2201  0.1842
   51MOL0     N 6651   0.951   8.606   3.212  0.3539  0.4190  0.0600
   51MOL0     C 6652   1.951   9.277   2.850 -0.4400  0.5246  0.3766
   51MOL0     C 6653   1.994   9.390   2.768  0.9119 -0.2377  0.2080
   51MOL0     C 6654   2.143   9.630   2.411 -0.9165 -0.3191  0.1914
   51MOL0     C 6655   2.151   9.654   2.272 -0.4410  0.1667  0.3970
   51MOL0     C 6656   2.189   9.773   2.225 -0.4831  0.1673 -0.2308
   51MOL0     C 6657   2.232   9.876   2.307  1.0745 -0.3424  0.0752
   51MOL0     O 6658   2.277   9.988   2.243  0.1345  0.5398  0.9345
   51MOL0     C 6659   2.305  10.091   2.338 -1.0331 -0.3282 -0.3698
   51MOL0     C 6660   2.353  10.215   2.257 -0.7849  0.7809 -1.3096
   51MOL0     C 6661   2.373  10.335   2.357  0.4284  0.4057  0.5105
   51MOL0     C 6662   2.239  10.410   2.394  0.3781  0.5970  0.5628
   51MOL0     C 6663   2.187  10.464   2.275 -0.0396 -0.1715  0.3595
   51MOL0     C 6664   2.147  10.520   2.172 -0.1651  0.0609  0.3724
   51MOL0     C 6665   2.230   9.846   2.447 -0.4448 -1.0806 -0.6019
   51MOL0     C 6666   2.195   9.725   2.498 -0.5200 -0.0307  0.1190
   51MOL0     H 6667   2.154   9.234   2.533  0.7703 -0.4905  0.1321
   51MOL0     H 6668   2.039   9.030   2.631 -2.9142  0.3824 -2.0201
   51MOL0     H 6669   2.022   8.872   2.905 -2.1522 -1.8985  1.6957
   51MOL0     H 6670   1.918   8.888   2.752 -2.8461  1.9569 -0.0830
   51MOL0     H 6671   1.859   8.803   3.043 -0.8034 -0.5210  0.7272
   51MOL0     H 6672   1.840   8.712   2.902  0.7139 -0.0486  3.5553
   51MOL0     H 6673   1.660   8.917   2.842  1.1681 -0.0775 -0.3193
   51MOL0     H 6674   1.676   8.947   3.018  0.7174  0.8732 -0.9401
   51MOL0     H 6675   1.607   8.675   2.883  0.5959  0.1024  0.8623
   51MOL0     H 6676   1.606   8.692   3.056  3.0026 -1.7290 -2.4195
   51MOL0     H 6677   1.421   8.801   2.849  2.6136 -0.5579 -0.8834
   51MOL0     H 6678   1.442   8.886   3.012  0.8426 -2.0562  2.6862
   51MOL0     H 6679   1.360   8.719   3.136  2.7555 -1.9960  0.3503
   51MOL0     H 6680   1.388   8.598   3.012  0.7305  0.9506 -4.1238
   51MOL0     H 6681   1.160   8.803   3.029  1.2987 -0.0741 -0.8014
   51MOL0     H 6682   1.177   8.709   2.888  1.8892  1.2564 -0.4959
   51MOL0     H 6683   1.195   8.549   3.137  0.2803 -1.3233 -0.4512
   51MOL0     H 6684   1.152   8.499   2.972 -1.1378 -2.0937  1.5912
   51MOL0     H 6685   0.893   8.574   2.880  0.6926 -1.0838 -0.1402
   51MOL0     H 6686   0.652   8.598   2.894  3.0800  1.1906 -1.7114
   51MOL0     H 6687   0.638   8.741   2.989 -2.3977 -0.3823  0.8800
   51MOL0     H 6688   0.549   8.635   3.175 -0.4747  2.8096 -2.3975
   51MOL0     H 6689   0.569   8.467   3.120 -0.9728 -0.1058  1.1615
   51MOL0     H 6690   0.377   8.683   3.026 -2.3342 -0.9653  0.8469
   51MOL0     H 6691   0.408   8.534   2.932  3.3230  1.5160 -0.6443
   51MOL0     H 6692   0.345   8.400   3.126 -1.3651  0.0368 -0.1119
   51MOL0     H 6693   0.212   8.500   3.084 -0.7768  2.3353 -0.2636
   51MOL0     H 6694   0.061   8.620   3.265  2.6609  2.3380 -0.6473
   51MOL0     H 6695  -0.094   8.561   3.427  0.6639  1.0355 -4.0543
   51MOL0     H 6696  -0.260   8.146   3.523 -1.2306 -6.6419  2.1152
   51MOL0     H 6697  -0.402   7.995   3.638 -2.3942  0.4944 -0.1386
   51MOL0     H 6698  -0.620   8.141   4.038 -0.3433 -0.5219  0.6270
   51MOL0     H 6699  -0.544   7.984   4.076  0.0521 -1.9069 -0.7646
   51MOL0     H 6700  -0.733   7.883   3.929  0.0758 -0.2344  0.2182
   51MOL0     H 6701  -0.784   8.047   3.904  0.6881  0.7039 -0.2109
   51MOL0     H 6702  -0.828   8.078   4.149  0.5101 -0.7307  0.3991
   51MOL0     H 6703  -0.766   7.911   4.174  2.4707  1.1769 -0.0933
   51MOL0     H 6704  -1.014   7.992   3.997 -1.2600 -0.1943  0.1603
   51MOL0     H 6705  -0.949   7.828   4.027 -0.0074  0.1483 -0.8642
   51MOL0     H 6706  -1.085   8.025   4.198 -2.7117 -1.4822 -1.2764
   51MOL0     H 6707  -0.983   7.910   4.285  1.5493  2.6971 -0.8380
   51MOL0     H 6708  -1.110   7.721   4.206  0.7968 -0.7924  0.0734
   51MOL0     H 6709  -1.221   7.816   4.111 -0.5762 -3.2465  0.4334
   51MOL0     H 6710  -1.159   7.872   4.402 -0.0006  0.7075  0.4220
   51MOL0     H 6711  -1.298   7.925   4.294 -0.4718 -0.0058 -0.5766
   51MOL0     H 6712  -1.362   7.744   4.446 -0.7256 -5.4689  1.2531
   51MOL0     H 6713  -1.254   7.633   4.371 -0.1823 -0.1027  0.4664
   51MOL0     H 6714  -0.459   8.262   3.966  0.5196  0.3299  0.5921
   51MOL0     H 6715  -0.314   8.418   3.864  2.7115 -2.0728  2.5050
   51MOL0     H 6716   0.214   8.309   3.617 -1.0435 -2.8728 -3.3073
   51MOL0     H 6717   0.368   8.408   3.458 -0.5102 -1.8827  1.5343
   51MOL0     H 6718   1.917   9.306   2.949 -0.9134  1.5580 -0.0806
   51MOL0     H 6719   1.990   9.492   2.806  1.1922 -0.7694  1.7557
   51MOL0     H 6720   2.129   9.582   2.194  3.3419 -0.2085 -0.5386
   51MOL0     H 6721   2.175   9.787   2.118 -0.3100 -2.2823 -0.6470
   51MOL0     H 6722   2.373  10.056   2.417  1.0224  2.0811 -0.9398
   51MOL0     H 6723   2.213  10.118   2.391 -1.7367 -0.9622 -1.2348
   51MOL0     H 6724   2.446  10.190   2.206 -1.3235 -3.0759 -0.7223
   51MOL0     H 6725   2.273  10.235   2.186 -2.4206 -1.2437 -0.1631
   51MOL0     H 6726   2.442  10.402   2.306 -2.1223  0.7692 -2.7555
   51MOL0     H 6727   2.422  10.295   2.447  1.0964 -3.7024 -1.4387
   51MOL0     H 6728   2.162  10.339   2.428  0.8401  0.3456  1.1190
   51MOL0     H 6729   2.259  10.479   2.477 -3.7175  3.6496 -0.6988
   51MOL0     H 6730   2.105  10.591   2.103 -0.4690  0.3349  0.8266
   51MOL0     H 6731   2.265   9.921   2.517  2.5790  0.1478 -3.2108
   51MOL0     H 6732   2.189   9.723   2.606  3.7055  0.6950  0.5374
   52MOL0     O 6733   6.353   4.788   8.469  0.7203 -0.0532 -0.5915
   52MOL0     C 6734   6.478   4.794   8.459  0.1443 -0.8284 -1.0123
   52MOL0     O 6735   6.568   4.855   8.549  0.8659  0.1691  0.2877
   52MOL0     C 6736   6.510   4.884   8.667  0.6166  0.5484  0.4193
   52MOL0     C 6737   6.552   4.812   8.778 -0.2644 -0.8831 -0.0887
   52MOL0     C 6738   6.513   4.851   8.910 -0.0668 -0.9080  0.6364
   52MOL0     C 6739   6.428   4.962   8.928  0.9649  0.3300 -0.0728
   52MOL0     O 6740   6.384   5.000   9.052  0.2449 -0.2027 -0.4991
   52MOL0     C 6741   6.452   5.114   9.098 -0.4409  0.2919  0.1168
   52MOL0     C 6742   6.391   5.158   9.231  0.7480  0.9588 -1.0534
   52MOL0     C 6743   6.246   5.216   9.202  0.6484  0.1111 -0.2707
   52MOL0     C 6744   6.226   5.340   9.282 -0.2098  0.4314 -0.3372
   52MOL0     C 6745   6.205   5.308   9.429  0.3869 -0.0011 -0.2897
   52MOL0     C 6746   6.264   5.408   9.527  0.4643 -0.1038  0.2013
   52MOL0     C 6747   6.237   5.547   9.482 -0.4364 -0.0675 -0.5544
   52MOL0     C 6748   6.256   5.653   9.585  0.2606  0.3539  0.4321
   52MOL0     N 6749   6.156   5.662   9.683  0.1833  0.5634  0.6793
   52MOL0     C 6750   6.022   5.682   9.671  0.1357  0.8791  0.4679
   52MOL0     C 6751   5.976   5.711   9.793 -0.3003  0.7358  0.7335
   52MOL0     C 6752   5.836   5.738   9.844  0.4170  0.8162 -0.0777
   52MOL0     C 6753   5.728   5.705   9.748  0.9331 -0.7714 -0.0771
   52MOL0     C 6754   5.683   5.557   9.763  0.6483  0.0931 -0.1438
   52MOL0     C 6755   5.754   5.461   9.680  0.0966  0.9462 -0.6257
   52MOL0     O 6756   5.745   5.500   9.543  0.1271  0.1779  0.3512
   52MOL0     C 6757   5.753   5.413   9.448  0.3225 -0.4047  0.3589
   52MOL0     C 6758   5.736   5.478   9.330  0.7993 -0.8057  1.3144
   52MOL0     C 6759   5.747   5.410   9.214  0.1347 -0.1911  0.6094
   52MOL0     C 6760   5.777   5.278   9.213  1.2906  1.1929  0.8044
   52MOL0     C 6761   5.798   5.207   9.078 -0.5972  0.5005  0.1233
   52MOL0     O 6762   5.841   5.081   9.090  0.1646  0.6024 -0.1878
   52MOL0     C 6763   5.877   5.008   8.976  0.3763 -0.6999 -0.7644
   52MOL0     C 6764   5.780   4.933   8.908 -0.1034 -0.1420 -0.4906
   52MOL0     C 6765   5.800   4.857   8.795 -1.0320 -0.3953  0.0929
   52MOL0     C 6766   5.925   4.860   8.732 -0.4774 -0.5029 -0.3240
   52MOL0     O 6767   5.925   4.788   8.624  0.7519  0.3058  0.8518
   52MOL0     C 6768   6.047   4.765   8.558  0.1119  1.0067  0.2561
   52MOL0     C 6769   6.025   4.652   8.465 -0.2497  0.6517 -0.2325
   52MOL0     C 6770   5.917   4.677   8.358  0.3367 -0.6650  0.0052
   52MOL0     C 6771   5.843   4.552   8.315 -0.1000  0.4224  0.6029
   52MOL0     C 6772   5.747   4.489   8.423 -0.6452  0.5299 -0.1924
   52MOL0     C 6773   5.648   4.585   8.493  0.0138  0.2834  0.6544
   52MOL0     C 6774   5.534   4.514   8.561  0.4237  0.9810 -0.0448
   52MOL0     C 6775   5.394   4.528   8.505 -0.7653 -0.1955 -0.1609
   52MOL0    Cl 6776   5.348   4.712   8.504  0.0450 -0.0269  0.2771
   52MOL0     C 6777   6.028   4.935   8.798 -0.5276 -0.4185  1.0320
   52MOL0     C 6778   6.005   5.009   8.915  0.7628 -0.2218 -0.2382
   52MOL0     O 6779   5.768   5.266   8.976 -0.3010 -0.5484 -0.1139
   52MOL0     C 6780   5.802   5.212   9.338 -0.4184  0.5586  0.6902
   52MOL0     C 6781   5.792   5.279   9.455 -0.6077 -0.6702 -0.2582
   52MOL0     N 6782   6.085   5.711   9.880  0.7980 -0.3197  0.8595
   52MOL0     N 6783   6.192   5.673   9.814  0.0417 -0.8174 -0.0240
   52MOL0     C 6784   6.386   5.033   8.813 -0.0768 -0.8037  0.3417
   52MOL0     C 6785   6.419   4.992   8.676 -0.3471 -0.7832  0.6922
   52MOL0     C 6786   6.539   4.738   8.335 -0.7271  0.1070 -0.1748
   52MOL0     C 6787   6.665   4.768   8.291 -0.4034 -0.8861 -0.0723
   52MOL0     C 6788   6.726   4.716   8.180  0.9482 -0.6685 -0.9059
   52MOL0     C 6789   6.654   4.630   8.095  0.4704  0.2059  0.2136
   52MOL0     O 6790   6.699   4.582   7.972 -0.2486  0.3650  0.2043
   52MOL0     C 6791   6.806   4.630   7.882 -0.5363 -0.5820 -0.2562
   52MOL0     C 6792   6.761   4.717   7.776  0.1422  0.5545  0.6223
   52MOL0     C 6793   6.640   4.664   7.695  0.6432  0.3148  0.1449
   52MOL0     C 6794   6.663   4.681   7.546  0.0672 -0.3924  0.0662
   52MOL0     C 6795   6.779   4.617   7.490  0.3114 -0.7191  0.1623
   52MOL0     C 6796   6.878   4.566   7.447 -0.0112 -0.4227  1.2490
   52MOL0     C 6797   6.520   4.598   8.140 -0.4272  1.2374 -1.0018
   52MOL0     C 6798   6.463   4.651   8.264  0.4641 -0.3632  0.2346
   52MOL0     H 6799   6.628   4.735   8.770  1.7318  1.1392 -1.8901
   52MOL0     H 6800   6.552   4.787   8.988 -0.7697 -1.5983  0.4283
   52MOL0     H 6801   6.440   5.201   9.034  2.6803  2.6368  2.4291
   52MOL0     H 6802   6.560   5.097   9.109 -0.6560 -0.1697  1.8704
   52MOL0     H 6803   6.451   5.243   9.263 -0.5901  1.0276  1.5448
   52MOL0     H 6804   6.371   5.086   9.311  0.1088  2.2015 -0.0595
   52MOL0     H 6805   6.175   5.134   9.217  1.2393 -0.3325  0.1459
   52MOL0     H 6806   6.251   5.241   9.096  1.7954  1.0048 -0.0271
   52MOL0     H 6807   6.317   5.397   9.265 -0.0854  0.1987 -0.4493
   52MOL0     H 6808   6.135   5.393   9.251 -0.4034  1.3835  1.6841
   52MOL0     H 6809   6.238   5.208   9.459 -2.3200 -1.1199 -0.6907
   52MOL0     H 6810   6.097   5.309   9.445  0.5182 -3.0899  1.8172
   52MOL0     H 6811   6.373   5.397   9.530  0.3795 -0.8915  0.7713
   52MOL0     H 6812   6.232   5.389   9.630  2.2597  3.7325  1.6429
   52MOL0     H 6813   6.324   5.562   9.417  1.3910  1.7349  2.1183
   52MOL0     H 6814   6.147   5.567   9.424 -0.8139 -0.1096  0.0056
   52MOL0     H 6815   6.243   5.744   9.525 -0.2839  2.0192  2.9260
   52MOL0     H 6816   6.360   5.649   9.619  2.2663 -1.7527 -4.9407
   52MOL0     H 6817   5.956   5.661   9.587 -2.2772  1.4163  2.1244
   52MOL0     H 6818   5.823   5.844   9.868 -2.0616  0.3760  0.9079
   52MOL0     H 6819   5.804   5.688   9.936 -2.2753  1.9875 -0.2755
   52MOL0     H 6820   5.738   5.741   9.645 -0.4942  2.8213  0.8583
   52MOL0     H 6821   5.648   5.768   9.789  2.8491  0.6013  1.7653
   52MOL0     H 6822   5.682   5.530   9.868 -1.9615 -1.5832 -0.5101
   52MOL0     H 6823   5.583   5.572   9.721  1.9737  0.2912 -3.5717
   52MOL0     H 6824   5.691   5.372   9.688  1.4817 -0.1096 -1.2100
   52MOL0     H 6825   5.858   5.441   9.707 -0.4282  0.3565  1.0979
   52MOL0     H 6826   5.711   5.584   9.329 -1.5195 -1.2995  0.2032
   52MOL0     H 6827   5.753   5.465   9.120 -0.1720 -4.3640 -2.1491
   52MOL0     H 6828   5.676   4.951   8.935 -0.3373 -0.4821 -1.1554
   52MOL0     H 6829   5.715   4.806   8.751 -1.3986 -0.9735  1.4326
   52MOL0     H 6830   6.118   4.721   8.629 -0.2735 -1.6574 -0.9171
   52MOL0     H 6831   6.089   4.858   8.518 -3.2974  2.3168 -0.5802
   52MOL0     H 6832   5.997   4.559   8.516 -2.3164  1.4280  0.1471
   52MOL0     H 6833   6.126   4.652   8.425  0.1820  0.7013  0.8446
   52MOL0     H 6834   5.959   4.744   8.282 -2.8386  2.0315  0.3928
   52MOL0     H 6835   5.844   4.749   8.396  2.0236  1.3201 -0.2737
   52MOL0     H 6836   5.776   4.590   8.238  0.4828 -0.9621 -0.6256
   52MOL0     H 6837   5.909   4.486   8.258 -2.4882 -1.7835  0.2078
   52MOL0     H 6838   5.809   4.451   8.505  1.1094  1.8768 -0.8224
   52MOL0     H 6839   5.700   4.400   8.380  1.9860 -0.5931 -0.9910
   52MOL0     H 6840   5.615   4.650   8.411 -2.9321  1.6220  2.7245
   52MOL0     H 6841   5.692   4.644   8.574  0.1954 -0.0351  0.7900
   52MOL0     H 6842   5.560   4.408   8.562  1.9100  1.1343 -4.5208
   52MOL0     H 6843   5.538   4.571   8.654  0.1212 -0.5628  0.9580
   52MOL0     H 6844   5.332   4.476   8.579  1.0123  2.6204  3.6695
   52MOL0     H 6845   5.381   4.466   8.416  0.1672 -1.3137  0.4563
   52MOL0     H 6846   6.120   4.930   8.741  0.3812 -1.9298  2.5549
   52MOL0     H 6847   6.083   5.062   8.969  0.5397 -1.1000  1.0059
   52MOL0     H 6848   5.816   5.104   9.341 -2.4041 -0.0270 -3.2880
   52MOL0     H 6849   5.807   5.225   9.548 -2.0210 -0.2381  0.2526
   52MOL0     H 6850   6.344   5.132   8.824  1.3786  0.3747 -3.2567
   52MOL0     H 6851   6.386   5.051   8.590 -0.9911 -0.8985  0.8503
   52MOL0     H 6852   6.705   4.855   8.342  0.0835 -0.5860 -0.9502
   52MOL0     H 6853   6.826   4.740   8.145  0.4652  0.1157 -1.8025
   52MOL0     H 6854   6.839   4.538   7.833 -0.3195 -1.0947  0.8260
   52MOL0     H 6855   6.888   4.679   7.935 -2.5330 -0.4979  3.0395
   52MOL0     H 6856   6.732   4.813   7.820  2.5407  2.4254 -1.5430
   52MOL0     H 6857   6.846   4.741   7.711  1.0308 -1.0580  1.1482
   52MOL0     H 6858   6.553   4.724   7.723 -0.3159  0.5309 -2.9032
   52MOL0     H 6859   6.618   4.560   7.722 -1.2559  0.8050  0.6493
   52MOL0     H 6860   6.576   4.639   7.494 -0.5592  1.2277 -0.2883
   52MOL0     H 6861   6.660   4.787   7.519 -2.3519 -0.0139  1.4578
   52MOL0     H 6862   6.967   4.519   7.411 -0.4171  1.5304 -2.8382
   52MOL0     H 6863   6.459   4.522   8.093 -0.7136  0.1014  1.0988
   52MOL0     H 6864   6.363   4.624   8.297 -0.9331  2.7138 -1.0595
   53MOL0     O 6865   2.018   6.267   3.734 -0.0638 -0.2912 -0.3269
   53MOL0     C 6866   2.044   6.192   3.643 -0.6168 -1.1520  0.2896
   53MOL0     O 6867   1.967   6.187   3.528  0.1960 -0.4458  0.1415
   53MOL0     C 6868   1.858   6.262   3.501 -0.0019  0.3071  0.5642
   53MOL0     C 6869   1.748   6.284   3.582  0.3708 -0.7870 -0.2739
   53MOL0     C 6870   1.639   6.361   3.527 -0.2406 -0.3939  0.6081
   53MOL0     C 6871   1.645   6.413   3.402 -0.0166  0.2533  0.5465
   53MOL0     O 6872   1.539   6.487   3.353  0.8797 -0.6358  0.3783
   53MOL0     C 6873   1.428   6.536   3.425 -0.8264 -0.4369 -0.4618
   53MOL0     C 6874   1.320   6.439   3.456  0.2893 -0.6859 -0.5477
   53MOL0     C 6875   1.192   6.504   3.525 -0.0789 -0.0510  0.4761
   53MOL0     C 6876   1.072   6.400   3.530  0.5940  0.9591 -0.1436
   53MOL0     C 6877   1.000   6.381   3.392  0.4580 -0.9793 -0.3945
   53MOL0     C 6878   0.907   6.265   3.385 -0.4369  0.6498  0.3043
   53MOL0     C 6879   0.968   6.128   3.398  0.1217  0.1123  0.5209
   53MOL0     C 6880   0.866   6.016   3.361 -0.2078 -0.4428  0.0222
   53MOL0     N 6881   0.741   6.009   3.430 -0.0675 -0.4958  0.4552
   53MOL0     C 6882   0.614   6.021   3.364 -0.7058  0.5922  0.0840
   53MOL0     C 6883   0.524   5.998   3.456 -0.6293  0.0657 -0.8727
   53MOL0     C 6884   0.372   5.992   3.457 -0.2550 -0.3508 -0.6507
   53MOL0     C 6885   0.300   6.127   3.483  0.3088 -1.0545 -0.6320
   53MOL0     C 6886   0.297   6.176   3.625  0.7989  0.6019  0.6626
   53MOL0     C 6887   0.238   6.069   3.725  0.6642 -0.5029  0.2282
   53MOL0     O 6888   0.098   6.047   3.708 -0.4641 -0.2633 -0.9210
   53MOL0     C 6889   0.004   6.053   3.809  0.6480  0.0841  0.3458
   53MOL0     C 6890   0.036   6.045   3.946 -0.1563  0.0943  1.0695
   53MOL0     C 6891  -0.076   6.057   4.031  1.3000 -0.1804 -0.1595
   53MOL0     C 6892  -0.211   6.094   3.994 -0.5004  0.1995 -0.8143
   53MOL0     C 6893  -0.319   6.102   4.104  0.5168 -0.1021 -0.6449
   53MOL0     O 6894  -0.441   6.052   4.077 -0.4647  0.5037 -0.9536
   53MOL0     C 6895  -0.534   6.054   4.173  0.7682 -0.2972  0.0513
   53MOL0     C 6896  -0.590   5.932   4.214 -0.0299  0.0065  0.0978
   53MOL0     C 6897  -0.696   5.929   4.296 -0.0176  0.4322 -0.2190
   53MOL0     C 6898  -0.751   6.043   4.357  0.0794  0.6425  0.2441
   53MOL0     O 6899  -0.858   6.041   4.437  0.1423 -0.1132  0.1067
   53MOL0     C 6900  -0.920   5.919   4.462 -0.8029  1.2580  0.4461
   53MOL0     C 6901  -1.051   5.956   4.535  0.2162 -0.1286  1.3152
   53MOL0     C 6902  -1.031   5.995   4.682  0.6509  1.0550  0.2834
   53MOL0     C 6903  -0.917   6.096   4.713 -1.1296  0.0379 -0.2112
   53MOL0     C 6904  -0.928   6.160   4.848 -0.2278 -0.9136  1.1877
   53MOL0     C 6905  -0.834   6.288   4.861  0.2904  0.6071 -0.1590
   53MOL0     C 6906  -0.846   6.317   5.012 -0.6065 -0.2606  0.0003
   53MOL0     C 6907  -0.712   6.374   5.064 -0.0844  0.0653  0.4790
   53MOL0    Cl 6908  -0.585   6.256   5.107 -0.1219 -0.1933 -0.1700
   53MOL0     C 6909  -0.700   6.167   4.309  0.0506  0.7477 -0.8715
   53MOL0     C 6910  -0.595   6.165   4.222 -0.4629  0.3679  0.7191
   53MOL0     O 6911  -0.288   6.148   4.216  0.4892 -0.8481  0.4584
   53MOL0     C 6912  -0.229   6.102   3.856  0.5768  0.2032 -0.1559
   53MOL0     C 6913  -0.124   6.085   3.763  0.5971 -0.1714 -0.0610
   53MOL0     N 6914   0.578   5.961   3.573 -0.0858 -0.2813  0.2407
   53MOL0     N 6915   0.706   5.971   3.555 -0.3156  0.7764  0.0316
   53MOL0     C 6916   1.750   6.373   3.318  0.3153  0.1482 -0.2576
   53MOL0     C 6917   1.857   6.299   3.366 -0.3832  0.0250  0.1482
   53MOL0     C 6918   2.158   6.089   3.661 -0.4478  0.3591  0.3480
   53MOL0     C 6919   2.232   6.077   3.780 -0.5082 -0.9127  0.5597
   53MOL0     C 6920   2.315   5.970   3.797  0.6881 -0.6877 -0.2770
   53MOL0     C 6921   2.347   5.880   3.692 -0.2232 -0.8798 -0.0371
   53MOL0     O 6922   2.422   5.774   3.713 -0.1340 -0.1818 -0.7794
   53MOL0     C 6923   2.560   5.811   3.746 -0.3488 -0.2483  0.1595
   53MOL0     C 6924   2.646   5.817   3.613 -0.4839 -0.1303 -0.2569
   53MOL0     C 6925   2.657   5.953   3.535  0.9553 -0.3106  0.4794
   53MOL0     C 6926   2.720   5.939   3.405 -1.3835 -0.3892  0.1336
   53MOL0     C 6927   2.861   5.909   3.401 -0.1937 -0.3810 -0.3325
   53MOL0     C 6928   2.977   5.883   3.402 -0.4625  0.1830  0.2244
   53MOL0     C 6929   2.297   5.910   3.565  0.9636 -0.1016  0.6066
   53MOL0     C 6930   2.194   6.012   3.547 -0.3935  0.5991 -0.3456
   53MOL0     H 6931   1.754   6.239   3.680 -1.3831  0.6304  0.5354
   53MOL0     H 6932   1.556   6.380   3.595  0.6647  1.2158  1.3239
   53MOL0     H 6933   1.382   6.621   3.374 -1.1639 -0.0456  0.4856
   53MOL0     H 6934   1.466   6.565   3.523  1.8643 -3.9826 -0.2300
   53MOL0     H 6935   1.352   6.357   3.521 -2.5175 -0.5908  1.1710
   53MOL0     H 6936   1.300   6.407   3.353 -0.2690 -1.1292 -0.3093
   53MOL0     H 6937   1.169   6.581   3.451  0.1197 -0.1435  0.3182
   53MOL0     H 6938   1.204   6.546   3.625 -4.2309  1.5712  0.4904
   53MOL0     H 6939   1.129   6.317   3.574 -1.7410  0.2702  1.7872
   53MOL0     H 6940   1.000   6.428   3.608  2.8739  2.4457  1.5429
   53MOL0     H 6941   1.072   6.348   3.317 -1.0045  0.5417 -2.5844
   53MOL0     H 6942   0.950   6.469   3.351  0.9305 -0.5314 -0.0211
   53MOL0     H 6943   0.864   6.268   3.284 -1.2283  1.4156  0.6550
   53MOL0     H 6944   0.832   6.275   3.463 -0.7132  0.7510  0.0274
   53MOL0     H 6945   1.049   6.106   3.328  1.4996  1.6717  1.5747
   53MOL0     H 6946   1.000   6.108   3.500 -1.2387 -3.2169  0.4246
   53MOL0     H 6947   0.914   5.920   3.383  1.9326  0.4297 -0.5895
   53MOL0     H 6948   0.847   6.016   3.253  1.9153 -2.5348 -0.4017
   53MOL0     H 6949   0.582   6.047   3.264  0.8057  2.6076  0.0537
   53MOL0     H 6950   0.341   5.899   3.506  0.0596 -0.9350 -1.5336
   53MOL0     H 6951   0.344   5.963   3.356 -1.9111  0.3270 -0.4113
   53MOL0     H 6952   0.195   6.108   3.462  0.5306 -0.5172 -2.3712
   53MOL0     H 6953   0.326   6.210   3.416 -0.0254 -1.4072 -1.2029
   53MOL0     H 6954   0.399   6.210   3.646 -0.2494  4.1205  0.7184
   53MOL0     H 6955   0.232   6.264   3.629 -0.9557 -0.0199 -4.8355
   53MOL0     H 6956   0.249   6.109   3.826 -3.9644  1.5876  0.1575
   53MOL0     H 6957   0.287   5.972   3.711 -1.3311 -1.3071 -1.7537
   53MOL0     H 6958   0.129   6.007   3.986 -0.2501 -2.4940 -0.9056
   53MOL0     H 6959  -0.056   6.042   4.136 -0.3591 -0.2602  0.1738
   53MOL0     H 6960  -0.558   5.832   4.186 -3.9818 -2.0848  2.2110
   53MOL0     H 6961  -0.740   5.832   4.316  2.7681 -1.1567 -1.3117
   53MOL0     H 6962  -0.856   5.854   4.522 -0.5317  2.1742  1.1828
   53MOL0     H 6963  -0.952   5.861   4.375  0.7294 -0.6924  1.1082
   53MOL0     H 6964  -1.110   5.864   4.532 -0.8859  0.5372 -2.2665
   53MOL0     H 6965  -1.107   6.032   4.480  1.0338 -1.0854 -0.9565
   53MOL0     H 6966  -1.008   5.902   4.735 -1.2568  0.7988  0.7613
   53MOL0     H 6967  -1.131   6.028   4.712  0.0141  1.1180 -1.7425
   53MOL0     H 6968  -0.818   6.049   4.707 -0.2793  1.7265 -0.1367
   53MOL0     H 6969  -0.902   6.171   4.635  3.2168 -0.7557 -0.3914
   53MOL0     H 6970  -0.888   6.083   4.916 -3.0159 -2.7123  0.9315
   53MOL0     H 6971  -1.029   6.183   4.880 -0.0983  0.4851  0.6696
   53MOL0     H 6972  -0.854   6.372   4.795 -1.7854  0.6361  0.4531
   53MOL0     H 6973  -0.735   6.249   4.834  0.0767  1.0017 -1.5603
   53MOL0     H 6974  -0.918   6.398   5.024 -1.2062 -0.7709 -0.1367
   53MOL0     H 6975  -0.879   6.237   5.079  0.5105 -1.1553 -0.4840
   53MOL0     H 6976  -0.740   6.429   5.154  1.5785  2.1935 -0.2102
   53MOL0     H 6977  -0.673   6.450   4.997  0.3400  0.8247  1.5617
   53MOL0     H 6978  -0.752   6.256   4.341  0.2901  0.1231  1.4755
   53MOL0     H 6979  -0.578   6.266   4.184  3.2624 -0.8343 -1.3057
   53MOL0     H 6980  -0.325   6.129   3.814  0.9953  2.3408  0.1407
   53MOL0     H 6981  -0.137   6.088   3.655 -0.1577  3.0479  0.0172
   53MOL0     H 6982   1.739   6.382   3.210  0.2583  2.7527 -0.0862
   53MOL0     H 6983   1.935   6.271   3.296 -1.9085  0.2044 -1.7089
   53MOL0     H 6984   2.208   6.143   3.863 -0.4668  0.9260 -0.8373
   53MOL0     H 6985   2.337   5.953   3.902  0.1538  3.6085  0.7456
   53MOL0     H 6986   2.596   5.737   3.817  0.1342  0.7203  0.9530
   53MOL0     H 6987   2.559   5.913   3.786  0.6222 -0.7808  1.6029
   53MOL0     H 6988   2.748   5.780   3.625 -0.9521 -0.8855  1.6697
   53MOL0     H 6989   2.599   5.744   3.546 -0.5323  1.0455 -1.5682
   53MOL0     H 6990   2.723   6.013   3.598 -1.5891 -0.2010  3.2926
   53MOL0     H 6991   2.559   6.002   3.536  0.9436 -0.0699  4.3637
   53MOL0     H 6992   2.665   5.866   3.344 -0.9045 -3.1673  2.7811
   53MOL0     H 6993   2.719   6.041   3.366  2.6983  0.9392  2.7948
   53MOL0     H 6994   3.084   5.874   3.399 -0.6681 -3.7579 -2.1278
   53MOL0     H 6995   2.328   5.843   3.485  2.0138  1.9794 -0.8007
   53MOL0     H 6996   2.135   6.021   3.456 -1.1113  1.5134  0.1941
   54MOL0     O 6997   4.075  10.870   6.486  0.2486  0.1174  0.7304
   54MOL0     C 6998   4.026  10.789   6.405 -0.9141  0.8996  0.2195
   54MOL0     O 6999   3.906  10.724   6.425 -0.1591 -0.3105  1.1268
   54MOL0     C 7000   3.835  10.752   6.534  0.4526 -0.7646  0.2301
   54MOL0     C 7001   3.711  10.825   6.505  0.6140 -0.0738 -0.9522
   54MOL0     C 7002   3.625  10.869   6.612 -0.6252  0.1101  0.0723
   54MOL0     C 7003   3.664  10.829   6.750  0.7640  0.9381  0.7151
   54MOL0     O 7004   3.575  10.855   6.853  0.4898  0.2692 -0.2204
   54MOL0     C 7005   3.578  10.780   6.976  0.3232 -0.1254  0.2200
   54MOL0     C 7006   3.462  10.828   7.058  0.4282  0.0552 -0.4890
   54MOL0     C 7007   3.429  10.717   7.158 -0.0820  0.3527  0.1771
   54MOL0     C 7008   3.338  10.766   7.282  0.0107  0.2040  0.1643
   54MOL0     C 7009   3.225  10.863   7.252  0.4408  0.0429  0.2356
   54MOL0     C 7010   3.148  10.889   7.387 -0.5517 -0.3417 -0.3363
   54MOL0     C 7011   3.105  11.033   7.392  0.3420 -0.2813 -0.5138
   54MOL0     C 7012   3.202  11.147   7.452  0.2667  0.7806  0.2768
   54MOL0     N 7013   3.344  11.151   7.394 -0.9236  0.5662  0.1178
   54MOL0     C 7014   3.453  11.091   7.457  0.3780 -0.6160  0.8969
   54MOL0     C 7015   3.551  11.082   7.369 -0.9086 -0.6611  0.7383
   54MOL0     C 7016   3.687  11.035   7.408  0.6243  0.2851  0.6025
   54MOL0     C 7017   3.759  10.945   7.308  0.3426 -0.1465 -0.4544
   54MOL0     C 7018   3.849  11.010   7.207  0.4407  0.7624 -0.7264
   54MOL0     C 7019   3.773  11.064   7.081 -0.6950  0.3372 -0.2305
   54MOL0     O 7020   3.862  11.091   6.978 -0.0262  0.0930 -0.3118
   54MOL0     C 7021   3.920  11.218   6.979 -0.2138  0.0426  0.2332
   54MOL0     C 7022   4.039  11.218   6.920 -0.3105 -0.3222  0.3173
   54MOL0     C 7023   4.105  11.333   6.911  0.2666  0.1578 -0.2170
   54MOL0     C 7024   4.057  11.455   6.958  0.2753  0.9431 -0.3617
   54MOL0     C 7025   4.118  11.592   6.940 -0.2756  0.3511 -0.9414
   54MOL0     O 7026   4.053  11.702   6.986  0.0780 -0.7517  0.1393
   54MOL0     C 7027   4.122  11.822   6.995  0.3006 -0.1959 -0.2238
   54MOL0     C 7028   4.149  11.898   6.881  0.1266 -0.6960  0.3821
   54MOL0     C 7029   4.205  12.028   6.898 -0.7621 -0.4118 -0.5521
   54MOL0     C 7030   4.239  12.083   7.023  0.3603  0.2596 -0.5168
   54MOL0     O 7031   4.304  12.203   7.040 -0.1042  0.3849  0.0161
   54MOL0     C 7032   4.395  12.258   6.952 -0.3491 -0.5977 -0.8486
   54MOL0     C 7033   4.485  12.147   6.900 -0.2688  0.3580 -0.9947
   54MOL0     C 7034   4.616  12.202   6.857 -0.1910 -0.3482 -0.4075
   54MOL0     C 7035   4.610  12.312   6.760 -0.4106 -1.0299 -0.1614
   54MOL0     C 7036   4.749  12.336   6.701 -0.1935 -0.4923 -0.0934
   54MOL0     C 7037   4.742  12.447   6.595  0.0329  0.4045 -0.9515
   54MOL0     C 7038   4.879  12.507   6.548 -0.0395  0.7471  0.9745
   54MOL0     C 7039   4.856  12.595   6.420  0.1298  1.1453  0.5836
   54MOL0    Cl 7040   4.833  12.493   6.276  0.3373 -0.3739 -0.3273
   54MOL0     C 7041   4.220  11.993   7.132  0.0106 -0.6442  0.4326
   54MOL0     C 7042   4.161  11.869   7.121 -0.2794  0.1014  0.7312
   54MOL0     O 7043   4.228  11.590   6.891 -0.2431 -0.1478 -0.1047
   54MOL0     C 7044   3.940  11.450   7.029 -0.5742  0.3794 -1.0140
   54MOL0     C 7045   3.869  11.332   7.036 -1.2545 -0.9356 -0.2569
   54MOL0     N 7046   3.503  11.138   7.246  0.4812  0.0003  0.6313
   54MOL0     N 7047   3.383  11.176   7.264  0.0095  0.1945 -0.7039
   54MOL0     C 7048   3.786  10.767   6.768 -0.9373 -0.5317  0.1830
   54MOL0     C 7049   3.875  10.732   6.657  0.8743 -0.1611 -1.0133
   54MOL0     C 7050   4.121  10.741   6.295  0.3333 -0.2942 -0.4384
   54MOL0     C 7051   4.237  10.804   6.263  0.3065  0.7010  0.0831
   54MOL0     C 7052   4.305  10.756   6.152 -0.0599  0.1460 -0.5896
   54MOL0     C 7053   4.271  10.645   6.078  0.3996  0.2640 -0.1567
   54MOL0     O 7054   4.367  10.608   5.995  0.3398  0.1357  0.2454
   54MOL0     C 7055   4.357  10.501   5.903  0.1872  0.1159 -0.9701
   54MOL0     C 7056   4.496  10.484   5.854 -0.3401 -0.1511 -0.6136
   54MOL0     C 7057   4.512  10.364   5.761  0.4236 -0.3970  0.4929
   54MOL0     C 7058   4.523  10.227   5.825 -0.1109  1.3363  0.4633
   54MOL0     C 7059   4.390  10.157   5.832  0.7382 -0.7012 -0.9717
   54MOL0     C 7060   4.278  10.117   5.852 -0.1504 -0.4106 -1.1638
   54MOL0     C 7061   4.143  10.588   6.104  0.3891  0.0847  0.8747
   54MOL0     C 7062   4.065  10.643   6.209 -0.4405  1.0794 -0.2679
   54MOL0     H 7063   3.676  10.847   6.404  0.0860  2.8092 -0.2430
   54MOL0     H 7064   3.537  10.932   6.601 -0.3978  0.6292  1.0798
   54MOL0     H 7065   3.669  10.788   7.036  0.3597  0.2454  0.1199
   54MOL0     H 7066   3.570  10.672   6.963  1.9020 -0.6057  2.6287
   54MOL0     H 7067   3.373  10.858   7.002 -1.3786 -0.8985  1.6919
   54MOL0     H 7068   3.501  10.919   7.105 -0.2624  0.3321 -0.4506
   54MOL0     H 7069   3.527  10.684   7.194  0.2714 -1.7122 -2.4147
   54MOL0     H 7070   3.384  10.630   7.110  0.5761  0.9052 -1.5382
   54MOL0     H 7071   3.294  10.685   7.341 -2.0006  0.0574 -1.4193
   54MOL0     H 7072   3.401  10.826   7.348 -2.7125  2.3634  0.9390
   54MOL0     H 7073   3.160  10.833   7.170  0.9045  3.5792 -1.6282
   54MOL0     H 7074   3.272  10.957   7.222 -1.8129  1.4384  0.8686
   54MOL0     H 7075   3.205  10.864   7.477 -2.0706  1.4656  1.2083
   54MOL0     H 7076   3.057  10.828   7.391 -2.1984  2.0064 -0.3444
   54MOL0     H 7077   3.059  11.056   7.296 -0.1427 -2.2244 -0.7899
   54MOL0     H 7078   3.020  11.023   7.460 -0.0844 -2.9602 -1.3159
   54MOL0     H 7079   3.207  11.131   7.560  2.5910  0.1685  0.1315
   54MOL0     H 7080   3.151  11.240   7.426 -1.9961 -0.2208  0.8932
   54MOL0     H 7081   3.454  11.066   7.563 -2.0197  3.2938  2.0498
   54MOL0     H 7082   3.678  10.978   7.501 -2.3272 -1.6804 -0.7181
   54MOL0     H 7083   3.736  11.126   7.444 -1.6457  1.9137 -0.1479
   54MOL0     H 7084   3.695  10.864   7.271 -0.8966  0.9567 -0.8193
   54MOL0     H 7085   3.836  10.893   7.366  1.5336 -0.4282 -2.2200
   54MOL0     H 7086   3.908  11.087   7.256  0.1161 -0.0993  1.1075
   54MOL0     H 7087   3.910  10.927   7.169  0.7611  0.1710  0.9839
   54MOL0     H 7088   3.712  11.148   7.115 -4.1905 -0.8260 -2.9792
   54MOL0     H 7089   3.696  10.996   7.044 -0.5681 -1.4962  2.5256
   54MOL0     H 7090   4.082  11.129   6.875  1.4877  0.9999 -0.7473
   54MOL0     H 7091   4.184  11.345   6.837  2.2235 -0.9797  1.5882
   54MOL0     H 7092   4.133  11.856   6.782  1.1250 -1.0662  0.3627
   54MOL0     H 7093   4.226  12.089   6.811 -0.5804 -0.0479 -0.2557
   54MOL0     H 7094   4.458  12.316   7.019 -1.7132 -3.2625  3.1505
   54MOL0     H 7095   4.338  12.318   6.881 -1.5382  0.3758  0.8583
   54MOL0     H 7096   4.444  12.096   6.812 -1.0108 -0.2865 -0.2912
   54MOL0     H 7097   4.506  12.066   6.970 -1.2345 -0.1216 -1.2362
   54MOL0     H 7098   4.665  12.116   6.810 -1.6699 -0.8063 -1.2032
   54MOL0     H 7099   4.672  12.227   6.948 -2.0865  0.7922  0.5246
   54MOL0     H 7100   4.528  12.307   6.688 -0.9594  1.1584  0.2363
   54MOL0     H 7101   4.579  12.406   6.806 -2.6753 -2.1937  0.8243
   54MOL0     H 7102   4.803  12.248   6.664  0.0514 -1.7078  2.8392
   54MOL0     H 7103   4.827  12.375   6.768  0.5604  0.9980 -1.7679
   54MOL0     H 7104   4.684  12.533   6.629  1.7921  2.5820 -3.1213
   54MOL0     H 7105   4.681  12.412   6.511 -1.8534 -0.2941  0.6235
   54MOL0     H 7106   4.897  12.580   6.627  0.4348  2.1761 -0.3924
   54MOL0     H 7107   4.958  12.432   6.545  0.7373  1.5826 -0.3888
   54MOL0     H 7108   4.944  12.659   6.407 -0.3223  1.6507 -0.0811
   54MOL0     H 7109   4.764  12.653   6.435 -2.0450 -2.2559  1.6580
   54MOL0     H 7110   4.229  12.028   7.234  1.9742  0.8291 -0.1766
   54MOL0     H 7111   4.143  11.819   7.215 -2.6759  0.3170  0.4629
   54MOL0     H 7112   3.892  11.533   7.079 -1.0555  0.0220 -0.8681
   54MOL0     H 7113   3.779  11.330   7.097 -0.6152 -0.3631  0.7163
   54MOL0     H 7114   3.814  10.745   6.871  3.5507  1.1056 -0.4510
   54MOL0     H 7115   3.958  10.666   6.682  1.9068  0.8932 -1.5725
   54MOL0     H 7116   4.267  10.896   6.312 -0.2928  0.6098  0.6278
   54MOL0     H 7117   4.394  10.810   6.122  0.7479  0.8616  2.6303
   54MOL0     H 7118   4.287  10.512   5.819  0.4384  1.1991 -1.0539
   54MOL0     H 7119   4.338  10.411   5.962 -1.6108  1.7676  1.1067
   54MOL0     H 7120   4.527  10.581   5.814 -1.0972  0.6472  0.6498
   54MOL0     H 7121   4.571  10.472   5.934  1.2484 -0.2826 -2.0678
   54MOL0     H 7122   4.604  10.383   5.705 -1.1682  2.3205 -1.4711
   54MOL0     H 7123   4.437  10.356   5.682  1.1996 -0.1130 -0.2898
   54MOL0     H 7124   4.595  10.168   5.769 -0.2405 -1.3465  2.9151
   54MOL0     H 7125   4.571  10.238   5.923  3.0994 -0.7535 -0.7237
   54MOL0     H 7126   4.176  10.084   5.857  0.6001 -2.8737  0.3899
   54MOL0     H 7127   4.110  10.506   6.040 -0.7176  2.0598 -1.2491
   54MOL0     H 7128   3.966  10.597   6.212  1.1207 -2.7242 -1.3128
   55MOL0     O 7129  11.076   1.419   5.967  0.8166 -0.3458  0.6393
   55MOL0     C 7130  11.088   1.338   5.879  0.2573  0.5438 -0.1607
   55MOL0     O 7131  11.204   1.278   5.851 -0.3862  0.0485  0.3353
   55MOL0     C 7132  11.324   1.301   5.915 -0.0053  0.4128  0.1021
   55MOL0     C 7133  11.395   1.185   5.915 -0.1961  0.3367 -0.3409
   55MOL0     C 7134  11.522   1.175   5.976 -1.5597 -0.1164  0.9260
   55MOL0     C 7135  11.576   1.296   6.023  0.0050  0.6283 -0.2260
   55MOL0     O 7136  11.702   1.282   6.067 -0.8850  0.7724  0.0778
   55MOL0     C 7137  11.766   1.380   6.147 -0.0049 -0.2204  0.3120
   55MOL0     C 7138  11.913   1.355   6.168 -0.7163 -0.3033  0.2914
   55MOL0     C 7139  11.984   1.282   6.046  0.0091  0.9236 -0.4657
   55MOL0     C 7140  12.136   1.270   6.079  0.7501 -0.0691  0.6252
   55MOL0     C 7141  12.224   1.311   5.960 -0.5052 -0.7585  0.2814
   55MOL0     C 7142  12.193   1.229   5.832  0.6968 -0.3353 -0.0949
   55MOL0     C 7143  12.320   1.210   5.745 -0.9748 -0.8853 -0.6395
   55MOL0     C 7144  12.293   1.195   5.595  0.6481 -0.5471 -0.5724
   55MOL0     N 7145  12.244   1.059   5.573  0.4553  0.0560 -0.2639
   55MOL0     C 7146  12.316   0.946   5.586  0.1116  0.2734  0.2694
   55MOL0     C 7147  12.230   0.845   5.589 -1.0377  0.4149  0.0779
   55MOL0     C 7148  12.253   0.691   5.599 -0.3776  0.3797  0.1006
   55MOL0     C 7149  12.377   0.658   5.680 -0.0010 -0.5677  0.3074
   55MOL0     C 7150  12.344   0.681   5.822 -0.0048  0.2961 -1.4374
   55MOL0     C 7151  12.451   0.645   5.930 -0.2304 -0.3189  0.3105
   55MOL0     O 7152  12.404   0.676   6.057  0.5567  0.6329 -0.5744
   55MOL0     C 7153  12.399   0.802   6.109 -0.3521 -0.1057 -0.7100
   55MOL0     C 7154  12.346   0.822   6.240  0.3557  0.0598  0.0080
   55MOL0     C 7155  12.350   0.941   6.299  0.0862  0.3544 -0.1658
   55MOL0     C 7156  12.392   1.062   6.241 -0.2672  0.0884  0.8231
   55MOL0     C 7157  12.410   1.186   6.323  0.9821  0.0783  0.1999
   55MOL0     O 7158  12.354   1.174   6.443 -0.3798 -0.0426  1.1274
   55MOL0     C 7159  12.393   1.261   6.542 -0.1409  0.0387 -0.2905
   55MOL0     C 7160  12.528   1.313   6.552  0.8484  0.1061 -0.2392
   55MOL0     C 7161  12.576   1.382   6.663  0.0613 -0.0963  0.9346
   55MOL0     C 7162  12.492   1.409   6.765 -0.6685  0.9834  0.2190
   55MOL0     O 7163  12.539   1.490   6.859 -0.4388 -0.0991 -0.5311
   55MOL0     C 7164  12.458   1.573   6.948  1.1975  0.3204  0.1116
   55MOL0     C 7165  12.553   1.627   7.061 -0.0521  0.0869  0.2649
   55MOL0     C 7166  12.463   1.712   7.145 -0.0724 -0.3005  0.0714
   55MOL0     C 7167  12.457   1.856   7.094 -0.1464 -0.9744  0.4334
   55MOL0     C 7168  12.590   1.927   7.083 -0.5719  0.6291  0.6237
   55MOL0     C 7169  12.571   2.082   7.098 -0.1260  0.0293  0.2447
   55MOL0     C 7170  12.694   2.175   7.051  0.2540  0.3827  0.1884
   55MOL0     C 7171  12.669   2.319   7.066  0.0668 -0.1413  0.0879
   55MOL0    Cl 7172  12.583   2.387   6.932 -0.5826 -0.6121 -0.1046
   55MOL0     C 7173  12.362   1.355   6.762  0.0704  0.5673 -1.6531
   55MOL0     C 7174  12.312   1.274   6.655  0.6315 -1.3942 -0.6638
   55MOL0     O 7175  12.475   1.276   6.281 -0.9953 -0.9714 -1.1463
   55MOL0     C 7176  12.452   1.040   6.114  1.0482 -1.1379 -0.2991
   55MOL0     C 7177  12.451   0.917   6.048  0.4411 -0.3528  0.2634
   55MOL0     N 7178  12.103   0.905   5.587  0.4268  0.1617 -0.2542
   55MOL0     N 7179  12.111   1.029   5.590  0.2643 -0.1729  0.3571
   55MOL0     C 7180  11.502   1.408   6.030 -1.1167 -0.9817  1.6324
   55MOL0     C 7181  11.377   1.411   5.969 -1.0380 -0.4248 -0.0093
   55MOL0     C 7182  10.954   1.296   5.825  0.5934 -0.4391 -0.2986
   55MOL0     C 7183  10.950   1.182   5.739  0.1106  0.4088  0.0924
   55MOL0     C 7184  10.821   1.130   5.699 -0.6993  0.5196 -0.4699
   55MOL0     C 7185  10.703   1.199   5.746  0.9320 -0.3288  0.0770
   55MOL0     O 7186  10.589   1.148   5.704 -0.2323 -0.7773 -0.0372
   55MOL0     C 7187  10.506   1.227   5.627  0.4945  1.1180 -0.2185
   55MOL0     C 7188  10.532   1.208   5.474  0.0802  0.5964  0.8784
   55MOL0     C 7189  10.525   1.053   5.432 -0.3684 -0.2195  0.7120
   55MOL0     C 7190  10.512   1.039   5.275 -0.4335 -0.0666  1.0001
   55MOL0     C 7191  10.380   1.049   5.222 -0.1739 -0.2699 -1.1239
   55MOL0     C 7192  10.261   1.053   5.190 -0.2809 -0.1776  0.3587
   55MOL0     C 7193  10.713   1.315   5.815 -0.0646  0.0824 -0.0138
   55MOL0     C 7194  10.835   1.368   5.857  0.2841  0.4892  0.4500
   55MOL0     H 7195  11.363   1.101   5.854  0.4679  0.8503 -1.4428
   55MOL0     H 7196  11.580   1.084   5.983  0.6069  1.2549  1.7147
   55MOL0     H 7197  11.709   1.381   6.241  2.0807 -0.0606  1.6542
   55MOL0     H 7198  11.760   1.480   6.102  1.3830  1.2327  3.0720
   55MOL0     H 7199  11.938   1.311   6.265 -0.0124  2.1296  1.2950
   55MOL0     H 7200  11.958   1.455   6.166 -1.0824 -0.1085  1.1538
   55MOL0     H 7201  11.978   1.347   5.959  1.4351  4.0511  1.5729
   55MOL0     H 7202  11.952   1.178   6.037  0.4034  0.5637  1.6311
   55MOL0     H 7203  12.153   1.344   6.158 -0.5578  0.8816  0.0655
   55MOL0     H 7204  12.178   1.176   6.115  0.9891  0.4197  1.6689
   55MOL0     H 7205  12.328   1.317   5.994 -1.0019 -0.1154  1.7598
   55MOL0     H 7206  12.208   1.415   5.928 -1.2456  0.6280  4.5110
   55MOL0     H 7207  12.107   1.285   5.795 -0.7141 -0.3306  2.8904
   55MOL0     H 7208  12.143   1.135   5.857 -1.3566  1.1842  1.8934
   55MOL0     H 7209  12.370   1.306   5.759 -2.4543 -0.1455 -0.2592
   55MOL0     H 7210  12.378   1.128   5.786 -4.0150 -2.5943  0.5846
   55MOL0     H 7211  12.383   1.214   5.537  2.7183  3.1948  3.3270
   55MOL0     H 7212  12.221   1.273   5.571 -0.7175 -1.2881  0.8316
   55MOL0     H 7213  12.424   0.938   5.588  0.1762  1.1517  2.9457
   55MOL0     H 7214  12.259   0.650   5.498  0.7301 -1.3716  0.8282
   55MOL0     H 7215  12.165   0.643   5.642  0.5923 -0.9802  0.6808
   55MOL0     H 7216  12.448   0.738   5.655  0.2002 -0.3442  1.5395
   55MOL0     H 7217  12.431   0.569   5.647  2.5397  1.3922 -1.2275
   55MOL0     H 7218  12.322   0.786   5.843  1.0444  0.0926  1.1185
   55MOL0     H 7219  12.255   0.622   5.846 -0.9551  2.0323 -0.4215
   55MOL0     H 7220  12.541   0.705   5.912 -1.1931  0.2119 -3.5808
   55MOL0     H 7221  12.475   0.539   5.925  1.6901  0.0663  0.4510
   55MOL0     H 7222  12.293   0.747   6.297  1.5973 -1.1386 -0.3507
   55MOL0     H 7223  12.319   0.945   6.403  0.2220 -0.1385 -0.1042
   55MOL0     H 7224  12.592   1.275   6.473 -0.5324 -0.8929 -0.9232
   55MOL0     H 7225  12.673   1.430   6.667 -0.0408  0.2669 -0.4990
   55MOL0     H 7226  12.376   1.516   6.992  2.0866 -0.3054  1.0068
   55MOL0     H 7227  12.428   1.655   6.882 -0.1962  0.2429  0.6194
   55MOL0     H 7228  12.640   1.685   7.030  0.8342 -0.4270  1.6786
   55MOL0     H 7229  12.589   1.542   7.120  1.2807  1.2857  1.2448
   55MOL0     H 7230  12.506   1.708   7.246 -2.3083 -0.5701  1.0633
   55MOL0     H 7231  12.366   1.666   7.163 -0.3903  0.9464  1.8248
   55MOL0     H 7232  12.394   1.854   7.004 -0.7364  1.7066  0.7219
   55MOL0     H 7233  12.406   1.915   7.170  0.4189  3.0439 -1.9962
   55MOL0     H 7234  12.638   1.896   6.990 -0.3101 -2.3651  1.6386
   55MOL0     H 7235  12.646   1.882   7.165 -1.0744 -4.0132 -1.3023
   55MOL0     H 7236  12.549   2.092   7.205  1.6317 -1.9409  0.8708
   55MOL0     H 7237  12.489   2.103   7.028  0.4400 -2.2581 -1.2210
   55MOL0     H 7238  12.784   2.161   7.112  0.0803 -3.1950 -0.2116
   55MOL0     H 7239  12.716   2.140   6.950 -1.0765 -1.7372  0.5882
   55MOL0     H 7240  12.767   2.368   7.072  0.4820 -0.7005 -1.6076
   55MOL0     H 7241  12.627   2.352   7.162  1.8441  1.9479  0.2177
   55MOL0     H 7242  12.290   1.383   6.837  1.8803 -2.8386  1.7309
   55MOL0     H 7243  12.209   1.238   6.654 -0.0088  0.2783  0.3395
   55MOL0     H 7244  12.493   1.123   6.058 -1.7359  0.8239  0.3280
   55MOL0     H 7245  12.500   0.912   5.952 -1.5897 -2.7447 -0.7380
   55MOL0     H 7246  11.532   1.492   6.092 -0.1357  0.8111 -1.0665
   55MOL0     H 7247  11.316   1.500   5.979 -1.7674 -1.0371  1.2455
   55MOL0     H 7248  11.040   1.129   5.710 -0.2494  0.5840 -1.4098
   55MOL0     H 7249  10.814   1.034   5.650  0.0053 -1.4607  3.0008
   55MOL0     H 7250  10.509   1.333   5.654  2.8812  1.1577 -0.4020
   55MOL0     H 7251  10.409   1.177   5.632  1.5661 -1.0128  0.4204
   55MOL0     H 7252  10.450   1.255   5.418 -1.0747 -2.8597 -0.6149
   55MOL0     H 7253  10.627   1.250   5.440  0.5769 -0.1492  1.3396
   55MOL0     H 7254  10.449   0.992   5.482  1.9667 -2.3208  1.9156
   55MOL0     H 7255  10.622   1.021   5.473  0.0134  0.2622  0.1953
   55MOL0     H 7256  10.575   1.111   5.222 -3.3527  0.4295 -2.1891
   55MOL0     H 7257  10.560   0.942   5.259 -0.2953 -0.1796  2.0257
   55MOL0     H 7258  10.158   1.059   5.159 -0.3711  0.8650  0.8162
   55MOL0     H 7259  10.618   1.367   5.825 -0.2786  0.0787 -1.7134
   55MOL0     H 7260  10.823   1.461   5.912 -1.9211 -2.2512  5.2891
   56MOL0     O 7261   9.201   4.706   3.832 -0.4937 -0.5749 -0.3798
   56MOL0     C 7262   9.213   4.829   3.825  1.0453 -0.5013 -0.2709
   56MOL0     O 7263   9.254   4.915   3.917  0.3836  0.0970  0.2505
   56MOL0     C 7264   9.288   4.880   4.050  0.2023 -0.9516  1.2423
   56MOL0     C 7265   9.330   4.992   4.121 -0.3214  0.3637  0.0457
   56MOL0     C 7266   9.378   4.990   4.250  0.3257 -0.6952 -0.9630
   56MOL0     C 7267   9.382   4.874   4.317  0.3149  0.2801  0.4119
   56MOL0     O 7268   9.404   4.863   4.450 -0.2475  1.1273  0.1985
   56MOL0     C 7269   9.313   4.786   4.534  0.5742  0.3817 -0.1425
   56MOL0     C 7270   9.338   4.815   4.686 -1.4201 -0.6586 -0.1453
   56MOL0     C 7271   9.371   4.974   4.706  0.2733 -0.4689 -0.2624
   56MOL0     C 7272   9.405   5.034   4.851 -0.1551 -0.9095  1.3816
   56MOL0     C 7273   9.555   5.048   4.871 -0.8406  1.4449 -0.8420
   56MOL0     C 7274   9.604   5.042   5.017  0.0563 -0.1645  0.2648
   56MOL0     C 7275   9.528   5.148   5.102 -0.0395 -0.0148 -0.5604
   56MOL0     C 7276   9.585   5.158   5.248  0.0567  0.3076 -0.1396
   56MOL0     N 7277   9.584   5.024   5.307 -0.9869  0.4389  0.7164
   56MOL0     C 7278   9.686   4.947   5.357  0.4475 -0.1933 -0.6267
   56MOL0     C 7279   9.621   4.841   5.410  0.2453  0.1609 -0.3315
   56MOL0     C 7280   9.691   4.735   5.498  0.5832 -0.3162 -0.1474
   56MOL0     C 7281   9.726   4.607   5.418  0.4495 -0.2459  0.3946
   56MOL0     C 7282   9.790   4.502   5.502  0.8896  0.1573  0.5086
   56MOL0     C 7283   9.923   4.539   5.554 -0.0493  0.0521  0.1288
   56MOL0     O 7284   9.919   4.563   5.695 -0.2642  0.0567 -0.3233
   56MOL0     C 7285  10.039   4.561   5.769  0.2965  0.9551  0.6910
   56MOL0     C 7286  10.024   4.621   5.890  0.2692 -0.3424  0.2510
   56MOL0     C 7287  10.130   4.633   5.972 -0.8180 -0.1794 -0.3586
   56MOL0     C 7288  10.262   4.597   5.930 -0.2968 -0.1866  0.1856
   56MOL0     C 7289  10.382   4.625   6.011  0.5401 -0.0724  0.0452
   56MOL0     O 7290  10.364   4.708   6.120 -0.3469  0.3863 -0.3583
   56MOL0     C 7291  10.468   4.736   6.196  0.2233 -0.1054  0.5861
   56MOL0     C 7292  10.549   4.644   6.265  0.4869 -0.0241 -0.8051
   56MOL0     C 7293  10.654   4.682   6.346 -0.1604 -0.2307  0.4454
   56MOL0     C 7294  10.681   4.820   6.369 -0.3332  0.2756 -0.2297
   56MOL0     O 7295  10.778   4.849   6.457  0.2868 -0.6172 -0.4807
   56MOL0     C 7296  10.754   4.954   6.553 -0.3696 -0.2382 -1.3988
   56MOL0     C 7297  10.864   4.922   6.658 -0.1515  0.8552  0.6849
   56MOL0     C 7298  10.817   4.964   6.803 -0.7405 -0.7446  0.6316
   56MOL0     C 7299  10.918   4.905   6.911  0.7483 -0.1557  0.5367
   56MOL0     C 7300  10.923   5.002   7.033  0.2479  1.0343 -0.4636
   56MOL0     C 7301  10.986   4.928   7.153 -0.0422  0.2770 -0.4833
   56MOL0     C 7302  10.900   4.822   7.217  0.9709  0.1605 -0.1442
   56MOL0     C 7303  10.994   4.701   7.265 -0.0149 -0.1250 -0.3645
   56MOL0    Cl 7304  11.094   4.744   7.400  0.4831  0.2682 -0.1938
   56MOL0     C 7305  10.593   4.917   6.314  0.6983  0.7555 -0.1384
   56MOL0     C 7306  10.486   4.873   6.232 -0.1097 -0.3057  0.6175
   56MOL0     O 7307  10.492   4.587   5.973 -0.2361 -0.2537  0.4513
   56MOL0     C 7308  10.277   4.541   5.805  0.1014 -0.0097  0.4789
   56MOL0     C 7309  10.160   4.521   5.722 -0.0913  0.2912  0.4480
   56MOL0     N 7310   9.488   4.848   5.380  0.2349  0.1919 -1.1606
   56MOL0     N 7311   9.467   4.957   5.317  0.0308  0.0501 -0.1060
   56MOL0     C 7312   9.337   4.758   4.244  0.5638 -0.9030  0.1976
   56MOL0     C 7313   9.293   4.761   4.111  0.1902  1.2391  0.4035
   56MOL0     C 7314   9.170   4.897   3.703  0.9173  0.2892  0.0127
   56MOL0     C 7315   9.177   5.037   3.695  0.2636 -0.6128  0.1737
   56MOL0     C 7316   9.112   5.091   3.584  0.0514 -1.3850 -0.4782
   56MOL0     C 7317   9.072   5.018   3.471  0.5727  0.4194  0.7157
   56MOL0     O 7318   8.986   5.087   3.391 -0.2818  0.3793 -0.4038
   56MOL0     C 7319   8.908   5.022   3.287  0.2567  0.0574 -0.0104
   56MOL0     C 7320   8.986   4.975   3.158 -0.2568 -0.1415 -0.9936
   56MOL0     C 7321   8.894   4.885   3.070  0.2761  0.0581  0.2660
   56MOL0     C 7322   8.972   4.839   2.938 -0.0311 -0.9263 -0.1473
   56MOL0     C 7323   9.101   4.758   2.949  0.5780 -0.0278 -0.7822
   56MOL0     C 7324   9.202   4.689   2.960  0.6660  0.2918 -0.4094
   56MOL0     C 7325   9.075   4.875   3.479  0.2774  0.3856 -0.1643
   56MOL0     C 7326   9.137   4.820   3.593 -0.0673  0.3360  0.2964
   56MOL0     H 7327   9.334   5.096   4.089  0.3739 -0.1829 -1.7641
   56MOL0     H 7328   9.401   5.076   4.311 -1.8739 -0.5613 -0.2359
   56MOL0     H 7329   9.339   4.681   4.519 -0.2267  0.0793  0.5380
   56MOL0     H 7330   9.209   4.801   4.503  0.8324 -0.2098 -1.3750
   56MOL0     H 7331   9.426   4.758   4.715 -0.9843  0.0056 -0.1374
   56MOL0     H 7332   9.248   4.791   4.744 -1.2771 -0.4968  0.1445
   56MOL0     H 7333   9.286   5.035   4.674  0.1316  1.3607  3.2059
   56MOL0     H 7334   9.454   5.002   4.639 -0.0513 -1.8159 -1.2765
   56MOL0     H 7335   9.358   5.132   4.864  0.7629 -0.1393 -0.6264
   56MOL0     H 7336   9.363   4.963   4.922 -2.8623 -1.6052 -0.7670
   56MOL0     H 7337   9.586   5.139   4.820 -0.3825  1.7899  0.0306
   56MOL0     H 7338   9.604   4.962   4.823 -0.8002  0.0670  1.5284
   56MOL0     H 7339   9.712   5.061   5.011 -0.1469  0.4537 -3.3738
   56MOL0     H 7340   9.593   4.936   5.042  0.1347 -0.8367 -2.2430
   56MOL0     H 7341   9.546   5.246   5.058 -2.9998  0.2098 -1.4782
   56MOL0     H 7342   9.419   5.133   5.106 -0.1277  0.4258 -1.2977
   56MOL0     H 7343   9.529   5.233   5.305  1.5800  1.1650  0.2992
   56MOL0     H 7344   9.687   5.197   5.239  0.5237 -1.2034 -1.9735
   56MOL0     H 7345   9.791   4.973   5.364  0.5802 -0.3631 -1.7957
   56MOL0     H 7346   9.626   4.698   5.578  0.1826 -1.1347 -0.8293
   56MOL0     H 7347   9.779   4.773   5.550 -0.7994 -0.2847  2.3023
   56MOL0     H 7348   9.790   4.637   5.334  0.5235  1.1061  0.9059
   56MOL0     H 7349   9.637   4.559   5.376  1.5728 -1.3303 -0.8004
   56MOL0     H 7350   9.728   4.474   5.587  1.3402 -0.2420  0.7072
   56MOL0     H 7351   9.812   4.417   5.436  3.0980  2.4573 -2.0079
   56MOL0     H 7352   9.943   4.640   5.517 -1.0020  0.4456  0.6626
   56MOL0     H 7353  10.010   4.480   5.523  2.3055 -0.5431  6.3226
   56MOL0     H 7354   9.925   4.630   5.935 -0.3669 -1.6280 -0.8299
   56MOL0     H 7355  10.122   4.650   6.079 -1.9760 -1.1228 -0.2752
   56MOL0     H 7356  10.523   4.540   6.253 -0.1832  0.0970 -0.4333
   56MOL0     H 7357  10.709   4.604   6.398  0.1253  0.3531  1.0382
   56MOL0     H 7358  10.654   4.949   6.596 -0.4377 -0.0673 -1.5329
   56MOL0     H 7359  10.775   5.054   6.514 -2.3562 -0.1089 -2.2593
   56MOL0     H 7360  10.962   4.962   6.633  0.3978 -0.7844  0.1262
   56MOL0     H 7361  10.875   4.813   6.660 -0.4053  0.7510 -1.6826
   56MOL0     H 7362  10.713   4.931   6.814 -1.6244  0.3796 -3.1105
   56MOL0     H 7363  10.823   5.073   6.815 -0.1196 -0.8236  1.0923
   56MOL0     H 7364  10.878   4.805   6.928 -1.5616  0.3992 -1.1805
   56MOL0     H 7365  11.015   4.900   6.862 -0.5498  0.6598 -2.3122
   56MOL0     H 7366  10.822   5.037   7.059  0.3494 -0.2370  1.9405
   56MOL0     H 7367  10.988   5.086   7.007  2.2941 -1.1099 -2.8480
   56MOL0     H 7368  11.021   4.991   7.236 -2.5571 -0.2662  1.1288
   56MOL0     H 7369  11.081   4.887   7.117  1.8367 -1.4165  5.2373
   56MOL0     H 7370  10.847   4.868   7.301  2.1862 -2.2645  2.0951
   56MOL0     H 7371  10.833   4.786   7.140  0.3445  0.7796  0.0999
   56MOL0     H 7372  11.058   4.680   7.179  0.2359  1.4940 -0.6096
   56MOL0     H 7373  10.924   4.620   7.288 -0.8688  1.3116  2.5988
   56MOL0     H 7374  10.591   5.025   6.324 -6.6544  0.9252  2.2657
   56MOL0     H 7375  10.411   4.935   6.184 -2.3169 -2.0023  1.7222
   56MOL0     H 7376  10.375   4.514   5.768  0.2070  0.4859  0.3968
   56MOL0     H 7377  10.179   4.493   5.619  1.6942  0.0537  0.8081
   56MOL0     H 7378   9.339   4.663   4.297 -1.8351 -2.4904 -2.2631
   56MOL0     H 7379   9.267   4.671   4.057  1.5102  1.1485 -0.1271
   56MOL0     H 7380   9.213   5.102   3.774 -0.6196  0.0916  0.0157
   56MOL0     H 7381   9.111   5.199   3.576  0.1021 -1.2851  0.7249
   56MOL0     H 7382   8.829   5.091   3.256 -1.4472 -2.5424 -1.9671
   56MOL0     H 7383   8.858   4.930   3.319 -0.1150 -0.2303 -1.3400
   56MOL0     H 7384   9.018   5.073   3.122 -2.7187  2.5750  3.3329
   56MOL0     H 7385   9.081   4.923   3.175 -0.4604 -0.4135 -0.6699
   56MOL0     H 7386   8.793   4.918   3.043  0.2395 -1.9736 -2.6159
   56MOL0     H 7387   8.872   4.797   3.130  1.0626  0.6647  1.4881
   56MOL0     H 7388   8.914   4.764   2.883  1.8627  2.0791 -7.4293
   56MOL0     H 7389   8.998   4.916   2.865  2.9004 -0.3792  1.2938
   56MOL0     H 7390   9.289   4.635   2.989  1.3404  0.6719 -1.6658
   56MOL0     H 7391   9.052   4.816   3.391  2.1855 -0.0625 -0.3958
   56MOL0     H 7392   9.128   4.712   3.608 -0.9038  0.3023 -0.3423
   57MOL0     O 7393   0.477   7.828   4.589  0.4231 -0.3686 -0.1999
   57MOL0     C 7394   0.595   7.855   4.572  0.5772 -0.7818 -0.1805
   57MOL0     O 7395   0.679   7.790   4.497 -0.0614  0.7426  0.0685
   57MOL0     C 7396   0.646   7.671   4.437 -0.3080 -0.0794  0.7412
   57MOL0     C 7397   0.700   7.646   4.314  0.0600 -0.4138  1.4426
   57MOL0     C 7398   0.685   7.526   4.243 -0.3228 -0.6058 -0.4185
   57MOL0     C 7399   0.592   7.435   4.290 -0.9340  0.8225  0.7385
   57MOL0     O 7400   0.560   7.320   4.220  0.4365  0.0029 -0.5041
   57MOL0     C 7401   0.481   7.361   4.105 -0.4781  0.0805  0.8413
   57MOL0     C 7402   0.521   7.267   3.989  0.1492 -1.2883  0.4418
   57MOL0     C 7403   0.674   7.288   3.952  0.1084  0.1236 -0.9256
   57MOL0     C 7404   0.711   7.231   3.808 -0.9180 -0.8435  0.2605
   57MOL0     C 7405   0.838   7.313   3.761  0.0298 -0.7695 -0.6785
   57MOL0     C 7406   0.940   7.241   3.674 -0.5563 -0.4864 -0.6268
   57MOL0     C 7407   1.046   7.169   3.751 -0.7061  0.1593 -0.0815
   57MOL0     C 7408   1.132   7.246   3.863  0.3543 -0.2025 -1.0048
   57MOL0     N 7409   1.277   7.208   3.851 -0.1751  0.3939 -0.3307
   57MOL0     C 7410   1.373   7.268   3.777 -0.2427 -0.5249  0.4389
   57MOL0     C 7411   1.484   7.186   3.797 -0.8555 -0.2984  0.0669
   57MOL0     C 7412   1.620   7.192   3.739 -0.0331  0.2351 -0.4965
   57MOL0     C 7413   1.685   7.328   3.779  0.5894  0.6938  0.0314
   57MOL0     C 7414   1.741   7.324   3.923  0.4338  0.5279  1.2811
   57MOL0     C 7415   1.796   7.460   3.970  0.2305 -0.2438 -0.1289
   57MOL0     O 7416   1.851   7.531   3.854  0.6678 -0.3579 -0.0469
   57MOL0     C 7417   1.910   7.652   3.879  0.3317 -0.1631 -0.1165
   57MOL0     C 7418   2.017   7.698   3.800 -0.7940 -0.2128 -0.2080
   57MOL0     C 7419   2.075   7.825   3.820  0.0999 -0.2361 -0.2185
   57MOL0     C 7420   2.026   7.913   3.924  0.4476  0.4841  0.3178
   57MOL0     C 7421   2.084   8.052   3.926 -0.5809  0.2502 -0.1844
   57MOL0     O 7422   2.196   8.074   3.849 -0.3000  0.7843 -0.0215
   57MOL0     C 7423   2.242   8.200   3.854 -0.9273 -0.8571  0.6190
   57MOL0     C 7424   2.180   8.316   3.806 -0.9031  0.2516  0.6549
   57MOL0     C 7425   2.237   8.449   3.799  0.8004  0.5835 -1.2230
   57MOL0     C 7426   2.362   8.465   3.852  0.6643  0.6985  0.6530
   57MOL0     O 7427   2.408   8.589   3.838 -0.0745 -0.6358 -0.2199
   57MOL0     C 7428   2.481   8.646   3.943 -0.3501  0.0344 -0.3625
   57MOL0     C 7429   2.457   8.788   3.928  0.3299  0.6952 -0.1882
   57MOL0     C 7430   2.525   8.870   4.042  0.6559  0.0475  0.3398
   57MOL0     C 7431   2.519   9.023   3.999  0.4102  0.1926  0.4776
   57MOL0     C 7432   2.583   9.102   4.114  0.1999  0.2198  1.4589
   57MOL0     C 7433   2.482   9.166   4.218 -0.9010 -0.6071 -0.8078
   57MOL0     C 7434   2.410   9.286   4.157  0.4524  0.4867  1.2141
   57MOL0     C 7435   2.311   9.352   4.263  0.4913  0.4774 -0.3441
   57MOL0    Cl 7436   2.212   9.481   4.187  0.0176  0.0877  0.0570
   57MOL0     C 7437   2.424   8.360   3.916  0.2872 -0.3390 -0.2662
   57MOL0     C 7438   2.365   8.233   3.920  0.5931  0.1016  0.1307
   57MOL0     O 7439   2.025   8.135   3.994  0.1542  0.4378  0.3476
   57MOL0     C 7440   1.927   7.858   4.006 -0.5042 -0.3074  0.1865
   57MOL0     C 7441   1.874   7.730   3.984 -0.5493  0.8307 -0.1283
   57MOL0     N 7442   1.456   7.088   3.888  1.1872 -0.1999 -0.7809
   57MOL0     N 7443   1.329   7.099   3.915  0.7904  0.1376 -1.1905
   57MOL0     C 7444   0.537   7.451   4.416 -0.8153  0.5904  0.0195
   57MOL0     C 7445   0.569   7.563   4.492  0.0168 -0.0874 -0.3187
   57MOL0     C 7446   0.651   7.960   4.662 -0.1129  0.5306 -0.2813
   57MOL0     C 7447   0.742   8.059   4.613 -0.5638 -0.3624 -0.5426
   57MOL0     C 7448   0.798   8.163   4.697  0.6947  0.1919  0.9901
   57MOL0     C 7449   0.741   8.181   4.825 -0.0100  0.3679 -0.0313
   57MOL0     O 7450   0.785   8.279   4.908 -0.2073  0.7655 -0.0284
   57MOL0     C 7451   0.693   8.354   4.981 -0.5281 -0.7553  0.2252
   57MOL0     C 7452   0.747   8.457   5.071  0.3855 -0.1536 -0.9606
   57MOL0     C 7453   0.856   8.412   5.168 -0.5506  0.2721 -0.6678
   57MOL0     C 7454   0.908   8.528   5.264  0.5828 -0.6263 -0.2649
   57MOL0     C 7455   0.809   8.589   5.348 -0.1195 -0.2423 -0.2123
   57MOL0     C 7456   0.704   8.608   5.398 -0.3926  0.3672 -0.7707
   57MOL0     C 7457   0.643   8.085   4.868  0.4262 -0.6294 -0.9138
   57MOL0     C 7458   0.607   7.976   4.791 -0.4394 -0.4923  0.0252
   57MOL0     H 7459   0.761   7.715   4.257  3.3752 -2.4956  2.2291
   57MOL0     H 7460   0.741   7.506   4.152  2.3193 -0.0617  0.9667
   57MOL0     H 7461   0.503   7.463   4.070  1.4834 -1.2615 -2.2411
   57MOL0     H 7462   0.374   7.353   4.129 -0.2461 -1.8501  1.3745
   57MOL0     H 7463   0.461   7.289   3.900  0.7250 -0.5390  0.2267
   57MOL0     H 7464   0.505   7.162   4.015  1.0366 -1.2311  1.2722
   57MOL0     H 7465   0.744   7.244   4.024  1.7420 -0.0121 -2.5135
   57MOL0     H 7466   0.676   7.398   3.953 -0.5331  0.3122  4.0287
   57MOL0     H 7467   0.747   7.128   3.815 -1.8042 -1.2112 -0.4639
   57MOL0     H 7468   0.635   7.262   3.737 -1.7687 -0.1194  1.4417
   57MOL0     H 7469   0.892   7.357   3.845  1.4794 -2.2788 -0.7769
   57MOL0     H 7470   0.787   7.399   3.715 -1.6679 -1.3329  0.0414
   57MOL0     H 7471   0.983   7.306   3.597  1.3122 -2.3552 -1.2442
   57MOL0     H 7472   0.881   7.161   3.629 -2.2243 -0.5288  1.4588
   57MOL0     H 7473   1.006   7.087   3.811  0.7324  0.3190  1.1660
   57MOL0     H 7474   1.113   7.138   3.670 -0.4675  1.4765 -0.4043
   57MOL0     H 7475   1.093   7.213   3.960 -1.7039  3.1105 -0.5624
   57MOL0     H 7476   1.113   7.353   3.870  0.5614 -0.2924  3.0983
   57MOL0     H 7477   1.362   7.347   3.703  0.9814 -0.5203  0.2349
   57MOL0     H 7478   1.626   7.195   3.629  1.1167  1.9693 -0.4209
   57MOL0     H 7479   1.688   7.117   3.781  1.2386  2.1213  0.9650
   57MOL0     H 7480   1.602   7.398   3.764 -1.0711 -1.1718 -0.0023
   57MOL0     H 7481   1.773   7.339   3.715 -1.6142 -3.6926 -4.3725
   57MOL0     H 7482   1.663   7.269   3.976 -1.7240 -0.9384 -2.9415
   57MOL0     H 7483   1.829   7.258   3.921 -0.7298 -1.1598  2.3839
   57MOL0     H 7484   1.862   7.437   4.054 -1.4616 -1.9139  0.8288
   57MOL0     H 7485   1.713   7.519   4.010 -0.8103 -0.6436 -1.6230
   57MOL0     H 7486   2.058   7.637   3.721 -1.5983  2.2321 -2.6665
   57MOL0     H 7487   2.160   7.852   3.760  2.5424 -2.1175  2.1330
   57MOL0     H 7488   2.081   8.317   3.762  0.0242  0.0481 -1.5716
   57MOL0     H 7489   2.180   8.535   3.766 -0.5863  0.9708  1.8351
   57MOL0     H 7490   2.586   8.617   3.942 -0.6776 -1.2449  0.1250
   57MOL0     H 7491   2.437   8.620   4.040 -4.5433  2.0098 -1.4768
   57MOL0     H 7492   2.350   8.813   3.933 -0.7813 -3.4612  1.3001
   57MOL0     H 7493   2.489   8.815   3.827 -2.8412  2.2559 -0.9095
   57MOL0     H 7494   2.629   8.843   4.065  0.3279 -1.5356  0.0793
   57MOL0     H 7495   2.484   8.864   4.144 -3.9241  4.0252 -0.8726
   57MOL0     H 7496   2.571   9.044   3.906 -2.1138  1.8353 -0.6612
   57MOL0     H 7497   2.416   9.053   3.979 -0.3037 -2.3451 -0.0939
   57MOL0     H 7498   2.635   9.185   4.065  0.0416 -0.3815  0.2252
   57MOL0     H 7499   2.651   9.038   4.169 -1.5289 -2.4926  0.6306
   57MOL0     H 7500   2.548   9.206   4.296  1.4381 -2.8560 -1.4725
   57MOL0     H 7501   2.421   9.083   4.255  0.6673 -0.7572  1.7154
   57MOL0     H 7502   2.477   9.365   4.122  0.3982 -0.2136 -0.5731
   57MOL0     H 7503   2.359   9.253   4.066  2.4850 -0.5492  0.3876
   57MOL0     H 7504   2.365   9.391   4.350 -1.7546 -1.8558  2.2963
   57MOL0     H 7505   2.241   9.280   4.306 -3.7676  3.4738 -1.6176
   57MOL0     H 7506   2.513   8.376   3.976  0.3029 -2.1145  0.2459
   57MOL0     H 7507   2.420   8.156   3.973 -0.3252 -1.5114 -1.1833
   57MOL0     H 7508   1.879   7.918   4.083  1.4101  0.3018  0.9618
   57MOL0     H 7509   1.788   7.701   4.043  1.0550 -1.5263  1.2200
   57MOL0     H 7510   0.477   7.369   4.454  1.9285 -0.1647  3.1846
   57MOL0     H 7511   0.526   7.570   4.591 -1.0666  0.0858 -0.7911
   57MOL0     H 7512   0.778   8.056   4.510 -2.2379 -2.7642 -1.1394
   57MOL0     H 7513   0.874   8.228   4.655 -4.0518  3.8917 -3.2481
   57MOL0     H 7514   0.640   8.287   5.048  1.0481 -0.3509  1.9660
   57MOL0     H 7515   0.625   8.410   4.916 -0.6693  2.1320  2.6408
   57MOL0     H 7516   0.781   8.546   5.019 -2.0739  1.3788 -0.1031
   57MOL0     H 7517   0.659   8.486   5.129 -0.6497  0.7453 -2.9047
   57MOL0     H 7518   0.939   8.379   5.105  0.5416 -0.9029  1.2738
   57MOL0     H 7519   0.833   8.317   5.218 -0.1647  1.3597  1.7092
   57MOL0     H 7520   0.999   8.495   5.315  2.4947 -1.8425 -4.1044
   57MOL0     H 7521   0.938   8.610   5.198 -2.2874  2.0541  1.4716
   57MOL0     H 7522   0.611   8.630   5.447 -1.0367  2.2280 -2.7040
   57MOL0     H 7523   0.584   8.105   4.957  0.0550  1.5151 -1.5702
   57MOL0     H 7524   0.545   7.895   4.828 -3.1221  1.4011 -0.0217
   58MOL0     O 7525   3.774   5.972   9.134  0.2962  0.4038 -0.1422
   58MOL0     C 7526   3.760   5.952   9.251  0.0192  0.7507 -0.0497
   58MOL0     O 7527   3.823   6.016   9.350  0.3656 -0.8164 -0.5016
   58MOL0     C 7528   3.919   6.118   9.339 -0.9981  0.2544 -0.1970
   58MOL0     C 7529   3.944   6.195   9.446 -0.0237 -0.6164 -0.1471
   58MOL0     C 7530   4.041   6.291   9.436 -0.8072 -1.0310  0.2868
   58MOL0     C 7531   4.119   6.309   9.321  0.6388  0.7862 -0.4230
   58MOL0     O 7532   4.219   6.401   9.332 -0.2192  0.3272  0.5604
   58MOL0     C 7533   4.305   6.426   9.212  1.1425 -0.1828 -0.2817
   58MOL0     C 7534   4.395   6.540   9.240 -1.2969  0.8178  0.5246
   58MOL0     C 7535   4.497   6.536   9.115  0.3750  0.9107 -0.2380
   58MOL0     C 7536   4.602   6.647   9.135 -0.1641 -0.2286 -0.2266
   58MOL0     C 7537   4.680   6.677   9.000 -0.1743 -0.0938  0.1184
   58MOL0     C 7538   4.778   6.790   9.027  0.2858 -0.5810  0.3832
   58MOL0     C 7539   4.865   6.827   8.920  0.3397 -0.4810 -0.6304
   58MOL0     C 7540   4.914   6.975   8.937  0.1506  0.2907 -0.5704
   58MOL0     N 7541   4.804   7.064   8.888 -0.1373 -0.0803 -0.0187
   58MOL0     C 7542   4.773   7.089   8.754  0.2040  0.6132  0.3927
   58MOL0     C 7543   4.663   7.161   8.758  0.5568 -0.0586  0.1023
   58MOL0     C 7544   4.578   7.186   8.642  0.3495  0.3865  0.7851
   58MOL0     C 7545   4.604   7.313   8.571 -0.0885 -1.5031  0.8776
   58MOL0     C 7546   4.515   7.345   8.457  0.3224 -0.2958  0.8771
   58MOL0     C 7547   4.512   7.491   8.407 -0.2898 -0.3693  0.6783
   58MOL0     O 7548   4.441   7.510   8.284 -0.0739 -0.6902  0.7359
   58MOL0     C 7549   4.423   7.641   8.242 -0.7764 -0.7637  0.2794
   58MOL0     C 7550   4.450   7.764   8.313 -1.1476  1.1438  0.4114
   58MOL0     C 7551   4.430   7.887   8.263  0.4092 -0.4075 -0.2096
   58MOL0     C 7552   4.366   7.906   8.143 -0.2479 -0.8838  0.6641
   58MOL0     C 7553   4.353   8.044   8.089 -0.3345  0.3225  0.0090
   58MOL0     O 7554   4.267   8.052   7.990 -0.0506  0.0972 -0.6967
   58MOL0     C 7555   4.236   8.171   7.927 -0.3512 -0.0936 -0.1946
   58MOL0     C 7556   4.216   8.299   7.984 -0.5444 -0.2777  1.5003
   58MOL0     C 7557   4.178   8.415   7.911 -1.0514 -0.3745 -0.6540
   58MOL0     C 7558   4.165   8.397   7.771 -0.3898 -0.0766  0.3645
   58MOL0     O 7559   4.138   8.503   7.681 -0.0085  0.1243  0.7101
   58MOL0     C 7560   4.165   8.638   7.711  0.0466  0.8682 -0.2567
   58MOL0     C 7561   4.282   8.685   7.621 -0.6357  0.2314  0.1771
   58MOL0     C 7562   4.396   8.585   7.607 -0.5194 -0.2495  0.1520
   58MOL0     C 7563   4.523   8.649   7.560  0.2318  0.2338  0.6736
   58MOL0     C 7564   4.506   8.723   7.427  0.0335  0.5534 -0.2829
   58MOL0     C 7565   4.637   8.781   7.367 -1.0356 -0.2263  0.9541
   58MOL0     C 7566   4.631   8.804   7.215  0.2185  0.0665 -1.0603
   58MOL0     C 7567   4.748   8.745   7.137 -0.2584  0.3725  1.5501
   58MOL0    Cl 7568   4.737   8.817   6.971 -0.3080  0.4028 -0.1565
   58MOL0     C 7569   4.180   8.271   7.712  0.2353 -0.7988 -0.6592
   58MOL0     C 7570   4.213   8.163   7.786  0.4329 -0.2183  0.1528
   58MOL0     O 7571   4.413   8.139   8.143 -0.8215 -1.0058  0.2175
   58MOL0     C 7572   4.321   7.794   8.072 -1.3338 -0.1437  0.4214
   58MOL0     C 7573   4.341   7.664   8.128 -1.2184  0.1345  1.0742
   58MOL0     N 7574   4.631   7.194   8.893 -0.0660 -0.9457 -0.7077
   58MOL0     N 7575   4.723   7.138   8.971 -0.6313 -0.1447 -0.6056
   58MOL0     C 7576   4.097   6.231   9.214 -1.0137 -0.6142 -0.3805
   58MOL0     C 7577   3.992   6.142   9.225 -0.3612  0.5317  0.4274
   58MOL0     C 7578   3.670   5.843   9.308  0.1617  0.1115 -0.2041
   58MOL0     C 7579   3.663   5.825   9.445 -0.0981  0.3098 -0.6680
   58MOL0     C 7580   3.577   5.726   9.490 -0.0155 -0.6450 -0.1577
   58MOL0     C 7581   3.496   5.651   9.402 -0.3102 -0.7639  0.1051
   58MOL0     O 7582   3.403   5.564   9.448  0.0708 -0.9384  0.0112
   58MOL0     C 7583   3.388   5.535   9.593  0.0870 -1.0972  0.4577
   58MOL0     C 7584   3.264   5.452   9.626  0.1035  0.0000  0.3066
   58MOL0     C 7585   3.295   5.312   9.645 -0.2957  0.7883  0.3021
   58MOL0     C 7586   3.369   5.258   9.765 -0.4353 -0.0366 -0.3459
   58MOL0     C 7587   3.321   5.122   9.804 -0.6337 -0.4001 -1.2493
   58MOL0     C 7588   3.278   5.014   9.845 -0.4211  0.0339 -1.0200
   58MOL0     C 7589   3.501   5.673   9.265  0.3300  0.1135 -0.3562
   58MOL0     C 7590   3.586   5.776   9.221  0.2160  0.3577 -0.3519
   58MOL0     H 7591   3.885   6.187   9.537 -1.8118 -0.9859 -1.2803
   58MOL0     H 7592   4.061   6.354   9.523 -1.5082 -0.4865  0.0648
   58MOL0     H 7593   4.233   6.438   9.130 -1.1536 -1.9711  1.3209
   58MOL0     H 7594   4.358   6.331   9.202 -0.0738 -0.8821 -0.2810
   58MOL0     H 7595   4.448   6.516   9.333  1.8205 -0.6631 -1.4607
   58MOL0     H 7596   4.338   6.632   9.255 -2.1502  0.1745  1.3439
   58MOL0     H 7597   4.443   6.554   9.022 -1.0096  3.4796  0.9520
   58MOL0     H 7598   4.557   6.445   9.128 -0.3979  0.5612  1.1321
   58MOL0     H 7599   4.540   6.736   9.153 -1.3299 -0.7289 -1.5477
   58MOL0     H 7600   4.661   6.613   9.220  0.1279  0.2606 -0.2255
   58MOL0     H 7601   4.610   6.700   8.919  2.1000  1.5895 -1.5170
   58MOL0     H 7602   4.740   6.590   8.972  0.4923  1.5660 -4.4626
   58MOL0     H 7603   4.840   6.763   9.113  0.5995 -1.9972 -0.2751
   58MOL0     H 7604   4.722   6.879   9.057  1.2303  0.1122  0.1414
   58MOL0     H 7605   4.947   6.755   8.910 -0.0910 -1.0195 -0.2894
   58MOL0     H 7606   4.816   6.808   8.823  2.0816 -0.0914 -1.6324
   58MOL0     H 7607   5.007   6.991   8.881  0.0307  3.2505 -0.1184
   58MOL0     H 7608   4.945   7.000   9.040 -0.1493  2.0154 -0.8631
   58MOL0     H 7609   4.830   7.045   8.673  0.6863  1.5496  0.2087
   58MOL0     H 7610   4.475   7.186   8.679  0.8944 -0.6338  2.4453
   58MOL0     H 7611   4.593   7.108   8.568 -2.4983 -0.2159  0.7230
   58MOL0     H 7612   4.706   7.307   8.532 -0.8534  1.8654 -2.2761
   58MOL0     H 7613   4.601   7.392   8.646 -1.6113 -0.1360 -0.5354
   58MOL0     H 7614   4.550   7.283   8.375 -2.2509  0.3440 -0.7983
   58MOL0     H 7615   4.414   7.308   8.476  0.4791 -1.1377  0.1242
   58MOL0     H 7616   4.616   7.510   8.378 -0.7278  0.6891 -0.2492
   58MOL0     H 7617   4.462   7.561   8.474  2.3902  1.1031  1.2820
   58MOL0     H 7618   4.496   7.764   8.412 -1.2740  3.3577  0.5318
   58MOL0     H 7619   4.482   7.967   8.316  0.2296  0.3030 -1.0862
   58MOL0     H 7620   4.226   8.308   8.091 -2.1642  0.6270  1.5961
   58MOL0     H 7621   4.183   8.516   7.951 -0.5295  0.2475 -2.2272
   58MOL0     H 7622   4.189   8.664   7.815 -2.8748  0.7691  0.5089
   58MOL0     H 7623   4.071   8.684   7.681 -1.9141 -2.8938 -0.4723
   58MOL0     H 7624   4.323   8.778   7.661 -1.4720 -0.6999  3.5579
   58MOL0     H 7625   4.245   8.706   7.520 -1.7726  1.7019  0.8527
   58MOL0     H 7626   4.370   8.506   7.536 -2.5638 -0.9918  1.6193
   58MOL0     H 7627   4.427   8.539   7.701 -0.0660 -1.3296 -0.5126
   58MOL0     H 7628   4.575   8.713   7.632 -0.5201  2.6674 -0.8452
   58MOL0     H 7629   4.600   8.575   7.538 -0.2021  0.5221 -2.1777
   58MOL0     H 7630   4.433   8.802   7.444  1.1311  1.3287  1.0976
   58MOL0     H 7631   4.464   8.645   7.362  2.0726 -1.9215  1.1474
   58MOL0     H 7632   4.722   8.716   7.388 -1.7129 -1.4733 -0.0633
   58MOL0     H 7633   4.657   8.878   7.413  3.3204 -0.7473  0.5861
   58MOL0     H 7634   4.536   8.768   7.174 -0.6289 -0.0233  0.8983
   58MOL0     H 7635   4.638   8.910   7.191  0.5845  0.2866  0.0019
   58MOL0     H 7636   4.758   8.637   7.127 -0.6172  0.4676 -0.1437
   58MOL0     H 7637   4.837   8.788   7.185 -0.4337  3.0591 -0.3250
   58MOL0     H 7638   4.166   8.273   7.605 -0.4358  2.0896 -0.5769
   58MOL0     H 7639   4.205   8.064   7.741  1.4177  0.3884 -1.4333
   58MOL0     H 7640   4.266   7.789   7.979  0.6621 -1.6242 -0.7663
   58MOL0     H 7641   4.298   7.583   8.070  0.8899 -0.3470  0.0698
   58MOL0     H 7642   4.156   6.239   9.123 -0.6182 -0.3106 -0.0994
   58MOL0     H 7643   3.975   6.076   9.141 -0.3356  0.2276  0.6598
   58MOL0     H 7644   3.737   5.876   9.506 -1.5154  2.5426 -0.7250
   58MOL0     H 7645   3.565   5.723   9.598 -2.3048  2.5392 -0.1635
   58MOL0     H 7646   3.376   5.622   9.658 -1.3351  0.6720 -2.0205
   58MOL0     H 7647   3.478   5.488   9.635  0.2672 -0.2127  1.0848
   58MOL0     H 7648   3.227   5.480   9.725  4.1884 -3.0417  3.0235
   58MOL0     H 7649   3.190   5.472   9.548  2.3247 -2.9254 -2.8201
   58MOL0     H 7650   3.347   5.280   9.554  0.4666 -1.7740  1.5488
   58MOL0     H 7651   3.200   5.257   9.640 -0.6002  1.0569  2.3303
   58MOL0     H 7652   3.476   5.253   9.745 -0.0398  1.2341  1.2288
   58MOL0     H 7653   3.354   5.331   9.845  2.6048  0.4467 -0.0976
   58MOL0     H 7654   3.261   4.914   9.878 -1.1939 -0.0120 -1.5477
   58MOL0     H 7655   3.437   5.626   9.191 -2.8269  1.1004  1.5384
   58MOL0     H 7656   3.574   5.803   9.116  0.7111  0.7265 -0.3123
   59MOL0     O 7657   4.118   7.251   9.740 -0.1975 -0.2425 -0.0628
   59MOL0     C 7658   4.194   7.327   9.685 -0.4853  0.9476  0.7231
   59MOL0     O 7659   4.171   7.372   9.557 -1.2102 -0.3531  0.0849
   59MOL0     C 7660   4.065   7.336   9.486  0.7771  0.7030  1.0355
   59MOL0     C 7661   3.992   7.436   9.420  0.5705 -0.0934 -0.1223
   59MOL0     C 7662   3.900   7.403   9.321 -0.2967 -1.0620 -0.1673
   59MOL0     C 7663   3.868   7.264   9.307  1.1972  0.1590  0.4477
   59MOL0     O 7664   3.759   7.232   9.226  0.8151 -0.0955  0.5394
   59MOL0     C 7665   3.726   7.092   9.197 -0.4163 -0.6976 -0.1011
   59MOL0     C 7666   3.592   7.094   9.125  0.1428 -0.0541  0.0902
   59MOL0     C 7667   3.476   7.145   9.201  0.0522  0.7880  0.1373
   59MOL0     C 7668   3.348   7.130   9.116  0.9490 -0.1032 -1.2735
   59MOL0     C 7669   3.214   7.179   9.184 -0.2951 -0.4231 -0.1051
   59MOL0     C 7670   3.170   7.104   9.306  0.0793 -0.4905 -0.2881
   59MOL0     C 7671   3.021   7.143   9.327 -0.2451  0.2689  0.1108
   59MOL0     C 7672   2.969   7.070   9.450 -0.6911  0.1622 -0.2617
   59MOL0     N 7673   2.834   7.128   9.453  0.3848  0.3625  0.7813
   59MOL0     C 7674   2.786   7.211   9.553 -0.5944 -0.0535  0.7931
   59MOL0     C 7675   2.648   7.203   9.538 -1.0116 -0.9233  1.2543
   59MOL0     C 7676   2.556   7.310   9.588 -0.3551  0.8678  0.5476
   59MOL0     C 7677   2.559   7.310   9.738  0.7979  0.3190 -1.0756
   59MOL0     C 7678   2.495   7.432   9.812  0.6161 -0.4136  0.7134
   59MOL0     C 7679   2.522   7.412   9.958 -0.5428 -0.0399 -0.6058
   59MOL0     O 7680   2.461   7.290  10.013  0.2702 -0.6354  0.5081
   59MOL0     C 7681   2.469   7.282  10.153 -0.2178  0.4774  0.4072
   59MOL0     C 7682   2.425   7.164  10.217 -1.2864  0.1609  0.5524
   59MOL0     C 7683   2.431   7.147  10.358 -0.5933  0.0086 -0.9685
   59MOL0     C 7684   2.502   7.240  10.436 -0.1628 -0.1598  1.2342
   59MOL0     C 7685   2.497   7.246  10.572 -0.6555  0.0699 -0.7300
   59MOL0     O 7686   2.542   7.135  10.630  0.0573  0.2231  0.1931
   59MOL0     C 7687   2.523   7.111  10.764 -0.5882 -0.4765  0.3342
   59MOL0     C 7688   2.593   7.193  10.860 -0.3108 -0.4830  0.5387
   59MOL0     C 7689   2.596   7.167  10.989  0.8692  0.3635 -0.5881
   59MOL0     C 7690   2.550   7.047  11.040 -0.2253  0.1296  0.1509
   59MOL0     O 7691   2.562   7.010  11.170  0.2609 -0.3859 -0.7112
   59MOL0     C 7692   2.688   7.054  11.238 -0.2683  0.2669  0.6483
   59MOL0     C 7693   2.705   7.015  11.384  0.6714  0.4800  0.2607
   59MOL0     C 7694   2.850   7.054  11.428  0.1569 -0.6273  1.0716
   59MOL0     C 7695   2.907   6.946  11.514 -0.8022 -0.0842  0.2053
   59MOL0     C 7696   3.037   6.997  11.575  0.8472 -0.3761 -0.1593
   59MOL0     C 7697   3.066   6.917  11.702  0.0325  0.0314  0.1802
   59MOL0     C 7698   3.184   6.972  11.776  0.1389 -0.8246  0.3387
   59MOL0     C 7699   3.210   6.896  11.904  0.8944  0.1960  1.0789
   59MOL0    Cl 7700   3.393   6.901  11.929  0.6371 -0.5045  0.2484
   59MOL0     C 7701   2.479   6.959  10.951 -0.3541 -0.5850 -0.2992
   59MOL0     C 7702   2.466   6.996  10.813  0.0691 -0.6078 -0.3892
   59MOL0     O 7703   2.445   7.341  10.626  0.7334 -0.5862  0.7957
   59MOL0     C 7704   2.538   7.359  10.367  0.9810 -0.0721  0.3566
   59MOL0     C 7705   2.535   7.383  10.232  0.6578 -0.7072 -0.1794
   59MOL0     N 7706   2.612   7.113   9.437 -0.0509  0.7149  1.7785
   59MOL0     N 7707   2.721   7.072   9.386 -0.9840 -1.0277  0.2659
   59MOL0     C 7708   3.943   7.159   9.368 -0.6483 -0.3141 -0.0884
   59MOL0     C 7709   4.044   7.200   9.452 -1.0859 -0.1593 -0.6745
   59MOL0     C 7710   4.314   7.382   9.761  0.1354  0.3614  0.1270
   59MOL0     C 7711   4.361   7.509   9.740  0.3431 -0.9936 -0.0086
   59MOL0     C 7712   4.455   7.564   9.827  1.6269 -0.8852  0.8346
   59MOL0     C 7713   4.493   7.501   9.939 -1.0788  1.8425 -0.9009
   59MOL0     O 7714   4.584   7.551  10.029  0.3386  0.0096 -0.1393
   59MOL0     C 7715   4.693   7.636   9.985 -0.2010 -1.1874 -0.1962
   59MOL0     C 7716   4.811   7.648  10.089  0.1063 -0.3715 -0.1484
   59MOL0     C 7717   4.772   7.742  10.200  0.0347  1.1170 -0.5715
   59MOL0     C 7718   4.812   7.883  10.183  0.9845  0.2463  0.4554
   59MOL0     C 7719   4.951   7.916  10.194  0.1593 -0.0790 -0.0414
   59MOL0     C 7720   5.073   7.912  10.188 -0.6795  1.3342 -0.9476
   59MOL0     C 7721   4.442   7.373   9.965  0.4726 -0.1055 -1.0199
   59MOL0     C 7722   4.355   7.316   9.871 -0.7147  1.0380  0.8999
   59MOL0     H 7723   4.018   7.539   9.444 -0.4873 -0.4754  3.0931
   59MOL0     H 7724   3.845   7.469   9.255  0.3446  0.6497  0.9400
   59MOL0     H 7725   3.708   7.040   9.292 -2.4632 -0.4808 -0.3323
   59MOL0     H 7726   3.807   7.042   9.142  1.0916  0.0813  1.3123
   59MOL0     H 7727   3.579   6.992   9.088  1.4481 -1.5680  3.4014
   59MOL0     H 7728   3.601   7.163   9.041  0.2956 -1.8196 -1.4158
   59MOL0     H 7729   3.490   7.245   9.244 -0.8655 -0.0302  2.5544
   59MOL0     H 7730   3.467   7.089   9.295 -0.5952  1.8620  0.7387
   59MOL0     H 7731   3.367   7.201   9.035 -3.3351  1.2443 -1.3815
   59MOL0     H 7732   3.326   7.032   9.072  2.5473 -0.9297 -0.3259
   59MOL0     H 7733   3.136   7.195   9.109  1.5371  2.7196 -1.5584
   59MOL0     H 7734   3.238   7.282   9.215  3.3596 -1.1806 -0.0478
   59MOL0     H 7735   3.237   7.135   9.386  1.4208  3.3869 -2.6287
   59MOL0     H 7736   3.176   6.996   9.293 -1.1670 -0.4814 -1.1353
   59MOL0     H 7737   3.009   7.251   9.332 -1.8358  0.0578  1.6594
   59MOL0     H 7738   2.971   7.099   9.240 -0.3128  0.0806  0.2453
   59MOL0     H 7739   3.014   7.092   9.548 -2.3756 -3.8564  1.6413
   59MOL0     H 7740   2.982   6.962   9.436  1.4551  0.2278  0.6874
   59MOL0     H 7741   2.853   7.277   9.606  2.2678  1.2192 -3.8048
   59MOL0     H 7742   2.454   7.322   9.550 -0.2488  3.3946  0.8918
   59MOL0     H 7743   2.595   7.409   9.560  0.6717  0.3260  0.0267
   59MOL0     H 7744   2.662   7.313   9.776  0.7345  2.4321 -0.9654
   59MOL0     H 7745   2.525   7.213   9.776  0.9823 -0.8409 -3.7056
   59MOL0     H 7746   2.540   7.524   9.773  3.0867 -1.0555  1.8218
   59MOL0     H 7747   2.389   7.430   9.787  0.5187 -1.0120  1.1481
   59MOL0     H 7748   2.472   7.498  10.003  1.0388 -0.5965  2.4864
   59MOL0     H 7749   2.627   7.410   9.989 -1.7358  0.1097  4.0938
   59MOL0     H 7750   2.380   7.084  10.159  0.7798 -0.3143 -0.4813
   59MOL0     H 7751   2.379   7.064  10.404 -0.2749  1.3027  1.9365
   59MOL0     H 7752   2.641   7.280  10.816 -1.7045 -1.2275 -2.8107
   59MOL0     H 7753   2.644   7.251  11.038 -0.2477  0.0945  1.0656
   59MOL0     H 7754   2.695   7.163  11.231 -3.2375  0.7268  3.0407
   59MOL0     H 7755   2.765   7.006  11.177  1.1905 -1.3718  3.5666
   59MOL0     H 7756   2.684   6.908  11.386 -3.4959  1.0689 -1.5375
   59MOL0     H 7757   2.630   7.057  11.452  1.3974 -1.0212  2.0640
   59MOL0     H 7758   2.850   7.149  11.483 -0.2422 -0.2228  0.4011
   59MOL0     H 7759   2.905   7.063  11.334 -1.4666 -2.1316 -0.1113
   59MOL0     H 7760   2.837   6.928  11.596  0.5565  1.4702  1.7951
   59MOL0     H 7761   2.930   6.853  11.461 -3.4449 -0.9753  0.4412
   59MOL0     H 7762   3.014   7.099  11.609 -1.5426 -0.9781  0.1730
   59MOL0     H 7763   3.109   7.000  11.493 -1.6525  2.0093 -2.5045
   59MOL0     H 7764   3.094   6.816  11.670  2.0284  0.7986 -0.6143
   59MOL0     H 7765   2.975   6.920  11.764  0.2083  2.9560  0.4526
   59MOL0     H 7766   3.269   6.955  11.709  2.5721  0.4846  2.9008
   59MOL0     H 7767   3.173   7.079  11.792  1.3699 -0.9171  2.1156
   59MOL0     H 7768   3.182   6.790  11.903  1.2053  0.0449 -2.3984
   59MOL0     H 7769   3.154   6.956  11.977  0.7361 -0.7051  1.7115
   59MOL0     H 7770   2.434   6.865  10.982  2.1865 -3.0998 -3.5538
   59MOL0     H 7771   2.413   6.934  10.741 -4.1310  2.1205  0.0617
   59MOL0     H 7772   2.570   7.448  10.421  1.5567  0.8305 -1.3863
   59MOL0     H 7773   2.575   7.475  10.189 -0.0850 -0.4941 -0.4268
   59MOL0     H 7774   3.926   7.055   9.345  0.3120 -0.5075  0.0210
   59MOL0     H 7775   4.116   7.126   9.485  1.1434  1.9329 -0.5298
   59MOL0     H 7776   4.316   7.575   9.666 -1.7143  2.0271  3.6215
   59MOL0     H 7777   4.487   7.667   9.816 -1.5697 -0.0207 -1.7720
   59MOL0     H 7778   4.668   7.741   9.969  1.3355 -0.9853 -1.5062
   59MOL0     H 7779   4.734   7.600   9.891 -1.1984 -0.3537 -0.9795
   59MOL0     H 7780   4.836   7.549  10.129 -0.8067 -0.8813 -0.7778
   59MOL0     H 7781   4.904   7.680  10.041 -0.4433  0.3504 -0.7534
   59MOL0     H 7782   4.828   7.709  10.288 -2.6469  1.2879  1.3099
   59MOL0     H 7783   4.667   7.736  10.230  0.8452 -0.8006  2.2375
   59MOL0     H 7784   4.770   7.928  10.092  0.3325  3.0181  2.0083
   59MOL0     H 7785   4.761   7.934  10.265 -0.5914 -1.1584  0.4134
   59MOL0     H 7786   5.180   7.902  10.190 -0.7316  0.8734  0.3924
   59MOL0     H 7787   4.484   7.317  10.048 -1.0782  3.8302  2.8200
   59MOL0     H 7788   4.306   7.225   9.904 -0.7178  0.9028  0.5273
   60MOL0     O 7789   5.375   9.656   0.674 -0.4925 -0.6410 -0.1567
   60MOL0     C 7790   5.444   9.564   0.630 -0.2941  0.8447 -0.4299
   60MOL0     O 7791   5.467   9.440   0.688  0.2015 -0.8268  0.2434
   60MOL0     C 7792   5.449   9.425   0.827  0.9227  0.3676  0.2919
   60MOL0     C 7793   5.392   9.307   0.859  0.1270 -0.7721  0.6458
   60MOL0     C 7794   5.391   9.271   0.990  0.1605  0.1443  0.0444
   60MOL0     C 7795   5.434   9.354   1.089  1.3593  0.0597  0.2425
   60MOL0     O 7796   5.419   9.332   1.227  0.2951  0.6420 -0.2249
   60MOL0     C 7797   5.366   9.208   1.280 -0.4024  0.1069  0.4880
   60MOL0     C 7798   5.412   9.206   1.415  0.1694  0.2596 -0.1265
   60MOL0     C 7799   5.365   9.086   1.491  1.1600 -0.0804 -0.4978
   60MOL0     C 7800   5.467   9.034   1.590 -0.0247  0.1897 -0.3820
   60MOL0     C 7801   5.416   8.891   1.647  0.0978 -0.1621  0.9894
   60MOL0     C 7802   5.544   8.820   1.706  0.2907 -0.0409 -0.3658
   60MOL0     C 7803   5.612   8.887   1.826  0.6964 -0.5060 -0.4284
   60MOL0     C 7804   5.512   8.932   1.940  0.1094  0.0305  0.2888
   60MOL0     N 7805   5.473   8.822   2.025  0.1335 -0.4637  0.0947
   60MOL0     C 7806   5.558   8.753   2.107 -0.8658  0.5827  0.8911
   60MOL0     C 7807   5.472   8.666   2.172  0.2814 -0.6830 -0.1553
   60MOL0     C 7808   5.505   8.576   2.284 -0.1445  0.0182  0.5433
   60MOL0     C 7809   5.484   8.442   2.222  0.8087  0.5117  0.9539
   60MOL0     C 7810   5.503   8.326   2.320  0.1733  0.4768  1.7018
   60MOL0     C 7811   5.652   8.318   2.359  0.3101  0.7013 -0.6184
   60MOL0     O 7812   5.688   8.417   2.453 -0.4201  0.8510 -0.7134
   60MOL0     C 7813   5.634   8.430   2.576  0.1224 -0.1246  0.2280
   60MOL0     C 7814   5.574   8.330   2.655  1.0958  0.2787  0.4897
   60MOL0     C 7815   5.508   8.375   2.773  1.3391  0.2797  0.0636
   60MOL0     C 7816   5.518   8.501   2.827 -0.3263 -0.4432  0.0902
   60MOL0     C 7817   5.463   8.549   2.959 -0.9133  0.3833  0.5033
   60MOL0     O 7818   5.396   8.453   3.033  0.2728  0.3664  0.0473
   60MOL0     C 7819   5.330   8.491   3.150 -1.3463  0.1317 -0.2083
   60MOL0     C 7820   5.397   8.544   3.263  0.8584  0.2041  0.0770
   60MOL0     C 7821   5.331   8.569   3.379 -0.3465  0.3562  1.2557
   60MOL0     C 7822   5.196   8.521   3.388 -0.3641 -0.3280  0.1321
   60MOL0     O 7823   5.123   8.519   3.503  0.4030  0.2035 -0.2361
   60MOL0     C 7824   5.135   8.626   3.596 -0.6986 -0.2235  0.1363
   60MOL0     C 7825   5.017   8.642   3.685  0.4249  0.4994 -0.3373
   60MOL0     C 7826   5.029   8.542   3.803 -0.1986  1.3131 -1.6856
   60MOL0     C 7827   4.904   8.518   3.897 -0.1256 -0.0116  0.0896
   60MOL0     C 7828   4.789   8.445   3.825 -0.0256  0.4011  0.2258
   60MOL0     C 7829   4.676   8.413   3.923  0.5484  0.7934  0.3718
   60MOL0     C 7830   4.534   8.420   3.874  0.7901  0.3490  0.1001
   60MOL0     C 7831   4.501   8.345   3.746 -0.3441  1.0033  0.9088
   60MOL0    Cl 7832   4.508   8.173   3.764  0.0344 -0.0904 -0.0384
   60MOL0     C 7833   5.133   8.469   3.280  0.0515 -0.1892  0.2757
   60MOL0     C 7834   5.196   8.459   3.160  0.2005  0.6818 -0.1069
   60MOL0     O 7835   5.474   8.670   2.984  0.9472  0.4021  0.8214
   60MOL0     C 7836   5.594   8.597   2.756  0.5319 -0.4312  1.0901
   60MOL0     C 7837   5.650   8.557   2.634  0.1632 -0.5205 -0.4236
   60MOL0     N 7838   5.351   8.672   2.122  0.2219 -0.0544 -0.3238
   60MOL0     N 7839   5.350   8.766   2.037  0.5725 -0.0176 -0.4376
   60MOL0     C 7840   5.481   9.475   1.057  0.0067  0.0200  0.4120
   60MOL0     C 7841   5.495   9.514   0.921  0.9991 -0.5700 -1.0852
   60MOL0     C 7842   5.483   9.568   0.485 -0.3890 -0.2078 -1.0892
   60MOL0     C 7843   5.447   9.674   0.403  0.2908  0.3527  0.3739
   60MOL0     C 7844   5.483   9.677   0.267 -0.6470  1.0243 -0.5729
   60MOL0     C 7845   5.568   9.575   0.219 -0.1675 -0.6857  0.1576
   60MOL0     O 7846   5.595   9.558   0.082 -0.5887 -0.0950  0.0979
   60MOL0     C 7847   5.527   9.633  -0.020 -0.1018 -0.3962  0.9793
   60MOL0     C 7848   5.606   9.760  -0.058  0.3279  1.0634  0.1560
   60MOL0     C 7849   5.735   9.707  -0.120 -0.3514 -0.3587  0.7074
   60MOL0     C 7850   5.765   9.779  -0.260  0.5730 -1.3045 -0.1997
   60MOL0     C 7851   5.903   9.779  -0.318  0.3215  0.5613 -0.4687
   60MOL0     C 7852   6.015   9.778  -0.374  0.1446 -0.7901  0.5982
   60MOL0     C 7853   5.599   9.465   0.297  0.2615 -1.2045 -0.0339
   60MOL0     C 7854   5.547   9.463   0.427 -0.4266  0.8765  1.7098
   60MOL0     H 7855   5.354   9.241   0.782  0.2849  0.2815 -0.3506
   60MOL0     H 7856   5.342   9.177   1.010 -0.8382  0.1123 -2.1654
   60MOL0     H 7857   5.398   9.121   1.221 -2.2527  1.3581 -2.6412
   60MOL0     H 7858   5.257   9.202   1.280 -0.7181  3.5904 -0.6218
   60MOL0     H 7859   5.385   9.298   1.467  1.7653  0.7187 -0.0468
   60MOL0     H 7860   5.521   9.193   1.412 -0.1708 -4.3177 -0.2560
   60MOL0     H 7861   5.345   9.014   1.412  3.9415 -3.1615  1.3363
   60MOL0     H 7862   5.276   9.105   1.551  0.6958 -1.4806 -0.7184
   60MOL0     H 7863   5.564   9.026   1.541 -0.2942  2.5668 -1.4247
   60MOL0     H 7864   5.480   9.099   1.678 -0.2402 -0.9384  0.5075
   60MOL0     H 7865   5.380   8.842   1.556 -1.2178  2.7778 -0.2083
   60MOL0     H 7866   5.326   8.903   1.708  0.1506  1.1931  0.8309
   60MOL0     H 7867   5.617   8.797   1.627  1.7768  1.2509  0.5790
   60MOL0     H 7868   5.497   8.725   1.732 -0.6077  0.4515 -0.1627
   60MOL0     H 7869   5.690   8.817   1.857  0.9706  0.0434  0.1600
   60MOL0     H 7870   5.652   8.985   1.799 -1.2573  0.7818  0.9807
   60MOL0     H 7871   5.418   8.975   1.904  0.7087  0.0833 -1.2585
   60MOL0     H 7872   5.553   9.006   2.010 -1.5212  2.0747 -0.8165
   60MOL0     H 7873   5.665   8.768   2.120 -0.8918  1.0430  0.6272
   60MOL0     H 7874   5.426   8.590   2.358  1.0775 -2.4169  2.4805
   60MOL0     H 7875   5.604   8.595   2.326  0.6004  0.2237 -1.2048
   60MOL0     H 7876   5.549   8.420   2.137  1.5187 -1.2181  1.8882
   60MOL0     H 7877   5.383   8.439   2.180  0.7559  1.7146  0.9775
   60MOL0     H 7878   5.443   8.355   2.407 -2.2761  3.6237 -0.8035
   60MOL0     H 7879   5.477   8.230   2.274 -1.2097  0.7450  1.8604
   60MOL0     H 7880   5.713   8.335   2.270  1.1527  0.1750 -0.1509
   60MOL0     H 7881   5.665   8.220   2.406  1.5959  1.7545  1.3289
   60MOL0     H 7882   5.554   8.227   2.626  0.4318  0.2895  0.8967
   60MOL0     H 7883   5.445   8.304   2.826  2.9445 -1.2709 -0.0313
   60MOL0     H 7884   5.502   8.569   3.264  1.6791 -2.9015  1.0501
   60MOL0     H 7885   5.377   8.607   3.469  1.1242  0.3661  0.5395
   60MOL0     H 7886   5.155   8.717   3.538  0.6327 -0.7645 -0.2887
   60MOL0     H 7887   5.221   8.602   3.658  0.9705  0.3344 -1.8568
   60MOL0     H 7888   4.925   8.618   3.632  1.6716 -0.5377 -2.1394
   60MOL0     H 7889   5.004   8.745   3.720 -0.5024  0.5683 -0.8524
   60MOL0     H 7890   5.112   8.566   3.871  0.5554 -1.4568 -1.4930
   60MOL0     H 7891   5.053   8.449   3.751 -2.1348  0.7225 -1.6112
   60MOL0     H 7892   4.948   8.450   3.971  2.7680 -0.2837 -1.7375
   60MOL0     H 7893   4.879   8.618   3.933  0.8603  1.0818 -2.1041
   60MOL0     H 7894   4.816   8.359   3.763  1.0047  0.4240  0.6223
   60MOL0     H 7895   4.749   8.525   3.762  1.2342  1.4727  0.7262
   60MOL0     H 7896   4.674   8.484   4.006 -1.8007  1.1863  0.0598
   60MOL0     H 7897   4.693   8.313   3.963 -0.1794  1.6170  2.8992
   60MOL0     H 7898   4.481   8.359   3.948  0.6822  0.3349  0.0100
   60MOL0     H 7899   4.511   8.526   3.860  3.1171  0.7258 -1.6190
   60MOL0     H 7900   4.581   8.373   3.676  0.1865 -2.0347  0.1378
   60MOL0     H 7901   4.404   8.368   3.701 -0.1201  1.6006  0.7244
   60MOL0     H 7902   5.030   8.436   3.288 -0.0418  0.4435  2.1299
   60MOL0     H 7903   5.137   8.437   3.071 -0.5304  3.3852 -0.3829
   60MOL0     H 7904   5.597   8.704   2.776  0.7383 -0.3581  0.6856
   60MOL0     H 7905   5.690   8.641   2.578 -0.5864  1.6610  2.1079
   60MOL0     H 7906   5.525   9.540   1.132  1.1715  3.7371 -3.1051
   60MOL0     H 7907   5.545   9.608   0.900 -1.0218  0.9621  0.5198
   60MOL0     H 7908   5.386   9.755   0.440  1.9867  1.5947  0.5795
   60MOL0     H 7909   5.449   9.758   0.204 -3.6995  1.4696  1.4267
   60MOL0     H 7910   5.430   9.670   0.016  2.7160  3.1050  6.2263
   60MOL0     H 7911   5.502   9.577  -0.111 -0.8488  4.1346 -1.9813
   60MOL0     H 7912   5.551   9.820  -0.130 -0.9118  0.1392  0.3044
   60MOL0     H 7913   5.630   9.824   0.027  1.1543  1.3614 -0.2938
   60MOL0     H 7914   5.736   9.599  -0.141 -3.9671 -0.1632 -1.3982
   60MOL0     H 7915   5.810   9.732  -0.045 -0.4713  2.6380 -0.0756
   60MOL0     H 7916   5.696   9.745  -0.337  0.1118  0.4839 -0.6220
   60MOL0     H 7917   5.742   9.885  -0.248  0.8219 -1.4990  2.8512
   60MOL0     H 7918   6.108   9.797  -0.425 -0.6946 -1.2664 -1.1847
   60MOL0     H 7919   5.668   9.389   0.264  0.1692 -0.7644 -1.2992
   60MOL0     H 7920   5.568   9.374   0.485  1.1145  0.2098  0.1897
   61MOL0     O 7921   5.971   8.137   0.404 -0.2985 -0.3736  0.3365
   61MOL0     C 7922   5.859   8.184   0.385  0.5804 -0.5680 -0.8174
   61MOL0     O 7923   5.749   8.121   0.326 -0.3174 -0.4389  0.6457
   61MOL0     C 7924   5.782   8.006   0.253 -1.1844  0.2614  0.3209
   61MOL0     C 7925   5.842   7.889   0.299  0.0706 -0.5445  0.1139
   61MOL0     C 7926   5.846   7.774   0.221 -0.2284  0.7778  0.1141
   61MOL0     C 7927   5.796   7.764   0.086 -0.1402  0.4793 -0.3123
   61MOL0     O 7928   5.803   7.656  -0.002 -0.7705  0.0466  0.3454
   61MOL0     C 7929   5.797   7.534   0.065 -0.4467  1.0270 -0.0569
   61MOL0     C 7930   5.726   7.425  -0.001 -0.1878  0.2641  0.5542
   61MOL0     C 7931   5.803   7.397  -0.132  0.4266  0.0338  0.4617
   61MOL0     C 7932   5.751   7.277  -0.205 -0.3860 -0.0576 -0.1364
   61MOL0     C 7933   5.752   7.299  -0.361  0.2506  0.1818 -0.6825
   61MOL0     C 7934   5.672   7.416  -0.417  0.6711  0.0746  0.2073
   61MOL0     C 7935   5.531   7.408  -0.368  1.3487 -0.6887 -0.7388
   61MOL0     C 7936   5.437   7.514  -0.443 -0.2314  0.2007  0.7907
   61MOL0     N 7937   5.374   7.608  -0.352 -0.2654  0.0652 -0.4577
   61MOL0     C 7938   5.444   7.690  -0.262  0.0702 -0.2385 -0.4090
   61MOL0     C 7939   5.354   7.778  -0.214  0.4898 -0.2175  0.5251
   61MOL0     C 7940   5.368   7.892  -0.114 -0.6453 -0.5730 -0.8488
   61MOL0     C 7941   5.394   8.021  -0.186 -0.4220 -0.3110 -0.4109
   61MOL0     C 7942   5.411   8.131  -0.095  0.6020 -0.8660 -0.4011
   61MOL0     C 7943   5.281   8.209  -0.033  0.8578 -0.0840  0.5584
   61MOL0     O 7944   5.325   8.320   0.055 -0.1740  0.4246  0.6677
   61MOL0     C 7945   5.322   8.315   0.188 -1.2053 -0.2776 -0.3601
   61MOL0     C 7946   5.331   8.439   0.234 -0.3404  0.0438  0.6053
   61MOL0     C 7947   5.328   8.458   0.373 -0.3083  0.4588 -0.5732
   61MOL0     C 7948   5.303   8.339   0.462 -0.8629  0.2145  1.0463
   61MOL0     C 7949   5.307   8.346   0.608  0.7465 -0.4662 -0.5312
   61MOL0     O 7950   5.310   8.233   0.685  0.6967 -0.3849 -0.1350
   61MOL0     C 7951   5.329   8.231   0.821 -0.1644 -0.1887  0.4665
   61MOL0     C 7952   5.437   8.163   0.863 -0.4228 -0.0257  0.2983
   61MOL0     C 7953   5.476   8.163   0.998 -0.7317  0.0324 -0.7546
   61MOL0     C 7954   5.389   8.213   1.100 -0.8099  1.0707  0.3609
   61MOL0     O 7955   5.438   8.209   1.232 -0.2434 -0.1811 -0.1169
   61MOL0     C 7956   5.379   8.296   1.327 -0.9986  0.2070 -0.5087
   61MOL0     C 7957   5.250   8.235   1.380  1.5145  1.4771  0.8125
   61MOL0     C 7958   5.173   8.346   1.460  0.0378  0.1986 -0.6622
   61MOL0     C 7959   5.078   8.282   1.560  0.2805  0.6694  0.5697
   61MOL0     C 7960   4.945   8.250   1.494  0.7025  0.6041  0.3503
   61MOL0     C 7961   4.842   8.193   1.602  0.3069 -0.3131 -0.7465
   61MOL0     C 7962   4.691   8.171   1.546 -1.1958  0.4906 -0.2255
   61MOL0     C 7963   4.584   8.149   1.661 -0.8369  0.7795 -0.1836
   61MOL0    Cl 7964   4.611   7.989   1.745  0.3231 -0.4008  0.0964
   61MOL0     C 7965   5.272   8.276   1.051  1.0427  0.0424 -0.5553
   61MOL0     C 7966   5.241   8.295   0.915 -1.0075 -0.4317  0.1561
   61MOL0     O 7967   5.314   8.455   0.656 -0.0668 -0.4204 -0.0912
   61MOL0     C 7968   5.298   8.209   0.405 -0.2950 -0.5121  0.0539
   61MOL0     C 7969   5.315   8.197   0.266 -0.6546 -0.7998 -0.4061
   61MOL0     N 7970   5.233   7.753  -0.276  0.1592  0.4549 -0.3268
   61MOL0     N 7971   5.245   7.651  -0.358  0.3345  1.2075 -0.4350
   61MOL0     C 7972   5.734   7.878   0.049  0.8307 -0.1422 -0.3810
   61MOL0     C 7973   5.725   7.991   0.132 -0.0460 -0.5107 -0.7623
   61MOL0     C 7974   5.831   8.301   0.462 -0.0513 -0.7174 -0.0240
   61MOL0     C 7975   5.921   8.366   0.547  0.2387  0.1368  1.2170
   61MOL0     C 7976   5.884   8.472   0.632  0.4469 -0.3170  0.5845
   61MOL0     C 7977   5.751   8.523   0.632  0.7733 -0.2114  1.0564
   61MOL0     O 7978   5.724   8.627   0.714  0.5099 -0.2113  0.4664
   61MOL0     C 7979   5.585   8.674   0.716  1.1304 -0.6703 -0.0938
   61MOL0     C 7980   5.514   8.596   0.828 -0.3009  0.1291 -0.1355
   61MOL0     C 7981   5.548   8.671   0.963  0.1734  0.0289 -0.1456
   61MOL0     C 7982   5.526   8.577   1.091 -0.0600  0.3122  0.2040
   61MOL0     C 7983   5.532   8.640   1.226 -1.1485 -0.2474  0.5272
   61MOL0     C 7984   5.537   8.683   1.336  0.6193  0.6725 -0.3806
   61MOL0     C 7985   5.664   8.461   0.543  0.0070  0.2754  0.1242
   61MOL0     C 7986   5.700   8.348   0.464 -0.4995  0.0484 -0.4076
   61MOL0     H 7987   5.885   7.879   0.398  0.2095  1.5056  0.3062
   61MOL0     H 7988   5.896   7.687   0.262 -0.1138  1.3846  1.3007
   61MOL0     H 7989   5.738   7.544   0.156  0.9084  0.5922  0.8922
   61MOL0     H 7990   5.892   7.501   0.107 -0.6597  0.5738  0.0736
   61MOL0     H 7991   5.623   7.453  -0.026  0.5756  1.6487 -1.3029
   61MOL0     H 7992   5.737   7.337   0.063 -1.3049  1.6183  2.6762
   61MOL0     H 7993   5.911   7.386  -0.114 -0.0874 -1.4971  2.9986
   61MOL0     H 7994   5.785   7.481  -0.200 -0.1225  1.6891  2.5676
   61MOL0     H 7995   5.818   7.193  -0.183  0.2149  0.1126 -1.2282
   61MOL0     H 7996   5.652   7.249  -0.168 -0.7099 -1.2975 -1.8383
   61MOL0     H 7997   5.708   7.206  -0.397  1.6303 -1.4697  1.6294
   61MOL0     H 7998   5.852   7.302  -0.407 -1.0549  1.3736 -3.7425
   61MOL0     H 7999   5.676   7.421  -0.526 -2.1126  1.3008  0.0668
   61MOL0     H 8000   5.715   7.512  -0.389 -0.9296  0.6295  0.9135
   61MOL0     H 8001   5.477   7.314  -0.382 -0.3522 -0.4731  3.1230
   61MOL0     H 8002   5.511   7.415  -0.261 -2.2611  2.6418 -1.3786
   61MOL0     H 8003   5.357   7.458  -0.492 -1.4712  0.9468  1.9132
   61MOL0     H 8004   5.481   7.577  -0.521 -4.3105  3.1429  0.5529
   61MOL0     H 8005   5.550   7.695  -0.236 -0.1216  0.9057  0.2241
   61MOL0     H 8006   5.457   7.872  -0.054 -1.4322 -1.6935  0.0004
   61MOL0     H 8007   5.280   7.893  -0.048  0.7890 -0.3058  1.1192
   61MOL0     H 8008   5.302   8.032  -0.245  1.2424 -0.7271 -3.2773
   61MOL0     H 8009   5.483   8.016  -0.249  1.6471  3.7820  1.7870
   61MOL0     H 8010   5.462   8.088  -0.008  0.2533 -1.4308 -0.4681
   61MOL0     H 8011   5.476   8.207  -0.138 -1.3218  0.6906 -0.6699
   61MOL0     H 8012   5.212   8.145   0.022 -2.6783  1.7777 -1.3271
   61MOL0     H 8013   5.224   8.247  -0.119  2.6312  0.1801 -0.5468
   61MOL0     H 8014   5.332   8.519   0.160 -2.0647  1.8276  2.4007
   61MOL0     H 8015   5.339   8.557   0.414 -2.3524  0.2959  0.4781
   61MOL0     H 8016   5.508   8.129   0.789 -1.1242 -0.9498  0.0331
   61MOL0     H 8017   5.574   8.126   1.025 -0.3442  2.5495  1.7356
   61MOL0     H 8018   5.364   8.395   1.283 -3.5275  0.3559  0.5114
   61MOL0     H 8019   5.440   8.302   1.418  1.4623  1.2202 -2.1276
   61MOL0     H 8020   5.277   8.155   1.449 -2.5446 -0.7790  0.0385
   61MOL0     H 8021   5.182   8.193   1.305 -2.3802  2.2640  3.6246
   61MOL0     H 8022   5.121   8.410   1.388  3.3403  2.6059 -1.1365
   61MOL0     H 8023   5.236   8.404   1.527  1.7736 -1.1282 -1.0857
   61MOL0     H 8024   5.130   8.197   1.606  2.4437 -0.8157 -4.0286
   61MOL0     H 8025   5.057   8.351   1.642  1.1266  0.3108  1.1037
   61MOL0     H 8026   4.955   8.190   1.403  3.2723 -1.0296  1.5778
   61MOL0     H 8027   4.906   8.345   1.457  1.6920  0.6343 -0.6448
   61MOL0     H 8028   4.846   8.260   1.688 -0.5041  0.6578 -1.4438
   61MOL0     H 8029   4.864   8.091   1.637  0.9287 -0.2129 -0.8351
   61MOL0     H 8030   4.666   8.253   1.479  2.1850  0.9815 -1.0585
   61MOL0     H 8031   4.692   8.077   1.489  2.3785 -0.2935  0.8724
   61MOL0     H 8032   4.488   8.149   1.609 -1.5399 -0.2803  1.0906
   61MOL0     H 8033   4.590   8.231   1.733  1.7301  1.1442 -0.7044
   61MOL0     H 8034   5.211   8.325   1.127  1.5143 -0.6855  0.3252
   61MOL0     H 8035   5.151   8.350   0.889 -1.8781  1.2580  5.6300
   61MOL0     H 8036   5.289   8.116   0.461 -0.3267 -1.1007 -0.9145
   61MOL0     H 8037   5.315   8.099   0.220 -1.5944 -1.0961  0.1931
   61MOL0     H 8038   5.698   7.886  -0.054 -1.7918  1.3255  0.5468
   61MOL0     H 8039   5.675   8.079   0.091  0.7064  0.1783 -0.2249
   61MOL0     H 8040   6.022   8.326   0.543  0.2123  0.2113 -0.9309
   61MOL0     H 8041   5.955   8.517   0.700  0.2249 -3.9043  3.4930
   61MOL0     H 8042   5.530   8.657   0.623  1.5282  3.1271 -1.2128
   61MOL0     H 8043   5.569   8.781   0.729 -0.0790 -0.7429 -0.8147
   61MOL0     H 8044   5.406   8.587   0.819 -0.2504 -0.1189 -0.5067
   61MOL0     H 8045   5.547   8.492   0.822  1.1518  0.6579 -2.3334
   61MOL0     H 8046   5.486   8.760   0.975 -2.0153 -1.5735  1.2360
   61MOL0     H 8047   5.649   8.713   0.963 -1.2571  3.8910  1.3648
   61MOL0     H 8048   5.428   8.532   1.074  0.0360  0.6716 -1.4662
   61MOL0     H 8049   5.607   8.505   1.081 -1.3550 -1.1736  0.0821
   61MOL0     H 8050   5.542   8.718   1.437 -4.1058 -0.8900  0.6394
   61MOL0     H 8051   5.561   8.494   0.531 -0.2095  0.0799  1.3190
   61MOL0     H 8052   5.620   8.324   0.394 -1.8092  2.9283 -0.0484
   62MOL0     O 8053   5.771   3.773   9.565 -1.1132  0.4022 -0.3927
   62MOL0     C 8054   5.873   3.697   9.554  0.2641  0.1504 -0.0897
   62MOL0     O 8055   5.996   3.716   9.612  0.7533 -0.1896 -0.0819
   62MOL0     C 8056   6.003   3.806   9.715  1.7104 -0.7645 -0.1647
   62MOL0     C 8057   6.086   3.923   9.715 -0.3055 -0.6811 -0.7807
   62MOL0     C 8058   6.090   4.002   9.829  0.4324  0.1499 -0.5999
   62MOL0     C 8059   6.015   3.986   9.945 -0.6223 -0.0247 -0.0088
   62MOL0     O 8060   6.029   4.046  10.070 -0.6824 -0.2318  0.0013
   62MOL0     C 8061   6.160   4.099  10.092  0.2719  0.1441 -0.3329
   62MOL0     C 8062   6.177   4.153  10.236  0.7368 -0.2343 -0.3624
   62MOL0     C 8063   6.320   4.212  10.264 -0.4962  0.1489  0.0633
   62MOL0     C 8064   6.451   4.123  10.242  0.6515 -0.9851 -0.7770
   62MOL0     C 8065   6.590   4.191  10.254 -0.5148 -0.6172  1.2703
   62MOL0     C 8066   6.634   4.264  10.384 -0.5496 -0.2369 -0.3094
   62MOL0     C 8067   6.772   4.326  10.381  0.7522 -0.4304 -0.2307
   62MOL0     C 8068   6.767   4.475  10.338 -0.5580  0.9252  0.6308
   62MOL0     N 8069   6.899   4.539  10.356 -0.2162 -0.5029 -0.0048
   62MOL0     C 8070   7.011   4.512  10.280  0.1609  0.2817  0.6428
   62MOL0     C 8071   7.109   4.596  10.331  0.2408  0.6065 -0.0014
   62MOL0     C 8072   7.252   4.601  10.290  0.2283 -0.7923 -0.2398
   62MOL0     C 8073   7.304   4.737  10.257  0.4424 -0.0302 -0.3748
   62MOL0     C 8074   7.194   4.821  10.191  0.3857 -0.0300  0.7425
   62MOL0     C 8075   7.260   4.949  10.148  0.0749 -0.4571  0.7773
   62MOL0     O 8076   7.168   5.057  10.108 -0.4277  0.9524  0.1351
   62MOL0     C 8077   7.197   5.190  10.094 -0.4342 -0.2230 -0.0195
   62MOL0     C 8078   7.090   5.276  10.099  0.3645 -0.6442  0.0987
   62MOL0     C 8079   7.110   5.414  10.087 -0.2927  0.4306 -0.1640
   62MOL0     C 8080   7.242   5.462  10.065 -0.0728 -0.2188  0.2950
   62MOL0     C 8081   7.266   5.604  10.052  0.0861 -0.4950 -0.8387
   62MOL0     O 8082   7.390   5.646  10.023  0.2591 -0.0032 -0.1307
   62MOL0     C 8083   7.406   5.778  10.008 -0.0584 -0.3271  0.1342
   62MOL0     C 8084   7.459   5.853  10.116 -0.5615  1.0276  0.6277
   62MOL0     C 8085   7.466   5.991  10.115 -0.1416 -0.0911  0.8758
   62MOL0     C 8086   7.419   6.061   9.999  0.6082  0.1172  0.5295
   62MOL0     O 8087   7.433   6.200   9.998 -0.1690  0.1312  0.7981
   62MOL0     C 8088   7.387   6.274   9.889 -0.3281 -0.0900 -0.5950
   62MOL0     C 8089   7.398   6.420   9.920  0.0840  0.4793  0.0659
   62MOL0     C 8090   7.541   6.459   9.971  0.2566  0.5438  0.1315
   62MOL0     C 8091   7.563   6.620   9.970 -0.1270  1.2526 -0.3497
   62MOL0     C 8092   7.477   6.663  10.096  0.3457  0.4241 -0.0142
   62MOL0     C 8093   7.489   6.810  10.136  0.2200  0.0912  0.9478
   62MOL0     C 8094   7.366   6.849  10.225  0.1052 -0.0134  0.4121
   62MOL0     C 8095   7.410   6.949  10.334 -0.0500  0.0043  0.4880
   62MOL0    Cl 8096   7.285   6.948  10.463  0.2606  0.1793  0.6115
   62MOL0     C 8097   7.363   5.988   9.886 -0.1511 -0.7044 -0.1660
   62MOL0     C 8098   7.349   5.850   9.899 -0.2555  0.1604 -0.4211
   62MOL0     O 8099   7.167   5.676  10.061  0.3715 -0.3975 -0.2341
   62MOL0     C 8100   7.348   5.368  10.056 -0.8133 -0.5622 -0.5107
   62MOL0     C 8101   7.333   5.230  10.075  0.4045 -0.7098  0.2197
   62MOL0     N 8102   7.053   4.672  10.429  0.1849  0.6863  0.1717
   62MOL0     N 8103   6.934   4.621  10.449  0.1844 -0.1589 -0.8375
   62MOL0     C 8104   5.924   3.880   9.938 -0.1001 -0.0403  0.4556
   62MOL0     C 8105   5.914   3.795   9.831 -0.2707  0.6063  0.2281
   62MOL0     C 8106   5.855   3.559   9.509  1.0191 -0.1417 -0.2994
   62MOL0     C 8107   5.730   3.521   9.459  0.7950  0.5056 -0.7222
   62MOL0     C 8108   5.721   3.389   9.408 -1.1239  1.1846 -0.8987
   62MOL0     C 8109   5.830   3.300   9.400 -0.7322 -0.0237  0.5408
   62MOL0     O 8110   5.824   3.170   9.353  0.0418  0.0538 -0.4588
   62MOL0     C 8111   5.700   3.117   9.303  0.1442 -0.7227  0.0199
   62MOL0     C 8112   5.735   2.976   9.262  0.3217  0.3959 -0.0821
   62MOL0     C 8113   5.761   2.883   9.378 -0.0029  1.0697 -0.3846
   62MOL0     C 8114   5.891   2.899   9.457 -0.2094 -0.5277  0.2010
   62MOL0     C 8115   5.932   2.777   9.524  0.0418  0.2214  0.7402
   62MOL0     C 8116   5.959   2.681   9.592 -0.6417 -0.0126 -0.0475
   62MOL0     C 8117   5.950   3.338   9.464 -0.4217  0.2923  0.2023
   62MOL0     C 8118   5.969   3.467   9.508  0.2859 -0.7148  0.3019
   62MOL0     H 8119   6.154   3.942   9.633  0.0585  1.9316  0.0447
   62MOL0     H 8120   6.170   4.075   9.840  0.1067  0.5773 -1.0150
   62MOL0     H 8121   6.193   4.181  10.028  0.5969  1.5426  1.5343
   62MOL0     H 8122   6.232   4.017  10.078  2.5720  2.0383 -0.3352
   62MOL0     H 8123   6.155   4.083  10.317  3.2673 -0.9408 -0.1949
   62MOL0     H 8124   6.101   4.231  10.236 -1.7198 -2.3691  3.3575
   62MOL0     H 8125   6.322   4.250  10.366 -0.6864 -0.2705  0.2259
   62MOL0     H 8126   6.342   4.303  10.207  0.5973  0.1415  0.4398
   62MOL0     H 8127   6.452   4.034  10.305 -1.9502  1.5369  3.3091
   62MOL0     H 8128   6.439   4.098  10.136  4.4774 -1.4343 -1.2151
   62MOL0     H 8129   6.597   4.263  10.172 -0.3892 -2.0618 -0.0378
   62MOL0     H 8130   6.661   4.111  10.233  0.3045  0.9284 -2.9678
   62MOL0     H 8131   6.637   4.204  10.476 -2.0214 -1.4647 -1.0312
   62MOL0     H 8132   6.563   4.343  10.410 -0.6593 -0.3939 -0.1301
   62MOL0     H 8133   6.805   4.321  10.485 -2.0456 -0.6099  0.7507
   62MOL0     H 8134   6.833   4.266  10.313  0.0187 -1.9802  0.4195
   62MOL0     H 8135   6.694   4.522  10.404 -1.0202 -1.6306  2.0896
   62MOL0     H 8136   6.729   4.470  10.235  1.7023 -1.2451 -0.2124
   62MOL0     H 8137   7.033   4.443  10.200 -0.4526  2.0350 -1.1329
   62MOL0     H 8138   7.266   4.539  10.202  0.1131  0.5792 -1.2536
   62MOL0     H 8139   7.310   4.565  10.376 -0.0927 -3.3134 -0.9914
   62MOL0     H 8140   7.403   4.731  10.210  1.3070  1.0234  1.2438
   62MOL0     H 8141   7.320   4.777  10.357 -0.3487 -0.8124  0.0825
   62MOL0     H 8142   7.154   4.768  10.104  0.0808  0.8307  0.3509
   62MOL0     H 8143   7.119   4.852  10.264 -2.4342  0.1111 -1.9988
   62MOL0     H 8144   7.324   4.929  10.062  1.2640 -1.8116  1.9241
   62MOL0     H 8145   7.321   4.995  10.227  3.1543  0.1642 -1.7364
   62MOL0     H 8146   6.994   5.233  10.128  1.3373 -1.2898  2.6333
   62MOL0     H 8147   7.027   5.483  10.097 -1.3111 -0.9652  1.5781
   62MOL0     H 8148   7.497   5.797  10.201  2.8486  0.2539 -1.2381
   62MOL0     H 8149   7.513   6.051  10.191  1.3234  0.3260 -0.3070
   62MOL0     H 8150   7.282   6.255   9.869 -0.3739 -0.8250  0.2606
   62MOL0     H 8151   7.448   6.254   9.800 -0.9618  2.9109 -1.7989
   62MOL0     H 8152   7.330   6.444  10.002 -2.8855  2.1428 -2.6661
   62MOL0     H 8153   7.367   6.474   9.830  3.2886 -2.9943 -3.4887
   62MOL0     H 8154   7.604   6.414   9.894 -1.4989 -2.9389  0.5347
   62MOL0     H 8155   7.570   6.421  10.069 -0.6289  0.0891  0.2323
   62MOL0     H 8156   7.668   6.644   9.988  0.8009 -2.7426  0.4949
   62MOL0     H 8157   7.530   6.658   9.873 -2.2082 -0.6055 -0.4501
   62MOL0     H 8158   7.501   6.601  10.182  1.4583  1.5069  0.4839
   62MOL0     H 8159   7.371   6.658  10.068  0.3333  0.9635 -0.0658
   62MOL0     H 8160   7.514   6.873  10.050  0.4147  1.6461  2.1030
   62MOL0     H 8161   7.582   6.819  10.193  2.2951 -2.5673 -1.7113
   62MOL0     H 8162   7.280   6.895  10.174  0.3265 -0.2250 -0.1645
   62MOL0     H 8163   7.325   6.753  10.258 -0.0197  0.9781  3.3862
   62MOL0     H 8164   7.420   7.051  10.295 -1.2495 -0.2553 -0.5888
   62MOL0     H 8165   7.501   6.930  10.392  1.3261 -0.8172 -1.8360
   62MOL0     H 8166   7.330   6.031   9.792 -0.3664 -0.6253 -0.0537
   62MOL0     H 8167   7.286   5.790   9.835 -2.1582  0.3522  1.1669
   62MOL0     H 8168   7.445   5.414  10.040 -1.5277  1.9514  1.7003
   62MOL0     H 8169   7.420   5.165  10.077  2.0437  1.3452 -0.4156
   62MOL0     H 8170   5.851   3.878  10.019 -2.6360 -2.1647 -1.6651
   62MOL0     H 8171   5.854   3.705   9.834  1.2720 -0.4341  0.7309
   62MOL0     H 8172   5.640   3.581   9.473  0.5976  0.0865 -0.1438
   62MOL0     H 8173   5.620   3.354   9.385 -1.3368  1.3510 -0.2520
   62MOL0     H 8174   5.661   3.174   9.218  0.2855 -3.0529 -1.6996
   62MOL0     H 8175   5.616   3.125   9.372 -0.6845  2.7076 -1.2145
   62MOL0     H 8176   5.659   2.923   9.204 -0.1467  2.2246 -1.2342
   62MOL0     H 8177   5.819   2.991   9.193 -0.1235  1.3664 -0.4269
   62MOL0     H 8178   5.751   2.776   9.357  0.8697  0.7858  0.5560
   62MOL0     H 8179   5.680   2.907   9.447 -0.0079  0.7493 -0.2785
   62MOL0     H 8180   5.962   2.936   9.383 -0.9163 -1.2095 -0.8446
   62MOL0     H 8181   5.876   2.983   9.525 -0.0536  0.7762 -1.3126
   62MOL0     H 8182   5.978   2.591   9.647  0.7539 -1.0901 -2.1632
   62MOL0     H 8183   6.039   3.276   9.462 -0.4195  0.2491 -2.4932
   62MOL0     H 8184   6.068   3.505   9.533 -0.3338  1.9705 -0.9835
   63MOL0     O 8185   4.123   9.069   5.386  0.7641 -0.5431  0.6832
   63MOL0     C 8186   4.083   9.162   5.462  1.1245 -0.8498  0.6236
   63MOL0     O 8187   4.053   9.290   5.411  0.6177 -0.4479  0.0273
   63MOL0     C 8188   4.062   9.301   5.275 -0.1702 -0.5384 -0.3933
   63MOL0     C 8189   4.195   9.315   5.220 -0.0151 -0.1235 -0.1288
   63MOL0     C 8190   4.202   9.320   5.076 -0.7191  0.0910  0.0061
   63MOL0     C 8191   4.086   9.329   4.997 -0.4129 -0.0364  0.0126
   63MOL0     O 8192   4.105   9.319   4.862 -1.2705  0.2310 -0.4340
   63MOL0     C 8193   4.006   9.260   4.790  0.7584  0.2098  1.6299
   63MOL0     C 8194   4.061   9.272   4.654  0.3987 -0.7748  0.4358
   63MOL0     C 8195   4.075   9.420   4.602  0.0255  0.1822  0.2119
   63MOL0     C 8196   4.160   9.413   4.475  0.6858 -0.5322 -0.5170
   63MOL0     C 8197   4.146   9.540   4.392  0.1937  0.5136 -0.2886
   63MOL0     C 8198   4.113   9.671   4.453  0.2890 -0.5832  0.1316
   63MOL0     C 8199   4.116   9.794   4.359 -0.2273  0.3906 -0.3859
   63MOL0     C 8200   4.116   9.926   4.427  0.7824 -0.7782 -0.1133
   63MOL0     N 8201   4.152  10.024   4.329  0.5130 -0.3480  0.9996
   63MOL0     C 8202   4.088  10.030   4.207 -0.3991  0.2896 -0.1275
   63MOL0     C 8203   4.187  10.085   4.121 -0.2636  0.1928 -0.2168
   63MOL0     C 8204   4.175  10.092   3.969 -0.1796  0.8093  0.3453
   63MOL0     C 8205   4.219   9.958   3.905  0.4191  0.1419 -0.7613
   63MOL0     C 8206   4.255   9.949   3.762 -0.0141 -1.0943  0.4751
   63MOL0     C 8207   4.279   9.799   3.707  0.5670 -0.5031 -0.6464
   63MOL0     O 8208   4.294   9.787   3.563 -0.2896  0.5362  0.1293
   63MOL0     C 8209   4.410   9.801   3.506 -1.1816  0.4182  0.1715
   63MOL0     C 8210   4.527   9.808   3.585  0.6403  0.2137 -0.1622
   63MOL0     C 8211   4.650   9.831   3.525  0.5187 -0.4767 -0.4039
   63MOL0     C 8212   4.663   9.845   3.387  0.5718  0.5643 -0.3520
   63MOL0     C 8213   4.788   9.902   3.323 -0.1745 -0.5642  0.6019
   63MOL0     O 8214   4.875   9.954   3.413 -0.7566 -0.8107  0.3739
   63MOL0     C 8215   5.009   9.975   3.367 -0.0758  0.2792  1.1790
   63MOL0     C 8216   5.082  10.050   3.452 -0.2403  0.1524 -0.1707
   63MOL0     C 8217   5.220  10.075   3.430  0.5475  0.5603 -0.2579
   63MOL0     C 8218   5.291  10.022   3.324 -0.4276  0.5349  0.2256
   63MOL0     O 8219   5.419  10.042   3.300  0.1726  0.3727  1.1120
   63MOL0     C 8220   5.504   9.957   3.357  1.0241 -0.1492 -0.2384
   63MOL0     C 8221   5.512   9.973   3.510  0.7468 -0.4306 -0.3422
   63MOL0     C 8222   5.592  10.094   3.556  0.3293 -0.3157 -0.0731
   63MOL0     C 8223   5.632  10.082   3.705 -0.5066  0.0470  0.5880
   63MOL0     C 8224   5.529  10.074   3.811  0.1230 -0.3391  0.3400
   63MOL0     C 8225   5.426  10.191   3.797  0.2479 -0.1448 -0.0428
   63MOL0     C 8226   5.347  10.202   3.931  1.6160  0.0170  0.8457
   63MOL0     C 8227   5.223  10.298   3.933  0.5253 -0.3799  0.0141
   63MOL0    Cl 8228   5.134  10.227   4.061 -0.3056 -0.2955  0.2558
   63MOL0     C 8229   5.217   9.947   3.233  0.1241  0.2732  0.3297
   63MOL0     C 8230   5.081   9.916   3.249 -0.4704  0.4418 -1.1637
   63MOL0     O 8231   4.798   9.893   3.201 -0.7466 -0.9172 -0.4147
   63MOL0     C 8232   4.549   9.827   3.301  0.0559 -0.0387 -0.5423
   63MOL0     C 8233   4.424   9.797   3.366  0.8075 -0.5602 -0.1789
   63MOL0     N 8234   4.302  10.102   4.195  0.3211  0.7857 -0.7248
   63MOL0     N 8235   4.283  10.068   4.323  0.3034  0.3118  0.6222
   63MOL0     C 8236   3.964   9.330   5.065  0.0825  0.0210  0.3955
   63MOL0     C 8237   3.947   9.319   5.200  0.3327  0.0012 -0.0696
   63MOL0     C 8238   4.054   9.131   5.613  0.9799  0.2807 -0.1259
   63MOL0     C 8239   4.078   9.003   5.672  0.2567  0.5302 -0.8777
   63MOL0     C 8240   4.042   8.981   5.802 -0.0236 -0.1455  0.1183
   63MOL0     C 8241   3.986   9.083   5.877 -0.6059  0.2174 -0.6762
   63MOL0     O 8242   3.936   9.038   6.004 -0.4444  0.1835  0.5148
   63MOL0     C 8243   3.856   9.136   6.078 -0.1554  0.5592 -0.0079
   63MOL0     C 8244   3.855   9.092   6.227  0.4650  0.3175 -0.0530
   63MOL0     C 8245   3.766   9.172   6.325  0.1048  0.7087 -0.9826
   63MOL0     C 8246   3.617   9.141   6.314 -0.1242 -0.4033 -0.9124
   63MOL0     C 8247   3.574   9.005   6.298 -0.5014  0.9891 -0.1152
   63MOL0     C 8248   3.533   8.893   6.304 -0.0919  0.0176  0.7682
   63MOL0     C 8249   3.967   9.215   5.817  0.6331  0.5561 -0.0256
   63MOL0     C 8250   4.003   9.240   5.685 -0.2223  1.1221  0.0147
   63MOL0     H 8251   4.273   9.299   5.293  0.4110  1.8625 -0.0986
   63MOL0     H 8252   4.294   9.332   5.019  0.3626  1.6270  1.9535
   63MOL0     H 8253   3.911   9.313   4.799  0.7826  0.7330 -0.6600
   63MOL0     H 8254   3.983   9.158   4.823 -0.8777 -0.0841 -0.2476
   63MOL0     H 8255   3.987   9.218   4.593 -1.0015 -1.7160  2.8031
   63MOL0     H 8256   4.161   9.228   4.644  0.2667 -0.6204 -2.4524
   63MOL0     H 8257   4.124   9.484   4.676 -1.3656 -1.4367  2.6855
   63MOL0     H 8258   3.973   9.454   4.584 -0.8034 -1.8236  0.7162
   63MOL0     H 8259   4.261   9.401   4.517  1.1936 -0.9809 -1.8274
   63MOL0     H 8260   4.133   9.331   4.408  0.4970 -0.5491 -0.4199
   63MOL0     H 8261   4.064   9.524   4.322 -0.0579  1.4788 -0.2198
   63MOL0     H 8262   4.236   9.542   4.330  0.3811 -1.7860 -0.1866
   63MOL0     H 8263   4.185   9.689   4.533 -1.9360  0.2323  2.0381
   63MOL0     H 8264   4.011   9.662   4.490  0.0639 -2.6551 -0.7962
   63MOL0     H 8265   4.212   9.772   4.312  0.8931 -0.3802  2.1179
   63MOL0     H 8266   4.045   9.782   4.276  0.6509  0.2011 -1.1244
   63MOL0     H 8267   4.191   9.923   4.507 -2.7252  0.5366  3.5512
   63MOL0     H 8268   4.022   9.941   4.480  1.3253 -1.6526  1.1354
   63MOL0     H 8269   3.997   9.982   4.174 -1.6660  2.5543 -0.0516
   63MOL0     H 8270   4.234  10.174   3.925 -1.7239  1.0070 -1.4664
   63MOL0     H 8271   4.075  10.115   3.932 -0.9300 -0.7137  1.3226
   63MOL0     H 8272   4.133   9.892   3.916 -2.8115  4.2547  1.3102
   63MOL0     H 8273   4.304   9.919   3.962  0.3278  1.6945  0.4786
   63MOL0     H 8274   4.192  10.005   3.692  0.2356  1.8628  2.4365
   63MOL0     H 8275   4.350  10.002   3.766 -1.1620  1.1126 -0.1063
   63MOL0     H 8276   4.182   9.751   3.722  1.0338 -0.5762  3.1248
   63MOL0     H 8277   4.353   9.748   3.769  0.4392  2.2989  2.0983
   63MOL0     H 8278   4.532   9.789   3.692  1.5798 -4.3215 -0.7938
   63MOL0     H 8279   4.741   9.832   3.583  0.9893  2.0552 -1.0537
   63MOL0     H 8280   5.028  10.104   3.529  2.3531  5.0574 -1.3482
   63MOL0     H 8281   5.277  10.139   3.496 -2.8755  0.6181  3.0220
   63MOL0     H 8282   5.607   9.982   3.330  1.0612  1.9007  1.5434
   63MOL0     H 8283   5.490   9.854   3.323  4.3883 -1.8422  2.7604
   63MOL0     H 8284   5.540   9.874   3.546 -2.3368 -1.7792 -1.3072
   63MOL0     H 8285   5.414   9.981   3.560  1.4770  1.3131  0.9448
   63MOL0     H 8286   5.520  10.176   3.550  0.6765 -0.1034 -1.5660
   63MOL0     H 8287   5.681  10.107   3.494  0.9557  3.1601  1.3371
   63MOL0     H 8288   5.708  10.005   3.716 -1.6379 -1.4787 -1.6092
   63MOL0     H 8289   5.684  10.177   3.721 -1.4824  0.6248  0.4201
   63MOL0     H 8290   5.572  10.054   3.910 -0.0704 -1.5413  0.1961
   63MOL0     H 8291   5.479   9.978   3.796  0.8310 -1.1355  2.6250
   63MOL0     H 8292   5.362  10.176   3.710 -0.4469  0.4350  0.3611
   63MOL0     H 8293   5.469  10.291   3.782 -2.9168  1.3278 -0.1427
   63MOL0     H 8294   5.313  10.104   3.966 -2.0413  0.5553 -0.7357
   63MOL0     H 8295   5.413  10.232   4.012  3.8874 -1.9431 -0.1592
   63MOL0     H 8296   5.165  10.298   3.840  4.4083  1.2038 -2.6418
   63MOL0     H 8297   5.256  10.399   3.959  1.0029  0.1490 -2.3779
   63MOL0     H 8298   5.274   9.909   3.148  2.9346  1.1687  1.6730
   63MOL0     H 8299   5.037   9.844   3.181 -1.3249 -2.4382  2.1783
   63MOL0     H 8300   4.552   9.830   3.193  2.6911  1.5001 -0.5114
   63MOL0     H 8301   4.335   9.783   3.305  1.0447  1.1055 -0.9771
   63MOL0     H 8302   3.876   9.330   5.001  1.4466  3.7746 -1.8220
   63MOL0     H 8303   3.854   9.310   5.256 -0.2899  3.2814 -0.4081
   63MOL0     H 8304   4.130   8.922   5.622 -0.1915 -1.3195  1.5221
   63MOL0     H 8305   4.039   8.878   5.834 -1.0015 -0.8282 -1.9997
   63MOL0     H 8306   3.751   9.139   6.049 -0.6415  4.5435  1.5582
   63MOL0     H 8307   3.897   9.237   6.072  3.7755 -0.9372 -1.6686
   63MOL0     H 8308   3.820   8.989   6.237  0.4038  0.4912  1.8082
   63MOL0     H 8309   3.960   9.104   6.256  0.6296 -1.5062  0.2206
   63MOL0     H 8310   3.781   9.281   6.327 -2.0851  1.0869  2.4466
   63MOL0     H 8311   3.797   9.140   6.425  0.0500  2.1710 -0.4704
   63MOL0     H 8312   3.568   9.181   6.403  3.5941  1.4530  0.5331
   63MOL0     H 8313   3.587   9.203   6.229  1.5442  0.5425 -0.8605
   63MOL0     H 8314   3.496   8.794   6.320  1.0265 -0.5715 -0.0816
   63MOL0     H 8315   3.945   9.295   5.887 -1.1649 -1.3451  1.7181
   63MOL0     H 8316   3.989   9.344   5.656 -4.4661  0.8269  0.3792
   64MOL0     O 8317   7.554   5.307   6.774  0.6575 -0.1071  0.1824
   64MOL0     C 8318   7.637   5.311   6.864 -1.2967  0.1041 -0.1707
   64MOL0     O 8319   7.661   5.422   6.950  0.1389 -0.2646 -0.4352
   64MOL0     C 8320   7.592   5.540   6.932 -0.1696  0.5156  0.4336
   64MOL0     C 8321   7.625   5.631   7.034  0.8431  0.9808  0.2810
   64MOL0     C 8322   7.567   5.753   7.042  0.8486 -0.3618 -0.2893
   64MOL0     C 8323   7.479   5.802   6.945  0.4505 -0.6171 -0.5218
   64MOL0     O 8324   7.430   5.938   6.946 -0.2102 -0.2755  0.9630
   64MOL0     C 8325   7.299   5.941   6.896 -0.0250  0.4085  0.5968
   64MOL0     C 8326   7.238   6.081   6.908 -1.1053  0.1456  0.2483
   64MOL0     C 8327   7.090   6.079   6.887 -1.0767 -0.5963  0.9915
   64MOL0     C 8328   7.033   6.223   6.895 -0.0871  0.6561 -0.0830
   64MOL0     C 8329   6.910   6.240   6.803 -0.1780  0.2140 -0.6616
   64MOL0     C 8330   6.833   6.371   6.816 -0.1764  0.1679 -0.9170
   64MOL0     C 8331   6.697   6.346   6.772 -1.2496 -0.1870 -0.4232
   64MOL0     C 8332   6.605   6.300   6.878 -0.1388 -0.3205 -0.5090
   64MOL0     N 8333   6.461   6.282   6.831  0.2025  0.2166 -0.1991
   64MOL0     C 8334   6.347   6.305   6.910 -0.5506  0.4137  0.7615
   64MOL0     C 8335   6.245   6.294   6.825  0.0484  0.6673 -0.2020
   64MOL0     C 8336   6.100   6.336   6.860  0.2493  0.6011 -0.8274
   64MOL0     C 8337   6.000   6.228   6.838 -0.6168  0.8271  0.7317
   64MOL0     C 8338   6.020   6.103   6.923  0.4697  0.4392 -0.0052
   64MOL0     C 8339   5.890   6.035   6.935  0.0347 -0.2415  0.9852
   64MOL0     O 8340   5.911   5.903   6.983 -0.6201  0.1976  0.7013
   64MOL0     C 8341   5.834   5.894   7.096  0.1495 -0.4535 -0.7736
   64MOL0     C 8342   5.693   5.871   7.105  0.1920  1.0899 -0.4609
   64MOL0     C 8343   5.625   5.840   7.223 -0.6203 -0.4406 -1.0048
   64MOL0     C 8344   5.691   5.827   7.343 -0.6131 -1.1462 -0.5539
   64MOL0     C 8345   5.621   5.802   7.472 -0.6686  0.0787 -0.9223
   64MOL0     O 8346   5.689   5.719   7.555  0.6337  0.3141 -0.8239
   64MOL0     C 8347   5.631   5.671   7.673 -0.4580 -0.3848  0.6380
   64MOL0     C 8348   5.696   5.701   7.797 -1.1263  0.4909  0.3333
   64MOL0     C 8349   5.647   5.644   7.916  0.2798 -0.2498  0.1145
   64MOL0     C 8350   5.543   5.552   7.918  0.7604  0.0869 -0.1431
   64MOL0     O 8351   5.516   5.489   8.035 -0.2457  0.0188 -0.4153
   64MOL0     C 8352   5.385   5.440   8.061 -1.0433 -0.5067  0.5646
   64MOL0     C 8353   5.383   5.395   8.209 -0.1116  0.1852 -0.6079
   64MOL0     C 8354   5.430   5.251   8.248  0.7076  0.2636 -0.2328
   64MOL0     C 8355   5.356   5.137   8.176 -0.6113 -1.0040  0.3256
   64MOL0     C 8356   5.382   5.001   8.223 -0.2049 -1.1673  1.3981
   64MOL0     C 8357   5.531   4.946   8.233  0.2409 -0.3794 -0.3957
   64MOL0     C 8358   5.550   4.838   8.124  0.2317 -0.0004  0.3735
   64MOL0     C 8359   5.531   4.878   7.974  0.6892  0.0046  0.0987
   64MOL0    Cl 8360   5.522   4.731   7.878 -0.1140  0.0232 -0.3464
   64MOL0     C 8361   5.471   5.536   7.798  0.2362  0.2116 -0.0397
   64MOL0     C 8362   5.508   5.600   7.679 -0.2672 -0.7434  0.3022
   64MOL0     O 8363   5.509   5.836   7.489  0.9118  0.4176 -0.1408
   64MOL0     C 8364   5.830   5.844   7.345  0.7982 -0.3343  0.4297
   64MOL0     C 8365   5.897   5.880   7.225 -0.9635  0.2074 -0.3814
   64MOL0     N 8366   6.294   6.262   6.700  0.2741 -0.5485 -0.7606
   64MOL0     N 8367   6.422   6.269   6.704 -0.2002  0.2671 -0.0208
   64MOL0     C 8368   7.450   5.710   6.840  0.2597  0.2499 -0.1569
   64MOL0     C 8369   7.508   5.583   6.835  0.1914 -0.0759  0.4739
   64MOL0     C 8370   7.714   5.186   6.897 -0.1102  0.7134 -0.3217
   64MOL0     C 8371   7.678   5.072   6.822 -0.8713  1.1440 -0.2260
   64MOL0     C 8372   7.751   4.959   6.830  0.7235  1.1298 -1.0761
   64MOL0     C 8373   7.869   4.958   6.910  0.7634  0.5965 -0.1992
   64MOL0     O 8374   7.951   4.844   6.912  0.2444  0.1598 -0.0680
   64MOL0     C 8375   7.990   4.795   7.044  0.2403  0.2432 -0.6540
   64MOL0     C 8376   8.141   4.773   7.063 -0.6239 -0.4123  0.3054
   64MOL0     C 8377   8.189   4.646   6.982  0.3905  1.3394 -0.3163
   64MOL0     C 8378   8.336   4.625   6.986 -0.4034  0.2572  0.2509
   64MOL0     C 8379   8.396   4.598   7.125  0.7881 -0.8985  0.3778
   64MOL0     C 8380   8.450   4.559   7.229 -1.1112 -0.1976  0.7826
   64MOL0     C 8381   7.907   5.070   6.974 -0.1729 -0.3026  0.5233
   64MOL0     C 8382   7.834   5.185   6.964  0.1674 -0.0625 -0.3157
   64MOL0     H 8383   7.683   5.595   7.119  0.2452  3.7212  1.9832
   64MOL0     H 8384   7.584   5.821   7.125 -0.5683  0.4262 -0.6192
   64MOL0     H 8385   7.231   5.874   6.950 -1.1592  0.0597 -1.1715
   64MOL0     H 8386   7.292   5.928   6.788  1.2201  0.9525  0.4362
   64MOL0     H 8387   7.299   6.162   6.866  0.7024 -0.7935  0.9314
   64MOL0     H 8388   7.250   6.108   7.013 -3.5541  0.9822  0.3742
   64MOL0     H 8389   7.047   6.011   6.961 -3.0148 -1.3590 -0.7306
   64MOL0     H 8390   7.079   6.038   6.786  1.3917 -1.7283  1.0981
   64MOL0     H 8391   7.007   6.236   7.000 -0.2620 -2.6880  0.4010
   64MOL0     H 8392   7.115   6.291   6.872 -0.3136  0.3935 -1.7632
   64MOL0     H 8393   6.852   6.155   6.838  0.6765 -0.1080 -0.0145
   64MOL0     H 8394   6.932   6.220   6.697 -1.3407  0.1784 -0.9111
   64MOL0     H 8395   6.899   6.440   6.763  0.5394  2.0039  2.0858
   64MOL0     H 8396   6.832   6.421   6.914 -2.8917  3.1766 -2.2751
   64MOL0     H 8397   6.653   6.438   6.732  1.8520  0.6707 -2.1490
   64MOL0     H 8398   6.705   6.276   6.687  1.5702 -0.4078 -0.0450
   64MOL0     H 8399   6.604   6.376   6.957 -1.2327 -0.2509 -0.5835
   64MOL0     H 8400   6.654   6.214   6.925 -0.1784 -0.4603 -0.7226
   64MOL0     H 8401   6.354   6.324   7.016 -1.9262 -0.7051  1.0808
   64MOL0     H 8402   6.077   6.432   6.813 -0.3969  2.3513  2.6846
   64MOL0     H 8403   6.100   6.357   6.968 -0.2888 -2.4605 -0.1385
   64MOL0     H 8404   6.013   6.185   6.739  0.4445  1.0506  0.7615
   64MOL0     H 8405   5.901   6.273   6.848 -0.6378  0.3803  3.2772
   64MOL0     H 8406   6.097   6.042   6.875  1.4676  1.6192  0.0363
   64MOL0     H 8407   6.063   6.123   7.021  3.1749  0.0031 -1.0318
   64MOL0     H 8408   5.845   6.030   6.836 -0.1100 -2.9774  1.0972
   64MOL0     H 8409   5.821   6.093   6.997  0.1712 -0.7345  1.6208
   64MOL0     H 8410   5.633   5.864   7.016 -0.3628  0.4363 -0.0401
   64MOL0     H 8411   5.519   5.823   7.210 -0.3656 -1.2904 -2.0511
   64MOL0     H 8412   5.783   5.764   7.804 -0.1982 -0.8975  2.3209
   64MOL0     H 8413   5.705   5.673   8.003  5.7076  2.2608 -3.7309
   64MOL0     H 8414   5.355   5.361   7.991  0.5484  0.2235 -1.0245
   64MOL0     H 8415   5.311   5.520   8.058 -0.7822 -0.2155  1.6905
   64MOL0     H 8416   5.282   5.403   8.250 -0.3977 -1.1593 -1.0114
   64MOL0     H 8417   5.460   5.463   8.248  0.4948  0.6178 -2.4766
   64MOL0     H 8418   5.410   5.231   8.353  0.3364 -2.0258 -0.6994
   64MOL0     H 8419   5.534   5.233   8.221  0.1862  0.5909 -2.7056
   64MOL0     H 8420   5.248   5.151   8.185 -0.3387  0.2432  2.1541
   64MOL0     H 8421   5.367   5.136   8.067 -2.5713  2.6434 -0.0769
   64MOL0     H 8422   5.328   4.934   8.155 -0.7055 -0.9703  1.5930
   64MOL0     H 8423   5.326   4.990   8.316 -2.4757 -4.8831 -0.2109
   64MOL0     H 8424   5.541   4.896   8.330 -0.0504  3.9169  2.1325
   64MOL0     H 8425   5.606   5.025   8.228 -1.8900  2.0745  2.2786
   64MOL0     H 8426   5.646   4.790   8.145 -0.9988 -2.9497 -0.1336
   64MOL0     H 8427   5.477   4.761   8.152  2.9323 -2.0384  2.3381
   64MOL0     H 8428   5.620   4.937   7.949  1.8395 -1.5863  0.3172
   64MOL0     H 8429   5.440   4.934   7.953  1.3925  0.7986 -0.9744
   64MOL0     H 8430   5.388   5.468   7.784 -1.0300  2.2783 -4.3378
   64MOL0     H 8431   5.453   5.581   7.587 -1.1418  0.9547  0.4308
   64MOL0     H 8432   5.890   5.823   7.433  0.6532 -3.3049 -0.0912
   64MOL0     H 8433   6.005   5.871   7.226 -1.0047 -0.7521 -1.9259
   64MOL0     H 8434   7.397   5.739   6.751  1.0042  1.0666 -0.3409
   64MOL0     H 8435   7.481   5.519   6.753  1.1215 -0.9958  0.8664
   64MOL0     H 8436   7.580   5.073   6.776 -1.8406  1.2309  1.7557
   64MOL0     H 8437   7.720   4.867   6.781 -0.1128  0.5548  0.4907
   64MOL0     H 8438   7.931   4.707   7.069 -0.5339  0.5624 -1.3097
   64MOL0     H 8439   7.967   4.864   7.126  0.4528 -1.0230  0.5029
   64MOL0     H 8440   8.194   4.852   7.011 -1.7965 -1.0476 -1.9916
   64MOL0     H 8441   8.169   4.772   7.169  1.6233  1.6947 -0.1845
   64MOL0     H 8442   8.144   4.642   6.882  1.0622  1.7491 -0.6491
   64MOL0     H 8443   8.145   4.566   7.041  2.2216  0.3037 -0.2896
   64MOL0     H 8444   8.356   4.536   6.927  3.9553  1.8341 -1.0599
   64MOL0     H 8445   8.394   4.695   6.925  0.6278 -2.9964 -2.8687
   64MOL0     H 8446   8.514   4.513   7.301  1.2504 -1.7459 -2.0851
   64MOL0     H 8447   7.996   5.067   7.036  0.4143  3.4517  0.1443
   64MOL0     H 8448   7.875   5.278   7.005 -2.5432  0.4574  1.4782
   65MOL0     O 8449   1.808  11.398   3.623 -0.4528  0.2733 -0.9680
   65MOL0     C 8450   1.721  11.471   3.569  1.0396  1.2060 -0.4644
   65MOL0     O 8451   1.586  11.445   3.561  0.4184  0.8834  0.4059
   65MOL0     C 8452   1.529  11.351   3.645  0.2157  0.0623  0.0499
   65MOL0     C 8453   1.430  11.280   3.582 -0.4188 -0.0330  0.3584
   65MOL0     C 8454   1.371  11.177   3.661 -1.2428  0.0856 -0.4980
   65MOL0     C 8455   1.400  11.165   3.795 -0.2926  0.5521 -1.0247
   65MOL0     O 8456   1.331  11.067   3.855 -0.0238 -0.0858  0.4365
   65MOL0     C 8457   1.386  11.013   3.981  0.3521 -0.2891 -0.6140
   65MOL0     C 8458   1.374  10.864   3.995 -0.1056  0.1082  0.2491
   65MOL0     C 8459   1.448  10.780   3.883  0.5709 -0.5299  0.2635
   65MOL0     C 8460   1.410  10.621   3.893 -0.3061 -0.4710  0.9685
   65MOL0     C 8461   1.505  10.530   3.806 -0.0407 -0.2697  0.1721
   65MOL0     C 8462   1.515  10.384   3.850  1.0319 -0.1298 -0.1110
   65MOL0     C 8463   1.394  10.310   3.797 -0.0886 -0.4210  0.5751
   65MOL0     C 8464   1.400  10.170   3.845 -0.1198  0.3658  0.3254
   65MOL0     N 8465   1.270  10.094   3.824 -0.2899 -0.4086 -0.3915
   65MOL0     C 8466   1.180  10.103   3.721  0.6141 -0.3248  0.7202
   65MOL0     C 8467   1.110   9.989   3.739  0.2198  1.0616  0.5684
   65MOL0     C 8468   0.990   9.935   3.670  0.3847 -0.7236 -0.6808
   65MOL0     C 8469   0.999   9.797   3.618  0.1696 -0.7466 -0.5694
   65MOL0     C 8470   0.996   9.689   3.723 -0.1539 -0.9971  0.1282
   65MOL0     C 8471   0.996   9.552   3.654  0.2488  1.0679  0.6681
   65MOL0     O 8472   0.875   9.516   3.580 -0.1286 -0.2699 -0.5293
   65MOL0     C 8473   0.834   9.393   3.593  0.4313  0.7597 -0.5188
   65MOL0     C 8474   0.913   9.278   3.576 -0.3775 -0.4782  0.4108
   65MOL0     C 8475   0.853   9.150   3.588 -0.7406 -0.6042 -0.8005
   65MOL0     C 8476   0.717   9.132   3.610  0.5967 -0.5544 -0.2002
   65MOL0     C 8477   0.652   9.002   3.602 -0.4837 -0.0098 -1.6740
   65MOL0     O 8478   0.739   8.900   3.597  0.2795  0.5320 -0.1320
   65MOL0     C 8479   0.690   8.779   3.629  0.5294  0.4155  0.1267
   65MOL0     C 8480   0.665   8.756   3.767 -0.0165  0.9640  0.0435
   65MOL0     C 8481   0.633   8.631   3.812  0.6356  1.3107 -0.0664
   65MOL0     C 8482   0.615   8.524   3.716 -0.1152 -0.6481 -0.6934
   65MOL0     O 8483   0.590   8.393   3.758  0.5932 -0.1421  0.0215
   65MOL0     C 8484   0.470   8.386   3.836  0.5369 -1.0213  0.8182
   65MOL0     C 8485   0.422   8.240   3.850 -0.3482  0.3040 -0.6153
   65MOL0     C 8486   0.533   8.150   3.919 -0.5599  0.1685  0.2892
   65MOL0     C 8487   0.493   8.004   3.922 -0.4077 -0.2388 -0.2462
   65MOL0     C 8488   0.595   7.907   3.985  0.0302 -0.3063 -0.2409
   65MOL0     C 8489   0.547   7.766   3.953  0.7544  0.3058 -0.8268
   65MOL0     C 8490   0.598   7.715   3.818  0.3261  0.2640  0.3992
   65MOL0     C 8491   0.750   7.687   3.811 -0.1521 -0.4914 -0.1261
   65MOL0    Cl 8492   0.788   7.656   3.626  0.4845  0.1810 -0.3719
   65MOL0     C 8493   0.653   8.539   3.580  0.4311 -0.6574 -0.3164
   65MOL0     C 8494   0.691   8.665   3.536  0.3996 -0.3511  0.9363
   65MOL0     O 8495   0.534   9.001   3.634 -0.2000 -1.4168  0.6092
   65MOL0     C 8496   0.639   9.250   3.612  0.2576 -0.7104 -0.3695
   65MOL0     C 8497   0.694   9.382   3.604  0.6706 -0.1191  0.8899
   65MOL0     N 8498   1.155   9.924   3.848 -0.6871 -0.1533  0.7054
   65MOL0     N 8499   1.253   9.989   3.905  0.1112  0.5595  0.0128
   65MOL0     C 8500   1.496  11.247   3.858  0.0624 -0.4386 -0.7506
   65MOL0     C 8501   1.556  11.347   3.779  0.3739  0.0491  0.1737
   65MOL0     C 8502   1.776  11.578   3.487  0.5190  0.1369 -0.1854
   65MOL0     C 8503   1.916  11.581   3.452  0.0555 -0.7080 -0.1762
   65MOL0     C 8504   1.971  11.671   3.359 -0.1785  1.1972 -0.3964
   65MOL0     C 8505   1.892  11.767   3.302  0.3816 -0.6421  0.0966
   65MOL0     O 8506   1.944  11.859   3.214  0.8867 -0.2311 -0.2643
   65MOL0     C 8507   1.980  11.810   3.078  0.5527  0.0637 -0.5548
   65MOL0     C 8508   2.099  11.905   3.030  0.9841 -1.4612  0.2446
   65MOL0     C 8509   2.209  11.907   3.133  0.3340  0.3877  0.4597
   65MOL0     C 8510   2.306  11.793   3.090 -1.0088  0.0986 -0.7293
   65MOL0     C 8511   2.398  11.830   2.980  0.0632 -0.6288 -0.4056
   65MOL0     C 8512   2.469  11.858   2.889 -0.5706 -0.7091 -0.2046
   65MOL0     C 8513   1.763  11.775   3.340 -0.4599  0.5340 -1.2231
   65MOL0     C 8514   1.705  11.681   3.425  0.7551  0.1403  0.2392
   65MOL0     H 8515   1.413  11.289   3.476  0.5610  1.0185  0.2726
   65MOL0     H 8516   1.304  11.111   3.607 -0.1663  0.1858 -2.0342
   65MOL0     H 8517   1.329  11.061   4.060  0.2898 -0.1557 -0.7398
   65MOL0     H 8518   1.491  11.042   3.990  0.2145  0.3681 -1.0487
   65MOL0     H 8519   1.269  10.838   3.981  0.2401 -2.0471  1.3006
   65MOL0     H 8520   1.379  10.827   4.098  1.6053 -1.1670 -0.2358
   65MOL0     H 8521   1.558  10.784   3.883  0.6097 -0.9500 -1.6538
   65MOL0     H 8522   1.432  10.820   3.783  2.3558 -1.0387 -0.2724
   65MOL0     H 8523   1.417  10.592   3.999 -1.1116 -0.8528  0.9203
   65MOL0     H 8524   1.305  10.613   3.865  0.3201  3.9674 -4.2171
   65MOL0     H 8525   1.598  10.585   3.817 -0.8498  0.6640  3.0529
   65MOL0     H 8526   1.461  10.532   3.705  0.2748 -0.3945  0.0317
   65MOL0     H 8527   1.512  10.389   3.959 -1.3361  0.4768 -0.1460
   65MOL0     H 8528   1.613  10.350   3.815  0.7567 -0.8899 -0.1554
   65MOL0     H 8529   1.308  10.366   3.834  1.2305 -0.0857  3.3708
   65MOL0     H 8530   1.403  10.306   3.688 -3.7679 -3.1239  0.1681
   65MOL0     H 8531   1.415  10.170   3.954 -0.5245 -2.1326  0.4469
   65MOL0     H 8532   1.480  10.133   3.780 -0.0145  3.6168 -1.6074
   65MOL0     H 8533   1.161  10.188   3.656 -2.2428 -0.1863  1.6008
   65MOL0     H 8534   0.964   9.994   3.582  0.5096  0.0242 -0.2280
   65MOL0     H 8535   0.906   9.946   3.738  0.5884 -2.3999 -0.0984
   65MOL0     H 8536   1.085   9.790   3.551  0.4715  1.7294 -0.5300
   65MOL0     H 8537   0.911   9.786   3.554 -0.1022  0.5069 -0.4379
   65MOL0     H 8538   1.080   9.691   3.793  0.3315  0.7919 -0.4631
   65MOL0     H 8539   0.902   9.692   3.779  0.1911 -1.0094  0.7166
   65MOL0     H 8540   1.027   9.471   3.720 -2.9739  0.0049  1.0320
   65MOL0     H 8541   1.070   9.554   3.573 -0.6152  1.6441 -0.1393
   65MOL0     H 8542   1.018   9.284   3.549 -0.5845 -1.3216 -0.6146
   65MOL0     H 8543   0.920   9.065   3.593  2.3863  1.6887 -0.7585
   65MOL0     H 8544   0.689   8.835   3.837  1.4380  0.1233  0.5391
   65MOL0     H 8545   0.639   8.619   3.920  1.9012 -1.0159 -0.3234
   65MOL0     H 8546   0.392   8.450   3.793  0.5656 -0.2294  1.8797
   65MOL0     H 8547   0.491   8.420   3.938 -0.7168 -1.0732  1.1111
   65MOL0     H 8548   0.406   8.200   3.750  3.0628 -0.0866 -1.1294
   65MOL0     H 8549   0.327   8.238   3.905 -1.2150  0.3285 -2.0521
   65MOL0     H 8550   0.558   8.187   4.019 -3.8096 -0.5947  1.5115
   65MOL0     H 8551   0.618   8.152   3.850 -2.5584  1.9837 -2.3275
   65MOL0     H 8552   0.402   7.995   3.982 -0.1408  0.2394  0.2323
   65MOL0     H 8553   0.464   7.975   3.820 -1.1666  2.1446 -0.7837
   65MOL0     H 8554   0.615   7.940   4.087 -1.3235  0.6303 -0.2636
   65MOL0     H 8555   0.689   7.923   3.930  0.6711  1.3562  1.2720
   65MOL0     H 8556   0.439   7.747   3.961  1.1242 -1.1048  2.1041
   65MOL0     H 8557   0.585   7.703   4.034  0.3060  0.4370 -0.5110
   65MOL0     H 8558   0.553   7.616   3.808 -0.5844  0.6232  0.8286
   65MOL0     H 8559   0.574   7.773   3.728  3.9957  1.2292 -0.1215
   65MOL0     H 8560   0.771   7.600   3.875  0.3137 -3.3173 -3.7499
   65MOL0     H 8561   0.805   7.775   3.845 -0.3063 -0.3343 -0.2846
   65MOL0     H 8562   0.657   8.451   3.515 -3.1222  0.7749 -2.8212
   65MOL0     H 8563   0.728   8.693   3.438  0.9421  0.4762  1.3524
   65MOL0     H 8564   0.531   9.241   3.615  0.2716 -0.6065  1.5542
   65MOL0     H 8565   0.641   9.475   3.588 -0.3836 -0.3243  2.9085
   65MOL0     H 8566   1.514  11.233   3.964 -1.2257 -1.9522 -0.6940
   65MOL0     H 8567   1.640  11.390   3.831  1.8645 -3.9882  1.4923
   65MOL0     H 8568   1.983  11.503   3.486 -0.1035 -0.3631  0.9660
   65MOL0     H 8569   2.077  11.657   3.341  0.4101  1.6614  2.3385
   65MOL0     H 8570   1.892  11.806   3.013 -1.0331 -0.1402  1.5143
   65MOL0     H 8571   2.019  11.708   3.083  0.3542 -0.0459 -1.1413
   65MOL0     H 8572   2.128  11.902   2.925  0.8887  2.2139  0.0006
   65MOL0     H 8573   2.064  12.007   3.045  0.1116 -1.3941 -1.8614
   65MOL0     H 8574   2.169  11.881   3.231  1.1038 -0.6018  0.5254
   65MOL0     H 8575   2.264  12.001   3.142 -0.2021  0.6024  1.5846
   65MOL0     H 8576   2.364  11.757   3.175 -0.8383  1.2249 -0.3430
   65MOL0     H 8577   2.243  11.709   3.061 -0.9391  0.7511 -2.9094
   65MOL0     H 8578   2.542  11.877   2.813  0.0139 -1.3031  0.1873
   65MOL0     H 8579   1.698  11.848   3.293 -2.3232 -1.5052 -2.0085
   65MOL0     H 8580   1.598  11.687   3.442  0.8671 -0.2676  1.1977
   66MOL0     O 8581   8.976   5.291   1.328 -0.2490  0.4386  0.2705
   66MOL0     C 8582   9.009   5.351   1.437 -0.6847  0.1021  0.3000
   66MOL0     O 8583   9.064   5.480   1.453  0.8919  0.6135  0.3862
   66MOL0     C 8584   9.095   5.557   1.336 -0.1746 -0.0237 -0.0799
   66MOL0     C 8585   9.161   5.513   1.223  1.0094  0.7492 -0.3783
   66MOL0     C 8586   9.193   5.600   1.120 -0.0293  0.2678  0.5619
   66MOL0     C 8587   9.181   5.736   1.124 -0.7638 -0.1939  0.5761
   66MOL0     O 8588   9.244   5.817   1.033 -0.4005 -0.1508 -0.3666
   66MOL0     C 8589   9.335   5.752   0.931 -0.3155 -0.0034  0.1084
   66MOL0     C 8590   9.406   5.858   0.840 -0.3690 -0.1387  0.7555
   66MOL0     C 8591   9.488   5.952   0.920  0.3158  0.6516  0.1369
   66MOL0     C 8592   9.553   6.056   0.818  0.3866 -0.2537  0.3595
   66MOL0     C 8593   9.687   6.001   0.768  0.0103 -0.8752 -0.1211
   66MOL0     C 8594   9.766   6.086   0.677  0.2056 -0.9363 -0.0346
   66MOL0     C 8595   9.866   6.007   0.593 -0.4695  0.1561 -0.8824
   66MOL0     C 8596   9.939   6.097   0.492 -0.4037 -0.1254  0.3766
   66MOL0     N 8597   9.842   6.158   0.399  0.2194 -0.2892 -0.7074
   66MOL0     C 8598   9.806   6.297   0.407  0.4141  0.4064 -0.1320
   66MOL0     C 8599   9.697   6.310   0.328 -0.1276  0.5799 -1.0151
   66MOL0     C 8600   9.637   6.439   0.305  0.4729 -0.3866  1.1675
   66MOL0     C 8601   9.566   6.447   0.165  0.2660  0.3847  0.9743
   66MOL0     C 8602   9.417   6.390   0.174 -0.3076 -0.7011  0.4574
   66MOL0     C 8603   9.301   6.487   0.214  0.5232  0.2715  0.6361
   66MOL0     O 8604   9.168   6.429   0.208 -0.5456 -0.2777  0.4228
   66MOL0     C 8605   9.062   6.515   0.241 -0.8504 -0.4221 -0.6052
   66MOL0     C 8606   8.937   6.505   0.182  0.2883 -0.5815  0.1765
   66MOL0     C 8607   8.839   6.601   0.216 -0.0307  0.6768 -0.0572
   66MOL0     C 8608   8.861   6.714   0.295  0.0240  0.0954 -0.9003
   66MOL0     C 8609   8.762   6.823   0.308 -1.2200  0.1335 -0.5815
   66MOL0     O 8610   8.778   6.895   0.423  0.1725 -0.1046  0.2536
   66MOL0     C 8611   8.720   7.016   0.439 -0.6363  0.8102 -0.5905
   66MOL0     C 8612   8.641   7.061   0.550  0.3874  0.1750  0.8196
   66MOL0     C 8613   8.579   7.185   0.539  0.5823  0.0183 -0.8519
   66MOL0     C 8614   8.607   7.270   0.440  0.6793 -0.6874 -0.5205
   66MOL0     O 8615   8.538   7.386   0.439  0.4521  0.6535  0.5205
   66MOL0     C 8616   8.433   7.394   0.346 -0.5177  0.7046 -0.2639
   66MOL0     C 8617   8.395   7.545   0.328 -0.7958  0.1570 -0.2885
   66MOL0     C 8618   8.287   7.567   0.224  0.2251 -0.0164  0.0413
   66MOL0     C 8619   8.272   7.713   0.189 -0.4547 -0.2761  0.1341
   66MOL0     C 8620   8.163   7.787   0.281 -0.6507  0.8709 -0.2031
   66MOL0     C 8621   8.138   7.930   0.236  0.1332  0.0780  0.1487
   66MOL0     C 8622   8.001   7.996   0.253 -0.4831 -0.2774 -1.2098
   66MOL0     C 8623   7.950   7.983   0.403  0.3642  0.0610  0.1237
   66MOL0    Cl 8624   8.061   8.069   0.522  0.3578 -0.1827 -0.2038
   66MOL0     C 8625   8.698   7.247   0.340 -0.3209 -0.1952 -0.3239
   66MOL0     C 8626   8.756   7.113   0.345  0.9984 -0.0807 -0.0732
   66MOL0     O 8627   8.673   6.834   0.224  0.0749 -1.3056 -0.0368
   66MOL0     C 8628   8.989   6.727   0.354 -0.2174  0.4074 -0.0271
   66MOL0     C 8629   9.083   6.626   0.330  0.0657 -1.4948  0.6476
   66MOL0     N 8630   9.670   6.185   0.285  0.4713 -0.1197  0.3076
   66MOL0     N 8631   9.748   6.095   0.330  0.9602  0.4066  1.0294
   66MOL0     C 8632   9.115   5.788   1.240 -0.4087  0.4395  0.1965
   66MOL0     C 8633   9.087   5.698   1.342  0.2824  0.1162 -0.1151
   66MOL0     C 8634   8.986   5.268   1.554  0.6992  0.4807  0.9097
   66MOL0     C 8635   9.047   5.294   1.679 -0.2889  0.2002  1.3045
   66MOL0     C 8636   9.014   5.215   1.792 -0.8785  0.2647 -0.2652
   66MOL0     C 8637   8.930   5.100   1.780 -0.2332  0.3401 -0.5473
   66MOL0     O 8638   8.909   5.033   1.904 -0.1315  0.5552  0.2589
   66MOL0     C 8639   8.911   4.893   1.905  0.5300  0.2721  0.5862
   66MOL0     C 8640   9.035   4.841   1.833 -0.3680 -0.1057 -0.3769
   66MOL0     C 8641   9.170   4.863   1.914  1.0213  0.8218 -0.4050
   66MOL0     C 8642   9.198   4.777   2.030  0.5269 -0.1696 -0.4295
   66MOL0     C 8643   9.336   4.786   2.082 -0.0501 -1.1965 -0.8008
   66MOL0     C 8644   9.449   4.796   2.124  0.3941 -0.4533 -0.0161
   66MOL0     C 8645   8.871   5.069   1.662  0.2208  0.1281  0.1797
   66MOL0     C 8646   8.894   5.154   1.550  0.6292  0.4822 -0.3913
   66MOL0     H 8647   9.172   5.407   1.200 -3.5858  0.0861 -0.4921
   66MOL0     H 8648   9.238   5.555   1.032 -0.2868  0.8885  0.1038
   66MOL0     H 8649   9.272   5.676   0.885 -3.4611  1.3636  1.8260
   66MOL0     H 8650   9.419   5.706   0.983  0.4871 -0.8535 -1.8594
   66MOL0     H 8651   9.332   5.918   0.786 -0.0802 -0.2094  0.2831
   66MOL0     H 8652   9.473   5.811   0.768  0.7094  3.3457 -0.7567
   66MOL0     H 8653   9.559   5.899   0.983  0.6761  1.7851  0.7184
   66MOL0     H 8654   9.424   6.003   0.993  2.5771  0.3268  2.5053
   66MOL0     H 8655   9.489   6.076   0.732 -0.8637  0.4080  1.4126
   66MOL0     H 8656   9.573   6.151   0.868 -1.4951  0.8867 -0.9174
   66MOL0     H 8657   9.672   5.900   0.727  1.0934 -0.6907 -1.0362
   66MOL0     H 8658   9.760   5.984   0.847  1.1690  2.9678 -0.1404
   66MOL0     H 8659   9.803   6.169   0.739 -1.3213 -0.2173 -0.0376
   66MOL0     H 8660   9.689   6.136   0.619 -1.3472 -0.5721  2.1957
   66MOL0     H 8661   9.931   5.961   0.668 -3.2210  0.8139  2.1514
   66MOL0     H 8662   9.813   5.918   0.558 -0.7374 -0.2152  0.4095
   66MOL0     H 8663  10.009   6.034   0.436 -0.9479 -0.7501  0.3870
   66MOL0     H 8664   9.989   6.173   0.553  1.3986 -1.0251  0.0981
   66MOL0     H 8665   9.854   6.376   0.465 -0.0680  0.2477  0.4951
   66MOL0     H 8666   9.711   6.520   0.313 -1.5539  1.6993  0.2164
   66MOL0     H 8667   9.565   6.462   0.384 -0.7520  1.7957 -0.4560
   66MOL0     H 8668   9.618   6.376   0.100 -3.4080 -3.9038  2.2253
   66MOL0     H 8669   9.580   6.540   0.108 -1.2257  0.1595  0.1836
   66MOL0     H 8670   9.401   6.349   0.074  2.8600 -0.7421 -0.1306
   66MOL0     H 8671   9.424   6.300   0.236  2.9922 -0.7562  0.1736
   66MOL0     H 8672   9.282   6.568   0.143 -0.8693 -0.7168 -0.1861
   66MOL0     H 8673   9.331   6.543   0.303 -0.5722 -0.6335  1.6128
   66MOL0     H 8674   8.919   6.437   0.099 -1.2918  3.3798 -3.0577
   66MOL0     H 8675   8.745   6.593   0.160  0.0140 -4.0767  0.1480
   66MOL0     H 8676   8.629   7.008   0.644 -1.6272 -0.2970  0.3446
   66MOL0     H 8677   8.506   7.212   0.615  2.5854 -1.6855  1.8277
   66MOL0     H 8678   8.341   7.339   0.370 -2.7219  2.4000 -3.9098
   66MOL0     H 8679   8.475   7.355   0.253  0.1931  0.2936  0.2214
   66MOL0     H 8680   8.483   7.606   0.306 -0.2872 -0.5623 -0.2838
   66MOL0     H 8681   8.365   7.578   0.428  2.8511  1.1849  0.6355
   66MOL0     H 8682   8.192   7.520   0.249 -1.4435  2.8492 -0.4280
   66MOL0     H 8683   8.321   7.511   0.137 -1.8746 -1.8999  0.3628
   66MOL0     H 8684   8.370   7.761   0.197 -0.2009 -1.0972  3.3127
   66MOL0     H 8685   8.243   7.722   0.084 -1.6798 -0.7917  0.4213
   66MOL0     H 8686   8.202   7.772   0.382 -0.7496 -1.0635 -0.4164
   66MOL0     H 8687   8.070   7.733   0.261 -1.2973  1.5260  0.8965
   66MOL0     H 8688   8.153   7.924   0.128 -1.6810 -1.1008 -0.0928
   66MOL0     H 8689   8.223   7.984   0.278  1.0940  1.9791 -3.7967
   66MOL0     H 8690   8.007   8.100   0.221  1.8060 -0.1946 -0.7133
   66MOL0     H 8691   7.926   7.944   0.193 -1.2295  0.3914 -0.8773
   66MOL0     H 8692   7.926   7.879   0.428  1.1972 -0.8841 -2.5796
   66MOL0     H 8693   7.856   8.037   0.408  1.6741  2.4027  0.7194
   66MOL0     H 8694   8.731   7.329   0.278  1.3117  0.1505  0.9250
   66MOL0     H 8695   8.818   7.095   0.258 -1.0816 -0.5509 -1.5329
   66MOL0     H 8696   9.020   6.794   0.433  1.5049  1.9178 -1.8622
   66MOL0     H 8697   9.177   6.640   0.383 -0.1488 -0.8906  0.8759
   66MOL0     H 8698   9.096   5.892   1.265 -0.1477 -0.2747  3.9215
   66MOL0     H 8699   9.035   5.735   1.430  0.6599  1.3784 -0.4068
   66MOL0     H 8700   9.122   5.372   1.688 -0.9077  0.7495  1.8058
   66MOL0     H 8701   9.060   5.244   1.886  0.8028  2.4342 -1.6684
   66MOL0     H 8702   8.827   4.853   1.847  0.3111 -0.5333  1.4359
   66MOL0     H 8703   8.900   4.860   2.009 -3.1793  2.9382  1.2676
   66MOL0     H 8704   9.014   4.739   1.798 -1.1901  0.9562 -3.2312
   66MOL0     H 8705   9.052   4.885   1.735 -0.9281  0.5651 -0.1821
   66MOL0     H 8706   9.182   4.965   1.952  3.5260  0.3071  0.3522
   66MOL0     H 8707   9.249   4.840   1.842 -0.1796  1.8323 -2.1460
   66MOL0     H 8708   9.131   4.794   2.115 -0.7045  0.1055 -1.4239
   66MOL0     H 8709   9.182   4.671   2.009 -1.5018 -0.2031  0.9785
   66MOL0     H 8710   9.548   4.809   2.163  0.4709  1.5037 -0.7442
   66MOL0     H 8711   8.787   5.002   1.655 -0.0677  0.4698  0.3228
   66MOL0     H 8712   8.829   5.132   1.466 -0.5279 -0.2395  0.6385
   67MOL0     O 8713   9.658   4.736   7.929  0.0947  0.1076 -0.0787
   67MOL0     C 8714   9.630   4.833   7.857 -0.5050  0.1355  0.4897
   67MOL0     O 8715   9.528   4.856   7.778  0.6367  0.9976  0.2069
   67MOL0     C 8716   9.424   4.770   7.794 -1.0173  0.2677  0.1663
   67MOL0     C 8717   9.342   4.788   7.902 -0.2601 -0.6953 -1.1568
   67MOL0     C 8718   9.231   4.707   7.935 -0.1445  0.1404 -0.4153
   67MOL0     C 8719   9.203   4.597   7.857  0.4817  0.8567  0.5459
   67MOL0     O 8720   9.092   4.519   7.880 -0.2974  0.1865  0.3368
   67MOL0     C 8721   9.092   4.384   7.841  0.7504  1.1523 -0.3710
   67MOL0     C 8722   8.993   4.306   7.922 -0.0340 -0.1532  0.6301
   67MOL0     C 8723   9.012   4.303   8.081 -0.1441  0.3210  0.0059
   67MOL0     C 8724   8.974   4.169   8.136 -0.2826 -0.7434  0.0280
   67MOL0     C 8725   9.025   4.136   8.279  0.6671  0.0364  0.4100
   67MOL0     C 8726   8.984   4.251   8.379 -0.4608 -0.4027 -0.4936
   67MOL0     C 8727   9.029   4.207   8.520  0.6582  0.5883 -0.4306
   67MOL0     C 8728   8.934   4.087   8.572 -0.5964  0.1131 -0.6885
   67MOL0     N 8729   8.792   4.131   8.572  0.7275  0.6516 -0.8674
   67MOL0     C 8730   8.732   4.254   8.619 -0.7927 -0.1781 -0.4580
   67MOL0     C 8731   8.603   4.259   8.577 -0.3514  0.6877 -0.3816
   67MOL0     C 8732   8.499   4.368   8.598 -0.1027  0.5836  0.0190
   67MOL0     C 8733   8.464   4.401   8.448 -0.3797 -0.0263  0.8921
   67MOL0     C 8734   8.575   4.433   8.362  0.3064 -0.0776 -0.0463
   67MOL0     C 8735   8.517   4.473   8.221 -0.9003  0.7051  0.3317
   67MOL0     O 8736   8.621   4.505   8.129  0.2229 -0.8963 -0.1173
   67MOL0     C 8737   8.664   4.633   8.141  0.3946 -0.4203 -0.0908
   67MOL0     C 8738   8.796   4.670   8.147  0.6884  0.2699 -0.1091
   67MOL0     C 8739   8.837   4.800   8.164  0.7311 -0.2651 -0.4933
   67MOL0     C 8740   8.743   4.905   8.161 -0.6967 -0.2264  0.3797
   67MOL0     C 8741   8.781   5.051   8.166 -0.3631 -0.0573 -0.3114
   67MOL0     O 8742   8.911   5.069   8.130  0.4801 -0.2965 -0.8271
   67MOL0     C 8743   8.957   5.195   8.097  0.2511  0.4737  0.3707
   67MOL0     C 8744   9.039   5.211   7.978  0.4595  0.6483  0.0180
   67MOL0     C 8745   9.110   5.326   7.972 -0.0195  0.5561 -0.6634
   67MOL0     C 8746   9.080   5.440   8.056 -0.2086 -1.7251  0.2821
   67MOL0     O 8747   9.145   5.556   8.022  0.0858 -0.3729  0.0699
   67MOL0     C 8748   9.209   5.625   8.132  0.1022 -1.2417 -0.0100
   67MOL0     C 8749   9.273   5.771   8.098 -0.3784  0.3529 -0.0555
   67MOL0     C 8750   9.166   5.871   8.079  0.0391 -0.3655  0.4144
   67MOL0     C 8751   9.220   5.998   8.026  0.2875  0.2851 -0.0568
   67MOL0     C 8752   9.117   6.100   7.974 -0.5890 -0.1521  0.6390
   67MOL0     C 8753   9.159   6.246   7.992  0.5104 -0.0371 -0.1300
   67MOL0     C 8754   9.042   6.335   7.959  0.6042  0.0646 -0.2719
   67MOL0     C 8755   9.089   6.473   7.913  0.5091  0.2800  0.4662
   67MOL0    Cl 8756   8.974   6.546   7.800  0.1255 -0.0214  0.2209
   67MOL0     C 8757   8.980   5.429   8.158 -0.6569 -0.3796 -0.2302
   67MOL0     C 8758   8.935   5.301   8.191  0.5666  0.2405 -0.2355
   67MOL0     O 8759   8.694   5.140   8.188 -0.4650 -0.0177  0.7835
   67MOL0     C 8760   8.607   4.880   8.148 -0.0303  0.1983 -0.7936
   67MOL0     C 8761   8.572   4.743   8.133 -0.1945 -0.2170 -0.7134
   67MOL0     N 8762   8.575   4.133   8.532  0.4585  1.4879  0.3664
   67MOL0     N 8763   8.685   4.063   8.533 -0.2376  1.1453  0.2043
   67MOL0     C 8764   9.287   4.575   7.749  0.6277 -0.0815 -0.0385
   67MOL0     C 8765   9.398   4.662   7.713 -0.1989  0.2086 -0.5476
   67MOL0     C 8766   9.720   4.946   7.877 -0.8194  0.1282  0.1337
   67MOL0     C 8767   9.700   5.076   7.816 -0.6358  0.8143  0.4700
   67MOL0     C 8768   9.791   5.185   7.827 -0.3253 -0.9280  0.4962
   67MOL0     C 8769   9.915   5.164   7.893 -0.1032  0.4977  0.5740
   67MOL0     O 8770  10.014   5.262   7.891  0.8254  0.1209 -0.1107
   67MOL0     C 8771  10.002   5.377   7.795 -0.5222  0.3670 -0.7049
   67MOL0     C 8772  10.018   5.349   7.647  0.6318 -0.0905  0.2805
   67MOL0     C 8773  10.059   5.467   7.566 -0.0360 -0.5432 -0.1950
   67MOL0     C 8774   9.951   5.579   7.555 -0.4416  0.3645  0.5973
   67MOL0     C 8775   9.970   5.679   7.661 -0.7609  0.1636  0.3958
   67MOL0     C 8776  10.008   5.755   7.742  0.4708 -0.2975 -0.0023
   67MOL0     C 8777   9.938   5.033   7.945 -0.5061  0.0306 -0.1323
   67MOL0     C 8778   9.843   4.932   7.951  1.5248 -0.7136 -0.1413
   67MOL0     H 8779   9.360   4.873   7.966  3.4301 -0.0561 -2.7973
   67MOL0     H 8780   9.176   4.723   8.027  3.6631 -1.8751  2.5324
   67MOL0     H 8781   9.191   4.337   7.843  1.3551  2.3181 -1.5503
   67MOL0     H 8782   9.036   4.375   7.747 -2.3150 -1.0777  1.4864
   67MOL0     H 8783   8.990   4.206   7.879 -2.2262  0.2031 -0.1962
   67MOL0     H 8784   8.896   4.350   7.897  0.2675  1.0439  1.4566
   67MOL0     H 8785   8.946   4.379   8.123 -0.9387 -2.1401  3.6712
   67MOL0     H 8786   9.114   4.328   8.112  0.5784 -2.6655  0.3536
   67MOL0     H 8787   8.867   4.170   8.116  0.3438  2.1939 -5.1814
   67MOL0     H 8788   9.011   4.086   8.075 -1.9767 -1.6337  0.1760
   67MOL0     H 8789   9.133   4.120   8.277  0.5664 -0.9010  1.2997
   67MOL0     H 8790   8.982   4.039   8.305 -1.2274  1.0262  1.2265
   67MOL0     H 8791   8.875   4.257   8.370 -1.0350  1.1100  4.6394
   67MOL0     H 8792   9.046   4.339   8.364  1.9403 -1.7493  0.9173
   67MOL0     H 8793   9.128   4.163   8.504  0.8349  1.1890 -1.0107
   67MOL0     H 8794   9.031   4.292   8.589 -0.7083 -1.7783  2.8263
   67MOL0     H 8795   8.955   4.063   8.676  0.4662 -1.0916 -1.1485
   67MOL0     H 8796   8.939   3.999   8.507 -0.3420  1.7510 -3.0197
   67MOL0     H 8797   8.778   4.334   8.676 -0.6742 -0.4563 -0.1602
   67MOL0     H 8798   8.549   4.451   8.650 -0.7661  1.0327 -0.0372
   67MOL0     H 8799   8.413   4.334   8.657 -1.5875  0.2300 -2.2134
   67MOL0     H 8800   8.387   4.478   8.450  2.1886  2.7308  0.0681
   67MOL0     H 8801   8.417   4.309   8.411  0.1247 -0.1982  0.6650
   67MOL0     H 8802   8.617   4.522   8.409  0.9990  0.6071 -1.8635
   67MOL0     H 8803   8.647   4.350   8.356 -0.8139 -1.3620  2.5555
   67MOL0     H 8804   8.440   4.550   8.217 -1.7252 -0.1554 -2.1945
   67MOL0     H 8805   8.475   4.380   8.181  1.4525 -0.4013  0.2966
   67MOL0     H 8806   8.871   4.591   8.156 -0.3664 -0.6264  1.3622
   67MOL0     H 8807   8.945   4.808   8.162  0.8036 -1.0304  0.0251
   67MOL0     H 8808   9.062   5.132   7.908  1.3633  2.9670 -2.4964
   67MOL0     H 8809   9.179   5.332   7.889 -0.5300  2.9433 -0.9851
   67MOL0     H 8810   9.288   5.562   8.175  0.7227 -1.5088 -1.4795
   67MOL0     H 8811   9.134   5.651   8.206  1.0967  0.6168  0.4094
   67MOL0     H 8812   9.338   5.762   8.011  0.7396 -1.1371  0.8725
   67MOL0     H 8813   9.341   5.816   8.171  0.0619  0.8462 -0.7594
   67MOL0     H 8814   9.121   5.893   8.176  3.7455 -1.6057  2.6278
   67MOL0     H 8815   9.092   5.835   8.007  0.0358  0.5534 -0.0684
   67MOL0     H 8816   9.294   6.033   8.099 -0.6135 -0.9842  1.5348
   67MOL0     H 8817   9.286   5.975   7.942 -0.0080 -3.2496  0.5311
   67MOL0     H 8818   9.022   6.077   8.024  0.4610 -0.7494  2.4419
   67MOL0     H 8819   9.103   6.077   7.868  1.0960  0.5918  0.2196
   67MOL0     H 8820   9.249   6.269   7.933  0.4198  0.9820  0.1135
   67MOL0     H 8821   9.174   6.255   8.100 -3.1827 -0.1674  0.5070
   67MOL0     H 8822   8.985   6.291   7.877  0.5630 -1.9613  0.7750
   67MOL0     H 8823   8.972   6.342   8.042  0.3930  5.1799 -0.5830
   67MOL0     H 8824   9.190   6.466   7.871 -0.3235  0.7248 -1.7629
   67MOL0     H 8825   9.091   6.540   7.999  1.1181 -1.7117  2.0809
   67MOL0     H 8826   8.954   5.519   8.213  0.3793  1.3615 -2.4788
   67MOL0     H 8827   8.865   5.287   8.272 -0.6730  0.5004 -1.2254
   67MOL0     H 8828   8.530   4.957   8.145 -0.6607 -0.2452  1.6039
   67MOL0     H 8829   8.469   4.717   8.111 -0.6262 -0.0877  1.0122
   67MOL0     H 8830   9.263   4.487   7.689  1.1488  0.9371 -1.8115
   67MOL0     H 8831   9.468   4.639   7.634 -0.2268  1.4946 -0.9782
   67MOL0     H 8832   9.611   5.091   7.756 -2.5585  2.0061  3.3435
   67MOL0     H 8833   9.759   5.272   7.770 -2.0313 -1.4926  0.5262
   67MOL0     H 8834  10.083   5.447   7.816  0.4801 -1.7249  3.6839
   67MOL0     H 8835   9.903   5.421   7.810 -0.3795  0.0820  1.3260
   67MOL0     H 8836  10.105   5.283   7.638  1.8700  1.1514  2.2979
   67MOL0     H 8837   9.925   5.299   7.619  0.2800  0.2650  0.7947
   67MOL0     H 8838  10.074   5.414   7.471 -0.8448 -1.0435 -0.0576
   67MOL0     H 8839  10.157   5.506   7.595 -0.5169  0.4094  0.1923
   67MOL0     H 8840   9.975   5.630   7.461  1.0408  1.7555  1.6784
   67MOL0     H 8841   9.852   5.532   7.555 -0.0479 -0.5096 -0.2169
   67MOL0     H 8842  10.032   5.826   7.819 -2.1357 -1.7851  2.3486
   67MOL0     H 8843  10.040   5.013   7.977 -1.4860  0.3784  3.8264
   67MOL0     H 8844   9.876   4.845   8.008  2.2093  0.1631  0.8365
   68MOL0     O 8845   1.091  10.024   8.540  0.2954 -0.8350  0.0907
   68MOL0     C 8846   1.186   9.992   8.471 -0.0846  0.8191  0.0629
   68MOL0     O 8847   1.183   9.884   8.386 -0.3887  0.2077 -0.1505
   68MOL0     C 8848   1.073   9.820   8.344  0.7836 -0.1086  0.9011
   68MOL0     C 8849   1.086   9.698   8.277  1.1736  0.1546  0.6003
   68MOL0     C 8850   0.966   9.630   8.226 -1.1541  0.9820  0.0755
   68MOL0     C 8851   0.845   9.678   8.255 -0.7593  0.3620  0.8500
   68MOL0     O 8852   0.731   9.615   8.226  0.8484  0.2908  0.0671
   68MOL0     C 8853   0.690   9.509   8.317  0.4304  0.5744  0.5490
   68MOL0     C 8854   0.551   9.445   8.265  0.3566 -1.7194  0.2206
   68MOL0     C 8855   0.547   9.443   8.108 -0.5955  0.6126 -0.0398
   68MOL0     C 8856   0.420   9.389   8.050  0.8019 -0.1215  0.8199
   68MOL0     C 8857   0.444   9.358   7.904 -0.6963  0.0128  0.3142
   68MOL0     C 8858   0.465   9.476   7.816  0.3838 -0.4262 -1.3053
   68MOL0     C 8859   0.493   9.446   7.671 -0.9249 -0.3581  0.0735
   68MOL0     C 8860   0.639   9.400   7.653  0.2977  1.0449  0.3447
   68MOL0     N 8861   0.681   9.322   7.532  0.4566  0.3819  0.4802
   68MOL0     C 8862   0.758   9.368   7.429  0.4254 -0.0419 -0.0330
   68MOL0     C 8863   0.783   9.261   7.353 -0.6148  0.2318 -1.5014
   68MOL0     C 8864   0.879   9.257   7.240  0.0474  0.1266 -0.5478
   68MOL0     C 8865   0.809   9.207   7.113 -0.0157  0.1007 -0.4897
   68MOL0     C 8866   0.727   9.318   7.051  0.2965 -0.0600 -0.1075
   68MOL0     C 8867   0.600   9.368   7.124 -0.3367  0.1513 -0.3204
   68MOL0     O 8868   0.510   9.451   7.052  0.5845  0.3107  0.6987
   68MOL0     C 8869   0.443   9.532   7.136  0.1483 -0.7807  0.7193
   68MOL0     C 8870   0.475   9.667   7.143  0.7542 -0.6101 -0.1645
   68MOL0     C 8871   0.391   9.758   7.202 -0.1355  0.0006 -0.5371
   68MOL0     C 8872   0.280   9.711   7.270 -0.2292  0.0309 -0.8184
   68MOL0     C 8873   0.196   9.810   7.346  0.9454  0.0925  0.1824
   68MOL0     O 8874   0.089   9.753   7.420  0.4009 -0.1572 -0.3525
   68MOL0     C 8875  -0.001   9.825   7.487  0.5339  0.4685  1.1426
   68MOL0     C 8876  -0.061   9.938   7.437  0.6924  0.2248 -0.5654
   68MOL0     C 8877  -0.160  10.010   7.506  0.0747  0.2828 -0.4596
   68MOL0     C 8878  -0.193   9.963   7.633  0.3154  0.5034 -1.1365
   68MOL0     O 8879  -0.273  10.035   7.725  0.1573 -0.2408 -0.3114
   68MOL0     C 8880  -0.202  10.097   7.838  0.4330  0.2647  0.6268
   68MOL0     C 8881  -0.306  10.144   7.933  0.5807 -0.0870 -0.6221
   68MOL0     C 8882  -0.402  10.258   7.892  1.1199 -0.7575 -0.4810
   68MOL0     C 8883  -0.497  10.300   8.013 -0.7989  0.0667  0.7800
   68MOL0     C 8884  -0.588  10.413   7.973  0.8409 -0.1239 -0.1937
   68MOL0     C 8885  -0.703  10.371   7.890  0.3263 -0.5398  0.5809
   68MOL0     C 8886  -0.821  10.469   7.860  0.2967  0.1401  0.9793
   68MOL0     C 8887  -0.943  10.444   7.948 -0.9128 -0.9267  0.6311
   68MOL0    Cl 8888  -0.906  10.512   8.117  0.1421  0.4847 -0.0916
   68MOL0     C 8889  -0.141   9.836   7.670 -0.3122  0.0056 -0.5454
   68MOL0     C 8890  -0.043   9.769   7.599 -0.0549 -1.2323  0.7770
   68MOL0     O 8891   0.226   9.935   7.339 -0.2546  0.0317 -0.0776
   68MOL0     C 8892   0.245   9.571   7.269  0.1151  0.0253 -0.2975
   68MOL0     C 8893   0.334   9.486   7.206 -0.3170  0.0381  1.8739
   68MOL0     N 8894   0.718   9.153   7.419 -0.0622  0.3982 -0.4922
   68MOL0     N 8895   0.654   9.185   7.518  0.8553 -0.1625  0.2970
   68MOL0     C 8896   0.831   9.806   8.305  0.1535 -0.5292  1.2648
   68MOL0     C 8897   0.950   9.883   8.341  0.4487  0.3115 -0.6653
   68MOL0     C 8898   1.325  10.050   8.495 -0.1808  0.0771  0.9231
   68MOL0     C 8899   1.338  10.165   8.582  0.1998 -0.1694  0.0246
   68MOL0     C 8900   1.464  10.228   8.586 -0.2427 -0.0230 -0.6283
   68MOL0     C 8901   1.586  10.170   8.530  0.3299 -0.0854  0.4181
   68MOL0     O 8902   1.701  10.240   8.552 -0.2231  0.2721  0.2734
   68MOL0     C 8903   1.803  10.229   8.454 -0.3063  0.9426 -0.6615
   68MOL0     C 8904   1.909  10.330   8.497  0.4155  0.7250  0.2220
   68MOL0     C 8905   1.848  10.473   8.467 -0.1079 -0.6125  0.2411
   68MOL0     C 8906   1.726  10.515   8.545 -1.1464 -0.2008  0.0753
   68MOL0     C 8907   1.706  10.665   8.552  0.2583 -0.2031 -0.6960
   68MOL0     C 8908   1.665  10.784   8.562 -0.7123  0.8000 -1.0429
   68MOL0     C 8909   1.570  10.058   8.449  0.3495 -0.6812 -0.2263
   68MOL0     C 8910   1.442   9.997   8.437 -1.2712 -0.3277  0.2929
   68MOL0     H 8911   1.184   9.656   8.260  0.5667 -0.2991 -2.3813
   68MOL0     H 8912   0.964   9.540   8.166  0.5699  0.6731  0.4195
   68MOL0     H 8913   0.687   9.542   8.422 -1.4156 -3.9482  2.1724
   68MOL0     H 8914   0.771   9.435   8.315 -0.8373 -0.8608 -1.4233
   68MOL0     H 8915   0.477   9.516   8.303  0.0798 -2.3980  0.9806
   68MOL0     H 8916   0.514   9.358   8.318  1.5578 -2.3050  0.1357
   68MOL0     H 8917   0.629   9.383   8.067 -2.0993 -1.2533 -0.4181
   68MOL0     H 8918   0.563   9.550   8.089  1.4261  0.3979  0.2374
   68MOL0     H 8919   0.398   9.302   8.113 -0.2734 -1.0550 -0.7629
   68MOL0     H 8920   0.336   9.459   8.060 -0.3950 -1.7504  3.3190
   68MOL0     H 8921   0.360   9.303   7.860 -2.8350  2.5285  0.9856
   68MOL0     H 8922   0.531   9.293   7.896  0.0377  0.7823  1.6790
   68MOL0     H 8923   0.539   9.551   7.845 -0.7231 -0.6266  2.5181
   68MOL0     H 8924   0.370   9.530   7.819  0.6018 -0.0342 -1.3318
   68MOL0     H 8925   0.419   9.371   7.642 -0.8279 -0.4465  0.0551
   68MOL0     H 8926   0.475   9.539   7.616  1.4065  2.0041  2.9835
   68MOL0     H 8927   0.674   9.341   7.738  1.9717  1.5588  0.0575
   68MOL0     H 8928   0.690   9.497   7.655  3.7464 -0.6010  0.6502
   68MOL0     H 8929   0.798   9.468   7.416 -2.4074  0.8469 -3.4828
   68MOL0     H 8930   0.951   9.180   7.268 -0.8331 -0.8392 -0.8516
   68MOL0     H 8931   0.925   9.356   7.229  1.4563 -0.2694  1.3737
   68MOL0     H 8932   0.744   9.123   7.138  0.8742 -0.9274 -1.4931
   68MOL0     H 8933   0.885   9.181   7.038  0.1618  1.4057 -0.7891
   68MOL0     H 8934   0.789   9.406   7.031 -3.1008  2.4757 -0.4311
   68MOL0     H 8935   0.687   9.273   6.960  0.8182  0.0134 -0.3773
   68MOL0     H 8936   0.646   9.434   7.199 -1.4253  0.7039 -0.1274
   68MOL0     H 8937   0.539   9.287   7.164 -2.3034  1.7584  0.1156
   68MOL0     H 8938   0.568   9.702   7.100  2.1847 -2.7182  1.0050
   68MOL0     H 8939   0.423   9.860   7.223 -0.9621  0.0872  0.3559
   68MOL0     H 8940  -0.025   9.979   7.343  2.1528 -0.8568 -0.5104
   68MOL0     H 8941  -0.197  10.103   7.465  1.2048  0.6246 -0.7375
   68MOL0     H 8942  -0.135  10.179   7.809  2.4496 -1.7599 -0.7791
   68MOL0     H 8943  -0.143  10.028   7.899 -1.3224 -0.7271  1.2836
   68MOL0     H 8944  -0.250  10.177   8.022  0.3663 -0.4394 -0.3540
   68MOL0     H 8945  -0.368  10.061   7.966  0.6343 -0.3933 -1.2907
   68MOL0     H 8946  -0.450  10.222   7.800  0.8857  0.0496 -0.6836
   68MOL0     H 8947  -0.338  10.343   7.865 -0.8791  0.1759 -2.7152
   68MOL0     H 8948  -0.549  10.211   8.048  0.0292  0.1158  2.1709
   68MOL0     H 8949  -0.441  10.341   8.097  1.5123  0.8391 -1.0355
   68MOL0     H 8950  -0.530  10.493   7.926 -0.9746  2.7403  2.0666
   68MOL0     H 8951  -0.633  10.448   8.067  1.7013 -0.8313  0.4946
   68MOL0     H 8952  -0.736  10.274   7.929  0.2183 -0.0440  1.7618
   68MOL0     H 8953  -0.659  10.339   7.795 -0.5729 -1.3189  0.3991
   68MOL0     H 8954  -0.789  10.574   7.867  1.3867 -0.0398 -0.8825
   68MOL0     H 8955  -0.847  10.446   7.757  1.8434  3.2606 -0.2594
   68MOL0     H 8956  -0.960  10.336   7.952  0.5316 -1.1884  0.4232
   68MOL0     H 8957  -1.030  10.497   7.907 -0.8791 -0.6685  0.8928
   68MOL0     H 8958  -0.171   9.779   7.758 -0.7168  0.0296 -0.6648
   68MOL0     H 8959   0.008   9.680   7.635  3.7767 -2.0151 -5.2936
   68MOL0     H 8960   0.159   9.527   7.321  0.9827 -2.2386 -0.6524
   68MOL0     H 8961   0.326   9.377   7.205  1.8891 -0.2386 -1.3792
   68MOL0     H 8962   0.732   9.850   8.308  0.1262 -0.5832  1.1768
   68MOL0     H 8963   0.945   9.987   8.373  0.2204 -0.5274  2.2393
   68MOL0     H 8964   1.260  10.215   8.640  1.0542  1.5368 -0.2311
   68MOL0     H 8965   1.470  10.316   8.650 -4.5151  1.2121 -1.6102
   68MOL0     H 8966   1.773  10.258   8.353  0.6102  2.6324 -0.4997
   68MOL0     H 8967   1.848  10.130   8.447 -1.8034  0.1700  0.2769
   68MOL0     H 8968   1.930  10.318   8.604 -2.0774 -0.8165  0.6191
   68MOL0     H 8969   1.995  10.326   8.430  2.4517 -2.1452  2.7334
   68MOL0     H 8970   1.836  10.486   8.359  0.8274  1.0592  0.2928
   68MOL0     H 8971   1.915  10.548   8.509 -0.1127 -2.2379  3.4546
   68MOL0     H 8972   1.634  10.463   8.517 -0.8339 -3.1446  3.7464
   68MOL0     H 8973   1.752  10.489   8.648 -2.8999  2.4592  1.2984
   68MOL0     H 8974   1.647  10.890   8.561  0.5463  1.0356 -2.0740
   68MOL0     H 8975   1.659  10.015   8.403  0.9353  1.2838 -1.0427
   68MOL0     H 8976   1.436   9.916   8.365  0.3176  1.0721 -1.5286
   69MOL0     O 8977   2.156   2.811   8.071  0.6340  0.5101 -0.6571
   69MOL0     C 8978   2.229   2.868   7.991  0.4490 -0.0062  0.3649
   69MOL0     O 8979   2.254   2.824   7.867 -0.4481 -0.4679 -0.0553
   69MOL0     C 8980   2.207   2.702   7.836 -0.7952 -0.4540 -0.4785
   69MOL0     C 8981   2.105   2.692   7.745  0.7682  0.0448  0.7620
   69MOL0     C 8982   2.066   2.564   7.703  0.2457 -0.3367  0.1326
   69MOL0     C 8983   2.121   2.445   7.744 -0.2786 -0.1567 -0.5032
   69MOL0     O 8984   2.104   2.321   7.691 -0.1816  0.2065  0.9743
   69MOL0     C 8985   1.985   2.306   7.613 -0.4067  0.8904 -0.6145
   69MOL0     C 8986   1.971   2.161   7.555 -0.2653 -0.3539 -0.1089
   69MOL0     C 8987   2.084   2.101   7.494 -0.2334 -0.1225  0.1938
   69MOL0     C 8988   2.065   1.943   7.483  0.0376 -0.8186 -0.1466
   69MOL0     C 8989   2.144   1.865   7.383 -0.2370 -0.9480 -0.6386
   69MOL0     C 8990   2.118   1.717   7.377 -0.2820 -0.4626  0.4733
   69MOL0     C 8991   2.193   1.660   7.261 -0.1555  0.5185 -0.0527
   69MOL0     C 8992   2.186   1.503   7.247 -0.3464 -0.0381 -0.1323
   69MOL0     N 8993   2.272   1.461   7.144 -0.1357  0.8549 -0.2073
   69MOL0     C 8994   2.228   1.406   7.025 -0.2077  0.3819 -1.3431
   69MOL0     C 8995   2.338   1.373   6.962 -0.4105  0.1142 -0.2199
   69MOL0     C 8996   2.340   1.297   6.825 -0.2898 -0.3320 -0.0422
   69MOL0     C 8997   2.217   1.197   6.816  0.5444 -0.9699  0.4571
   69MOL0     C 8998   2.217   1.092   6.706 -0.3397 -0.1094  0.8413
   69MOL0     C 8999   2.083   1.009   6.712  0.0638 -0.4332 -0.5855
   69MOL0     O 9000   2.085   0.898   6.803 -0.4177  0.0161 -0.2907
   69MOL0     C 9001   2.010   0.789   6.771  0.5061 -0.8570 -0.0459
   69MOL0     C 9002   2.046   0.664   6.823  1.1179 -0.2713 -1.4267
   69MOL0     C 9003   1.949   0.563   6.824 -0.1354 -0.7699 -0.3542
   69MOL0     C 9004   1.830   0.575   6.761  1.1978 -0.3469  0.0827
   69MOL0     C 9005   1.730   0.464   6.748 -0.1538  0.7267 -0.5091
   69MOL0     O 9006   1.613   0.484   6.703  0.9627 -0.2276 -0.2527
   69MOL0     C 9007   1.534   0.379   6.679 -0.0826  0.1579  1.0032
   69MOL0     C 9008   1.509   0.341   6.540 -0.1247 -0.0305 -0.3249
   69MOL0     C 9009   1.421   0.231   6.517 -0.1523 -0.0602 -0.1982
   69MOL0     C 9010   1.350   0.180   6.624  0.1537 -0.7146 -0.0194
   69MOL0     O 9011   1.251   0.081   6.613  0.7614  0.4853 -0.1257
   69MOL0     C 9012   1.256  -0.029   6.708  0.0013 -0.1488  0.0327
   69MOL0     C 9013   1.171  -0.150   6.644 -0.7431 -0.2913 -0.4486
   69MOL0     C 9014   1.026  -0.115   6.624 -0.2120 -0.8734  0.2169
   69MOL0     C 9015   0.928  -0.217   6.565  0.0421  0.9454 -0.3366
   69MOL0     C 9016   0.931  -0.212   6.408  0.5896 -0.6331  0.1500
   69MOL0     C 9017   1.064  -0.271   6.352  0.2507 -0.1672  0.7712
   69MOL0     C 9018   1.034  -0.306   6.200  0.5068  0.4127 -0.4182
   69MOL0     C 9019   1.147  -0.366   6.133  0.2488  0.0844 -0.4804
   69MOL0    Cl 9020   1.155  -0.541   6.196 -0.6174  0.1711  0.1269
   69MOL0     C 9021   1.373   0.223   6.757  0.6146 -0.2419 -0.0487
   69MOL0     C 9022   1.472   0.313   6.778 -0.6539  0.3692  0.8087
   69MOL0     O 9023   1.775   0.349   6.778 -0.1014  0.4118  0.6810
   69MOL0     C 9024   1.801   0.693   6.685 -0.1600  0.3820  0.2806
   69MOL0     C 9025   1.885   0.801   6.693 -0.3073  0.0685 -0.3095
   69MOL0     N 9026   2.454   1.401   7.039  0.4704 -0.0533  0.1466
   69MOL0     N 9027   2.410   1.449   7.144 -0.1330 -0.2599  0.1472
   69MOL0     C 9028   2.223   2.459   7.849  1.1049 -0.2615  0.7073
   69MOL0     C 9029   2.267   2.583   7.887 -0.3750 -0.0828 -0.2038
   69MOL0     C 9030   2.286   2.999   8.043  0.7231  1.1568 -0.5345
   69MOL0     C 9031   2.361   3.075   7.952  0.0847 -0.9112  0.2758
   69MOL0     C 9032   2.412   3.199   7.983 -0.3324 -0.7052  0.0112
   69MOL0     C 9033   2.397   3.250   8.109  0.1038  0.4416 -1.2980
   69MOL0     O 9034   2.436   3.378   8.128 -0.6277 -0.1499 -1.0422
   69MOL0     C 9035   2.452   3.421   8.264 -0.7433  0.6382  0.2714
   69MOL0     C 9036   2.525   3.548   8.273  0.6024  0.4401 -0.9305
   69MOL0     C 9037   2.465   3.650   8.173  0.9065  0.5303 -0.0484
   69MOL0     C 9038   2.316   3.682   8.173  0.6045 -0.5781  0.3788
   69MOL0     C 9039   2.270   3.701   8.311  0.7775 -0.7427 -1.2823
   69MOL0     C 9040   2.242   3.736   8.423 -0.3348  0.2758  0.7383
   69MOL0     C 9041   2.321   3.172   8.207 -0.5009 -0.5910  0.2366
   69MOL0     C 9042   2.273   3.046   8.178  0.7901 -0.1380 -0.4039
   69MOL0     H 9043   2.057   2.782   7.708 -1.2277 -0.3395  2.2175
   69MOL0     H 9044   1.991   2.553   7.625 -0.2197 -2.1283  0.7726
   69MOL0     H 9045   1.989   2.360   7.518  0.6684 -0.3474 -1.2990
   69MOL0     H 9046   1.890   2.322   7.665 -0.4317 -0.2045 -0.3150
   69MOL0     H 9047   1.893   2.177   7.481  1.0753  7.0433 -0.6663
   69MOL0     H 9048   1.934   2.111   7.645 -0.6640  0.4256  0.1611
   69MOL0     H 9049   2.176   2.120   7.551  0.7402 -0.3243 -1.2569
   69MOL0     H 9050   2.097   2.146   7.395 -1.9929 -3.7743 -1.9084
   69MOL0     H 9051   2.082   1.905   7.584 -0.7999 -5.3284 -1.4334
   69MOL0     H 9052   1.960   1.923   7.460 -0.5290  3.3874 -2.1054
   69MOL0     H 9053   2.248   1.881   7.416  0.3942 -2.7723 -1.6545
   69MOL0     H 9054   2.117   1.898   7.283 -2.4005  0.5657  0.3684
   69MOL0     H 9055   2.011   1.700   7.387  0.0851 -1.8707  2.5090
   69MOL0     H 9056   2.156   1.674   7.470 -1.8105  0.8208  1.7531
   69MOL0     H 9057   2.132   1.693   7.177  1.0301  0.2718 -1.0357
   69MOL0     H 9058   2.296   1.695   7.254  0.3574 -0.5566  1.5471
   69MOL0     H 9059   2.084   1.465   7.239 -1.0675  0.0651  5.1764
   69MOL0     H 9060   2.218   1.445   7.334  0.3011 -1.8801 -1.5090
   69MOL0     H 9061   2.124   1.403   6.993 -0.4439  0.6668 -0.6075
   69MOL0     H 9062   2.434   1.245   6.806  0.8861  1.5954  0.2291
   69MOL0     H 9063   2.337   1.365   6.739 -1.6616  2.1446  1.8346
   69MOL0     H 9064   2.138   1.270   6.801 -2.2223 -3.9192 -0.4587
   69MOL0     H 9065   2.199   1.143   6.910 -2.2663 -0.9352  0.0098
   69MOL0     H 9066   2.210   1.153   6.616 -2.8989 -0.9530  0.3836
   69MOL0     H 9067   2.306   1.028   6.709 -0.5436 -0.3746  1.3578
   69MOL0     H 9068   2.076   0.966   6.612  3.6538 -0.8217 -0.8236
   69MOL0     H 9069   1.987   1.061   6.716  0.1305 -0.1707 -1.9077
   69MOL0     H 9070   2.136   0.653   6.882 -0.5752  0.3289  1.4472
   69MOL0     H 9071   1.967   0.477   6.887 -1.7802  0.0548  1.3413
   69MOL0     H 9072   1.566   0.393   6.463  0.4660 -1.2067 -0.7095
   69MOL0     H 9073   1.389   0.193   6.420 -0.8911  2.0121 -0.8211
   69MOL0     H 9074   1.235  -0.002   6.812  2.9883 -0.9018  0.9238
   69MOL0     H 9075   1.360  -0.065   6.712 -0.9793 -3.8939 -2.5742
   69MOL0     H 9076   1.183  -0.229   6.718  0.1029 -0.6589 -0.9665
   69MOL0     H 9077   1.231  -0.193   6.564  0.0852  2.6304 -1.5437
   69MOL0     H 9078   1.027  -0.020   6.570  0.4700  2.5970  5.6373
   69MOL0     H 9079   0.978  -0.069   6.710 -1.5544 -0.0128 -0.9475
   69MOL0     H 9080   0.954  -0.320   6.590 -1.9074 -0.0117 -1.9478
   69MOL0     H 9081   0.827  -0.200   6.604  1.1204  0.0111  3.2158
   69MOL0     H 9082   0.924  -0.112   6.364 -3.6449 -0.2183  1.3873
   69MOL0     H 9083   0.841  -0.262   6.372 -0.0089 -1.8868  3.1078
   69MOL0     H 9084   1.095  -0.360   6.406  4.1119 -1.8033 -3.4788
   69MOL0     H 9085   1.138  -0.191   6.354 -0.5104  1.0394 -4.4721
   69MOL0     H 9086   0.939  -0.358   6.186 -3.5036  5.9434  2.2277
   69MOL0     H 9087   1.007  -0.210   6.154  0.7648  0.3274 -0.7549
   69MOL0     H 9088   1.245  -0.321   6.155  0.3529 -0.2662 -0.2170
   69MOL0     H 9089   1.123  -0.360   6.027 -3.0018  0.9919  0.2090
   69MOL0     H 9090   1.327   0.189   6.849  4.8774  0.4445  2.6304
   69MOL0     H 9091   1.496   0.364   6.870  2.9735 -0.2703  0.3632
   69MOL0     H 9092   1.720   0.712   6.616  1.2778  2.2843 -0.9713
   69MOL0     H 9093   1.858   0.897   6.649  2.5923  1.3820  0.4720
   69MOL0     H 9094   2.258   2.370   7.901  3.2208  1.1566  1.8374
   69MOL0     H 9095   2.335   2.597   7.970 -0.0070  0.5289 -0.5986
   69MOL0     H 9096   2.367   3.048   7.848  1.2373  1.9965 -0.5300
   69MOL0     H 9097   2.468   3.253   7.908  0.1661 -0.8269  0.2946
   69MOL0     H 9098   2.491   3.352   8.339 -1.6238 -0.6736 -0.4311
   69MOL0     H 9099   2.351   3.439   8.300 -2.7752 -3.0571 -2.8134
   69MOL0     H 9100   2.514   3.591   8.373  0.9479  0.2773 -0.8212
   69MOL0     H 9101   2.622   3.516   8.234  0.5589 -1.8268  0.6700
   69MOL0     H 9102   2.479   3.621   8.068 -0.5603  1.9660 -0.6720
   69MOL0     H 9103   2.518   3.744   8.190 -2.1209  2.3407 -0.0568
   69MOL0     H 9104   2.301   3.770   8.110 -3.8328 -2.7957 -2.1002
   69MOL0     H 9105   2.263   3.601   8.121  1.5267  1.2882 -3.8820
   69MOL0     H 9106   2.229   3.778   8.520 -0.1885 -1.1278  1.3963
   69MOL0     H 9107   2.315   3.214   8.307  1.1206  1.9990 -0.6407
   69MOL0     H 9108   2.223   2.986   8.253  2.0437  0.2071  0.7522
   70MOL0     O 9109   2.076   2.754   1.889  0.0222 -0.2044 -0.3098
   70MOL0     C 9110   1.949   2.727   1.887 -0.7012 -0.5092  0.5270
   70MOL0     O 9111   1.882   2.635   1.962 -0.6154  0.2908  0.5126
   70MOL0     C 9112   1.939   2.538   2.042 -0.5718  0.0130 -0.1653
   70MOL0     C 9113   1.853   2.484   2.142  0.3162 -0.1779 -0.9213
   70MOL0     C 9114   1.909   2.399   2.242 -0.6264 -0.4125 -0.6496
   70MOL0     C 9115   2.044   2.368   2.252  0.0403 -0.5745  0.6019
   70MOL0     O 9116   2.128   2.308   2.350  0.3665 -0.6212  0.2296
   70MOL0     C 9117   2.076   2.323   2.485 -0.1116 -1.1350  0.3859
   70MOL0     C 9118   2.089   2.466   2.543 -0.2531 -0.4524  1.3233
   70MOL0     C 9119   2.040   2.490   2.687 -0.9887 -0.1202  0.1209
   70MOL0     C 9120   2.146   2.436   2.787  0.2847  1.3096  0.2356
   70MOL0     C 9121   2.137   2.499   2.923 -0.2575  0.2937 -1.0882
   70MOL0     C 9122   2.210   2.404   3.024 -0.5525 -0.3419  0.2799
   70MOL0     C 9123   2.163   2.429   3.164 -0.7280  0.5399  0.4110
   70MOL0     C 9124   2.072   2.304   3.190 -0.4533 -0.6144  0.3415
   70MOL0     N 9125   2.013   2.298   3.330 -0.1797  0.0089  0.1469
   70MOL0     C 9126   2.027   2.194   3.415 -0.2015 -0.0746  1.1528
   70MOL0     C 9127   1.953   2.229   3.522 -0.6398 -0.5044  0.2117
   70MOL0     C 9128   1.927   2.137   3.637  0.1115  0.0205  0.5255
   70MOL0     C 9129   2.030   2.029   3.646  0.5279 -0.1077  0.3058
   70MOL0     C 9130   2.031   1.951   3.780  0.1256  1.0303 -0.4249
   70MOL0     C 9131   2.071   1.801   3.764 -0.3558  0.5583 -0.2731
   70MOL0     O 9132   2.178   1.787   3.673 -0.3387  0.0816 -0.5996
   70MOL0     C 9133   2.226   1.663   3.643  0.0242 -0.5280 -0.3188
   70MOL0     C 9134   2.236   1.560   3.742 -1.0549  1.1976  0.1587
   70MOL0     C 9135   2.287   1.440   3.712 -1.0271  0.6964 -0.3331
   70MOL0     C 9136   2.345   1.403   3.584 -0.2709  0.1342 -0.0604
   70MOL0     C 9137   2.410   1.276   3.545 -0.0658  0.0331 -0.9207
   70MOL0     O 9138   2.448   1.193   3.653 -0.6689  0.8119  0.8735
   70MOL0     C 9139   2.524   1.085   3.633  0.1317 -0.0102  0.2449
   70MOL0     C 9140   2.634   1.076   3.535  0.3977 -0.1338 -0.4525
   70MOL0     C 9141   2.719   0.962   3.550  0.3470  0.7842 -0.1543
   70MOL0     C 9142   2.691   0.856   3.648  0.3135 -0.1999  0.0806
   70MOL0     O 9143   2.773   0.753   3.669 -0.4571 -0.8044  0.0278
   70MOL0     C 9144   2.884   0.730   3.584 -0.2290  0.1955 -0.7635
   70MOL0     C 9145   2.958   0.600   3.599  0.2345  0.2418  0.0040
   70MOL0     C 9146   3.066   0.567   3.497 -0.2116  0.4926 -1.4487
   70MOL0     C 9147   3.005   0.566   3.354 -0.6209 -0.2120  0.5252
   70MOL0     C 9148   3.121   0.518   3.262  0.2920 -0.6609 -0.4879
   70MOL0     C 9149   3.078   0.450   3.137  0.4847 -0.0827 -1.1473
   70MOL0     C 9150   2.976   0.517   3.050 -0.6812 -0.3169 -0.1789
   70MOL0     C 9151   2.979   0.421   2.926  0.0237  0.8739  1.3006
   70MOL0    Cl 9152   2.842   0.455   2.807  0.2436  0.3022 -0.5462
   70MOL0     C 9153   2.581   0.867   3.728 -0.1741  0.3588 -0.4108
   70MOL0     C 9154   2.499   0.981   3.721  0.2474  0.1187 -0.1597
   70MOL0     O 9155   2.428   1.260   3.425 -0.3211  0.3758  0.7047
   70MOL0     C 9156   2.336   1.508   3.487 -0.2535  1.1626  0.0028
   70MOL0     C 9157   2.272   1.633   3.516  0.4501 -0.1523 -0.5676
   70MOL0     N 9158   1.901   2.355   3.508  1.4178  0.3326  0.3682
   70MOL0     N 9159   1.940   2.399   3.395  0.5917  1.2598  0.9139
   70MOL0     C 9160   2.127   2.420   2.141  0.6970 -0.1347 -0.6429
   70MOL0     C 9161   2.076   2.504   2.042  0.9324 -0.5616 -0.2717
   70MOL0     C 9162   1.878   2.829   1.813  0.3876 -0.3348 -0.3943
   70MOL0     C 9163   1.770   2.904   1.867  0.1337  0.0361  0.6627
   70MOL0     C 9164   1.712   3.008   1.785 -0.4412  0.1745  1.0690
   70MOL0     C 9165   1.772   3.041   1.665 -0.0937 -1.2810  0.0567
   70MOL0     O 9166   1.716   3.147   1.596 -0.1067  0.0901 -0.1624
   70MOL0     C 9167   1.747   3.283   1.643 -0.3336 -0.8547  0.5753
   70MOL0     C 9168   1.617   3.361   1.678 -0.2210  0.5945  0.2315
   70MOL0     C 9169   1.497   3.316   1.594  0.6164 -0.1311  0.1602
   70MOL0     C 9170   1.365   3.393   1.625 -0.1549  0.0888 -0.2840
   70MOL0     C 9171   1.272   3.386   1.513  0.0977 -0.4761  0.5967
   70MOL0     C 9172   1.209   3.417   1.416 -0.3408  0.0260 -0.1817
   70MOL0     C 9173   1.886   2.976   1.616  0.6143  0.2740 -0.0230
   70MOL0     C 9174   1.929   2.871   1.697  0.3668 -1.1235  0.2435
   70MOL0     H 9175   1.750   2.517   2.127  1.0880  2.7442 -0.4136
   70MOL0     H 9176   1.842   2.367   2.321 -0.0929 -2.2301 -0.8911
   70MOL0     H 9177   2.135   2.256   2.548 -0.9485 -0.0555  2.4160
   70MOL0     H 9178   1.971   2.292   2.483  0.2011 -2.2183 -0.3127
   70MOL0     H 9179   2.033   2.541   2.486  1.1052  1.7234  2.6649
   70MOL0     H 9180   2.190   2.503   2.526  0.0852 -1.3340  1.3803
   70MOL0     H 9181   1.938   2.453   2.697 -0.9186  0.0031  1.5118
   70MOL0     H 9182   2.036   2.597   2.708  1.6606 -0.1217  0.9726
   70MOL0     H 9183   2.123   2.329   2.795  0.1235  1.4148  1.3373
   70MOL0     H 9184   2.247   2.444   2.746  1.5086 -0.6914  2.5989
   70MOL0     H 9185   2.034   2.507   2.958  0.4599  0.7338  1.1009
   70MOL0     H 9186   2.196   2.591   2.919  1.5103 -0.7855 -4.9423
   70MOL0     H 9187   2.313   2.437   3.005 -0.7116 -0.9360 -1.7886
   70MOL0     H 9188   2.206   2.301   2.989  2.4808  0.2161 -2.1060
   70MOL0     H 9189   2.231   2.419   3.250 -0.4533  1.2984  0.2951
   70MOL0     H 9190   2.120   2.529   3.176 -3.1153 -0.2277 -1.1732
   70MOL0     H 9191   2.122   2.207   3.179  0.6261 -0.2654  1.8568
   70MOL0     H 9192   1.985   2.311   3.124 -0.3520  1.3802  0.3587
   70MOL0     H 9193   2.060   2.094   3.387 -1.4158  0.4189 -2.6152
   70MOL0     H 9194   1.828   2.092   3.629  0.2267  0.0174 -1.3024
   70MOL0     H 9195   1.941   2.191   3.732  0.4247  0.9847 -0.0529
   70MOL0     H 9196   2.128   2.074   3.631  0.0746  0.4934 -1.0020
   70MOL0     H 9197   2.007   1.955   3.568  0.6351 -1.3851  1.4319
   70MOL0     H 9198   2.087   2.010   3.854 -2.3364  1.3231  1.3008
   70MOL0     H 9199   1.928   1.947   3.814  0.5517 -3.3632  1.0915
   70MOL0     H 9200   1.986   1.739   3.732  0.5392 -0.6324 -0.3928
   70MOL0     H 9201   2.087   1.765   3.866  0.0565  3.2182  0.6661
   70MOL0     H 9202   2.208   1.588   3.843 -0.0910  0.4333  0.6428
   70MOL0     H 9203   2.284   1.370   3.794  0.6012  0.4769 -0.4136
   70MOL0     H 9204   2.647   1.145   3.453  0.2157  0.1005 -0.2868
   70MOL0     H 9205   2.798   0.961   3.477 -1.9066  3.9848 -2.9689
   70MOL0     H 9206   2.961   0.807   3.594  0.1717  0.1359 -2.9406
   70MOL0     H 9207   2.841   0.737   3.484 -1.5749 -1.1140 -0.3301
   70MOL0     H 9208   2.883   0.521   3.608  2.0194 -1.6469 -1.0170
   70MOL0     H 9209   3.005   0.608   3.698 -0.3236  1.0814  0.2190
   70MOL0     H 9210   3.102   0.468   3.526 -0.7659  1.2580  2.3236
   70MOL0     H 9211   3.153   0.632   3.501 -0.3695  0.7991 -2.6054
   70MOL0     H 9212   2.919   0.498   3.353  0.7143 -1.9847 -1.4892
   70MOL0     H 9213   2.983   0.669   3.325  1.5881  0.4689  1.1151
   70MOL0     H 9214   3.181   0.438   3.307 -0.8422 -1.5197 -0.4705
   70MOL0     H 9215   3.182   0.603   3.230 -0.4253  0.4404  0.9530
   70MOL0     H 9216   3.053   0.348   3.168 -7.4998  1.2876 -1.1491
   70MOL0     H 9217   3.175   0.432   3.090  0.5799 -1.2779 -0.5323
   70MOL0     H 9218   2.881   0.492   3.098 -0.4834 -2.2147 -0.6749
   70MOL0     H 9219   2.983   0.624   3.030 -1.2238 -0.5738 -1.9837
   70MOL0     H 9220   2.964   0.322   2.970 -2.2331  0.2536 -0.6567
   70MOL0     H 9221   3.076   0.434   2.876 -1.7170 -0.3494 -2.8062
   70MOL0     H 9222   2.572   0.811   3.821 -1.3664 -0.1622 -0.8245
   70MOL0     H 9223   2.412   0.981   3.785 -0.8418 -4.2196 -1.2534
   70MOL0     H 9224   2.371   1.485   3.387  0.0066  0.8850  0.1578
   70MOL0     H 9225   2.256   1.718   3.449 -1.2696  0.5081  0.5833
   70MOL0     H 9226   2.233   2.393   2.145  0.7528  0.2337  1.6558
   70MOL0     H 9227   2.134   2.551   1.963  0.6139  0.5173  0.1165
   70MOL0     H 9228   1.711   2.883   1.956 -2.3222 -0.6325 -1.0230
   70MOL0     H 9229   1.628   3.069   1.819  0.1586  1.3399  0.5232
   70MOL0     H 9230   1.787   3.338   1.558  1.2919 -1.6668  0.7727
   70MOL0     H 9231   1.820   3.305   1.721  1.3100  2.2128 -1.6184
   70MOL0     H 9232   1.594   3.341   1.783  3.7371  0.0502  1.1708
   70MOL0     H 9233   1.641   3.467   1.667 -2.9441  1.5575  2.5541
   70MOL0     H 9234   1.478   3.212   1.623 -0.9972  0.5099  1.5972
   70MOL0     H 9235   1.518   3.313   1.487  0.8108 -1.3998  0.2184
   70MOL0     H 9236   1.314   3.347   1.710  1.6645  1.2888  1.5462
   70MOL0     H 9237   1.385   3.496   1.655 -0.3740  1.1801 -3.5132
   70MOL0     H 9238   1.150   3.422   1.326 -1.4313  1.3614  0.5622
   70MOL0     H 9239   1.932   3.009   1.523 -0.2421 -0.7258 -0.8248
   70MOL0     H 9240   2.027   2.829   1.673 -0.0107 -2.1039  0.3937
   71MOL0     O 9241   4.038   3.329   0.133  0.0520 -0.8184  0.5498
   71MOL0     C 9242   4.105   3.299   0.033 -0.2281  0.2946 -0.3355
   71MOL0     O 9243   4.232   3.352  -0.001  0.1791 -0.8376 -1.6117
   71MOL0     C 9244   4.284   3.443   0.091 -0.4799  0.4246 -0.3591
   71MOL0     C 9245   4.250   3.584   0.100  0.2316  0.6158 -0.4348
   71MOL0     C 9246   4.295   3.662   0.201 -0.1478 -0.3753 -0.5650
   71MOL0     C 9247   4.382   3.607   0.297 -0.8410  0.3416 -0.1722
   71MOL0     O 9248   4.440   3.670   0.405  0.2404 -0.4861  0.7528
   71MOL0     C 9249   4.401   3.805   0.426 -0.0253  0.3734  0.1734
   71MOL0     C 9250   4.468   3.854   0.552  0.0095  0.0239  0.0649
   71MOL0     C 9251   4.442   3.767   0.684  0.2546  0.4138 -0.3130
   71MOL0     C 9252   4.295   3.754   0.720  0.5408  0.2137  0.1283
   71MOL0     C 9253   4.232   3.883   0.767 -0.8274 -0.0378 -0.4708
   71MOL0     C 9254   4.138   3.880   0.890  0.4542 -0.3649 -0.4388
   71MOL0     C 9255   4.181   3.783   1.012 -0.4670 -0.6035 -0.2874
   71MOL0     C 9256   4.129   3.838   1.146 -0.5353 -0.3984  0.5914
   71MOL0     N 9257   3.994   3.790   1.168 -0.2731 -0.4413 -0.1507
   71MOL0     C 9258   3.979   3.665   1.222 -0.7281  0.3345 -0.2028
   71MOL0     C 9259   3.850   3.663   1.265  0.1513  0.3400 -0.4549
   71MOL0     C 9260   3.776   3.544   1.322  0.1293  0.0394 -0.3878
   71MOL0     C 9261   3.657   3.504   1.240  0.5727 -0.4859  0.3368
   71MOL0     C 9262   3.533   3.591   1.261  0.3689  1.6160  0.1898
   71MOL0     C 9263   3.405   3.504   1.239 -0.2919 -0.2975 -0.0196
   71MOL0     O 9264   3.299   3.593   1.275  0.1440  0.0301 -0.1594
   71MOL0     C 9265   3.169   3.546   1.273  0.0313 -0.0601 -0.8904
   71MOL0     C 9266   3.136   3.427   1.204  0.5079  0.5074  0.3100
   71MOL0     C 9267   3.001   3.383   1.189  0.6149 -0.6228 -0.7806
   71MOL0     C 9268   2.895   3.453   1.258  0.3242  0.5737 -0.2684
   71MOL0     C 9269   2.763   3.396   1.257  0.9640 -0.1324 -0.3428
   71MOL0     O 9270   2.729   3.279   1.198  0.1817  0.0982 -0.1294
   71MOL0     C 9271   2.593   3.255   1.162  0.1168  0.0882  0.8565
   71MOL0     C 9272   2.503   3.354   1.108 -0.4446  0.6323  0.5500
   71MOL0     C 9273   2.371   3.314   1.065  0.1643 -0.8292  0.4856
   71MOL0     C 9274   2.333   3.183   1.068 -0.8572 -1.2304  0.0897
   71MOL0     O 9275   2.202   3.147   1.046  0.3645  0.2349  0.3443
   71MOL0     C 9276   2.169   3.170   0.912 -0.3621  0.6558 -0.3146
   71MOL0     C 9277   2.035   3.102   0.868 -0.2515  0.1955  0.6958
   71MOL0     C 9278   2.005   3.153   0.729 -0.6058  0.4843 -0.5235
   71MOL0     C 9279   1.865   3.126   0.691 -0.3074 -1.2980 -0.1566
   71MOL0     C 9280   1.834   3.151   0.540  1.0678  0.5244  0.6392
   71MOL0     C 9281   1.768   3.285   0.507 -0.3422 -0.1512  0.7516
   71MOL0     C 9282   1.750   3.311   0.353  0.3393  0.1673  0.2408
   71MOL0     C 9283   1.716   3.451   0.314 -0.3287  0.3858  0.2032
   71MOL0    Cl 9284   1.857   3.554   0.348  0.1808 -0.2001  0.5222
   71MOL0     C 9285   2.419   3.091   1.132 -0.2460 -0.0647  0.0510
   71MOL0     C 9286   2.541   3.125   1.177  0.5621  0.5847  0.0672
   71MOL0     O 9287   2.679   3.466   1.324 -0.5744  0.7845 -0.4047
   71MOL0     C 9288   2.933   3.575   1.332  0.9330  0.2508  0.0125
   71MOL0     C 9289   3.065   3.622   1.326 -0.0077  0.4631 -0.2469
   71MOL0     N 9290   3.791   3.787   1.242 -0.0121  0.1944 -0.2470
   71MOL0     N 9291   3.873   3.860   1.177 -0.6748 -0.1314 -0.1201
   71MOL0     C 9292   4.412   3.468   0.287 -0.6686  0.5721  0.1813
   71MOL0     C 9293   4.357   3.390   0.183  0.0207 -0.8908 -0.6872
   71MOL0     C 9294   4.051   3.184  -0.043  0.8365 -0.3642  0.1572
   71MOL0     C 9295   4.062   3.179  -0.184 -0.6830 -0.4416  0.7917
   71MOL0     C 9296   4.005   3.077  -0.260  0.0333 -0.4399  0.1225
   71MOL0     C 9297   3.924   2.982  -0.205  0.7504  0.2020 -0.4820
   71MOL0     O 9298   3.861   2.893  -0.292  0.4160  0.4294  0.2235
   71MOL0     C 9299   3.824   2.761  -0.241  0.6882 -0.6325 -1.0313
   71MOL0     C 9300   3.691   2.761  -0.170 -0.3317  0.0736  0.5412
   71MOL0     C 9301   3.657   2.615  -0.103 -0.5196 -0.6929 -0.1253
   71MOL0     C 9302   3.605   2.501  -0.184 -0.1929  0.1536  0.0411
   71MOL0     C 9303   3.675   2.476  -0.313  0.5832  0.7371 -0.3226
   71MOL0     C 9304   3.737   2.453  -0.413  0.6110 -0.1087 -0.2712
   71MOL0     C 9305   3.913   2.984  -0.064 -0.8656  0.8289 -0.8610
   71MOL0     C 9306   3.975   3.084   0.016  0.5810  0.1311 -0.1299
   71MOL0     H 9307   4.185   3.624   0.022 -0.2942  4.4275  1.7103
   71MOL0     H 9308   4.264   3.766   0.204  1.0758  0.0151 -0.9258
   71MOL0     H 9309   4.294   3.822   0.439 -0.4451 -1.8912  0.1914
   71MOL0     H 9310   4.431   3.869   0.343 -2.8392 -0.5363 -1.6883
   71MOL0     H 9311   4.430   3.956   0.566  0.1820  0.4642 -2.2389
   71MOL0     H 9312   4.573   3.855   0.521 -0.0536  3.5898 -0.4535
   71MOL0     H 9313   4.491   3.803   0.775  0.3869  0.1440 -0.2787
   71MOL0     H 9314   4.484   3.669   0.662  1.2455  0.6967  0.2613
   71MOL0     H 9315   4.235   3.713   0.638  1.5267 -1.4669  0.2041
   71MOL0     H 9316   4.304   3.678   0.799 -0.5477 -1.5991 -1.4074
   71MOL0     H 9317   4.183   3.948   0.693 -1.3843  0.6363  0.4620
   71MOL0     H 9318   4.311   3.949   0.804 -1.3612 -0.1511  0.9389
   71MOL0     H 9319   4.035   3.861   0.857  0.2574 -0.8219  0.4255
   71MOL0     H 9320   4.141   3.986   0.918 -0.0212 -0.2279 -0.8745
   71MOL0     H 9321   4.149   3.680   0.995  2.4830 -1.5553 -0.7443
   71MOL0     H 9322   4.291   3.788   1.017 -0.5062  0.8245 -0.4768
   71MOL0     H 9323   4.127   3.947   1.134  0.6125 -0.4696 -0.3752
   71MOL0     H 9324   4.198   3.801   1.222  0.4759 -1.9614 -1.0236
   71MOL0     H 9325   4.052   3.585   1.224 -0.3381  0.6389  2.7475
   71MOL0     H 9326   3.743   3.555   1.426 -2.0129  1.5108 -1.1529
   71MOL0     H 9327   3.855   3.468   1.319  1.6853  1.6040 -3.0805
   71MOL0     H 9328   3.635   3.401   1.268 -1.5213 -0.0897  0.2615
   71MOL0     H 9329   3.686   3.499   1.135 -1.1381 -0.8429 -0.1478
   71MOL0     H 9330   3.527   3.643   1.357 -3.2396 -0.5706  1.3499
   71MOL0     H 9331   3.527   3.665   1.180  0.3549  2.7610  1.2088
   71MOL0     H 9332   3.420   3.416   1.301  0.2303 -2.1796 -2.6217
   71MOL0     H 9333   3.399   3.477   1.133  1.2644  0.6311 -0.3795
   71MOL0     H 9334   3.205   3.363   1.150  3.2243  2.2632  1.4780
   71MOL0     H 9335   2.979   3.297   1.127  0.6166 -1.2159  0.0318
   71MOL0     H 9336   2.533   3.455   1.084  1.0539 -0.4632 -2.7965
   71MOL0     H 9337   2.314   3.384   1.005  1.4052 -0.5246 -0.3843
   71MOL0     H 9338   2.256   3.144   0.852  1.8608  2.0545  2.1294
   71MOL0     H 9339   2.151   3.276   0.897 -3.1667  0.5352  1.3651
   71MOL0     H 9340   1.947   3.125   0.928 -1.2100 -0.4627 -0.4140
   71MOL0     H 9341   2.043   2.993   0.860  1.3964  0.4223 -2.2285
   71MOL0     H 9342   2.074   3.107   0.657 -0.1653 -2.7281  1.7268
   71MOL0     H 9343   2.030   3.260   0.725  3.2054 -0.2817 -1.7355
   71MOL0     H 9344   1.847   3.021   0.714  0.2966 -0.4886  5.2399
   71MOL0     H 9345   1.797   3.181   0.757  0.1210 -0.4292 -0.4339
   71MOL0     H 9346   1.760   3.080   0.503 -1.2668  1.4544  3.1380
   71MOL0     H 9347   1.924   3.133   0.480  0.5912 -1.4381  0.4468
   71MOL0     H 9348   1.838   3.358   0.548  1.3167 -1.6915  0.7686
   71MOL0     H 9349   1.671   3.295   0.557 -0.2409 -0.0763  0.9338
   71MOL0     H 9350   1.847   3.291   0.306  1.8944  3.6438  1.5659
   71MOL0     H 9351   1.676   3.240   0.316  1.2959 -0.9428  0.4317
   71MOL0     H 9352   1.629   3.492   0.366 -1.2269  0.0460 -0.9949
   71MOL0     H 9353   1.688   3.431   0.211  0.2769 -1.3712  0.3474
   71MOL0     H 9354   2.368   2.997   1.148  2.2365 -1.6182 -0.6257
   71MOL0     H 9355   2.602   3.055   1.233  1.1789 -0.1685 -1.5026
   71MOL0     H 9356   2.859   3.634   1.385 -1.5498 -2.7186  0.1341
   71MOL0     H 9357   3.072   3.724   1.362  1.3177  0.0447  0.7535
   71MOL0     H 9358   4.475   3.424   0.363 -0.8293  2.2455  1.3142
   71MOL0     H 9359   4.370   3.283   0.190 -0.1916 -0.8273  1.8006
   71MOL0     H 9360   4.133   3.245  -0.232  1.1371 -2.4237  0.6346
   71MOL0     H 9361   4.017   3.091  -0.367  0.7670 -1.9221 -0.0041
   71MOL0     H 9362   3.902   2.734  -0.170 -1.0603 -1.3882  0.7089
   71MOL0     H 9363   3.828   2.692  -0.326  1.0094 -2.7588  0.6287
   71MOL0     H 9364   3.692   2.833  -0.088 -1.0984 -0.3118  0.9017
   71MOL0     H 9365   3.603   2.790  -0.229  1.2312  1.1051 -1.3821
   71MOL0     H 9366   3.591   2.648  -0.022  2.4721  2.5133  1.2882
   71MOL0     H 9367   3.748   2.563  -0.072 -0.4126 -0.1630  0.4830
   71MOL0     H 9368   3.609   2.410  -0.124  6.5642 -2.3141 -3.1691
   71MOL0     H 9369   3.500   2.520  -0.208  0.3469  0.5326 -2.3687
   71MOL0     H 9370   3.773   2.416  -0.506 -2.0171 -0.4295 -1.2486
   71MOL0     H 9371   3.854   2.911  -0.008  0.1878 -1.1861 -2.2658
   71MOL0     H 9372   3.962   3.084   0.124 -0.5985 -1.7456 -0.2095
   72MOL0     O 9373   0.367   5.274  10.782  0.3770 -0.1575 -0.3118
   72MOL0     C 9374   0.480   5.304  10.753 -0.9563  0.2053  0.6548
   72MOL0     O 9375   0.597   5.247  10.808 -0.2257  0.8217  0.1902
   72MOL0     C 9376   0.590   5.117  10.850 -0.0245  0.3942 -0.6783
   72MOL0     C 9377   0.511   5.014  10.791  0.7954 -0.0797  0.4948
   72MOL0     C 9378   0.504   4.886  10.838  0.7488 -0.2419 -0.0553
   72MOL0     C 9379   0.580   4.850  10.956 -0.4065 -0.1383  0.1746
   72MOL0     O 9380   0.577   4.724  11.009  0.5854 -0.0837  0.1518
   72MOL0     C 9381   0.512   4.618  10.943 -0.2458 -0.3161  0.8524
   72MOL0     C 9382   0.519   4.499  11.032  0.0754  0.5239 -0.0730
   72MOL0     C 9383   0.658   4.450  11.046 -0.9584  0.2822  0.1150
   72MOL0     C 9384   0.661   4.303  11.070  0.1128  0.4781  0.5339
   72MOL0     C 9385   0.800   4.256  11.123 -0.8910 -0.0321 -0.3764
   72MOL0     C 9386   0.817   4.102  11.094 -0.4832  0.2581  0.3845
   72MOL0     C 9387   0.947   4.043  11.152 -0.3100 -0.3014  1.4426
   72MOL0     C 9388   0.980   3.921  11.081  0.3249  0.7171  0.8960
   72MOL0     N 9389   1.106   3.856  11.106  0.4207  0.4401 -0.3401
   72MOL0     C 9390   1.219   3.841  11.022 -0.1963 -0.1899  0.2281
   72MOL0     C 9391   1.323   3.790  11.104 -0.4090  0.1214  0.0006
   72MOL0     C 9392   1.468   3.766  11.064  0.8112 -0.5012  0.0572
   72MOL0     C 9393   1.564   3.786  11.185  0.7275 -0.9340 -0.0179
   72MOL0     C 9394   1.546   3.645  11.269 -0.7396 -0.4507 -0.2091
   72MOL0     C 9395   1.676   3.626  11.345  0.3457  0.2446 -0.3613
   72MOL0     O 9396   1.680   3.501  11.405 -0.5160  0.1587 -0.5240
   72MOL0     C 9397   1.687   3.388  11.327  0.1815 -0.5078 -0.3736
   72MOL0     C 9398   1.567   3.311  11.323 -0.9628 -0.1042 -0.5170
   72MOL0     C 9399   1.552   3.212  11.229 -1.0705  0.0856  0.7726
   72MOL0     C 9400   1.652   3.188  11.133  1.2541  0.1041  0.6990
   72MOL0     C 9401   1.642   3.083  11.026 -0.3329  0.0692  0.4439
   72MOL0     O 9402   1.530   3.005  11.031  0.0605 -0.7947 -0.6379
   72MOL0     C 9403   1.536   2.884  10.967 -0.4962  0.1616 -0.0343
   72MOL0     C 9404   1.436   2.873  10.868 -1.0266  0.1430 -0.2084
   72MOL0     C 9405   1.428   2.759  10.790 -0.5388 -0.3459  0.9506
   72MOL0     C 9406   1.525   2.651  10.817 -0.7612 -0.5842  0.2314
   72MOL0     O 9407   1.521   2.542  10.735  0.8554 -0.0492 -0.1028
   72MOL0     C 9408   1.645   2.498  10.680 -0.7967  0.3146  0.0066
   72MOL0     C 9409   1.717   2.603  10.584  0.2763 -0.1654  0.4173
   72MOL0     C 9410   1.621   2.656  10.482  0.1185 -0.9043 -0.0887
   72MOL0     C 9411   1.687   2.783  10.421 -0.3781  0.7922  0.1393
   72MOL0     C 9412   1.810   2.759  10.329 -0.1871 -0.0408 -0.0394
   72MOL0     C 9413   1.880   2.886  10.277 -0.0704 -0.3518  0.0429
   72MOL0     C 9414   1.789   3.004  10.244 -1.2535 -0.2692 -0.5854
   72MOL0     C 9415   1.682   2.990  10.140 -0.5872  0.0374  0.3923
   72MOL0    Cl 9416   1.579   3.138  10.138 -0.5689  0.5009 -0.1439
   72MOL0     C 9417   1.605   2.661  10.928  0.0324 -0.2446 -0.0586
   72MOL0     C 9418   1.604   2.768  11.016 -0.9054 -0.9638  0.1675
   72MOL0     O 9419   1.736   3.055  10.958 -0.0850 -0.9876  0.7727
   72MOL0     C 9420   1.773   3.261  11.139 -0.6172  0.1138  0.3812
   72MOL0     C 9421   1.784   3.365  11.228  0.2312  0.1452 -0.5268
   72MOL0     N 9422   1.269   3.779  11.232 -0.5709 -0.1147  0.3916
   72MOL0     N 9423   1.140   3.809  11.228 -1.1113  0.4503 -0.1382
   72MOL0     C 9424   0.655   4.954  11.016  0.1565 -0.4958  0.6027
   72MOL0     C 9425   0.656   5.088  10.969 -0.9394  1.6666  0.8563
   72MOL0     C 9426   0.495   5.392  10.636 -0.3148  0.0001  0.6425
   72MOL0     C 9427   0.616   5.380  10.561 -0.2840  0.3505  0.6008
   72MOL0     C 9428   0.632   5.451  10.444  0.6872  1.7342  0.6524
   72MOL0     C 9429   0.534   5.546  10.408  0.0795 -0.1741 -0.6379
   72MOL0     O 9430   0.515   5.617  10.296  0.4404 -0.5872  0.8940
   72MOL0     C 9431   0.603   5.581  10.189 -0.2446 -0.9656 -0.2186
   72MOL0     C 9432   0.594   5.685  10.085 -0.2390  0.2250  0.2542
   72MOL0     C 9433   0.684   5.793  10.120 -0.3290  0.3413  0.2702
   72MOL0     C 9434   0.678   5.900  10.011 -0.3280  0.8116  0.9988
   72MOL0     C 9435   0.711   6.031  10.068 -0.1963 -0.5570  0.1409
   72MOL0     C 9436   0.750   6.138  10.096  0.5475 -0.7838 -0.0930
   72MOL0     C 9437   0.423   5.567  10.487 -0.5942 -0.9440 -2.1480
   72MOL0     C 9438   0.398   5.481  10.604 -0.5526 -0.3038  0.5233
   72MOL0     H 9439   0.449   5.031  10.703  0.3751 -1.1352  0.5733
   72MOL0     H 9440   0.442   4.822  10.776  2.1461 -0.7042 -1.0406
   72MOL0     H 9441   0.562   4.595  10.849 -0.6033  2.3217 -0.0860
   72MOL0     H 9442   0.413   4.644  10.902  1.5250 -0.1908 -3.9160
   72MOL0     H 9443   0.452   4.428  10.983  0.1621  1.1087 -1.0795
   72MOL0     H 9444   0.468   4.516  11.127 -1.6403 -1.1897 -0.6294
   72MOL0     H 9445   0.707   4.491  11.135  0.0840 -2.4496  0.9098
   72MOL0     H 9446   0.714   4.481  10.958 -1.3899 -2.4268 -1.1989
   72MOL0     H 9447   0.581   4.281  11.142 -0.9327  0.5086 -0.5810
   72MOL0     H 9448   0.650   4.256  10.972 -2.0302 -1.1454  1.4591
   72MOL0     H 9449   0.803   4.277  11.230 -6.0994  3.5981 -0.5593
   72MOL0     H 9450   0.885   4.304  11.074 -0.4990 -0.9995 -0.6728
   72MOL0     H 9451   0.813   4.091  10.986 -1.9750 -3.9613  0.6979
   72MOL0     H 9452   0.732   4.046  11.133  0.9066 -3.6173 -1.6469
   72MOL0     H 9453   1.024   4.119  11.164 -1.4466  0.7742  2.0940
   72MOL0     H 9454   0.932   4.006  11.253  0.8745  2.5796  2.7798
   72MOL0     H 9455   0.958   3.932  10.974  0.4684 -0.8331  0.6825
   72MOL0     H 9456   0.902   3.851  11.112 -1.0332 -0.8142 -4.8153
   72MOL0     H 9457   1.237   3.855  10.916  1.1749 -3.4659 -0.1120
   72MOL0     H 9458   1.492   3.846  10.993  2.2670 -0.0575  0.9968
   72MOL0     H 9459   1.483   3.669  11.016  2.0057 -0.8550  1.0756
   72MOL0     H 9460   1.541   3.878  11.240  1.0510 -1.7948  1.6153
   72MOL0     H 9461   1.671   3.786  11.161  0.8915 -3.0755  0.5453
   72MOL0     H 9462   1.460   3.648  11.336  0.2397  1.4446  1.0569
   72MOL0     H 9463   1.530   3.556  11.207  0.6200 -0.8196 -0.0732
   72MOL0     H 9464   1.685   3.700  11.425 -1.2163 -0.0504  0.1329
   72MOL0     H 9465   1.764   3.649  11.285  0.3157  6.3163  1.2769
   72MOL0     H 9466   1.485   3.337  11.390 -0.8341  0.1237 -0.4457
   72MOL0     H 9467   1.458   3.157  11.227 -0.0509 -1.7201 -0.9555
   72MOL0     H 9468   1.368   2.955  10.848  0.1539  1.2025  0.0306
   72MOL0     H 9469   1.361   2.752  10.705 -1.3684  2.0200  1.3086
   72MOL0     H 9470   1.624   2.404  10.628  2.3319  0.7279 -2.3792
   72MOL0     H 9471   1.714   2.477  10.763  1.6058  2.3303 -1.3525
   72MOL0     H 9472   1.799   2.550  10.534  1.0929  0.6336  0.8734
   72MOL0     H 9473   1.775   2.669  10.650  2.0267 -0.4426 -0.7758
   72MOL0     H 9474   1.529   2.686  10.533 -0.1519  0.4855 -1.3392
   72MOL0     H 9475   1.592   2.574  10.416 -4.1139 -2.6767  3.4396
   72MOL0     H 9476   1.603   2.817  10.360  0.3459  1.7001 -0.3643
   72MOL0     H 9477   1.716   2.849  10.504 -1.6628  0.3887  0.9569
   72MOL0     H 9478   1.780   2.697  10.243 -4.0165  5.5005 -3.3521
   72MOL0     H 9479   1.887   2.700  10.379  1.6095 -0.1198 -2.7104
   72MOL0     H 9480   1.922   2.846  10.185 -4.0497 -2.3690 -1.1163
   72MOL0     H 9481   1.956   2.920  10.348  1.9306 -2.0414 -1.1783
   72MOL0     H 9482   1.741   3.039  10.335 -1.1661 -0.0790 -0.6125
   72MOL0     H 9483   1.842   3.093  10.207 -1.9214  0.1670 -0.5219
   72MOL0     H 9484   1.627   2.896  10.148  0.0309 -0.3790 -0.1180
   72MOL0     H 9485   1.730   2.983  10.042 -2.0785 -0.0264 -0.3532
   72MOL0     H 9486   1.668   2.575  10.953  0.3999 -0.4028 -1.4651
   72MOL0     H 9487   1.682   2.780  11.090 -0.1576  0.8311 -0.8554
   72MOL0     H 9488   1.853   3.246  11.068  0.2268  3.2936  0.5147
   72MOL0     H 9489   1.875   3.424  11.230  1.4546 -1.6550  1.3309
   72MOL0     H 9490   0.704   4.929  11.109  0.7294  1.9580  1.0157
   72MOL0     H 9491   0.710   5.166  11.021  0.4495  0.7059  0.8938
   72MOL0     H 9492   0.701   5.316  10.580 -1.4380 -1.1891  0.7433
   72MOL0     H 9493   0.704   5.412  10.373 -1.2546  2.1308 -1.6651
   72MOL0     H 9494   0.566   5.487  10.146 -0.2865 -0.0527 -2.2754
   72MOL0     H 9495   0.710   5.574  10.210  0.0670  0.5014 -1.1442
   72MOL0     H 9496   0.624   5.646   9.987 -1.1093 -3.5609  1.3048
   72MOL0     H 9497   0.490   5.717  10.076 -0.3960 -0.0124  1.1310
   72MOL0     H 9498   0.790   5.765  10.123 -0.3381  0.0471 -1.1794
   72MOL0     H 9499   0.659   5.828  10.220 -0.5962 -0.2723  0.4259
   72MOL0     H 9500   0.757   5.873   9.939 -0.5472  3.6728 -0.4405
   72MOL0     H 9501   0.586   5.901   9.953 -0.0323 -0.7735  0.4457
   72MOL0     H 9502   0.804   6.230  10.110 -1.1319  0.2398  0.0193
   72MOL0     H 9503   0.353   5.645  10.458 -1.6708 -1.6484 -1.5176
   72MOL0     H 9504   0.308   5.492  10.663 -0.2303 -3.2115  1.7131
   73MOL0     O 9505   4.707   7.211   5.434  0.8945 -0.1769 -0.6878
   73MOL0     C 9506   4.795   7.191   5.508 -0.0508  0.0712 -0.5757
   73MOL0     O 9507   4.920   7.163   5.471  0.0940  0.1838 -0.6249
   73MOL0     C 9508   4.940   7.140   5.334 -0.5708 -0.6513 -0.0656
   73MOL0     C 9509   4.939   7.248   5.243 -0.0764  0.6525 -0.8450
   73MOL0     C 9510   4.948   7.209   5.103 -0.8509 -0.5246 -0.8379
   73MOL0     C 9511   4.963   7.076   5.057  0.0978 -0.3275  0.6625
   73MOL0     O 9512   4.961   7.066   4.921 -0.7678  0.3657 -0.1028
   73MOL0     C 9513   5.015   6.952   4.851 -0.1648  0.6318  0.0102
   73MOL0     C 9514   5.056   6.999   4.707 -0.1788  0.4197 -0.6281
   73MOL0     C 9515   4.936   7.027   4.624 -0.2078  0.1084 -0.4407
   73MOL0     C 9516   4.954   7.124   4.508 -0.1014  0.6422  0.2495
   73MOL0     C 9517   5.060   7.067   4.408 -1.0250 -0.8079 -0.3513
   73MOL0     C 9518   5.140   7.174   4.326  0.2988  0.7806 -0.3748
   73MOL0     C 9519   5.238   7.112   4.223 -0.5870  0.2358 -0.2285
   73MOL0     C 9520   5.290   7.222   4.132  0.2762 -0.5344  0.6545
   73MOL0     N 9521   5.428   7.195   4.090  0.9087 -0.1316 -0.5282
   73MOL0     C 9522   5.473   7.099   4.004 -0.1095 -0.0940  1.1326
   73MOL0     C 9523   5.604   7.133   3.987  0.1822  0.1033 -0.4602
   73MOL0     C 9524   5.697   7.076   3.884 -0.1460 -1.0282 -0.2620
   73MOL0     C 9525   5.673   6.927   3.852  0.0740 -0.8425  0.4119
   73MOL0     C 9526   5.736   6.894   3.719 -0.1460  0.1285 -0.5959
   73MOL0     C 9527   5.745   6.746   3.676 -0.4611  0.7350  0.4275
   73MOL0     O 9528   5.611   6.688   3.691 -0.2589  0.2822 -0.4982
   73MOL0     C 9529   5.592   6.550   3.672  0.2198 -0.3613 -0.4996
   73MOL0     C 9530   5.677   6.470   3.605 -0.5012  0.5762 -0.2062
   73MOL0     C 9531   5.661   6.330   3.577  0.0034 -0.3626 -0.8041
   73MOL0     C 9532   5.554   6.275   3.638 -1.5316  0.2268  1.1877
   73MOL0     C 9533   5.539   6.128   3.612 -1.4942  0.6258 -0.3058
   73MOL0     O 9534   5.635   6.052   3.547  0.7879  0.0160  0.2462
   73MOL0     C 9535   5.618   5.920   3.549  1.0403  0.2731 -0.8803
   73MOL0     C 9536   5.561   5.850   3.447 -0.1941  0.3699  0.5088
   73MOL0     C 9537   5.555   5.713   3.447 -1.1941  0.0066  0.0109
   73MOL0     C 9538   5.593   5.642   3.557  0.5175  0.8013  0.1561
   73MOL0     O 9539   5.561   5.511   3.565  0.2405 -0.0128 -0.1015
   73MOL0     C 9540   5.632   5.418   3.651 -0.4315 -0.4307  0.3483
   73MOL0     C 9541   5.630   5.277   3.593 -0.2770 -0.3911  0.4467
   73MOL0     C 9542   5.499   5.207   3.587 -0.5392  0.4400  0.3002
   73MOL0     C 9543   5.485   5.094   3.484  0.1299 -1.3031 -0.1092
   73MOL0     C 9544   5.565   4.968   3.516 -0.8632  0.4899  0.2020
   73MOL0     C 9545   5.498   4.832   3.502 -0.7072 -0.3590  0.3757
   73MOL0     C 9546   5.456   4.815   3.361  0.5628 -0.0300  0.2758
   73MOL0     C 9547   5.477   4.673   3.313 -0.6310  0.4822  0.0303
   73MOL0    Cl 9548   5.356   4.578   3.378  0.4640 -0.3734  0.1917
   73MOL0     C 9549   5.654   5.708   3.663  1.0008 -0.5221 -1.0539
   73MOL0     C 9550   5.669   5.845   3.660  0.8598  0.3059  0.3155
   73MOL0     O 9551   5.433   6.087   3.665 -0.3289  0.3859 -0.3353
   73MOL0     C 9552   5.467   6.355   3.711 -0.7687  0.1349  0.6472
   73MOL0     C 9553   5.483   6.490   3.727  0.6342  0.4388 -0.2683
   73MOL0     N 9554   5.629   7.243   4.071  0.9963 -0.2101 -0.4613
   73MOL0     N 9555   5.535   7.268   4.133  0.9901  0.5354  0.0718
   73MOL0     C 9556   4.980   6.977   5.148  0.4564  1.1064  0.3944
   73MOL0     C 9557   4.958   7.011   5.287  0.0598 -0.0643 -0.8429
   73MOL0     C 9558   4.778   7.226   5.646  0.7176 -0.8962  0.3496
   73MOL0     C 9559   4.651   7.239   5.701 -0.1096  0.2197  0.2881
   73MOL0     C 9560   4.618   7.251   5.833  0.5303 -0.1878 -0.3161
   73MOL0     C 9561   4.728   7.253   5.924 -0.6863 -0.4003  0.2377
   73MOL0     O 9562   4.723   7.250   6.061 -0.1214  0.3476  0.0112
   73MOL0     C 9563   4.613   7.209   6.136 -0.3368 -0.2227 -0.3762
   73MOL0     C 9564   4.656   7.187   6.277  0.1987  0.5078  0.1094
   73MOL0     C 9565   4.553   7.118   6.358  0.7289 -0.2215  0.5075
   73MOL0     C 9566   4.425   7.201   6.380  0.6333  0.5964 -0.5637
   73MOL0     C 9567   4.317   7.120   6.435  0.1227  0.8154 -1.0044
   73MOL0     C 9568   4.220   7.071   6.489 -0.7201 -0.7430 -0.8795
   73MOL0     C 9569   4.860   7.258   5.879 -0.3186  0.2508 -0.0020
   73MOL0     C 9570   4.890   7.243   5.735  0.2423 -0.5736  0.2452
   73MOL0     H 9571   4.910   7.342   5.287 -1.3720  0.1392 -0.5721
   73MOL0     H 9572   4.923   7.285   5.029 -1.7003  0.3385  0.3017
   73MOL0     H 9573   4.936   6.877   4.848  0.9930 -0.8238  2.7194
   73MOL0     H 9574   5.107   6.915   4.898 -1.3808 -0.8918  1.2627
   73MOL0     H 9575   5.123   6.927   4.658  1.4567 -0.6084  2.7692
   73MOL0     H 9576   5.119   7.089   4.706  1.0726 -0.4021  0.2762
   73MOL0     H 9577   4.858   7.073   4.686 -1.3274 -2.0326 -0.1569
   73MOL0     H 9578   4.909   6.928   4.588 -2.8859  0.3139  0.7349
   73MOL0     H 9579   4.863   7.128   4.447  0.2096 -2.8021 -0.6185
   73MOL0     H 9580   4.990   7.220   4.548 -2.0109  1.8114 -0.6723
   73MOL0     H 9581   5.008   6.994   4.346 -2.6835  0.8533 -1.0075
   73MOL0     H 9582   5.131   7.018   4.475  1.5949  2.5493 -0.4408
   73MOL0     H 9583   5.186   7.248   4.392  0.2381  1.0203 -0.5980
   73MOL0     H 9584   5.062   7.216   4.262 -0.6144 -1.7051 -1.0003
   73MOL0     H 9585   5.313   7.046   4.265  0.7819  3.7463  3.4721
   73MOL0     H 9586   5.178   7.043   4.163 -0.1689  0.2770 -0.7047
   73MOL0     H 9587   5.286   7.319   4.183 -1.2567 -0.3683  0.2575
   73MOL0     H 9588   5.229   7.241   4.043  0.5691  2.7917  1.0279
   73MOL0     H 9589   5.418   7.036   3.935 -1.1140  2.6405 -0.7520
   73MOL0     H 9590   5.798   7.097   3.918 -0.5322  0.8974 -0.2194
   73MOL0     H 9591   5.666   7.130   3.794  1.3661  1.1854  0.4694
   73MOL0     H 9592   5.565   6.909   3.844 -0.4606  1.4620  1.6135
   73MOL0     H 9593   5.679   6.856   3.935 -0.9871  1.9130  3.0446
   73MOL0     H 9594   5.680   6.940   3.637 -0.4237  0.6484 -0.1176
   73MOL0     H 9595   5.839   6.932   3.725 -0.5984  1.2736  0.4616
   73MOL0     H 9596   5.815   6.681   3.729 -0.7008 -0.3528 -0.5243
   73MOL0     H 9597   5.772   6.748   3.570 -1.5167 -1.5160  0.0342
   73MOL0     H 9598   5.746   6.515   3.535  0.3610 -1.3314 -0.6363
   73MOL0     H 9599   5.730   6.280   3.510 -2.6531 -2.0104 -2.4715
   73MOL0     H 9600   5.523   5.908   3.364  1.9774 -0.0308 -0.8476
   73MOL0     H 9601   5.515   5.642   3.375  1.0477 -1.7575  0.4088
   73MOL0     H 9602   5.599   5.414   3.755  0.3057  0.6230  0.6383
   73MOL0     H 9603   5.735   5.454   3.652 -1.1712  2.1973 -2.3809
   73MOL0     H 9604   5.698   5.217   3.655 -1.5487 -0.5283  1.7466
   73MOL0     H 9605   5.676   5.291   3.495 -0.0860 -2.3538  0.2254
   73MOL0     H 9606   5.428   5.289   3.575  1.2546  2.4054  2.2099
   73MOL0     H 9607   5.485   5.169   3.689 -1.4302  1.7378  0.6960
   73MOL0     H 9608   5.379   5.069   3.484 -0.4059  0.7167  1.4993
   73MOL0     H 9609   5.510   5.135   3.386 -0.6613  0.5923  0.4448
   73MOL0     H 9610   5.607   4.965   3.617 -0.6608  0.6286  0.1231
   73MOL0     H 9611   5.656   4.972   3.455  1.5471 -0.5648  3.4659
   73MOL0     H 9612   5.416   4.833   3.575 -0.8230 -0.4087  0.2482
   73MOL0     H 9613   5.578   4.764   3.532 -3.4665 -2.1719  4.5558
   73MOL0     H 9614   5.355   4.851   3.338  0.5433 -1.0159 -1.3553
   73MOL0     H 9615   5.515   4.879   3.294 -0.0580  1.9119  1.5142
   73MOL0     H 9616   5.578   4.641   3.341 -0.2866 -0.3158 -1.9714
   73MOL0     H 9617   5.475   4.671   3.204 -0.0925 -1.4958  0.0134
   73MOL0     H 9618   5.664   5.660   3.760  0.5409  0.9669 -0.2325
   73MOL0     H 9619   5.699   5.915   3.737  2.6763  1.3224 -1.2519
   73MOL0     H 9620   5.376   6.312   3.752 -1.2916 -0.0600 -0.6605
   73MOL0     H 9621   5.408   6.549   3.779  0.7406  1.4717 -1.2470
   73MOL0     H 9622   4.998   6.873   5.120  0.5388  1.3082 -0.3084
   73MOL0     H 9623   4.972   6.943   5.372 -0.6989  4.7100  3.5950
   73MOL0     H 9624   4.572   7.247   5.627  0.4989  3.1069 -0.1611
   73MOL0     H 9625   4.518   7.274   5.869 -0.3448  0.4954 -2.9997
   73MOL0     H 9626   4.562   7.123   6.091 -0.9888 -0.3364  0.5617
   73MOL0     H 9627   4.537   7.288   6.136  1.5683  1.7393 -1.8659
   73MOL0     H 9628   4.743   7.120   6.278 -0.7814 -0.9121  3.1172
   73MOL0     H 9629   4.679   7.280   6.328 -1.8666  1.4589 -0.5624
   73MOL0     H 9630   4.604   7.096   6.452 -1.2355 -0.0235  1.6759
   73MOL0     H 9631   4.535   7.028   6.300  1.6026  0.1421 -0.3622
   73MOL0     H 9632   4.433   7.278   6.457 -3.1251  0.3503  0.2690
   73MOL0     H 9633   4.398   7.239   6.280  0.2077 -0.7508 -0.9756
   73MOL0     H 9634   4.147   7.019   6.548  0.4135  0.3463  1.6232
   73MOL0     H 9635   4.936   7.261   5.957 -3.4183 -4.6250  3.9015
   73MOL0     H 9636   4.990   7.238   5.694  0.2727  1.5549 -0.0572
   74MOL0     O 9637  10.019   7.003   0.121 -0.5044 -0.5851 -0.0145
   74MOL0     C 9638  10.054   6.952   0.011 -0.0449 -0.5473  0.0577
   74MOL0     O 9639  10.080   7.022  -0.106 -0.0804  1.0068  0.1654
   74MOL0     C 9640  10.105   7.155  -0.114  0.9074 -0.5330 -0.0663
   74MOL0     C 9641  10.160   7.236  -0.009  0.3839  0.1944  1.3244
   74MOL0     C 9642  10.193   7.373  -0.034 -0.1641  0.0171  0.0413
   74MOL0     C 9643  10.173   7.430  -0.157  1.0265  0.4489  0.0997
   74MOL0     O 9644  10.220   7.553  -0.196 -1.0333  0.3712 -0.0275
   74MOL0     C 9645  10.354   7.586  -0.146  0.4647  1.2002  0.0656
   74MOL0     C 9646  10.339   7.726  -0.082 -0.0325 -0.3698 -0.4582
   74MOL0     C 9647  10.430   7.739   0.030 -0.5395  0.0377 -1.1279
   74MOL0     C 9648  10.408   7.864   0.105  0.8986  0.1425  0.6016
   74MOL0     C 9649  10.526   7.916   0.182 -0.1705  0.2270 -0.2742
   74MOL0     C 9650  10.485   8.033   0.271  0.3780  0.1780  0.6128
   74MOL0     C 9651  10.455   7.996   0.418  0.2305  0.3248 -0.0800
   74MOL0     C 9652  10.333   7.909   0.423  0.3245  0.4214 -0.0019
   74MOL0     N 9653  10.298   7.884   0.568  0.2320 -1.3163  0.0852
   74MOL0     C 9654  10.382   7.821   0.651 -0.2006 -0.9918 -0.0697
   74MOL0     C 9655  10.324   7.818   0.774  0.0220  0.0222 -1.0659
   74MOL0     C 9656  10.366   7.743   0.903 -0.7660 -0.7567  0.4357
   74MOL0     C 9657  10.266   7.646   0.967 -0.7108  0.5406  0.9202
   74MOL0     C 9658  10.325   7.595   1.099 -0.0909 -1.0557  0.6320
   74MOL0     C 9659  10.235   7.491   1.165 -0.3858 -0.0329 -0.1686
   74MOL0     O 9660  10.242   7.360   1.100 -0.3475  0.4563 -0.8202
   74MOL0     C 9661  10.176   7.248   1.165 -0.3913  0.8574 -0.5481
   74MOL0     C 9662  10.215   7.112   1.156  1.1325 -0.1296  0.5203
   74MOL0     C 9663  10.139   7.004   1.195  1.3972  0.0487  0.1981
   74MOL0     C 9664  10.025   7.027   1.271  0.5628 -0.2181  0.6904
   74MOL0     C 9665   9.935   6.917   1.309 -1.1983  0.1724  0.7805
   74MOL0     O 9666   9.819   6.949   1.382 -0.1210 -0.2126  0.3876
   74MOL0     C 9667   9.733   6.843   1.397 -0.0747  0.1659 -0.3976
   74MOL0     C 9668   9.745   6.757   1.511  0.0036  0.2347  0.6362
   74MOL0     C 9669   9.665   6.650   1.541 -0.1155  0.0138  0.2033
   74MOL0     C 9670   9.563   6.621   1.444  0.6168 -0.3354 -0.6875
   74MOL0     O 9671   9.480   6.510   1.472 -1.0490 -0.9961 -0.3224
   74MOL0     C 9672   9.544   6.385   1.456 -0.0459 -0.3271  0.5244
   74MOL0     C 9673   9.473   6.287   1.360  0.1001  0.4477 -0.4983
   74MOL0     C 9674   9.497   6.332   1.219 -0.7265  0.3681  0.1336
   74MOL0     C 9675   9.635   6.298   1.164  0.0417 -0.5288  0.0693
   74MOL0     C 9676   9.667   6.365   1.027 -0.0853 -0.1248 -0.2002
   74MOL0     C 9677   9.672   6.524   1.036  0.3757 -0.0420 -0.0698
   74MOL0     C 9678   9.754   6.583   0.909  0.1341 -0.3244  0.1818
   74MOL0     C 9679   9.664   6.579   0.794  0.5956 -0.4143  0.2257
   74MOL0    Cl 9680   9.750   6.610   0.632 -0.3091 -0.2679  0.0315
   74MOL0     C 9681   9.547   6.705   1.331  0.5456 -0.3063  0.3489
   74MOL0     C 9682   9.635   6.813   1.306  0.2433 -0.6765 -0.0887
   74MOL0     O 9683   9.973   6.812   1.275  0.3960  0.4011  0.4879
   74MOL0     C 9684   9.990   7.156   1.307 -0.3042  0.4707  0.7064
   74MOL0     C 9685  10.062   7.261   1.244  0.4093  0.5868  0.2176
   74MOL0     N 9686  10.192   7.853   0.751 -0.7150 -0.0907 -0.2541
   74MOL0     N 9687  10.179   7.901   0.632  0.4022 -0.1238 -0.6246
   74MOL0     C 9688  10.102   7.353  -0.255 -1.1507  0.6486  0.2153
   74MOL0     C 9689  10.084   7.210  -0.237  0.4417  0.5450 -0.0416
   74MOL0     C 9690  10.064   6.805   0.009 -0.3837  0.0020  0.1875
   74MOL0     C 9691  10.017   6.723   0.109 -0.6474  0.3817 -0.4560
   74MOL0     C 9692  10.025   6.587   0.108  0.2475 -0.5293 -0.3230
   74MOL0     C 9693  10.074   6.515  -0.000  0.5051  1.1360  0.7615
   74MOL0     O 9694  10.107   6.379  -0.001  0.7351  0.1189 -0.1088
   74MOL0     C 9695  10.043   6.293   0.096 -0.6836  0.1557 -0.1758
   74MOL0     C 9696  10.104   6.159   0.080  0.1849  0.5854  0.6876
   74MOL0     C 9697  10.255   6.155   0.125  0.3827 -0.0008 -1.1224
   74MOL0     C 9698  10.314   6.009   0.111 -1.1056  0.7902 -0.0055
   74MOL0     C 9699  10.441   5.998   0.179  0.7736 -0.6478 -0.7773
   74MOL0     C 9700  10.552   5.982   0.218  0.1232 -0.2312  0.0484
   74MOL0     C 9701  10.099   6.599  -0.115 -0.3391 -0.3174  0.0512
   74MOL0     C 9702  10.105   6.738  -0.108 -0.5158  0.0372  0.2370
   74MOL0     H 9703  10.194   7.193   0.085 -0.5122  0.7281  1.9089
   74MOL0     H 9704  10.237   7.415   0.055 -0.9727 -0.9067  0.8999
   74MOL0     H 9705  10.430   7.591  -0.225 -0.0077 -1.7033 -0.6523
   74MOL0     H 9706  10.398   7.513  -0.078 -2.4967 -0.3629  0.4417
   74MOL0     H 9707  10.238   7.741  -0.043 -0.9223 -3.4980 -1.3387
   74MOL0     H 9708  10.357   7.798  -0.162 -0.3331 -2.1648 -2.2082
   74MOL0     H 9709  10.520   7.735  -0.032 -1.3092 -2.2504 -2.2198
   74MOL0     H 9710  10.433   7.650   0.095  0.3002 -0.4907 -1.8619
   74MOL0     H 9711  10.388   7.940   0.029  1.2958  0.1326  0.4827
   74MOL0     H 9712  10.321   7.836   0.165  1.0065 -2.4173 -0.3214
   74MOL0     H 9713  10.589   7.948   0.099 -1.3486 -1.7114 -2.0120
   74MOL0     H 9714  10.576   7.841   0.244 -2.1050  0.5547  1.7969
   74MOL0     H 9715  10.403   8.085   0.221  1.1680 -0.1130 -1.0472
   74MOL0     H 9716  10.571   8.100   0.263  1.9203 -1.9707 -3.3195
   74MOL0     H 9717  10.546   7.939   0.438 -0.8885 -1.9633 -1.1909
   74MOL0     H 9718  10.459   8.073   0.496  2.7893 -0.2485  0.4363
   74MOL0     H 9719  10.360   7.807   0.395 -0.9228 -0.0898  0.5925
   74MOL0     H 9720  10.243   7.951   0.376 -0.1302  2.9769  2.8415
   74MOL0     H 9721  10.472   7.780   0.608 -0.0985  1.9799 -3.1116
   74MOL0     H 9722  10.408   7.817   0.972 -1.5925  0.9546 -0.8032
   74MOL0     H 9723  10.448   7.676   0.876 -0.9648  0.1709 -3.0354
   74MOL0     H 9724  10.254   7.562   0.898  0.4235  0.9698  0.1672
   74MOL0     H 9725  10.167   7.689   0.982 -0.6564  0.5034  1.4260
   74MOL0     H 9726  10.424   7.552   1.085 -0.7913 -2.1576 -1.4306
   74MOL0     H 9727  10.316   7.687   1.157 -3.4530 -0.3631 -0.7561
   74MOL0     H 9728  10.134   7.531   1.173 -0.2444  0.2627  0.1880
   74MOL0     H 9729  10.281   7.474   1.263 -1.2029 -4.0978 -0.3181
   74MOL0     H 9730  10.304   7.093   1.096  0.8416  3.6926 -1.3865
   74MOL0     H 9731  10.170   6.906   1.161  2.2721  0.6288 -0.7263
   74MOL0     H 9732   9.824   6.784   1.580 -0.0398 -0.8561  1.1356
   74MOL0     H 9733   9.687   6.581   1.622  0.3659  1.0070  0.9375
   74MOL0     H 9734   9.549   6.327   1.548 -0.8436  0.9098  1.3823
   74MOL0     H 9735   9.647   6.394   1.419  0.7600 -4.1119  1.4123
   74MOL0     H 9736   9.366   6.283   1.384 -0.0921  1.2469 -1.1787
   74MOL0     H 9737   9.521   6.189   1.368 -0.3173  0.2550 -0.3160
   74MOL0     H 9738   9.480   6.440   1.209 -1.2347  0.1314 -2.3090
   74MOL0     H 9739   9.425   6.282   1.153 -1.6803  0.8909  0.7533
   74MOL0     H 9740   9.715   6.335   1.229  0.4047  0.5160 -0.9223
   74MOL0     H 9741   9.638   6.190   1.146 -2.9928 -0.3014 -2.5713
   74MOL0     H 9742   9.585   6.337   0.961  1.9010 -0.8421 -2.4991
   74MOL0     H 9743   9.748   6.304   0.984 -0.8187 -0.5599 -0.9982
   74MOL0     H 9744   9.736   6.553   1.120  1.1783 -3.1983  0.5321
   74MOL0     H 9745   9.572   6.570   1.036 -0.0050 -0.7965 -1.5608
   74MOL0     H 9746   9.770   6.690   0.927  0.3919 -0.2877 -0.2623
   74MOL0     H 9747   9.852   6.535   0.897  1.5682  2.8692 -3.0948
   74MOL0     H 9748   9.588   6.657   0.789  1.6752  0.6657  0.1334
   74MOL0     H 9749   9.612   6.483   0.787 -1.2082  0.5431 -0.1289
   74MOL0     H 9750   9.476   6.701   1.249 -0.9763  2.8452  1.3843
   74MOL0     H 9751   9.636   6.880   1.221 -1.1783 -0.8826 -0.3032
   74MOL0     H 9752   9.907   7.176   1.374  0.2515  0.1527  1.5035
   74MOL0     H 9753  10.030   7.359   1.279  1.1179  0.9252 -0.0663
   74MOL0     H 9754  10.090   7.402  -0.351 -2.3608 -0.6397 -0.3213
   74MOL0     H 9755  10.042   7.153  -0.320 -0.3557  0.5449  0.3477
   74MOL0     H 9756   9.977   6.774   0.195  4.2477  0.7119  2.0178
   74MOL0     H 9757   9.970   6.537   0.188 -3.8767  1.2783 -1.7772
   74MOL0     H 9758   9.937   6.300   0.073 -0.8814 -1.0872  0.3077
   74MOL0     H 9759  10.057   6.321   0.201  0.0306 -1.8050  0.2922
   74MOL0     H 9760  10.045   6.096   0.147  1.8857 -0.5353  1.2052
   74MOL0     H 9761  10.094   6.122  -0.023 -2.2010 -0.1756  1.1465
   74MOL0     H 9762  10.265   6.180   0.231 -0.0181  0.7591 -1.2580
   74MOL0     H 9763  10.323   6.219   0.068  2.4448 -1.0624  0.0156
   74MOL0     H 9764  10.245   5.939   0.160 -0.6044  2.1668  2.8456
   74MOL0     H 9765  10.340   5.980   0.009 -2.4632 -1.3154  0.1760
   74MOL0     H 9766  10.648   5.936   0.233 -0.8658 -2.3378  0.3069
   74MOL0     H 9767  10.129   6.550  -0.206 -2.8004  1.1161 -1.6660
   74MOL0     H 9768  10.138   6.792  -0.196  2.4404  0.6630  1.5876
   75MOL0     O 9769   8.782   0.048   1.394  0.9067  0.5273  0.0374
   75MOL0     C 9770   8.830   0.033   1.508  0.5381  0.6474 -0.0665
   75MOL0     O 9771   8.915  -0.071   1.548  1.1371  0.0622 -1.1859
   75MOL0     C 9772   8.913  -0.178   1.475 -1.0205 -0.2574  0.7659
   75MOL0     C 9773   8.814  -0.277   1.482  0.5017  0.2678 -0.1451
   75MOL0     C 9774   8.817  -0.380   1.390  0.0610 -0.4543 -0.1437
   75MOL0     C 9775   8.911  -0.384   1.285 -0.6923  0.2425  0.7471
   75MOL0     O 9776   8.921  -0.486   1.188 -0.1732 -0.4904  0.3414
   75MOL0     C 9777   8.807  -0.576   1.184  0.3934 -0.0776  0.0426
   75MOL0     C 9778   8.807  -0.673   1.068 -0.0763 -0.2484 -0.6325
   75MOL0     C 9779   8.675  -0.753   1.080 -0.0738  0.3426 -0.5724
   75MOL0     C 9780   8.661  -0.871   0.987  0.4466  0.0612  0.5030
   75MOL0     C 9781   8.522  -0.926   1.008  0.3282  0.8810  0.5165
   75MOL0     C 9782   8.510  -1.070   0.949  0.5715  0.8353  0.2143
   75MOL0     C 9783   8.363  -1.109   0.895 -0.5768 -0.0465  0.7004
   75MOL0     C 9784   8.386  -1.259   0.855 -0.2943 -0.0170 -0.3883
   75MOL0     N 9785   8.262  -1.331   0.817  0.1941 -0.2921  0.5886
   75MOL0     C 9786   8.180  -1.403   0.906  0.1996 -0.2041  0.5847
   75MOL0     C 9787   8.089  -1.462   0.829 -0.1035  0.3719  0.0567
   75MOL0     C 9788   7.978  -1.565   0.878  0.2162 -1.0961  0.2466
   75MOL0     C 9789   7.972  -1.689   0.786 -0.5792  0.5363  0.1692
   75MOL0     C 9790   7.845  -1.754   0.823 -0.3427 -0.1104 -0.5166
   75MOL0     C 9791   7.826  -1.895   0.772  0.6556  0.6227  0.1752
   75MOL0     O 9792   7.828  -1.905   0.624 -0.0574  0.4714 -0.9877
   75MOL0     C 9793   7.870  -2.026   0.572 -0.6517 -0.1578 -0.3990
   75MOL0     C 9794   7.952  -2.023   0.460  0.2994 -0.1531 -0.3463
   75MOL0     C 9795   7.992  -2.141   0.399  0.5397 -0.4357  0.4142
   75MOL0     C 9796   7.959  -2.263   0.451 -0.4240 -0.1585 -0.3995
   75MOL0     C 9797   7.989  -2.386   0.372  1.0182 -0.2536 -0.2401
   75MOL0     O 9798   8.032  -2.374   0.239  1.0085  0.0853  0.1410
   75MOL0     C 9799   8.059  -2.476   0.151 -0.6135 -0.1942  0.7531
   75MOL0     C 9800   8.074  -2.434   0.015 -0.9563  0.8677 -0.1174
   75MOL0     C 9801   8.095  -2.524  -0.092  0.3849  0.8948 -0.0440
   75MOL0     C 9802   8.112  -2.661  -0.060 -0.8830 -0.5458  0.1452
   75MOL0     O 9803   8.148  -2.751  -0.153 -0.1339 -0.0334  0.1755
   75MOL0     C 9804   8.231  -2.714  -0.269 -0.4271  0.6180 -0.5201
   75MOL0     C 9805   8.369  -2.795  -0.273  0.5556 -0.5106  0.7068
   75MOL0     C 9806   8.352  -2.952  -0.289  0.1602  0.2238 -0.9780
   75MOL0     C 9807   8.482  -3.028  -0.242  0.2567 -1.0360 -0.3196
   75MOL0     C 9808   8.493  -3.175  -0.277  0.1198  0.7389  0.1418
   75MOL0     C 9809   8.475  -3.218  -0.424  0.2587 -0.6195 -0.0375
   75MOL0     C 9810   8.503  -3.363  -0.450  0.9285  0.2688  0.1303
   75MOL0     C 9811   8.644  -3.415  -0.429 -0.1965 -0.1420  0.1264
   75MOL0    Cl 9812   8.754  -3.324  -0.541  0.3635 -0.0334 -0.0350
   75MOL0     C 9813   8.078  -2.701   0.073  0.3585 -0.0401  0.1215
   75MOL0     C 9814   8.052  -2.612   0.175  0.3635 -0.1732 -0.0128
   75MOL0     O 9815   7.966  -2.492   0.429  0.2327  1.0849  0.4100
   75MOL0     C 9816   7.879  -2.266   0.572  0.2308  0.2176  1.0373
   75MOL0     C 9817   7.831  -2.146   0.628  0.2321  0.2273 -1.5673
   75MOL0     N 9818   8.094  -1.406   0.707 -0.9142  0.1612  0.8737
   75MOL0     N 9819   8.185  -1.326   0.701 -0.0626  0.1286  0.3981
   75MOL0     C 9820   9.010  -0.287   1.283  1.2126 -0.6613 -0.2774
   75MOL0     C 9821   9.012  -0.188   1.384 -0.1142  0.3877 -0.1810
   75MOL0     C 9822   8.777   0.124   1.622 -0.0783  0.2591  0.3513
   75MOL0     C 9823   8.704   0.237   1.590  0.3349 -0.4420  0.0758
   75MOL0     C 9824   8.652   0.325   1.686  0.0396 -0.1142  0.8163
   75MOL0     C 9825   8.670   0.303   1.822  0.1014  0.1040  0.1260
   75MOL0     O 9826   8.607   0.385   1.919 -0.6504  0.7446  0.2945
   75MOL0     C 9827   8.587   0.523   1.886  0.0682  0.0517 -0.9546
   75MOL0     C 9828   8.544   0.602   2.005 -0.3914  0.7443  0.9709
   75MOL0     C 9829   8.501   0.735   1.952 -0.2885 -0.3147  0.0468
   75MOL0     C 9830   8.544   0.849   2.038 -0.4925  0.3672 -0.6083
   75MOL0     C 9831   8.686   0.866   2.025 -0.3871  0.0668  0.6960
   75MOL0     C 9832   8.799   0.888   1.993 -1.3073 -0.3409 -0.9755
   75MOL0     C 9833   8.743   0.190   1.867  0.1822 -1.3950  0.1742
   75MOL0     C 9834   8.797   0.107   1.762  0.3792  0.2518 -0.4228
   75MOL0     H 9835   8.740  -0.258   1.560  0.5495 -0.0158 -0.0308
   75MOL0     H 9836   8.739  -0.451   1.416 -0.6106  0.3824  0.1900
   75MOL0     H 9837   8.712  -0.522   1.184  0.9668  0.9775  1.2688
   75MOL0     H 9838   8.810  -0.632   1.277  2.4046  0.4617  0.3461
   75MOL0     H 9839   8.902  -0.727   1.067  0.1665  0.0671  1.4516
   75MOL0     H 9840   8.800  -0.616   0.975  2.9572  1.2895 -0.0415
   75MOL0     H 9841   8.601  -0.681   1.045 -3.2514 -1.3790  2.0572
   75MOL0     H 9842   8.654  -0.782   1.183 -1.7505  2.9391 -0.0945
   75MOL0     H 9843   8.669  -0.841   0.882  4.0264 -0.1191  0.6084
   75MOL0     H 9844   8.734  -0.948   1.016  0.7243 -0.8334 -2.2588
   75MOL0     H 9845   8.460  -0.855   0.953  1.6990  2.9824  1.5355
   75MOL0     H 9846   8.490  -0.930   1.113  2.3572  0.2940  1.1732
   75MOL0     H 9847   8.544  -1.134   1.031  0.8464  1.8097  0.8707
   75MOL0     H 9848   8.567  -1.075   0.856  1.3588  2.2564  0.5928
   75MOL0     H 9849   8.295  -1.097   0.980  0.0362  0.0064  1.1879
   75MOL0     H 9850   8.331  -1.045   0.812 -0.7151  1.1730  1.6668
   75MOL0     H 9851   8.420  -1.312   0.944 -1.4250  1.7979  1.1892
   75MOL0     H 9852   8.464  -1.258   0.779 -1.9032  0.6944 -2.1200
   75MOL0     H 9853   8.188  -1.411   1.013  1.6214  2.0898  0.7192
   75MOL0     H 9854   7.886  -1.508   0.859  0.6918 -0.3304  0.1686
   75MOL0     H 9855   7.981  -1.581   0.986 -0.3667 -0.7280  0.3263
   75MOL0     H 9856   8.050  -1.760   0.815 -0.6348 -0.2891 -1.5892
   75MOL0     H 9857   7.983  -1.671   0.679  3.4221 -5.1222 -0.7966
   75MOL0     H 9858   7.824  -1.747   0.930 -1.5685  2.6483 -0.8385
   75MOL0     H 9859   7.760  -1.697   0.784 -1.8357 -0.9390  1.3393
   75MOL0     H 9860   7.723  -1.925   0.797  1.1608 -0.3457  1.1818
   75MOL0     H 9861   7.902  -1.956   0.823 -2.0340 -2.1529  1.2305
   75MOL0     H 9862   7.974  -1.923   0.425 -0.1807  0.4483  0.9836
   75MOL0     H 9863   8.042  -2.138   0.302  2.9539  0.9926  1.6282
   75MOL0     H 9864   8.080  -2.328  -0.007 -0.5679  0.9435  0.3098
   75MOL0     H 9865   8.088  -2.493  -0.196  0.8021 -3.0960 -1.4289
   75MOL0     H 9866   8.258  -2.608  -0.276 -3.1458  1.3853 -0.2714
   75MOL0     H 9867   8.178  -2.748  -0.359  2.1337 -2.1360 -1.1467
   75MOL0     H 9868   8.425  -2.784  -0.179  4.0836  0.5234 -1.3373
   75MOL0     H 9869   8.442  -2.769  -0.351 -0.8934 -1.5131 -1.0494
   75MOL0     H 9870   8.316  -2.979  -0.389  0.0229  0.4244 -0.9833
   75MOL0     H 9871   8.273  -2.979  -0.218 -0.8377  2.0046 -1.3334
   75MOL0     H 9872   8.572  -2.982  -0.285  0.9521  0.4392  2.4791
   75MOL0     H 9873   8.499  -3.025  -0.134  0.9603 -2.9861 -0.3332
   75MOL0     H 9874   8.413  -3.223  -0.219  0.6105  0.8805  0.9424
   75MOL0     H 9875   8.587  -3.223  -0.249 -1.6894 -3.5566 -0.2465
   75MOL0     H 9876   8.539  -3.168  -0.497  0.3926 -0.2714  0.3147
   75MOL0     H 9877   8.371  -3.194  -0.447  0.6117 -0.3918 -1.5228
   75MOL0     H 9878   8.436  -3.426  -0.391  0.3560  2.1820  1.6589
   75MOL0     H 9879   8.471  -3.380  -0.553 -0.3216  1.4174  0.3060
   75MOL0     H 9880   8.655  -3.523  -0.438 -0.8628 -0.0380 -3.3509
   75MOL0     H 9881   8.682  -3.402  -0.327  3.0943 -0.2935 -0.9659
   75MOL0     H 9882   8.071  -2.808   0.088 -3.7398 -0.0527 -0.9200
   75MOL0     H 9883   8.044  -2.661   0.272 -3.6212 -0.0327 -0.1072
   75MOL0     H 9884   7.838  -2.355   0.618 -1.9865  0.8125  0.3027
   75MOL0     H 9885   7.768  -2.161   0.715  4.1987 -1.2419  1.2989
   75MOL0     H 9886   9.074  -0.278   1.196  0.7784  4.5414 -0.3711
   75MOL0     H 9887   9.084  -0.108   1.382 -0.0644  0.3719  0.7609
   75MOL0     H 9888   8.657   0.261   1.495 -0.9032 -2.2229  0.1857
   75MOL0     H 9889   8.587   0.404   1.650  0.2349 -0.7320 -0.9911
   75MOL0     H 9890   8.502   0.532   1.818 -0.7540  2.6254  0.2991
   75MOL0     H 9891   8.674   0.572   1.843  2.1162 -1.9906  0.5988
   75MOL0     H 9892   8.458   0.553   2.052 -1.4970  0.4609 -1.2069
   75MOL0     H 9893   8.621   0.612   2.081  1.7686  2.0458 -1.2338
   75MOL0     H 9894   8.392   0.744   1.957 -0.3168  0.5606 -1.5377
   75MOL0     H 9895   8.526   0.751   1.847  1.4538  1.1599  0.6497
   75MOL0     H 9896   8.511   0.945   1.997  0.9648  0.5863 -1.3134
   75MOL0     H 9897   8.518   0.832   2.143 -0.3228  3.6214  0.0925
   75MOL0     H 9898   8.901   0.922   1.989 -0.6913 -0.3489  4.8237
   75MOL0     H 9899   8.779   0.176   1.969  0.1072 -0.2267  0.3754
   75MOL0     H 9900   8.844   0.016   1.797  0.4141  1.2795  2.4016
   76MOL0     O 9901   0.436   7.561   6.247 -0.8585 -0.9792  0.8360
   76MOL0     C 9902   0.434   7.500   6.349 -0.3020  0.3131 -0.6033
   76MOL0     O 9903   0.437   7.557   6.471  0.3017 -0.1341 -0.0632
   76MOL0     C 9904   0.441   7.695   6.488  0.1232 -0.2583  0.5485
   76MOL0     C 9905   0.331   7.759   6.540  0.0751 -0.1413 -0.0624
   76MOL0     C 9906   0.338   7.898   6.552  0.3239 -1.2624 -0.2476
   76MOL0     C 9907   0.451   7.972   6.501  1.1292 -0.1681 -0.8650
   76MOL0     O 9908   0.464   8.106   6.508  0.2012 -0.7057 -0.1304
   76MOL0     C 9909   0.367   8.170   6.581 -0.4327 -1.5212  0.0171
   76MOL0     C 9910   0.396   8.318   6.587  0.3235  0.2802  0.7395
   76MOL0     C 9911   0.269   8.404   6.607  0.3938 -0.1265 -0.8088
   76MOL0     C 9912   0.318   8.549   6.642  0.5183  0.6863  0.7033
   76MOL0     C 9913   0.208   8.652   6.631  0.1888 -0.2408 -0.4783
   76MOL0     C 9914   0.111   8.629   6.735 -0.4990  0.6162  0.3342
   76MOL0     C 9915   0.014   8.739   6.751  0.3865  0.0985  0.5348
   76MOL0     C 9916  -0.100   8.702   6.848 -0.6287 -0.3344 -0.4947
   76MOL0     N 9917  -0.211   8.796   6.817 -0.7911  0.3770 -0.2392
   76MOL0     C 9918  -0.308   8.768   6.719 -0.5068  0.0612 -0.0024
   76MOL0     C 9919  -0.393   8.867   6.734 -0.1067 -0.9439 -0.9441
   76MOL0     C 9920  -0.523   8.889   6.663  1.1161 -0.2363  0.0430
   76MOL0     C 9921  -0.506   8.894   6.510 -0.3163  0.2528  1.3321
   76MOL0     C 9922  -0.417   8.993   6.447  0.4031 -0.4000  0.2131
   76MOL0     C 9923  -0.468   9.139   6.469  0.5919 -0.6476  0.3053
   76MOL0     O 9924  -0.392   9.237   6.412  0.6242  0.0023  0.0924
   76MOL0     C 9925  -0.295   9.307   6.481  0.3312  0.4649  0.1349
   76MOL0     C 9926  -0.219   9.240   6.577 -0.3512 -0.0299 -0.0714
   76MOL0     C 9927  -0.098   9.308   6.618  0.7691  0.1693 -0.1153
   76MOL0     C 9928  -0.059   9.426   6.555  0.1942  0.3211  0.5342
   76MOL0     C 9929   0.070   9.483   6.570 -1.1833 -0.5105  0.8416
   76MOL0     O 9930   0.158   9.402   6.637 -0.4123 -0.0952 -0.3280
   76MOL0     C 9931   0.283   9.466   6.644  0.2363  1.2338 -0.4344
   76MOL0     C 9932   0.390   9.442   6.554  0.1691  0.1638 -0.9786
   76MOL0     C 9933   0.509   9.512   6.552 -0.7812  0.9562  0.8957
   76MOL0     C 9934   0.540   9.599   6.647  0.4723 -0.1565 -0.6966
   76MOL0     O 9935   0.642   9.691   6.639  0.0606  0.0422  0.3103
   76MOL0     C 9936   0.768   9.660   6.694 -1.2197  0.8490 -0.0092
   76MOL0     C 9937   0.841   9.781   6.752  0.2302  0.1534 -0.0279
   76MOL0     C 9938   0.979   9.748   6.809 -0.2637  0.2402 -0.2825
   76MOL0     C 9939   0.969   9.704   6.951 -1.0157  0.7104 -0.9328
   76MOL0     C 9940   1.103   9.669   7.014 -0.1064 -0.4410 -0.4667
   76MOL0     C 9941   1.068   9.576   7.137 -0.0611  0.4865 -0.7553
   76MOL0     C 9942   1.195   9.534   7.208  0.4573  0.0496 -0.4375
   76MOL0     C 9943   1.265   9.628   7.307 -0.0328 -0.2703 -0.5885
   76MOL0    Cl 9944   1.149   9.715   7.423 -0.0965  0.4018 -0.0117
   76MOL0     C 9945   0.444   9.610   6.749 -0.2488  0.6751  0.1502
   76MOL0     C 9946   0.322   9.546   6.751  0.4606  0.0361  0.1363
   76MOL0     O 9947   0.093   9.599   6.524  0.0660 -0.7178  0.1967
   76MOL0     C 9948  -0.139   9.482   6.457  0.8452 -0.4951  0.5549
   76MOL0     C 9949  -0.257   9.424   6.423 -0.5968  0.1962  0.7445
   76MOL0     N 9950  -0.347   8.962   6.822  0.0125  0.3550 -0.6610
   76MOL0     N 9951  -0.233   8.916   6.875 -0.4824 -0.2459 -0.3302
   76MOL0     C 9952   0.565   7.903   6.464  0.0842 -0.2071 -0.3421
   76MOL0     C 9953   0.564   7.764   6.461 -0.2006  0.0924 -0.7443
   76MOL0     C 9954   0.434   7.347   6.337 -0.2659 -0.3704 -1.7491
   76MOL0     C 9955   0.438   7.278   6.214 -1.1691  0.3782  0.3568
   76MOL0     C 9956   0.446   7.131   6.212  0.3928 -0.2390  0.4826
   76MOL0     C 9957   0.456   7.056   6.327 -0.5318  0.1371 -0.6358
   76MOL0     O 9958   0.487   6.924   6.341  0.8395 -0.2869 -0.1976
   76MOL0     C 9959   0.578   6.868   6.233 -0.0025 -0.4460 -1.2746
   76MOL0     C 9960   0.607   6.714   6.238  0.2312  0.6012 -0.5248
   76MOL0     C 9961   0.488   6.623   6.195 -0.7633  0.5316 -0.8348
   76MOL0     C 9962   0.545   6.475   6.212 -0.0991 -0.1330 -0.0706
   76MOL0     C 9963   0.646   6.426   6.119 -0.7010  0.5457 -0.1128
   76MOL0     C 9964   0.728   6.370   6.051  0.2622 -0.2578  1.1682
   76MOL0     C 9965   0.439   7.123   6.452 -0.3863 -0.2909 -0.2859
   76MOL0     C 9966   0.439   7.266   6.457 -0.6947 -1.2257 -0.1161
   76MOL0     H 9967   0.239   7.703   6.554 -0.4020  0.5742 -0.2846
   76MOL0     H 9968   0.256   7.940   6.609  2.3330 -0.2768  2.0977
   76MOL0     H 9969   0.352   8.131   6.681  1.0601 -1.8192  0.1558
   76MOL0     H 9970   0.276   8.152   6.523  0.0977 -1.7658 -0.7640
   76MOL0     H 9971   0.450   8.350   6.497 -1.5272 -0.6443 -0.7716
   76MOL0     H 9972   0.467   8.345   6.666 -0.1752  2.5970  0.4574
   76MOL0     H 9973   0.220   8.360   6.694  2.9097 -3.0156 -0.6914
   76MOL0     H 9974   0.210   8.414   6.516  0.8747 -0.4124 -1.1555
   76MOL0     H 9975   0.348   8.552   6.747  0.0236  0.3084  0.8605
   76MOL0     H 9976   0.402   8.572   6.576  2.2748  0.2696  2.6715
   76MOL0     H 9977   0.156   8.669   6.536 -2.0346  1.6789  0.9659
   76MOL0     H 9978   0.261   8.745   6.656  0.4113 -0.3963 -0.3718
   76MOL0     H 9979   0.168   8.608   6.826  1.3063 -2.5074 -1.3426
   76MOL0     H 9980   0.061   8.536   6.708  1.6805 -0.4092 -0.4227
   76MOL0     H 9981   0.077   8.818   6.794  1.7764  0.0696 -1.3061
   76MOL0     H 9982  -0.016   8.775   6.652  2.2598 -0.3110 -0.2313
   76MOL0     H 9983  -0.067   8.729   6.949 -2.2163  3.4286 -0.8014
   76MOL0     H 9984  -0.139   8.601   6.831  1.1704 -1.3856  1.2359
   76MOL0     H 9985  -0.310   8.695   6.638  2.5189  1.0015 -1.0262
   76MOL0     H 9986  -0.566   8.985   6.691  1.8407  1.6248 -4.4107
   76MOL0     H 9987  -0.588   8.811   6.704 -0.4278  1.8006  1.7057
   76MOL0     H 9988  -0.606   8.915   6.471 -0.4053 -2.4184 -0.1283
   76MOL0     H 9989  -0.479   8.797   6.468  3.4318  1.7555 -0.1195
   76MOL0     H 9990  -0.318   8.993   6.494 -0.2170 -0.5275  1.5712
   76MOL0     H 9991  -0.402   8.976   6.340  2.2374 -0.6257  0.4832
   76MOL0     H 9992  -0.464   9.158   6.577 -2.4551  0.0545  0.3914
   76MOL0     H 9993  -0.572   9.154   6.439  0.1518  0.3010  2.1123
   76MOL0     H 9994  -0.240   9.137   6.602 -2.2007  0.4436  0.4600
   76MOL0     H 9995  -0.027   9.264   6.687 -0.1801  0.2507  0.9307
   76MOL0     H 9996   0.369   9.381   6.466  1.0409  1.1225 -1.8915
   76MOL0     H 9997   0.575   9.502   6.467 -2.2728  0.2456 -0.2293
   76MOL0     H 9998   0.824   9.611   6.614 -0.2940 -0.5742  1.4440
   76MOL0     H 9999   0.757   9.586   6.774  4.2301 -0.3192  0.0242
   76MOL0     H10000   0.781   9.834   6.826 -0.5075 -1.6747  0.7390
   76MOL0     H10001   0.857   9.848   6.668 -0.9050 -0.0614 -0.4226
   76MOL0     H10002   1.041   9.836   6.792 -0.9157  1.0046  1.1348
   76MOL0     H10003   1.024   9.669   6.749  1.9331  0.5742  0.8452
   76MOL0     H10004   0.913   9.780   7.006 -0.8070  1.6952 -2.0549
   76MOL0     H10005   0.901   9.617   6.946 -2.2455  1.3481  2.2398
   76MOL0     H10006   1.136   9.765   7.054 -2.1600 -0.5218  1.5919
   76MOL0     H10007   1.177   9.617   6.952 -1.0235  0.1442 -2.1118
   76MOL0     H10008   1.022   9.485   7.100 -3.5987  0.1505  3.6689
   76MOL0     H10009   0.986   9.622   7.193 -0.5289 -0.8571 -0.3086
   76MOL0     H10010   1.175   9.440   7.261  2.4819 -0.4038 -0.3946
   76MOL0     H10011   1.262   9.505   7.127 -0.3324  0.6383 -1.3193
   76MOL0     H10012   1.312   9.703   7.243 -0.1702  0.0948 -0.2640
   76MOL0     H10013   1.342   9.570   7.360  0.6722 -0.2623 -1.5798
   76MOL0     H10014   0.467   9.674   6.834 -0.8475  0.2119  0.6780
   76MOL0     H10015   0.262   9.547   6.841  1.2900 -1.7546  0.7536
   76MOL0     H10016  -0.111   9.573   6.404 -1.5296  1.0697  1.8297
   76MOL0     H10017  -0.316   9.469   6.344  1.0204  1.9058  0.4232
   76MOL0     H10018   0.648   7.969   6.439 -0.2247  1.2635  2.2079
   76MOL0     H10019   0.657   7.716   6.433 -0.8446 -2.4830  1.1386
   76MOL0     H10020   0.430   7.330   6.119 -1.3799  0.3400  0.3526
   76MOL0     H10021   0.454   7.084   6.114 -1.1776  0.0152  0.1946
   76MOL0     H10022   0.672   6.922   6.229  1.6902 -3.1717 -0.9256
   76MOL0     H10023   0.526   6.884   6.138  0.0942  0.2136 -1.2164
   76MOL0     H10024   0.691   6.686   6.174 -0.3006 -0.7833 -0.6511
   76MOL0     H10025   0.632   6.688   6.342 -1.1064 -5.2156 -1.3093
   76MOL0     H10026   0.459   6.627   6.089 -2.0769 -1.4094 -0.5892
   76MOL0     H10027   0.407   6.648   6.263 -1.9676  4.1165 -3.2519
   76MOL0     H10028   0.593   6.464   6.310  1.2547  2.6923 -0.3001
   76MOL0     H10029   0.465   6.401   6.208 -0.7110  0.5529 -2.2241
   76MOL0     H10030   0.790   6.306   5.991  0.1230  0.1193  0.6141
   76MOL0     H10031   0.430   7.061   6.541 -3.2773  2.6420  1.6923
   76MOL0     H10032   0.435   7.313   6.555  1.4540 -1.3294  0.0680
   77MOL0     O10033   1.981   1.242   8.466 -1.0178  0.7690  0.6536
   77MOL0     C10034   2.049   1.154   8.403 -0.7965 -0.2929 -0.4214
   77MOL0     O10035   2.168   1.186   8.336 -0.3120  0.5919 -0.3435
   77MOL0     C10036   2.223   1.312   8.363 -0.7919  0.2117 -0.5850
   77MOL0     C10037   2.249   1.397   8.260 -1.2691 -0.4315 -0.4856
   77MOL0     C10038   2.307   1.526   8.284 -0.3905  0.1467  0.8312
   77MOL0     C10039   2.334   1.564   8.409  0.1771  0.9441  1.1076
   77MOL0     O10040   2.381   1.698   8.417  0.5930  0.2281  0.8546
   77MOL0     C10041   2.369   1.771   8.540 -0.2263 -0.6752 -0.9439
   77MOL0     C10042   2.414   1.914   8.535 -0.3568  0.8394 -0.5682
   77MOL0     C10043   2.554   1.940   8.467  0.2756 -0.4245  1.0690
   77MOL0     C10044   2.591   2.093   8.459  1.1115  0.4817  0.6265
   77MOL0     C10045   2.660   2.155   8.576 -0.9593 -0.6415 -0.7683
   77MOL0     C10046   2.648   2.306   8.587 -0.9087  0.4398  1.0090
   77MOL0     C10047   2.780   2.359   8.638  0.3121  0.0081  0.9271
   77MOL0     C10048   2.755   2.503   8.678  0.5864  0.6305 -0.1459
   77MOL0     N10049   2.868   2.569   8.738  0.4717  0.7582  0.3784
   77MOL0     C10050   2.934   2.673   8.682  0.6494  0.0609 -0.1276
   77MOL0     C10051   2.996   2.726   8.789  0.9630 -0.1507  0.2831
   77MOL0     C10052   3.079   2.856   8.780  0.5474  0.1775 -0.2096
   77MOL0     C10053   2.988   2.984   8.776  0.1325 -0.5734  0.2833
   77MOL0     C10054   2.888   3.001   8.901 -0.3998 -0.4909  0.9745
   77MOL0     C10055   2.966   3.021   9.031  0.2106 -0.2538  0.0117
   77MOL0     O10056   3.081   3.113   9.016  0.0035 -0.0922 -0.1171
   77MOL0     C10057   3.160   3.168   9.115 -0.4771 -0.2318  0.8155
   77MOL0     C10058   3.138   3.148   9.253  0.2423 -0.6715 -0.3304
   77MOL0     C10059   3.239   3.186   9.349 -0.5161  0.4189  1.1273
   77MOL0     C10060   3.358   3.246   9.311  0.2685  0.1512 -0.1441
   77MOL0     C10061   3.448   3.292   9.415 -1.0171  0.3853 -0.3234
   77MOL0     O10062   3.403   3.278   9.544 -0.0544  0.3526  0.6987
   77MOL0     C10063   3.496   3.313   9.642 -0.1575 -0.1003 -0.1542
   77MOL0     C10064   3.463   3.396   9.748  0.6115  0.1086  0.5183
   77MOL0     C10065   3.557   3.442   9.844  0.1665  0.0346 -0.1266
   77MOL0     C10066   3.690   3.415   9.830 -0.5665  0.3021 -0.2567
   77MOL0     O10067   3.791   3.459   9.908 -0.0664 -0.2097 -0.1468
   77MOL0     C10068   3.784   3.584   9.977  0.1715 -0.5456  0.7102
   77MOL0     C10069   3.920   3.609  10.040 -0.0188 -0.5080 -0.2824
   77MOL0     C10070   4.028   3.630   9.937 -0.7843 -0.1360  0.1432
   77MOL0     C10071   4.173   3.672   9.983  0.6110 -0.9733 -0.0154
   77MOL0     C10072   4.167   3.815  10.032 -0.5625 -0.1193 -0.1665
   77MOL0     C10073   4.323   3.838  10.048  0.5873  0.9055  1.3269
   77MOL0     C10074   4.344   3.980  10.098 -0.5516 -0.0915  0.4796
   77MOL0     C10075   4.469   3.978  10.183  0.4081 -0.6135 -0.8529
   77MOL0    Cl10076   4.428   3.892  10.327  0.0255  0.5299  0.2954
   77MOL0     C10077   3.721   3.325   9.728 -0.6613 -0.3393 -0.8028
   77MOL0     C10078   3.625   3.265   9.642 -0.1570 -0.3494  0.5171
   77MOL0     O10079   3.554   3.359   9.379  0.9201 -0.0603 -0.4606
   77MOL0     C10080   3.377   3.266   9.172  0.1721  0.1790  0.3495
   77MOL0     C10081   3.274   3.225   9.079  0.0462  0.2337  0.2631
   77MOL0     N10082   2.958   2.664   8.899 -0.2872  0.1815  0.7170
   77MOL0     N10083   2.880   2.566   8.871  0.8652 -0.4792 -0.1004
   77MOL0     C10084   2.316   1.469   8.526  0.6160 -0.6891  0.6791
   77MOL0     C10085   2.264   1.346   8.493  0.1976  0.8476 -0.1477
   77MOL0     C10086   1.997   1.014   8.398  0.8091  0.5579  0.4622
   77MOL0     C10087   1.874   0.968   8.461 -0.0062 -0.4551  0.9434
   77MOL0     C10088   1.838   0.830   8.462  0.2010 -0.0366 -0.4891
   77MOL0     C10089   1.906   0.739   8.380  0.2541 -0.3840 -0.8425
   77MOL0     O10090   1.852   0.616   8.389  0.6830 -0.2289  0.5619
   77MOL0     C10091   1.876   0.529   8.276  0.2211 -0.4135 -0.0158
   77MOL0     C10092   1.801   0.392   8.290  0.1460  0.9502 -0.9775
   77MOL0     C10093   1.871   0.278   8.223 -0.4131 -0.3813 -0.8477
   77MOL0     C10094   1.815   0.141   8.242 -0.4295  0.0076  0.4375
   77MOL0     C10095   1.915   0.035   8.256 -1.0864  0.2503  0.2565
   77MOL0     C10096   1.971  -0.074   8.258 -0.8422 -0.3622  1.0132
   77MOL0     C10097   2.014   0.781   8.310 -0.2274  0.5979 -0.6343
   77MOL0     C10098   2.061   0.916   8.321 -0.0320 -0.3253  0.1458
   77MOL0     H10099   2.231   1.376   8.155  2.8675 -1.6136 -1.1199
   77MOL0     H10100   2.323   1.592   8.200 -0.7236  1.9000  2.0846
   77MOL0     H10101   2.438   1.716   8.605  1.1493  1.1134 -0.8169
   77MOL0     H10102   2.269   1.778   8.584  1.1409  1.8763  2.1720
   77MOL0     H10103   2.417   1.954   8.637  2.2330  3.0135 -1.3744
   77MOL0     H10104   2.338   1.965   8.474 -3.9398 -1.5785  1.5123
   77MOL0     H10105   2.551   1.898   8.366 -0.8041  1.1419  0.4020
   77MOL0     H10106   2.636   1.902   8.528  0.2377 -3.4387 -0.5491
   77MOL0     H10107   2.654   2.097   8.370  0.3672 -2.6009 -0.1556
   77MOL0     H10108   2.502   2.156   8.448 -0.6053 -1.4459  2.6349
   77MOL0     H10109   2.768   2.134   8.574 -0.6434  0.4158 -4.9961
   77MOL0     H10110   2.624   2.103   8.665  2.6228  3.9875  4.0748
   77MOL0     H10111   2.564   2.325   8.654  0.3978  0.3128  2.7898
   77MOL0     H10112   2.631   2.339   8.485  1.9725  0.0185  0.2928
   77MOL0     H10113   2.829   2.311   8.724  0.2854 -1.2250  0.2694
   77MOL0     H10114   2.854   2.351   8.558 -2.2364  0.4281 -1.6319
   77MOL0     H10115   2.685   2.497   8.761  2.6208  0.6069  1.6495
   77MOL0     H10116   2.710   2.551   8.591  2.3092  0.5533 -1.1292
   77MOL0     H10117   2.934   2.709   8.580 -2.8705  2.6403  0.6210
   77MOL0     H10118   3.142   2.863   8.691 -0.1963  5.5826 -0.6533
   77MOL0     H10119   3.135   2.858   8.874 -3.6482 -2.7441  2.6873
   77MOL0     H10120   2.930   2.972   8.684 -0.1598 -1.5572  0.5907
   77MOL0     H10121   3.047   3.073   8.751  0.1669 -0.8913 -0.8305
   77MOL0     H10122   2.831   3.092   8.882  0.2691 -0.4604 -1.0873
   77MOL0     H10123   2.815   2.920   8.908 -1.5145  0.4083  0.0337
   77MOL0     H10124   2.998   2.926   9.076 -3.7025 -0.8478  1.9280
   77MOL0     H10125   2.894   3.072   9.096 -1.9768 -0.7103 -1.9564
   77MOL0     H10126   3.041   3.118   9.290  0.5763 -0.6780  0.5648
   77MOL0     H10127   3.214   3.161   9.452 -1.2066  0.8498  1.0691
   77MOL0     H10128   3.359   3.425   9.756 -0.3336 -3.2135  1.8660
   77MOL0     H10129   3.527   3.497   9.933 -2.2746 -0.0171 -0.8437
   77MOL0     H10130   3.706   3.579  10.053  1.5299  1.4026  2.3394
   77MOL0     H10131   3.758   3.676   9.922  0.5777  0.8282  2.7088
   77MOL0     H10132   3.937   3.522  10.104 -2.9606 -0.0746  1.3171
   77MOL0     H10133   3.912   3.700  10.101 -1.1310  1.1024 -2.6570
   77MOL0     H10134   3.998   3.709   9.868  0.1530  0.3964  0.3380
   77MOL0     H10135   4.043   3.540   9.876 -1.6628 -1.7652  2.2249
   77MOL0     H10136   4.197   3.601  10.063 -0.1529  0.6174  1.7162
   77MOL0     H10137   4.243   3.672   9.900 -2.1746  2.0923 -2.6639
   77MOL0     H10138   4.109   3.837  10.121 -1.5237  1.0807 -1.0503
   77MOL0     H10139   4.134   3.893   9.962  1.2936  0.8343 -0.0464
   77MOL0     H10140   4.377   3.822   9.954 -0.6568  1.3516  0.5130
   77MOL0     H10141   4.358   3.763  10.119 -0.7020 -1.2558 -0.2232
   77MOL0     H10142   4.353   4.042  10.008  1.3595 -0.1676  0.5787
   77MOL0     H10143   4.259   4.015  10.157 -0.6919  0.6140 -0.1277
   77MOL0     H10144   4.484   4.083  10.209  0.8570 -0.9175  0.1249
   77MOL0     H10145   4.550   3.931  10.126 -0.6240  0.0945 -3.0513
   77MOL0     H10146   3.817   3.275   9.726 -0.5705 -0.6142  3.2882
   77MOL0     H10147   3.654   3.186   9.573  0.5618  0.5083 -0.1938
   77MOL0     H10148   3.462   3.318   9.130 -1.6630  2.5871 -0.6844
   77MOL0     H10149   3.277   3.257   8.975 -1.0100  3.1396  1.0346
   77MOL0     H10150   2.352   1.498   8.624  0.8960 -2.3703  1.1010
   77MOL0     H10151   2.245   1.281   8.578  0.1228  3.1019  1.6649
   77MOL0     H10152   1.822   1.049   8.511 -1.5631 -0.1274 -1.1002
   77MOL0     H10153   1.757   0.797   8.525  2.4826  1.0639  3.3285
   77MOL0     H10154   1.984   0.513   8.263  0.5617  0.0299  1.9533
   77MOL0     H10155   1.842   0.576   8.183  2.2500 -2.4248 -1.8922
   77MOL0     H10156   1.808   0.382   8.398  0.5008  2.0751 -0.8815
   77MOL0     H10157   1.693   0.395   8.275  0.0088  0.9599 -0.0494
   77MOL0     H10158   1.979   0.275   8.238 -0.5797  1.5009  1.0475
   77MOL0     H10159   1.861   0.309   8.118 -1.0053  0.5664 -0.5165
   77MOL0     H10160   1.767   0.132   8.340  0.4583 -0.1862  0.8711
   77MOL0     H10161   1.742   0.112   8.166 -1.8067 -0.5570  1.9124
   77MOL0     H10162   2.023  -0.167   8.265 -1.2745 -0.5835  1.3125
   77MOL0     H10163   2.060   0.703   8.250 -0.5523 -0.0629 -0.0310
   77MOL0     H10164   2.145   0.942   8.258  0.4572 -3.0388 -0.4439
   78MOL0     O10165   7.670   8.322   9.197  0.1808 -0.0889 -0.6289
   78MOL0     C10166   7.604   8.290   9.097 -0.0458 -0.3633  0.2030
   78MOL0     O10167   7.650   8.289   8.968 -0.5384  0.5715 -0.0609
   78MOL0     C10168   7.778   8.339   8.942 -0.3208  0.6776  0.0856
   78MOL0     C10169   7.892   8.313   9.021  0.1597 -0.5087  0.1996
   78MOL0     C10170   8.007   8.386   8.981 -0.0400 -0.0108  1.0137
   78MOL0     C10171   8.006   8.486   8.877  0.4103  0.1715 -0.4502
   78MOL0     O10172   8.109   8.571   8.843 -0.2081  0.8877 -0.1967
   78MOL0     C10173   8.241   8.522   8.871 -0.2639 -0.4938  0.0146
   78MOL0     C10174   8.291   8.422   8.770 -0.2557  0.5531  0.7707
   78MOL0     C10175   8.415   8.344   8.819 -0.3269  0.0875 -0.8539
   78MOL0     C10176   8.395   8.233   8.925 -0.2176  0.9879 -0.3756
   78MOL0     C10177   8.495   8.114   8.903  1.3352  0.1791  0.0041
   78MOL0     C10178   8.422   8.014   8.796 -0.4108 -0.0661 -0.1157
   78MOL0     C10179   8.534   7.965   8.704  0.8527 -0.1802 -0.5692
   78MOL0     C10180   8.489   7.840   8.609  0.2287 -0.1513  0.5841
   78MOL0     N10181   8.612   7.799   8.537 -0.2122  0.8315  0.4478
   78MOL0     C10182   8.721   7.723   8.581 -1.1910 -0.3610  1.1163
   78MOL0     C10183   8.796   7.708   8.464 -0.8632  0.2722 -0.8813
   78MOL0     C10184   8.925   7.630   8.448  0.5948  0.1030  0.0071
   78MOL0     C10185   8.884   7.481   8.418  0.6504  0.7249  0.5386
   78MOL0     C10186   8.848   7.453   8.268 -0.5232 -0.6677 -0.0673
   78MOL0     C10187   8.700   7.455   8.233  0.2865 -0.0702 -0.2437
   78MOL0     O10188   8.667   7.370   8.119  0.3778  0.1384  0.1000
   78MOL0     C10189   8.667   7.238   8.136 -0.3960  0.1327 -0.0414
   78MOL0     C10190   8.697   7.176   8.260  1.0039 -0.4760  0.3435
   78MOL0     C10191   8.690   7.035   8.267 -0.4701 -0.3802 -1.1285
   78MOL0     C10192   8.641   6.962   8.159 -0.2953 -0.2099 -0.3227
   78MOL0     C10193   8.611   6.817   8.169  0.2612  0.5451  0.5603
   78MOL0     O10194   8.558   6.750   8.061 -0.6773 -0.6900  0.4779
   78MOL0     C10195   8.521   6.620   8.081  0.0875 -0.2586  0.5325
   78MOL0     C10196   8.607   6.516   8.089 -0.7138 -0.9132 -0.2234
   78MOL0     C10197   8.569   6.389   8.114  0.6403 -1.3624  0.5208
   78MOL0     C10198   8.435   6.359   8.117  0.2360  0.6979 -0.1575
   78MOL0     O10199   8.379   6.238   8.156  0.3902 -0.1141  0.0862
   78MOL0     C10200   8.461   6.119   8.159 -0.2348 -0.3682  0.4153
   78MOL0     C10201   8.366   6.006   8.169 -0.2902  0.2032  0.3958
   78MOL0     C10202   8.281   6.003   8.293  0.1353 -0.2171  0.1628
   78MOL0     C10203   8.221   5.861   8.282  0.1312  0.1188 -0.5727
   78MOL0     C10204   8.125   5.846   8.404  0.7343 -0.7630 -0.3547
   78MOL0     C10205   8.051   5.714   8.428  0.0599 -0.5608  0.4343
   78MOL0     C10206   7.960   5.704   8.550  0.8797 -0.2749 -0.0740
   78MOL0     C10207   7.913   5.564   8.575  0.5560  0.6856 -0.1766
   78MOL0    Cl10208   7.817   5.517   8.436  0.1671 -0.1460  0.1941
   78MOL0     C10209   8.342   6.460   8.102  0.6298  0.3392 -0.2609
   78MOL0     C10210   8.390   6.591   8.082  0.4406 -0.5278 -0.9590
   78MOL0     O10211   8.624   6.769   8.277  0.0638  0.7551  0.4160
   78MOL0     C10212   8.611   7.025   8.036 -0.6697  0.0929  0.1843
   78MOL0     C10213   8.628   7.163   8.019 -0.7680  0.7577 -0.9467
   78MOL0     N10214   8.742   7.782   8.362  0.8926 -0.5776  0.3333
   78MOL0     N10215   8.636   7.839   8.412 -1.0038  0.1727 -0.3235
   78MOL0     C10216   7.893   8.508   8.798  0.2342  0.4977  0.2449
   78MOL0     C10217   7.783   8.421   8.825  0.5314  0.9938  0.0115
   78MOL0     C10218   7.460   8.272   9.111  0.5369 -0.4531 -0.0026
   78MOL0     C10219   7.386   8.224   9.001 -0.5809  0.0641 -0.0983
   78MOL0     C10220   7.248   8.211   9.006 -0.9579 -0.9471  0.1424
   78MOL0     C10221   7.181   8.247   9.128 -0.5598  0.2102 -0.6302
   78MOL0     O10222   7.043   8.226   9.138  0.0416 -0.8597 -0.4889
   78MOL0     C10223   6.973   8.201   9.267 -1.1094 -0.0904 -0.4515
   78MOL0     C10224   6.908   8.322   9.323  0.2062 -0.7453  0.6302
   78MOL0     C10225   6.824   8.408   9.225  0.2502 -0.0590 -1.8665
   78MOL0     C10226   6.783   8.540   9.277 -0.4327 -0.8867 -0.3255
   78MOL0     C10227   6.900   8.636   9.285  0.7473 -0.5887  0.1993
   78MOL0     C10228   6.993   8.709   9.286 -0.0133  0.1140  0.5853
   78MOL0     C10229   7.254   8.282   9.240  0.0280 -0.2051  0.9263
   78MOL0     C10230   7.391   8.301   9.225  0.9012 -0.6865 -0.7046
   78MOL0     H10231   7.889   8.253   9.111 -0.1782 -1.0162 -0.1436
   78MOL0     H10232   8.094   8.375   9.046 -1.5049  0.0175  3.0880
   78MOL0     H10233   8.252   8.477   8.970  0.2876  2.0898  1.2196
   78MOL0     H10234   8.312   8.605   8.877  0.2324 -0.9435  0.5019
   78MOL0     H10235   8.309   8.472   8.674  0.6752  2.6575  1.9774
   78MOL0     H10236   8.212   8.356   8.731 -0.5169  0.0186  2.1520
   78MOL0     H10237   8.483   8.417   8.863 -2.0311  0.3498  1.5342
   78MOL0     H10238   8.451   8.291   8.730 -3.1373  0.4218 -2.3229
   78MOL0     H10239   8.432   8.279   9.018  0.6252  2.0113 -1.1914
   78MOL0     H10240   8.290   8.202   8.922 -0.2806  0.5989  2.5709
   78MOL0     H10241   8.507   8.065   9.000  0.2991 -1.1326 -0.5096
   78MOL0     H10242   8.594   8.152   8.875  0.8767  2.5264  1.3179
   78MOL0     H10243   8.342   8.059   8.736 -0.8856  0.4243  0.8722
   78MOL0     H10244   8.371   7.934   8.849  0.6802 -0.5727  0.1862
   78MOL0     H10245   8.553   8.043   8.630  1.6916  1.5514  1.3876
   78MOL0     H10246   8.625   7.950   8.762 -0.1757  1.5557  1.6605
   78MOL0     H10247   8.413   7.871   8.538 -0.7644 -2.0978  0.7463
   78MOL0     H10248   8.448   7.755   8.665  1.0775 -1.9502 -1.4022
   78MOL0     H10249   8.740   7.684   8.681 -2.4631  3.7521  3.1877
   78MOL0     H10250   8.981   7.648   8.540  0.2523  1.5483 -0.0299
   78MOL0     H10251   8.981   7.661   8.360 -0.5142  2.2562 -0.0176
   78MOL0     H10252   8.811   7.432   8.483  0.2917  0.5444  0.0092
   78MOL0     H10253   8.979   7.428   8.429 -0.1568 -1.1563 -0.8978
   78MOL0     H10254   8.896   7.534   8.211 -2.1860  1.1069  0.9307
   78MOL0     H10255   8.893   7.357   8.243  0.1475 -0.3837  0.0199
   78MOL0     H10256   8.659   7.553   8.206 -1.0080 -1.0178 -1.9168
   78MOL0     H10257   8.631   7.417   8.308  0.5172 -1.8200 -0.8714
   78MOL0     H10258   8.727   7.231   8.348 -0.6343 -1.9108  1.8834
   78MOL0     H10259   8.721   6.982   8.356  1.4767  0.6772 -1.1285
   78MOL0     H10260   8.713   6.539   8.089 -1.2446  1.9173 -1.0690
   78MOL0     H10261   8.650   6.317   8.127 -0.1860 -2.9789 -2.3088
   78MOL0     H10262   8.536   6.128   8.238 -0.9355  2.5226  0.8793
   78MOL0     H10263   8.510   6.098   8.064  3.1688 -2.8319  2.4964
   78MOL0     H10264   8.434   5.921   8.159  0.4599  1.0830 -4.0638
   78MOL0     H10265   8.310   6.006   8.075  2.1397  1.4042 -1.1593
   78MOL0     H10266   8.201   6.077   8.282 -1.6813 -2.3555 -2.5058
   78MOL0     H10267   8.336   6.024   8.385 -2.6810  1.0713  1.6589
   78MOL0     H10268   8.169   5.849   8.186  0.4854 -1.5080 -0.5891
   78MOL0     H10269   8.297   5.782   8.277 -0.5894 -0.5200 -1.8455
   78MOL0     H10270   8.046   5.921   8.395 -0.7215 -2.1149  0.6554
   78MOL0     H10271   8.189   5.854   8.492 -2.8925 -0.5750  2.5376
   78MOL0     H10272   8.128   5.637   8.430  4.0178  2.9137 -1.4856
   78MOL0     H10273   7.999   5.689   8.335  0.0548 -1.1151  0.5821
   78MOL0     H10274   8.029   5.719   8.633 -2.5888 -0.5901  3.1230
   78MOL0     H10275   7.874   5.772   8.555 -0.2794 -1.5927 -1.2548
   78MOL0     H10276   7.846   5.557   8.660 -3.7831 -4.7535 -3.3241
   78MOL0     H10277   8.005   5.506   8.589 -0.3255 -1.6052 -2.7849
   78MOL0     H10278   8.235   6.439   8.097  0.8942 -1.0728 -0.4124
   78MOL0     H10279   8.316   6.669   8.066  0.6112 -0.1403  0.0288
   78MOL0     H10280   8.596   6.961   7.950 -3.6382  0.7549  0.0837
   78MOL0     H10281   8.614   7.223   7.930 -0.1551 -1.5390 -2.6994
   78MOL0     H10282   7.908   8.583   8.721  4.5822 -0.0552  0.2999
   78MOL0     H10283   7.694   8.428   8.764 -1.3335 -0.4695  2.3818
   78MOL0     H10284   7.444   8.203   8.912 -1.6211 -0.3637 -0.6959
   78MOL0     H10285   7.189   8.180   8.920 -0.0357  1.4213 -1.4592
   78MOL0     H10286   7.032   8.162   9.350 -1.5025  2.1126  0.9339
   78MOL0     H10287   6.898   8.121   9.263 -0.2798 -1.1744  2.8150
   78MOL0     H10288   6.842   8.296   9.406  2.0282 -2.3452  1.6672
   78MOL0     H10289   6.980   8.383   9.377  0.8734 -3.6293  3.2897
   78MOL0     H10290   6.738   8.341   9.224  0.8631 -1.1666  2.3456
   78MOL0     H10291   6.857   8.404   9.120  0.8451 -1.0159 -1.6495
   78MOL0     H10292   6.701   8.581   9.216 -4.1566 -0.5816  4.2930
   78MOL0     H10293   6.715   8.538   9.363 -1.7320  2.4257 -1.1167
   78MOL0     H10294   7.079   8.766   9.259  0.7294 -2.6581 -3.9306
   78MOL0     H10295   7.205   8.307   9.334  1.2966  2.7239  0.9023
   78MOL0     H10296   7.452   8.330   9.310 -1.5967 -0.4241  1.1116
   79MOL0     O10297   7.058   9.296   7.002 -0.2085  0.0292 -0.1267
   79MOL0     C10298   7.039   9.228   6.902  0.3727  0.4678 -0.2552
   79MOL0     O10299   7.115   9.233   6.788  0.1137 -0.3483 -0.1012
   79MOL0     C10300   7.228   9.311   6.796 -0.2130  0.3886 -0.1425
   79MOL0     C10301   7.343   9.249   6.753 -0.0480  0.2377 -0.1015
   79MOL0     C10302   7.466   9.314   6.775 -1.0209  0.4651 -0.1899
   79MOL0     C10303   7.484   9.441   6.818 -0.2678  0.2087 -0.9196
   79MOL0     O10304   7.602   9.503   6.850  0.0858  0.8435  0.2745
   79MOL0     C10305   7.656   9.604   6.762 -0.2235 -0.6022  0.5441
   79MOL0     C10306   7.633   9.743   6.819  0.3366 -0.5289  0.9025
   79MOL0     C10307   7.705   9.767   6.944 -0.3768  1.0570  0.1037
   79MOL0     C10308   7.657   9.891   7.021  0.0707  0.4836 -0.7744
   79MOL0     C10309   7.721   9.891   7.164  0.4214 -0.0181  0.8105
   79MOL0     C10310   7.680  10.018   7.228 -0.5831 -0.2127 -0.3185
   79MOL0     C10311   7.764  10.037   7.347 -0.0551 -0.6337 -0.5206
   79MOL0     C10312   7.770   9.928   7.461  0.2106  0.3543  0.6302
   79MOL0     N10313   7.872   9.957   7.564  0.0247  0.2114 -0.2681
   79MOL0     C10314   8.008   9.960   7.537  0.5710  0.4789 -0.0229
   79MOL0     C10315   8.072   9.989   7.660  0.9953  0.0249 -0.9793
   79MOL0     C10316   8.216   9.998   7.689  0.0593 -0.0068 -0.5516
   79MOL0     C10317   8.272   9.872   7.757 -0.5241  0.0621 -0.9079
   79MOL0     C10318   8.424   9.893   7.800  1.2871 -0.4329  0.4686
   79MOL0     C10319   8.462   9.777   7.898 -0.2427 -0.0763 -0.2372
   79MOL0     O10320   8.595   9.801   7.953 -0.8231 -0.4742  0.4944
   79MOL0     C10321   8.636   9.725   8.052 -0.1493 -0.2362 -0.8073
   79MOL0     C10322   8.567   9.603   8.086  0.8394 -0.7665 -0.0163
   79MOL0     C10323   8.626   9.509   8.180  0.2337 -0.8016 -0.4111
   79MOL0     C10324   8.746   9.543   8.248 -0.0808  0.1554  0.3787
   79MOL0     C10325   8.819   9.444   8.330 -0.6599  0.9824  0.8227
   79MOL0     O10326   8.802   9.310   8.295 -0.3646 -0.4670 -0.2316
   79MOL0     C10327   8.831   9.215   8.395  0.0435  0.2810  0.7423
   79MOL0     C10328   8.860   9.094   8.346 -0.1242  0.1660  0.4596
   79MOL0     C10329   8.886   8.978   8.418  0.1788  0.3607 -0.8493
   79MOL0     C10330   8.901   8.992   8.549  0.8619  0.5014 -0.2360
   79MOL0     O10331   8.928   8.872   8.616  0.5181 -0.6916  0.2249
   79MOL0     C10332   8.917   8.871   8.757  0.2167 -0.3498 -0.0279
   79MOL0     C10333   8.768   8.856   8.805 -0.2850  0.3379 -0.4483
   79MOL0     C10334   8.717   8.720   8.827  0.3597 -0.6003  0.5777
   79MOL0     C10335   8.810   8.638   8.915 -0.2276 -0.2504 -0.5662
   79MOL0     C10336   8.736   8.521   8.985 -0.0308 -0.0482  0.9274
   79MOL0     C10337   8.820   8.452   9.094  0.6753  0.2800 -0.3648
   79MOL0     C10338   8.836   8.529   9.223  0.6374  0.0669  0.8489
   79MOL0     C10339   8.723   8.506   9.331  0.6099 -0.0541 -0.7388
   79MOL0    Cl10340   8.777   8.600   9.478 -0.2017  0.0036  0.2085
   79MOL0     C10341   8.867   9.116   8.609  0.0142 -0.4239  1.0486
   79MOL0     C10342   8.830   9.227   8.529 -0.0777  0.6997 -0.0870
   79MOL0     O10343   8.886   9.482   8.422  0.4172 -0.5830  0.0805
   79MOL0     C10344   8.806   9.669   8.222  0.3686 -0.0850  0.5179
   79MOL0     C10345   8.743   9.764   8.130  0.0752  0.1540 -0.0607
   79MOL0     N10346   7.968  10.015   7.757  0.0039  0.2468 -0.6975
   79MOL0     N10347   7.856   9.986   7.700  0.5514  0.2805 -0.2154
   79MOL0     C10348   7.366   9.517   6.826 -0.0119 -0.6665 -0.1363
   79MOL0     C10349   7.232   9.453   6.817 -0.1170  0.8802  0.1341
   79MOL0     C10350   6.906   9.162   6.895 -0.2367  0.8887  0.0212
   79MOL0     C10351   6.791   9.228   6.937  0.7194 -0.1809 -0.2735
   79MOL0     C10352   6.669   9.166   6.912  0.5811  0.0884 -0.1156
   79MOL0     C10353   6.662   9.033   6.868  0.1242  1.0481  0.0292
   79MOL0     O10354   6.541   8.973   6.862  0.2092  0.2434 -0.1509
   79MOL0     C10355   6.520   8.841   6.800 -0.7755  0.2689 -0.3704
   79MOL0     C10356   6.540   8.737   6.908 -0.0909 -0.3158 -0.0426
   79MOL0     C10357   6.559   8.598   6.837 -0.2383  1.0999  0.2104
   79MOL0     C10358   6.522   8.480   6.930 -0.1650 -0.2607  0.2106
   79MOL0     C10359   6.376   8.454   6.967  0.0919  0.2332  0.0707
   79MOL0     C10360   6.254   8.450   6.984  0.6949  0.3294 -0.3954
   79MOL0     C10361   6.780   8.960   6.844  0.0948  0.4161  0.4526
   79MOL0     C10362   6.898   9.030   6.847 -0.9805  0.8310  0.0927
   79MOL0     H10363   7.327   9.151   6.708 -3.2102  0.5018  0.2214
   79MOL0     H10364   7.552   9.248   6.771 -1.0730  0.2978  1.1475
   79MOL0     H10365   7.622   9.595   6.659  3.6695 -1.8282 -0.8082
   79MOL0     H10366   7.762   9.580   6.750 -0.4918 -5.5205  4.4960
   79MOL0     H10367   7.527   9.770   6.821 -0.1899 -2.5405  1.6790
   79MOL0     H10368   7.676   9.819   6.753  0.5670  0.6651  2.3605
   79MOL0     H10369   7.813   9.754   6.932 -0.9026 -2.2820 -2.3439
   79MOL0     H10370   7.688   9.685   7.014  1.7222  0.6330  0.1847
   79MOL0     H10371   7.680   9.987   6.973 -4.4736  1.5007 -1.3562
   79MOL0     H10372   7.548   9.893   7.029  0.0213  4.4412 -0.2041
   79MOL0     H10373   7.829   9.876   7.156  0.5423  0.8354  0.7112
   79MOL0     H10374   7.666   9.814   7.219  3.1163 -2.3649  0.4602
   79MOL0     H10375   7.575  10.011   7.258 -0.2979 -0.3788  0.7028
   79MOL0     H10376   7.689  10.098   7.154 -0.0114 -2.0850 -2.3864
   79MOL0     H10377   7.863  10.031   7.300 -0.5558 -1.0110 -1.5490
   79MOL0     H10378   7.751  10.134   7.395  1.4714 -2.1268  3.3131
   79MOL0     H10379   7.796   9.828   7.425 -0.7315  0.2049  0.3351
   79MOL0     H10380   7.670   9.927   7.506 -0.9527 -1.0960 -1.7607
   79MOL0     H10381   8.057   9.937   7.443 -2.9733 -1.5471 -1.5721
   79MOL0     H10382   8.245  10.087   7.745 -1.8367  2.0028 -2.5304
   79MOL0     H10383   8.265  10.029   7.595  0.5260  1.1163  0.0419
   79MOL0     H10384   8.277   9.781   7.696 -0.8068 -1.1848  0.8459
   79MOL0     H10385   8.211   9.864   7.847 -0.6620  2.4131 -0.7418
   79MOL0     H10386   8.496   9.911   7.721  0.6428  2.6214  0.4541
   79MOL0     H10387   8.429   9.986   7.857  0.7791 -1.2933  1.9944
   79MOL0     H10388   8.468   9.680   7.847  0.9304 -0.8384  1.2575
   79MOL0     H10389   8.389   9.768   7.980  0.4524 -2.7137  0.2075
   79MOL0     H10390   8.467   9.583   8.051  0.6338 -1.9098  1.1989
   79MOL0     H10391   8.581   9.415   8.210  3.3101 -2.8392 -1.6476
   79MOL0     H10392   8.851   9.096   8.237  0.4730  1.3814  0.4100
   79MOL0     H10393   8.893   8.888   8.358  3.2808 -1.3697  1.8310
   79MOL0     H10394   8.965   8.960   8.800  3.6158 -1.0207 -2.0496
   79MOL0     H10395   8.980   8.794   8.805 -0.0216  1.0928  2.8208
   79MOL0     H10396   8.702   8.907   8.734 -1.1080 -0.0193  0.0537
   79MOL0     H10397   8.772   8.915   8.897 -0.5046  2.0566 -1.4906
   79MOL0     H10398   8.712   8.667   8.732 -3.1659  0.1968  0.1681
   79MOL0     H10399   8.621   8.727   8.880 -1.0043 -2.2417 -1.5428
   79MOL0     H10400   8.890   8.610   8.845 -0.9103 -1.0701 -1.0323
   79MOL0     H10401   8.860   8.698   8.991 -0.5907  0.7739 -1.1235
   79MOL0     H10402   8.702   8.451   8.908 -3.6746  0.6807  1.6853
   79MOL0     H10403   8.652   8.567   9.038  1.1271  0.7359  2.1435
   79MOL0     H10404   8.925   8.439   9.068  1.7278  2.3578  2.3054
   79MOL0     H10405   8.768   8.367   9.140  1.5757  0.0409  0.2516
   79MOL0     H10406   8.932   8.497   9.263  0.0684  1.0230  3.1475
   79MOL0     H10407   8.834   8.636   9.201 -2.9625 -0.0552 -0.0396
   79MOL0     H10408   8.722   8.401   9.361  0.1360  0.1245 -0.1182
   79MOL0     H10409   8.626   8.544   9.296 -0.8386 -1.7274  1.2812
   79MOL0     H10410   8.855   9.122   8.717  0.7789 -0.9457  1.1691
   79MOL0     H10411   8.817   9.319   8.586  0.4633  1.0056 -0.4456
   79MOL0     H10412   8.902   9.681   8.272  0.6831 -1.9483  0.4060
   79MOL0     H10413   8.787   9.855   8.090  1.1960 -0.7176 -0.8673
   79MOL0     H10414   7.375   9.615   6.871  4.2657  0.5379 -3.0452
   79MOL0     H10415   7.145   9.512   6.842 -0.3704  1.4752 -1.9236
   79MOL0     H10416   6.778   9.331   6.968 -1.4397 -0.9418  1.5714
   79MOL0     H10417   6.579   9.224   6.928  0.3764 -0.0680 -0.6661
   79MOL0     H10418   6.590   8.817   6.719 -0.7288 -3.2664  0.5729
   79MOL0     H10419   6.424   8.835   6.749  1.1270 -0.0725 -4.3009
   79MOL0     H10420   6.625   8.765   6.971  1.4368  0.3963 -2.3317
   79MOL0     H10421   6.450   8.750   6.969 -1.3697  1.0537 -2.1080
   79MOL0     H10422   6.665   8.587   6.811 -0.5896 -2.3547 -0.1731
   79MOL0     H10423   6.507   8.594   6.740  2.2950  2.6318 -1.3445
   79MOL0     H10424   6.561   8.385   6.891  1.8073  0.0230  1.3752
   79MOL0     H10425   6.575   8.490   7.026 -0.3068 -3.0315  0.6698
   79MOL0     H10426   6.150   8.458   7.011  0.8187  5.0842 -0.6237
   79MOL0     H10427   6.776   8.853   6.831 -3.0364  0.3544  0.9627
   79MOL0     H10428   6.996   8.991   6.820 -1.1792  0.5166 -0.1839
   80MOL0     O10429   0.554  11.009   3.856  0.0916  0.0934 -0.8135
   80MOL0     C10430   0.575  10.960   3.743  0.8890 -0.5341 -0.0371
   80MOL0     O10431   0.588  11.038   3.632  0.1647  0.4127 -0.2538
   80MOL0     C10432   0.558  11.169   3.625  0.4201  0.5688  0.3360
   80MOL0     C10433   0.634  11.264   3.696 -0.5158  0.6926 -0.3558
   80MOL0     C10434   0.603  11.404   3.690  0.1040 -0.3059 -0.4961
   80MOL0     C10435   0.508  11.450   3.611 -0.5659  0.5892  0.1309
   80MOL0     O10436   0.472  11.588   3.609 -0.3393  0.0447  0.5563
   80MOL0     C10437   0.542  11.671   3.507 -0.1973 -0.1512 -0.3351
   80MOL0     C10438   0.543  11.822   3.525  0.4829  0.2726 -0.6922
   80MOL0     C10439   0.572  11.860   3.671 -0.3446 -0.2582 -0.3237
   80MOL0     C10440   0.596  12.004   3.700 -0.6412 -0.5147 -0.3389
   80MOL0     C10441   0.648  12.036   3.844  0.3572 -0.4739 -0.3485
   80MOL0     C10442   0.611  12.176   3.886  0.5234 -0.0381 -0.2901
   80MOL0     C10443   0.649  12.278   3.781 -0.0020  0.4924 -1.3954
   80MOL0     C10444   0.643  12.420   3.845  0.0380 -0.4452 -0.2696
   80MOL0     N10445   0.759  12.457   3.932 -0.2031  0.7242  0.2396
   80MOL0     C10446   0.747  12.459   4.067  0.4901 -0.4663  0.1002
   80MOL0     C10447   0.843  12.538   4.121  0.2150 -0.2971  0.3799
   80MOL0     C10448   0.862  12.554   4.269 -0.1351  0.2035 -0.2629
   80MOL0     C10449   0.854  12.702   4.303  0.1626 -0.1572 -0.5419
   80MOL0     C10450   0.712  12.755   4.294 -0.3480  0.7930  0.7236
   80MOL0     C10451   0.689  12.895   4.353  0.2857  0.0608 -0.0719
   80MOL0     O10452   0.557  12.935   4.314 -0.2506 -0.0872  0.8071
   80MOL0     C10453   0.498  13.061   4.348 -0.4404  0.5944  0.3642
   80MOL0     C10454   0.583  13.167   4.341  0.2741 -0.5559  0.4479
   80MOL0     C10455   0.542  13.300   4.357  0.4262  0.0699 -0.3834
   80MOL0     C10456   0.411  13.329   4.381 -0.0031  0.0048 -0.0516
   80MOL0     C10457   0.365  13.468   4.398  1.6861 -0.7406  0.5417
   80MOL0     O10458   0.449  13.569   4.363 -0.6070 -0.6383 -1.0055
   80MOL0     C10459   0.403  13.699   4.342 -0.2825 -0.8037  0.8942
   80MOL0     C10460   0.453  13.810   4.406  0.2123 -0.4855 -1.3177
   80MOL0     C10461   0.393  13.935   4.376 -0.6173 -0.0638  0.6765
   80MOL0     C10462   0.292  13.947   4.277 -0.2285  0.4675 -0.4753
   80MOL0     O10463   0.231  14.072   4.250 -0.2790  1.0890 -0.0995
   80MOL0     C10464   0.222  14.105   4.110 -0.8441 -0.5949  0.2699
   80MOL0     C10465   0.346  14.179   4.050 -0.1751 -0.6243  0.3676
   80MOL0     C10466   0.479  14.116   4.098 -0.4835 -0.5037 -0.5234
   80MOL0     C10467   0.603  14.166   4.020 -0.0116  0.3944  0.3905
   80MOL0     C10468   0.735  14.087   4.060 -0.3829 -0.4020  0.4487
   80MOL0     C10469   0.754  14.074   4.213 -0.0292 -0.2297 -0.0693
   80MOL0     C10470   0.894  14.041   4.249 -0.2765 -0.6516  0.2475
   80MOL0     C10471   0.925  14.058   4.397  0.2737 -0.9703  0.6007
   80MOL0    Cl10472   1.088  14.001   4.423 -0.1091  0.1867  0.0008
   80MOL0     C10473   0.251  13.835   4.205 -0.1772  0.0420  0.9265
   80MOL0     C10474   0.304  13.711   4.243 -0.7402 -0.3386 -0.0008
   80MOL0     O10475   0.240  13.487   4.423 -0.5400  0.3745  0.4741
   80MOL0     C10476   0.321  13.220   4.385  0.1474 -0.0772 -0.5025
   80MOL0     C10477   0.364  13.086   4.384 -1.1572  0.2469 -0.4683
   80MOL0     N10478   0.907  12.595   4.007 -0.7304  0.7207  0.1176
   80MOL0     N10479   0.847  12.555   3.897 -0.1816  0.3525 -0.9810
   80MOL0     C10480   0.428  11.365   3.532 -1.1178  0.7474 -0.8340
   80MOL0     C10481   0.460  11.220   3.534  0.0739 -0.1742  0.1424
   80MOL0     C10482   0.584  10.817   3.708  0.5796  0.2409 -0.7527
   80MOL0     C10483   0.598  10.716   3.803  0.6821  0.2064  0.1981
   80MOL0     C10484   0.588  10.583   3.767 -0.1970  0.7423  1.0434
   80MOL0     C10485   0.593  10.541   3.625 -1.0300  0.2178 -0.1266
   80MOL0     O10486   0.587  10.403   3.611 -1.7872  0.4396 -0.2881
   80MOL0     C10487   0.628  10.351   3.488  0.1379 -0.3750  0.2699
   80MOL0     C10488   0.626  10.198   3.509  0.1965 -0.0628  0.3222
   80MOL0     C10489   0.491  10.131   3.479 -1.0719 -0.9686  0.0136
   80MOL0     C10490   0.508   9.985   3.474  0.1764  0.4100  1.1612
   80MOL0     C10491   0.567   9.948   3.338  0.2611  0.6659  0.0105
   80MOL0     C10492   0.618   9.939   3.232 -0.6599 -0.4096  1.1218
   80MOL0     C10493   0.589  10.647   3.533 -0.0186 -0.3520  0.7837
   80MOL0     C10494   0.578  10.778   3.577 -0.5763  0.3467 -0.4543
   80MOL0     H10495   0.713  11.221   3.757  1.9627 -0.0076 -3.8005
   80MOL0     H10496   0.654  11.474   3.755  2.4365 -2.2527 -0.0842
   80MOL0     H10497   0.490  11.648   3.413  1.6910 -1.5647 -1.0870
   80MOL0     H10498   0.647  11.646   3.490  1.6447  4.1197  2.9776
   80MOL0     H10499   0.446  11.866   3.501  1.0531  0.6365 -2.4745
   80MOL0     H10500   0.620  11.864   3.460 -0.9612  3.5162 -0.5209
   80MOL0     H10501   0.658  11.797   3.694 -0.1406  1.0401  3.0005
   80MOL0     H10502   0.488  11.821   3.731 -1.2630  0.8502 -0.8452
   80MOL0     H10503   0.666  12.041   3.624 -1.5169 -0.3769 -1.1043
   80MOL0     H10504   0.505  12.061   3.683 -3.0089 -3.5694  1.0851
   80MOL0     H10505   0.755  12.017   3.832  0.3714 -0.7446  0.2100
   80MOL0     H10506   0.606  11.974   3.923  1.5717 -0.3264  0.4397
   80MOL0     H10507   0.635  12.195   3.991  0.4780 -1.1990 -0.0519
   80MOL0     H10508   0.504  12.158   3.878  0.1888  1.3222  0.8548
   80MOL0     H10509   0.748  12.252   3.742 -0.5797 -1.0409 -1.9244
   80MOL0     H10510   0.583  12.267   3.695 -1.0958  0.4224 -0.5733
   80MOL0     H10511   0.550  12.442   3.898  0.3906  1.2669 -0.3173
   80MOL0     H10512   0.634  12.485   3.757 -0.2485 -0.9853 -0.6444
   80MOL0     H10513   0.678  12.404   4.130  2.3246 -0.5186  2.2035
   80MOL0     H10514   0.968  12.533   4.283  0.4099  2.2386 -0.9525
   80MOL0     H10515   0.800  12.494   4.336  3.4715 -1.8209  1.5641
   80MOL0     H10516   0.925  12.756   4.238  1.2106 -0.0549  0.6566
   80MOL0     H10517   0.874  12.706   4.410  0.4354 -2.7885 -0.4397
   80MOL0     H10518   0.679  12.728   4.193 -2.0245 -4.3018  2.3126
   80MOL0     H10519   0.638  12.693   4.345  0.8553  0.0601  1.6396
   80MOL0     H10520   0.757  12.975   4.322  0.0967  1.1839  2.1959
   80MOL0     H10521   0.691  12.896   4.462 -0.5366 -1.0423 -0.0322
   80MOL0     H10522   0.686  13.154   4.309  0.1798 -0.5104  0.1188
   80MOL0     H10523   0.624  13.370   4.344  3.8656 -3.0988  1.9430
   80MOL0     H10524   0.522  13.807   4.489  0.8401  0.6005 -1.7800
   80MOL0     H10525   0.426  14.028   4.421  1.6770 -1.0476  1.1830
   80MOL0     H10526   0.140  14.178   4.110 -1.5482 -1.3583  0.8574
   80MOL0     H10527   0.182  14.023   4.049  1.4375 -2.7766  1.5108
   80MOL0     H10528   0.349  14.285   4.075  2.1501 -0.8579  1.3420
   80MOL0     H10529   0.349  14.172   3.941  0.7351 -0.0184  0.3405
   80MOL0     H10530   0.483  14.007   4.096  0.4034 -0.7101  3.8612
   80MOL0     H10531   0.486  14.146   4.203  0.2123  0.4330 -0.8239
   80MOL0     H10532   0.591  14.160   3.912  1.7112  0.4084  0.1746
   80MOL0     H10533   0.624  14.272   4.038  1.1910 -0.2683  3.7076
   80MOL0     H10534   0.818  14.133   4.006 -0.9560 -1.1723 -1.1627
   80MOL0     H10535   0.741  13.988   4.013 -1.6408 -0.8562  1.1791
   80MOL0     H10536   0.689  13.999   4.259  2.5215 -1.0833  2.3963
   80MOL0     H10537   0.714  14.163   4.263  0.1911 -0.3993  0.4176
   80MOL0     H10538   0.934  13.948   4.209 -0.3090  0.6202 -3.0146
   80MOL0     H10539   0.957  14.112   4.194 -2.7439 -0.7735 -2.9868
   80MOL0     H10540   0.857  14.001   4.462 -0.3315 -0.3606  0.5131
   80MOL0     H10541   0.924  14.164   4.425 -1.2669 -1.4577  2.7252
   80MOL0     H10542   0.183  13.841   4.120 -0.8554  1.0185  1.5262
   80MOL0     H10543   0.261  13.630   4.186 -0.4835  1.0714 -2.3072
   80MOL0     H10544   0.215  13.245   4.388  0.2652  0.4629  2.4470
   80MOL0     H10545   0.316  12.989   4.386  4.2526 -2.7944  1.0604
   80MOL0     H10546   0.346  11.403   3.471 -2.1500 -1.5730 -0.9929
   80MOL0     H10547   0.393  11.152   3.481  0.9863  1.1954 -2.9880
   80MOL0     H10548   0.613  10.750   3.905 -1.3491 -0.3667  0.7380
   80MOL0     H10549   0.569  10.506   3.841 -2.1388 -0.9031 -1.0237
   80MOL0     H10550   0.729  10.385   3.464  0.8472 -3.3418 -1.5324
   80MOL0     H10551   0.562  10.392   3.410  0.0337  1.2206  1.1682
   80MOL0     H10552   0.700  10.154   3.441  0.3455 -0.6647  0.8639
   80MOL0     H10553   0.670  10.183   3.608  1.3033  3.7277  0.5462
   80MOL0     H10554   0.463  10.170   3.380  1.6313  1.2698  0.0036
   80MOL0     H10555   0.412  10.161   3.549  1.4290  1.0903  2.1519
   80MOL0     H10556   0.584   9.951   3.546  1.2478  0.0075 -0.1068
   80MOL0     H10557   0.415   9.933   3.498 -0.7925  2.2356  1.5473
   80MOL0     H10558   0.673   9.922   3.142  1.5362 -1.5524  2.6104
   80MOL0     H10559   0.602  10.638   3.426 -0.4221  3.7745  0.2442
   80MOL0     H10560   0.579  10.844   3.491  2.1381 -1.3855 -1.9031
   81MOL0     O10561   4.342  10.631   1.800 -0.3744  0.1868 -0.3957
   81MOL0     C10562   4.387  10.619   1.687 -0.0019 -0.8215 -0.4686
   81MOL0     O10563   4.478  10.523   1.642  0.5188  0.3065 -0.2305
   81MOL0     C10564   4.524  10.425   1.727 -0.6486 -0.8806 -0.7473
   81MOL0     C10565   4.610  10.344   1.672  0.1850  1.4744  0.2405
   81MOL0     C10566   4.673  10.238   1.731 -0.2865  0.0452  0.2088
   81MOL0     C10567   4.641  10.200   1.859  0.7195 -0.9243 -0.0209
   81MOL0     O10568   4.687  10.096   1.940  0.2766  0.1371  0.7001
   81MOL0     C10569   4.802  10.030   1.892  0.3596 -0.3495 -0.4225
   81MOL0     C10570   4.931  10.106   1.923  0.2669 -0.5038 -0.0650
   81MOL0     C10571   4.941  10.162   2.065  0.2492  0.1203  0.9569
   81MOL0     C10572   5.031  10.281   2.079 -1.0100 -0.8241  0.3369
   81MOL0     C10573   5.058  10.325   2.229 -0.5464 -0.5025 -1.1800
   81MOL0     C10574   5.201  10.395   2.236  0.2662 -0.3916  0.1779
   81MOL0     C10575   5.236  10.459   2.372 -0.6998  1.5082 -0.0839
   81MOL0     C10576   5.378  10.520   2.384  0.9674  0.2999  0.1652
   81MOL0     N10577   5.375  10.669   2.367  0.1874 -0.2054  0.4874
   81MOL0     C10578   5.332  10.765   2.454  0.0923 -0.9542  0.3012
   81MOL0     C10579   5.348  10.878   2.382  0.7533 -0.2505  0.0499
   81MOL0     C10580   5.318  11.008   2.440 -0.2060  0.2830 -0.7477
   81MOL0     C10581   5.168  11.045   2.421 -0.0057 -0.8633 -0.0776
   81MOL0     C10582   5.125  11.091   2.289 -0.9392 -0.2092  0.9624
   81MOL0     C10583   5.202  11.219   2.232  1.1368 -0.7770 -0.4876
   81MOL0     O10584   5.165  11.340   2.309  0.1644 -0.5463  0.2802
   81MOL0     C10585   5.233  11.462   2.291 -0.7482  0.3848  0.0925
   81MOL0     C10586   5.316  11.487   2.188  0.5303  0.0216 -0.1341
   81MOL0     C10587   5.380  11.612   2.177 -0.0787 -0.6481  0.1434
   81MOL0     C10588   5.364  11.718   2.270 -0.2467  1.3843 -0.4680
   81MOL0     C10589   5.454  11.837   2.261  0.4473  0.9338 -0.5895
   81MOL0     O10590   5.503  11.878   2.138 -0.2189 -0.0348 -0.3438
   81MOL0     C10591   5.545  12.006   2.122  1.1623 -0.1614  0.1242
   81MOL0     C10592   5.654  12.055   2.182 -1.1425  0.4358  0.0263
   81MOL0     C10593   5.694  12.185   2.157 -0.6135 -0.6579  1.1319
   81MOL0     C10594   5.629  12.277   2.065 -0.3251 -0.0837  0.2241
   81MOL0     O10595   5.666  12.401   2.052 -0.2377 -0.3315 -0.6936
   81MOL0     C10596   5.566  12.500   2.042  0.4881 -0.6656  0.7475
   81MOL0     C10597   5.612  12.625   2.110  0.2375  0.4705 -0.4331
   81MOL0     C10598   5.486  12.700   2.148 -0.6342 -1.1149  0.2291
   81MOL0     C10599   5.536  12.840   2.209 -0.0857 -0.5276 -0.3951
   81MOL0     C10600   5.429  12.881   2.318 -1.5177  0.2243 -0.9061
   81MOL0     C10601   5.469  13.013   2.384 -0.1342 -0.2193  0.4084
   81MOL0     C10602   5.570  13.006   2.496 -0.4848 -0.2324 -0.4326
   81MOL0     C10603   5.615  13.139   2.549  0.3391  0.0465 -0.2069
   81MOL0    Cl10604   5.767  13.144   2.641 -0.0217 -0.1101 -0.0166
   81MOL0     C10605   5.508  12.230   2.003  0.1828 -0.3197 -0.3672
   81MOL0     C10606   5.468  12.098   2.037  0.1101  0.6117  0.1239
   81MOL0     O10607   5.472  11.883   2.371 -0.0654  0.3854  0.1133
   81MOL0     C10608   5.264  11.693   2.364 -0.2740 -0.1307 -0.8237
   81MOL0     C10609   5.204  11.566   2.371  0.9322 -0.5445 -0.3941
   81MOL0     N10610   5.392  10.852   2.253 -0.1209 -0.5600 -0.3887
   81MOL0     N10611   5.399  10.723   2.242 -0.2077 -0.9509  0.1954
   81MOL0     C10612   4.538  10.274   1.919 -0.1073 -0.5740 -0.6250
   81MOL0     C10613   4.479  10.395   1.856 -0.3627 -0.1162  0.6181
   81MOL0     C10614   4.324  10.726   1.597 -0.0827 -0.0104 -0.1874
   81MOL0     C10615   4.239  10.818   1.643  0.1829 -0.2958 -0.4618
   81MOL0     C10616   4.181  10.910   1.560 -0.8077 -0.1016  0.9430
   81MOL0     C10617   4.228  10.918   1.423  0.2315 -0.3037  0.4015
   81MOL0     O10618   4.175  11.010   1.329 -0.1165  0.4083  0.1031
   81MOL0     C10619   4.032  11.024   1.336 -0.0421  0.0496 -0.5090
   81MOL0     C10620   3.971  11.117   1.226  0.3786 -0.0982  0.7360
   81MOL0     C10621   3.828  11.132   1.236 -0.8350 -0.3540 -0.7207
   81MOL0     C10622   3.773  11.257   1.164 -0.4885 -0.2407 -0.1332
   81MOL0     C10623   3.627  11.246   1.144  0.2340  0.6861  0.3470
   81MOL0     C10624   3.511  11.235   1.116  0.3869 -0.3233  0.7757
   81MOL0     C10625   4.307  10.820   1.369 -1.0357 -0.0844  0.4214
   81MOL0     C10626   4.354  10.722   1.461  0.0317 -0.1394  0.7581
   81MOL0     H10627   4.640  10.355   1.568 -1.1799 -0.6065 -0.4550
   81MOL0     H10628   4.755  10.188   1.680  0.4113 -1.3202  2.5430
   81MOL0     H10629   4.797  10.009   1.785 -0.8589 -2.1752 -0.0594
   81MOL0     H10630   4.809   9.929   1.934  4.7425 -0.2547 -0.4530
   81MOL0     H10631   4.948  10.189   1.854  0.4371  0.7616  1.4264
   81MOL0     H10632   5.004  10.026   1.915  0.5392 -0.1207 -1.6508
   81MOL0     H10633   4.984  10.090   2.135 -1.2151 -0.0962  1.6828
   81MOL0     H10634   4.845  10.184   2.113  0.2158 -2.8575  2.4518
   81MOL0     H10635   5.121  10.230   2.043 -0.9377 -4.1572  4.4817
   81MOL0     H10636   5.006  10.374   2.028  0.1441  0.5982  2.2444
   81MOL0     H10637   5.033  10.245   2.298  0.5558 -0.0582 -0.2399
   81MOL0     H10638   4.991  10.411   2.239 -0.9893 -0.6659 -2.4930
   81MOL0     H10639   5.205  10.466   2.152 -1.5015  1.0378  1.2276
   81MOL0     H10640   5.267  10.311   2.212  1.1898  0.3511  0.0264
   81MOL0     H10641   5.168  10.540   2.399  1.5148  4.0590 -1.6466
   81MOL0     H10642   5.226  10.379   2.446  1.8713  2.8668  1.8887
   81MOL0     H10643   5.440  10.471   2.307 -2.5861 -4.1539 -0.2727
   81MOL0     H10644   5.418  10.496   2.483 -0.4288 -1.6556  0.3228
   81MOL0     H10645   5.277  10.754   2.547 -0.0536 -0.6039  0.2588
   81MOL0     H10646   5.377  11.079   2.380 -1.8053  1.9488 -0.4500
   81MOL0     H10647   5.343  11.007   2.546 -1.5898 -2.2342 -0.3848
   81MOL0     H10648   5.137  11.130   2.483  0.1516 -1.5413  0.9480
   81MOL0     H10649   5.109  10.958   2.452 -1.2835  0.6616  2.0496
   81MOL0     H10650   5.123  11.023   2.204 -1.1800 -0.2813  1.0273
   81MOL0     H10651   5.020  11.115   2.307 -0.4427  1.3701  2.0024
   81MOL0     H10652   5.166  11.231   2.129  1.1091 -0.7207 -0.4718
   81MOL0     H10653   5.311  11.214   2.227  1.0819 -0.6081 -3.3218
   81MOL0     H10654   5.343  11.410   2.117  0.6510 -2.3413  2.3279
   81MOL0     H10655   5.471  11.621   2.118  1.6760  1.0139  2.9030
   81MOL0     H10656   5.706  11.987   2.249 -1.7784  0.7822  0.8897
   81MOL0     H10657   5.779  12.221   2.214 -0.9070  2.5891 -0.2577
   81MOL0     H10658   5.477  12.466   2.097  1.1156 -0.4650  1.9222
   81MOL0     H10659   5.544  12.523   1.937 -2.0706  1.2446  1.5857
   81MOL0     H10660   5.659  12.696   2.041  0.1905  3.3675  2.2977
   81MOL0     H10661   5.682  12.604   2.192  0.5095  1.2592 -0.4526
   81MOL0     H10662   5.422  12.641   2.214 -2.1324 -0.4805 -0.6020
   81MOL0     H10663   5.430  12.719   2.056 -1.0584  1.5764  0.9491
   81MOL0     H10664   5.640  12.829   2.239 -0.3996 -0.8159  0.6285
   81MOL0     H10665   5.551  12.921   2.137  1.2852  0.0800  0.5385
   81MOL0     H10666   5.444  12.801   2.390  0.9265  3.3410  2.4172
   81MOL0     H10667   5.331  12.888   2.271 -1.2314  0.5843 -1.4796
   81MOL0     H10668   5.376  13.041   2.434 -0.9712 -1.5491 -0.3236
   81MOL0     H10669   5.485  13.089   2.307  0.1606  1.5633  2.1544
   81MOL0     H10670   5.537  12.953   2.586  0.7911 -0.5566 -0.1441
   81MOL0     H10671   5.656  12.956   2.452 -1.6272 -3.7190  0.9184
   81MOL0     H10672   5.534  13.179   2.611 -1.2349  0.1986 -2.2651
   81MOL0     H10673   5.628  13.213   2.470 -2.0900  0.6981 -0.0836
   81MOL0     H10674   5.437  12.295   1.952 -0.4586  0.7845  1.7576
   81MOL0     H10675   5.386  12.060   1.976 -0.6542  1.0220  0.8773
   81MOL0     H10676   5.237  11.772   2.434  4.7825  0.5245  0.8217
   81MOL0     H10677   5.127  11.560   2.447 -0.1318  4.3231 -0.7630
   81MOL0     H10678   4.505  10.249   2.019 -2.6949  1.1303 -0.9609
   81MOL0     H10679   4.392  10.439   1.904 -0.9681  2.3964 -2.4314
   81MOL0     H10680   4.214  10.821   1.748  1.1037 -2.7722 -0.1140
   81MOL0     H10681   4.116  10.986   1.602 -0.6500  0.5763 -0.0030
   81MOL0     H10682   3.997  11.055   1.434 -0.6878 -2.1968  0.0269
   81MOL0     H10683   3.979  10.930   1.318  2.4038 -1.4071 -0.5732
   81MOL0     H10684   4.020  11.214   1.231  1.3312 -0.2727 -2.7659
   81MOL0     H10685   3.985  11.085   1.123  0.3487 -2.3468  1.3738
   81MOL0     H10686   3.794  11.152   1.338  1.7991  1.0266 -0.0419
   81MOL0     H10687   3.781  11.042   1.194  2.8584 -1.4654 -2.9112
   81MOL0     H10688   3.793  11.352   1.214 -1.4056 -0.1089 -0.0125
   81MOL0     H10689   3.821  11.268   1.066  1.9076  3.1295  1.2638
   81MOL0     H10690   3.408  11.221   1.087  0.7934 -0.2067 -0.8426
   81MOL0     H10691   4.340  10.812   1.266 -1.9579  2.1914 -0.1149
   81MOL0     H10692   4.426  10.645   1.432  0.5253  1.0071 -1.2692
   82MOL0     O10693   9.649  10.936   1.917  0.0204  0.2092 -0.5628
   82MOL0     C10694   9.670  11.057   1.935  0.3483  1.6532 -1.5704
   82MOL0     O10695   9.744  11.143   1.863 -0.5468 -0.6239 -0.1756
   82MOL0     C10696   9.792  11.108   1.736  0.4025  0.3309  0.7486
   82MOL0     C10697   9.883  11.196   1.673  0.5699  0.0172 -0.1339
   82MOL0     C10698   9.930  11.186   1.537  0.4426 -0.0940 -0.5381
   82MOL0     C10699   9.889  11.084   1.454  0.4385  0.4026  0.4043
   82MOL0     O10700   9.931  11.051   1.328 -0.4505  0.7199  0.7383
   82MOL0     C10701  10.036  11.137   1.274 -0.2061  0.9263  0.3919
   82MOL0     C10702  10.068  11.099   1.124 -0.9550  0.5514 -0.6835
   82MOL0     C10703   9.955  11.080   1.019 -0.1031 -0.6298  1.2960
   82MOL0     C10704   9.973  11.194   0.915 -1.0162  0.0945  0.0669
   82MOL0     C10705   9.883  11.201   0.793  0.4515  0.2570  0.4519
   82MOL0     C10706   9.911  11.325   0.699 -0.2284  0.8219 -0.0690
   82MOL0     C10707   9.830  11.307   0.574  0.2473  0.0948 -0.4266
   82MOL0     C10708   9.899  11.370   0.448 -0.4077 -0.5568 -0.4462
   82MOL0     N10709   9.837  11.334   0.331  1.0643 -0.7384  0.7164
   82MOL0     C10710   9.707  11.363   0.314  0.1328 -0.7739  0.2481
   82MOL0     C10711   9.678  11.345   0.178 -0.2173  0.1221 -0.2025
   82MOL0     C10712   9.537  11.352   0.126 -0.0896 -0.2479  0.2697
   82MOL0     C10713   9.509  11.313  -0.017  0.9568  0.0546  0.6658
   82MOL0     C10714   9.548  11.408  -0.134  0.3550  0.5928 -0.9959
   82MOL0     C10715   9.475  11.364  -0.262  1.0473  1.2564 -0.2094
   82MOL0     O10716   9.525  11.443  -0.370 -0.3010  0.1341  0.2323
   82MOL0     C10717   9.486  11.380  -0.487 -0.3391 -0.1773 -0.0231
   82MOL0     C10718   9.577  11.293  -0.552 -0.3734  0.5697  0.1634
   82MOL0     C10719   9.530  11.232  -0.665 -0.1293  0.6941  0.3153
   82MOL0     C10720   9.391  11.232  -0.707 -0.0066  0.5370  0.8385
   82MOL0     C10721   9.346  11.174  -0.835 -0.2201  0.0772 -0.7963
   82MOL0     O10722   9.435  11.157  -0.930 -0.4076 -0.1559 -0.8130
   82MOL0     C10723   9.421  11.087  -1.051 -0.4171 -1.7536 -0.2849
   82MOL0     C10724   9.482  11.130  -1.167 -0.1721  0.6456  0.6266
   82MOL0     C10725   9.479  11.046  -1.277  0.2448 -0.3542 -0.5803
   82MOL0     C10726   9.408  10.929  -1.281  0.6147 -0.1174 -0.2904
   82MOL0     O10727   9.413  10.857  -1.397 -0.1281  0.0479 -0.8218
   82MOL0     C10728   9.368  10.722  -1.390 -0.3021 -0.6573 -0.8091
   82MOL0     C10729   9.387  10.674  -1.538 -0.3494 -1.0805 -0.3827
   82MOL0     C10730   9.502  10.579  -1.554 -0.5121  0.4577  0.6811
   82MOL0     C10731   9.490  10.509  -1.698 -0.3007 -0.3390 -0.4345
   82MOL0     C10732   9.617  10.428  -1.740 -0.6724  0.1081 -0.0547
   82MOL0     C10733   9.628  10.410  -1.891  0.0176 -0.0811  0.1018
   82MOL0     C10734   9.776  10.382  -1.924  0.1782 -0.7598  0.2558
   82MOL0     C10735   9.868  10.505  -1.930  0.8613  0.2366 -0.0414
   82MOL0    Cl10736  10.026  10.453  -1.982 -0.2182  0.0530 -0.0950
   82MOL0     C10737   9.345  10.888  -1.160 -0.0469  0.4076 -0.4226
   82MOL0     C10738   9.350  10.972  -1.053 -0.2691  0.8293  0.2169
   82MOL0     O10739   9.227  11.144  -0.841 -0.4380  0.0824  0.0962
   82MOL0     C10740   9.315  11.332  -0.655 -0.1994  0.1268 -0.6191
   82MOL0     C10741   9.357  11.406  -0.541  0.3601 -0.1023  0.1392
   82MOL0     N10742   9.795  11.297   0.122  0.6073  0.2494  0.7846
   82MOL0     N10743   9.892  11.300   0.213 -0.2625  0.1559  0.1631
   82MOL0     C10744   9.796  10.993   1.515  0.0302 -0.0644  0.7820
   82MOL0     C10745   9.747  10.999   1.648 -1.1170 -0.2567  0.0619
   82MOL0     C10746   9.604  11.113   2.057 -0.5787  0.3543  0.3194
   82MOL0     C10747   9.481  11.063   2.110 -0.6787 -0.6443  0.3234
   82MOL0     C10748   9.431  11.123   2.225 -0.6923  0.0821  0.2163
   82MOL0     C10749   9.515  11.214   2.296 -0.0112  0.7929 -0.8901
   82MOL0     O10750   9.458  11.285   2.412 -0.0157 -0.7389  0.0198
   82MOL0     C10751   9.353  11.224   2.495  0.8461 -1.0467 -0.0755
   82MOL0     C10752   9.320  11.311   2.611  0.4320  0.0407  0.1548
   82MOL0     C10753   9.420  11.326   2.724 -0.5372 -0.2746 -0.1672
   82MOL0     C10754   9.383  11.448   2.818  0.2122  0.3373  0.1119
   82MOL0     C10755   9.515  11.490   2.871  0.5832  0.8735 -1.0144
   82MOL0     C10756   9.620  11.522   2.928 -0.2471 -0.1101 -0.2788
   82MOL0     C10757   9.629  11.267   2.245  0.3707 -0.8472  0.3761
   82MOL0     C10758   9.669  11.223   2.121 -0.7601  1.1262 -0.3749
   82MOL0     H10759   9.913  11.289   1.720 -1.3308 -0.5054  2.3301
   82MOL0     H10760  10.015  11.248   1.512 -0.5266  2.2476  1.5412
   82MOL0     H10761  10.134  11.135   1.323 -0.0815  1.2155  0.1568
   82MOL0     H10762   9.995  11.238   1.281  1.8339  1.7005  2.8513
   82MOL0     H10763  10.119  11.002   1.127 -0.5155  0.7703 -0.9842
   82MOL0     H10764  10.147  11.169   1.094  1.9016 -2.0135  0.2637
   82MOL0     H10765   9.853  11.093   1.055 -0.9554 -1.1930 -0.7500
   82MOL0     H10766   9.970  10.985   0.966 -0.3929  1.2840 -2.6423
   82MOL0     H10767   9.958  11.285   0.974 -2.3152 -0.1981  0.2293
   82MOL0     H10768  10.077  11.191   0.883 -0.0524 -2.2912  3.0133
   82MOL0     H10769   9.778  11.209   0.820  1.3149  2.7915  3.6635
   82MOL0     H10770   9.904  11.106   0.743  0.3254  0.2917  0.3323
   82MOL0     H10771  10.019  11.326   0.682  0.9957 -0.4968  5.5437
   82MOL0     H10772   9.869  11.413   0.748  0.8260  1.0918  0.3756
   82MOL0     H10773   9.803  11.201   0.568  4.3623 -1.1548  0.2819
   82MOL0     H10774   9.734  11.357   0.589  0.6609  0.4381  1.2092
   82MOL0     H10775  10.005  11.345   0.443 -0.6445 -1.6210 -0.4325
   82MOL0     H10776   9.897  11.479   0.458  3.3416 -0.2727 -1.2395
   82MOL0     H10777   9.632  11.386   0.389  0.3471  0.0248  0.2392
   82MOL0     H10778   9.505  11.456   0.139  2.2473  0.1509  4.9799
   82MOL0     H10779   9.472  11.301   0.198 -1.5586  0.3978 -0.5506
   82MOL0     H10780   9.400  11.298  -0.015  1.0414 -1.0585 -0.8576
   82MOL0     H10781   9.550  11.212  -0.029 -2.5955 -1.6611  1.6014
   82MOL0     H10782   9.496  11.503  -0.114 -0.8364 -0.6053  2.2448
   82MOL0     H10783   9.656  11.418  -0.148  0.4831  1.4477  0.3645
   82MOL0     H10784   9.368  11.380  -0.249  0.3502 -1.8272 -1.3467
   82MOL0     H10785   9.498  11.257  -0.265 -0.6944  0.7734  1.4748
   82MOL0     H10786   9.674  11.271  -0.509 -1.2680 -0.5752  1.6886
   82MOL0     H10787   9.590  11.153  -0.711 -0.7339 -0.0186  0.7354
   82MOL0     H10788   9.534  11.224  -1.176 -0.4375  0.7486  0.1584
   82MOL0     H10789   9.541  11.064  -1.365  0.1306 -0.0014 -0.5919
   82MOL0     H10790   9.266  10.731  -1.352  0.8298 -2.9509  3.2886
   82MOL0     H10791   9.415  10.653  -1.320  0.0008 -1.3618 -1.6798
   82MOL0     H10792   9.402  10.766  -1.596 -2.5620 -0.4291 -0.0575
   82MOL0     H10793   9.294  10.638  -1.583 -0.9637  2.1347 -2.0179
   82MOL0     H10794   9.525  10.505  -1.477  1.3201 -0.0327 -0.2684
   82MOL0     H10795   9.596  10.636  -1.557  0.6321 -1.3909 -0.6203
   82MOL0     H10796   9.396  10.453  -1.693  0.9316 -2.5998 -1.3518
   82MOL0     H10797   9.481  10.592  -1.769 -0.5235 -0.5265 -0.6274
   82MOL0     H10798   9.614  10.325  -1.704  4.7080 -0.4995 -0.5498
   82MOL0     H10799   9.705  10.471  -1.692  0.8841 -2.1312 -0.7337
   82MOL0     H10800   9.596  10.496  -1.951 -2.6765 -1.1999 -0.2001
   82MOL0     H10801   9.557  10.331  -1.915 -2.8361  2.2169  0.4079
   82MOL0     H10802   9.814  10.313  -1.848 -1.6241  1.1661  3.1039
   82MOL0     H10803   9.780  10.341  -2.025 -0.1240  0.4685 -0.2744
   82MOL0     H10804   9.878  10.556  -1.833 -2.3511 -0.6130  0.8701
   82MOL0     H10805   9.829  10.579  -2.000 -0.3784 -0.6494 -0.3123
   82MOL0     H10806   9.304  10.789  -1.142  2.0808 -0.2657  1.0896
   82MOL0     H10807   9.329  10.939  -0.952  1.4463  1.1244  0.7031
   82MOL0     H10808   9.223  11.359  -0.706  0.7414  0.0365 -2.4343
   82MOL0     H10809   9.287  11.481  -0.506 -0.4678 -1.5839  1.8212
   82MOL0     H10810   9.781  10.895   1.471 -0.4694 -0.9146  2.7351
   82MOL0     H10811   9.683  10.921   1.689 -0.2582 -1.9834 -1.7348
   82MOL0     H10812   9.434  10.979   2.061  0.3315 -0.6973 -0.5872
   82MOL0     H10813   9.328  11.112   2.258 -0.8609 -0.6358 -0.5325
   82MOL0     H10814   9.395  11.136   2.543 -2.1632 -0.3465  4.4841
   82MOL0     H10815   9.265  11.198   2.436  2.3636 -0.0985 -2.9363
   82MOL0     H10816   9.299  11.407   2.563 -4.9776 -1.2871 -0.7971
   82MOL0     H10817   9.223  11.281   2.652 -0.8960  0.4314 -2.4602
   82MOL0     H10818   9.524  11.337   2.692 -0.2041 -0.4700  0.8151
   82MOL0     H10819   9.417  11.231   2.777  2.5936 -1.2771 -1.5339
   82MOL0     H10820   9.335  11.522   2.753  0.9867 -4.0565 -6.2523
   82MOL0     H10821   9.307  11.422   2.893  0.2093  3.8609  1.5571
   82MOL0     H10822   9.707  11.551   2.983 -1.3441 -1.2540  2.1987
   82MOL0     H10823   9.690  11.339   2.298  1.0262 -1.2678  0.1893
   82MOL0     H10824   9.750  11.279   2.074 -0.1656  0.4882 -0.1229
   83MOL0     O10825  11.424   9.128   1.189  0.1018 -0.6342  0.2493
   83MOL0     C10826  11.506   9.112   1.095  0.0046 -0.1603 -0.7010
   83MOL0     O10827  11.611   9.026   1.102 -0.6607 -0.0530 -0.1597
   83MOL0     C10828  11.652   8.944   1.212  0.2868 -0.2382  0.2143
   83MOL0     C10829  11.576   8.917   1.338  0.3521  0.3537 -0.1931
   83MOL0     C10830  11.624   8.838   1.434  0.1097 -0.6643 -1.4047
   83MOL0     C10831  11.754   8.779   1.423  0.4135 -1.0379 -0.9403
   83MOL0     O10832  11.809   8.719   1.527 -0.8158  0.4453  0.2518
   83MOL0     C10833  11.827   8.799   1.640 -0.4863  0.3678 -0.0062
   83MOL0     C10834  11.945   8.758   1.738 -0.8526 -0.0622 -0.5792
   83MOL0     C10835  12.085   8.730   1.662  0.8021 -0.0708 -1.3153
   83MOL0     C10836  12.169   8.627   1.718 -0.1888  0.4701  0.2426
   83MOL0     C10837  12.278   8.569   1.625  0.1397 -0.0631 -1.2027
   83MOL0     C10838  12.402   8.491   1.690 -0.4305 -0.2130  0.1783
   83MOL0     C10839  12.490   8.596   1.757 -0.2425  0.1451  0.8218
   83MOL0     C10840  12.614   8.542   1.834  0.2910  0.5874  0.3193
   83MOL0     N10841  12.733   8.504   1.766 -0.1572  0.1082  0.5269
   83MOL0     C10842  12.751   8.383   1.703 -0.0437 -0.4454 -0.3041
   83MOL0     C10843  12.888   8.379   1.676 -0.1286  0.0260 -0.4107
   83MOL0     C10844  12.963   8.297   1.579 -0.8704  0.6647 -0.6647
   83MOL0     C10845  12.893   8.187   1.501 -0.2891  0.7202 -0.5423
   83MOL0     C10846  12.844   8.069   1.594 -0.5990  0.8929  0.0787
   83MOL0     C10847  12.951   8.008   1.693  0.0217 -0.2369  0.1443
   83MOL0     O10848  12.902   7.871   1.717 -0.5173  0.0879 -0.1508
   83MOL0     C10849  12.998   7.771   1.720 -0.8314  0.9202  0.6206
   83MOL0     C10850  12.958   7.641   1.724 -0.5249 -0.6048 -0.0755
   83MOL0     C10851  13.047   7.532   1.721  0.4608  0.5526  0.1428
   83MOL0     C10852  13.184   7.562   1.737 -0.0462  1.1804  0.9256
   83MOL0     C10853  13.282   7.453   1.751 -0.2912 -0.0411  0.0923
   83MOL0     O10854  13.407   7.465   1.690 -0.3893 -0.1370 -0.1659
   83MOL0     C10855  13.526   7.389   1.710  0.6902 -0.8012 -0.6424
   83MOL0     C10856  13.626   7.416   1.620 -0.0268  0.0158 -0.1556
   83MOL0     C10857  13.749   7.352   1.637 -0.0580 -0.4976  0.1240
   83MOL0     C10858  13.776   7.275   1.750  0.1238  0.0199 -0.4778
   83MOL0     O10859  13.900   7.217   1.758  0.3506 -0.1444 -0.2286
   83MOL0     C10860  13.942   7.158   1.881 -0.6585 -0.3850 -0.3895
   83MOL0     C10861  14.067   7.082   1.853 -0.2152  0.2721 -0.4223
   83MOL0     C10862  14.191   7.157   1.799  0.0714 -0.9523  0.0551
   83MOL0     C10863  14.311   7.062   1.812 -0.0116 -0.5708  0.4396
   83MOL0     C10864  14.442   7.121   1.754 -0.1086 -0.3205 -0.6589
   83MOL0     C10865  14.545   7.002   1.755  0.5538  0.4866  0.2144
   83MOL0     C10866  14.683   7.038   1.702 -0.0579  0.0205  1.2708
   83MOL0     C10867  14.748   6.919   1.631 -0.5924  0.5632 -0.2817
   83MOL0    Cl10868  14.908   6.955   1.569 -0.0532 -0.0656  0.2843
   83MOL0     C10869  13.676   7.260   1.842  0.3984  0.5215 -0.5021
   83MOL0     C10870  13.551   7.320   1.826 -1.4831  0.9469  0.5327
   83MOL0     O10871  13.248   7.358   1.831  0.0821 -0.3934 -0.4184
   83MOL0     C10872  13.230   7.697   1.745  0.9646 -0.0962 -1.5831
   83MOL0     C10873  13.138   7.800   1.717 -0.3611  0.2597  1.1839
   83MOL0     N10874  12.942   8.490   1.731  0.0402 -0.4082 -0.1270
   83MOL0     N10875  12.852   8.570   1.765  0.0681  0.5660 -0.4919
   83MOL0     C10876  11.830   8.804   1.312  0.1706  1.1387 -1.7497
   83MOL0     C10877  11.776   8.881   1.216  0.0432 -0.6125 -0.0211
   83MOL0     C10878  11.488   9.181   0.967  0.2099 -0.0079  1.3313
   83MOL0     C10879  11.555   9.145   0.845 -1.1566 -1.3993  0.3357
   83MOL0     C10880  11.538   9.212   0.722 -0.5198 -0.3842  0.1327
   83MOL0     C10881  11.441   9.314   0.714  0.2407  0.4940 -0.1602
   83MOL0     O10882  11.409   9.356   0.594  0.5771  0.1763  0.1877
   83MOL0     C10883  11.317   9.265   0.530  0.2499  0.3432  0.1030
   83MOL0     C10884  11.186   9.331   0.488 -1.0880  0.5725 -0.4242
   83MOL0     C10885  11.204   9.439   0.380 -0.2470 -0.1076 -0.7144
   83MOL0     C10886  11.073   9.516   0.387 -0.7430  0.2659 -0.0456
   83MOL0     C10887  11.038   9.554   0.251 -0.7527 -0.3468 -0.9411
   83MOL0     C10888  11.021   9.568   0.137  0.9956  0.2616  0.1248
   83MOL0     C10889  11.373   9.348   0.829 -0.5044  0.5088 -0.3726
   83MOL0     C10890  11.398   9.287   0.954  0.2359 -0.0213  0.4252
   83MOL0     H10891  11.474   8.954   1.349  0.6134  0.3829  2.8630
   83MOL0     H10892  11.565   8.809   1.520 -2.3186 -0.3589 -2.8630
   83MOL0     H10893  11.734   8.791   1.697 -1.7648 -0.1456 -2.0757
   83MOL0     H10894  11.847   8.904   1.617 -0.1309  0.6784  1.6037
   83MOL0     H10895  11.914   8.664   1.784  1.2324 -0.0714  0.9549
   83MOL0     H10896  11.956   8.826   1.823 -2.6433  0.9147 -1.0761
   83MOL0     H10897  12.151   8.817   1.664  0.4301  0.2053  0.2969
   83MOL0     H10898  12.073   8.709   1.556  0.3224 -1.3593 -1.0247
   83MOL0     H10899  12.208   8.670   1.810 -1.2009  1.7262  0.1199
   83MOL0     H10900  12.103   8.547   1.752 -0.8217  1.5231  1.5826
   83MOL0     H10901  12.321   8.655   1.573  0.1366  1.2372  0.8282
   83MOL0     H10902  12.221   8.499   1.564  0.2240 -1.6173  0.4223
   83MOL0     H10903  12.464   8.439   1.616  1.7459  1.3189  0.8164
   83MOL0     H10904  12.361   8.416   1.758  3.2302 -1.3256  1.3550
   83MOL0     H10905  12.533   8.664   1.683  0.1756 -0.5436  0.4221
   83MOL0     H10906  12.426   8.656   1.822  0.4167  0.3319  1.3067
   83MOL0     H10907  12.575   8.456   1.888  1.5704 -0.4882 -0.4108
   83MOL0     H10908  12.637   8.612   1.915 -0.2271 -0.1722  1.1327
   83MOL0     H10909  12.677   8.314   1.664 -1.3583 -0.3782  1.9105
   83MOL0     H10910  13.046   8.249   1.631 -2.7846 -1.2460  0.7905
   83MOL0     H10911  13.008   8.363   1.503 -0.9316  1.4404 -0.0424
   83MOL0     H10912  12.950   8.141   1.420 -0.1879  1.8919 -1.1508
   83MOL0     H10913  12.798   8.229   1.469 -0.9390 -0.8064 -0.7098
   83MOL0     H10914  12.751   8.087   1.650 -0.9644 -0.3045 -0.1012
   83MOL0     H10915  12.830   7.980   1.533 -0.6364 -0.8202  2.4220
   83MOL0     H10916  12.949   8.060   1.789 -2.4134  2.3542 -1.1422
   83MOL0     H10917  13.050   8.008   1.647  0.0106 -1.0278  0.1022
   83MOL0     H10918  12.857   7.606   1.709 -0.8361  0.2031  0.1077
   83MOL0     H10919  12.996   7.438   1.706  1.9325 -0.2672  0.0326
   83MOL0     H10920  13.615   7.465   1.523 -1.4713 -1.5899 -0.8562
   83MOL0     H10921  13.827   7.357   1.561 -0.6083  1.3211 -0.3617
   83MOL0     H10922  13.869   7.083   1.913  1.0071 -2.3287 -0.9447
   83MOL0     H10923  13.953   7.240   1.953  0.2178  0.2820 -1.2669
   83MOL0     H10924  14.043   7.001   1.784 -1.6342  0.0735  0.2498
   83MOL0     H10925  14.102   7.036   1.946  0.1155 -1.6475 -1.4601
   83MOL0     H10926  14.211   7.247   1.857  2.4498 -1.5151  0.2127
   83MOL0     H10927  14.163   7.188   1.698 -1.3000  0.7261  0.8840
   83MOL0     H10928  14.326   7.047   1.919 -0.7844 -0.3080  0.5923
   83MOL0     H10929  14.289   6.961   1.775  1.2651 -1.0106  0.8187
   83MOL0     H10930  14.484   7.203   1.812  1.4906 -1.5996  0.0606
   83MOL0     H10931  14.434   7.139   1.646  1.4042 -0.2519 -0.7707
   83MOL0     H10932  14.514   6.916   1.694  2.0115  3.1481 -4.8206
   83MOL0     H10933  14.553   6.980   1.862 -2.5744  0.7554  0.5960
   83MOL0     H10934  14.674   7.114   1.624  3.1290 -2.1580 -1.4559
   83MOL0     H10935  14.742   7.070   1.789 -0.8102  4.6312  0.3565
   83MOL0     H10936  14.688   6.874   1.552  1.3350 -2.5779 -0.1389
   83MOL0     H10937  14.772   6.847   1.710 -0.3585 -0.4888 -1.2944
   83MOL0     H10938  13.691   7.198   1.930  3.0261 -0.4911 -1.5863
   83MOL0     H10939  13.470   7.309   1.897 -1.8433 -0.2329 -0.0320
   83MOL0     H10940  13.332   7.727   1.771  1.0165 -0.1611 -1.7128
   83MOL0     H10941  13.193   7.892   1.703  1.0487 -0.7216  0.0100
   83MOL0     H10942  11.925   8.751   1.309 -0.0748  0.1184  2.2971
   83MOL0     H10943  11.845   8.893   1.133  1.0823 -3.3483  0.3270
   83MOL0     H10944  11.627   9.064   0.848 -2.2998 -2.4703  3.2305
   83MOL0     H10945  11.596   9.192   0.633 -3.2996 -0.0401 -1.8750
   83MOL0     H10946  11.295   9.182   0.598 -0.5777 -0.2625 -0.8656
   83MOL0     H10947  11.362   9.209   0.448  0.1992 -1.5406  1.2873
   83MOL0     H10948  11.119   9.257   0.444 -1.6312  0.8484 -0.0686
   83MOL0     H10949  11.139   9.358   0.583 -1.4779 -1.0949 -0.1174
   83MOL0     H10950  11.227   9.394   0.284  3.2959  1.4593 -0.7380
   83MOL0     H10951  11.286   9.502   0.416 -3.2402  4.5413 -1.0811
   83MOL0     H10952  10.982   9.469   0.425 -1.3248 -1.3185 -3.1324
   83MOL0     H10953  11.085   9.609   0.444  3.9200  0.2195 -0.5925
   83MOL0     H10954  11.022   9.588   0.032  0.7600  1.1252  0.2781
   83MOL0     H10955  11.306   9.433   0.840 -4.3017 -2.5323  4.6777
   83MOL0     H10956  11.347   9.328   1.040 -1.6227  0.7092 -0.9681
   84MOL0     O10957   1.702  10.382   5.425  0.0135  0.7900 -0.2631
   84MOL0     C10958   1.807  10.367   5.365  0.5066 -0.6700 -1.0009
   84MOL0     O10959   1.861  10.454   5.285  0.0669 -0.0070 -0.2631
   84MOL0     C10960   1.780  10.565   5.260  0.3374 -0.1790 -0.5691
   84MOL0     C10961   1.783  10.678   5.336  1.0917 -1.2858 -1.0343
   84MOL0     C10962   1.679  10.775   5.317  0.0964 -0.4288  0.4710
   84MOL0     C10963   1.590  10.758   5.209  0.2736 -0.2009 -0.2332
   84MOL0     O10964   1.490  10.848   5.173 -0.4885  0.2735  0.0766
   84MOL0     C10965   1.488  10.977   5.240 -0.5908 -0.8505  0.1559
   84MOL0     C10966   1.359  11.050   5.198 -0.1456 -0.1806 -0.4121
   84MOL0     C10967   1.229  10.960   5.215 -1.1797  1.3163 -0.5459
   84MOL0     C10968   1.099  11.036   5.217  0.9008 -0.2703 -0.4370
   84MOL0     C10969   1.078  11.103   5.090  0.4493 -0.6307  0.1044
   84MOL0     C10970   0.941  11.175   5.077  0.2272  0.8624 -0.5937
   84MOL0     C10971   0.921  11.262   5.195  0.0535 -0.8102  0.1824
   84MOL0     C10972   1.028  11.359   5.234  0.0130  0.1101 -0.2562
   84MOL0     N10973   1.072  11.446   5.122 -0.1096  0.4925  0.5499
   84MOL0     C10974   0.996  11.543   5.060  0.8653  0.5641  0.3860
   84MOL0     C10975   1.094  11.609   4.988  0.8048 -0.6917 -1.1743
   84MOL0     C10976   1.079  11.727   4.908  0.2201  0.8398  1.0488
   84MOL0     C10977   1.090  11.705   4.755 -0.1455 -0.4416 -1.0252
   84MOL0     C10978   0.969  11.645   4.694  0.5267  0.1150  2.1457
   84MOL0     C10979   0.981  11.593   4.552  0.4331  0.4691  0.5024
   84MOL0     O10980   1.094  11.506   4.548 -0.8095 -0.2775  0.6321
   84MOL0     C10981   1.063  11.368   4.562  0.2176 -0.4272 -0.7300
   84MOL0     C10982   0.978  11.292   4.479  0.4683 -0.8971  0.6856
   84MOL0     C10983   0.963  11.157   4.501 -0.4412 -0.4245  0.3834
   84MOL0     C10984   1.021  11.095   4.615  0.3716 -0.2960  1.1110
   84MOL0     C10985   1.000  10.951   4.637 -0.8528  0.2813  0.6096
   84MOL0     O10986   1.043  10.904   4.747  0.7365  0.0048 -0.7876
   84MOL0     C10987   1.035  10.774   4.791  0.0778  0.0685  0.4459
   84MOL0     C10988   0.926  10.691   4.754  0.3791 -0.2161  0.2901
   84MOL0     C10989   0.921  10.554   4.781 -0.3992  0.2320  0.1726
   84MOL0     C10990   1.022  10.498   4.864  0.4833 -0.8019 -0.2758
   84MOL0     O10991   1.016  10.367   4.896 -0.4719  0.5415 -0.3372
   84MOL0     C10992   0.885  10.302   4.909  0.6566 -0.0567 -0.6879
   84MOL0     C10993   0.874  10.215   5.043 -1.5065  0.2841 -0.3672
   84MOL0     C10994   0.742  10.123   5.032  0.2415 -0.7306  0.4776
   84MOL0     C10995   0.605  10.187   5.052 -0.0136  0.5462  1.1378
   84MOL0     C10996   0.514  10.073   5.102  0.4792 -0.7570 -0.0280
   84MOL0     C10997   0.519  10.047   5.259 -0.4744  0.2975 -0.6240
   84MOL0     C10998   0.417   9.936   5.309 -0.8510 -0.9133 -0.0994
   84MOL0     C10999   0.476   9.795   5.294 -0.2578  0.2637 -0.6759
   84MOL0    Cl11000   0.378   9.699   5.177  0.4842 -0.0098  0.0614
   84MOL0     C11001   1.118  10.585   4.913 -0.6634 -0.2979 -0.9075
   84MOL0     C11002   1.135  10.718   4.869 -0.1050  1.2795  0.5741
   84MOL0     O11003   0.961  10.884   4.547  0.8980 -0.1298  0.7019
   84MOL0     C11004   1.104  11.180   4.699  0.5734 -0.5878  0.6088
   84MOL0     C11005   1.121  11.311   4.672 -0.0108 -0.1351 -0.2685
   84MOL0     N11006   1.212  11.539   5.001 -0.8144 -0.1825  0.0971
   84MOL0     N11007   1.197  11.441   5.075 -0.5357  0.7447  0.6921
   84MOL0     C11008   1.600  10.652   5.124  0.5236 -0.1369  0.2457
   84MOL0     C11009   1.697  10.554   5.150 -0.2363  0.7340 -0.3704
   84MOL0     C11010   1.872  10.245   5.378 -1.0763 -0.1409  0.9719
   84MOL0     C11011   1.820  10.144   5.456  0.5666 -0.3728  0.1888
   84MOL0     C11012   1.886  10.027   5.479  0.1026 -0.8594  0.5473
   84MOL0     C11013   2.015   9.995   5.414 -0.5512 -1.1108  0.1556
   84MOL0     O11014   2.080   9.877   5.445  0.5111  0.3766 -0.1556
   84MOL0     C11015   2.202   9.853   5.376  0.9880  0.0115 -0.4018
   84MOL0     C11016   2.174   9.821   5.232 -0.7908 -0.2189 -0.6680
   84MOL0     C11017   2.096   9.687   5.213  0.1436  0.0712  0.0701
   84MOL0     C11018   2.127   9.621   5.077  0.4658  0.3756  0.1754
   84MOL0     C11019   2.047   9.503   5.079  0.2004 -0.0091  0.6576
   84MOL0     C11020   1.988   9.400   5.074  0.5362 -0.1516  0.5937
   84MOL0     C11021   2.070  10.096   5.325  0.0376 -0.2808  0.6834
   84MOL0     C11022   1.997  10.219   5.316 -0.2194 -0.3074 -0.4190
   84MOL0     H11023   1.865  10.686   5.408  0.7149  0.8219 -0.7582
   84MOL0     H11024   1.673  10.867   5.374 -0.5216 -0.3738  0.3194
   84MOL0     H11025   1.574  11.043   5.222  0.2657 -1.9687  0.0599
   84MOL0     H11026   1.489  10.967   5.349 -1.1907  1.2853  0.4155
   84MOL0     H11027   1.366  11.080   5.093  0.1002 -1.5007 -0.7973
   84MOL0     H11028   1.351  11.138   5.263  2.9107 -0.3352  0.3417
   84MOL0     H11029   1.229  10.918   5.316 -0.8108  1.2462 -0.5717
   84MOL0     H11030   1.214  10.883   5.139 -1.0189  2.6579 -1.9882
   84MOL0     H11031   1.021  10.960   5.226  1.8029 -1.0319  1.6288
   84MOL0     H11032   1.092  11.110   5.297 -0.5216  0.6766 -1.4044
   84MOL0     H11033   1.088  11.026   5.014 -2.1639  0.0538 -1.0410
   84MOL0     H11034   1.158  11.174   5.064  2.2404 -2.2720  0.8661
   84MOL0     H11035   0.848  11.121   5.057 -0.1574  1.9047 -1.7211
   84MOL0     H11036   0.940  11.231   4.983  1.7933  0.6371 -0.7746
   84MOL0     H11037   0.824  11.311   5.185 -0.6454 -2.3045 -0.6897
   84MOL0     H11038   0.913  11.203   5.287  0.4395  0.0612  0.7845
   84MOL0     H11039   1.116  11.302   5.264 -2.6254 -3.6553  0.9857
   84MOL0     H11040   0.989  11.410   5.323 -1.9134 -4.5233  1.8486
   84MOL0     H11041   0.891  11.567   5.061  0.6651  0.3182 -3.0856
   84MOL0     H11042   1.155  11.794   4.949 -0.9655  1.8558  1.6516
   84MOL0     H11043   0.991  11.787   4.932 -0.3386  0.5541 -0.2474
   84MOL0     H11044   1.171  11.632   4.753  0.0921 -0.4514  2.5615
   84MOL0     H11045   1.114  11.801   4.707 -2.0643  0.9947  0.6834
   84MOL0     H11046   0.919  11.574   4.761  0.2073 -1.9959 -0.1643
   84MOL0     H11047   0.898  11.728   4.687 -1.9789 -2.0170  0.3384
   84MOL0     H11048   1.003  11.664   4.473 -0.1195  0.2578  0.1563
   84MOL0     H11049   0.886  11.541   4.536  2.7584 -4.1067 -0.1798
   84MOL0     H11050   0.920  11.330   4.395 -0.3127 -3.8285 -0.2120
   84MOL0     H11051   0.910  11.099   4.427 -0.6741  0.5833 -0.2584
   84MOL0     H11052   0.841  10.732   4.701  0.3186  0.8465  1.1712
   84MOL0     H11053   0.848  10.484   4.743 -1.7080  0.4309  2.1483
   84MOL0     H11054   0.866  10.235   4.825  2.3153 -1.5921  0.1008
   84MOL0     H11055   0.804  10.375   4.918 -0.4824 -1.5461  2.8407
   84MOL0     H11056   0.853  10.279   5.129 -1.0339  1.2075 -0.9229
   84MOL0     H11057   0.973  10.170   5.050 -1.2687  1.0166  1.6396
   84MOL0     H11058   0.744  10.033   5.094  1.3404 -1.0755 -0.0320
   84MOL0     H11059   0.760  10.081   4.933  1.6652 -1.0695  0.8462
   84MOL0     H11060   0.622  10.257   5.134  1.8879 -1.0777  2.2284
   84MOL0     H11061   0.573  10.240   4.962  3.8718  0.1524 -0.6429
   84MOL0     H11062   0.528   9.981   5.045  0.8336  0.1265 -1.4168
   84MOL0     H11063   0.412  10.097   5.071  0.1571 -4.0304 -1.9424
   84MOL0     H11064   0.478  10.139   5.301 -2.6937  0.5065 -3.0211
   84MOL0     H11065   0.615  10.018   5.304 -2.2838 -1.2016  2.6863
   84MOL0     H11066   0.397   9.948   5.416 -1.7882 -2.5615 -0.0678
   84MOL0     H11067   0.324   9.957   5.256  1.1308  0.9727 -3.1686
   84MOL0     H11068   0.476   9.743   5.390  1.1540 -1.4691 -1.5601
   84MOL0     H11069   0.580   9.817   5.270  0.1448 -1.8518 -1.0490
   84MOL0     H11070   1.201  10.547   4.971 -2.5049 -1.7581  0.9573
   84MOL0     H11071   1.215  10.777   4.914  0.8570 -0.1685  0.8290
   84MOL0     H11072   1.139  11.155   4.799  2.6733  0.0507  0.0885
   84MOL0     H11073   1.189  11.374   4.729 -1.1541  2.4940 -1.6472
   84MOL0     H11074   1.534  10.638   5.039 -1.3116 -0.8243  1.7198
   84MOL0     H11075   1.708  10.476   5.075  0.0848 -1.4009  1.7819
   84MOL0     H11076   1.723  10.159   5.503  1.5310  1.9016  1.6419
   84MOL0     H11077   1.831   9.949   5.531  0.2081 -0.0160  1.9768
   84MOL0     H11078   2.244   9.763   5.421 -1.1534 -0.9976 -0.3430
   84MOL0     H11079   2.269   9.939   5.389 -1.3030  1.6732  1.1703
   84MOL0     H11080   2.123   9.896   5.171  0.3454  0.7587 -0.4522
   84MOL0     H11081   2.272   9.799   5.188  0.4412 -0.6877  2.1009
   84MOL0     H11082   1.990   9.711   5.226 -0.1489 -0.6179 -0.9063
   84MOL0     H11083   2.132   9.619   5.291  0.1331  0.9796  0.8829
   84MOL0     H11084   2.114   9.687   4.991  0.8284  1.3412  0.8384
   84MOL0     H11085   2.231   9.590   5.094 -0.5845 -1.3084  5.4867
   84MOL0     H11086   1.920   9.318   5.088  1.2107 -0.5020  1.9854
   84MOL0     H11087   2.158  10.093   5.261 -0.9467  2.1455 -0.9441
   84MOL0     H11088   2.030  10.294   5.246  0.3994  0.2737  0.4776
   85MOL0     O11089   4.321   4.985   3.314 -0.3569 -0.4073  0.4927
   85MOL0     C11090   4.322   4.931   3.426  0.4943 -0.1255  0.3233
   85MOL0     O11091   4.321   4.999   3.544 -0.0525 -0.1323 -0.4825
   85MOL0     C11092   4.321   5.138   3.533 -0.7115  0.0638 -0.6742
   85MOL0     C11093   4.215   5.221   3.561 -0.4598 -0.5850 -0.0592
   85MOL0     C11094   4.218   5.359   3.533  0.3688 -0.6472 -0.4620
   85MOL0     C11095   4.341   5.424   3.497  0.0779 -0.0053  0.4629
   85MOL0     O11096   4.343   5.559   3.465 -0.2684  0.6411 -0.5316
   85MOL0     C11097   4.459   5.614   3.403 -0.2591  0.2778  1.0182
   85MOL0     C11098   4.397   5.743   3.325 -0.6373  0.5792  0.0948
   85MOL0     C11099   4.360   5.860   3.427  0.0746 -0.1576  0.1702
   85MOL0     C11100   4.277   5.972   3.359 -0.6095 -0.5431  0.4518
   85MOL0     C11101   4.346   6.029   3.235 -0.0390 -0.3353  0.7221
   85MOL0     C11102   4.477   6.114   3.246  0.0960 -0.5848 -0.1597
   85MOL0     C11103   4.477   6.214   3.371  0.3619  1.1695  1.1293
   85MOL0     C11104   4.603   6.306   3.354  0.5388 -0.8940 -0.2102
   85MOL0     N11105   4.590   6.413   3.257 -0.5590 -0.1231 -1.0271
   85MOL0     C11106   4.562   6.548   3.289 -0.5198  0.0163  0.2368
   85MOL0     C11107   4.569   6.608   3.172  0.5268 -0.2740 -1.0534
   85MOL0     C11108   4.580   6.757   3.175 -0.5998 -0.8481 -0.2598
   85MOL0     C11109   4.444   6.836   3.156 -0.4639  0.1735  0.9902
   85MOL0     C11110   4.479   6.984   3.174  0.6348 -0.7210 -0.7315
   85MOL0     C11111   4.356   7.074   3.188 -0.0501  0.4730 -0.5492
   85MOL0     O11112   4.378   7.210   3.189 -0.4920 -0.7529  0.4779
   85MOL0     C11113   4.470   7.247   3.283  0.0759 -0.0647 -0.6844
   85MOL0     C11114   4.471   7.211   3.417  0.2405 -0.2951 -0.4892
   85MOL0     C11115   4.581   7.257   3.495  0.0038  0.5716  0.5885
   85MOL0     C11116   4.687   7.337   3.445  0.7569  0.0657  0.2521
   85MOL0     C11117   4.797   7.390   3.519  0.1334  0.3239 -0.1681
   85MOL0     O11118   4.797   7.367   3.654 -0.8576 -0.0907  0.5504
   85MOL0     C11119   4.901   7.410   3.724  0.0318 -1.0343 -0.1290
   85MOL0     C11120   4.885   7.535   3.781  0.7487  0.1309 -0.8506
   85MOL0     C11121   4.988   7.589   3.852 -0.6307  0.8881 -0.6646
   85MOL0     C11122   5.118   7.518   3.866 -0.2349 -0.3046  0.0969
   85MOL0     O11123   5.227   7.571   3.925 -0.1483 -0.2552  0.2332
   85MOL0     C11124   5.216   7.677   4.017 -0.3282 -0.3412 -0.3723
   85MOL0     C11125   5.156   7.630   4.156  0.3659  0.6280 -0.6141
   85MOL0     C11126   5.188   7.711   4.274 -0.9606 -0.1153  0.3576
   85MOL0     C11127   5.093   7.695   4.403  0.0148 -0.0065  0.3654
   85MOL0     C11128   5.177   7.712   4.527  0.6209 -0.3199  1.0102
   85MOL0     C11129   5.111   7.659   4.663  0.8508  0.1717  0.1626
   85MOL0     C11130   5.089   7.503   4.672 -1.5990 -0.7495 -0.1126
   85MOL0     C11131   5.053   7.456   4.811  0.7870  0.0024 -0.2036
   85MOL0    Cl11132   5.197   7.444   4.917 -0.2437 -0.6791 -0.0248
   85MOL0     C11133   5.141   7.399   3.794  0.5252 -0.9179  0.4586
   85MOL0     C11134   5.026   7.352   3.727 -0.1075 -0.5753 -1.1247
   85MOL0     O11135   4.883   7.457   3.459 -0.8721  0.3041  0.6175
   85MOL0     C11136   4.683   7.346   3.310  1.1050 -1.0230  0.1517
   85MOL0     C11137   4.580   7.308   3.229  0.4649  0.2804  1.0952
   85MOL0     N11138   4.596   6.513   3.073  0.4022  0.3122 -0.6078
   85MOL0     N11139   4.628   6.398   3.125 -1.0857 -0.2469 -0.4964
   85MOL0     C11140   4.446   5.335   3.478  0.0602  0.8261 -1.1262
   85MOL0     C11141   4.435   5.198   3.490 -0.1818  0.4477  0.3403
   85MOL0     C11142   4.344   4.778   3.429 -0.2059  0.3166  0.5618
   85MOL0     C11143   4.396   4.710   3.317  0.2441 -0.8352  0.4109
   85MOL0     C11144   4.413   4.569   3.305 -0.1542  0.1031 -0.4876
   85MOL0     C11145   4.387   4.497   3.427 -0.0671  0.5360 -0.5492
   85MOL0     O11146   4.387   4.363   3.432 -0.1194 -0.6396  0.3946
   85MOL0     C11147   4.267   4.290   3.460  1.2794 -0.1001  1.4690
   85MOL0     C11148   4.276   4.231   3.595  0.5716  0.9684  0.0300
   85MOL0     C11149   4.199   4.097   3.605  0.4266 -0.4626 -0.3345
   85MOL0     C11150   4.225   4.021   3.732  1.2067  0.4153  0.0530
   85MOL0     C11151   4.137   4.060   3.850 -0.2893 -0.4782 -0.2069
   85MOL0     C11152   4.067   4.099   3.947  0.1687  0.3612 -0.1827
   85MOL0     C11153   4.343   4.567   3.540  0.2186 -0.1420  0.3310
   85MOL0     C11154   4.326   4.701   3.545  0.0786 -0.3022  0.0533
   85MOL0     H11155   4.114   5.199   3.595 -0.1584 -0.8113  0.7092
   85MOL0     H11156   4.127   5.419   3.537  1.1008  0.4163  1.1547
   85MOL0     H11157   4.506   5.544   3.333 -4.8314 -3.6160  1.3335
   85MOL0     H11158   4.533   5.651   3.475 -1.3918  1.4054  1.6515
   85MOL0     H11159   4.316   5.714   3.258 -2.1342  0.4401  1.8757
   85MOL0     H11160   4.477   5.776   3.258  0.7129  2.2511  2.3771
   85MOL0     H11161   4.458   5.893   3.462 -0.4568 -1.3744  3.1296
   85MOL0     H11162   4.311   5.817   3.514  1.3765 -1.2452  0.4026
   85MOL0     H11163   4.179   5.929   3.334 -0.1193 -1.2253 -0.3454
   85MOL0     H11164   4.267   6.052   3.433  1.2208  0.2624 -0.1150
   85MOL0     H11165   4.265   6.089   3.191  2.7239  2.0417 -1.5483
   85MOL0     H11166   4.368   5.951   3.161 -0.7101  1.3557 -1.3728
   85MOL0     H11167   4.500   6.161   3.149 -1.3624 -0.8514 -0.6524
   85MOL0     H11168   4.556   6.040   3.262 -1.1431 -1.7542  0.7756
   85MOL0     H11169   4.385   6.271   3.388 -1.7545 -2.2883  2.1412
   85MOL0     H11170   4.485   6.157   3.463 -0.9725  0.7761  1.0195
   85MOL0     H11171   4.693   6.250   3.327  3.4337  4.4566 -3.2019
   85MOL0     H11172   4.626   6.352   3.451 -1.2022  0.0476 -0.2013
   85MOL0     H11173   4.548   6.582   3.391 -0.4158  0.9551 -0.0533
   85MOL0     H11174   4.662   6.796   3.114 -1.3200  0.7387 -0.2757
   85MOL0     H11175   4.609   6.782   3.278  0.5745  1.0146 -0.9819
   85MOL0     H11176   4.366   6.795   3.221 -2.7704 -0.9752 -2.2309
   85MOL0     H11177   4.407   6.812   3.056 -0.4099  1.8752  0.5385
   85MOL0     H11178   4.538   6.986   3.267  1.4157 -3.8559 -1.0527
   85MOL0     H11179   4.536   7.032   3.094 -1.9221  3.5061 -0.3435
   85MOL0     H11180   4.291   7.053   3.273 -0.3519  3.8752  0.2121
   85MOL0     H11181   4.293   7.066   3.098 -0.5531 -1.7480 -0.0566
   85MOL0     H11182   4.388   7.160   3.466 -0.2291 -1.2305 -2.1886
   85MOL0     H11183   4.571   7.243   3.603 -6.2831 -0.6863  0.2658
   85MOL0     H11184   4.786   7.579   3.783  1.1636  1.1131 -1.4722
   85MOL0     H11185   4.964   7.684   3.900 -4.1538 -0.0808 -0.2268
   85MOL0     H11186   5.153   7.756   3.974 -0.7506 -1.0226 -1.0289
   85MOL0     H11187   5.309   7.730   4.042 -1.5577  1.0707  1.5625
   85MOL0     H11188   5.189   7.527   4.175 -0.3920  0.0593 -2.2228
   85MOL0     H11189   5.049   7.618   4.137  0.4190 -0.5498 -0.3049
   85MOL0     H11190   5.184   7.818   4.250  0.4102  0.4787  2.5105
   85MOL0     H11191   5.293   7.691   4.298 -0.1179  1.1192 -2.0147
   85MOL0     H11192   5.019   7.775   4.400  0.8658  0.7675 -0.3231
   85MOL0     H11193   5.042   7.598   4.399  0.3581 -0.1747  0.0724
   85MOL0     H11194   5.206   7.815   4.551  0.4645 -0.3034  1.1313
   85MOL0     H11195   5.263   7.645   4.529 -0.8444 -2.2683  1.6549
   85MOL0     H11196   5.011   7.703   4.668  0.7456 -0.1825  1.8056
   85MOL0     H11197   5.161   7.709   4.747  0.1812  3.3093 -1.1534
   85MOL0     H11198   5.000   7.483   4.613 -2.2214 -2.3540  1.2861
   85MOL0     H11199   5.176   7.457   4.624  0.1439  3.3882 -1.3930
   85MOL0     H11200   5.005   7.357   4.815  0.9682 -0.0755  0.0552
   85MOL0     H11201   4.976   7.517   4.858  1.2739  0.7187 -0.3204
   85MOL0     H11202   5.230   7.337   3.801  1.2339  0.1730  1.5812
   85MOL0     H11203   5.044   7.267   3.662  0.2596 -2.5676  1.3984
   85MOL0     H11204   4.757   7.408   3.260  3.7663 -4.6923 -0.8096
   85MOL0     H11205   4.586   7.321   3.121 -1.4336 -1.1962  0.7663
   85MOL0     H11206   4.542   5.365   3.437  0.8596 -1.0745 -0.7598
   85MOL0     H11207   4.514   5.126   3.473 -2.7770 -3.0545  1.9016
   85MOL0     H11208   4.414   4.775   3.231 -2.2418  0.5592  0.8581
   85MOL0     H11209   4.448   4.517   3.217 -0.9449  0.0950 -0.8129
   85MOL0     H11210   4.261   4.216   3.379 -1.5673  1.6326 -0.0434
   85MOL0     H11211   4.189   4.362   3.436  1.2003 -0.7550 -0.4897
   85MOL0     H11212   4.379   4.213   3.625  0.2559  0.3900  0.8157
   85MOL0     H11213   4.219   4.299   3.660 -1.9091  0.7393 -1.7576
   85MOL0     H11214   4.233   4.036   3.521  0.0018 -0.9425 -0.1697
   85MOL0     H11215   4.091   4.111   3.595  0.6403  2.7607  0.6725
   85MOL0     H11216   4.202   3.915   3.719  2.6463  0.0135  0.6015
   85MOL0     H11217   4.331   4.031   3.758  1.4542 -0.1189 -0.7299
   85MOL0     H11218   4.014   4.116   4.039 -1.9984 -1.4490 -1.0196
   85MOL0     H11219   4.329   4.505   3.628 -1.5348  0.1937  0.3279
   85MOL0     H11220   4.304   4.747   3.641  1.4971  2.1918 -0.7100
   86MOL0     O11221   6.252   1.183   6.344 -0.3792  0.0435 -0.8063
   86MOL0     C11222   6.304   1.118   6.259  0.5656  0.1637 -0.2756
   86MOL0     O11223   6.410   1.034   6.261  1.1006  0.3888 -0.2620
   86MOL0     C11224   6.480   0.989   6.374 -0.1357 -0.8138  0.0678
   86MOL0     C11225   6.508   1.052   6.492 -0.0794 -0.6047  0.3866
   86MOL0     C11226   6.574   0.979   6.586 -0.7424 -0.5090  0.1628
   86MOL0     C11227   6.623   0.854   6.555 -0.6281  1.5812 -1.0171
   86MOL0     O11228   6.710   0.785   6.642  0.8526 -0.3210  0.5521
   86MOL0     C11229   6.823   0.719   6.583  0.2726  0.0473 -0.4122
   86MOL0     C11230   6.927   0.678   6.693  0.0500  0.3329 -0.3180
   86MOL0     C11231   7.059   0.621   6.643 -0.5367 -1.4069  0.4747
   86MOL0     C11232   7.034   0.482   6.586  0.4588  0.7579  0.5862
   86MOL0     C11233   7.164   0.419   6.533  0.5192  0.6103  0.1441
   86MOL0     C11234   7.124   0.270   6.504  0.4564  0.1530 -0.2489
   86MOL0     C11235   7.166   0.166   6.608  0.6287 -1.2566 -0.1068
   86MOL0     C11236   7.129   0.026   6.574  0.1430  0.2697 -0.7777
   86MOL0     N11237   7.157  -0.043   6.699  0.5816 -0.0489  0.0739
   86MOL0     C11238   7.088  -0.046   6.818 -1.1260  0.2525 -0.5601
   86MOL0     C11239   7.160  -0.129   6.898  0.4793 -0.4202  0.0469
   86MOL0     C11240   7.126  -0.151   7.044 -0.6195  0.1150 -0.1980
   86MOL0     C11241   7.137  -0.293   7.090 -0.4242 -0.6623  0.3043
   86MOL0     C11242   7.129  -0.318   7.233  0.0411 -0.2664 -0.6926
   86MOL0     C11243   7.180  -0.459   7.270 -0.3781 -0.2036 -0.1840
   86MOL0     O11244   7.137  -0.502   7.403  0.2862  0.0480  0.6004
   86MOL0     C11245   7.165  -0.628   7.444  0.4496 -0.2792 -0.7990
   86MOL0     C11246   7.258  -0.714   7.385  0.1676 -0.4000 -0.1359
   86MOL0     C11247   7.282  -0.846   7.411 -0.2126  0.5035  0.2712
   86MOL0     C11248   7.225  -0.893   7.530  0.2567  0.5271  0.9762
   86MOL0     C11249   7.247  -1.042   7.569  1.1132 -0.0635 -0.0351
   86MOL0     O11250   7.363  -1.092   7.525 -0.3456 -1.0286  0.0402
   86MOL0     C11251   7.394  -1.221   7.557 -0.4924  0.6465  0.3829
   86MOL0     C11252   7.437  -1.259   7.680  0.4625 -0.4469 -1.1903
   86MOL0     C11253   7.471  -1.391   7.714  0.8993 -0.7518  0.2828
   86MOL0     C11254   7.450  -1.490   7.622 -0.0787 -0.9165  0.6328
   86MOL0     O11255   7.452  -1.615   7.671  0.1612  0.4209 -0.4441
   86MOL0     C11256   7.469  -1.729   7.577 -0.0808  1.0798  0.4127
   86MOL0     C11257   7.478  -1.859   7.670  0.4292 -0.2123  0.2054
   86MOL0     C11258   7.494  -1.983   7.591 -0.0272  1.2974 -0.3476
   86MOL0     C11259   7.492  -2.097   7.683  0.1375  1.4030 -0.2252
   86MOL0     C11260   7.459  -2.225   7.598  0.1594  0.3686 -0.4708
   86MOL0     C11261   7.415  -2.339   7.689 -0.1944  0.2985  0.6447
   86MOL0     C11262   7.423  -2.470   7.603  0.1784 -0.1030 -0.3054
   86MOL0     C11263   7.301  -2.550   7.623  0.4873  0.0957 -0.2112
   86MOL0    Cl11264   7.273  -2.609   7.790 -0.2911 -0.3914 -0.0984
   86MOL0     C11265   7.406  -1.450   7.488  1.2003 -0.1979 -0.2360
   86MOL0     C11266   7.367  -1.321   7.464  1.3529 -0.5270  0.5845
   86MOL0     O11267   7.170  -1.092   7.656  0.3740 -0.4695  0.6960
   86MOL0     C11268   7.144  -0.808   7.607 -0.1940  0.5442 -0.4909
   86MOL0     C11269   7.116  -0.681   7.564 -0.7168 -0.5437  0.4769
   86MOL0     N11270   7.265  -0.181   6.837 -0.0393  0.5886 -0.0814
   86MOL0     N11271   7.258  -0.125   6.712  0.3102  1.7378  0.3894
   86MOL0     C11272   6.566   0.782   6.457 -0.9154 -1.0046  0.2719
   86MOL0     C11273   6.502   0.854   6.365  0.5722  0.6342  0.1739
   86MOL0     C11274   6.230   1.104   6.131  0.4567 -1.0784 -0.3610
   86MOL0     C11275   6.232   0.985   6.070 -0.8140 -0.0939  0.3339
   86MOL0     C11276   6.155   0.973   5.948  0.0482  0.0851  0.4172
   86MOL0     C11277   6.083   1.080   5.898  0.3725 -0.8427 -0.4719
   86MOL0     O11278   6.025   1.084   5.776  0.4109  0.4560 -0.1450
   86MOL0     C11279   6.029   0.973   5.684 -0.1115  0.1999 -0.7887
   86MOL0     C11280   5.968   1.025   5.551 -0.5728 -0.5149 -0.6775
   86MOL0     C11281   6.035   1.165   5.508 -0.5424  0.4708 -0.2518
   86MOL0     C11282   5.951   1.285   5.533  0.7271 -0.5165  0.3490
   86MOL0     C11283   6.025   1.393   5.472  0.6925 -0.8553 -0.7505
   86MOL0     C11284   6.079   1.500   5.440 -0.3155 -0.0335 -0.3433
   86MOL0     C11285   6.061   1.183   5.977  0.6020 -0.0134 -0.9427
   86MOL0     C11286   6.133   1.198   6.098 -0.5443  0.1412  0.8751
   86MOL0     H11287   6.487   1.158   6.502  1.2583 -0.2515 -0.3636
   86MOL0     H11288   6.592   1.018   6.686 -0.2300 -0.7693  0.1770
   86MOL0     H11289   6.866   0.789   6.512 -0.4604 -1.6175 -2.6176
   86MOL0     H11290   6.788   0.627   6.535  0.9539  0.4623 -1.7420
   86MOL0     H11291   6.881   0.601   6.755 -2.5539 -1.1754 -3.8263
   86MOL0     H11292   6.948   0.770   6.748  1.7288 -0.6899  0.8517
   86MOL0     H11293   7.143   0.626   6.713  2.3627 -1.4318 -2.7186
   86MOL0     H11294   7.091   0.688   6.563 -1.3976  0.5146  1.6673
   86MOL0     H11295   6.992   0.413   6.659  1.4137 -0.0927  0.3565
   86MOL0     H11296   6.967   0.491   6.500 -1.6550 -2.1864  1.7696
   86MOL0     H11297   7.233   0.414   6.617 -0.9768 -2.2258  1.3683
   86MOL0     H11298   7.203   0.480   6.451 -0.4955  1.1969  0.0733
   86MOL0     H11299   7.169   0.242   6.408  0.6141 -2.0292  0.3991
   86MOL0     H11300   7.015   0.273   6.498  0.4550  4.1709 -1.5316
   86MOL0     H11301   7.275   0.170   6.617  0.7042  0.1868 -1.3050
   86MOL0     H11302   7.131   0.201   6.706  0.2311 -0.7985 -0.4106
   86MOL0     H11303   7.180  -0.025   6.492 -0.1646  0.3764 -1.0398
   86MOL0     H11304   7.024   0.018   6.543  0.2099 -2.4323 -0.5701
   86MOL0     H11305   7.004   0.014   6.852  1.3585  2.0841  3.0227
   86MOL0     H11306   7.023  -0.124   7.067 -0.6477  1.5063 -1.7851
   86MOL0     H11307   7.177  -0.078   7.108  0.9462 -1.2802  0.2326
   86MOL0     H11308   7.237  -0.330   7.067  0.7608  0.5651  3.0072
   86MOL0     H11309   7.053  -0.347   7.045 -0.3230  1.1514 -2.2383
   86MOL0     H11310   7.191  -0.249   7.290 -0.8809  2.5018 -2.8281
   86MOL0     H11311   7.029  -0.300   7.273  0.6229  0.8515  0.3056
   86MOL0     H11312   7.286  -0.435   7.281  0.3083 -3.0543  0.2899
   86MOL0     H11313   7.162  -0.536   7.194 -1.4233  0.1382 -0.3033
   86MOL0     H11314   7.305  -0.670   7.297  1.0144 -1.2873 -0.1463
   86MOL0     H11315   7.340  -0.907   7.343 -3.4030  1.1017 -3.3435
   86MOL0     H11316   7.460  -1.184   7.755  1.8393 -0.2301 -1.7978
   86MOL0     H11317   7.491  -1.417   7.817  0.0781 -1.2495  0.3233
   86MOL0     H11318   7.561  -1.716   7.520  2.7814 -3.7803  3.2570
   86MOL0     H11319   7.389  -1.742   7.504  0.3433  0.2446  0.0849
   86MOL0     H11320   7.393  -1.879   7.736  1.6919 -0.7082  1.7644
   86MOL0     H11321   7.562  -1.845   7.738  0.3141  0.2641  0.2497
   86MOL0     H11322   7.592  -1.993   7.542 -0.0757 -1.2029 -0.0904
   86MOL0     H11323   7.418  -1.988   7.513  0.2961  2.4548 -0.7635
   86MOL0     H11324   7.585  -2.112   7.738  0.9318 -3.0397 -2.2980
   86MOL0     H11325   7.407  -2.093   7.752  1.0509  2.1110  0.8901
   86MOL0     H11326   7.548  -2.262   7.548 -1.9673 -3.9735 -1.5816
   86MOL0     H11327   7.387  -2.203   7.518 -0.2478 -0.0616 -0.2321
   86MOL0     H11328   7.315  -2.314   7.728 -0.2442  0.4594  0.4146
   86MOL0     H11329   7.477  -2.350   7.779 -1.3810  3.6962  2.0181
   86MOL0     H11330   7.424  -2.443   7.497 -1.7536  0.5027 -0.1979
   86MOL0     H11331   7.506  -2.535   7.632 -0.9400 -1.2377  0.4124
   86MOL0     H11332   7.302  -2.640   7.562 -0.4993 -0.0394 -0.0581
   86MOL0     H11333   7.214  -2.492   7.591  0.2570 -0.4249 -0.5360
   86MOL0     H11334   7.396  -1.529   7.414 -0.7683 -1.5588  1.3775
   86MOL0     H11335   7.331  -1.295   7.365  3.2714  2.4623  0.5483
   86MOL0     H11336   7.102  -0.841   7.701  2.4804  2.4045  1.5376
   86MOL0     H11337   7.038  -0.633   7.622 -1.5058  0.1090 -1.0757
   86MOL0     H11338   6.587   0.675   6.459  1.7596 -0.6462 -2.0012
   86MOL0     H11339   6.462   0.804   6.277  2.0912 -0.8645  0.2836
   86MOL0     H11340   6.293   0.903   6.107  0.0811 -1.3815 -3.5715
   86MOL0     H11341   6.176   0.890   5.882 -0.4679  1.0680 -1.0295
   86MOL0     H11342   5.981   0.884   5.726 -0.6477  1.6303  1.8646
   86MOL0     H11343   6.133   0.942   5.674 -0.5114 -1.3924 -0.3332
   86MOL0     H11344   5.988   0.948   5.476  1.9362  1.1037 -1.8416
   86MOL0     H11345   5.860   1.034   5.559 -0.8198 -3.8180  1.3645
   86MOL0     H11346   6.076   1.136   5.412 -1.7584 -1.3584 -0.2632
   86MOL0     H11347   6.127   1.174   5.566 -0.3248 -2.5486  0.0106
   86MOL0     H11348   5.861   1.280   5.470 -0.2376  4.1793  0.9435
   86MOL0     H11349   5.928   1.300   5.639 -1.2831 -0.2243 -0.0747
   86MOL0     H11350   6.114   1.589   5.393 -0.2450 -0.8589 -1.9362
   86MOL0     H11351   5.992   1.259   5.941  1.9504  1.4602 -0.5417
   86MOL0     H11352   6.094   1.271   6.168 -2.1962 -1.7673  2.0118
   87MOL0     O11353   8.560   1.734   6.364  0.0127 -0.2448 -0.2924
   87MOL0     C11354   8.645   1.667   6.417 -0.2322  0.0260  0.0050
   87MOL0     O11355   8.716   1.699   6.528  1.1989  0.3192  0.8064
   87MOL0     C11356   8.671   1.780   6.632 -0.3393 -0.0561 -0.5438
   87MOL0     C11357   8.768   1.816   6.717 -0.4136 -0.8789  0.1499
   87MOL0     C11358   8.734   1.889   6.830  0.5211  0.7502  0.2296
   87MOL0     C11359   8.601   1.922   6.852 -0.5099 -0.4015 -0.6648
   87MOL0     O11360   8.582   2.015   6.951  0.7131  0.3850 -0.0376
   87MOL0     C11361   8.501   1.974   7.064 -0.9664 -0.6827 -0.0076
   87MOL0     C11362   8.604   1.955   7.173 -0.0242 -0.7256  0.0515
   87MOL0     C11363   8.647   2.093   7.241  0.6473  0.2861  0.2169
   87MOL0     C11364   8.745   2.174   7.150 -0.0506 -0.2616  0.1586
   87MOL0     C11365   8.822   2.282   7.236  0.0109  0.7276  0.5266
   87MOL0     C11366   8.747   2.400   7.291 -0.2465  0.6814 -1.0246
   87MOL0     C11367   8.829   2.493   7.388 -0.3968  0.3011 -0.3417
   87MOL0     C11368   8.732   2.603   7.431  0.1418 -1.2575  0.3146
   87MOL0     N11369   8.801   2.672   7.539 -0.3975 -0.5767  0.7809
   87MOL0     C11370   8.903   2.766   7.518  0.8777  0.4076 -0.2574
   87MOL0     C11371   8.904   2.823   7.642  0.7611 -1.2216 -0.1298
   87MOL0     C11372   9.006   2.919   7.691 -0.3904  0.6682  0.0566
   87MOL0     C11373   8.979   2.984   7.826 -0.4830  0.4232  0.3194
   87MOL0     C11374   8.860   3.087   7.820  0.3516  0.2578 -0.0595
   87MOL0     C11375   8.848   3.136   7.955  0.3326 -0.1026 -0.5576
   87MOL0     O11376   8.849   3.040   8.059  0.8241  0.1417 -0.2786
   87MOL0     C11377   8.829   3.082   8.186 -0.9135  0.3359  0.5229
   87MOL0     C11378   8.816   3.212   8.232 -0.1112  0.4936 -0.1219
   87MOL0     C11379   8.795   3.221   8.365 -0.1567  0.2554 -0.1802
   87MOL0     C11380   8.787   3.115   8.451 -0.3915  0.6702 -0.6715
   87MOL0     C11381   8.757   3.132   8.602 -0.5698  0.6916 -0.6249
   87MOL0     O11382   8.705   3.252   8.643  0.7450  0.6124  0.5591
   87MOL0     C11383   8.719   3.278   8.771  0.0392 -0.3239  0.3428
   87MOL0     C11384   8.607   3.263   8.855  0.3822  0.5945  0.4925
   87MOL0     C11385   8.619   3.271   8.985 -0.5741 -0.3241 -0.2889
   87MOL0     C11386   8.746   3.324   9.033  0.0238  0.0170  0.8817
   87MOL0     O11387   8.779   3.352   9.162  0.6228  0.2850 -0.7100
   87MOL0     C11388   8.684   3.395   9.256  0.1343 -0.4407  0.4957
   87MOL0     C11389   8.743   3.452   9.382  0.6250  0.0155 -0.0875
   87MOL0     C11390   8.646   3.539   9.454  0.5751  0.4082  0.6612
   87MOL0     C11391   8.709   3.617   9.568  0.9480 -0.4958  0.1469
   87MOL0     C11392   8.598   3.695   9.644 -0.4703  1.6394  0.4189
   87MOL0     C11393   8.666   3.774   9.753 -0.7577  0.0270  0.0949
   87MOL0     C11394   8.564   3.849   9.822 -0.1232  0.1082 -0.2480
   87MOL0     C11395   8.612   3.893   9.968  0.2471  0.2525  0.5453
   87MOL0    Cl11396   8.778   3.952   9.955  0.1229 -0.0318  0.2500
   87MOL0     C11397   8.853   3.351   8.951  0.2836  0.0596  0.2602
   87MOL0     C11398   8.844   3.318   8.814  0.1638  0.0907  0.1052
   87MOL0     O11399   8.774   3.034   8.681  0.2997 -0.0122 -0.2760
   87MOL0     C11400   8.792   2.979   8.399  0.0843  0.4480 -0.8017
   87MOL0     C11401   8.821   2.965   8.266 -0.7848  0.2012 -1.1118
   87MOL0     N11402   8.819   2.759   7.724  0.6196 -0.7004  0.0185
   87MOL0     N11403   8.756   2.665   7.664  0.6974  1.0666  1.1490
   87MOL0     C11404   8.502   1.887   6.767 -0.6205 -0.6125 -0.1746
   87MOL0     C11405   8.539   1.814   6.654 -0.0983  0.0701 -0.0191
   87MOL0     C11406   8.678   1.539   6.353 -0.2656 -0.2748  0.3918
   87MOL0     C11407   8.608   1.499   6.241  0.4367  0.1377 -0.1130
   87MOL0     C11408   8.644   1.376   6.177 -0.2796 -0.2423 -0.5949
   87MOL0     C11409   8.758   1.301   6.224 -0.6525 -0.1688  0.9354
   87MOL0     O11410   8.788   1.177   6.170 -0.1965  0.9608 -0.5842
   87MOL0     C11411   8.701   1.061   6.173  0.9705 -0.6627 -1.1273
   87MOL0     C11412   8.736   0.945   6.092 -0.3125  0.1870  0.1224
   87MOL0     C11413   8.709   0.983   5.938 -0.4207 -0.3921  0.1514
   87MOL0     C11414   8.786   0.883   5.844 -0.9292  0.5181  0.5570
   87MOL0     C11415   8.811   0.956   5.714  0.1476 -0.7354  0.7074
   87MOL0     C11416   8.796   1.022   5.611 -0.7433  0.1376  0.0186
   87MOL0     C11417   8.836   1.348   6.327 -0.7954  1.0281 -0.9455
   87MOL0     C11418   8.794   1.468   6.389  0.5897  0.4926 -0.4682
   87MOL0     H11419   8.875   1.803   6.706 -0.2298  1.5900 -1.9943
   87MOL0     H11420   8.824   1.903   6.890  1.2753 -3.6026  0.4290
   87MOL0     H11421   8.437   1.889   7.041  0.5237 -1.6257 -0.8333
   87MOL0     H11422   8.427   2.049   7.093 -0.3004 -0.1403  0.3181
   87MOL0     H11423   8.684   1.895   7.129  0.2319 -0.1981 -0.2189
   87MOL0     H11424   8.561   1.896   7.254  0.1406 -2.5481 -1.1356
   87MOL0     H11425   8.698   2.076   7.336  1.2196 -0.2328 -0.1689
   87MOL0     H11426   8.558   2.154   7.258  1.2442  1.3242 -0.2496
   87MOL0     H11427   8.818   2.100   7.114 -2.5958 -2.5345 -0.6786
   87MOL0     H11428   8.698   2.218   7.062  3.0525  3.8622  0.2698
   87MOL0     H11429   8.910   2.304   7.176  2.1467 -0.0935  3.1527
   87MOL0     H11430   8.865   2.231   7.323  1.4146  0.8365 -0.0761
   87MOL0     H11431   8.659   2.369   7.347 -0.3449  0.6792 -1.1815
   87MOL0     H11432   8.726   2.461   7.202  0.4642 -2.0675 -3.2053
   87MOL0     H11433   8.877   2.445   7.474  3.2122  1.3247 -1.5730
   87MOL0     H11434   8.917   2.523   7.330  1.8766 -2.5643  1.3890
   87MOL0     H11435   8.642   2.566   7.481  0.8850  0.5296  3.2309
   87MOL0     H11436   8.699   2.678   7.358  2.1486 -3.1158 -2.7327
   87MOL0     H11437   8.968   2.786   7.434  2.3237 -0.3454  0.6339
   87MOL0     H11438   9.038   2.988   7.613  2.7100  0.3208  0.8966
   87MOL0     H11439   9.103   2.870   7.704  0.0036  1.2369 -0.6414
   87MOL0     H11440   9.068   3.038   7.859 -0.4746 -0.3250  1.6362
   87MOL0     H11441   8.984   2.898   7.895  5.6239 -0.1021 -0.2674
   87MOL0     H11442   8.871   3.173   7.754 -3.0281 -0.5525 -1.9456
   87MOL0     H11443   8.768   3.030   7.804  0.8937 -0.2929 -1.3330
   87MOL0     H11444   8.750   3.186   7.955  0.9292  1.1735 -2.5191
   87MOL0     H11445   8.934   3.203   7.962  0.5102 -0.2935 -0.8978
   87MOL0     H11446   8.836   3.294   8.164  1.0066 -0.3731 -0.8982
   87MOL0     H11447   8.791   3.315   8.421  0.4152  1.4131 -2.0019
   87MOL0     H11448   8.508   3.249   8.814  1.0778  0.7199 -1.3652
   87MOL0     H11449   8.531   3.261   9.049 -0.0256  0.3594  0.5924
   87MOL0     H11450   8.625   3.306   9.283  0.0434 -2.1602 -4.3774
   87MOL0     H11451   8.611   3.456   9.203  1.1238 -0.7597 -1.3328
   87MOL0     H11452   8.826   3.512   9.343 -2.0862  3.6007 -0.9581
   87MOL0     H11453   8.780   3.369   9.442 -3.3337  0.0178  2.7309
   87MOL0     H11454   8.564   3.472   9.481 -0.7606  0.5442 -2.5481
   87MOL0     H11455   8.608   3.609   9.379  0.8716 -1.5627 -1.4625
   87MOL0     H11456   8.755   3.555   9.645  3.7255  0.1689 -0.8591
   87MOL0     H11457   8.792   3.676   9.529  3.9589 -4.0841  0.5523
   87MOL0     H11458   8.517   3.628   9.674  0.0767 -0.2174 -1.9878
   87MOL0     H11459   8.554   3.774   9.583 -0.0580 -0.0520 -2.1886
   87MOL0     H11460   8.745   3.840   9.716  1.8164 -2.1340  1.4424
   87MOL0     H11461   8.713   3.703   9.821  0.3050 -1.2591 -1.9035
   87MOL0     H11462   8.535   3.934   9.759 -0.4642  0.5324  0.4745
   87MOL0     H11463   8.469   3.796   9.826 -0.1938  0.1773 -0.8462
   87MOL0     H11464   8.600   3.817  10.045  2.7377 -1.0677 -0.2393
   87MOL0     H11465   8.543   3.975   9.989  2.8661  3.3867 -1.9940
   87MOL0     H11466   8.944   3.389   8.997  0.0798  2.4747 -1.1161
   87MOL0     H11467   8.925   3.326   8.743 -0.1598 -1.2659 -0.4546
   87MOL0     H11468   8.778   2.895   8.466  1.2223  0.6204 -0.3396
   87MOL0     H11469   8.815   2.870   8.215  0.6167 -1.1824  1.1192
   87MOL0     H11470   8.399   1.922   6.775  0.2548  2.0150  0.6270
   87MOL0     H11471   8.461   1.804   6.579 -1.4641  0.4339  1.3080
   87MOL0     H11472   8.513   1.536   6.204  1.4367  1.1267 -1.8364
   87MOL0     H11473   8.581   1.348   6.093  2.0844  3.1712 -3.8460
   87MOL0     H11474   8.599   1.098   6.156  1.4094  0.1932 -1.9326
   87MOL0     H11475   8.691   1.026   6.276  2.5493  1.1763 -0.3080
   87MOL0     H11476   8.838   0.907   6.105 -0.5431 -0.0596  1.2717
   87MOL0     H11477   8.668   0.863   6.116  0.5600 -1.3062 -2.1409
   87MOL0     H11478   8.739   1.084   5.908  0.2993 -0.8865 -0.8965
   87MOL0     H11479   8.604   0.971   5.910 -0.1405 -0.6893 -0.8434
   87MOL0     H11480   8.886   0.863   5.885 -1.2561 -0.1118  1.0523
   87MOL0     H11481   8.711   0.806   5.829 -0.4678  0.0078  0.8229
   87MOL0     H11482   8.788   1.069   5.515  3.3438  1.1875  0.0025
   87MOL0     H11483   8.914   1.288   6.372 -1.9793  0.6155  0.6587
   87MOL0     H11484   8.857   1.496   6.473  2.1659 -0.0869 -1.4109
   88MOL0     O11485   2.653   9.055  11.074 -0.2885 -0.4466 -0.4947
   88MOL0     C11486   2.597   9.082  10.963 -0.4901  0.2588 -0.1470
   88MOL0     O11487   2.579   8.994  10.866  0.0341 -0.1751  0.2310
   88MOL0     C11488   2.616   8.868  10.878  0.7562 -0.2061  0.0863
   88MOL0     C11489   2.743   8.836  10.832  1.1331 -0.7769 -0.1541
   88MOL0     C11490   2.788   8.708  10.813 -0.7743 -0.0292 -0.0927
   88MOL0     C11491   2.718   8.600  10.875 -0.7767 -0.2928 -0.4063
   88MOL0     O11492   2.769   8.468  10.893  0.4002  0.4888  0.0474
   88MOL0     C11493   2.908   8.448  10.889 -0.7568 -0.4151 -0.7679
   88MOL0     C11494   2.925   8.297  10.882 -0.0175 -0.0677 -0.8640
   88MOL0     C11495   3.051   8.236  10.810 -0.0295  0.1386 -0.4517
   88MOL0     C11496   3.170   8.211  10.913 -0.0426  0.2329  0.6991
   88MOL0     C11497   3.306   8.195  10.839 -0.6856  0.2361 -0.5943
   88MOL0     C11498   3.310   8.078  10.739  0.1931  0.4690 -0.0998
   88MOL0     C11499   3.434   8.095  10.656  0.0303  0.3748 -0.2402
   88MOL0     C11500   3.448   7.988  10.552  0.1885 -0.8343 -0.7152
   88MOL0     N11501   3.572   8.022  10.463  0.5375  0.6687 -0.5312
   88MOL0     C11502   3.562   8.058  10.335  0.1031 -0.7097 -0.7243
   88MOL0     C11503   3.683   8.085  10.285 -1.1779  0.3006 -0.1185
   88MOL0     C11504   3.734   8.134  10.151 -0.7481 -0.6338  0.5011
   88MOL0     C11505   3.839   8.239  10.169 -0.2696  0.2535 -0.2166
   88MOL0     C11506   3.900   8.283  10.030  0.6675  0.1586  0.2600
   88MOL0     C11507   4.027   8.206   9.988  0.6962 -0.8881  0.1269
   88MOL0     O11508   4.090   8.274   9.884  0.0519 -0.3963 -0.0136
   88MOL0     C11509   4.019   8.275   9.764  0.1408 -1.0373 -0.0883
   88MOL0     C11510   4.033   8.387   9.682 -0.5820 -0.7872  0.4147
   88MOL0     C11511   3.975   8.401   9.551 -0.5435 -0.8546 -0.4446
   88MOL0     C11512   3.901   8.297   9.495 -0.1349  0.0621 -0.2321
   88MOL0     C11513   3.835   8.316   9.357  0.1137 -0.3646  1.0017
   88MOL0     O11514   3.853   8.439   9.305 -0.3086  0.5260  0.2310
   88MOL0     C11515   3.812   8.452   9.180  0.6247 -0.2318  0.1292
   88MOL0     C11516   3.696   8.524   9.145 -0.9402  0.1014 -0.3222
   88MOL0     C11517   3.652   8.525   9.011 -0.8248 -1.1355 -0.2772
   88MOL0     C11518   3.738   8.472   8.904  0.5830 -0.5932 -0.6669
   88MOL0     O11519   3.697   8.487   8.778  0.1033 -0.1978  0.2488
   88MOL0     C11520   3.761   8.610   8.727  0.1137  0.2836  0.5744
   88MOL0     C11521   3.762   8.589   8.573 -0.5517 -0.2565  0.4680
   88MOL0     C11522   3.850   8.691   8.504 -0.2810 -0.6572 -0.3577
   88MOL0     C11523   3.815   8.702   8.363 -0.3654  0.6604 -0.7600
   88MOL0     C11524   3.869   8.590   8.283  0.1763  0.2584  0.9419
   88MOL0     C11525   3.751   8.493   8.245  0.2650 -0.3720  0.5721
   88MOL0     C11526   3.795   8.391   8.139 -0.7523  0.4523 -0.0013
   88MOL0     C11527   3.663   8.333   8.082  0.7605  0.5719  0.1094
   88MOL0    Cl11528   3.663   8.177   8.005 -0.1075  0.1594  0.2003
   88MOL0     C11529   3.857   8.408   8.934 -0.4896 -0.8554  0.3993
   88MOL0     C11530   3.887   8.402   9.071 -0.5687  0.2435 -0.7649
   88MOL0     O11531   3.778   8.220   9.310  0.3433  0.0987  0.4377
   88MOL0     C11532   3.899   8.174   9.573  0.8028 -0.1221  0.0316
   88MOL0     C11533   3.948   8.159   9.711 -0.9598 -0.2080 -0.0596
   88MOL0     N11534   3.757   8.079  10.407 -0.1231  0.1187  0.2293
   88MOL0     N11535   3.693   8.043  10.512 -0.2664 -0.0096 -0.1124
   88MOL0     C11536   2.586   8.628  10.919 -0.3157  0.1434 -0.6027
   88MOL0     C11537   2.533   8.760  10.915  1.0159  0.7480  0.0240
   88MOL0     C11538   2.528   9.215  10.949  0.0712 -0.0199 -0.2443
   88MOL0     C11539   2.538   9.331  11.039 -0.6074 -0.2053  1.0239
   88MOL0     C11540   2.456   9.444  11.012  0.8850  0.2947  0.1750
   88MOL0     C11541   2.401   9.474  10.888 -0.1512 -0.4772  0.6816
   88MOL0     O11542   2.331   9.588  10.855  0.5370 -0.3669  0.5372
   88MOL0     C11543   2.313   9.691  10.951 -0.5357 -1.1839 -0.8895
   88MOL0     C11544   2.334   9.834  10.891  0.3137  1.0067  0.2057
   88MOL0     C11545   2.324   9.944  10.998 -0.2317  0.0914 -0.6988
   88MOL0     C11546   2.184   9.942  11.070  0.1138  0.5292 -0.5160
   88MOL0     C11547   2.181  10.054  11.163  0.9261 -0.6176  0.3507
   88MOL0     C11548   2.175  10.150  11.238 -0.0551  1.0922 -0.7633
   88MOL0     C11549   2.390   9.364  10.796  0.1883  0.3617  0.5003
   88MOL0     C11550   2.450   9.235  10.832 -0.6439 -0.0515  0.2931
   88MOL0     H11551   2.805   8.923  10.817  0.7317 -0.5801 -0.6842
   88MOL0     H11552   2.887   8.692  10.771  1.3460  0.7679  4.0393
   88MOL0     H11553   2.957   8.486  10.979  0.2671 -3.2620 -0.0115
   88MOL0     H11554   2.952   8.502  10.805  1.7028 -0.9801  0.0940
   88MOL0     H11555   2.836   8.269  10.825 -0.5833  0.4681 -0.2513
   88MOL0     H11556   2.926   8.257  10.984  1.9903  0.6670 -0.5517
   88MOL0     H11557   3.083   8.292  10.721  0.3605 -1.6376 -1.4883
   88MOL0     H11558   3.023   8.134  10.783  0.6745 -0.8164  2.1730
   88MOL0     H11559   3.175   8.287  10.992 -0.4776 -0.3682  1.3180
   88MOL0     H11560   3.151   8.114  10.959  1.0389 -0.1804  0.2915
   88MOL0     H11561   3.378   8.173  10.919 -0.7583  0.4469 -0.4716
   88MOL0     H11562   3.327   8.282  10.777  1.2520 -1.9994 -3.3344
   88MOL0     H11563   3.222   8.089  10.674 -1.1070 -0.1062  1.4811
   88MOL0     H11564   3.301   7.986  10.797 -0.5811  0.8465  0.4097
   88MOL0     H11565   3.438   8.193  10.609  1.3660  0.3430 -0.2141
   88MOL0     H11566   3.521   8.081  10.720  1.3763 -0.4477 -2.1656
   88MOL0     H11567   3.358   7.994  10.490 -1.0535  3.0155  1.1296
   88MOL0     H11568   3.446   7.889  10.597 -3.1398 -0.6188 -0.0975
   88MOL0     H11569   3.470   8.069  10.278 -1.3789 -5.6591  0.2769
   88MOL0     H11570   3.651   8.165  10.087  0.5155 -2.2556 -2.1170
   88MOL0     H11571   3.770   8.049  10.093 -4.6797 -2.0400 -0.1718
   88MOL0     H11572   3.917   8.214  10.242 -1.9377 -0.9062  1.2619
   88MOL0     H11573   3.791   8.333  10.200  2.0875  2.9358 -3.7968
   88MOL0     H11574   3.819   8.290   9.956  1.2289  1.8147 -0.2375
   88MOL0     H11575   3.927   8.388  10.043  1.6579 -0.4430  4.2166
   88MOL0     H11576   3.981   8.113   9.956 -2.1712 -0.8589  3.5270
   88MOL0     H11577   4.092   8.198  10.076 -0.5198 -1.1381  1.0371
   88MOL0     H11578   4.089   8.465   9.732 -2.2658  0.0441  1.0872
   88MOL0     H11579   3.986   8.498   9.505  2.0034  0.5123  2.6153
   88MOL0     H11580   3.638   8.555   9.232 -1.2707 -3.9699  1.1108
   88MOL0     H11581   3.554   8.566   8.988 -1.1531 -1.1010  1.0951
   88MOL0     H11582   3.863   8.622   8.763  0.7122  2.0702 -1.4937
   88MOL0     H11583   3.704   8.702   8.746 -0.6400  0.0146 -0.2968
   88MOL0     H11584   3.658   8.594   8.539  0.3742 -2.2179 -3.1694
   88MOL0     H11585   3.796   8.489   8.542  0.6267  0.3607 -0.3140
   88MOL0     H11586   3.956   8.671   8.524 -0.6586 -2.4803 -0.0199
   88MOL0     H11587   3.829   8.788   8.549  1.3799 -0.8813  1.0309
   88MOL0     H11588   3.707   8.712   8.351 -0.8410 -1.8439  0.5616
   88MOL0     H11589   3.868   8.789   8.324 -2.5486  1.9199 -1.0591
   88MOL0     H11590   3.942   8.529   8.339 -0.4778 -3.4437 -1.8337
   88MOL0     H11591   3.914   8.638   8.196 -1.3294  1.4254  0.7758
   88MOL0     H11592   3.664   8.553   8.216  0.3476 -0.4963  0.0406
   88MOL0     H11593   3.706   8.449   8.334 -0.0048 -0.6478  0.3025
   88MOL0     H11594   3.862   8.418   8.057  0.2053 -5.2786 -1.5915
   88MOL0     H11595   3.842   8.315   8.202 -0.2890  1.7683  1.2954
   88MOL0     H11596   3.646   8.399   7.997 -0.1957 -1.1798 -1.1063
   88MOL0     H11597   3.574   8.347   8.143 -0.0999  0.6352 -1.1217
   88MOL0     H11598   3.917   8.359   8.858 -3.4401  1.1361 -3.6032
   88MOL0     H11599   3.975   8.341   9.087 -1.5886 -1.2112 -0.4884
   88MOL0     H11600   3.844   8.091   9.530  0.2376  0.7398 -0.9509
   88MOL0     H11601   3.945   8.066   9.767 -2.9114  0.1626  0.5002
   88MOL0     H11602   2.526   8.541  10.942 -0.0386  0.4627  1.5542
   88MOL0     H11603   2.429   8.772  10.942  0.3567 -3.4119 -0.0851
   88MOL0     H11604   2.595   9.320  11.131  0.2944  3.1194  0.9695
   88MOL0     H11605   2.447   9.512  11.096  0.5382  1.0003 -0.4177
   88MOL0     H11606   2.372   9.677  11.041 -2.8718 -1.4785  0.6732
   88MOL0     H11607   2.212   9.675  10.990 -0.2897 -2.2281 -0.6425
   88MOL0     H11608   2.427   9.828  10.834 -0.8164 -2.4219 -1.5678
   88MOL0     H11609   2.264   9.859  10.811 -1.5053 -0.8523  1.0935
   88MOL0     H11610   2.333  10.044  10.954  1.4137 -0.1128 -0.8837
   88MOL0     H11611   2.405   9.935  11.071 -0.0290  2.1970 -0.6016
   88MOL0     H11612   2.104   9.965  10.998 -1.0593  0.4837  0.7301
   88MOL0     H11613   2.153   9.848  11.117  2.9483 -1.3569 -2.1571
   88MOL0     H11614   2.188  10.243  11.290  0.2058  0.8643 -0.4238
   88MOL0     H11615   2.348   9.379  10.697  0.0869 -0.9813  0.3185
   88MOL0     H11616   2.446   9.157  10.757  2.3418  0.7765 -0.8598
   89MOL0     O11617   9.428   2.412   1.880 -0.1062 -0.4940 -0.0002
   89MOL0     C11618   9.376   2.512   1.935 -0.2032  0.6578  0.6045
   89MOL0     O11619   9.442   2.604   2.008 -0.2757  0.3914  0.3966
   89MOL0     C11620   9.579   2.611   2.033  0.4491 -0.5048  0.3162
   89MOL0     C11621   9.669   2.593   1.921  0.8520  0.3752 -0.7818
   89MOL0     C11622   9.805   2.606   1.957  0.4497  0.6370  1.1657
   89MOL0     C11623   9.861   2.635   2.079 -0.7142 -1.0166 -0.2778
   89MOL0     O11624   9.993   2.655   2.104  0.2653 -0.3678 -0.1584
   89MOL0     C11625  10.081   2.607   2.012 -0.4037 -0.0183  0.4600
   89MOL0     C11626  10.220   2.589   2.065  0.5910 -0.3646  0.2323
   89MOL0     C11627  10.249   2.447   2.086 -0.2451  0.8779 -0.4759
   89MOL0     C11628  10.395   2.422   2.142 -0.6568 -0.2140  0.3243
   89MOL0     C11629  10.495   2.375   2.033 -0.3793 -0.3676  0.0963
   89MOL0     C11630  10.641   2.378   2.088  0.8931 -0.3226 -0.4101
   89MOL0     C11631  10.702   2.514   2.118 -0.1846 -0.4780  0.0336
   89MOL0     C11632  10.850   2.519   2.104 -0.0608  0.3617 -0.8685
   89MOL0     N11633  10.924   2.449   2.209  0.4711 -0.4413  0.1816
   89MOL0     C11634  11.025   2.510   2.282 -0.2144 -0.1796 -0.5200
   89MOL0     C11635  11.057   2.421   2.376 -0.3835  0.4901  0.9518
   89MOL0     C11636  11.174   2.437   2.465 -0.2879 -2.0856 -0.4721
   89MOL0     C11637  11.119   2.506   2.596  0.1463 -0.0097 -0.2195
   89MOL0     C11638  11.229   2.539   2.692  0.0773 -0.0607 -0.4339
   89MOL0     C11639  11.173   2.588   2.831 -0.4401  0.2261 -0.2958
   89MOL0     O11640  11.263   2.643   2.921  0.2302  0.0779 -0.8665
   89MOL0     C11641  11.218   2.656   3.049 -0.0510  0.2113  0.0847
   89MOL0     C11642  11.317   2.654   3.153 -0.2164  0.1234 -0.2950
   89MOL0     C11643  11.269   2.667   3.288  0.0645 -0.0677  0.3643
   89MOL0     C11644  11.128   2.694   3.320 -1.0370  0.7225  0.5505
   89MOL0     C11645  11.098   2.720   3.461  0.6426  0.2658  0.3474
   89MOL0     O11646  10.987   2.798   3.494 -0.4694  0.4605 -0.0806
   89MOL0     C11647  10.972   2.834   3.625 -0.8183 -0.7288 -0.6783
   89MOL0     C11648  11.077   2.892   3.701 -1.0328 -0.6045 -0.1325
   89MOL0     C11649  11.040   2.961   3.818 -0.5634  0.8253 -0.5898
   89MOL0     C11650  10.912   2.970   3.863  0.3036 -0.1682  0.4571
   89MOL0     O11651  10.889   3.065   3.956 -0.0783 -0.4613 -0.7308
   89MOL0     C11652  10.747   3.104   3.997 -0.5490  0.1030  1.2554
   89MOL0     C11653  10.758   3.166   4.133  0.0635 -0.1602  0.5234
   89MOL0     C11654  10.794   3.311   4.117 -0.5612 -0.2012 -0.0470
   89MOL0     C11655  10.766   3.378   4.253  0.3387  0.6317  0.9098
   89MOL0     C11656  10.784   3.536   4.249 -0.1269  0.3211 -0.4773
   89MOL0     C11657  10.761   3.595   4.385  0.6691  0.3648 -0.5819
   89MOL0     C11658  10.769   3.746   4.372  0.2544 -0.2275  0.3880
   89MOL0     C11659  10.683   3.816   4.483 -0.2219  0.2839  0.5126
   89MOL0    Cl11660  10.770   3.782   4.638 -0.0199 -0.4530  0.1108
   89MOL0     C11661  10.800   2.921   3.779 -0.4552  0.1305  0.0424
   89MOL0     C11662  10.840   2.855   3.659 -0.2224  0.7583  0.7641
   89MOL0     O11663  11.169   2.662   3.542 -0.1675 -0.0386 -0.0016
   89MOL0     C11664  11.039   2.714   3.213  0.8938 -0.3207  0.3889
   89MOL0     C11665  11.079   2.700   3.076 -0.6950  0.6384 -1.4548
   89MOL0     N11666  10.968   2.315   2.379  0.1154  0.4524  0.1848
   89MOL0     N11667  10.894   2.332   2.271 -0.1064  0.1718  0.1131
   89MOL0     C11668   9.767   2.645   2.185  0.4179 -0.2119 -1.0508
   89MOL0     C11669   9.633   2.640   2.161 -0.1293  0.1581  0.4262
   89MOL0     C11670   9.243   2.543   1.898  1.0273  0.1884 -0.2575
   89MOL0     C11671   9.145   2.438   1.896  0.2214  0.2922  0.4058
   89MOL0     C11672   9.014   2.467   1.866 -0.0135  0.2972 -0.6015
   89MOL0     C11673   8.973   2.599   1.850 -1.1133 -0.3264  0.0613
   89MOL0     O11674   8.844   2.623   1.836  0.3485 -0.2849 -0.1474
   89MOL0     C11675   8.776   2.648   1.961  0.3481  1.1523 -0.1195
   89MOL0     C11676   8.785   2.788   2.023 -0.7006  0.6753 -0.2197
   89MOL0     C11677   8.767   2.890   1.897 -0.5499  0.8963 -0.2793
   89MOL0     C11678   8.795   3.028   1.944  0.4242  0.6705  0.4968
   89MOL0     C11679   8.755   3.115   1.833 -0.6599 -0.1457 -0.3180
   89MOL0     C11680   8.750   3.180   1.737 -0.0513  0.2683  0.2023
   89MOL0     C11681   9.068   2.702   1.857  0.6747  1.3185 -0.3013
   89MOL0     C11682   9.204   2.681   1.875  0.3567 -0.2679  0.0131
   89MOL0     H11683   9.634   2.594   1.818 -2.2005  1.3042  0.1553
   89MOL0     H11684   9.870   2.617   1.871  0.6016  1.8947  1.4297
   89MOL0     H11685  10.088   2.682   1.933 -1.4626 -0.9922 -0.6154
   89MOL0     H11686  10.049   2.510   1.971 -1.2453 -1.2032  3.6594
   89MOL0     H11687  10.230   2.664   2.143 -0.0115  2.5385 -2.2672
   89MOL0     H11688  10.284   2.623   1.983 -0.9972  1.6388 -0.2640
   89MOL0     H11689  10.234   2.399   1.989 -0.6122  2.8085 -1.4219
   89MOL0     H11690  10.172   2.403   2.149  0.2744  1.3380  0.5078
   89MOL0     H11691  10.435   2.512   2.191 -1.3218  2.2751 -3.2714
   89MOL0     H11692  10.392   2.337   2.210 -0.1321  1.4545  2.5676
   89MOL0     H11693  10.499   2.445   1.949  0.6063  1.2436  1.4255
   89MOL0     H11694  10.466   2.275   2.000 -0.8718  0.6358 -2.7988
   89MOL0     H11695  10.699   2.328   2.010  1.6028  0.9299 -0.7096
   89MOL0     H11696  10.639   2.311   2.175  3.3108 -1.0212 -0.8364
   89MOL0     H11697  10.667   2.576   2.034 -0.8884 -1.4082 -0.3728
   89MOL0     H11698  10.667   2.551   2.215  1.9116  2.1278 -0.0753
   89MOL0     H11699  10.889   2.621   2.104  2.1588 -0.4088 -0.5630
   89MOL0     H11700  10.883   2.473   2.011  0.8837  0.0067 -0.3788
   89MOL0     H11701  11.065   2.606   2.251 -0.1487 -0.7977 -2.4469
   89MOL0     H11702  11.255   2.495   2.419  1.2532 -2.4580  1.6014
   89MOL0     H11703  11.218   2.338   2.482  2.6328 -0.7835  0.2076
   89MOL0     H11704  11.058   2.437   2.655  3.9066 -2.5149  1.0841
   89MOL0     H11705  11.052   2.587   2.564 -0.3806 -1.3707 -2.8304
   89MOL0     H11706  11.277   2.444   2.716 -2.7775 -1.9034 -1.5461
   89MOL0     H11707  11.299   2.609   2.644  3.3672 -1.5026  1.8508
   89MOL0     H11708  11.110   2.510   2.873 -0.6433 -0.3130 -1.5634
   89MOL0     H11709  11.108   2.674   2.811 -0.6850  0.1976  0.3685
   89MOL0     H11710  11.422   2.644   3.127  0.5269  2.7106  1.2335
   89MOL0     H11711  11.343   2.668   3.368  3.8913 -2.4720 -2.7602
   89MOL0     H11712  11.181   2.877   3.673  0.0808 -0.5331  3.3931
   89MOL0     H11713  11.122   2.998   3.879  2.3806  0.3424 -3.8568
   89MOL0     H11714  10.678   3.020   4.006 -0.4189  0.0041  1.3361
   89MOL0     H11715  10.706   3.177   3.926  5.1950  2.1356 -0.6133
   89MOL0     H11716  10.821   3.103   4.196 -1.7390  0.3936  3.0417
   89MOL0     H11717  10.659   3.167   4.180  0.3744 -2.3948  1.3497
   89MOL0     H11718  10.754   3.368   4.033  1.4928 -0.6465 -1.3817
   89MOL0     H11719  10.902   3.318   4.105 -0.3946 -0.7495  1.0292
   89MOL0     H11720  10.660   3.361   4.278 -0.4129  1.5051 -1.4388
   89MOL0     H11721  10.832   3.339   4.331 -1.0686  3.0231  3.4931
   89MOL0     H11722  10.726   3.573   4.164 -0.9802  0.2728  0.0689
   89MOL0     H11723  10.886   3.548   4.210  0.0061 -1.3120 -0.7037
   89MOL0     H11724  10.839   3.567   4.456 -1.2194 -2.7410  0.4417
   89MOL0     H11725  10.663   3.566   4.423  1.3470 -0.4535  0.6054
   89MOL0     H11726  10.873   3.781   4.375  0.3001 -0.0583 -1.6128
   89MOL0     H11727  10.732   3.779   4.275  1.2198  0.2039  0.1526
   89MOL0     H11728  10.588   3.761   4.479 -1.6921  2.6695  1.1840
   89MOL0     H11729  10.658   3.921   4.466  0.1713  0.4405  0.8917
   89MOL0     H11730  10.696   2.940   3.803 -0.4905  1.0974 -0.8223
   89MOL0     H11731  10.756   2.825   3.597 -0.7389  0.3050  1.6750
   89MOL0     H11732  10.935   2.726   3.241  1.3555  0.4076  1.8827
   89MOL0     H11733  11.001   2.718   3.002 -2.7146  1.2843  0.7152
   89MOL0     H11734   9.799   2.671   2.285 -0.3779 -0.6718 -0.6603
   89MOL0     H11735   9.567   2.658   2.245  0.3701  0.5298  0.7433
   89MOL0     H11736   9.165   2.332   1.907 -0.6575 -0.6014 -4.3704
   89MOL0     H11737   8.923   2.408   1.866 -0.0686  0.3706 -0.1415
   89MOL0     H11738   8.812   2.581   2.040 -4.7488 -1.0638  0.7509
   89MOL0     H11739   8.667   2.640   1.952 -0.0531  3.3905  1.8003
   89MOL0     H11740   8.725   2.809   2.112  0.0463 -0.0417  0.4702
   89MOL0     H11741   8.883   2.786   2.071 -0.6877 -4.6891  0.1505
   89MOL0     H11742   8.664   2.880   1.863  0.2844  0.0607 -2.7525
   89MOL0     H11743   8.840   2.877   1.817 -0.4484  2.7505 -0.5174
   89MOL0     H11744   8.728   3.046   2.029  0.2248 -0.0876  0.5084
   89MOL0     H11745   8.898   3.042   1.978  0.4616 -1.4289  1.3990
   89MOL0     H11746   8.737   3.243   1.651 -2.5514  1.6239  1.4531
   89MOL0     H11747   9.047   2.804   1.825 -0.6966  0.6360 -1.6926
   89MOL0     H11748   9.260   2.772   1.893 -0.1884  0.6681 -2.5737
   90MOL0     O11749   7.165   2.241   9.700 -0.8119 -0.6036 -0.3819
   90MOL0     C11750   7.241   2.145   9.688 -0.1012 -0.2662 -0.7087
   90MOL0     O11751   7.341   2.137   9.596  0.4450 -0.1131 -0.6539
   90MOL0     C11752   7.363   2.243   9.509  0.2997  0.2733  0.6408
   90MOL0     C11753   7.372   2.201   9.371 -0.0139 -0.3958  0.1117
   90MOL0     C11754   7.387   2.300   9.270 -0.4207  0.2964 -0.6492
   90MOL0     C11755   7.409   2.436   9.305  0.2960 -1.1833  0.4032
   90MOL0     O11756   7.441   2.546   9.227 -0.3075  0.6821 -0.2409
   90MOL0     C11757   7.357   2.552   9.115  0.9037  0.0381  0.6483
   90MOL0     C11758   7.403   2.659   9.014  0.5159  0.8591 -0.6489
   90MOL0     C11759   7.387   2.798   9.076 -0.0329  0.2324 -0.2840
   90MOL0     C11760   7.423   2.897   8.958  0.9480 -0.8040  0.5211
   90MOL0     C11761   7.398   3.036   9.009 -0.0164 -0.6379 -0.0251
   90MOL0     C11762   7.517   3.086   9.093 -0.0720  0.2013  0.4418
   90MOL0     C11763   7.644   3.106   9.011  0.0508  0.2386  1.4784
   90MOL0     C11764   7.735   3.208   9.078  0.1444 -1.1593 -1.3930
   90MOL0     N11765   7.866   3.231   9.014  0.6661  0.1587 -0.1052
   90MOL0     C11766   7.893   3.279   8.894  0.2232 -1.1000 -0.1827
   90MOL0     C11767   8.026   3.305   8.882  0.0241 -0.0180  0.0143
   90MOL0     C11768   8.106   3.359   8.768  0.4908 -0.2800 -0.3627
   90MOL0     C11769   8.129   3.511   8.813  0.0656 -0.0237  0.5738
   90MOL0     C11770   8.159   3.601   8.703  0.7182  0.5254  0.4517
   90MOL0     C11771   8.288   3.681   8.723  0.3694 -0.2898 -0.2569
   90MOL0     O11772   8.260   3.785   8.818  1.1573  0.1276 -0.1572
   90MOL0     C11773   8.369   3.867   8.842 -0.5466 -0.3120 -0.1476
   90MOL0     C11774   8.357   3.973   8.939  0.5671  1.0189  0.4356
   90MOL0     C11775   8.460   4.063   8.962  0.1253  0.3136 -0.7137
   90MOL0     C11776   8.588   4.051   8.908  0.2387  0.1164  0.4234
   90MOL0     C11777   8.683   4.160   8.931  0.5152  0.4252 -0.2433
   90MOL0     O11778   8.817   4.134   8.900  0.3750 -0.9396  0.2568
   90MOL0     C11779   8.918   4.223   8.926  0.2957 -0.0194  0.4665
   90MOL0     C11780   8.914   4.356   8.967  0.5272 -0.0827 -0.1283
   90MOL0     C11781   9.020   4.440   8.990  0.5825  0.1375 -0.3404
   90MOL0     C11782   9.146   4.385   8.981 -0.0940  0.5259 -0.5045
   90MOL0     O11783   9.263   4.444   8.978  0.3677 -0.8109  0.4611
   90MOL0     C11784   9.303   4.516   9.100  0.0303  0.4708  0.5921
   90MOL0     C11785   9.431   4.594   9.074  0.8498  1.7193 -0.6550
   90MOL0     C11786   9.410   4.735   9.026 -0.2033  0.0542 -0.3888
   90MOL0     C11787   9.384   4.759   8.876 -0.2843  0.7024 -0.2086
   90MOL0     C11788   9.500   4.735   8.783 -0.2869 -0.3710  0.3833
   90MOL0     C11789   9.640   4.786   8.816 -0.1987  0.2039 -0.0276
   90MOL0     C11790   9.636   4.939   8.821 -0.9570  0.7072 -0.8518
   90MOL0     C11791   9.592   5.016   8.694 -1.3720  0.1398  0.0538
   90MOL0    Cl11792   9.709   4.995   8.549  0.7513  0.0448 -0.2207
   90MOL0     C11793   9.161   4.244   8.965 -0.1281 -0.0784  0.2384
   90MOL0     C11794   9.050   4.169   8.912 -0.0462 -0.4988  0.1637
   90MOL0     O11795   8.637   4.261   8.977  0.1311 -1.2671 -0.1834
   90MOL0     C11796   8.607   3.945   8.816 -0.2506  0.7753 -0.2413
   90MOL0     C11797   8.495   3.861   8.785 -1.0652 -0.3155 -0.2641
   90MOL0     N11798   8.076   3.249   9.003 -0.3236 -1.1326  0.4671
   90MOL0     N11799   7.979   3.216   9.083  0.3055  0.2652 -0.4617
   90MOL0     C11800   7.400   2.466   9.444  0.0345  0.1190  0.2393
   90MOL0     C11801   7.374   2.374   9.542  0.3918  0.9823 -0.8837
   90MOL0     C11802   7.223   2.039   9.789 -0.5784 -0.4267  0.1117
   90MOL0     C11803   7.268   1.910   9.760 -0.4423 -0.3306  0.3877
   90MOL0     C11804   7.259   1.803   9.843  0.5267  0.2962  0.4118
   90MOL0     C11805   7.220   1.821   9.970  0.4033 -0.4897  0.6872
   90MOL0     O11806   7.229   1.723  10.063 -1.1660  0.2017 -0.7890
   90MOL0     C11807   7.265   1.592  10.028 -0.5178  0.7756 -0.3646
   90MOL0     C11808   7.266   1.495  10.142 -0.5758  0.2394 -0.8662
   90MOL0     C11809   7.413   1.505  10.192 -0.7973 -0.9618 -0.1714
   90MOL0     C11810   7.448   1.422  10.311  0.0506  1.2328  1.0301
   90MOL0     C11811   7.453   1.281  10.271 -0.9086  0.2914 -1.4460
   90MOL0     C11812   7.434   1.171  10.228 -0.2795 -0.3247 -0.7456
   90MOL0     C11813   7.181   1.957  10.008 -0.7446  0.2419 -0.0184
   90MOL0     C11814   7.178   2.060   9.914 -0.0000 -1.1486 -0.5176
   90MOL0     H11815   7.353   2.096   9.351 -0.8151 -0.0128 -1.3141
   90MOL0     H11816   7.387   2.271   9.166 -1.0952  1.6972 -1.0720
   90MOL0     H11817   7.254   2.562   9.151  0.8666 -2.3495  1.3825
   90MOL0     H11818   7.376   2.459   9.062  1.5866 -1.1987  2.9198
   90MOL0     H11819   7.346   2.653   8.921 -0.4115 -1.4850 -0.0162
   90MOL0     H11820   7.510   2.646   8.994  0.7151  1.2900  0.1055
   90MOL0     H11821   7.461   2.811   9.155 -2.1769 -0.6838  1.9822
   90MOL0     H11822   7.291   2.823   9.122 -0.9910  1.8456 -2.9041
   90MOL0     H11823   7.519   2.886   8.907 -0.5594  1.1059 -3.1613
   90MOL0     H11824   7.353   2.874   8.877  1.2677 -3.3157  0.8902
   90MOL0     H11825   7.305   3.032   9.068  1.5542 -2.3147  2.5511
   90MOL0     H11826   7.382   3.109   8.929 -1.7180 -0.8380  0.0869
   90MOL0     H11827   7.536   3.009   9.169 -0.3656  0.9157  1.2584
   90MOL0     H11828   7.492   3.182   9.140  2.6665  0.7110  0.9916
   90MOL0     H11829   7.695   3.010   9.001 -2.9452 -1.2023 -2.6553
   90MOL0     H11830   7.621   3.124   8.906  2.3866 -0.6997  0.7490
   90MOL0     H11831   7.754   3.183   9.183  2.5210 -1.5700 -1.8646
   90MOL0     H11832   7.682   3.303   9.087 -1.3122 -1.9887 -0.8654
   90MOL0     H11833   7.819   3.299   8.817  0.3358 -0.0068 -0.0324
   90MOL0     H11834   8.042   3.360   8.679  0.8474 -0.8823 -0.6308
   90MOL0     H11835   8.202   3.317   8.737  0.3045  0.7687 -2.6148
   90MOL0     H11836   8.221   3.507   8.873  3.1168  1.8297 -3.5322
   90MOL0     H11837   8.040   3.546   8.866  0.2933 -1.9744  2.3972
   90MOL0     H11838   8.168   3.535   8.616  1.1905  1.1425  0.0287
   90MOL0     H11839   8.073   3.666   8.685 -0.5887 -1.5053 -1.1390
   90MOL0     H11840   8.329   3.725   8.632  2.6041  3.3239  2.2351
   90MOL0     H11841   8.364   3.617   8.770  0.4753  0.0448  0.0341
   90MOL0     H11842   8.262   3.987   8.989  2.6946  1.0957  4.9713
   90MOL0     H11843   8.446   4.157   9.015  0.0773  0.7755 -1.5375
   90MOL0     H11844   8.815   4.399   8.977  0.1833 -0.6416 -0.9889
   90MOL0     H11845   9.009   4.545   9.016 -1.1783  0.3316 -1.6549
   90MOL0     H11846   9.320   4.436   9.173 -0.4445  0.2447  0.4584
   90MOL0     H11847   9.223   4.579   9.140  1.5013  0.4502  3.8870
   90MOL0     H11848   9.502   4.540   9.009  0.7655 -0.7396  1.1452
   90MOL0     H11849   9.486   4.588   9.169  0.9621 -1.4379 -0.8140
   90MOL0     H11850   9.508   4.780   9.045  2.0794 -4.2527 -0.6967
   90MOL0     H11851   9.337   4.788   9.088 -0.4236 -2.4771  1.6337
   90MOL0     H11852   9.301   4.697   8.840  0.5430 -0.4491 -0.2085
   90MOL0     H11853   9.358   4.863   8.855  1.5512  0.7801 -2.5778
   90MOL0     H11854   9.477   4.766   8.681 -2.8148  2.4965  1.6513
   90MOL0     H11855   9.517   4.627   8.783 -0.9418 -0.4967 -1.3099
   90MOL0     H11856   9.711   4.757   8.737 -2.0993 -1.7260 -1.1524
   90MOL0     H11857   9.673   4.751   8.915 -1.3406 -1.8230 -0.3024
   90MOL0     H11858   9.587   4.978   8.911  1.5655 -0.9300  1.3919
   90MOL0     H11859   9.740   4.960   8.846 -1.1889  0.4359  0.4012
   90MOL0     H11860   9.606   5.123   8.710 -2.1813  0.7218 -2.6199
   90MOL0     H11861   9.487   4.998   8.666 -1.6683  1.4381  0.2790
   90MOL0     H11862   9.258   4.195   8.958 -0.4707 -1.5902  3.9504
   90MOL0     H11863   9.065   4.067   8.879  1.5716 -0.0593 -0.5672
   90MOL0     H11864   8.697   3.923   8.760 -1.1717  0.6704 -1.7286
   90MOL0     H11865   8.527   3.792   8.708  0.9534  0.2529  0.0017
   90MOL0     H11866   7.413   2.566   9.484 -0.1639 -0.7265  2.5774
   90MOL0     H11867   7.380   2.406   9.645  0.1959 -0.4969 -0.3853
   90MOL0     H11868   7.300   1.887   9.659  1.0848  1.1493  0.4821
   90MOL0     H11869   7.315   1.716   9.809 -0.0571  1.0998 -3.0270
   90MOL0     H11870   7.364   1.594   9.982 -1.2012  0.6647 -1.8856
   90MOL0     H11871   7.207   1.555   9.943  0.6122  1.1311 -1.3274
   90MOL0     H11872   7.192   1.516  10.219 -0.0318 -3.0993  0.7361
   90MOL0     H11873   7.252   1.394  10.104 -3.0021  0.2172 -0.0700
   90MOL0     H11874   7.439   1.606  10.224 -0.0155 -1.6906  1.6040
   90MOL0     H11875   7.482   1.472  10.113  2.0212  0.7742  1.3950
   90MOL0     H11876   7.544   1.458  10.350  0.7476  0.6330 -0.0683
   90MOL0     H11877   7.384   1.430  10.400  1.4857  0.6291  2.1478
   90MOL0     H11878   7.423   1.070  10.195 -0.4893 -0.8961  0.9928
   90MOL0     H11879   7.148   1.969  10.111  0.7214  2.3489  0.2580
   90MOL0     H11880   7.169   2.164   9.941  1.9745 -0.7110 -1.4088
   91MOL0     O11881   2.374   3.726   6.665  0.2320  0.8882 -0.3212
   91MOL0     C11882   2.474   3.742   6.725 -0.0634 -0.4626  0.1644
   91MOL0     O11883   2.574   3.651   6.737  0.2874  0.5942  0.3266
   91MOL0     C11884   2.559   3.525   6.697  0.3623  0.0507  0.2654
   91MOL0     C11885   2.662   3.478   6.623 -0.6172  0.5525  0.4042
   91MOL0     C11886   2.648   3.348   6.565  0.4593  0.7866 -0.0957
   91MOL0     C11887   2.539   3.265   6.582  1.2418 -1.3139 -0.0841
   91MOL0     O11888   2.501   3.152   6.510  0.2835 -0.2322  0.3039
   91MOL0     C11889   2.591   3.079   6.430 -0.0077  1.8515  0.2539
   91MOL0     C11890   2.672   2.984   6.513  0.2541 -0.8122  0.0854
   91MOL0     C11891   2.754   2.880   6.442 -1.3700 -0.6099 -0.2301
   91MOL0     C11892   2.862   2.933   6.346 -0.3141 -0.3016 -0.3728
   91MOL0     C11893   2.984   2.849   6.327  0.2051  0.6681 -0.2041
   91MOL0     C11894   3.077   2.917   6.220 -0.0966 -0.7013  0.0606
   91MOL0     C11895   3.001   2.917   6.082 -0.4284  0.0742 -0.4254
   91MOL0     C11896   2.988   3.055   6.020 -1.1033 -0.0512  0.2996
   91MOL0     N11897   2.899   3.157   6.077  0.1182 -0.5322  0.5993
   91MOL0     C11898   2.940   3.262   6.150  1.1089  0.5186 -0.2666
   91MOL0     C11899   2.821   3.323   6.174  0.3617  0.5568 -0.7890
   91MOL0     C11900   2.791   3.445   6.258 -0.1272 -0.1787  0.0044
   91MOL0     C11901   2.829   3.575   6.188 -0.3383  0.3477  0.7443
   91MOL0     C11902   2.770   3.712   6.247  0.1153  0.2702 -0.3443
   91MOL0     C11903   2.821   3.727   6.391 -0.1261 -0.1016 -1.2330
   91MOL0     O11904   2.891   3.851   6.411  0.1533  0.7198  0.0734
   91MOL0     C11905   2.903   3.913   6.533  0.6619  0.8000  0.5848
   91MOL0     C11906   2.939   4.051   6.539  0.8387 -0.1424 -1.5977
   91MOL0     C11907   2.943   4.112   6.666  0.5965 -0.6949  0.4587
   91MOL0     C11908   2.935   4.045   6.788  0.2502 -0.2556 -0.4403
   91MOL0     C11909   2.974   4.121   6.906 -0.1128 -0.9916  0.2883
   91MOL0     O11910   2.994   4.255   6.907 -0.1424  0.6345 -0.1336
   91MOL0     C11911   2.983   4.327   7.035  0.8950 -0.2857 -0.0412
   91MOL0     C11912   2.894   4.291   7.140  0.1470  0.2646 -0.2135
   91MOL0     C11913   2.882   4.364   7.259  0.0639 -0.3583  0.0634
   91MOL0     C11914   2.957   4.484   7.270 -0.7951 -0.0365 -0.3119
   91MOL0     O11915   2.939   4.553   7.395 -0.0610  0.5506  0.0169
   91MOL0     C11916   3.048   4.644   7.419 -0.4849 -0.3290  0.6096
   91MOL0     C11917   3.008   4.710   7.553  0.7525  0.5057 -0.3845
   91MOL0     C11918   3.106   4.801   7.604  0.4846 -0.2459 -0.1325
   91MOL0     C11919   3.245   4.736   7.623 -0.2421 -0.2469  0.3910
   91MOL0     C11920   3.348   4.834   7.679 -0.6915 -0.0751  0.2429
   91MOL0     C11921   3.484   4.766   7.693  0.3641 -0.1528 -0.7451
   91MOL0     C11922   3.498   4.663   7.811 -0.0831  0.6396 -0.2574
   91MOL0     C11923   3.644   4.612   7.808 -1.1554  0.0579 -0.5413
   91MOL0    Cl11924   3.663   4.521   7.967  0.2143 -0.2534  0.0630
   91MOL0     C11925   3.033   4.531   7.152 -0.7187 -0.0695 -0.4642
   91MOL0     C11926   3.046   4.453   7.041  0.0779 -0.5524 -0.1105
   91MOL0     O11927   2.992   4.052   7.007 -0.0276 -0.3943  0.2864
   91MOL0     C11928   2.887   3.914   6.783  0.2211  0.3144  0.0971
   91MOL0     C11929   2.869   3.846   6.656 -0.3934 -0.4568 -0.9048
   91MOL0     N11930   2.718   3.250   6.123 -0.0276 -0.1597  0.3950
   91MOL0     N11931   2.764   3.148   6.066 -0.4307  1.0583 -0.1268
   91MOL0     C11932   2.437   3.318   6.661  0.2460  0.4485 -0.1159
   91MOL0     C11933   2.441   3.446   6.717  0.6003 -0.6085 -0.3026
   91MOL0     C11934   2.487   3.874   6.797  0.1159  0.2826  0.5078
   91MOL0     C11935   2.584   3.876   6.901  0.2345 -0.2834 -0.3157
   91MOL0     C11936   2.609   3.991   6.982 -0.1805 -0.0580  0.2422
   91MOL0     C11937   2.521   4.109   6.970  0.7754  0.7496  0.3291
   91MOL0     O11938   2.544   4.215   7.052 -0.5436  0.6910  0.1609
   91MOL0     C11939   2.423   4.305   7.061 -0.6041 -0.6159 -0.1951
   91MOL0     C11940   2.431   4.409   7.188  0.6742  0.2442  0.1478
   91MOL0     C11941   2.380   4.356   7.317 -0.0351  0.8226 -0.1086
   91MOL0     C11942   2.470   4.248   7.369  0.3930  0.4844  1.9416
   91MOL0     C11943   2.393   4.197   7.490 -1.8232  0.6909  0.3393
   91MOL0     C11944   2.337   4.152   7.593 -0.8442 -0.2223  1.1479
   91MOL0     C11945   2.429   4.101   6.869  0.9670 -0.6735  0.9632
   91MOL0     C11946   2.409   3.989   6.789  0.2383  0.3226 -0.1153
   91MOL0     H11947   2.749   3.540   6.605 -0.3726  0.1295  0.1010
   91MOL0     H11948   2.717   3.315   6.488 -2.2991 -0.8129 -2.0490
   91MOL0     H11949   2.658   3.140   6.369  1.9786 -1.0556 -0.6473
   91MOL0     H11950   2.517   3.027   6.369  0.1266  0.9781  0.8097
   91MOL0     H11951   2.599   2.940   6.581 -1.7885  0.2900 -1.3036
   91MOL0     H11952   2.749   3.038   6.569  0.9200 -0.9911 -0.6334
   91MOL0     H11953   2.699   2.800   6.390 -0.5297 -3.0634  2.3809
   91MOL0     H11954   2.803   2.823   6.521 -5.0693 -2.2952  1.1057
   91MOL0     H11955   2.814   2.945   6.249  1.6417  0.1098 -1.3305
   91MOL0     H11956   2.888   3.033   6.382 -3.7787 -0.0261  1.8871
   91MOL0     H11957   2.950   2.749   6.297  0.0880  0.1828  1.4116
   91MOL0     H11958   3.041   2.824   6.417  0.0084 -0.0188 -0.2647
   91MOL0     H11959   3.168   2.855   6.215  0.5606  0.1713  0.7005
   91MOL0     H11960   3.110   3.019   6.240 -0.2460 -0.8566  1.1638
   91MOL0     H11961   3.060   2.857   6.012 -1.5327  0.2383 -1.5504
   91MOL0     H11962   2.906   2.862   6.081  0.8711 -2.3468  1.2498
   91MOL0     H11963   2.942   3.036   5.923 -0.7067  0.7545 -0.0626
   91MOL0     H11964   3.086   3.098   5.994 -0.8407 -0.5724  0.4231
   91MOL0     H11965   3.037   3.276   6.195  0.2983 -3.4494  3.3760
   91MOL0     H11966   2.859   3.432   6.343 -0.6843  1.6161  0.7845
   91MOL0     H11967   2.689   3.463   6.294  0.0861  0.4687  0.3103
   91MOL0     H11968   2.815   3.565   6.080 -1.6265 -1.7567  1.0555
   91MOL0     H11969   2.938   3.581   6.190 -0.2735 -0.7912  2.2897
   91MOL0     H11970   2.797   3.796   6.182  2.6611 -0.4357 -0.3266
   91MOL0     H11971   2.661   3.710   6.244  0.1501 -0.8450 -1.7564
   91MOL0     H11972   2.889   3.647   6.421 -1.2837 -0.7044 -0.1275
   91MOL0     H11973   2.726   3.728   6.446  1.5559  0.8749  1.8504
   91MOL0     H11974   2.970   4.109   6.453  1.0654  1.0350 -0.7596
   91MOL0     H11975   2.970   4.217   6.677 -0.8688 -0.5990  5.9020
   91MOL0     H11976   2.839   4.199   7.124 -0.3550  0.5238  0.0071
   91MOL0     H11977   2.817   4.337   7.342 -0.1821  1.4762  0.4997
   91MOL0     H11978   3.059   4.713   7.335  2.4055 -3.2287 -1.6432
   91MOL0     H11979   3.151   4.607   7.423  0.4458  1.7936 -1.4802
   91MOL0     H11980   3.000   4.632   7.629  0.9227 -0.0997 -0.9758
   91MOL0     H11981   2.913   4.764   7.539  0.7316  0.5559 -0.0483
   91MOL0     H11982   3.084   4.847   7.700 -0.1053  0.4268 -0.5778
   91MOL0     H11983   3.118   4.888   7.538 -0.3625  0.4832  0.6515
   91MOL0     H11984   3.230   4.651   7.690 -1.3053  2.3046  3.7340
   91MOL0     H11985   3.276   4.716   7.521  0.6603  2.0615  0.1391
   91MOL0     H11986   3.315   4.870   7.777 -1.8307  0.6613 -0.3841
   91MOL0     H11987   3.350   4.919   7.610 -3.4780  0.3463  0.5850
   91MOL0     H11988   3.553   4.847   7.721  1.2184 -2.0563  3.5729
   91MOL0     H11989   3.510   4.714   7.601  0.6371 -4.2175  1.4048
   91MOL0     H11990   3.483   4.725   7.900 -1.0320 -0.7227  0.5636
   91MOL0     H11991   3.430   4.578   7.807  2.0461 -1.1783  0.4820
   91MOL0     H11992   3.716   4.694   7.817 -0.6079 -0.4655  0.0350
   91MOL0     H11993   3.671   4.551   7.721  0.1247  0.7178 -0.6319
   91MOL0     H11994   3.072   4.631   7.139 -0.7892 -0.2298 -2.0476
   91MOL0     H11995   3.084   4.496   6.949  1.9584  1.5789  1.5587
   91MOL0     H11996   2.849   3.845   6.858  1.6595 -3.3118 -2.2234
   91MOL0     H11997   2.835   3.743   6.660  2.0227 -1.2925  0.7070
   91MOL0     H11998   2.335   3.282   6.653 -1.0446  4.0559 -3.4396
   91MOL0     H11999   2.350   3.484   6.765 -0.0530 -0.3183 -1.7248
   91MOL0     H12000   2.636   3.783   6.921 -0.9281 -0.6357  1.3651
   91MOL0     H12001   2.681   3.993   7.063  1.3314  4.3949 -0.9243
   91MOL0     H12002   2.338   4.237   7.071  0.6442 -1.9809  2.3130
   91MOL0     H12003   2.411   4.370   6.974 -0.6420 -0.2908  0.0528
   91MOL0     H12004   2.532   4.448   7.196  0.2603  0.9491  2.8745
   91MOL0     H12005   2.362   4.484   7.149  0.0580 -2.4662 -4.8597
   91MOL0     H12006   2.281   4.317   7.293 -0.6263  1.5245  1.0857
   91MOL0     H12007   2.373   4.439   7.389  1.1356 -1.1548  2.4297
   91MOL0     H12008   2.485   4.169   7.295 -1.8981  0.1991  1.7173
   91MOL0     H12009   2.568   4.296   7.382  0.7545  0.0259  1.0003
   91MOL0     H12010   2.290   4.109   7.679 -1.0741 -1.7077  0.3171
   91MOL0     H12011   2.377   4.188   6.831 -1.2320 -3.3467 -2.7475
   91MOL0     H12012   2.318   3.984   6.730  0.0090 -0.9757  0.3061
   92MOL0     O12013   5.507   9.232   2.358  0.1958 -0.1970 -1.3925
   92MOL0     C12014   5.399   9.285   2.375  0.2591 -0.7255 -0.5864
   92MOL0     O12015   5.381   9.421   2.390 -0.8815  0.1933  0.1200
   92MOL0     C12016   5.482   9.506   2.438 -0.6589  0.3253 -0.5156
   92MOL0     C12017   5.578   9.451   2.534 -0.2420  0.5186 -0.1460
   92MOL0     C12018   5.675   9.537   2.587 -0.2011  0.0875  0.4941
   92MOL0     C12019   5.673   9.673   2.558 -0.2342 -0.2274  0.2037
   92MOL0     O12020   5.751   9.750   2.634  0.0278  0.3230  1.4449
   92MOL0     C12021   5.789   9.881   2.584 -0.3566  0.1499  0.9791
   92MOL0     C12022   5.933   9.897   2.637  0.3947  0.6828  0.8348
   92MOL0     C12023   5.982  10.046   2.649  1.0047  0.1382 -0.3594
   92MOL0     C12024   6.021  10.094   2.511  0.0854  0.3340 -1.0113
   92MOL0     C12025   6.070  10.232   2.509 -0.3286 -0.1125  0.5349
   92MOL0     C12026   6.134  10.273   2.380 -0.6276  0.1471  0.1856
   92MOL0     C12027   6.150  10.430   2.361 -0.4695 -0.6021 -0.5683
   92MOL0     C12028   6.243  10.500   2.465 -0.2838 -0.1069 -0.8048
   92MOL0     N12029   6.218  10.642   2.484  0.7741 -0.2006 -0.1939
   92MOL0     C12030   6.218  10.713   2.602  0.7207 -0.0928  0.1605
   92MOL0     C12031   6.193  10.845   2.566  0.2342  0.4626  0.1338
   92MOL0     C12032   6.188  10.960   2.666 -0.6428  0.6532 -0.3378
   92MOL0     C12033   6.322  11.031   2.673  0.0220 -0.2471  0.0751
   92MOL0     C12034   6.425  10.934   2.730 -0.3358  0.0971 -1.1467
   92MOL0     C12035   6.560  10.992   2.777 -0.1283 -0.2280  0.5350
   92MOL0     O12036   6.631  11.063   2.667  0.6081 -0.5065 -0.8593
   92MOL0     C12037   6.688  11.182   2.694 -0.3168  0.1456 -0.1903
   92MOL0     C12038   6.690  11.269   2.589  0.0339  0.2875 -0.6064
   92MOL0     C12039   6.740  11.400   2.595 -0.2228 -0.2772  0.9279
   92MOL0     C12040   6.801  11.446   2.715  0.1427 -0.0479 -0.6747
   92MOL0     C12041   6.854  11.581   2.733  0.3302 -0.6255 -0.1002
   92MOL0     O12042   6.897  11.637   2.853 -0.5729  0.4278  0.6263
   92MOL0     C12043   6.873  11.770   2.891  0.4344  1.1001  0.1443
   92MOL0     C12044   6.774  11.854   2.829  0.5946 -0.2497  0.2832
   92MOL0     C12045   6.760  11.980   2.873  0.3819 -0.4140 -0.9382
   92MOL0     C12046   6.848  12.040   2.964  0.3521  0.0405  0.2046
   92MOL0     O12047   6.840  12.170   3.002  0.8813 -1.0872  0.4104
   92MOL0     C12048   6.737  12.268   2.959  0.7217  0.1152  0.8084
   92MOL0     C12049   6.758  12.328   2.812  1.0606 -0.0565  0.1987
   92MOL0     C12050   6.641  12.420   2.810  0.6360 -0.8452  0.3033
   92MOL0     C12051   6.637  12.495   2.679 -0.1584 -0.1056 -0.2116
   92MOL0     C12052   6.523  12.592   2.661 -0.0639 -0.0287  0.3220
   92MOL0     C12053   6.384  12.534   2.640 -0.5039 -0.7017 -1.0426
   92MOL0     C12054   6.377  12.454   2.508  0.5154  0.1816 -0.0790
   92MOL0     C12055   6.244  12.390   2.495  0.1186 -1.2361 -0.3390
   92MOL0    Cl12056   6.221  12.252   2.611 -0.3979 -0.5181 -0.1271
   92MOL0     C12057   6.947  11.957   3.022 -0.1953 -0.3016  0.6095
   92MOL0     C12058   6.966  11.828   2.980 -0.1856  0.1883  0.2373
   92MOL0     O12059   6.851  11.651   2.627 -0.6434 -0.7896  0.5185
   92MOL0     C12060   6.805  11.354   2.827 -0.6009  0.2914 -0.7030
   92MOL0     C12061   6.752  11.225   2.811 -0.1591 -0.9229 -0.7019
   92MOL0     N12062   6.188  10.858   2.431 -0.3632 -0.2033 -0.1042
   92MOL0     N12063   6.206  10.734   2.380  0.2925 -0.1734  0.5009
   92MOL0     C12064   5.581   9.728   2.463 -0.8606  0.8129 -0.8228
   92MOL0     C12065   5.490   9.648   2.405 -0.1172 -0.1106  0.4878
   92MOL0     C12066   5.277   9.209   2.358  0.9878 -0.2709 -0.5040
   92MOL0     C12067   5.145   9.268   2.349  0.6363  0.1270 -0.3816
   92MOL0     C12068   5.036   9.194   2.310  0.4784 -1.0405  0.3599
   92MOL0     C12069   5.046   9.060   2.280 -1.0406 -0.1190  0.1691
   92MOL0     O12070   4.929   8.989   2.260  0.2957  0.2597  0.1555
   92MOL0     C12071   4.937   8.857   2.190 -0.0056 -0.4694 -0.9764
   92MOL0     C12072   4.961   8.882   2.047 -0.2378  0.6959  0.4770
   92MOL0     C12073   4.858   8.961   1.971  0.0515  0.0211 -0.6261
   92MOL0     C12074   4.927   9.017   1.841  0.4585  0.1379 -0.1740
   92MOL0     C12075   5.011   9.124   1.879  0.3503  0.0984  0.6513
   92MOL0     C12076   5.084   9.222   1.897 -0.2469 -0.0722  0.2554
   92MOL0     C12077   5.170   9.002   2.302 -0.2553 -0.8310  0.6568
   92MOL0     C12078   5.286   9.071   2.341 -0.6313 -0.7088  0.8683
   92MOL0     H12079   5.582   9.346   2.559  0.6436  0.6564  0.3351
   92MOL0     H12080   5.750   9.495   2.653  1.2335 -3.3939 -2.9807
   92MOL0     H12081   5.726   9.966   2.612 -0.0311  0.4713  0.7437
   92MOL0     H12082   5.803   9.885   2.475 -1.2084 -2.4602  0.6863
   92MOL0     H12083   6.004   9.836   2.580 -0.1709  1.3472 -0.6069
   92MOL0     H12084   5.922   9.856   2.738 -1.8041 -0.2848  0.2624
   92MOL0     H12085   6.063  10.052   2.723 -1.5966 -2.0545  3.0331
   92MOL0     H12086   5.900  10.108   2.687  1.4467  0.8126 -0.4935
   92MOL0     H12087   6.094  10.016   2.487  0.5780  0.3585  0.3254
   92MOL0     H12088   5.940  10.095   2.437 -1.5991  1.2057  0.7331
   92MOL0     H12089   6.151  10.241   2.582  2.8723  0.0251 -2.6960
   92MOL0     H12090   5.982  10.296   2.518  0.4640  1.0124  0.5215
   92MOL0     H12091   6.061  10.242   2.305 -0.7193  0.9044 -0.0505
   92MOL0     H12092   6.234  10.232   2.363  0.3734  2.9808 -1.4525
   92MOL0     H12093   6.191  10.449   2.261 -2.6113  1.4115 -1.1498
   92MOL0     H12094   6.052  10.475   2.378  1.0997  1.6575  4.2859
   92MOL0     H12095   6.344  10.475   2.429 -0.3838 -2.1960  0.2037
   92MOL0     H12096   6.236  10.450   2.562  0.3032 -0.7827 -1.0988
   92MOL0     H12097   6.230  10.686   2.707  1.8857  0.4603  0.1841
   92MOL0     H12098   6.156  10.913   2.760  2.7647  0.2458  0.7625
   92MOL0     H12099   6.121  11.037   2.629  0.8198  4.6097  4.2764
   92MOL0     H12100   6.319  11.123   2.732  0.6373  0.5842 -1.1235
   92MOL0     H12101   6.359  11.068   2.577  2.7510 -0.3494  0.9922
   92MOL0     H12102   6.394  10.891   2.825  0.2700 -2.8112 -2.1734
   92MOL0     H12103   6.447  10.849   2.665 -0.6527  0.5972 -1.9330
   92MOL0     H12104   6.624  10.916   2.823 -1.9377 -1.0612  1.8170
   92MOL0     H12105   6.531  11.072   2.847  0.7968  1.1396 -0.5827
   92MOL0     H12106   6.636  11.235   2.501 -0.1053 -0.6188 -0.1841
   92MOL0     H12107   6.728  11.465   2.508 -0.4039 -3.4110 -1.5679
   92MOL0     H12108   6.714  11.821   2.745 -2.3642  1.5356  1.5277
   92MOL0     H12109   6.681  12.044   2.835 -0.5101 -1.5318 -1.0105
   92MOL0     H12110   6.726  12.354   3.026 -1.5941  2.3323 -2.0937
   92MOL0     H12111   6.641  12.218   2.975  0.6405  0.6839  2.2611
   92MOL0     H12112   6.734  12.251   2.738  0.9645 -0.2730  0.4561
   92MOL0     H12113   6.844  12.395   2.810 -0.8129  2.7440  2.9772
   92MOL0     H12114   6.646  12.499   2.886 -3.5296 -1.2743  1.3041
   92MOL0     H12115   6.542  12.374   2.821  1.3174 -2.4766 -0.1492
   92MOL0     H12116   6.727  12.554   2.660  0.1982 -1.0815 -1.8047
   92MOL0     H12117   6.627  12.427   2.593  4.1577  0.6950 -1.6068
   92MOL0     H12118   6.539  12.662   2.579 -1.7003 -3.3073 -3.1279
   92MOL0     H12119   6.516  12.649   2.754 -0.4007 -1.0782  0.9673
   92MOL0     H12120   6.308  12.612   2.652 -0.4087 -0.7244 -0.2482
   92MOL0     H12121   6.372  12.464   2.723 -1.8094 -0.0605 -0.6515
   92MOL0     H12122   6.392  12.530   2.431  0.4360  0.6137  0.3299
   92MOL0     H12123   6.451  12.373   2.502 -1.2693 -1.4456 -1.3265
   92MOL0     H12124   6.229  12.367   2.389  0.7751  0.9861 -0.9706
   92MOL0     H12125   6.170  12.466   2.522 -1.9172 -2.0921 -3.0370
   92MOL0     H12126   7.009  12.001   3.099  0.7775 -0.3206 -0.1301
   92MOL0     H12127   7.054  11.771   3.008  1.7670  1.1689 -3.2548
   92MOL0     H12128   6.845  11.386   2.923 -0.2028 -1.0298 -0.4094
   92MOL0     H12129   6.751  11.155   2.894 -4.2506  0.6982  0.8693
   92MOL0     H12130   5.578   9.833   2.435  0.0683  0.4788 -2.3470
   92MOL0     H12131   5.407   9.700   2.359 -2.6270 -2.0427  2.4866
   92MOL0     H12132   5.123   9.373   2.370  0.9328  0.2040 -0.4452
   92MOL0     H12133   4.943   9.251   2.304 -0.7119 -2.9864 -1.3066
   92MOL0     H12134   4.842   8.807   2.211 -0.5958  2.0271  3.8764
   92MOL0     H12135   5.020   8.794   2.225 -0.7668  0.2678  2.6067
   92MOL0     H12136   5.064   8.917   2.044  0.6987 -1.8683 -0.7170
   92MOL0     H12137   4.962   8.783   2.001  1.3381  0.5271  0.8270
   92MOL0     H12138   4.807   9.033   2.036 -2.4822 -1.7427 -0.5007
   92MOL0     H12139   4.776   8.894   1.946 -0.6325  0.1193  1.1848
   92MOL0     H12140   4.996   8.942   1.802  0.6840 -1.2232  2.5600
   92MOL0     H12141   4.848   9.061   1.780 -2.0159 -1.0613  1.9928
   92MOL0     H12142   5.154   9.303   1.901 -0.6381  0.4535 -2.3327
   92MOL0     H12143   5.182   8.899   2.270  0.7065 -0.2862 -0.8976
   92MOL0     H12144   5.379   9.017   2.353  0.5356  0.2232 -2.7576
   93MOL0     O12145  11.296   3.225   7.392 -0.3943  0.1587 -0.7833
   93MOL0     C12146  11.257   3.219   7.274  1.3233  0.0196 -1.2893
   93MOL0     O12147  11.292   3.126   7.180  0.6249 -0.1914  0.0661
   93MOL0     C12148  11.369   3.030   7.229  0.4367  0.3777 -0.8842
   93MOL0     C12149  11.316   2.941   7.328  0.2754 -0.0722  0.5806
   93MOL0     C12150  11.397   2.828   7.365 -0.1602  0.4264  0.8534
   93MOL0     C12151  11.528   2.810   7.310  1.1147  0.1957 -0.3355
   93MOL0     O12152  11.612   2.723   7.373 -0.7138 -0.0134  0.4469
   93MOL0     C12153  11.721   2.666   7.296  0.4347  0.5192  0.3536
   93MOL0     C12154  11.790   2.580   7.412 -0.3977 -0.3678  0.3499
   93MOL0     C12155  11.916   2.518   7.356 -0.2677 -0.3314  0.8066
   93MOL0     C12156  11.958   2.398   7.448  0.0249 -0.4588 -0.1622
   93MOL0     C12157  11.863   2.285   7.444  0.8911  0.7373 -1.4355
   93MOL0     C12158  11.920   2.151   7.488 -0.4164 -0.1586  0.5452
   93MOL0     C12159  11.825   2.063   7.573 -0.8371 -0.1436 -0.5593
   93MOL0     C12160  11.809   2.105   7.720 -0.6725 -0.4288  0.4701
   93MOL0     N12161  11.741   1.992   7.788 -0.1045 -0.5995  0.3451
   93MOL0     C12162  11.603   1.973   7.776  0.8357  0.9169  0.0874
   93MOL0     C12163  11.584   1.871   7.868  0.3550 -0.5626 -0.1550
   93MOL0     C12164  11.454   1.798   7.889  0.6060  0.4728 -0.8427
   93MOL0     C12165  11.451   1.675   7.806  0.9626  0.0643 -0.1666
   93MOL0     C12166  11.499   1.548   7.875  0.4020  0.6115 -0.4761
   93MOL0     C12167  11.421   1.424   7.818 -0.3305  0.3010 -0.0045
   93MOL0     O12168  11.277   1.436   7.849 -0.6789  0.5469 -0.0016
   93MOL0     C12169  11.211   1.346   7.935  0.2682 -0.1226  0.0775
   93MOL0     C12170  11.087   1.383   7.992 -0.8538 -0.4827  1.0941
   93MOL0     C12171  11.018   1.303   8.081  0.1841  0.0554  0.1713
   93MOL0     C12172  11.069   1.180   8.108  0.1436 -0.7300  0.1007
   93MOL0     C12173  10.998   1.083   8.191 -0.1044  0.2061 -0.3033
   93MOL0     O12174  10.916   1.137   8.290 -0.1479 -0.1072 -0.5316
   93MOL0     C12175  10.873   1.057   8.404 -0.2896  0.3853  0.0603
   93MOL0     C12176  10.764   1.113   8.466  0.6557  0.4155  0.3833
   93MOL0     C12177  10.709   1.043   8.572  0.6571 -0.9320 -0.0404
   93MOL0     C12178  10.753   0.924   8.626  0.0695  0.6110  0.0493
   93MOL0     O12179  10.684   0.874   8.745  0.2374 -0.9560 -0.4984
   93MOL0     C12180  10.757   0.784   8.835  0.0153  0.3415  0.8850
   93MOL0     C12181  10.673   0.787   8.964 -0.6665 -0.3398 -0.5812
   93MOL0     C12182  10.699   0.917   9.039 -0.4915 -0.4182 -0.3671
   93MOL0     C12183  10.627   0.913   9.175  0.1830 -0.9718  0.0332
   93MOL0     C12184  10.657   1.042   9.260  0.2156  0.2325 -0.2571
   93MOL0     C12185  10.570   1.155   9.201  0.8713  0.2908 -0.1302
   93MOL0     C12186  10.573   1.273   9.288 -0.6189 -0.2678 -0.1982
   93MOL0     C12187  10.500   1.253   9.422 -0.9006 -1.0143 -0.6836
   93MOL0    Cl12188  10.327   1.204   9.403 -0.0871 -0.0479 -0.1774
   93MOL0     C12189  10.868   0.879   8.570 -0.6041  0.2767  0.1009
   93MOL0     C12190  10.914   0.938   8.456 -0.9533  0.3732  0.2832
   93MOL0     O12191  11.013   0.964   8.180 -0.2325  0.3907 -0.4595
   93MOL0     C12192  11.183   1.135   8.045  0.1226 -0.0788  0.2547
   93MOL0     C12193  11.256   1.215   7.959  0.5696 -0.5041 -0.2889
   93MOL0     N12194  11.702   1.836   7.925 -0.4738  0.3916  0.3481
   93MOL0     N12195  11.798   1.909   7.872 -1.2026  0.3889 -0.4477
   93MOL0     C12196  11.572   2.907   7.218 -0.7056  0.9994  0.8728
   93MOL0     C12197  11.488   3.003   7.177  0.5258 -0.3926  0.5732
   93MOL0     C12198  11.183   3.340   7.232 -1.0257  0.0762  0.5543
   93MOL0     C12199  11.157   3.363   7.093 -0.7994 -0.3731 -0.4633
   93MOL0     C12200  11.074   3.466   7.055  0.6632 -0.2199  0.2061
   93MOL0     C12201  11.016   3.553   7.143 -0.4247 -0.3576 -0.1694
   93MOL0     O12202  10.942   3.659   7.095 -0.3550 -0.5713 -0.2474
   93MOL0     C12203  10.857   3.737   7.182  0.0737  0.0105 -0.3535
   93MOL0     C12204  10.749   3.793   7.092 -0.4611  0.0021 -0.1090
   93MOL0     C12205  10.659   3.899   7.161  0.1813  0.3495 -0.1076
   93MOL0     C12206  10.734   4.020   7.189 -0.6424 -0.1402 -0.3751
   93MOL0     C12207  10.655   4.115   7.262 -0.6864  0.6099 -0.4516
   93MOL0     C12208  10.590   4.199   7.324 -0.5246  0.9627  0.6906
   93MOL0     C12209  11.041   3.536   7.277 -0.1586  0.2729  0.4916
   93MOL0     C12210  11.119   3.430   7.322 -1.1866 -0.7889 -0.4476
   93MOL0     H12211  11.217   2.958   7.371 -0.4267  0.6826 -1.2162
   93MOL0     H12212  11.354   2.750   7.426 -2.5022  3.1378  2.9500
   93MOL0     H12213  11.788   2.745   7.261 -1.1526  1.9212  0.3845
   93MOL0     H12214  11.683   2.609   7.212  0.0635  1.6769 -0.2857
   93MOL0     H12215  11.712   2.515   7.452 -0.6052  0.2179  0.9249
   93MOL0     H12216  11.820   2.629   7.505 -0.4149  1.4864 -0.5719
   93MOL0     H12217  11.990   2.597   7.343 -2.3014  1.2261 -2.4537
   93MOL0     H12218  11.905   2.478   7.255  2.3884  1.3223 -0.2400
   93MOL0     H12219  12.055   2.362   7.414  0.6710  0.2943  0.7954
   93MOL0     H12220  11.966   2.432   7.552 -3.1733  1.3364 -0.3412
   93MOL0     H12221  11.825   2.253   7.346  2.5041 -0.7628 -1.6180
   93MOL0     H12222  11.778   2.298   7.513 -1.2469 -4.6590 -2.5286
   93MOL0     H12223  12.009   2.172   7.549 -0.7833  2.9595  0.1795
   93MOL0     H12224  11.950   2.091   7.401 -1.9972 -5.1541  3.0647
   93MOL0     H12225  11.722   2.052   7.540 -0.5936  0.7917 -1.7097
   93MOL0     H12226  11.873   1.965   7.562 -0.1923  0.0446  0.3887
   93MOL0     H12227  11.744   2.193   7.720 -3.7570 -2.5215 -0.4300
   93MOL0     H12228  11.901   2.119   7.778 -3.0501 -2.9665  5.4522
   93MOL0     H12229  11.538   2.032   7.713 -0.3875  1.2217  1.5894
   93MOL0     H12230  11.371   1.863   7.861  0.2485 -0.3368 -1.7191
   93MOL0     H12231  11.451   1.766   7.994  2.5083 -2.7657 -1.6413
   93MOL0     H12232  11.503   1.692   7.711  0.0819  1.6735 -0.3952
   93MOL0     H12233  11.349   1.644   7.779  0.0240  0.6818  2.4418
   93MOL0     H12234  11.599   1.518   7.839  0.0369 -0.0978 -0.9289
   93MOL0     H12235  11.494   1.558   7.983 -3.3810  1.3832 -0.6011
   93MOL0     H12236  11.459   1.324   7.843 -1.5198 -1.0268 -2.9267
   93MOL0     H12237  11.418   1.433   7.709 -0.3479  0.2590 -0.0074
   93MOL0     H12238  11.036   1.472   7.958  2.2449  0.2558 -2.2222
   93MOL0     H12239  10.921   1.336   8.116  1.0204  1.8493  0.9177
   93MOL0     H12240  10.725   1.205   8.423  0.6856  0.9456  1.4578
   93MOL0     H12241  10.629   1.089   8.629 -1.7394 -2.2227 -2.1881
   93MOL0     H12242  10.858   0.825   8.846  1.2451 -1.1845 -2.9773
   93MOL0     H12243  10.767   0.683   8.792 -2.4030  1.2386 -2.1908
   93MOL0     H12244  10.708   0.711   9.035  1.7024  1.0380 -0.1722
   93MOL0     H12245  10.566   0.785   8.941 -0.2980 -2.2456 -2.4255
   93MOL0     H12246  10.655   0.997   8.979 -1.1904  0.5104  1.3201
   93MOL0     H12247  10.804   0.941   9.056  0.1165 -3.0361 -0.0146
   93MOL0     H12248  10.518   0.901   9.166 -0.5243 -4.2753  6.9556
   93MOL0     H12249  10.663   0.826   9.230 -1.0973 -1.1647  0.6208
   93MOL0     H12250  10.764   1.063   9.269 -0.3665  4.3666 -1.0268
   93MOL0     H12251  10.627   1.020   9.363 -3.3247  0.8726 -1.0225
   93MOL0     H12252  10.467   1.123   9.185  0.9129  0.0621  0.0622
   93MOL0     H12253  10.603   1.182   9.100  0.3647  3.1158  0.3650
   93MOL0     H12254  10.678   1.300   9.300 -0.3275 -1.7430  0.8261
   93MOL0     H12255  10.527   1.358   9.237  1.5793  2.6209  2.2832
   93MOL0     H12256  10.503   1.348   9.475 -1.4547 -0.3279 -1.8650
   93MOL0     H12257  10.552   1.175   9.479  0.1079  0.6058  0.6816
   93MOL0     H12258  10.916   0.787   8.602 -1.9217  0.9575  4.7273
   93MOL0     H12259  11.004   0.900   8.409  1.7469  5.6543  0.4611
   93MOL0     H12260  11.196   1.027   8.043  1.0543  0.0357 -0.5726
   93MOL0     H12261  11.341   1.162   7.919  2.8284  0.6059  2.6678
   93MOL0     H12262  11.672   2.896   7.178 -1.4120  0.4951 -0.8412
   93MOL0     H12263  11.521   3.078   7.106 -1.6256 -0.5826 -0.6833
   93MOL0     H12264  11.200   3.295   7.020  4.2619  1.8496 -0.0081
   93MOL0     H12265  11.066   3.486   6.949 -1.9028  2.8331  0.8280
   93MOL0     H12266  10.919   3.820   7.220 -0.7378  0.8263 -0.7853
   93MOL0     H12267  10.827   3.674   7.266  0.9743 -1.4099 -1.0444
   93MOL0     H12268  10.788   3.829   6.997  0.4867 -0.3446  0.1339
   93MOL0     H12269  10.682   3.709   7.074 -2.3635  0.8124  2.4934
   93MOL0     H12270  10.615   3.850   7.249  1.7874  0.5741  0.8694
   93MOL0     H12271  10.576   3.923   7.095  0.8222  2.3248 -0.2575
   93MOL0     H12272  10.819   3.995   7.253  0.5810  0.3057 -1.7776
   93MOL0     H12273  10.769   4.064   7.095 -0.5088  1.7984  0.5270
   93MOL0     H12274  10.550   4.278   7.384  0.5594  0.5272  2.0513
   93MOL0     H12275  11.010   3.612   7.349 -0.1510  0.6580  0.0903
   93MOL0     H12276  11.134   3.426   7.430  1.9265  0.0681 -0.7327
   94MOL0     O12277   1.089   1.094   7.649  0.7234  1.0719  0.5561
   94MOL0     C12278   0.974   1.122   7.688 -1.4207 -0.7384 -0.7260
   94MOL0     O12279   0.931   1.250   7.711 -0.2881  0.2893 -0.5577
   94MOL0     C12280   1.019   1.344   7.667 -0.2449 -0.1781 -0.9060
   94MOL0     C12281   1.153   1.370   7.711 -0.0137 -0.1107 -1.1840
   94MOL0     C12282   1.225   1.469   7.665 -0.4216  0.9064 -0.5599
   94MOL0     C12283   1.172   1.558   7.577 -0.2574  0.0876 -0.0307
   94MOL0     O12284   1.236   1.667   7.525 -0.2673 -0.9424 -0.6125
   94MOL0     C12285   1.370   1.655   7.465 -0.1787 -0.7659 -0.4207
   94MOL0     C12286   1.370   1.580   7.330  0.2776  0.3719  0.6429
   94MOL0     C12287   1.470   1.630   7.232 -0.5851 -0.0737  0.1753
   94MOL0     C12288   1.610   1.578   7.274 -0.9708  0.2725 -0.3903
   94MOL0     C12289   1.744   1.626   7.207 -0.4398 -0.4967  0.0548
   94MOL0     C12290   1.733   1.599   7.065  0.5302  0.0231  0.7879
   94MOL0     C12291   1.869   1.610   6.997  0.1038  0.3178 -0.4358
   94MOL0     C12292   1.836   1.615   6.844 -0.2044 -0.3876  0.1986
   94MOL0     N12293   1.776   1.487   6.806 -0.1015 -0.4160 -0.2509
   94MOL0     C12294   1.646   1.471   6.761 -0.5627 -0.5271 -0.4943
   94MOL0     C12295   1.641   1.359   6.681 -0.5279  0.7636  0.5086
   94MOL0     C12296   1.524   1.306   6.611  0.9703  0.4315  0.5755
   94MOL0     C12297   1.459   1.181   6.660 -0.1546 -0.2596  0.4466
   94MOL0     C12298   1.550   1.053   6.640 -0.5678  0.7881 -0.7579
   94MOL0     C12299   1.502   0.922   6.704 -0.3817  0.3071 -0.8339
   94MOL0     O12300   1.453   0.841   6.602 -0.0529  0.1887  0.3658
   94MOL0     C12301   1.326   0.815   6.594 -0.1041 -0.2392  0.6597
   94MOL0     C12302   1.215   0.905   6.608  0.3655 -0.1978  0.1690
   94MOL0     C12303   1.090   0.863   6.589  0.2836  0.0442 -0.4142
   94MOL0     C12304   1.062   0.732   6.556 -0.4588 -0.2833  0.9199
   94MOL0     C12305   0.929   0.685   6.532  0.1739 -0.1933 -0.0848
   94MOL0     O12306   0.917   0.570   6.458  0.1762  0.4064  0.1983
   94MOL0     C12307   0.809   0.489   6.472 -1.2181  0.5404 -0.0227
   94MOL0     C12308   0.842   0.353   6.453 -0.5463 -1.0369  0.8647
   94MOL0     C12309   0.734   0.260   6.445  0.1781 -1.1669  0.1997
   94MOL0     C12310   0.602   0.297   6.460  0.3639  0.0570 -0.3840
   94MOL0     O12311   0.492   0.213   6.445  0.8862  0.5080  0.9551
   94MOL0     C12312   0.476   0.072   6.490  0.6249 -0.0558  0.3192
   94MOL0     C12313   0.333   0.053   6.551 -0.1734 -0.0261  0.2878
   94MOL0     C12314   0.340  -0.003   6.691 -0.3246 -0.7089  0.1904
   94MOL0     C12315   0.365  -0.161   6.679  0.0413  0.2110 -0.6511
   94MOL0     C12316   0.422  -0.234   6.806 -0.5940  0.5516 -0.3685
   94MOL0     C12317   0.325  -0.207   6.923  0.0313 -0.0165 -0.8413
   94MOL0     C12318   0.330  -0.324   7.024 -0.7374  0.6005  0.1234
   94MOL0     C12319   0.458  -0.332   7.104  0.1430 -1.3311 -0.1024
   94MOL0    Cl12320   0.448  -0.191   7.232 -0.2653  0.1959  0.0545
   94MOL0     C12321   0.575   0.430   6.465  0.2578  1.1169 -0.2111
   94MOL0     C12322   0.676   0.527   6.485 -0.4974 -0.4421  0.5825
   94MOL0     O12323   0.833   0.759   6.577  0.1027  0.7646 -0.3190
   94MOL0     C12324   1.170   0.648   6.537 -0.3858 -0.3809 -0.3568
   94MOL0     C12325   1.305   0.686   6.563  0.4067  0.1031  0.0289
   94MOL0     N12326   1.776   1.335   6.665 -0.6263  0.7809  0.1073
   94MOL0     N12327   1.853   1.390   6.751 -0.4770 -0.6456  0.1924
   94MOL0     C12328   1.042   1.548   7.535  0.0667 -0.5686 -0.3021
   94MOL0     C12329   0.960   1.446   7.589 -0.6777  0.7256 -1.1373
   94MOL0     C12330   0.898   1.006   7.739  0.9880 -0.1764  0.1262
   94MOL0     C12331   0.893   0.886   7.663 -0.3917 -0.7350  0.0544
   94MOL0     C12332   0.803   0.790   7.694  0.3120 -0.0561 -0.0739
   94MOL0     C12333   0.734   0.794   7.817  0.9650 -0.3382  0.7247
   94MOL0     O12334   0.661   0.694   7.858 -0.3197 -0.2664 -0.8737
   94MOL0     C12335   0.725   0.568   7.873  1.6577  0.0834 -0.0985
   94MOL0     C12336   0.611   0.477   7.903 -0.2684 -0.0776 -0.4453
   94MOL0     C12337   0.558   0.398   7.786  0.1587  1.2293  0.0474
   94MOL0     C12338   0.445   0.297   7.833 -0.2931 -0.2657  1.1856
   94MOL0     C12339   0.487   0.186   7.920 -0.2335  0.7569  0.2957
   94MOL0     C12340   0.516   0.085   7.976 -0.3629  1.1338 -0.5375
   94MOL0     C12341   0.733   0.911   7.900 -0.4573  0.5768 -0.9809
   94MOL0     C12342   0.815   1.024   7.851  0.0007  0.2696 -0.2874
   94MOL0     H12343   1.183   1.308   7.795  0.8163 -1.7828 -2.6439
   94MOL0     H12344   1.311   1.496   7.726 -3.2206  2.9620  2.8964
   94MOL0     H12345   1.454   1.618   7.525  2.1273  0.3224 -2.7816
   94MOL0     H12346   1.405   1.756   7.443 -0.8341 -0.5410 -0.4550
   94MOL0     H12347   1.276   1.595   7.276  1.8614 -1.6212 -3.0657
   94MOL0     H12348   1.370   1.470   7.332  0.4116  0.3598  0.1335
   94MOL0     H12349   1.466   1.738   7.218 -0.1637  0.3404  2.7227
   94MOL0     H12350   1.451   1.592   7.131  1.4368 -0.1240 -0.2286
   94MOL0     H12351   1.625   1.604   7.379  2.1377 -0.1149 -0.6619
   94MOL0     H12352   1.605   1.469   7.279 -1.1253  0.2191  5.3022
   94MOL0     H12353   1.830   1.574   7.250  0.4460  0.0423 -1.0281
   94MOL0     H12354   1.753   1.735   7.216 -4.1627  0.0974 -1.5245
   94MOL0     H12355   1.664   1.668   7.016  0.4425 -0.2091  0.5832
   94MOL0     H12356   1.698   1.496   7.052  0.1328  0.2824 -0.3293
   94MOL0     H12357   1.925   1.700   7.024  1.0884 -0.2712 -0.4694
   94MOL0     H12358   1.935   1.527   7.023 -0.0966  0.6537  1.3236
   94MOL0     H12359   1.930   1.630   6.789 -0.0203  1.9921  1.0074
   94MOL0     H12360   1.778   1.705   6.821  0.3337 -0.1417 -0.2190
   94MOL0     H12361   1.563   1.538   6.782 -0.4079 -1.3039  3.4722
   94MOL0     H12362   1.552   1.293   6.506 -1.4555  0.0777 -0.0979
   94MOL0     H12363   1.458   1.393   6.607  2.8306  1.8714 -0.5079
   94MOL0     H12364   1.364   1.170   6.607  0.0974 -3.2889  0.4265
   94MOL0     H12365   1.430   1.196   6.764  0.4466 -1.9084  0.8854
   94MOL0     H12366   1.565   1.041   6.533 -0.6675  4.7997 -1.3985
   94MOL0     H12367   1.647   1.083   6.681  0.4671 -2.0443 -0.9296
   94MOL0     H12368   1.424   0.950   6.776  0.9273  0.3690  0.6218
   94MOL0     H12369   1.588   0.878   6.756  0.5104 -1.0209 -3.2634
   94MOL0     H12370   1.240   1.008   6.631 -0.5442  0.3961 -1.4090
   94MOL0     H12371   1.004   0.927   6.609  0.2833 -0.7795  2.7208
   94MOL0     H12372   0.943   0.320   6.434  0.1003  1.3264 -0.1884
   94MOL0     H12373   0.766   0.157   6.428  1.4740 -1.4306  3.4649
   94MOL0     H12374   0.555   0.064   6.564 -1.9966 -2.7971  3.1227
   94MOL0     H12375   0.487  -0.008   6.416 -1.6051 -0.0725 -0.0582
   94MOL0     H12376   0.287  -0.028   6.494  2.2516 -4.0248  3.4982
   94MOL0     H12377   0.283   0.151   6.552 -0.2166  0.0154 -1.9029
   94MOL0     H12378   0.242   0.021   6.734  0.6553  4.9259  0.0355
   94MOL0     H12379   0.416   0.061   6.737  1.6513  0.1034 -3.7124
   94MOL0     H12380   0.267  -0.203   6.653  0.0823 -1.4857  1.6430
   94MOL0     H12381   0.439  -0.181   6.600  2.5141  1.6120  1.1945
   94MOL0     H12382   0.524  -0.195   6.818 -1.3269  2.9502 -1.4226
   94MOL0     H12383   0.432  -0.341   6.783  4.9879  0.3454  1.3001
   94MOL0     H12384   0.225  -0.194   6.880 -0.2179 -1.4717 -0.7568
   94MOL0     H12385   0.350  -0.115   6.977 -3.2709  0.3089  0.3892
   94MOL0     H12386   0.256  -0.325   7.104  0.0727  2.4505  0.9526
   94MOL0     H12387   0.322  -0.417   6.967 -1.2968 -0.6857  2.1804
   94MOL0     H12388   0.544  -0.326   7.036 -0.2166 -2.2316 -0.6562
   94MOL0     H12389   0.471  -0.425   7.159  0.4053 -1.5876 -0.5898
   94MOL0     H12390   0.471   0.461   6.473  0.3838  1.2101  1.4252
   94MOL0     H12391   0.650   0.629   6.511  0.1970  0.2277 -1.2180
   94MOL0     H12392   1.153   0.543   6.515  0.0884 -1.1258  2.5305
   94MOL0     H12393   1.381   0.618   6.525  0.3477  0.5939 -1.0159
   94MOL0     H12394   1.011   1.622   7.462  1.7416 -1.6730 -2.2356
   94MOL0     H12395   0.859   1.423   7.556 -0.3148 -1.0238 -1.1096
   94MOL0     H12396   0.938   0.855   7.569 -1.7572 -0.5956 -0.6690
   94MOL0     H12397   0.794   0.704   7.629  1.4994 -1.2909  1.3270
   94MOL0     H12398   0.798   0.573   7.955  1.7398  0.6114 -0.2000
   94MOL0     H12399   0.768   0.538   7.777 -3.6213  1.7758 -3.4110
   94MOL0     H12400   0.640   0.418   7.990 -1.5261  1.0731  0.8217
   94MOL0     H12401   0.527   0.535   7.944  0.0941  0.1953 -0.0791
   94MOL0     H12402   0.641   0.351   7.733  1.2519  2.3853  0.7030
   94MOL0     H12403   0.522   0.471   7.712 -0.8479 -0.9876 -1.8095
   94MOL0     H12404   0.363   0.348   7.886 -1.1056  0.2887 -0.5541
   94MOL0     H12405   0.398   0.253   7.745  0.3288 -0.9752  1.1966
   94MOL0     H12406   0.555  -0.005   8.020  0.3565  1.5621 -0.2761
   94MOL0     H12407   0.667   0.912   7.986 -0.6332  2.4923 -1.0924
   94MOL0     H12408   0.802   1.120   7.901 -0.7009  0.7726 -1.3855
   95MOL0     O12409   6.484   6.902   8.342 -0.4651  0.3599 -0.5086
   95MOL0     C12410   6.568   6.816   8.342  0.3450 -0.6079 -0.4203
   95MOL0     O12411   6.645   6.773   8.449  0.3106  0.4457 -0.4341
   95MOL0     C12412   6.601   6.787   8.574 -0.1016 -0.5053 -0.3666
   95MOL0     C12413   6.670   6.846   8.678  0.2903 -0.3908 -0.0386
   95MOL0     C12414   6.640   6.828   8.810  1.1007 -0.2298  0.5749
   95MOL0     C12415   6.518   6.776   8.841  0.5000 -0.3277 -0.8931
   95MOL0     O12416   6.483   6.787   8.976 -0.4350 -0.0094 -0.3137
   95MOL0     C12417   6.355   6.740   9.021  1.1257 -0.2453  0.5922
   95MOL0     C12418   6.329   6.818   9.144  0.0224 -0.4974  0.0420
   95MOL0     C12419   6.311   6.974   9.127  0.1181  0.1187 -0.1461
   95MOL0     C12420   6.222   7.021   8.998  0.3189  0.3448  0.1114
   95MOL0     C12421   6.075   7.004   9.036 -1.0555 -0.6577 -1.1011
   95MOL0     C12422   5.988   7.068   8.930 -0.2224  0.7663  0.7152
   95MOL0     C12423   5.844   7.050   8.976  0.1555  0.1986 -1.0354
   95MOL0     C12424   5.747   7.039   8.855  0.1369 -0.7862  0.2937
   95MOL0     N12425   5.601   7.053   8.890  0.3235  0.1303 -0.2774
   95MOL0     C12426   5.512   6.946   8.897  0.6193  0.9287  0.3891
   95MOL0     C12427   5.397   6.995   8.949 -0.0365 -0.0179 -0.8031
   95MOL0     C12428   5.271   6.929   8.970 -0.1441 -0.5929 -0.2751
   95MOL0     C12429   5.277   6.785   9.038  1.2463  0.3651 -0.3401
   95MOL0     C12430   5.277   6.795   9.194 -0.4285  0.2286  0.7939
   95MOL0     C12431   5.144   6.766   9.265  0.6278  0.4353  0.2263
   95MOL0     O12432   5.095   6.646   9.210  0.2701  1.3042 -0.0151
   95MOL0     C12433   5.029   6.567   9.301 -1.2273  0.6641 -0.1642
   95MOL0     C12434   5.062   6.431   9.307 -0.9904 -0.2131 -0.1443
   95MOL0     C12435   4.989   6.336   9.384 -0.3500 -1.0915 -0.4662
   95MOL0     C12436   4.890   6.378   9.469  0.4956  0.0206 -0.3061
   95MOL0     C12437   4.803   6.295   9.554 -0.7822  0.6503  0.9244
   95MOL0     O12438   4.696   6.347   9.615  0.0235  0.4315  0.7416
   95MOL0     C12439   4.588   6.252   9.632 -0.8215  0.2592 -0.5734
   95MOL0     C12440   4.473   6.274   9.560  0.9387  1.0525 -0.0598
   95MOL0     C12441   4.358   6.183   9.573 -0.0588  0.3238 -0.0251
   95MOL0     C12442   4.365   6.086   9.680  0.5401  0.7296  0.3237
   95MOL0     O12443   4.247   6.019   9.710 -0.7278  0.4348 -0.0240
   95MOL0     C12444   4.229   5.897   9.635 -0.2615  0.6582 -0.3191
   95MOL0     C12445   4.118   5.815   9.709  0.3466  0.5008  0.7344
   95MOL0     C12446   4.049   5.697   9.634  0.1840  0.3147  0.3385
   95MOL0     C12447   3.926   5.656   9.709 -0.1815 -0.8400  0.2401
   95MOL0     C12448   3.858   5.528   9.657  0.2450  0.0995  0.0990
   95MOL0     C12449   3.782   5.443   9.768 -0.2516  0.0228 -0.2295
   95MOL0     C12450   3.873   5.369   9.862  0.0684  0.6502  0.1176
   95MOL0     C12451   3.793   5.276   9.954 -1.2188  0.5008 -0.4004
   95MOL0    Cl12452   3.682   5.371  10.054 -0.2466 -0.2665 -0.1196
   95MOL0     C12453   4.483   6.072   9.750  0.1979 -0.3351 -1.1779
   95MOL0     C12454   4.598   6.154   9.730 -0.2598  0.5834  0.1737
   95MOL0     O12455   4.850   6.184   9.569 -0.5878  0.0835  0.4951
   95MOL0     C12456   4.859   6.519   9.468  0.0393 -0.5336 -0.0586
   95MOL0     C12457   4.938   6.605   9.392  0.2098 -0.2876  0.4639
   95MOL0     N12458   5.412   7.131   8.966 -0.2386  0.8171 -0.1864
   95MOL0     N12459   5.533   7.163   8.920  0.6006  0.6628 -0.3136
   95MOL0     C12460   6.442   6.715   8.745  0.2825  0.3963 -0.0418
   95MOL0     C12461   6.481   6.720   8.610  0.3208 -0.3988 -0.1505
   95MOL0     C12462   6.583   6.755   8.211 -0.2631  0.0035  0.5746
   95MOL0     C12463   6.631   6.623   8.213  0.0871 -0.9140  0.6057
   95MOL0     C12464   6.645   6.560   8.092  0.3496  0.6034  0.1245
   95MOL0     C12465   6.622   6.618   7.962 -0.3590  0.1235  0.3106
   95MOL0     O12466   6.648   6.564   7.841  0.7499  0.1930  0.2767
   95MOL0     C12467   6.699   6.431   7.844  0.5134 -0.3027 -0.6137
   95MOL0     C12468   6.690   6.371   7.707  0.0962 -0.4488  0.3076
   95MOL0     C12469   6.723   6.224   7.712  0.8373 -0.4843 -0.1228
   95MOL0     C12470   6.719   6.153   7.583 -0.0006  0.4845 -0.2074
   95MOL0     C12471   6.779   6.026   7.584 -0.4405  0.8279 -0.0474
   95MOL0     C12472   6.825   5.919   7.601  0.1903 -0.7721 -0.1009
   95MOL0     C12473   6.588   6.752   7.963  0.2405  0.3275 -0.1988
   95MOL0     C12474   6.570   6.820   8.086  0.1899  1.1466 -0.1567
   95MOL0     H12475   6.754   6.908   8.648 -0.9633  1.8977  0.9290
   95MOL0     H12476   6.695   6.878   8.889  3.3896 -0.0503 -1.0332
   95MOL0     H12477   6.358   6.632   9.041  0.8584 -0.2163  0.7951
   95MOL0     H12478   6.278   6.762   8.946 -0.8174  1.3161  2.9064
   95MOL0     H12479   6.407   6.815   9.221 -1.5075 -2.1732  1.6077
   95MOL0     H12480   6.246   6.764   9.189 -0.3392 -0.9527 -1.1369
   95MOL0     H12481   6.412   7.017   9.121  0.6806 -1.2687 -1.0940
   95MOL0     H12482   6.265   7.015   9.217 -1.0215 -0.0445 -0.6447
   95MOL0     H12483   6.248   7.126   8.984  3.2440 -0.4746 -1.2875
   95MOL0     H12484   6.250   6.971   8.905  2.1821 -0.5651  1.1039
   95MOL0     H12485   6.055   7.057   9.130 -0.3397  0.4845 -1.5688
   95MOL0     H12486   6.054   6.898   9.048  0.8176 -0.8206  1.5344
   95MOL0     H12487   6.014   7.020   8.835  1.9895 -1.5607  2.3296
   95MOL0     H12488   6.021   7.172   8.918  1.3698  0.3362  1.0868
   95MOL0     H12489   5.819   6.952   9.015 -3.9762 -0.9691 -5.5782
   95MOL0     H12490   5.822   7.130   9.047 -3.0996 -2.0625  0.7697
   95MOL0     H12491   5.759   6.943   8.804 -0.9928 -2.4040  2.8928
   95MOL0     H12492   5.779   7.123   8.793  4.4300 -0.6324  2.4245
   95MOL0     H12493   5.539   6.846   8.866  3.3383  1.0914  1.9534
   95MOL0     H12494   5.219   6.927   8.874 -0.8492  4.3752 -0.2599
   95MOL0     H12495   5.207   7.000   9.022  3.1329  2.8287 -0.4786
   95MOL0     H12496   5.369   6.743   8.999  2.4010  3.3725 -1.1050
   95MOL0     H12497   5.199   6.716   9.004  2.8319 -1.8825  0.3241
   95MOL0     H12498   5.353   6.729   9.236 -0.0104 -0.1465 -0.4831
   95MOL0     H12499   5.324   6.892   9.209  2.0885 -0.3177 -2.3612
   95MOL0     H12500   5.063   6.836   9.241 -1.6147 -2.0018  0.3001
   95MOL0     H12501   5.170   6.758   9.371  2.0446 -1.5368 -0.2074
   95MOL0     H12502   5.144   6.395   9.245  0.6681 -0.6113  2.1398
   95MOL0     H12503   5.003   6.228   9.378 -0.9828 -1.0971 -2.1371
   95MOL0     H12504   4.470   6.344   9.478  1.7634  1.7876  0.5227
   95MOL0     H12505   4.279   6.167   9.499 -1.1803 -1.2684  1.4268
   95MOL0     H12506   4.318   5.834   9.631  0.0134  1.0861 -1.5222
   95MOL0     H12507   4.208   5.934   9.534  1.2723  3.2275  0.2116
   95MOL0     H12508   4.038   5.890   9.719 -1.4363 -1.0418 -1.1627
   95MOL0     H12509   4.160   5.793   9.808 -0.0052  1.3927  1.1009
   95MOL0     H12510   4.108   5.608   9.612 -1.5860 -0.6386 -0.7649
   95MOL0     H12511   4.018   5.742   9.538  2.0541 -4.6358 -2.9779
   95MOL0     H12512   3.953   5.647   9.815  2.9872  3.1964  0.0265
   95MOL0     H12513   3.851   5.735   9.704  0.9223  0.1887 -0.4227
   95MOL0     H12514   3.933   5.466   9.608 -1.0084  1.2761 -3.6161
   95MOL0     H12515   3.797   5.547   9.569  0.6032  0.4913 -0.0657
   95MOL0     H12516   3.724   5.363   9.722  1.2673 -2.3910  1.8025
   95MOL0     H12517   3.706   5.501   9.822  1.5923 -0.0316  2.5812
   95MOL0     H12518   3.946   5.313   9.803  1.6211 -1.5540  3.7320
   95MOL0     H12519   3.931   5.440   9.922 -0.8480  0.9213  0.6944
   95MOL0     H12520   3.861   5.209  10.009  1.0095  1.0634 -2.3011
   95MOL0     H12521   3.729   5.213   9.893 -0.1296  0.1459 -1.2036
   95MOL0     H12522   4.509   5.988   9.814 -0.0146  1.2821  1.1577
   95MOL0     H12523   4.691   6.142   9.785 -0.6682 -1.3945  0.5316
   95MOL0     H12524   4.789   6.553   9.543  4.8821 -0.5644  5.1414
   95MOL0     H12525   4.915   6.711   9.401  0.5882 -0.2894  1.6136
   95MOL0     H12526   6.353   6.661   8.777 -0.1809 -0.9300 -3.2325
   95MOL0     H12527   6.406   6.678   8.544 -0.9127  0.4140  0.6870
   95MOL0     H12528   6.653   6.577   8.309  0.8640  2.2993  2.1036
   95MOL0     H12529   6.687   6.461   8.100 -0.0359  0.4970  0.9324
   95MOL0     H12530   6.635   6.366   7.905 -0.7976 -1.0581 -2.7036
   95MOL0     H12531   6.800   6.435   7.885  0.7220  0.7428 -1.2068
   95MOL0     H12532   6.583   6.382   7.689  0.1928  0.1528  0.0865
   95MOL0     H12533   6.755   6.413   7.630 -0.2606 -2.0611 -0.9288
   95MOL0     H12534   6.653   6.178   7.783 -2.2624  1.7918 -1.4729
   95MOL0     H12535   6.819   6.223   7.764 -0.4808  3.5637  2.9813
   95MOL0     H12536   6.619   6.158   7.539 -0.1654 -0.2859  0.0725
   95MOL0     H12537   6.776   6.219   7.517 -0.3677  0.3320 -0.6861
   95MOL0     H12538   6.856   5.817   7.615 -1.6684 -1.4835 -0.7478
   95MOL0     H12539   6.577   6.790   7.862 -0.4890  1.3144  0.2348
   95MOL0     H12540   6.552   6.927   8.089  4.1850  1.9642  1.6091
   96MOL0     O12541   1.424   2.143   9.729  0.9343  0.4425  0.6279
   96MOL0     C12542   1.383   2.197   9.830 -0.3476  1.1688  0.1906
   96MOL0     O12543   1.355   2.128   9.950 -0.5433  0.0912  0.1977
   96MOL0     C12544   1.367   1.991   9.940  1.1420 -0.6302 -1.0331
   96MOL0     C12545   1.474   1.928  10.007  0.9109 -0.0487 -0.2999
   96MOL0     C12546   1.482   1.802   9.987 -1.1570  0.7225  0.2845
   96MOL0     C12547   1.386   1.721   9.937 -0.2882 -0.7323  0.4257
   96MOL0     O12548   1.417   1.595   9.911  0.1313 -0.3630 -0.8248
   96MOL0     C12549   1.338   1.500   9.994  0.3774 -0.2407  0.9066
   96MOL0     C12550   1.423   1.374  10.028  0.0791  0.6620  0.0976
   96MOL0     C12551   1.474   1.307   9.899  0.8338  0.4647  0.3951
   96MOL0     C12552   1.547   1.171   9.916 -0.2496  0.0211  0.6024
   96MOL0     C12553   1.605   1.116   9.790 -0.6743  0.0919 -0.3077
   96MOL0     C12554   1.669   0.987   9.822 -0.6112 -0.6718  0.3715
   96MOL0     C12555   1.741   0.951   9.692 -0.9999 -0.1414  0.3944
   96MOL0     C12556   1.813   0.814   9.716 -0.8112  0.3572 -0.7207
   96MOL0     N12557   1.930   0.830   9.801  0.0104  0.2190  0.3649
   96MOL0     C12558   2.052   0.868   9.752  0.5017 -0.7885 -0.2945
   96MOL0     C12559   2.144   0.834   9.843 -0.2916  0.3520  0.3575
   96MOL0     C12560   2.288   0.838   9.808  0.2044 -0.2970  1.1035
   96MOL0     C12561   2.387   0.861   9.920  1.5433  0.4190  0.6135
   96MOL0     C12562   2.382   0.992  10.001 -0.0436  0.1227 -1.3342
   96MOL0     C12563   2.274   1.001  10.106  0.5966 -0.5603 -0.8644
   96MOL0     O12564   2.299   1.111  10.187  0.3182 -0.6760  0.0038
   96MOL0     C12565   2.219   1.140  10.297 -0.7578 -0.0838 -1.8420
   96MOL0     C12566   2.109   1.063  10.347  0.0969 -0.3406  0.4526
   96MOL0     C12567   2.034   1.097  10.452  0.7911 -0.8164 -0.2552
   96MOL0     C12568   2.050   1.216  10.517  0.0486  0.5061  0.6229
   96MOL0     C12569   1.959   1.264  10.619 -0.9656 -0.3671 -0.3008
   96MOL0     O12570   1.848   1.195  10.649  0.0219  0.3825  0.0973
   96MOL0     C12571   1.758   1.238  10.746 -0.2725 -0.3010 -0.9046
   96MOL0     C12572   1.628   1.261  10.720  0.2498 -0.5501 -0.4511
   96MOL0     C12573   1.533   1.281  10.827  0.3375 -0.4241  0.6056
   96MOL0     C12574   1.575   1.290  10.966  0.7594 -0.5829 -0.6778
   96MOL0     O12575   1.478   1.300  11.061 -0.0408 -0.2645  0.4531
   96MOL0     C12576   1.510   1.341  11.199 -0.9986  0.1050 -0.1034
   96MOL0     C12577   1.388   1.411  11.271  0.5030 -0.5307  0.2986
   96MOL0     C12578   1.426   1.425  11.419  0.4487 -0.7964 -1.3232
   96MOL0     C12579   1.306   1.473  11.515  0.2876 -0.0410 -0.4894
   96MOL0     C12580   1.336   1.472  11.669 -0.7511 -0.2213  0.0164
   96MOL0     C12581   1.409   1.590  11.730 -0.4697  0.0329  0.7719
   96MOL0     C12582   1.452   1.554  11.880 -0.3313 -0.1576  0.0379
   96MOL0     C12583   1.501   1.687  11.953  1.1128  0.8504  0.1305
   96MOL0    Cl12584   1.381   1.807  11.957  0.2761  0.1014  0.1227
   96MOL0     C12585   1.708   1.259  10.995  0.6116  0.0504  0.8844
   96MOL0     C12586   1.798   1.240  10.885  0.2580 -1.0144  0.1671
   96MOL0     O12587   1.988   1.366  10.671 -0.5630 -0.5706  0.2472
   96MOL0     C12588   2.165   1.295  10.474  0.2590  0.8991  0.8356
   96MOL0     C12589   2.252   1.252  10.365 -0.0146 -0.0718 -0.5799
   96MOL0     N12590   2.079   0.783   9.957  0.0933  0.2836  0.2473
   96MOL0     N12591   1.952   0.779   9.929  0.1579  1.1072  1.3704
   96MOL0     C12592   1.269   1.776   9.882 -0.5356 -0.8387  0.0376
   96MOL0     C12593   1.255   1.916   9.893  0.2366 -0.5301  0.3537
   96MOL0     C12594   1.352   2.335   9.816 -0.1131 -0.5190  0.6795
   96MOL0     C12595   1.334   2.399   9.689 -0.2544  0.0469  1.0670
   96MOL0     C12596   1.314   2.535   9.685  0.7651  0.3112  0.4395
   96MOL0     C12597   1.303   2.614   9.795  0.0929  0.4066 -0.9071
   96MOL0     O12598   1.267   2.747   9.777 -0.1791  0.5593  0.1020
   96MOL0     C12599   1.256   2.847   9.874 -0.1477 -0.7748  0.9496
   96MOL0     C12600   1.391   2.892   9.929 -0.3571  0.5973  0.3523
   96MOL0     C12601   1.471   2.991   9.838  0.1845 -0.2837 -0.0912
   96MOL0     C12602   1.534   2.930   9.719  0.1544  0.1842  0.5711
   96MOL0     C12603   1.632   3.015   9.656  0.0369  0.4376 -0.0997
   96MOL0     C12604   1.701   3.104   9.607  0.9550 -0.4081 -0.0183
   96MOL0     C12605   1.320   2.558   9.918  0.7290  0.1862  0.9112
   96MOL0     C12606   1.342   2.419   9.927 -0.2925 -0.4559 -0.3939
   96MOL0     H12607   1.557   1.985  10.045 -0.2880  0.2729  2.0201
   96MOL0     H12608   1.565   1.751  10.034 -2.3512 -1.0024  0.6210
   96MOL0     H12609   1.255   1.470   9.930  0.0838  4.4374 -1.3630
   96MOL0     H12610   1.281   1.532  10.081 -2.0215 -0.1005 -0.6191
   96MOL0     H12611   1.363   1.302  10.084 -0.1634 -0.8399 -1.9802
   96MOL0     H12612   1.511   1.398  10.087  1.3355 -1.6300 -0.7262
   96MOL0     H12613   1.530   1.371   9.831 -3.0367 -0.2286 -3.8892
   96MOL0     H12614   1.380   1.280   9.851 -0.9950  3.4846  1.9678
   96MOL0     H12615   1.637   1.196   9.974  1.1726  0.4756 -1.6793
   96MOL0     H12616   1.482   1.097   9.963  0.4197  0.2890  2.0098
   96MOL0     H12617   1.665   1.196   9.746  0.9205  1.1058  3.3197
   96MOL0     H12618   1.522   1.091   9.723 -0.6682 -0.9835  0.0623
   96MOL0     H12619   1.603   0.902   9.841  0.2937 -1.6615 -0.7149
   96MOL0     H12620   1.734   1.005   9.909 -1.1022  1.3614  0.3779
   96MOL0     H12621   1.662   0.943   9.617  0.3504  0.3662 -1.1452
   96MOL0     H12622   1.818   1.018   9.651  0.4381 -1.2004  1.2761
   96MOL0     H12623   1.857   0.776   9.624  3.6015  0.5577  1.0660
   96MOL0     H12624   1.745   0.740   9.759  0.3181  0.8396  2.1382
   96MOL0     H12625   2.071   0.904   9.651 -1.8147 -0.9079 -0.8225
   96MOL0     H12626   2.293   0.922   9.737 -0.1919 -0.6911  0.6016
   96MOL0     H12627   2.306   0.752   9.743 -1.1615  0.9234 -1.0556
   96MOL0     H12628   2.477   0.862   9.858 -0.5974 -5.6829 -3.6936
   96MOL0     H12629   2.391   0.774   9.986  1.3230 -0.3954 -0.4096
   96MOL0     H12630   2.470   0.981  10.065 -1.5722 -2.6420  0.4787
   96MOL0     H12631   2.401   1.077   9.935 -0.6422 -1.0638 -3.1072
   96MOL0     H12632   2.282   0.917  10.176  1.1562  2.4719  3.0611
   96MOL0     H12633   2.174   1.010  10.063  0.0006  0.5795  0.6675
   96MOL0     H12634   2.087   0.968  10.299  2.2633 -0.7143  0.1147
   96MOL0     H12635   1.943   1.040  10.472 -1.6342  2.7208 -0.3613
   96MOL0     H12636   1.603   1.237  10.617  3.0912  0.9223 -1.5978
   96MOL0     H12637   1.425   1.279  10.823  0.1481 -5.8396  0.7677
   96MOL0     H12638   1.588   1.417  11.189 -1.5289  0.4335 -2.1124
   96MOL0     H12639   1.548   1.255  11.255  0.7582 -0.6621 -2.3361
   96MOL0     H12640   1.300   1.346  11.269  1.9911 -2.6510 -1.0713
   96MOL0     H12641   1.363   1.507  11.225 -0.2322 -0.8285  0.0447
   96MOL0     H12642   1.520   1.480  11.429  0.6265 -1.3286  0.1311
   96MOL0     H12643   1.457   1.323  11.443 -0.0396 -0.6362  0.1139
   96MOL0     H12644   1.257   1.563  11.476 -1.4807 -0.3528  0.8607
   96MOL0     H12645   1.231   1.394  11.505  0.2195 -0.5782  2.9963
   96MOL0     H12646   1.389   1.377  11.686 -2.3781 -0.7259  3.0280
   96MOL0     H12647   1.234   1.463  11.709 -1.6429 -1.9550 -2.3833
   96MOL0     H12648   1.336   1.671  11.739  1.5313  1.7948  1.9807
   96MOL0     H12649   1.502   1.605  11.675  0.7146 -0.2082  2.6016
   96MOL0     H12650   1.367   1.505  11.928  0.2912 -0.8145  0.4918
   96MOL0     H12651   1.534   1.482  11.867  3.1362  3.7085 -1.8339
   96MOL0     H12652   1.580   1.737  11.898  1.6499  0.4459  0.5253
   96MOL0     H12653   1.537   1.661  12.053  2.0854 -0.3205 -0.5014
   96MOL0     H12654   1.735   1.228  11.096 -0.1999 -2.6909  0.3470
   96MOL0     H12655   1.898   1.201  10.901  0.6547  0.4367  1.4390
   96MOL0     H12656   2.191   1.385  10.528  0.0388 -0.2749  2.9902
   96MOL0     H12657   2.329   1.321  10.334 -1.0335  3.7900  4.1766
   96MOL0     H12658   1.189   1.707   9.856 -1.5710 -0.1075  1.1969
   96MOL0     H12659   1.158   1.946   9.855  1.1085  0.8856 -0.8420
   96MOL0     H12660   1.342   2.340   9.597  1.3621  2.6834 -0.5956
   96MOL0     H12661   1.291   2.593   9.597  2.4112 -0.2170 -0.3795
   96MOL0     H12662   1.185   2.822   9.954 -1.5881  1.0434  0.3222
   96MOL0     H12663   1.214   2.927   9.811  1.3660 -0.1620  0.6853
   96MOL0     H12664   1.377   2.945  10.023 -3.7488  0.0854  0.2531
   96MOL0     H12665   1.446   2.799   9.946 -1.0898  0.4854  2.3522
   96MOL0     H12666   1.542   3.050   9.898  1.0396 -1.8654  0.5330
   96MOL0     H12667   1.400   3.069   9.811  0.5629  0.1030  0.0208
   96MOL0     H12668   1.587   2.837   9.740 -0.8888 -0.3609  0.8402
   96MOL0     H12669   1.453   2.898   9.652 -3.1776  2.8558  2.9793
   96MOL0     H12670   1.773   3.177   9.574  0.9275 -0.0904  0.6153
   96MOL0     H12671   1.309   2.607  10.014  1.7861 -1.8550  2.1424
   96MOL0     H12672   1.364   2.370  10.021  0.0648  2.8678  1.3917
   97MOL0     O12673   0.358   8.273   4.923 -0.6058  0.3081  0.2417
   97MOL0     C12674   0.296   8.363   4.972 -0.2194  0.0519  0.8550
   97MOL0     O12675   0.205   8.357   5.074 -0.3013  0.4393  0.3995
   97MOL0     C12676   0.201   8.239   5.138  0.4298  0.3325  0.2145
   97MOL0     C12677   0.315   8.175   5.181 -0.0819 -0.0025  0.0453
   97MOL0     C12678   0.307   8.072   5.277  0.3357 -0.3244  0.0379
   97MOL0     C12679   0.185   8.012   5.301  0.4628  0.0318  0.8495
   97MOL0     O12680   0.176   7.921   5.403 -0.8069 -0.4149 -0.0578
   97MOL0     C12681   0.130   7.790   5.383 -0.6648 -0.9330  1.1888
   97MOL0     C12682   0.099   7.717   5.517 -0.4798 -0.2435  0.0118
   97MOL0     C12683  -0.047   7.710   5.553 -0.0406 -0.0947 -0.0880
   97MOL0     C12684  -0.099   7.853   5.581  0.6459 -0.1652  0.0751
   97MOL0     C12685  -0.255   7.865   5.611  0.5521 -0.3488 -1.0792
   97MOL0     C12686  -0.293   7.778   5.729  0.3571 -0.5661  0.4656
   97MOL0     C12687  -0.432   7.812   5.757  0.2643  0.0153  0.0996
   97MOL0     C12688  -0.469   7.727   5.876  0.0831 -0.5783  0.6892
   97MOL0     N12689  -0.617   7.719   5.881 -1.0330 -0.6906  0.5290
   97MOL0     C12690  -0.700   7.826   5.865  0.3104 -0.3872 -0.3881
   97MOL0     C12691  -0.823   7.772   5.832  0.3343  0.1974 -0.2453
   97MOL0     C12692  -0.939   7.872   5.821 -0.7250 -0.6814  0.3941
   97MOL0     C12693  -0.923   7.981   5.715  0.0480  0.2630 -0.8242
   97MOL0     C12694  -0.850   7.920   5.587  0.2310  0.1390  0.2733
   97MOL0     C12695  -0.868   8.005   5.455 -0.9241 -0.2098 -0.7474
   97MOL0     O12696  -0.814   8.141   5.466 -0.1338  0.0002  0.2563
   97MOL0     C12697  -0.687   8.172   5.425 -0.1624  1.1449  0.4905
   97MOL0     C12698  -0.662   8.309   5.405 -0.0239 -0.6408 -0.4166
   97MOL0     C12699  -0.540   8.356   5.367  0.8596  0.3144 -0.1460
   97MOL0     C12700  -0.443   8.266   5.328 -1.6734  0.1770  1.0076
   97MOL0     C12701  -0.323   8.316   5.268 -0.4959 -0.3859  0.5895
   97MOL0     O12702  -0.325   8.453   5.240  0.6327  0.8356 -0.5308
   97MOL0     C12703  -0.253   8.501   5.138  0.4609  0.1641 -0.2655
   97MOL0     C12704  -0.297   8.484   5.007  0.3105  0.7555  0.3341
   97MOL0     C12705  -0.220   8.533   4.904  0.3970  0.9714 -0.1486
   97MOL0     C12706  -0.103   8.617   4.921  0.1104  0.9456  0.2898
   97MOL0     O12707  -0.046   8.684   4.818 -0.1862 -0.5516  0.1418
   97MOL0     C12708  -0.029   8.632   4.689  0.1830  0.7773  0.7758
   97MOL0     C12709   0.042   8.716   4.586  0.5101 -0.1619  0.8045
   97MOL0     C12710  -0.056   8.759   4.464  0.2241  0.5759 -0.2570
   97MOL0     C12711  -0.120   8.890   4.502  0.7103  0.3729  0.5505
   97MOL0     C12712  -0.207   8.944   4.388 -0.2250 -0.0479  0.7797
   97MOL0     C12713  -0.258   9.082   4.401 -0.5802  0.7234 -0.0437
   97MOL0     C12714  -0.153   9.194   4.409 -0.2473 -0.0147 -0.6945
   97MOL0     C12715  -0.058   9.207   4.293 -0.5936  0.0934  0.7590
   97MOL0    Cl12716   0.072   9.087   4.306 -0.0930  0.3894  0.5708
   97MOL0     C12717  -0.063   8.632   5.056 -0.3420  0.9941  0.3514
   97MOL0     C12718  -0.141   8.582   5.165 -0.0443  0.0048  0.3496
   97MOL0     O12719  -0.229   8.241   5.241  0.0183  0.4673 -0.5809
   97MOL0     C12720  -0.462   8.130   5.357 -0.0631 -0.6450  0.2085
   97MOL0     C12721  -0.582   8.083   5.400  0.2760 -1.0695  0.7907
   97MOL0     N12722  -0.804   7.641   5.813 -0.0381  1.4712 -0.3934
   97MOL0     N12723  -0.685   7.606   5.841  0.1486 -1.4923  0.4506
   97MOL0     C12724   0.071   8.071   5.252 -0.7286 -0.6379  0.5890
   97MOL0     C12725   0.076   8.189   5.168 -0.4432  1.2229  0.1873
   97MOL0     C12726   0.323   8.495   4.915  0.1431  0.1415  0.1779
   97MOL0     C12727   0.361   8.519   4.780  0.6058 -0.4127  0.0710
   97MOL0     C12728   0.376   8.652   4.733  0.4203  1.1076  0.2765
   97MOL0     C12729   0.366   8.758   4.817  1.0580 -0.2813 -0.2830
   97MOL0     O12730   0.391   8.888   4.779  0.5287  0.7176  0.0941
   97MOL0     C12731   0.529   8.927   4.780  0.0714 -0.9496 -0.0551
   97MOL0     C12732   0.598   8.899   4.921  0.3418  0.2585  0.8428
   97MOL0     C12733   0.735   8.960   4.932  0.2798  0.9991 -0.0179
   97MOL0     C12734   0.852   8.861   4.925  0.0311 -1.1068 -0.9159
   97MOL0     C12735   0.843   8.748   4.834  0.7212 -0.1287  0.4145
   97MOL0     C12736   0.829   8.658   4.754 -0.3300 -0.6090 -0.3348
   97MOL0     C12737   0.325   8.735   4.943  0.4011  0.2799 -0.2596
   97MOL0     C12738   0.299   8.613   4.989  0.3262 -0.8915  0.5434
   97MOL0     H12739   0.408   8.218   5.145 -1.3748  0.8645 -2.5313
   97MOL0     H12740   0.400   8.036   5.322 -1.9047 -5.4693  1.2865
   97MOL0     H12741   0.214   7.735   5.338 -1.0229 -0.9227  0.5076
   97MOL0     H12742   0.041   7.785   5.321  0.7347 -4.7422 -0.8358
   97MOL0     H12743   0.159   7.759   5.599 -1.1442  1.9517 -0.5852
   97MOL0     H12744   0.141   7.616   5.514  0.8737  0.2935 -3.3241
   97MOL0     H12745  -0.051   7.652   5.646  0.9597  3.9078  2.6956
   97MOL0     H12746  -0.102   7.661   5.472  0.1861  0.5143 -0.6216
   97MOL0     H12747  -0.043   7.912   5.655  0.6771 -1.3235  0.9977
   97MOL0     H12748  -0.079   7.900   5.484 -1.5905 -4.6780 -2.8695
   97MOL0     H12749  -0.312   7.849   5.519 -2.1148  1.2657  0.1549
   97MOL0     H12750  -0.268   7.972   5.627  0.8496 -0.4815  0.1319
   97MOL0     H12751  -0.235   7.788   5.821  0.5553 -1.7176  0.4797
   97MOL0     H12752  -0.279   7.671   5.711  2.8661 -0.0837 -1.0898
   97MOL0     H12753  -0.441   7.917   5.784  2.0585  0.7187 -1.7324
   97MOL0     H12754  -0.492   7.790   5.668  2.3985  3.7276 -2.5673
   97MOL0     H12755  -0.427   7.769   5.968  2.2032  3.8191 -1.9827
   97MOL0     H12756  -0.432   7.625   5.862  0.6597 -0.0194 -2.5772
   97MOL0     H12757  -0.694   7.934   5.880 -0.4737 -0.4123  0.1497
   97MOL0     H12758  -0.966   7.916   5.918  1.0972  1.3274  0.0460
   97MOL0     H12759  -1.031   7.825   5.784 -2.4867  2.5689  0.3171
   97MOL0     H12760  -0.862   8.058   5.763  0.3959 -1.2373  1.2799
   97MOL0     H12761  -1.020   8.024   5.691 -1.8011 -2.1657  1.6339
   97MOL0     H12762  -0.743   7.903   5.600  0.3463 -0.1672 -0.9585
   97MOL0     H12763  -0.895   7.823   5.566 -2.8707  2.0107 -2.8810
   97MOL0     H12764  -0.975   8.018   5.438 -0.7522  1.6165 -0.6258
   97MOL0     H12765  -0.826   7.952   5.370 -1.4796  0.2336 -1.3074
   97MOL0     H12766  -0.726   8.392   5.432  2.3485  1.0328  0.4218
   97MOL0     H12767  -0.525   8.463   5.370  0.1901  0.4993 -2.0159
   97MOL0     H12768  -0.386   8.426   4.986  0.4486  1.1726 -1.6106
   97MOL0     H12769  -0.266   8.505   4.810 -2.1113  0.8265  1.0373
   97MOL0     H12770  -0.127   8.592   4.660  0.0532  1.0757  0.8017
   97MOL0     H12771   0.027   8.538   4.702 -2.2706 -0.7085  1.3342
   97MOL0     H12772   0.121   8.652   4.543 -1.2104 -0.6275 -1.9166
   97MOL0     H12773   0.098   8.800   4.628 -1.9684  1.3007  1.3450
   97MOL0     H12774  -0.130   8.680   4.448 -1.4779  2.1871 -0.6327
   97MOL0     H12775   0.006   8.765   4.374 -1.6741 -0.6655 -1.7197
   97MOL0     H12776  -0.165   8.866   4.599 -0.2685  0.1843  0.0610
   97MOL0     H12777  -0.059   8.973   4.539  0.8398 -1.2580  4.5323
   97MOL0     H12778  -0.295   8.880   4.371 -0.4359  1.2371 -4.7923
   97MOL0     H12779  -0.152   8.934   4.295 -1.2623 -0.6454  0.2153
   97MOL0     H12780  -0.320   9.081   4.491  0.5528  1.6933  0.7722
   97MOL0     H12781  -0.314   9.090   4.307  0.0263 -1.1702 -0.6224
   97MOL0     H12782  -0.212   9.286   4.419  0.6951  0.3875  1.6255
   97MOL0     H12783  -0.096   9.176   4.500  0.6146 -3.0567 -1.7064
   97MOL0     H12784  -0.013   9.306   4.293  1.1403 -0.5877 -1.8634
   97MOL0     H12785  -0.109   9.190   4.197  2.3247  0.2518 -0.9495
   97MOL0     H12786   0.025   8.691   5.080  0.6093 -0.7868  1.4207
   97MOL0     H12787  -0.115   8.616   5.265 -1.7665 -1.1174  1.2359
   97MOL0     H12788  -0.370   8.076   5.336  0.8558 -0.4150  3.1187
   97MOL0     H12789  -0.599   7.976   5.405  0.1078 -1.2246 -1.9748
   97MOL0     H12790  -0.025   8.039   5.291 -0.9508  0.9200  1.3591
   97MOL0     H12791  -0.008   8.251   5.140  0.4083  1.6070 -1.6545
   97MOL0     H12792   0.365   8.431   4.717  0.3456 -0.4176  0.0614
   97MOL0     H12793   0.409   8.672   4.631  0.9754  2.6386  0.7408
   97MOL0     H12794   0.515   9.034   4.769 -0.1011 -0.9790 -0.1150
   97MOL0     H12795   0.587   8.893   4.694 -0.6149  1.1258 -1.3969
   97MOL0     H12796   0.535   8.950   4.994 -2.1078  2.1296 -2.2692
   97MOL0     H12797   0.605   8.792   4.943  1.0830  0.3814  1.2290
   97MOL0     H12798   0.748   9.018   5.025  1.9770  0.7615 -0.0787
   97MOL0     H12799   0.742   9.025   4.845  3.6861 -0.5400 -1.0807
   97MOL0     H12800   0.948   8.914   4.928 -1.4891  1.8124  1.6092
   97MOL0     H12801   0.847   8.811   5.022  0.7549  1.1950  0.4087
   97MOL0     H12802   0.809   8.584   4.679 -1.2837 -1.3384  0.6031
   97MOL0     H12803   0.312   8.823   5.005  0.8931  0.7202 -0.7743
   97MOL0     H12804   0.262   8.619   5.091  0.5543  2.4535  0.5622
   98MOL0     O12805   9.689   9.869   5.446  0.8006 -0.3387  0.7867
   98MOL0     C12806   9.724   9.965   5.511  0.0465  0.3765 -0.6820
   98MOL0     O12807   9.795   9.963   5.625  0.4153  1.0256  0.5151
   98MOL0     C12808   9.832   9.838   5.666 -0.0376 -0.3508 -0.0736
   98MOL0     C12809   9.963   9.791   5.650 -0.1628  0.2269  0.2451
   98MOL0     C12810   9.994   9.660   5.701  0.7353 -0.2095  0.1416
   98MOL0     C12811   9.899   9.590   5.785  0.0162  0.5225 -0.0405
   98MOL0     O12812   9.924   9.468   5.852 -0.1705 -0.1828  0.0444
   98MOL0     C12813  10.040   9.399   5.810 -0.5885  0.8405 -0.8351
   98MOL0     C12814  10.025   9.246   5.841 -0.6058  0.3407 -0.0126
   98MOL0     C12815  10.019   9.227   5.990 -0.5672 -0.3318  0.5142
   98MOL0     C12816   9.986   9.091   6.039  0.2184  0.2289 -0.5231
   98MOL0     C12817   9.948   9.078   6.186 -0.3964 -1.6552  0.1354
   98MOL0     C12818  10.073   9.089   6.285  0.9058 -0.5844 -0.7577
   98MOL0     C12819  10.045   9.040   6.426 -0.4636  0.1042 -1.0434
   98MOL0     C12820  10.030   8.882   6.440 -0.6971 -0.1211 -0.3071
   98MOL0     N12821  10.012   8.839   6.582  0.4406  0.0734  0.9323
   98MOL0     C12822  10.107   8.792   6.668  0.2788  0.0685 -0.6413
   98MOL0     C12823  10.046   8.780   6.789 -0.4095 -0.4406  0.0747
   98MOL0     C12824  10.124   8.741   6.911  0.1142  0.5620  0.5404
   98MOL0     C12825  10.058   8.819   7.030  0.0403  0.2664 -0.2075
   98MOL0     C12826  10.152   8.844   7.149  0.5196 -0.3003  0.1817
   98MOL0     C12827  10.175   8.714   7.224  0.4183 -0.1961 -0.1060
   98MOL0     O12828  10.232   8.734   7.349 -0.4411 -0.1996 -0.0869
   98MOL0     C12829  10.368   8.710   7.360 -0.4340  0.7727 -0.2190
   98MOL0     C12830  10.401   8.628   7.469 -0.5697 -0.4389 -0.0697
   98MOL0     C12831  10.530   8.590   7.488  0.2292  0.0301 -0.6740
   98MOL0     C12832  10.640   8.642   7.418  0.0794  1.3504 -0.5159
   98MOL0     C12833  10.789   8.613   7.465 -0.7996 -0.4727  0.5115
   98MOL0     O12834  10.798   8.551   7.588  0.3263 -0.5203  0.2440
   98MOL0     C12835  10.924   8.508   7.628 -0.9270  0.1171  0.1818
   98MOL0     C12836  11.039   8.584   7.635 -0.9045  0.1792  0.5691
   98MOL0     C12837  11.161   8.534   7.691 -0.0782  1.0477 -0.4908
   98MOL0     C12838  11.154   8.415   7.762 -0.2498 -0.1062  1.4674
   98MOL0     O12839  11.266   8.390   7.830 -0.9936  0.0357 -0.5480
   98MOL0     C12840  11.258   8.268   7.906  0.2842  0.2002 -0.5020
   98MOL0     C12841  11.387   8.258   8.001  0.2738 -0.0216 -0.3445
   98MOL0     C12842  11.385   8.140   8.102 -0.7061  0.0678 -0.2045
   98MOL0     C12843  11.529   8.111   8.146 -0.2042 -0.2783 -0.2514
   98MOL0     C12844  11.528   7.995   8.252 -0.5288 -1.0422  0.2271
   98MOL0     C12845  11.683   7.979   8.298 -0.3004  0.8256 -0.3190
   98MOL0     C12846  11.692   7.873   8.413  0.7083  0.9503  1.1699
   98MOL0     C12847  11.834   7.817   8.444 -0.1862 -0.5441  0.1911
   98MOL0    Cl12848  11.823   7.702   8.577 -0.1392  0.1217 -0.3899
   98MOL0     C12849  11.037   8.338   7.742  0.8480 -0.1522 -0.1505
   98MOL0     C12850  10.929   8.379   7.673  1.0266  0.2657 -1.4234
   98MOL0     O12851  10.882   8.664   7.403  0.3453  0.1867  0.4998
   98MOL0     C12852  10.607   8.740   7.317  0.3162  0.0001 -0.6441
   98MOL0     C12853  10.475   8.767   7.283 -0.4021 -0.8285 -0.3615
   98MOL0     N12854   9.916   8.813   6.775  0.7656  0.4200 -0.7625
   98MOL0     N12855   9.895   8.851   6.655 -0.1961  0.3783  0.7915
   98MOL0     C12856   9.767   9.633   5.785 -0.3461 -0.3688  0.3086
   98MOL0     C12857   9.737   9.757   5.732 -0.0435  0.2315  0.3651
   98MOL0     C12858   9.693  10.095   5.456 -0.0870  0.2315  0.3812
   98MOL0     C12859   9.570  10.129   5.401  0.1762  0.1003  0.0107
   98MOL0     C12860   9.539  10.247   5.335 -0.1740 -0.2374 -0.4614
   98MOL0     C12861   9.635  10.352   5.333  0.3990  0.1865 -1.0483
   98MOL0     O12862   9.610  10.466   5.265 -0.1331 -0.4021  0.9651
   98MOL0     C12863   9.576  10.445   5.124 -0.0751 -0.8532 -0.6640
   98MOL0     C12864   9.692  10.393   5.050 -0.1292  0.4180  0.1808
   98MOL0     C12865   9.785  10.502   5.012 -0.5868 -0.1324  0.3359
   98MOL0     C12866   9.912  10.452   4.928  0.4748 -0.4912  0.6153
   98MOL0     C12867  10.016  10.536   4.978 -1.0913  0.7952 -0.3162
   98MOL0     C12868  10.089  10.624   5.015 -0.2754  1.0997 -0.2368
   98MOL0     C12869   9.751  10.333   5.415 -0.7588  0.2854  0.3245
   98MOL0     C12870   9.785  10.200   5.469 -0.5979 -0.6485  0.7909
   98MOL0     H12871  10.038   9.851   5.600 -2.1365  1.0738 -1.8841
   98MOL0     H12872  10.098   9.633   5.688  1.2084  1.8222 -0.8074
   98MOL0     H12873  10.130   9.448   5.848 -0.4914  0.7937 -0.9999
   98MOL0     H12874  10.052   9.399   5.701  3.0698 -5.7794 -0.9257
   98MOL0     H12875  10.091   9.177   5.789 -1.5871 -1.3648  0.9079
   98MOL0     H12876   9.928   9.208   5.809 -0.7833  1.4107 -0.8118
   98MOL0     H12877   9.954   9.300   6.040 -1.9719 -0.0238 -1.6185
   98MOL0     H12878  10.117   9.251   6.033 -1.4075  1.5301  1.5328
   98MOL0     H12879   9.908   9.055   5.971 -0.6119  1.3197 -0.1718
   98MOL0     H12880  10.070   9.024   6.017  0.8252  0.5523  0.7334
   98MOL0     H12881   9.900   8.981   6.204  0.6191 -2.7937 -2.7263
   98MOL0     H12882   9.888   9.162   6.222 -0.2330 -1.7027  0.5308
   98MOL0     H12883  10.107   9.193   6.287  1.1077 -0.6548  1.9417
   98MOL0     H12884  10.152   9.025   6.245  1.0764 -0.4175 -0.6882
   98MOL0     H12885  10.130   9.076   6.486 -0.4054  1.2490 -1.7795
   98MOL0     H12886   9.955   9.083   6.472 -1.5813 -2.0737 -1.0668
   98MOL0     H12887  10.107   8.825   6.387 -0.6342 -0.9911  0.6787
   98MOL0     H12888   9.938   8.847   6.392 -0.7542 -3.1050  1.6735
   98MOL0     H12889  10.210   8.771   6.641  0.0132 -0.6317 -1.1448
   98MOL0     H12890  10.230   8.768   6.901 -0.4582  2.3132 -1.5658
   98MOL0     H12891  10.120   8.633   6.922  0.9552  0.4913  0.2150
   98MOL0     H12892   9.979   8.753   7.066  1.7195 -0.4224  2.4916
   98MOL0     H12893  10.015   8.918   7.008 -1.6001 -0.2615  0.4527
   98MOL0     H12894  10.255   8.871   7.125  0.8016 -1.5068 -0.0244
   98MOL0     H12895  10.105   8.923   7.208 -0.0650 -2.5218  2.8435
   98MOL0     H12896  10.244   8.650   7.169 -1.5631 -3.0284  0.4980
   98MOL0     H12897  10.078   8.665   7.239  0.4598  0.0917  1.2374
   98MOL0     H12898  10.323   8.582   7.528 -1.6909 -0.3447 -1.4314
   98MOL0     H12899  10.546   8.531   7.578  2.4256  2.5755  0.7310
   98MOL0     H12900  11.037   8.689   7.611 -0.8806  0.4324  1.6087
   98MOL0     H12901  11.240   8.608   7.690 -1.0474  2.1262  0.6109
   98MOL0     H12902  11.245   8.175   7.851 -4.6355 -0.1619  0.8149
   98MOL0     H12903  11.176   8.281   7.977 -1.2122 -0.4805 -2.0490
   98MOL0     H12904  11.394   8.346   8.064  2.5641 -1.5930  1.7837
   98MOL0     H12905  11.477   8.253   7.939  0.8396  1.6242  0.2970
   98MOL0     H12906  11.332   8.059   8.050  0.5292  0.4800 -2.2163
   98MOL0     H12907  11.337   8.166   8.197  0.0606  0.4535  0.0923
   98MOL0     H12908  11.591   8.084   8.061 -0.0220  0.0383 -0.2208
   98MOL0     H12909  11.580   8.195   8.194 -0.5641 -1.1009  1.6272
   98MOL0     H12910  11.499   7.909   8.191  3.1334 -0.1276 -3.2722
   98MOL0     H12911  11.475   8.017   8.346  0.8955 -0.7687  0.9962
   98MOL0     H12912  11.717   8.074   8.339 -2.0502  0.8735  1.1506
   98MOL0     H12913  11.750   7.939   8.221  0.3586 -0.4653  0.8642
   98MOL0     H12914  11.678   7.943   8.497  2.5982  1.3549  1.1817
   98MOL0     H12915  11.614   7.797   8.403  0.1974  1.3578  1.9124
   98MOL0     H12916  11.905   7.897   8.464  0.4535 -0.6109 -1.6973
   98MOL0     H12917  11.879   7.767   8.358  2.2852  0.4172  0.8382
   98MOL0     H12918  11.036   8.241   7.791  0.2416  1.8423  4.1943
   98MOL0     H12919  10.836   8.324   7.666  0.3179  0.7598  2.2623
   98MOL0     H12920  10.688   8.798   7.276  1.4077 -0.4183  0.8516
   98MOL0     H12921  10.466   8.835   7.199 -0.2968 -0.0551  0.2392
   98MOL0     H12922   9.699   9.577   5.849  1.3234 -0.6201  1.9533
   98MOL0     H12923   9.638   9.797   5.717 -0.6732 -1.3855 -0.0300
   98MOL0     H12924   9.499  10.047   5.399  0.4126 -0.0977 -0.8606
   98MOL0     H12925   9.444  10.247   5.284 -0.8023 -2.1605  0.6052
   98MOL0     H12926   9.532  10.537   5.084  0.2285  0.9574  2.7862
   98MOL0     H12927   9.497  10.370   5.125 -1.6590  0.6880  2.2981
   98MOL0     H12928   9.746  10.326   5.116  0.6582  0.0343 -0.8284
   98MOL0     H12929   9.668  10.339   4.958  0.3246 -1.4484  1.1161
   98MOL0     H12930   9.819  10.546   5.107 -0.2502  0.3067  0.0178
   98MOL0     H12931   9.717  10.570   4.960 -1.6976 -1.1154  0.4616
   98MOL0     H12932   9.936  10.346   4.942  3.0914  0.1564  1.4818
   98MOL0     H12933   9.874  10.469   4.826  0.3924 -2.6995  0.2287
   98MOL0     H12934  10.161  10.699   5.041  1.0372  0.1231 -0.9469
   98MOL0     H12935   9.830  10.408   5.416  1.2907 -1.7701  1.0933
   98MOL0     H12936   9.881  10.185   5.517 -1.4889  0.3694  3.0297
   99MOL0     O12937   1.002   6.143   2.365 -0.7719  0.3359 -0.1967
   99MOL0     C12938   1.009   6.247   2.434 -0.0326 -0.1002  0.2757
   99MOL0     O12939   1.075   6.268   2.550  0.0102 -0.0762  0.3540
   99MOL0     C12940   1.143   6.157   2.593  1.0118 -0.2999 -0.5996
   99MOL0     C12941   1.281   6.160   2.595  0.1022 -0.4997 -0.2017
   99MOL0     C12942   1.354   6.056   2.659  0.2307 -0.3621  0.0067
   99MOL0     C12943   1.293   5.944   2.723 -0.2190  0.0373 -0.3652
   99MOL0     O12944   1.361   5.853   2.797 -0.8577  0.0144  0.1964
   99MOL0     C12945   1.440   5.761   2.718  0.1593 -0.0695 -0.6821
   99MOL0     C12946   1.442   5.630   2.802 -0.2508  0.3188 -0.7251
   99MOL0     C12947   1.312   5.550   2.800 -0.4369  0.6221  0.3948
   99MOL0     C12948   1.312   5.422   2.882  0.2617 -0.0870  0.0194
   99MOL0     C12949   1.296   5.456   3.037  0.1354 -0.4136  1.1230
   99MOL0     C12950   1.228   5.344   3.114 -0.1152  0.3446 -0.0293
   99MOL0     C12951   1.084   5.323   3.066 -0.5824 -0.6655 -0.6297
   99MOL0     C12952   1.004   5.244   3.174  0.1120  0.2311  0.3514
   99MOL0     N12953   0.863   5.221   3.149 -0.2349  0.2819 -0.0159
   99MOL0     C12954   0.819   5.174   3.025 -0.1161  0.7717  0.4992
   99MOL0     C12955   0.680   5.184   3.032 -0.1856  0.0656  0.3297
   99MOL0     C12956   0.573   5.147   2.926  0.3259 -0.6913  0.7749
   99MOL0     C12957   0.550   5.267   2.833 -0.4525 -0.1264  0.2357
   99MOL0     C12958   0.434   5.246   2.731 -0.3937 -0.2435  0.0572
   99MOL0     C12959   0.474   5.154   2.621 -0.8683  0.1910 -0.6640
   99MOL0     O12960   0.435   5.227   2.496 -0.0669  0.1120  0.0530
   99MOL0     C12961   0.484   5.175   2.385  0.5136 -0.0669  0.3205
   99MOL0     C12962   0.505   5.044   2.352  0.3982 -0.5279 -0.4802
   99MOL0     C12963   0.545   4.996   2.222 -0.1271 -0.3590  0.2263
   99MOL0     C12964   0.574   5.093   2.120 -0.1313  0.8107  0.9329
   99MOL0     C12965   0.613   5.043   1.988 -0.8323 -0.0858 -0.8188
   99MOL0     O12966   0.656   4.912   1.980  1.1953 -0.0087  0.2350
   99MOL0     C12967   0.646   4.860   1.858 -0.4198 -0.7967 -0.1692
   99MOL0     C12968   0.765   4.809   1.808 -0.7461 -0.2528 -0.1685
   99MOL0     C12969   0.761   4.738   1.691  0.5841 -0.1955  0.2759
   99MOL0     C12970   0.646   4.711   1.616  0.0664  0.3268 -0.0401
   99MOL0     O12971   0.661   4.640   1.497 -0.6922 -0.5301 -0.8678
   99MOL0     C12972   0.609   4.510   1.491  0.9895 -0.7083  0.8215
   99MOL0     C12973   0.707   4.416   1.559  0.1189  0.1335 -0.0629
   99MOL0     C12974   0.651   4.276   1.590  0.6261  0.4631  0.4293
   99MOL0     C12975   0.766   4.176   1.636  0.1624  0.7023  0.7398
   99MOL0     C12976   0.727   4.031   1.647 -0.0576 -0.0253  0.8976
   99MOL0     C12977   0.639   3.990   1.762  0.1437 -0.3873 -0.6241
   99MOL0     C12978   0.726   3.981   1.896  0.0789  0.3806 -0.1316
   99MOL0     C12979   0.649   3.939   2.021  0.6474 -0.0362  0.1103
   99MOL0    Cl12980   0.536   4.074   2.067  0.1237  0.3801  0.2217
   99MOL0     C12981   0.529   4.743   1.678 -0.1047 -0.9577 -0.2378
   99MOL0     C12982   0.524   4.827   1.793  0.8966 -0.2185  0.1646
   99MOL0     O12983   0.607   5.119   1.887 -0.6887  0.3547 -0.1524
   99MOL0     C12984   0.554   5.229   2.146  0.3060 -0.1514  0.6562
   99MOL0     C12985   0.515   5.267   2.278 -1.4991 -0.2172 -0.3351
   99MOL0     N12986   0.649   5.229   3.159 -0.2779  0.4862  0.8609
   99MOL0     N12987   0.756   5.247   3.229 -0.1993 -0.3257 -0.6859
   99MOL0     C12988   1.152   5.944   2.713 -0.8826 -0.1047  0.2710
   99MOL0     C12989   1.081   6.048   2.650  0.7232 -0.4904  0.3466
   99MOL0     C12990   0.918   6.362   2.392 -0.1196  0.5753 -0.4790
   99MOL0     C12991   0.924   6.489   2.456  1.3364 -0.2838 -0.9508
   99MOL0     C12992   0.831   6.591   2.414 -0.4988  0.5430  0.0253
   99MOL0     C12993   0.759   6.573   2.294 -0.3729 -0.5621 -0.8282
   99MOL0     O12994   0.694   6.691   2.257 -0.1966 -0.6136 -1.1730
   99MOL0     C12995   0.625   6.688   2.131  0.9629 -0.4885  0.7798
   99MOL0     C12996   0.733   6.707   2.027  0.2894 -0.7883 -0.7836
   99MOL0     C12997   0.671   6.710   1.887 -0.1122  0.4359 -0.0852
   99MOL0     C12998   0.772   6.727   1.772 -0.1577 -0.6354 -1.6527
   99MOL0     C12999   0.799   6.587   1.724 -0.3532  0.0573  0.0753
   99MOL0     C13000   0.826   6.466   1.709 -0.0203 -0.4342  0.5246
   99MOL0     C13001   0.754   6.453   2.233 -0.2577  0.3506  0.2512
   99MOL0     C13002   0.837   6.346   2.283 -0.6999 -0.6255 -0.3068
   99MOL0     H13003   1.330   6.251   2.563 -1.1205  0.8718  1.6106
   99MOL0     H13004   1.460   6.074   2.649 -0.1020  0.0749 -4.4840
   99MOL0     H13005   1.541   5.799   2.701  1.1360 -1.1081  2.2373
   99MOL0     H13006   1.385   5.733   2.628 -4.8228 -1.8080  2.4523
   99MOL0     H13007   1.474   5.655   2.903 -2.6047 -2.0676  0.7479
   99MOL0     H13008   1.518   5.565   2.758 -0.5493  0.4771 -1.4988
   99MOL0     H13009   1.294   5.525   2.695 -0.0967 -0.6593  0.6236
   99MOL0     H13010   1.230   5.616   2.828 -2.6041 -0.9585 -1.8413
   99MOL0     H13011   1.237   5.356   2.838  1.4869  0.1293 -2.5517
   99MOL0     H13012   1.404   5.368   2.862  1.2278  1.8078 -0.9339
   99MOL0     H13013   1.252   5.556   3.047 -2.2225 -1.0831 -1.4798
   99MOL0     H13014   1.398   5.466   3.074  1.2855  1.2992 -2.1008
   99MOL0     H13015   1.224   5.372   3.219 -2.0833 -1.9453  0.5948
   99MOL0     H13016   1.288   5.256   3.093 -1.8687 -0.8934 -0.0707
   99MOL0     H13017   1.036   5.422   3.061 -0.1410 -0.3638  0.7064
   99MOL0     H13018   1.090   5.281   2.965 -0.3071 -1.2872 -0.3580
   99MOL0     H13019   1.013   5.296   3.269  2.4846  0.8506 -0.1650
   99MOL0     H13020   1.043   5.142   3.168 -0.9685 -0.2143  0.6438
   99MOL0     H13021   0.876   5.128   2.945 -2.1963 -1.1288  0.0181
   99MOL0     H13022   0.480   5.140   2.983  2.9015  1.1717  5.9191
   99MOL0     H13023   0.599   5.057   2.869  1.0569 -0.6031  0.9563
   99MOL0     H13024   0.644   5.291   2.783  0.1417 -1.7347  0.5351
   99MOL0     H13025   0.515   5.352   2.894  2.6075  0.2525  1.6784
   99MOL0     H13026   0.344   5.209   2.780  0.0403 -2.6056 -0.7811
   99MOL0     H13027   0.419   5.343   2.684  1.1437 -1.3061 -2.9248
   99MOL0     H13028   0.421   5.059   2.632 -0.0441 -0.1189  1.0007
   99MOL0     H13029   0.583   5.139   2.624 -0.2927  3.6229  1.1593
   99MOL0     H13030   0.484   4.972   2.431 -5.1686  0.7691 -0.3523
   99MOL0     H13031   0.549   4.890   2.201 -0.1014 -1.3588  4.4031
   99MOL0     H13032   0.859   4.828   1.859 -0.8472  0.6459 -0.3062
   99MOL0     H13033   0.851   4.704   1.639  1.4011 -0.7804  2.0141
   99MOL0     H13034   0.596   4.469   1.390  2.5881 -0.0791  0.3206
   99MOL0     H13035   0.508   4.498   1.530 -0.0802 -0.4084 -1.7097
   99MOL0     H13036   0.751   4.454   1.652  4.9151 -3.5698 -0.4474
   99MOL0     H13037   0.795   4.410   1.495 -0.6197 -1.4135 -0.9885
   99MOL0     H13038   0.598   4.234   1.504 -0.3675  0.5301  0.9857
   99MOL0     H13039   0.582   4.280   1.675  0.2294 -0.0526  0.1408
   99MOL0     H13040   0.842   4.190   1.558  0.3290 -0.5150  0.6712
   99MOL0     H13041   0.827   4.206   1.722  1.0201 -2.0018  1.1606
   99MOL0     H13042   0.816   3.969   1.656 -0.3189 -0.2021  2.4218
   99MOL0     H13043   0.684   3.999   1.551  0.3529  2.1420 -0.0678
   99MOL0     H13044   0.604   3.890   1.735  2.4336 -2.0102  1.9107
   99MOL0     H13045   0.557   4.062   1.767  1.5173  1.8625 -4.9477
   99MOL0     H13046   0.796   3.897   1.885 -1.7010 -1.4077  1.3929
   99MOL0     H13047   0.775   4.076   1.919 -2.6554  2.2713 -1.6515
   99MOL0     H13048   0.716   3.942   2.107 -2.1634  0.3141  2.4268
   99MOL0     H13049   0.597   3.843   2.013  0.4753 -0.3149  3.3598
   99MOL0     H13050   0.434   4.717   1.631 -0.0288  0.6704 -1.3900
   99MOL0     H13051   0.424   4.860   1.819  0.9363  0.1568 -0.1409
   99MOL0     H13052   0.576   5.304   2.071  0.9388  0.4248  1.3866
   99MOL0     H13053   0.490   5.369   2.303  0.6939  0.3605 -0.3500
   99MOL0     H13054   1.092   5.863   2.754 -4.1656  1.1537 -1.6218
   99MOL0     H13055   0.974   6.030   2.647  0.9388 -1.8101 -0.4070
   99MOL0     H13056   0.989   6.510   2.541  0.4671 -1.0583 -0.0653
   99MOL0     H13057   0.844   6.683   2.470 -0.3789  1.6591 -1.7353
   99MOL0     H13058   0.570   6.783   2.133  2.4587  0.4266  0.4572
   99MOL0     H13059   0.565   6.597   2.120 -0.0502  0.5019 -4.3383
   99MOL0     H13060   0.777   6.800   2.064 -0.9270 -1.2923  2.1582
   99MOL0     H13061   0.810   6.629   2.033  2.8175  1.6269  0.4237
   99MOL0     H13062   0.580   6.770   1.879 -0.7588 -0.3520  1.0187
   99MOL0     H13063   0.623   6.611   1.881  0.7375  0.1203 -2.3964
   99MOL0     H13064   0.741   6.807   1.704 -1.2483  0.2503 -0.1605
   99MOL0     H13065   0.861   6.766   1.822  0.1709 -1.6072 -1.4573
   99MOL0     H13066   0.856   6.364   1.696 -0.2119 -0.7380  2.2994
   99MOL0     H13067   0.693   6.426   2.148  0.4441 -1.6440  0.3138
   99MOL0     H13068   0.840   6.249   2.236 -1.9636 -0.9064  0.1336
  100MOL0     O13069   0.811   8.762   5.756  0.6476 -0.1016 -0.0601
  100MOL0     C13070   0.923   8.789   5.710  0.3120  0.1096  0.0835
  100MOL0     O13071   0.985   8.907   5.718  0.3417  0.7578  0.2458
  100MOL0     C13072   0.958   9.005   5.810 -0.2365  0.8953  0.3440
  100MOL0     C13073   1.040   9.116   5.802  0.1673  0.9128  1.2203
  100MOL0     C13074   1.045   9.217   5.896  0.6287 -0.3129  0.6323
  100MOL0     C13075   0.943   9.213   6.005 -0.3086  0.0642  0.0107
  100MOL0     O13076   0.940   9.306   6.105  0.4963 -0.1395  0.6311
  100MOL0     C13077   0.988   9.443   6.072 -1.2325 -0.1566 -0.4515
  100MOL0     C13078   0.932   9.556   6.164  0.2812 -0.2791 -0.9054
  100MOL0     C13079   0.784   9.578   6.155  1.3522  0.3521 -0.6152
  100MOL0     C13080   0.738   9.720   6.206 -0.5058 -0.1016 -0.0342
  100MOL0     C13081   0.586   9.734   6.207 -0.0379  0.0052 -0.0547
  100MOL0     C13082   0.532   9.852   6.293 -0.0983 -0.0982  0.4323
  100MOL0     C13083   0.372   9.864   6.296 -0.2369 -0.7738 -0.4612
  100MOL0     C13084   0.324   9.998   6.362  0.9508 -1.0085  1.2146
  100MOL0     N13085   0.182  10.031   6.318 -0.0685 -0.1446  0.4038
  100MOL0     C13086   0.058   9.970   6.351 -0.1227  0.3524 -0.8404
  100MOL0     C13087  -0.028  10.049   6.279  0.4598 -0.2632 -0.0282
  100MOL0     C13088  -0.177  10.029   6.292 -0.4994  1.0964 -0.2027
  100MOL0     C13089  -0.262  10.145   6.252 -0.0193  0.1702  0.1091
  100MOL0     C13090  -0.419  10.127   6.253 -0.2964 -0.2812  0.2236
  100MOL0     C13091  -0.468  10.061   6.126  0.4079  0.1903  0.5604
  100MOL0     O13092  -0.611  10.046   6.127  0.0182 -0.4154  0.4718
  100MOL0     C13093  -0.681   9.986   6.021  0.7192  0.1769 -0.7210
  100MOL0     C13094  -0.657   9.853   5.974  0.4917  0.2788 -0.0632
  100MOL0     C13095  -0.741   9.805   5.876 -0.6685 -0.4542 -0.3768
  100MOL0     C13096  -0.838   9.888   5.810  0.0282 -0.9462 -0.3923
  100MOL0     C13097  -0.913   9.837   5.697  2.1543 -0.2975  0.2791
  100MOL0     O13098  -0.887   9.710   5.662  0.2474 -0.4662  0.1806
  100MOL0     C13099  -0.976   9.638   5.578 -0.3689  0.6146 -0.8154
  100MOL0     C13100  -1.022   9.695   5.459 -0.0710 -0.1547 -0.9290
  100MOL0     C13101  -1.092   9.626   5.369  0.0713 -0.4658  0.1747
  100MOL0     C13102  -1.116   9.495   5.388  0.1770  0.7528 -0.4622
  100MOL0     O13103  -1.194   9.425   5.306  0.0988  0.6731  0.2957
  100MOL0     C13104  -1.335   9.436   5.329  0.9704  0.1468 -0.2252
  100MOL0     C13105  -1.405   9.363   5.214 -0.9806  0.5603 -0.8985
  100MOL0     C13106  -1.370   9.216   5.208  0.3099  0.2249 -0.5923
  100MOL0     C13107  -1.438   9.172   5.080  0.6158  0.7188  0.0796
  100MOL0     C13108  -1.430   9.019   5.089  0.6925 -0.0526  0.3591
  100MOL0     C13109  -1.486   8.948   4.959 -0.8464  0.5459  0.0351
  100MOL0     C13110  -1.474   8.797   4.988  0.0350 -0.8423 -0.8886
  100MOL0     C13111  -1.339   8.722   4.983 -0.0644 -1.0614  0.3432
  100MOL0    Cl13112  -1.348   8.581   5.096  0.1730  0.0589  0.3425
  100MOL0     C13113  -1.071   9.429   5.507  0.3034 -0.5038  0.7756
  100MOL0     C13114  -0.998   9.502   5.602 -0.6991  0.0075 -0.1190
  100MOL0     O13115  -1.014   9.903   5.662  0.3962  0.2827  0.0685
  100MOL0     C13116  -0.862  10.015   5.861 -0.6776 -0.1215  0.4966
  100MOL0     C13117  -0.783  10.065   5.964 -0.7254  0.3607  0.2187
  100MOL0     N13118   0.044  10.147   6.216 -0.8851 -0.0406  0.3858
  100MOL0     N13119   0.171  10.132   6.240  0.5509 -0.2427 -0.0023
  100MOL0     C13120   0.847   9.104   6.017 -0.8968 -0.8275  1.2013
  100MOL0     C13121   0.854   9.013   5.906  0.2432 -0.3902 -0.6202
  100MOL0     C13122   0.995   8.667   5.648 -0.2697 -0.0445  0.0636
  100MOL0     C13123   0.953   8.534   5.644  0.0429  0.8729  0.0514
  100MOL0     C13124   1.027   8.436   5.578  0.5423 -0.1961 -0.3344
  100MOL0     C13125   1.151   8.464   5.517 -0.8150 -0.2882  0.3996
  100MOL0     O13126   1.219   8.358   5.460  0.6930  0.1525  0.0722
  100MOL0     C13127   1.255   8.369   5.324  0.2710 -0.0349  0.3379
  100MOL0     C13128   1.347   8.254   5.292  0.1076  0.7980  0.2805
  100MOL0     C13129   1.378   8.238   5.138 -0.1354  0.2284  0.0837
  100MOL0     C13130   1.432   8.366   5.075  0.3308  0.0060 -0.0307
  100MOL0     C13131   1.567   8.394   5.122  0.3794  0.7319 -0.2840
  100MOL0     C13132   1.680   8.400   5.173 -0.0417 -0.3187 -0.1368
  100MOL0     C13133   1.181   8.596   5.505 -1.4998  0.1796  0.7604
  100MOL0     C13134   1.112   8.694   5.569 -0.2158  0.1989  0.6650
  100MOL0     H13135   1.107   9.122   5.717 -0.2002  3.0512  1.0248
  100MOL0     H13136   1.116   9.296   5.873  0.8724  0.3304  3.2788
  100MOL0     H13137   0.975   9.463   5.965 -1.8568  0.6071 -0.2465
  100MOL0     H13138   1.093   9.431   6.099 -2.2125 -2.1457  3.1535
  100MOL0     H13139   0.982   9.652   6.147 -1.3202  0.8816  0.5673
  100MOL0     H13140   0.951   9.526   6.268 -4.1510  0.1152  0.2054
  100MOL0     H13141   0.736   9.497   6.211  0.5403  3.0652  3.0238
  100MOL0     H13142   0.750   9.577   6.051 -0.3669 -1.0509 -0.0971
  100MOL0     H13143   0.777   9.741   6.306  0.8745  2.3711 -1.0175
  100MOL0     H13144   0.783   9.796   6.142 -4.1447  0.7823 -1.8464
  100MOL0     H13145   0.558   9.637   6.250  1.5792 -1.6151 -2.3907
  100MOL0     H13146   0.554   9.746   6.104 -0.1675  1.5468  0.1428
  100MOL0     H13147   0.584   9.942   6.258  1.4380 -1.0799  0.1032
  100MOL0     H13148   0.560   9.842   6.398 -1.2328  0.9227  0.8701
  100MOL0     H13149   0.344   9.850   6.191 -0.1996  0.4337 -0.6503
  100MOL0     H13150   0.328   9.778   6.347 -1.5369  0.1767  0.0940
  100MOL0     H13151   0.399  10.073   6.335  1.8432 -0.6857  4.2988
  100MOL0     H13152   0.330   9.988   6.470  0.7243 -1.6686  1.1714
  100MOL0     H13153   0.035   9.894   6.425 -0.8403  0.7876 -0.6086
  100MOL0     H13154  -0.199  10.013   6.398 -2.1054 -1.5732 -0.8349
  100MOL0     H13155  -0.194   9.935   6.239 -0.0974 -0.7911  2.7538
  100MOL0     H13156  -0.233  10.179   6.152  0.0606 -0.8216 -0.2148
  100MOL0     H13157  -0.229  10.220   6.325  1.1595 -1.4408  1.2936
  100MOL0     H13158  -0.456  10.082   6.345 -2.0352  0.9124  0.1491
  100MOL0     H13159  -0.453  10.230   6.247 -0.5759 -0.3148  1.1239
  100MOL0     H13160  -0.416   9.965   6.111 -0.5667 -0.0850 -1.3945
  100MOL0     H13161  -0.432  10.133   6.051 -1.4292 -1.7243 -2.3937
  100MOL0     H13162  -0.578   9.791   6.016 -1.6886 -2.2721  0.5386
  100MOL0     H13163  -0.729   9.707   5.830  0.9065  1.1773 -3.7762
  100MOL0     H13164  -0.996   9.798   5.438 -2.5858  0.8380  0.3071
  100MOL0     H13165  -1.116   9.689   5.284  4.1657  2.0748  0.6464
  100MOL0     H13166  -1.357   9.542   5.342 -0.7094 -0.1586 -0.4063
  100MOL0     H13167  -1.370   9.383   5.419 -1.5790 -0.6885 -1.6167
  100MOL0     H13168  -1.374   9.406   5.118  1.6325  1.9218  0.4511
  100MOL0     H13169  -1.510   9.387   5.237 -1.1791 -1.9480  1.3154
  100MOL0     H13170  -1.400   9.164   5.300  2.9407 -0.6484 -0.1503
  100MOL0     H13171  -1.264   9.195   5.196  0.2890 -0.3799  0.1840
  100MOL0     H13172  -1.544   9.201   5.081  0.3012 -0.3212 -1.1467
  100MOL0     H13173  -1.376   9.218   5.003  0.9681  0.0642 -0.0333
  100MOL0     H13174  -1.491   8.987   5.174  1.4898  0.6563  1.2177
  100MOL0     H13175  -1.328   8.981   5.102 -0.5008 -3.2710  1.4921
  100MOL0     H13176  -1.426   8.964   4.869 -1.5436  0.7154 -0.4059
  100MOL0     H13177  -1.587   8.985   4.941 -0.8967  0.1450 -0.5101
  100MOL0     H13178  -1.511   8.761   5.084  2.6631 -0.9956  0.1267
  100MOL0     H13179  -1.535   8.771   4.901  0.0677  0.7856 -1.4365
  100MOL0     H13180  -1.259   8.789   5.017  0.5404 -2.6106  2.1557
  100MOL0     H13181  -1.317   8.694   4.879 -0.3116  2.5132 -0.7984
  100MOL0     H13182  -1.103   9.328   5.530 -2.6782 -0.0043 -0.6813
  100MOL0     H13183  -0.957   9.459   5.693  3.2000 -1.6675 -2.4224
  100MOL0     H13184  -0.922  10.095   5.820  1.5200  2.4126  1.9209
  100MOL0     H13185  -0.808  10.168   5.987 -0.4209  0.3010  0.8596
  100MOL0     H13186   0.781   9.092   6.102  0.5585 -0.9185  2.3716
  100MOL0     H13187   0.777   8.937   5.905  1.9023 -2.2822  2.0716
  100MOL0     H13188   0.875   8.500   5.711  2.7427 -1.7605  2.1915
  100MOL0     H13189   0.991   8.334   5.570  3.2905 -1.2162 -0.5803
  100MOL0     H13190   1.308   8.462   5.301  0.2015  0.1503  0.8959
  100MOL0     H13191   1.161   8.365   5.268 -0.2558 -1.3399  1.2778
  100MOL0     H13192   1.439   8.274   5.347 -0.3047 -0.7765  1.6234
  100MOL0     H13193   1.301   8.167   5.340  3.4748 -2.3322 -1.5640
  100MOL0     H13194   1.290   8.229   5.073 -0.3970  1.5620  0.2379
  100MOL0     H13195   1.452   8.157   5.127  4.2442  3.5508  1.8719
  100MOL0     H13196   1.434   8.356   4.967  0.0359 -0.6550  0.0173
  100MOL0     H13197   1.374   8.451   5.111  0.9461  0.4647 -0.1032
  100MOL0     H13198   1.772   8.428   5.220 -0.8352  2.9508 -0.2560
  100MOL0     H13199   1.274   8.621   5.455 -1.0611 -2.2790  0.2202
  100MOL0     H13200   1.146   8.797   5.558  1.3428 -0.5304 -2.3174
  101MOL0     O13201   2.178   7.401   9.548 -0.1161 -0.6363 -0.4120
  101MOL0     C13202   2.129   7.326   9.631 -0.6951  0.0019  0.9941
  101MOL0     O13203   2.048   7.353   9.724  0.6826 -0.4651  0.4455
  101MOL0     C13204   1.987   7.470   9.743  0.9844  0.4712  0.1256
  101MOL0     C13205   2.034   7.591   9.706  0.5004  0.1074 -0.3597
  101MOL0     C13206   1.961   7.703   9.732  0.0827 -0.6439  0.2825
  101MOL0     C13207   1.831   7.703   9.784 -0.8874 -0.6939 -0.2229
  101MOL0     O13208   1.746   7.811   9.800 -0.8152  0.3244 -0.1659
  101MOL0     C13209   1.812   7.936   9.840  0.7531 -0.8342  0.4534
  101MOL0     C13210   1.783   7.955   9.984 -0.1133  0.8042 -0.3049
  101MOL0     C13211   1.632   7.952  10.022 -0.4342 -0.4290  0.7407
  101MOL0     C13212   1.624   7.998  10.178  0.2441 -0.2771  0.3130
  101MOL0     C13213   1.517   8.106  10.196 -0.3004  0.8987 -0.1781
  101MOL0     C13214   1.376   8.066  10.233  1.0773  0.4316 -1.1603
  101MOL0     C13215   1.359   7.963  10.352 -0.3907 -0.3170  0.7912
  101MOL0     C13216   1.378   8.030  10.491 -0.9217 -0.3873 -0.4219
  101MOL0     N13217   1.519   8.052  10.522  1.1288  0.0625 -0.1856
  101MOL0     C13218   1.594   7.954  10.586 -0.5015 -0.1729 -0.0653
  101MOL0     C13219   1.719   8.011  10.597 -0.1524 -0.5701 -0.0667
  101MOL0     C13220   1.851   7.945  10.633 -0.0293 -0.2213  0.2364
  101MOL0     C13221   1.939   7.949  10.509 -0.5897  0.1756  0.0912
  101MOL0     C13222   2.052   7.849  10.509 -0.3335  0.2673 -0.4582
  101MOL0     C13223   2.151   7.882  10.407  0.1517  0.2308 -0.1829
  101MOL0     O13224   2.249   7.766  10.421 -0.4011 -0.1189  0.4503
  101MOL0     C13225   2.352   7.781  10.512 -0.1603  0.0475 -0.1914
  101MOL0     C13226   2.433   7.678  10.556  0.0319 -0.4422 -1.3180
  101MOL0     C13227   2.523   7.692  10.666 -0.9279 -0.1429 -0.4500
  101MOL0     C13228   2.548   7.818  10.726  0.3091  0.6493 -0.2576
  101MOL0     C13229   2.632   7.841  10.841 -0.0224  0.2711  0.2749
  101MOL0     O13230   2.605   7.943  10.929 -0.0078 -0.3362  0.1420
  101MOL0     C13231   2.675   7.963  11.044  0.7375 -0.0090 -0.8115
  101MOL0     C13232   2.731   8.085  11.074 -0.2621 -0.3671 -0.1055
  101MOL0     C13233   2.814   8.104  11.189  0.7521  0.1269 -0.1700
  101MOL0     C13234   2.839   7.999  11.283  0.3136 -0.9694  0.7611
  101MOL0     O13235   2.912   8.026  11.397 -0.4694  0.8203  1.2673
  101MOL0     C13236   2.999   7.916  11.430  0.9402  0.3613  1.1755
  101MOL0     C13237   3.100   7.970  11.517  0.4462 -0.7217  0.0469
  101MOL0     C13238   3.177   8.091  11.479  1.9401 -0.2954  0.2998
  101MOL0     C13239   3.311   8.078  11.421  1.0572 -0.5415 -0.3808
  101MOL0     C13240   3.315   8.024  11.278  0.2465 -0.9578  0.5156
  101MOL0     C13241   3.454   7.980  11.242 -0.0647  0.1643 -0.8676
  101MOL0     C13242   3.441   7.902  11.109  0.4544 -0.1751  0.1880
  101MOL0     C13243   3.551   7.929  10.999  0.0365  0.0791 -0.4835
  101MOL0    Cl13244   3.557   7.799  10.881 -0.0595 -0.3056  0.1486
  101MOL0     C13245   2.781   7.881  11.254 -0.2021 -0.0431  0.1096
  101MOL0     C13246   2.700   7.858  11.131  0.3164 -0.6794 -0.1351
  101MOL0     O13247   2.716   7.749  10.861 -0.2837 -0.2446  0.4173
  101MOL0     C13248   2.476   7.928  10.669  0.0941 -0.3549  0.0075
  101MOL0     C13249   2.383   7.911  10.567  0.6807  0.3808  0.0921
  101MOL0     N13250   1.712   8.142  10.546  0.3189 -0.3574  0.2809
  101MOL0     N13251   1.594   8.174  10.509 -0.5794  0.0112  0.6738
  101MOL0     C13252   1.782   7.588   9.841  0.6488 -0.3857  0.6694
  101MOL0     C13253   1.860   7.470   9.814  0.4441 -0.2506  0.5112
  101MOL0     C13254   2.188   7.189   9.628  0.0952 -0.9819  0.8228
  101MOL0     C13255   2.212   7.116   9.746 -0.0762 -0.7937 -0.5439
  101MOL0     C13256   2.273   6.998   9.749  0.5208 -0.7591 -0.4830
  101MOL0     C13257   2.318   6.927   9.640 -0.9996  0.2103  1.0461
  101MOL0     O13258   2.386   6.810   9.652 -0.5259 -0.0203  0.9431
  101MOL0     C13259   2.463   6.754   9.544  0.5639 -0.0356 -0.1181
  101MOL0     C13260   2.575   6.658   9.591  0.0587  0.3839 -0.8382
  101MOL0     C13261   2.674   6.726   9.684  0.2145  0.8760 -0.0888
  101MOL0     C13262   2.753   6.835   9.619  0.6337 -0.4931 -0.9044
  101MOL0     C13263   2.883   6.840   9.694 -0.1345  0.3289  0.4428
  101MOL0     C13264   2.983   6.867   9.767 -0.3565  0.9421  0.4317
  101MOL0     C13265   2.297   7.002   9.516 -0.1155  0.3891 -0.7971
  101MOL0     C13266   2.237   7.128   9.515 -0.0823 -0.9804 -0.5438
  101MOL0     H13267   2.126   7.616   9.654  1.0652 -4.1915 -1.7848
  101MOL0     H13268   1.996   7.797   9.690 -2.7263  1.3986  2.1463
  101MOL0     H13269   1.771   8.007   9.767 -0.1994 -2.4314 -0.6293
  101MOL0     H13270   1.920   7.935   9.820  0.4227 -0.5241 -1.5637
  101MOL0     H13271   1.826   8.051  10.014 -0.5601  0.4468  1.5790
  101MOL0     H13272   1.823   7.868  10.037  0.4851  0.0942 -1.8421
  101MOL0     H13273   1.573   7.862  10.004  0.7018 -1.1101  0.3391
  101MOL0     H13274   1.582   8.031   9.964 -4.8210 -3.5162 -0.1875
  101MOL0     H13275   1.605   7.913  10.244 -0.1095 -2.9351 -2.9481
  101MOL0     H13276   1.724   8.034  10.203  0.6740 -2.1166  1.4916
  101MOL0     H13277   1.514   8.177  10.113 -0.2121  0.3809 -0.6271
  101MOL0     H13278   1.554   8.165  10.281  2.5926  0.5895 -1.1365
  101MOL0     H13279   1.326   8.013  10.152 -0.4161 -0.7666  0.4630
  101MOL0     H13280   1.321   8.157  10.259 -0.9277 -1.5809  2.5844
  101MOL0     H13281   1.256   7.930  10.338 -0.1833 -1.3296  1.5901
  101MOL0     H13282   1.417   7.870  10.346 -2.4085 -1.5652 -0.4831
  101MOL0     H13283   1.321   7.972  10.564 -2.0157 -0.0213 -0.9663
  101MOL0     H13284   1.333   8.130  10.497 -1.4154 -0.3367 -3.5362
  101MOL0     H13285   1.552   7.861  10.623  0.0592 -0.9493 -1.3134
  101MOL0     H13286   1.835   7.841  10.662 -1.3995 -0.7665 -2.1479
  101MOL0     H13287   1.900   7.996  10.716 -1.1679 -2.3131  2.2984
  101MOL0     H13288   1.988   8.044  10.484  2.5511 -0.9417  1.5344
  101MOL0     H13289   1.878   7.918  10.424 -1.5976  1.4821  0.3031
  101MOL0     H13290   2.096   7.863  10.608 -1.7567 -2.2801  0.6344
  101MOL0     H13291   2.005   7.750  10.502  1.1782 -0.6999  1.7617
  101MOL0     H13292   2.185   7.985  10.418  0.9128  0.1510 -1.5417
  101MOL0     H13293   2.101   7.870  10.310  0.2887 -2.9491  0.0238
  101MOL0     H13294   2.414   7.581  10.512 -0.4449  0.0286 -2.1680
  101MOL0     H13295   2.583   7.612  10.709 -2.1626 -0.3907  0.8984
  101MOL0     H13296   2.719   8.172  11.010  1.4560  2.2776  2.8691
  101MOL0     H13297   2.844   8.204  11.218 -1.7748  0.6143  0.9823
  101MOL0     H13298   3.043   7.868  11.342 -0.7122 -2.5082  1.7722
  101MOL0     H13299   2.943   7.841  11.486  2.1267  0.6324  2.7861
  101MOL0     H13300   3.164   7.887  11.549 -0.8558 -1.6043  0.4160
  101MOL0     H13301   3.057   7.984  11.616  3.5244 -0.4888  1.4914
  101MOL0     H13302   3.205   8.137  11.574 -0.2392  0.4991  0.6075
  101MOL0     H13303   3.119   8.161  11.418  0.3072  0.2652  2.3708
  101MOL0     H13304   3.355   8.178  11.411  0.3661 -0.3088 -1.2163
  101MOL0     H13305   3.365   8.029  11.503  0.1055  1.1268  1.3343
  101MOL0     H13306   3.280   8.110  11.220  0.3470  2.0449  4.4668
  101MOL0     H13307   3.249   7.937  11.271 -2.2034  0.8772 -0.7977
  101MOL0     H13308   3.499   7.912  11.315  2.1116  0.1134 -2.1723
  101MOL0     H13309   3.513   8.071  11.235  2.4625 -1.2802  0.2182
  101MOL0     H13310   3.440   7.797  11.139 -3.4421  0.8095  4.8319
  101MOL0     H13311   3.339   7.916  11.072 -0.7813  0.9369  3.6196
  101MOL0     H13312   3.647   7.926  11.050 -0.6168 -4.1140  0.9399
  101MOL0     H13313   3.537   8.024  10.948  1.4546 -1.1222 -3.3512
  101MOL0     H13314   2.787   7.791  11.313  0.2348 -0.7945 -1.0518
  101MOL0     H13315   2.659   7.758  11.127  1.9483 -1.4688  1.2935
  101MOL0     H13316   2.505   8.029  10.695  3.3984 -1.2531  0.2558
  101MOL0     H13317   2.337   8.000  10.527  1.8254  0.8055 -0.3213
  101MOL0     H13318   1.685   7.589   9.890 -1.5859 -0.9583 -3.3614
  101MOL0     H13319   1.816   7.375   9.844 -5.5108  2.3369  1.5520
  101MOL0     H13320   2.188   7.172   9.836  3.0083  0.2964 -0.2844
  101MOL0     H13321   2.287   6.957   9.849 -1.4618 -0.5874 -0.1040
  101MOL0     H13322   2.496   6.836   9.480  0.2762  2.5509  2.7943
  101MOL0     H13323   2.394   6.687   9.491 -2.0457  2.4932 -0.2057
  101MOL0     H13324   2.528   6.571   9.638  0.5002  0.0282 -1.0431
  101MOL0     H13325   2.626   6.628   9.499 -1.4099 -1.1041 -1.2153
  101MOL0     H13326   2.733   6.641   9.719 -0.6028  1.2721  2.5308
  101MOL0     H13327   2.623   6.758   9.776  2.1356 -1.4065  1.9011
  101MOL0     H13328   2.774   6.822   9.513  1.4225 -0.6970 -0.7384
  101MOL0     H13329   2.708   6.933   9.634 -2.2406 -1.6500 -1.3633
  101MOL0     H13330   3.075   6.907   9.805  1.9208  0.2818 -3.8194
  101MOL0     H13331   2.336   6.968   9.420  0.5953 -0.5872 -0.1763
  101MOL0     H13332   2.221   7.172   9.417 -0.5861  1.4720  0.5768
  102MOL0     O13333   1.810  10.667   4.846  0.1437  1.0273 -0.0265
  102MOL0     C13334   1.719  10.730   4.793  0.2690 -0.7338  0.3377
  102MOL0     O13335   1.654  10.694   4.676  0.7542 -0.6380 -0.5082
  102MOL0     C13336   1.669  10.563   4.643  0.4506 -0.0980  0.3918
  102MOL0     C13337   1.611  10.461   4.718 -0.3372  0.3594  0.3599
  102MOL0     C13338   1.641  10.329   4.688  1.0082 -0.0498 -0.2698
  102MOL0     C13339   1.701  10.289   4.569  0.2608  1.5655 -0.3525
  102MOL0     O13340   1.703  10.154   4.550 -0.6333 -0.8079  0.0249
  102MOL0     C13341   1.743  10.109   4.424 -0.1930 -0.3097 -0.1470
  102MOL0     C13342   1.634  10.121   4.315  0.6948 -0.3078  0.8713
  102MOL0     C13343   1.524  10.011   4.330 -1.1140 -0.2678  0.1973
  102MOL0     C13344   1.446   9.970   4.205 -0.4368 -0.7147  0.8669
  102MOL0     C13345   1.521   9.873   4.111 -0.1049  0.5507  0.5763
  102MOL0     C13346   1.543   9.734   4.173 -0.1050  0.3754  0.0081
  102MOL0     C13347   1.618   9.631   4.091 -0.1412 -0.2059  0.4644
  102MOL0     C13348   1.551   9.605   3.960 -0.6164 -0.1198  0.0317
  102MOL0     N13349   1.618   9.493   3.900 -0.1259  0.6247 -0.7602
  102MOL0     C13350   1.753   9.470   3.906  0.3026 -0.3332 -1.0147
  102MOL0     C13351   1.770   9.349   3.857  0.1216  0.0582 -0.0834
  102MOL0     C13352   1.907   9.288   3.852  0.2354 -0.4627 -1.2980
  102MOL0     C13353   1.972   9.252   3.995 -0.4276  0.9045 -0.7235
  102MOL0     C13354   1.920   9.137   4.071  0.6973 -0.1666 -0.2890
  102MOL0     C13355   2.022   9.082   4.172 -0.0572 -0.1011 -0.9060
  102MOL0     O13356   2.058   8.952   4.123  0.5785  0.9436 -0.3610
  102MOL0     C13357   1.963   8.849   4.144  0.7487 -0.0789 -0.2214
  102MOL0     C13358   1.862   8.840   4.233  0.5283  0.9744 -0.1985
  102MOL0     C13359   1.779   8.724   4.261  0.9345 -1.4670 -0.0830
  102MOL0     C13360   1.800   8.614   4.177 -0.0173 -0.7268  1.2213
  102MOL0     C13361   1.727   8.489   4.211  0.1672  0.4083 -0.1722
  102MOL0     O13362   1.729   8.406   4.107  0.0163  0.1745  0.4304
  102MOL0     C13363   1.680   8.272   4.099 -0.4710 -0.3960  0.2697
  102MOL0     C13364   1.677   8.183   4.215 -0.7743 -0.7329  0.4112
  102MOL0     C13365   1.631   8.050   4.193  0.8457 -1.5411 -0.6111
  102MOL0     C13366   1.605   8.001   4.071  0.3324  0.5048 -0.6809
  102MOL0     O13367   1.558   7.866   4.080  0.4797 -0.3434 -0.5546
  102MOL0     C13368   1.508   7.807   3.961  0.4761  0.2144  0.2031
  102MOL0     C13369   1.419   7.688   4.002  0.2382  0.3591  0.1815
  102MOL0     C13370   1.345   7.613   3.899  1.2157  0.0097  0.0987
  102MOL0     C13371   1.247   7.696   3.818 -0.3709  0.4209 -0.0208
  102MOL0     C13372   1.178   7.604   3.718 -0.6635 -0.4929 -0.7720
  102MOL0     C13373   1.259   7.589   3.583 -0.1569 -0.2550  0.4495
  102MOL0     C13374   1.200   7.486   3.485 -0.4581 -0.3757  1.0198
  102MOL0     C13375   1.061   7.526   3.440 -0.5015 -0.1230 -0.1868
  102MOL0    Cl13376   0.982   7.406   3.323  0.1013  0.3497  0.0359
  102MOL0     C13377   1.615   8.081   3.951 -0.1464  0.6849 -0.5127
  102MOL0     C13378   1.654   8.218   3.967  0.4597  0.7984  0.5214
  102MOL0     O13379   1.669   8.476   4.321  0.5149 -0.4508  0.3485
  102MOL0     C13380   1.889   8.631   4.068 -0.3947 -0.1418 -0.5198
  102MOL0     C13381   1.975   8.746   4.052  0.3011 -0.2421 -1.3606
  102MOL0     N13382   1.646   9.285   3.835 -0.2370 -0.6270  0.6901
  102MOL0     N13383   1.557   9.379   3.850 -0.1557 -0.4872  0.1342
  102MOL0     C13384   1.771  10.384   4.501 -0.1537 -0.5578  0.6852
  102MOL0     C13385   1.751  10.516   4.536 -0.3281 -1.0639  0.2997
  102MOL0     C13386   1.704  10.866   4.848  0.1193 -0.6923 -0.4585
  102MOL0     C13387   1.599  10.956   4.811 -0.2894 -0.6635  0.0052
  102MOL0     C13388   1.582  11.080   4.883  0.4366 -0.8384  0.6614
  102MOL0     C13389   1.662  11.102   4.996  0.2307 -0.3291  0.3137
  102MOL0     O13390   1.666  11.213   5.077  0.1051 -0.3451 -0.5784
  102MOL0     C13391   1.588  11.322   5.041 -0.1022 -0.9498 -0.1247
  102MOL0     C13392   1.642  11.459   5.085  1.2258 -0.7234 -0.6037
  102MOL0     C13393   1.537  11.574   5.077 -0.5607  0.2087 -0.0976
  102MOL0     C13394   1.587  11.698   5.150  0.0840 -0.3951 -0.9214
  102MOL0     C13395   1.503  11.809   5.088 -1.1984  0.0069 -0.3411
  102MOL0     C13396   1.437  11.887   5.021 -0.2878 -0.1091 -0.3923
  102MOL0     C13397   1.757  11.017   5.033 -0.0116  0.0103 -0.1430
  102MOL0     C13398   1.776  10.896   4.965 -0.6178 -0.5453  0.4164
  102MOL0     H13399   1.572  10.488   4.816 -1.5010 -3.9626  1.3042
  102MOL0     H13400   1.606  10.248   4.752  2.5286  1.0124  2.0202
  102MOL0     H13401   1.775  10.005   4.436 -0.5838 -0.2612  1.4890
  102MOL0     H13402   1.829  10.166   4.389  0.3571  0.5821  2.4432
  102MOL0     H13403   1.680  10.097   4.219  0.6390 -2.0361  1.2430
  102MOL0     H13404   1.585  10.219   4.309 -0.6771 -0.9746  0.7672
  102MOL0     H13405   1.448  10.045   4.401 -1.9350 -0.3543 -0.6169
  102MOL0     H13406   1.563   9.925   4.384 -0.2692 -0.0897 -0.1108
  102MOL0     H13407   1.357   9.917   4.238 -1.5145  1.1357  1.0974
  102MOL0     H13408   1.418  10.064   4.155  1.1337 -1.0179 -0.7125
  102MOL0     H13409   1.615   9.920   4.079 -1.4133  2.6834 -0.3901
  102MOL0     H13410   1.460   9.863   4.020  2.4514  0.7082 -1.2808
  102MOL0     H13411   1.452   9.688   4.211 -0.6872 -1.0315 -2.8220
  102MOL0     H13412   1.601   9.772   4.258 -3.1219  3.5342  0.9097
  102MOL0     H13413   1.721   9.665   4.076 -0.7363  2.1855  1.4259
  102MOL0     H13414   1.617   9.534   4.143 -1.3710 -0.2679  0.3505
  102MOL0     H13415   1.564   9.699   3.905 -0.0827  0.2494  0.7615
  102MOL0     H13416   1.444   9.587   3.970 -0.1068 -2.3167  3.1091
  102MOL0     H13417   1.829   9.543   3.932 -0.6695  1.7126 -3.4903
  102MOL0     H13418   1.963   9.366   3.799 -1.7071  1.8248 -0.1696
  102MOL0     H13419   1.912   9.201   3.786  0.1410  0.0206 -1.9517
  102MOL0     H13420   1.969   9.339   4.062 -1.5596  0.2741  0.0661
  102MOL0     H13421   2.081   9.241   3.988 -0.3197  1.0093  0.4810
  102MOL0     H13422   1.828   9.164   4.124 -0.0341 -0.0522 -1.5683
  102MOL0     H13423   1.896   9.052   4.007 -2.2446 -0.1678  0.6722
  102MOL0     H13424   1.979   9.069   4.272  0.0227  1.2787 -0.6700
  102MOL0     H13425   2.107   9.149   4.192  1.6982 -2.1177 -1.3451
  102MOL0     H13426   1.841   8.924   4.298 -1.7529  1.8525 -1.9492
  102MOL0     H13427   1.711   8.724   4.345  0.6707 -0.9073 -0.2879
  102MOL0     H13428   1.708   8.211   4.315  1.1033  1.5263 -0.7018
  102MOL0     H13429   1.642   7.990   4.283 -1.8976  1.4963  2.0423
  102MOL0     H13430   1.595   7.772   3.905  0.1622  0.4527 -0.4372
  102MOL0     H13431   1.454   7.884   3.905  2.6463  0.4832 -1.6976
  102MOL0     H13432   1.348   7.731   4.073 -0.3452  0.8724 -0.7010
  102MOL0     H13433   1.485   7.615   4.051 -0.3024 -0.6462 -0.5544
  102MOL0     H13434   1.285   7.538   3.952  1.1009  2.9317  4.7008
  102MOL0     H13435   1.421   7.568   3.835  1.8344 -0.7764  1.3447
  102MOL0     H13436   1.172   7.730   3.890 -2.7076 -2.6032 -0.8142
  102MOL0     H13437   1.289   7.780   3.761  1.6868 -0.4967  0.0864
  102MOL0     H13438   1.080   7.647   3.696 -0.5462 -0.6112 -1.5484
  102MOL0     H13439   1.161   7.501   3.751 -1.0623 -0.5516 -1.1536
  102MOL0     H13440   1.359   7.551   3.605 -0.0716 -0.1729  0.2070
  102MOL0     H13441   1.274   7.692   3.549  0.5036 -0.3637  0.3907
  102MOL0     H13442   1.273   7.499   3.405  1.2655  2.2052  2.8337
  102MOL0     H13443   1.208   7.385   3.527 -2.2528 -2.1291 -2.4437
  102MOL0     H13444   1.071   7.627   3.399 -1.6171  0.0166 -0.1352
  102MOL0     H13445   1.005   7.532   3.534  0.5099 -0.3734  0.4436
  102MOL0     H13446   1.599   8.048   3.849 -0.6637 -0.4827 -0.0631
  102MOL0     H13447   1.667   8.280   3.879  0.8750 -0.5819 -0.4162
  102MOL0     H13448   1.911   8.538   4.016 -0.1514 -2.1184  2.8512
  102MOL0     H13449   2.048   8.762   3.974 -1.1348  1.8140 -2.3855
  102MOL0     H13450   1.812  10.363   4.403 -0.1163  1.9303  0.0997
  102MOL0     H13451   1.805  10.587   4.475 -1.1925 -0.5525  0.1134
  102MOL0     H13452   1.533  10.930   4.729 -0.9469 -0.6589  0.5314
  102MOL0     H13453   1.510  11.152   4.845  2.8019  0.5914 -1.4224
  102MOL0     H13454   1.487  11.307   5.081 -0.7134  0.3100 -1.0791
  102MOL0     H13455   1.579  11.331   4.932  2.7064 -2.0572 -0.5260
  102MOL0     H13456   1.704  11.461   5.175  0.9815  0.0701 -0.4451
  102MOL0     H13457   1.709  11.484   5.002  0.4103  0.8947 -0.8241
  102MOL0     H13458   1.444  11.536   5.121  0.4720 -2.5681 -0.1448
  102MOL0     H13459   1.524  11.587   4.969 -1.7326 -3.1582 -0.4715
  102MOL0     H13460   1.576  11.692   5.259  0.9346  1.6965 -0.6641
  102MOL0     H13461   1.695  11.716   5.137 -0.2818  0.5460 -3.1015
  102MOL0     H13462   1.359  11.941   4.972 -3.3862 -2.0419  2.0073
  102MOL0     H13463   1.833  11.049   5.103 -0.6563  1.3577 -0.0353
  102MOL0     H13464   1.850  10.828   5.004 -1.1225 -1.7450 -0.6623
  103MOL0     O13465   9.201   9.767  10.941 -0.3226  0.6760  0.2220
  103MOL0     C13466   9.258   9.659  10.950 -0.4284  0.4331  0.5809
  103MOL0     O13467   9.390   9.641  10.955  0.0218 -0.3277 -0.5323
  103MOL0     C13468   9.472   9.744  10.979  0.5675 -0.7010 -0.0756
  103MOL0     C13469   9.544   9.804  10.879  0.0987 -0.8047  0.1107
  103MOL0     C13470   9.641   9.904  10.909  0.5662  0.6378  0.2665
  103MOL0     C13471   9.644   9.971  11.033 -0.0015  0.2452  0.1996
  103MOL0     O13472   9.726  10.065  11.086 -0.6716 -0.6156 -0.1215
  103MOL0     C13473   9.787  10.149  10.986  0.2143  0.8373  0.2343
  103MOL0     C13474   9.902  10.231  11.041 -0.6853 -0.2668 -0.0424
  103MOL0     C13475   9.837  10.322  11.155 -0.0701 -0.3221 -0.0027
  103MOL0     C13476   9.963  10.347  11.238 -0.3367 -0.3677 -0.3805
  103MOL0     C13477   9.920  10.452  11.340 -0.0691  0.2293  0.1542
  103MOL0     C13478  10.046  10.482  11.427  0.1058  0.0998  0.4828
  103MOL0     C13479  10.013  10.594  11.527  0.1266  0.1839  0.4282
  103MOL0     C13480  10.117  10.648  11.629  0.5062  0.1573  1.3663
  103MOL0     N13481  10.147  10.549  11.726 -0.0310  0.0771 -0.1620
  103MOL0     C13482  10.127  10.557  11.861 -0.3424  0.0989 -0.3990
  103MOL0     C13483  10.207  10.451  11.916 -0.2647  0.1667  1.1925
  103MOL0     C13484  10.214  10.426  12.067 -0.3233  0.5849 -1.0166
  103MOL0     C13485  10.127  10.308  12.112  0.3913 -1.1662  1.0553
  103MOL0     C13486  10.181  10.172  12.080  0.5898  0.5161 -0.4102
  103MOL0     C13487  10.318  10.141  12.150 -0.5617  0.6267 -0.0426
  103MOL0     O13488  10.314  10.165  12.298  0.0044  0.4622  1.0376
  103MOL0     C13489  10.221  10.082  12.355  0.5425  0.3479 -0.0766
  103MOL0     C13490  10.225   9.942  12.346  0.4857  0.0667 -0.2115
  103MOL0     C13491  10.134   9.863  12.409 -0.3256 -0.3107  0.6046
  103MOL0     C13492  10.027   9.906  12.486  0.4682 -0.4406 -0.3278
  103MOL0     C13493   9.934   9.815  12.554 -0.8915 -0.6877  0.4865
  103MOL0     O13494   9.821   9.880  12.596 -1.1633 -0.0102  0.4551
  103MOL0     C13495   9.747   9.813  12.685  0.7079  0.0665  0.1124
  103MOL0     C13496   9.622   9.748  12.663  0.0640 -0.8347  0.0679
  103MOL0     C13497   9.560   9.680  12.771  0.2800  0.3321 -0.0481
  103MOL0     C13498   9.594   9.686  12.909 -0.0679 -0.9930  0.9454
  103MOL0     O13499   9.524   9.641  13.016 -0.0360  0.0617 -0.3368
  103MOL0     C13500   9.386   9.623  13.005  0.6190 -0.0078  0.5884
  103MOL0     C13501   9.341   9.571  13.139  0.2581  0.4868 -0.0641
  103MOL0     C13502   9.392   9.434  13.171  1.0368 -1.4583  0.0789
  103MOL0     C13503   9.295   9.375  13.263 -0.9198 -0.7192  0.3081
  103MOL0     C13504   9.342   9.232  13.294  0.6449  0.0162 -0.3704
  103MOL0     C13505   9.256   9.156  13.396 -0.1254  0.0802 -0.4775
  103MOL0     C13506   9.250   9.228  13.533  0.1123 -0.0146  0.6512
  103MOL0     C13507   9.391   9.277  13.584  0.6983 -0.2407 -0.3532
  103MOL0    Cl13508   9.518   9.160  13.566  0.3880  0.4368  0.2852
  103MOL0     C13509   9.718   9.754  12.928  0.8256 -0.6432  0.4524
  103MOL0     C13510   9.790   9.816  12.819 -0.4225  0.0538 -0.7531
  103MOL0     O13511   9.964   9.701  12.574 -0.4821  0.2756 -0.4309
  103MOL0     C13512  10.017  10.043  12.501 -0.7078  0.0875  0.6689
  103MOL0     C13513  10.109  10.128  12.428 -0.6137  0.0058  0.1182
  103MOL0     N13514  10.279  10.391  11.819 -0.2989  0.1520 -0.8281
  103MOL0     N13515  10.239  10.444  11.712  0.0805 -0.0618  1.1941
  103MOL0     C13516   9.555   9.921  11.123  0.7093  0.0044 -0.0027
  103MOL0     C13517   9.459   9.818  11.098 -1.1757 -0.1003 -0.2569
  103MOL0     C13518   9.172   9.541  10.959 -0.4219 -0.9586  0.4020
  103MOL0     C13519   9.228   9.419  10.989  0.5430 -0.1484  0.3312
  103MOL0     C13520   9.146   9.307  11.012  0.1297  0.2179  0.7618
  103MOL0     C13521   9.005   9.320  10.993  0.8814 -0.1297  0.5192
  103MOL0     O13522   8.898   9.224  11.014 -0.6367 -0.9373  0.3485
  103MOL0     C13523   8.939   9.090  11.020  0.3934 -0.5646  0.4284
  103MOL0     C13524   8.820   8.994  11.025  0.2874 -0.1394 -0.4227
  103MOL0     C13525   8.712   9.038  11.124 -0.5102  0.4559 -0.0334
  103MOL0     C13526   8.596   8.938  11.115 -0.5213 -1.1994  0.0906
  103MOL0     C13527   8.510   8.948  11.233 -0.4263  0.4979 -0.0768
  103MOL0     C13528   8.437   8.957  11.327 -0.2829 -0.7197  0.1484
  103MOL0     C13529   8.957   9.443  10.953  0.5633  0.1277  0.0305
  103MOL0     C13530   9.035   9.554  10.950  0.5295 -0.5081  0.3299
  103MOL0     H13531   9.539   9.757  10.781  2.0173 -0.0001 -0.4171
  103MOL0     H13532   9.706   9.934  10.827 -0.5870 -2.5150 -2.0315
  103MOL0     H13533   9.720  10.222  10.939  1.4170  1.4496 -0.6095
  103MOL0     H13534   9.829  10.087  10.907  1.2673  1.2264  0.4678
  103MOL0     H13535   9.939  10.285  10.954 -1.5261  0.8981  0.2943
  103MOL0     H13536   9.992  10.181  11.078  0.0469 -0.5436 -2.0952
  103MOL0     H13537   9.759  10.275  11.216  0.3279 -0.1603  0.6310
  103MOL0     H13538   9.796  10.415  11.116  1.0643  0.3607  0.3710
  103MOL0     H13539   9.996  10.257  11.290  1.5171  1.7532  2.4080
  103MOL0     H13540  10.048  10.386  11.181  1.2414 -0.8670  1.5309
  103MOL0     H13541   9.834  10.415  11.396 -1.0466 -1.4537 -2.3219
  103MOL0     H13542   9.899  10.546  11.288  1.4150  0.8421  0.5893
  103MOL0     H13543  10.120  10.515  11.353 -1.6006  0.0805 -1.3099
  103MOL0     H13544  10.067  10.396  11.490 -2.4807 -1.5178 -0.6956
  103MOL0     H13545   9.982  10.683  11.471 -2.2669 -1.9690 -1.9732
  103MOL0     H13546   9.926  10.562  11.585 -0.4345 -1.7905 -1.3593
  103MOL0     H13547  10.071  10.738  11.672 -1.3088  0.0769 -0.2783
  103MOL0     H13548  10.203  10.690  11.577 -1.8514  0.9758 -2.1763
  103MOL0     H13549  10.058  10.623  11.911 -0.8983 -1.3425  0.8140
  103MOL0     H13550  10.183  10.519  12.115 -1.3504  0.1108 -0.7410
  103MOL0     H13551  10.318  10.402  12.094 -1.2096 -2.2304  0.2694
  103MOL0     H13552  10.030  10.314  12.061  1.4995 -0.5424 -1.0900
  103MOL0     H13553  10.097  10.315  12.217 -2.5445  0.0672  0.2562
  103MOL0     H13554  10.103  10.102  12.111 -0.4556  2.8679  2.7734
  103MOL0     H13555  10.198  10.162  11.972 -1.4354 -4.5770 -0.5353
  103MOL0     H13556  10.395  10.193  12.092  0.5167  1.3533  1.9174
  103MOL0     H13557  10.351  10.037  12.135  2.9564  1.5322  0.3737
  103MOL0     H13558  10.317   9.894  12.315  0.9773  0.0394  1.2199
  103MOL0     H13559  10.156   9.757  12.395 -2.0812 -0.7561  1.0205
  103MOL0     H13560   9.587   9.731  12.562  1.5788  1.0126 -0.8125
  103MOL0     H13561   9.478   9.614  12.745  1.2793 -0.9156 -0.1326
  103MOL0     H13562   9.365   9.543  12.933 -2.3681  2.3825 -1.4884
  103MOL0     H13563   9.324   9.711  12.985  1.1113 -0.0250 -1.2040
  103MOL0     H13564   9.232   9.569  13.128  0.2039 -1.1819  0.4150
  103MOL0     H13565   9.371   9.636  13.221 -0.9351  3.5670 -1.8718
  103MOL0     H13566   9.488   9.441  13.223  0.3410  2.0041  1.1621
  103MOL0     H13567   9.395   9.377  13.078 -1.5728  0.5685 -1.4037
  103MOL0     H13568   9.279   9.426  13.358  3.7091 -1.0917  1.5324
  103MOL0     H13569   9.208   9.360  13.197 -0.0863  2.1298 -1.6082
  103MOL0     H13570   9.447   9.245  13.320  0.2844  1.4088  0.4718
  103MOL0     H13571   9.346   9.173  13.202 -1.2891 -3.6021  1.6017
  103MOL0     H13572   9.311   9.062  13.405 -2.6635 -1.3000  4.3931
  103MOL0     H13573   9.155   9.128  13.367 -0.8614  0.7586  1.3028
  103MOL0     H13574   9.182   9.314  13.529 -0.9214 -0.5935  3.5272
  103MOL0     H13575   9.197   9.162  13.602 -2.5377  1.1926 -0.0964
  103MOL0     H13576   9.381   9.294  13.692 -1.6102  1.0639 -0.7154
  103MOL0     H13577   9.410   9.373  13.534 -2.7944  0.1372 -1.2023
  103MOL0     H13578   9.747   9.790  13.026  0.4306 -0.4685  0.5062
  103MOL0     H13579   9.869   9.887  12.845  0.6423 -1.2131 -0.4232
  103MOL0     H13580   9.946  10.095  12.564  1.1992  0.9029  2.2291
  103MOL0     H13581  10.084  10.233  12.432 -0.2779  0.0634  2.7190
  103MOL0     H13582   9.554   9.977  11.216  1.5502 -0.1353  0.0944
  103MOL0     H13583   9.382   9.778  11.164 -1.1064  1.3870  0.7555
  103MOL0     H13584   9.333   9.397  10.975 -0.1485 -4.5993  0.9153
  103MOL0     H13585   9.184   9.207  11.033  1.5404  0.6499  0.3534
  103MOL0     H13586   8.991   9.079  11.115 -0.3512 -0.6468  0.8288
  103MOL0     H13587   8.998   9.072  10.929 -1.2182 -2.5850 -0.2833
  103MOL0     H13588   8.782   8.990  10.922  2.5636  1.3812 -1.4226
  103MOL0     H13589   8.852   8.894  11.054 -0.6413  0.2065  1.9443
  103MOL0     H13590   8.695   9.145  11.111 -0.0950  0.3346 -1.8897
  103MOL0     H13591   8.763   9.032  11.221 -2.6083 -1.9871  1.0416
  103MOL0     H13592   8.528   8.956  11.031 -0.2820  3.3021  0.5664
  103MOL0     H13593   8.625   8.833  11.117 -1.2775 -1.4055  0.7038
  103MOL0     H13594   8.382   8.960  11.419  0.9028  3.0628  0.8804
  103MOL0     H13595   8.852   9.444  10.927  0.8150 -0.2946 -1.0534
  103MOL0     H13596   8.987   9.644  10.912 -1.0592 -1.1376  0.7563
  104MOL0     O13597   0.402   4.774   3.968  0.3498  0.5203  0.0227
  104MOL0     C13598   0.460   4.751   3.866 -0.8130 -1.0540  0.1519
  104MOL0     O13599   0.437   4.652   3.777 -0.1312  0.0699  0.4769
  104MOL0     C13600   0.314   4.603   3.789  0.1215 -0.3369 -0.4319
  104MOL0     C13601   0.225   4.665   3.712  0.7688 -0.2288 -0.2275
  104MOL0     C13602   0.093   4.636   3.714  0.2962  0.1530 -0.5276
  104MOL0     C13603   0.049   4.530   3.775  0.3267  0.5592  0.5080
  104MOL0     O13604  -0.079   4.506   3.748  0.6822  0.3632 -0.1664
  104MOL0     C13605  -0.161   4.441   3.843 -0.4201 -0.0934 -0.8311
  104MOL0     C13606  -0.309   4.498   3.821 -0.3368 -0.0514 -0.4540
  104MOL0     C13607  -0.388   4.452   3.702  0.8887 -0.4116  0.7543
  104MOL0     C13608  -0.537   4.507   3.697 -0.2919  0.1426 -0.2935
  104MOL0     C13609  -0.573   4.630   3.607  0.2492  0.2631  0.7486
  104MOL0     C13610  -0.560   4.602   3.465 -0.4874 -0.4531 -0.0042
  104MOL0     C13611  -0.573   4.725   3.374  0.2374 -0.4754 -0.1375
  104MOL0     C13612  -0.713   4.785   3.415  0.1882  0.7103 -0.1514
  104MOL0     N13613  -0.755   4.876   3.307 -0.3939 -0.4626 -0.0824
  104MOL0     C13614  -0.680   4.951   3.224 -0.3555  0.6497 -0.6757
  104MOL0     C13615  -0.770   5.015   3.135 -0.1658  0.1289 -0.3202
  104MOL0     C13616  -0.720   5.103   3.010  0.6616 -0.0510 -0.9102
  104MOL0     C13617  -0.832   5.165   2.919  0.2764  0.9095  0.5614
  104MOL0     C13618  -0.777   5.259   2.812  0.5086  0.2807 -0.3500
  104MOL0     C13619  -0.892   5.283   2.720  0.5389  0.6175 -0.0519
  104MOL0     O13620  -0.837   5.362   2.606  0.2194  0.6073  0.0919
  104MOL0     C13621  -0.773   5.288   2.509  0.4034 -0.6480  0.4150
  104MOL0     C13622  -0.749   5.154   2.505 -0.4209 -0.1084  0.0715
  104MOL0     C13623  -0.688   5.089   2.397 -0.3899 -0.5393 -0.3250
  104MOL0     C13624  -0.640   5.167   2.293 -0.3702  0.0105  0.4389
  104MOL0     C13625  -0.550   5.100   2.183 -0.1621 -0.0672  0.5370
  104MOL0     O13626  -0.495   5.177   2.081  0.3316  0.0934  0.0692
  104MOL0     C13627  -0.425   5.103   1.988  0.6103 -0.7254 -0.2460
  104MOL0     C13628  -0.297   5.048   2.012 -0.0520  0.3208 -0.6819
  104MOL0     C13629  -0.233   4.981   1.917 -0.8551 -0.2311 -0.3467
  104MOL0     C13630  -0.274   4.992   1.781  0.5242  0.1102 -0.1758
  104MOL0     O13631  -0.188   4.933   1.688  0.3569  0.1455 -0.1445
  104MOL0     C13632  -0.217   4.935   1.543 -0.0690 -0.4729  0.4234
  104MOL0     C13633  -0.102   4.875   1.460 -0.1790  0.5062  0.0302
  104MOL0     C13634  -0.138   4.850   1.312 -0.0929  0.7875  0.7688
  104MOL0     C13635  -0.167   4.694   1.276  0.2267  0.5027  0.8333
  104MOL0     C13636  -0.049   4.601   1.326 -0.3347  0.5000 -0.2065
  104MOL0     C13637  -0.092   4.509   1.450  0.2338  0.8506  0.0362
  104MOL0     C13638   0.023   4.438   1.511 -0.2805  0.1467 -0.4988
  104MOL0     C13639   0.109   4.357   1.415  0.1974 -0.5083  1.3319
  104MOL0    Cl13640   0.016   4.217   1.341 -0.2006 -0.5199 -0.0250
  104MOL0     C13641  -0.403   5.047   1.751  0.3670  0.1731 -0.4852
  104MOL0     C13642  -0.473   5.099   1.856 -0.8951 -0.9048 -0.6515
  104MOL0     O13643  -0.555   4.976   2.184 -0.4046 -0.0630 -0.6833
  104MOL0     C13644  -0.641   5.309   2.310 -0.4696  0.9652 -0.0098
  104MOL0     C13645  -0.716   5.373   2.406 -0.8382  1.0494 -0.2574
  104MOL0     N13646  -0.894   4.984   3.164  0.3179 -0.3197  0.1181
  104MOL0     N13647  -0.878   4.926   3.278  0.3080 -0.2648  0.1676
  104MOL0     C13648   0.138   4.454   3.852  0.7647 -0.5662  0.7162
  104MOL0     C13649   0.274   4.490   3.861  0.4001  0.2999  0.8286
  104MOL0     C13650   0.602   4.814   3.842  0.1760 -0.3401 -0.6444
  104MOL0     C13651   0.676   4.794   3.729  0.2736  0.3507 -0.2175
  104MOL0     C13652   0.812   4.821   3.728  0.8045 -0.8133  0.1946
  104MOL0     C13653   0.862   4.916   3.812 -1.3397  0.5711 -0.0990
  104MOL0     O13654   0.990   4.960   3.825 -0.5585  0.0728 -0.1780
  104MOL0     C13655   1.085   4.929   3.719 -0.5976 -1.2908  1.1233
  104MOL0     C13656   1.082   5.029   3.603  0.2373 -0.2119 -0.1119
  104MOL0     C13657   1.221   5.039   3.532 -0.3722  0.1304  0.8802
  104MOL0     C13658   1.229   5.159   3.441 -0.8962  0.0489 -0.2578
  104MOL0     C13659   1.361   5.184   3.382  0.4515 -0.0338  0.1973
  104MOL0     C13660   1.468   5.193   3.319  0.2848 -0.6451  1.1591
  104MOL0     C13661   0.775   4.974   3.912  0.4244  1.2499  0.1283
  104MOL0     C13662   0.649   4.915   3.933  0.1456 -1.0343 -0.7861
  104MOL0     H13663   0.249   4.766   3.679  2.6249 -0.4795  0.2510
  104MOL0     H13664   0.025   4.704   3.663 -1.1104 -0.4328  0.4885
  104MOL0     H13665  -0.121   4.456   3.944 -0.6240  1.0487 -0.9030
  104MOL0     H13666  -0.167   4.332   3.838 -0.0377 -0.1628  0.0572
  104MOL0     H13667  -0.304   4.606   3.808  0.7921 -0.0755 -0.3246
  104MOL0     H13668  -0.365   4.475   3.912  0.3728 -1.5499 -0.3500
  104MOL0     H13669  -0.396   4.345   3.721  1.4378 -0.4497  0.7791
  104MOL0     H13670  -0.330   4.474   3.612  0.1594 -2.6984 -0.3490
  104MOL0     H13671  -0.602   4.420   3.687  2.0140 -2.1316  2.4102
  104MOL0     H13672  -0.553   4.542   3.800 -1.2034 -0.5843 -0.1711
  104MOL0     H13673  -0.508   4.714   3.635  1.2622 -1.1099  2.6661
  104MOL0     H13674  -0.676   4.660   3.629  0.9378  2.2914  1.4225
  104MOL0     H13675  -0.619   4.515   3.436  1.4340 -0.4941 -4.7503
  104MOL0     H13676  -0.455   4.574   3.457 -0.2733 -0.4923  2.2811
  104MOL0     H13677  -0.498   4.802   3.393 -0.0972  0.1147 -1.1410
  104MOL0     H13678  -0.570   4.691   3.270 -0.2369 -0.2720 -0.2217
  104MOL0     H13679  -0.712   4.839   3.510 -0.1433  0.3016  0.0831
  104MOL0     H13680  -0.788   4.710   3.442 -0.7931  0.9571 -2.0395
  104MOL0     H13681  -0.571   4.948   3.223 -0.3334  1.2508 -1.2179
  104MOL0     H13682  -0.648   5.048   2.949 -0.6933 -2.5119 -0.4505
  104MOL0     H13683  -0.661   5.173   3.070  1.6843 -1.5080 -0.1398
  104MOL0     H13684  -0.905   5.221   2.979  2.4564 -0.6615  5.1478
  104MOL0     H13685  -0.881   5.085   2.864 -1.2575  0.5484  2.3473
  104MOL0     H13686  -0.751   5.358   2.851  0.8200  0.9539 -2.1792
  104MOL0     H13687  -0.687   5.216   2.767  0.8839  0.8506 -0.1554
  104MOL0     H13688  -0.965   5.346   2.773  1.4580  1.4105  0.3106
  104MOL0     H13689  -0.944   5.200   2.672  0.9338  0.6067 -0.4734
  104MOL0     H13690  -0.784   5.098   2.591  3.1733  0.4559  2.1310
  104MOL0     H13691  -0.679   4.982   2.413  0.0751 -0.5618 -0.7187
  104MOL0     H13692  -0.261   5.049   2.115  0.5065 -0.3082 -0.8640
  104MOL0     H13693  -0.139   4.927   1.925 -1.0085 -0.3602  0.6459
  104MOL0     H13694  -0.245   5.037   1.514 -2.4858 -1.4954 -1.2143
  104MOL0     H13695  -0.319   4.896   1.540 -0.9141  1.6287  0.0031
  104MOL0     H13696  -0.063   4.784   1.506 -2.3438 -0.5465 -0.1010
  104MOL0     H13697  -0.022   4.949   1.452  0.4809 -0.1150  0.6964
  104MOL0     H13698  -0.053   4.880   1.250  0.9719 -3.6402 -0.2644
  104MOL0     H13699  -0.221   4.907   1.271  0.4913  0.6568 -0.6440
  104MOL0     H13700  -0.263   4.655   1.310 -1.5437 -1.4132 -5.0422
  104MOL0     H13701  -0.160   4.683   1.167  3.0504 -1.7613  1.1392
  104MOL0     H13702   0.036   4.664   1.352  0.0022 -0.4657  1.1388
  104MOL0     H13703  -0.023   4.534   1.243 -2.1306 -2.4475  1.4584
  104MOL0     H13704  -0.162   4.436   1.409  0.8619  1.1669 -1.6898
  104MOL0     H13705  -0.153   4.570   1.517  0.2431  0.2493  0.5931
  104MOL0     H13706   0.086   4.514   1.559  1.4333  2.3771 -5.6129
  104MOL0     H13707  -0.011   4.363   1.583  0.7923 -1.4221 -1.5453
  104MOL0     H13708   0.199   4.319   1.464  1.5671  2.0664  0.9653
  104MOL0     H13709   0.140   4.424   1.334 -5.1248  0.5825 -0.1555
  104MOL0     H13710  -0.455   5.050   1.655 -0.2372  1.0374 -0.1404
  104MOL0     H13711  -0.567   5.152   1.843 -0.9762 -0.3806  1.6434
  104MOL0     H13712  -0.585   5.373   2.242  1.6074  0.7330  1.3967
  104MOL0     H13713  -0.724   5.481   2.415 -1.4999  0.8294  3.3277
  104MOL0     H13714   0.097   4.367   3.902  3.2349 -2.7531 -0.8570
  104MOL0     H13715   0.342   4.450   3.935 -0.3150 -4.0828 -0.5532
  104MOL0     H13716   0.632   4.741   3.645  2.9449 -1.0965 -0.8346
  104MOL0     H13717   0.864   4.800   3.635 -2.3306  0.7106 -2.1175
  104MOL0     H13718   1.087   4.826   3.682  3.6574 -1.4590  1.2728
  104MOL0     H13719   1.186   4.934   3.760  0.6412  4.8350 -1.5679
  104MOL0     H13720   1.000   4.994   3.539  1.1423 -0.2969 -1.2661
  104MOL0     H13721   1.057   5.125   3.647 -2.4083 -0.3969 -1.0438
  104MOL0     H13722   1.244   4.958   3.462 -2.0784  1.0918 -0.8743
  104MOL0     H13723   1.299   5.056   3.607 -0.9193  0.0310  1.4871
  104MOL0     H13724   1.166   5.135   3.355 -1.9814 -1.7216  0.9492
  104MOL0     H13725   1.202   5.253   3.489  1.9936  1.0593 -0.3979
  104MOL0     H13726   1.567   5.187   3.278  1.9706  0.6947  4.6951
  104MOL0     H13727   0.818   5.053   3.973  1.3016  1.4654 -0.7461
  104MOL0     H13728   0.591   4.938   4.022  0.7520 -3.0101  0.1809
  105MOL0     O13729   2.160   6.922   5.757 -0.0563 -0.7582  0.7440
  105MOL0     C13730   2.130   7.029   5.698  0.6823  1.7693  0.9319
  105MOL0     O13731   2.148   7.046   5.562  0.8848 -0.0529 -0.3152
  105MOL0     C13732   2.205   6.948   5.484 -0.4470 -0.2367 -0.0272
  105MOL0     C13733   2.139   6.829   5.459  0.9583  0.1312 -0.2588
  105MOL0     C13734   2.184   6.731   5.369 -0.1506  0.2152 -0.0550
  105MOL0     C13735   2.315   6.746   5.320  0.3615  0.0404  0.1121
  105MOL0     O13736   2.370   6.654   5.230 -1.0547  0.2851 -0.5239
  105MOL0     C13737   2.428   6.711   5.108  0.1328  0.6583  0.5600
  105MOL0     C13738   2.435   6.595   5.003 -0.8010 -0.2948 -0.2662
  105MOL0     C13739   2.291   6.552   4.947 -0.8807  0.4064 -0.2600
  105MOL0     C13740   2.212   6.449   5.034  0.0453  0.3232  0.3610
  105MOL0     C13741   2.144   6.350   4.939 -0.6792  0.5704  0.0427
  105MOL0     C13742   2.076   6.232   5.007  0.3611 -0.3637 -0.1433
  105MOL0     C13743   1.960   6.274   5.101 -0.1439  0.2816  0.4534
  105MOL0     C13744   1.872   6.168   5.158 -0.8545  0.2026  1.0192
  105MOL0     N13745   1.943   6.071   5.249  0.6161  0.5177  0.0934
  105MOL0     C13746   1.968   6.076   5.383  0.3660 -0.1875 -0.2380
  105MOL0     C13747   2.034   5.966   5.424 -0.3212 -0.2721 -0.2068
  105MOL0     C13748   2.092   5.956   5.568  0.3079  0.9666 -0.1240
  105MOL0     C13749   1.995   5.895   5.675  0.3659  0.6764  0.5773
  105MOL0     C13750   2.003   5.737   5.673 -0.4893 -0.2928 -0.0825
  105MOL0     C13751   1.883   5.663   5.709  1.0611 -0.4814  0.4312
  105MOL0     O13752   1.854   5.693   5.843  0.1372  0.5601 -0.1085
  105MOL0     C13753   1.750   5.635   5.910  0.3829  0.6063  0.0662
  105MOL0     C13754   1.703   5.691   6.025 -0.1436  0.0533 -0.5757
  105MOL0     C13755   1.585   5.633   6.085  1.2144 -0.1150 -0.8298
  105MOL0     C13756   1.536   5.503   6.044  0.3370 -0.3844  0.3530
  105MOL0     C13757   1.407   5.434   6.111 -0.0502 -0.6373  0.3332
  105MOL0     O13758   1.344   5.320   6.058 -0.6193  0.2705  0.6738
  105MOL0     C13759   1.248   5.253   6.134 -0.0906 -0.1620 -0.1610
  105MOL0     C13760   1.279   5.187   6.254 -0.0045  0.2758 -0.2650
  105MOL0     C13761   1.183   5.121   6.329  0.7447 -0.9813  0.3826
  105MOL0     C13762   1.055   5.116   6.286 -0.5554 -0.0555 -0.7479
  105MOL0     O13763   0.952   5.056   6.358  0.1618  0.1836  0.3101
  105MOL0     C13764   0.923   5.108   6.492 -0.0445 -0.3380  0.5899
  105MOL0     C13765   0.788   5.055   6.543 -0.1978  0.9950 -0.6145
  105MOL0     C13766   0.675   5.122   6.454 -0.1175  0.0906 -0.4789
  105MOL0     C13767   0.535   5.052   6.479  0.0059 -1.1320  0.1982
  105MOL0     C13768   0.408   5.126   6.429  0.1184 -0.9254 -0.2047
  105MOL0     C13769   0.404   5.141   6.283  0.2566 -0.0163 -0.5725
  105MOL0     C13770   0.266   5.192   6.241 -0.3353 -0.1886 -0.3825
  105MOL0     C13771   0.247   5.192   6.085 -0.5305 -0.0249  0.4323
  105MOL0    Cl13772   0.350   5.307   6.011 -0.1137 -0.3330  0.1484
  105MOL0     C13773   1.025   5.181   6.161  0.8234  0.4032  0.3879
  105MOL0     C13774   1.119   5.252   6.086  0.4630  1.2919 -0.7094
  105MOL0     O13775   1.366   5.500   6.206 -0.0113 -0.0124 -0.1106
  105MOL0     C13776   1.588   5.443   5.935 -0.1083 -0.2849 -0.3134
  105MOL0     C13777   1.688   5.504   5.867 -0.3625  0.3841 -0.4500
  105MOL0     N13778   2.058   5.899   5.305 -0.0948 -0.5005  0.2388
  105MOL0     N13779   1.996   5.953   5.203 -0.2542  0.3645  0.1662
  105MOL0     C13780   2.389   6.861   5.348  0.8958 -0.8887 -0.5418
  105MOL0     C13781   2.335   6.963   5.423  0.0532 -0.8135  0.1631
  105MOL0     C13782   2.075   7.135   5.786  0.2562  0.2125 -0.0803
  105MOL0     C13783   2.075   7.263   5.738  0.2638 -0.9147 -0.0468
  105MOL0     C13784   2.034   7.371   5.817  0.6257 -0.5929 -0.1421
  105MOL0     C13785   1.993   7.346   5.951 -0.0445 -0.7867 -0.2680
  105MOL0     O13786   1.951   7.440   6.029  0.7247 -0.7896 -0.1063
  105MOL0     C13787   1.827   7.499   5.992  0.2515  0.8486  0.3474
  105MOL0     C13788   1.709   7.402   6.038 -0.9129 -0.7851 -0.1943
  105MOL0     C13789   1.704   7.383   6.185 -0.3521  0.5020  0.3648
  105MOL0     C13790   1.607   7.273   6.240 -0.3582  0.0993 -0.4844
  105MOL0     C13791   1.639   7.136   6.198 -0.1473  0.5391 -0.2429
  105MOL0     C13792   1.662   7.024   6.152  0.2431 -0.7094 -0.0457
  105MOL0     C13793   1.984   7.217   5.990 -0.4393  0.3538  0.3065
  105MOL0     C13794   2.019   7.109   5.913 -0.4275  0.2084  0.0674
  105MOL0     H13795   2.045   6.812   5.511  1.9114  0.3343  1.6224
  105MOL0     H13796   2.116   6.654   5.335 -2.0921  1.4060  0.9727
  105MOL0     H13797   2.524   6.754   5.137 -0.2097  0.0564  2.7741
  105MOL0     H13798   2.373   6.793   5.060 -1.9305 -0.0506  1.5636
  105MOL0     H13799   2.489   6.517   5.057  1.3387  1.7861  0.7738
  105MOL0     H13800   2.495   6.631   4.920  0.0914 -0.9177  0.1035
  105MOL0     H13801   2.327   6.503   4.856  0.5709  0.6218  0.1809
  105MOL0     H13802   2.232   6.641   4.926  0.6561  1.3910 -0.5181
  105MOL0     H13803   2.289   6.404   5.097  0.5026 -0.2361 -0.5815
  105MOL0     H13804   2.142   6.499   5.102  0.4938  3.0440 -1.0189
  105MOL0     H13805   2.225   6.308   4.878  1.0712  2.8771  0.6436
  105MOL0     H13806   2.069   6.399   4.875 -3.2157  0.1940  2.5338
  105MOL0     H13807   2.158   6.182   5.059  0.0517 -0.3680  0.3495
  105MOL0     H13808   2.038   6.170   4.926 -0.3681  1.4188 -1.2194
  105MOL0     H13809   1.999   6.329   5.188  0.9598  0.5987 -0.2264
  105MOL0     H13810   1.891   6.339   5.048 -1.4834 -2.7928 -1.8935
  105MOL0     H13811   1.831   6.109   5.076 -0.9460 -1.2488  2.0635
  105MOL0     H13812   1.786   6.210   5.211 -0.1459  0.0935  2.2989
  105MOL0     H13813   1.946   6.161   5.447  1.0266 -1.3278  1.5769
  105MOL0     H13814   2.118   6.058   5.598 -2.3935  1.1016  2.1929
  105MOL0     H13815   2.187   5.902   5.565  0.7517  1.7706 -1.6695
  105MOL0     H13816   1.892   5.923   5.651 -0.0374 -0.8731  0.4044
  105MOL0     H13817   2.016   5.926   5.778  0.1090 -1.2427  1.2633
  105MOL0     H13818   2.039   5.714   5.572 -2.2522  0.5604 -0.9570
  105MOL0     H13819   2.082   5.710   5.743  0.3871  1.2228 -0.4486
  105MOL0     H13820   1.909   5.559   5.690 -0.8140 -0.8050 -0.6469
  105MOL0     H13821   1.796   5.682   5.645  2.2191  1.3526 -0.6916
  105MOL0     H13822   1.748   5.785   6.053 -2.1598  1.0322 -0.4483
  105MOL0     H13823   1.533   5.683   6.166  0.0683 -1.0448 -0.9581
  105MOL0     H13824   1.383   5.192   6.286  0.0459 -1.7132 -0.0100
  105MOL0     H13825   1.219   5.075   6.420 -0.6846 -0.8680  1.0195
  105MOL0     H13826   0.909   5.215   6.504 -0.1712 -0.2426 -0.3114
  105MOL0     H13827   0.995   5.073   6.567  2.3062  3.6270  0.4467
  105MOL0     H13828   0.769   5.091   6.644  1.1914 -0.0746  0.0527
  105MOL0     H13829   0.769   4.948   6.536 -1.3260  1.0640  0.9738
  105MOL0     H13830   0.701   5.129   6.348 -5.0621  1.2937 -1.9050
  105MOL0     H13831   0.651   5.219   6.497 -0.6170  0.0613 -0.6835
  105MOL0     H13832   0.533   4.950   6.439  2.2097 -0.7426 -1.1249
  105MOL0     H13833   0.519   5.048   6.587 -0.5370 -0.3535  0.1516
  105MOL0     H13834   0.420   5.227   6.469  0.1359 -0.9700 -0.0968
  105MOL0     H13835   0.321   5.079   6.474 -3.0789  2.6604 -2.0823
  105MOL0     H13836   0.423   5.041   6.242 -3.5057 -1.3429  0.5013
  105MOL0     H13837   0.487   5.206   6.256 -0.4639  1.9091  1.5281
  105MOL0     H13838   0.194   5.120   6.281 -1.4392  0.9390 -0.2384
  105MOL0     H13839   0.244   5.288   6.289 -0.5925 -1.9705  3.4428
  105MOL0     H13840   0.146   5.222   6.059 -1.3295  0.2593  3.4571
  105MOL0     H13841   0.270   5.094   6.043 -1.7737 -1.6090  3.1348
  105MOL0     H13842   0.922   5.173   6.129  0.4310  0.5689  1.5844
  105MOL0     H13843   1.095   5.295   5.989  1.1283 -0.4312 -1.6665
  105MOL0     H13844   1.540   5.352   5.903 -0.1305 -0.2126 -0.4848
  105MOL0     H13845   1.716   5.466   5.769  0.7661 -1.4454  0.5176
  105MOL0     H13846   2.482   6.895   5.305  1.3913 -1.3641  0.1299
  105MOL0     H13847   2.390   7.056   5.433  1.7747 -1.7637 -0.0916
  105MOL0     H13848   2.101   7.293   5.637  0.5235 -0.7700  0.0625
  105MOL0     H13849   2.027   7.471   5.776 -1.5874 -1.5036 -2.2681
  105MOL0     H13850   1.814   7.521   5.886 -1.8374  0.1404  0.4099
  105MOL0     H13851   1.824   7.599   6.036 -1.2471  1.0071 -0.0721
  105MOL0     H13852   1.613   7.449   6.012 -0.7444 -0.0825  0.4236
  105MOL0     H13853   1.713   7.306   5.985 -0.8880 -0.7639 -0.2313
  105MOL0     H13854   1.665   7.479   6.220 -1.3101  1.4297 -2.8733
  105MOL0     H13855   1.809   7.376   6.214  0.3375  3.6615 -0.8605
  105MOL0     H13856   1.628   7.281   6.348 -2.0253  0.6588 -0.1781
  105MOL0     H13857   1.505   7.304   6.219  0.2713  1.5790 -1.6060
  105MOL0     H13858   1.682   6.936   6.095  2.8534  0.9444 -1.9048
  105MOL0     H13859   1.942   7.201   6.089  2.8419  1.1106  1.9579
  105MOL0     H13860   2.000   7.008   5.948 -1.7182  0.0293 -1.0512
  106MOL0     O13861  10.184  11.094  10.403 -0.4535  0.2947 -0.6475
  106MOL0     C13862  10.228  11.075  10.292  0.1633 -0.9485 -0.0216
  106MOL0     O13863  10.260  11.178  10.207  0.9519 -0.2347 -0.2635
  106MOL0     C13864  10.257  11.313  10.241 -1.0470  1.2093  0.1899
  106MOL0     C13865  10.234  11.406  10.135  0.4292  0.9548  0.3750
  106MOL0     C13866  10.239  11.542  10.153  1.5311  0.3071  0.1326
  106MOL0     C13867  10.276  11.595  10.279  0.7317 -0.3681 -0.5218
  106MOL0     O13868  10.285  11.734  10.317 -0.3892  0.2920 -0.9299
  106MOL0     C13869  10.223  11.835  10.233 -0.5380  1.2267  0.2118
  106MOL0     C13870  10.209  11.968  10.309  0.7520 -0.2985 -0.5842
  106MOL0     C13871  10.125  12.068  10.235  0.7194 -0.3424  0.3749
  106MOL0     C13872  10.205  12.122  10.108 -0.1999  0.6774 -0.6737
  106MOL0     C13873  10.129  12.232  10.031  0.8328 -0.9057 -0.9330
  106MOL0     C13874  10.209  12.290   9.920  0.2261 -0.3638  0.1720
  106MOL0     C13875  10.164  12.427   9.867 -0.2788  0.8980  0.7899
  106MOL0     C13876  10.005  12.449   9.865 -0.4841  0.7365 -0.1941
  106MOL0     N13877   9.959  12.588   9.859  0.6542  0.6693 -0.2427
  106MOL0     C13878   9.997  12.681   9.765  0.4775  1.9541 -0.0647
  106MOL0     C13879   9.924  12.790   9.789  0.7777 -0.6580 -0.4834
  106MOL0     C13880   9.918  12.923   9.722 -0.6412 -0.2524  0.6897
  106MOL0     C13881   9.774  12.950   9.665  0.5346 -0.6719 -0.6053
  106MOL0     C13882   9.714  12.841   9.574 -0.3812  0.3583 -0.2708
  106MOL0     C13883   9.721  12.876   9.430 -0.6899 -0.1101  0.2795
  106MOL0     O13884   9.680  13.007   9.410  0.1587  0.8952 -0.3255
  106MOL0     C13885   9.719  13.069   9.305 -0.1158 -0.2040 -0.0217
  106MOL0     C13886   9.747  13.209   9.319 -0.1614  0.2449  0.2048
  106MOL0     C13887   9.806  13.277   9.207  0.3106  0.3035 -0.3308
  106MOL0     C13888   9.833  13.207   9.090 -0.4002 -0.3590 -0.3798
  106MOL0     C13889   9.888  13.294   8.975 -0.1167  0.4212 -0.3727
  106MOL0     O13890   9.910  13.222   8.864  1.0312  0.4315 -0.0525
  106MOL0     C13891   9.949  13.273   8.741  0.0622  1.0453 -0.8187
  106MOL0     C13892  10.079  13.337   8.718 -0.8859  0.5374 -0.9647
  106MOL0     C13893  10.114  13.387   8.592  0.2214  0.5161  0.5986
  106MOL0     C13894  10.022  13.378   8.487  1.2782 -0.0873  1.0226
  106MOL0     O13895  10.063  13.432   8.365  0.9971  0.0380 -0.7193
  106MOL0     C13896   9.956  13.441   8.263 -0.5336 -0.8460  0.5165
  106MOL0     C13897   9.940  13.310   8.182 -0.5637  0.0539  0.2560
  106MOL0     C13898   9.816  13.304   8.096 -0.7338 -0.1190 -0.9185
  106MOL0     C13899   9.779  13.426   8.011 -0.0664  1.3091 -0.9326
  106MOL0     C13900   9.883  13.466   7.919  0.3474 -0.3124 -0.0472
  106MOL0     C13901   9.921  13.353   7.817  0.3412  0.3722 -0.5310
  106MOL0     C13902   9.811  13.319   7.713 -0.7363  0.1412 -0.2028
  106MOL0     C13903   9.815  13.166   7.671  0.1359 -0.7464 -0.8367
  106MOL0    Cl13904   9.706  13.135   7.528 -0.0766 -0.8129 -0.1568
  106MOL0     C13905   9.896  13.319   8.513  0.0023  0.2607  0.9508
  106MOL0     C13906   9.866  13.266   8.639  0.2073 -0.1313 -0.0347
  106MOL0     O13907   9.919  13.413   8.988  0.1271  0.1433 -0.9474
  106MOL0     C13908   9.787  13.080   9.076 -0.5340  0.4133  0.6671
  106MOL0     C13909   9.735  13.009   9.180 -0.6110  0.6004  0.0478
  106MOL0     N13910   9.848  12.763   9.899  0.4273 -0.0820  0.4407
  106MOL0     N13911   9.856  12.638   9.929  0.8611  0.0692 -0.2837
  106MOL0     C13912  10.296  11.507  10.384 -0.1911 -0.2706 -0.1758
  106MOL0     C13913  10.284  11.375  10.360  0.0637 -0.0547 -1.2611
  106MOL0     C13914  10.243  10.937  10.247 -0.5725 -0.0579 -0.6896
  106MOL0     C13915  10.322  10.903  10.138 -1.0516 -0.1178 -0.2931
  106MOL0     C13916  10.356  10.771  10.111  0.0821  0.5308 -0.1227
  106MOL0     C13917  10.300  10.663  10.185 -0.4144 -0.4122  1.2220
  106MOL0     O13918  10.332  10.528  10.156 -0.4862 -0.3596 -0.6138
  106MOL0     C13919  10.421  10.493  10.050  0.5847  0.3372 -0.2598
  106MOL0     C13920  10.432  10.345  10.028 -0.4821  0.4611  0.0893
  106MOL0     C13921  10.537  10.271  10.113  1.0321  0.3859  0.4719
  106MOL0     C13922  10.545  10.125  10.074  1.6955  0.0973 -0.2614
  106MOL0     C13923  10.563  10.097   9.935  0.0247  0.9507  0.1215
  106MOL0     C13924  10.572  10.097   9.817  0.3851 -0.3736  0.4724
  106MOL0     C13925  10.213  10.696  10.286 -0.1000  1.1649 -0.7201
  106MOL0     C13926  10.187  10.828  10.320  0.0019  0.8618  0.6095
  106MOL0     H13927  10.220  11.365  10.035 -0.4057  0.8584  0.5281
  106MOL0     H13928  10.226  11.599  10.061 -0.0080  1.0077  0.7484
  106MOL0     H13929  10.127  11.795  10.199  0.4169 -0.1699 -0.9682
  106MOL0     H13930  10.286  11.848  10.145  2.5685 -3.6606  1.3090
  106MOL0     H13931  10.305  12.007  10.343 -0.1711  0.6645  1.0358
  106MOL0     H13932  10.144  11.922  10.383 -1.5304 -1.4773 -3.1578
  106MOL0     H13933  10.084  12.152  10.292  1.2410  0.0863  0.1372
  106MOL0     H13934  10.034  12.014  10.210 -0.2072  2.0904 -2.1508
  106MOL0     H13935  10.301  12.157  10.145  0.2878  0.3277 -1.5838
  106MOL0     H13936  10.243  12.042  10.044  2.6143 -0.6773  2.4026
  106MOL0     H13937  10.126  12.305  10.113  2.0483 -1.3351 -0.4816
  106MOL0     H13938  10.038  12.184   9.992  0.2534 -0.9977  0.4490
  106MOL0     H13939  10.201  12.237   9.824 -1.0362  2.3301 -1.3276
  106MOL0     H13940  10.315  12.297   9.947  1.0766 -0.2377 -2.7983
  106MOL0     H13941  10.219  12.492   9.935  2.6826  0.2394 -0.8104
  106MOL0     H13942  10.204  12.423   9.765 -2.0457 -1.1172  0.0838
  106MOL0     H13943   9.962  12.390   9.946  1.3502 -1.2477 -0.5792
  106MOL0     H13944   9.966  12.401   9.775 -1.5399 -0.2870  0.7783
  106MOL0     H13945  10.077  12.670   9.693  1.5544  1.7329  1.1422
  106MOL0     H13946   9.967  12.914   9.625  0.4758 -1.7576  1.3447
  106MOL0     H13947   9.978  13.001   9.770  3.8594 -0.5683 -3.6179
  106MOL0     H13948   9.771  13.052   9.625 -0.1554 -0.1064  0.8173
  106MOL0     H13949   9.720  12.935   9.758  2.8388 -0.6323  0.8180
  106MOL0     H13950   9.768  12.748   9.596 -2.1919 -0.4173  1.2640
  106MOL0     H13951   9.616  12.820   9.619  1.1873 -3.7683  1.7250
  106MOL0     H13952   9.662  12.801   9.377 -0.5725 -1.5216  2.0725
  106MOL0     H13953   9.825  12.869   9.397  0.0861  0.5596  2.3779
  106MOL0     H13954   9.719  13.258   9.413  0.3199 -1.5833  1.3482
  106MOL0     H13955   9.829  13.382   9.222 -0.1140  0.2454  0.7705
  106MOL0     H13956  10.161  13.343   8.789 -2.2483  2.5674  0.5510
  106MOL0     H13957  10.206  13.444   8.585 -0.4759  1.9015  2.1114
  106MOL0     H13958   9.981  13.520   8.192 -4.1222  0.1275  0.1274
  106MOL0     H13959   9.861  13.468   8.312  0.3712  1.5801  1.1150
  106MOL0     H13960   9.957  13.216   8.235  2.2150 -0.9358 -2.1232
  106MOL0     H13961  10.021  13.296   8.110 -2.4428 -1.8603 -1.6187
  106MOL0     H13962   9.727  13.286   8.158 -0.6824 -0.4385 -0.9354
  106MOL0     H13963   9.829  13.211   8.039 -2.1577 -0.7921 -0.2181
  106MOL0     H13964   9.686  13.413   7.955 -0.5193  0.0447  0.0725
  106MOL0     H13965   9.760  13.506   8.083  2.2430  1.0872  0.0168
  106MOL0     H13966   9.974  13.495   7.972 -1.5218  4.3183  1.1220
  106MOL0     H13967   9.863  13.558   7.862  1.1661 -0.4879 -0.6316
  106MOL0     H13968   9.977  13.268   7.857  4.6792  2.6628 -1.1277
  106MOL0     H13969  10.008  13.378   7.757  0.3954 -0.4790 -0.8197
  106MOL0     H13970   9.715  13.338   7.761 -0.2622 -0.6890  1.1560
  106MOL0     H13971   9.812  13.378   7.622 -0.8018 -0.3701 -0.5409
  106MOL0     H13972   9.780  13.111   7.759 -1.3619  0.0211 -0.9086
  106MOL0     H13973   9.916  13.131   7.650 -0.3278 -2.0374 -1.0132
  106MOL0     H13974   9.827  13.306   8.431 -0.9940  2.9719  1.2767
  106MOL0     H13975   9.765  13.227   8.650 -0.9434  1.8357 -2.4973
  106MOL0     H13976   9.799  13.024   8.984 -1.2894  1.7829 -0.2957
  106MOL0     H13977   9.711  12.903   9.179 -1.3261  0.7312  1.4655
  106MOL0     H13978  10.346  11.544  10.473  1.5825 -1.1519 -0.7480
  106MOL0     H13979  10.298  11.311  10.447 -1.6823 -0.1568 -1.0182
  106MOL0     H13980  10.372  10.975  10.073 -1.7506 -0.9607 -1.8030
  106MOL0     H13981  10.425  10.749  10.031 -0.7626 -0.4889 -0.5896
  106MOL0     H13982  10.525  10.526  10.064  0.1116  1.0486  2.1787
  106MOL0     H13983  10.390  10.532   9.952  1.0053 -0.6530 -0.7981
  106MOL0     H13984  10.337  10.291  10.036  0.6153 -1.7982 -1.2752
  106MOL0     H13985  10.441  10.341   9.919  1.6653  1.2514  0.1987
  106MOL0     H13986  10.518  10.272  10.220  1.8315  0.3307  0.6205
  106MOL0     H13987  10.638  10.311  10.097  0.5894  1.9617  1.5042
  106MOL0     H13988  10.630  10.092  10.135  1.7611 -0.5810 -0.7037
  106MOL0     H13989  10.453  10.072  10.098  1.5901 -0.5280 -1.9621
  106MOL0     H13990  10.566  10.116   9.712  0.3130  0.9820  0.7083
  106MOL0     H13991  10.169  10.610  10.336  5.4072 -0.4198  2.3174
  106MOL0     H13992  10.131  10.848  10.411  0.7440 -0.2452  1.3474
  107MOL0     O13993   5.437   8.894   6.707 -0.0726 -0.8179  0.6405
  107MOL0     C13994   5.496   9.003   6.715  0.5924 -0.1953  0.0206
  107MOL0     O13995   5.546   9.066   6.826 -0.2136 -0.0997 -0.2062
  107MOL0     C13996   5.511   9.026   6.953 -0.2542 -0.1752  0.1888
  107MOL0     C13997   5.378   9.038   6.987 -0.2310 -0.0525  1.2517
  107MOL0     C13998   5.326   8.990   7.102  0.0630  0.8920 -0.2058
  107MOL0     C13999   5.407   8.913   7.195  0.1382  0.5185  0.0661
  107MOL0     O14000   5.369   8.855   7.317  0.2307 -0.8070  0.1652
  107MOL0     C14001   5.270   8.928   7.396 -0.1749  1.3434  0.2254
  107MOL0     C14002   5.339   9.034   7.474 -0.0888  0.4753 -0.4378
  107MOL0     C14003   5.351   9.169   7.395  0.3248 -0.3287 -0.1693
  107MOL0     C14004   5.217   9.230   7.341 -0.0938  0.1344  0.4791
  107MOL0     C14005   5.232   9.383   7.301  0.8881  0.0057 -0.3947
  107MOL0     C14006   5.345   9.395   7.200 -0.0581  0.7703  0.3673
  107MOL0     C14007   5.318   9.527   7.122  0.8417  0.0783  0.1102
  107MOL0     C14008   5.384   9.655   7.172 -0.3709  0.1120 -0.4380
  107MOL0     N14009   5.354   9.777   7.082  0.1636  0.3713  0.5460
  107MOL0     C14010   5.407   9.799   6.962 -0.4458  1.2897  0.0717
  107MOL0     C14011   5.338   9.894   6.909  0.1215 -0.2201  1.9461
  107MOL0     C14012   5.366   9.933   6.759 -0.8251 -0.1768 -0.8373
  107MOL0     C14013   5.275  10.050   6.703 -0.2202  0.1541 -0.8621
  107MOL0     C14014   5.291  10.109   6.564 -0.5640  0.1146  1.5891
  107MOL0     C14015   5.437  10.134   6.521 -0.0274 -0.0331  1.0502
  107MOL0     O14016   5.495  10.014   6.469 -0.2590  0.1083  0.4688
  107MOL0     C14017   5.478   9.968   6.339  0.2651  0.2520 -0.2176
  107MOL0     C14018   5.436  10.046   6.238  0.0511 -0.2048  1.1348
  107MOL0     C14019   5.416   9.992   6.106 -0.0840  0.2665 -0.4554
  107MOL0     C14020   5.415   9.853   6.091 -0.6923  0.2958 -0.2542
  107MOL0     C14021   5.378   9.783   5.962 -0.0946 -0.5194  0.0286
  107MOL0     O14022   5.295   9.851   5.880  0.1853 -0.7098  1.0427
  107MOL0     C14023   5.226   9.764   5.799 -0.2916 -0.0888  0.4080
  107MOL0     C14024   5.275   9.722   5.672  0.5000 -0.5251 -0.9020
  107MOL0     C14025   5.216   9.624   5.597  0.3902 -0.2235 -0.0019
  107MOL0     C14026   5.099   9.572   5.650  0.6445  0.8637 -0.0210
  107MOL0     O14027   5.023   9.485   5.574 -0.3234 -0.8536 -0.5477
  107MOL0     C14028   5.088   9.386   5.504  0.2486  0.0206  0.6630
  107MOL0     C14029   4.987   9.296   5.441 -0.5293  0.0489  0.7882
  107MOL0     C14030   5.027   9.213   5.316 -1.0521  1.0615 -0.6281
  107MOL0     C14031   5.138   9.109   5.341 -0.0911 -0.2424 -0.3947
  107MOL0     C14032   5.123   8.995   5.239 -0.1514 -0.2659  0.5977
  107MOL0     C14033   5.225   8.882   5.246 -0.1632  0.0224  0.0880
  107MOL0     C14034   5.167   8.765   5.171  0.2263 -0.5840  1.4606
  107MOL0     C14035   5.283   8.690   5.108  0.2171  0.0615 -0.2792
  107MOL0    Cl14036   5.392   8.667   5.249 -0.4488  0.2684 -0.1422
  107MOL0     C14037   5.040   9.620   5.763 -0.5161 -0.4621 -0.2801
  107MOL0     C14038   5.095   9.724   5.834 -1.0969 -0.3039 -0.2068
  107MOL0     O14039   5.414   9.663   5.949 -0.1256 -0.4486 -0.3233
  107MOL0     C14040   5.457   9.776   6.194  0.3040 -0.4889 -0.4027
  107MOL0     C14041   5.483   9.838   6.318  0.8634  0.8874 -0.4771
  107MOL0     N14042   5.245   9.936   6.996  0.6742 -0.3620  1.1692
  107MOL0     N14043   5.255   9.860   7.097  0.6886 -0.1686  0.8932
  107MOL0     C14044   5.533   8.900   7.157 -0.3515 -0.1229  0.1648
  107MOL0     C14045   5.590   8.954   7.045  0.3263 -0.5021  0.6574
  107MOL0     C14046   5.532   9.063   6.582  0.7364  0.0126 -0.4538
  107MOL0     C14047   5.519   8.999   6.463 -0.1953 -0.5868 -0.0977
  107MOL0     C14048   5.585   9.049   6.345 -1.0358 -0.0753 -0.1736
  107MOL0     C14049   5.666   9.161   6.341 -0.2668 -0.5606 -0.3811
  107MOL0     O14050   5.740   9.207   6.236 -0.5742 -0.7792 -0.3227
  107MOL0     C14051   5.744   9.125   6.117 -0.4738  0.4411 -0.3082
  107MOL0     C14052   5.895   9.145   6.073  0.7549 -0.5768  0.3290
  107MOL0     C14053   5.907   9.099   5.934 -0.1828 -0.7482 -0.8391
  107MOL0     C14054   5.851   9.195   5.834  1.1586 -0.1034  0.8368
  107MOL0     C14055   5.834   9.133   5.701 -0.2027  0.3585 -0.8506
  107MOL0     C14056   5.815   9.093   5.593  0.4649  0.4485 -0.4442
  107MOL0     C14057   5.685   9.220   6.466  0.5069 -0.5403 -0.4864
  107MOL0     C14058   5.616   9.180   6.583  0.2642 -0.2905  0.0812
  107MOL0     H14059   5.312   9.073   6.908 -1.1010 -3.6586  0.1873
  107MOL0     H14060   5.221   9.008   7.126 -0.2108  1.9338 -1.9741
  107MOL0     H14061   5.242   8.865   7.482  3.7050  1.6039  1.8910
  107MOL0     H14062   5.177   8.948   7.342  0.5082 -0.0347 -1.5509
  107MOL0     H14063   5.439   8.999   7.501 -0.7956 -3.0360 -1.8987
  107MOL0     H14064   5.283   9.050   7.567 -1.3005  2.3438 -1.4226
  107MOL0     H14065   5.412   9.156   7.305 -1.2065 -1.4291 -1.1165
  107MOL0     H14066   5.402   9.240   7.460  1.1502 -1.1797  0.1396
  107MOL0     H14067   5.164   9.182   7.258 -1.7171 -1.6663  2.4403
  107MOL0     H14068   5.142   9.226   7.421  1.9076  1.1036  2.5072
  107MOL0     H14069   5.246   9.458   7.379 -1.5163  0.8259 -0.6655
  107MOL0     H14070   5.137   9.401   7.250  0.8223 -0.7121 -0.5373
  107MOL0     H14071   5.345   9.308   7.133  1.1936  0.8350  0.2602
  107MOL0     H14072   5.440   9.393   7.254 -0.5253  2.5574  1.3633
  107MOL0     H14073   5.358   9.506   7.022 -0.3695 -0.1477 -0.3575
  107MOL0     H14074   5.209   9.537   7.119  0.6441 -1.9041 -1.4378
  107MOL0     H14075   5.492   9.638   7.174 -0.5566 -1.1399  0.7058
  107MOL0     H14076   5.343   9.663   7.273 -2.6938 -3.0111 -0.9751
  107MOL0     H14077   5.486   9.741   6.915 -0.8291 -0.9190  1.9901
  107MOL0     H14078   5.361   9.837   6.707 -0.4714 -0.8156  0.2623
  107MOL0     H14079   5.471   9.964   6.753 -0.3839 -1.5626 -0.6177
  107MOL0     H14080   5.280  10.136   6.771  0.3538 -0.6847  0.1691
  107MOL0     H14081   5.175  10.007   6.712  0.3537 -0.8056  1.4083
  107MOL0     H14082   5.249  10.035   6.495  0.0403 -0.7618  2.1398
  107MOL0     H14083   5.231  10.200   6.553  0.9668  1.1130  1.2758
  107MOL0     H14084   5.497  10.171   6.605  4.1641 -2.7237 -0.4238
  107MOL0     H14085   5.447  10.220   6.455 -2.9516  0.3294  0.9607
  107MOL0     H14086   5.413  10.152   6.240 -1.0458 -0.3240 -1.3928
  107MOL0     H14087   5.396  10.053   6.018  1.4801 -0.6454 -1.4856
  107MOL0     H14088   5.374   9.758   5.646  0.3681  0.3776 -0.2072
  107MOL0     H14089   5.260   9.602   5.500 -0.2010 -1.5934  0.0065
  107MOL0     H14090   5.157   9.321   5.558  1.8758 -2.2385 -3.6440
  107MOL0     H14091   5.146   9.428   5.421  3.5657 -1.1072  2.2294
  107MOL0     H14092   4.896   9.351   5.415  0.1727  0.6887 -0.4282
  107MOL0     H14093   4.968   9.217   5.513  0.1565 -2.1738 -1.3250
  107MOL0     H14094   5.077   9.280   5.246 -0.6529  1.5285  0.0900
  107MOL0     H14095   4.937   9.158   5.288 -1.8452  2.1798 -0.3443
  107MOL0     H14096   5.237   9.153   5.327 -1.4713  3.3700  0.2606
  107MOL0     H14097   5.137   9.057   5.437 -3.5522  0.8338  0.2829
  107MOL0     H14098   5.122   9.028   5.135 -1.2365 -2.5796 -0.1916
  107MOL0     H14099   5.023   8.955   5.255 -1.2973  1.0907 -2.4742
  107MOL0     H14100   5.237   8.846   5.349 -1.3470  2.3252  1.0989
  107MOL0     H14101   5.318   8.922   5.205  0.2501  2.7132  3.2515
  107MOL0     H14102   5.111   8.696   5.235 -2.5251  1.5162  1.5607
  107MOL0     H14103   5.096   8.795   5.092  3.4851  1.1953 -1.0402
  107MOL0     H14104   5.335   8.735   5.023 -3.8290  1.7224 -2.1393
  107MOL0     H14105   5.244   8.590   5.086  1.5131 -1.0201  2.0031
  107MOL0     H14106   4.955   9.570   5.808  0.9928 -2.2033  0.8108
  107MOL0     H14107   5.045   9.760   5.924 -2.8341  1.4735 -1.7903
  107MOL0     H14108   5.466   9.668   6.188 -0.1149 -0.6086  0.7971
  107MOL0     H14109   5.515   9.781   6.405 -0.8222  1.6007  0.6816
  107MOL0     H14110   5.590   8.832   7.219  0.8550  1.0539  0.3880
  107MOL0     H14111   5.697   8.942   7.034  0.1344 -0.7111 -1.3838
  107MOL0     H14112   5.447   8.918   6.466 -3.6714  2.2390  1.6861
  107MOL0     H14113   5.569   8.994   6.252  1.0723 -0.7543 -0.1816
  107MOL0     H14114   5.657   9.147   6.054 -2.4106 -0.2486  1.9756
  107MOL0     H14115   5.733   9.020   6.147 -2.4924  0.6722 -0.0936
  107MOL0     H14116   5.926   9.249   6.083 -0.3885 -0.2743  0.8490
  107MOL0     H14117   5.960   9.080   6.134  1.0946 -0.0531  0.5351
  107MOL0     H14118   5.850   9.006   5.935 -4.1324  1.4517 -0.0941
  107MOL0     H14119   6.015   9.086   5.923  0.5128  4.1400 -2.2985
  107MOL0     H14120   5.750   9.226   5.865  0.1158 -0.3606 -1.9978
  107MOL0     H14121   5.926   9.271   5.813  1.7929 -0.4901  1.6519
  107MOL0     H14122   5.792   9.053   5.496  0.4794 -3.2413  0.8887
  107MOL0     H14123   5.763   9.295   6.476  0.9793 -1.1112  0.1732
  107MOL0     H14124   5.640   9.235   6.674  3.1205 -1.3503  0.0918
  108MOL0     O14125   2.438   2.679   6.538 -0.6233 -0.2500  0.6090
  108MOL0     C14126   2.467   2.561   6.547  0.4079  0.2947 -0.0897
  108MOL0     O14127   2.521   2.506   6.669 -0.7922 -0.3420 -0.2234
  108MOL0     C14128   2.553   2.604   6.757  0.1367 -0.1197 -0.2465
  108MOL0     C14129   2.669   2.674   6.743  0.4006  0.4119 -0.1852
  108MOL0     C14130   2.707   2.761   6.851  0.7515 -0.4051  0.6527
  108MOL0     C14131   2.627   2.774   6.966  1.1300 -0.3358  0.4273
  108MOL0     O14132   2.675   2.869   7.061 -0.5306  0.2890  0.7192
  108MOL0     C14133   2.664   2.831   7.203 -0.2620 -0.1287  2.1528
  108MOL0     C14134   2.710   2.949   7.284 -0.7096 -0.6613  1.2894
  108MOL0     C14135   2.837   2.923   7.356  0.4710 -1.0206 -0.7211
  108MOL0     C14136   2.957   2.875   7.280 -0.0654  0.8132  0.7948
  108MOL0     C14137   3.081   2.859   7.371  0.6780  0.7470 -0.3175
  108MOL0     C14138   3.125   2.985   7.449 -0.1959 -0.1641 -0.6507
  108MOL0     C14139   3.181   3.098   7.353  0.4875  0.7318 -0.2149
  108MOL0     C14140   3.313   3.043   7.286 -0.3207 -0.1524  0.4688
  108MOL0     N14141   3.367   3.158   7.218 -0.3618  0.0296  0.7318
  108MOL0     C14142   3.340   3.196   7.088  0.5140 -0.7949  0.2217
  108MOL0     C14143   3.412   3.309   7.063 -0.0945 -0.5459  0.7698
  108MOL0     C14144   3.424   3.384   6.935  0.3387 -0.8101 -0.6359
  108MOL0     C14145   3.532   3.307   6.843  0.0869 -0.2262 -0.5080
  108MOL0     C14146   3.565   3.399   6.729  0.6472  0.5003 -0.6542
  108MOL0     C14147   3.618   3.318   6.615 -0.9729  0.3975 -0.3234
  108MOL0     O14148   3.742   3.248   6.636 -0.0536 -0.1010 -0.6102
  108MOL0     C14149   3.811   3.193   6.529  0.4165 -0.5764 -0.1317
  108MOL0     C14150   3.765   3.199   6.400 -1.0429 -0.2124  1.2395
  108MOL0     C14151   3.840   3.149   6.292  1.1848  0.8005  0.0053
  108MOL0     C14152   3.960   3.079   6.315 -0.3364  0.1453 -1.0574
  108MOL0     C14153   4.039   3.013   6.206 -0.2796  0.7047 -0.1906
  108MOL0     O14154   3.970   3.001   6.082  0.6512  0.0731 -0.0451
  108MOL0     C14155   4.012   2.926   5.978 -0.0004 -0.0647 -0.1075
  108MOL0     C14156   3.900   2.911   5.893  0.2667 -0.0176 -0.0399
  108MOL0     C14157   3.906   2.828   5.777  0.7394 -0.3065 -0.1443
  108MOL0     C14158   4.026   2.754   5.757  0.5077  0.9600 -0.6657
  108MOL0     O14159   4.034   2.669   5.653  0.4592  0.4033 -1.0435
  108MOL0     C14160   4.143   2.691   5.563 -0.1655  0.0535  0.6655
  108MOL0     C14161   4.089   2.781   5.439 -0.4352  0.4184  0.5412
  108MOL0     C14162   4.202   2.780   5.332 -0.6243  0.4133 -0.1202
  108MOL0     C14163   4.174   2.883   5.217  1.3073  0.1365  0.5857
  108MOL0     C14164   4.257   2.848   5.098 -0.3610  0.4600 -0.0617
  108MOL0     C14165   4.175   2.874   4.969  0.4238  0.4483 -0.8989
  108MOL0     C14166   4.157   3.016   4.947  0.5945 -0.8138 -0.1881
  108MOL0     C14167   4.088   3.049   4.814  0.1112 -0.8419 -0.2477
  108MOL0    Cl14168   4.061   3.224   4.792 -0.4205  0.2176 -0.2112
  108MOL0     C14169   4.140   2.768   5.846 -0.0705 -0.0880  0.2024
  108MOL0     C14170   4.131   2.855   5.959  0.4926  0.1573 -0.0584
  108MOL0     O14171   4.147   2.960   6.242  0.9804  0.1269 -0.5859
  108MOL0     C14172   4.006   3.080   6.449 -0.1518 -0.4275  0.1022
  108MOL0     C14173   3.934   3.134   6.555  0.0213 -0.3331  0.0539
  108MOL0     N14174   3.482   3.331   7.179 -0.0838 -0.3193  0.6341
  108MOL0     N14175   3.463   3.240   7.262  0.3640  0.4362  0.4170
  108MOL0     C14176   2.505   2.715   6.969 -0.8615 -1.0289 -1.1563
  108MOL0     C14177   2.474   2.628   6.867 -0.7202  0.8553  0.3146
  108MOL0     C14178   2.447   2.479   6.423  0.2511 -0.6573  0.0204
  108MOL0     C14179   2.419   2.546   6.303  0.2856 -0.9058  0.6244
  108MOL0     C14180   2.416   2.465   6.185  0.3517 -0.8485  0.0019
  108MOL0     C14181   2.409   2.330   6.202 -0.9887 -0.3366  0.8603
  108MOL0     O14182   2.398   2.243   6.093  0.0134 -0.1177  0.3306
  108MOL0     C14183   2.365   2.306   5.970  0.3018  0.9891  0.3907
  108MOL0     C14184   2.325   2.204   5.875 -0.0678  0.0772 -0.1539
  108MOL0     C14185   2.293   2.266   5.737 -0.2837 -0.1819  0.9206
  108MOL0     C14186   2.220   2.164   5.641  0.2016  0.1170 -0.4992
  108MOL0     C14187   2.320   2.063   5.607 -0.2848 -0.9470  0.5211
  108MOL0     C14188   2.419   1.992   5.600 -0.5127  0.0138  0.3665
  108MOL0     C14189   2.451   2.264   6.322 -0.0648  0.3793 -0.1678
  108MOL0     C14190   2.466   2.345   6.434 -0.6906  0.1219 -0.7670
  108MOL0     H14191   2.727   2.669   6.651  3.2853 -2.2233  1.5824
  108MOL0     H14192   2.801   2.816   6.840  0.2792 -0.0561 -3.0363
  108MOL0     H14193   2.723   2.741   7.223 -2.2686 -2.3794 -1.0927
  108MOL0     H14194   2.557   2.816   7.218 -0.0726 -3.1476  1.2204
  108MOL0     H14195   2.636   2.975   7.360  0.3721  3.1645  1.2114
  108MOL0     H14196   2.727   3.029   7.211 -1.3296 -1.0928  0.6623
  108MOL0     H14197   2.825   2.849   7.436 -0.4964  0.6912  0.8124
  108MOL0     H14198   2.848   3.020   7.406 -2.1623 -1.4118  0.8223
  108MOL0     H14199   2.934   2.774   7.248 -1.8688  0.9298  1.5660
  108MOL0     H14200   2.975   2.930   7.188  1.9804 -5.1823 -2.9374
  108MOL0     H14201   3.165   2.819   7.313  1.9549  1.8059  0.7282
  108MOL0     H14202   3.050   2.790   7.451  0.6214  1.3307  0.1739
  108MOL0     H14203   3.199   2.953   7.524 -1.8657 -0.2117  1.0511
  108MOL0     H14204   3.042   3.017   7.513 -0.4146  0.1689 -1.0988
  108MOL0     H14205   3.107   3.108   7.274  0.1242 -2.3818 -0.3836
  108MOL0     H14206   3.191   3.194   7.404  0.6223  0.6446 -0.0739
  108MOL0     H14207   3.296   2.965   7.210 -0.4256 -0.9052  1.2523
  108MOL0     H14208   3.396   3.011   7.349 -0.0143  0.9190  0.6325
  108MOL0     H14209   3.272   3.145   7.020 -0.1099 -1.9995  1.6792
  108MOL0     H14210   3.453   3.487   6.957 -0.3683 -0.8941  0.7434
  108MOL0     H14211   3.328   3.387   6.883  1.8375 -0.9311 -3.6922
  108MOL0     H14212   3.486   3.214   6.808  2.0794 -0.4197 -2.9873
  108MOL0     H14213   3.621   3.289   6.904 -0.8807 -0.0610  0.9846
  108MOL0     H14214   3.482   3.460   6.691  1.2897 -0.7247 -4.3935
  108MOL0     H14215   3.633   3.475   6.769  1.0604 -0.3998  0.4108
  108MOL0     H14216   3.632   3.402   6.546 -0.2624  0.7982  0.3049
  108MOL0     H14217   3.537   3.251   6.583 -0.9123 -0.1224  0.5787
  108MOL0     H14218   3.678   3.253   6.364 -0.5899 -0.3398 -0.1171
  108MOL0     H14219   3.804   3.156   6.190  1.8090 -0.4297 -0.3124
  108MOL0     H14220   3.808   2.967   5.909  2.6612  4.2094  0.4313
  108MOL0     H14221   3.824   2.838   5.707  0.3434  1.8094  0.5657
  108MOL0     H14222   4.171   2.594   5.521 -2.0018 -1.7398  3.2490
  108MOL0     H14223   4.235   2.727   5.612 -1.1023 -0.2846  2.7833
  108MOL0     H14224   4.066   2.884   5.469 -0.6374 -0.0876  2.2901
  108MOL0     H14225   3.996   2.738   5.400 -0.4547 -0.4507  1.4917
  108MOL0     H14226   4.218   2.679   5.293  1.5728  1.2615 -1.6343
  108MOL0     H14227   4.287   2.807   5.395 -0.2956  1.4760 -0.9626
  108MOL0     H14228   4.069   2.875   5.189  1.2112  2.6665 -0.0243
  108MOL0     H14229   4.195   2.989   5.233  0.1908  0.4720 -0.1074
  108MOL0     H14230   4.307   2.751   5.109  0.9527  1.1903  0.7688
  108MOL0     H14231   4.343   2.914   5.082 -0.9785  0.7624 -2.5252
  108MOL0     H14232   4.081   2.819   4.967 -1.5205  3.5106 -0.7970
  108MOL0     H14233   4.229   2.843   4.879  0.3137  2.6404 -1.7774
  108MOL0     H14234   4.102   3.063   5.029  0.5116  0.8185 -1.1222
  108MOL0     H14235   4.255   3.064   4.945  0.0198  0.4162  0.3767
  108MOL0     H14236   3.999   2.987   4.796  0.8114 -1.2831 -2.5790
  108MOL0     H14237   4.153   3.035   4.727  0.3282  2.3020 -0.7094
  108MOL0     H14238   4.226   2.702   5.834  1.0649  0.9203  2.2942
  108MOL0     H14239   4.212   2.856   6.030  2.0088 -0.4925 -1.6951
  108MOL0     H14240   4.103   3.033   6.463 -0.2235 -0.9217 -0.9566
  108MOL0     H14241   3.974   3.129   6.655 -1.0041  0.9857  0.5677
  108MOL0     H14242   2.433   2.716   7.050  2.8451 -1.2205  2.5325
  108MOL0     H14243   2.382   2.570   6.868 -1.4636  1.9848  0.0608
  108MOL0     H14244   2.405   2.652   6.288  0.7156 -0.9679 -0.2255
  108MOL0     H14245   2.391   2.509   6.090 -1.2475 -1.5173  0.0912
  108MOL0     H14246   2.461   2.350   5.941  0.2059  1.7384  1.1772
  108MOL0     H14247   2.286   2.380   5.980 -0.8050  0.5333 -3.2873
  108MOL0     H14248   2.414   2.143   5.858 -1.0350 -1.4055 -0.0587
  108MOL0     H14249   2.242   2.144   5.913 -1.2720  1.3193 -0.7369
  108MOL0     H14250   2.382   2.307   5.688 -2.0298  0.0598 -2.3580
  108MOL0     H14251   2.225   2.348   5.765  0.8711 -0.2758  4.5401
  108MOL0     H14252   2.131   2.120   5.687 -1.5642  0.0053 -3.7867
  108MOL0     H14253   2.177   2.211   5.552 -2.7426 -0.5150  0.4748
  108MOL0     H14254   2.509   1.935   5.594 -1.5644 -1.8784  1.4745
  108MOL0     H14255   2.476   2.158   6.328 -0.7313  0.2752  1.1366
  108MOL0     H14256   2.478   2.292   6.528 -1.8549 -0.6971 -1.0595
  109MOL0     O14257   8.357   6.008   6.524  0.2898  0.1138 -0.4660
  109MOL0     C14258   8.355   5.926   6.613 -0.5049  0.1926 -0.2843
  109MOL0     O14259   8.338   5.793   6.588  0.6691 -0.4842 -0.2438
  109MOL0     C14260   8.317   5.757   6.453 -0.4736 -0.1337  0.2797
  109MOL0     C14261   8.421   5.710   6.370 -0.0506 -0.7309 -0.8055
  109MOL0     C14262   8.395   5.665   6.241 -0.6872  0.8308 -0.0282
  109MOL0     C14263   8.271   5.680   6.183  0.4438 -0.0575  0.2123
  109MOL0     O14264   8.237   5.644   6.052 -0.8150 -0.2625 -0.0982
  109MOL0     C14265   8.360   5.609   5.972  0.3145  0.2034  0.4032
  109MOL0     C14266   8.308   5.582   5.833  0.5172  0.1354  0.3716
  109MOL0     C14267   8.287   5.707   5.751 -0.3339 -1.2928  0.2321
  109MOL0     C14268   8.225   5.665   5.618 -0.0482 -0.3837  0.7497
  109MOL0     C14269   8.176   5.792   5.546  0.2225 -0.4460  0.7777
  109MOL0     C14270   8.114   5.760   5.404  0.5459  0.2300 -0.9622
  109MOL0     C14271   8.057   5.892   5.354 -0.0851  0.2804 -1.2015
  109MOL0     C14272   7.979   5.889   5.218  0.2814  0.0040  0.2133
  109MOL0     N14273   7.845   5.825   5.243  0.8870 -0.1716 -1.3931
  109MOL0     C14274   7.823   5.691   5.235  0.4592 -0.3791 -0.1092
  109MOL0     C14275   7.695   5.670   5.248  0.3672  0.8095 -0.2530
  109MOL0     C14276   7.634   5.538   5.227 -0.2441  0.0897  0.5071
  109MOL0     C14277   7.618   5.491   5.086 -0.5182  0.5686  0.0123
  109MOL0     C14278   7.756   5.467   5.021  0.7645  0.2283 -0.1781
  109MOL0     C14279   7.739   5.365   4.915 -0.3895  1.2610  0.0643
  109MOL0     O14280   7.662   5.420   4.808  0.1176 -0.8619  0.0587
  109MOL0     C14281   7.635   5.335   4.703  0.2412 -0.2778 -0.0027
  109MOL0     C14282   7.674   5.200   4.698  0.5185  0.3416 -0.3499
  109MOL0     C14283   7.646   5.126   4.584  0.1285  0.2194 -0.0637
  109MOL0     C14284   7.576   5.176   4.481  0.2486 -0.2631  0.7123
  109MOL0     C14285   7.546   5.105   4.353  1.5661 -0.0059 -0.3382
  109MOL0     O14286   7.468   5.171   4.268 -0.4785 -0.0651 -0.2709
  109MOL0     C14287   7.409   5.102   4.164  1.0313  0.6222  0.2850
  109MOL0     C14288   7.446   5.124   4.032 -0.1437 -0.1964 -0.9597
  109MOL0     C14289   7.392   5.061   3.923 -0.0685  0.3287 -0.1210
  109MOL0     C14290   7.300   4.959   3.945  0.3721 -0.1527 -0.3765
  109MOL0     O14291   7.239   4.881   3.850 -0.5936  0.6849  0.0545
  109MOL0     C14292   7.275   4.895   3.709 -0.1233  0.3660  0.3017
  109MOL0     C14293   7.218   4.768   3.626  0.1170 -0.1500 -0.7315
  109MOL0     C14294   7.276   4.632   3.683  0.2413 -0.0816  0.5673
  109MOL0     C14295   7.258   4.507   3.585 -0.2899 -1.1694 -0.2459
  109MOL0     C14296   7.352   4.394   3.619 -0.7309  0.1637  1.3947
  109MOL0     C14297   7.314   4.314   3.745  0.3141 -1.0222 -0.3665
  109MOL0     C14298   7.166   4.301   3.784 -0.6116  0.3523 -0.1301
  109MOL0     C14299   7.154   4.197   3.902 -0.6553  0.1313  0.5264
  109MOL0    Cl14300   7.206   4.259   4.046 -0.5854  0.4894 -0.2483
  109MOL0     C14301   7.268   4.930   4.077 -0.7038  0.4374  0.3748
  109MOL0     C14302   7.325   4.993   4.186 -0.1505 -0.3843 -0.3085
  109MOL0     O14303   7.589   4.989   4.345  0.0975  0.1178  0.5576
  109MOL0     C14304   7.550   5.319   4.478 -0.3036  0.7118 -0.0919
  109MOL0     C14305   7.582   5.399   4.594 -0.8076  0.0487  0.1683
  109MOL0     N14306   7.633   5.791   5.286 -0.0427  0.1355  0.2687
  109MOL0     N14307   7.722   5.884   5.283 -1.0341  0.7496  0.0978
  109MOL0     C14308   8.161   5.725   6.264 -1.1991  0.2172  0.5833
  109MOL0     C14309   8.193   5.761   6.395 -0.1854 -0.4062  0.6799
  109MOL0     C14310   8.357   5.976   6.760  0.7850  0.8634  0.2040
  109MOL0     C14311   8.373   5.885   6.857  0.8630  0.2005 -1.1022
  109MOL0     C14312   8.400   5.921   6.995  0.3252  0.1414 -0.3118
  109MOL0     C14313   8.398   6.051   7.028  0.5809 -0.7773  0.9348
  109MOL0     O14314   8.449   6.077   7.145  0.5220  0.8637  0.3624
  109MOL0     C14315   8.398   6.183   7.220  1.1495  0.1206  0.0789
  109MOL0     C14316   8.285   6.127   7.309 -0.2160  0.1332 -1.0862
  109MOL0     C14317   8.359   6.048   7.426  0.0781  0.5306 -0.4625
  109MOL0     C14318   8.363   6.123   7.560  0.2043  0.1831  0.4628
  109MOL0     C14319   8.379   6.017   7.665 -0.4862 -0.8373 -0.0893
  109MOL0     C14320   8.381   5.938   7.760 -0.7072 -1.1289 -0.0704
  109MOL0     C14321   8.369   6.148   6.929 -0.0344  0.1833 -0.1974
  109MOL0     C14322   8.352   6.113   6.797 -0.4555  0.4072  0.4201
  109MOL0     H14323   8.525   5.696   6.400 -0.6861  0.4053  2.2922
  109MOL0     H14324   8.477   5.611   6.196 -1.7564 -1.9465  1.1407
  109MOL0     H14325   8.398   5.517   6.017  0.6755  0.0475 -0.2091
  109MOL0     H14326   8.443   5.681   5.972  1.2900 -0.8559 -0.9126
  109MOL0     H14327   8.214   5.526   5.833  1.3825 -2.2325 -6.4453
  109MOL0     H14328   8.382   5.517   5.785 -2.9449 -2.4085 -1.9662
  109MOL0     H14329   8.379   5.756   5.719 -0.8686  1.3530  2.4168
  109MOL0     H14330   8.228   5.782   5.805 -1.0228 -1.4382 -0.3016
  109MOL0     H14331   8.294   5.605   5.558  0.3744 -0.2368  1.0842
  109MOL0     H14332   8.131   5.610   5.631  0.7172 -2.7599 -2.5115
  109MOL0     H14333   8.261   5.860   5.536  0.3490 -0.8649 -1.4165
  109MOL0     H14334   8.101   5.842   5.608  1.2044  1.4377  0.5428
  109MOL0     H14335   8.035   5.687   5.424  0.4972  0.6071  0.3583
  109MOL0     H14336   8.185   5.706   5.340 -0.3278 -1.3780 -0.6404
  109MOL0     H14337   7.985   5.936   5.424 -2.9167 -1.9495 -2.5397
  109MOL0     H14338   8.145   5.958   5.351 -1.6057  2.3974 -1.3095
  109MOL0     H14339   8.039   5.827   5.151  0.6030  0.2837  0.2442
  109MOL0     H14340   7.960   5.982   5.165  0.2390  0.9804  1.8724
  109MOL0     H14341   7.900   5.618   5.212 -0.3609 -1.9969  1.9729
  109MOL0     H14342   7.530   5.540   5.264 -1.1711 -3.0366 -1.5286
  109MOL0     H14343   7.684   5.456   5.279  1.6318  1.0581  0.2745
  109MOL0     H14344   7.556   5.561   5.028 -0.4425  0.7350  0.1295
  109MOL0     H14345   7.555   5.403   5.070 -3.2204  2.2140  0.9097
  109MOL0     H14346   7.812   5.546   4.970  3.4036 -2.4047 -1.6584
  109MOL0     H14347   7.834   5.425   5.085  2.6215  0.8116 -1.9437
  109MOL0     H14348   7.697   5.272   4.953  1.9786 -0.7069 -1.7636
  109MOL0     H14349   7.838   5.336   4.877 -0.4342 -2.1976  2.1718
  109MOL0     H14350   7.722   5.151   4.782 -1.4670  1.1431  1.3537
  109MOL0     H14351   7.676   5.021   4.585 -1.0993 -0.1929 -1.9348
  109MOL0     H14352   7.517   5.203   4.009  0.6630 -0.1268  1.4870
  109MOL0     H14353   7.427   5.082   3.822  0.0545 -0.9760 -0.3664
  109MOL0     H14354   7.384   4.894   3.701 -0.0822 -0.1157  0.9036
  109MOL0     H14355   7.243   4.994   3.674  1.5502  1.6687  2.2131
  109MOL0     H14356   7.234   4.774   3.518  2.3534  1.4361 -0.3696
  109MOL0     H14357   7.110   4.760   3.646  0.0736  0.5253 -0.6614
  109MOL0     H14358   7.216   4.602   3.769 -2.8002 -3.1784 -2.2981
  109MOL0     H14359   7.379   4.656   3.711  0.6588  1.0239 -1.6892
  109MOL0     H14360   7.155   4.471   3.593 -0.6263 -0.2241 -0.1907
  109MOL0     H14361   7.273   4.552   3.487  0.9529 -0.0377  0.4273
  109MOL0     H14362   7.457   4.422   3.629 -0.8498  0.0270  3.5771
  109MOL0     H14363   7.341   4.319   3.540  1.5505 -0.6176  1.7603
  109MOL0     H14364   7.381   4.346   3.825  0.3743  0.2448 -0.9066
  109MOL0     H14365   7.358   4.216   3.724  2.0883 -0.5245  0.8024
  109MOL0     H14366   7.112   4.388   3.820 -0.9627 -0.6674  2.0096
  109MOL0     H14367   7.110   4.279   3.693  0.3393  3.6805 -1.6808
  109MOL0     H14368   7.218   4.110   3.884 -1.7000 -1.6672  4.4897
  109MOL0     H14369   7.048   4.174   3.909 -0.9485  1.7779  2.2347
  109MOL0     H14370   7.202   4.845   4.092 -0.8780  0.8176  1.8095
  109MOL0     H14371   7.293   4.981   4.289 -2.7612  2.7940 -0.5952
  109MOL0     H14372   7.509   5.373   4.393 -2.9371  2.4862  2.1084
  109MOL0     H14373   7.562   5.505   4.605 -2.1100 -0.3561  2.2980
  109MOL0     H14374   8.063   5.720   6.217 -1.1384 -1.1818  0.5586
  109MOL0     H14375   8.120   5.790   6.469  1.1585 -1.4111  2.4782
  109MOL0     H14376   8.371   5.783   6.822  3.6786  0.5546 -2.5924
  109MOL0     H14377   8.408   5.838   7.065 -0.6200 -0.3840 -0.8053
  109MOL0     H14378   8.358   6.259   7.152  0.2920 -1.1730 -0.8945
  109MOL0     H14379   8.476   6.229   7.282  2.2187 -2.6369  0.9257
  109MOL0     H14380   8.220   6.206   7.349 -0.4503  0.5086 -2.1847
  109MOL0     H14381   8.213   6.071   7.249  0.2811 -0.5766 -1.0293
  109MOL0     H14382   8.462   6.020   7.400  0.0465  0.5938 -0.6608
  109MOL0     H14383   8.292   5.967   7.454  1.9625 -1.5893 -1.7309
  109MOL0     H14384   8.429   6.209   7.566 -2.4359  2.4432 -0.7364
  109MOL0     H14385   8.270   6.174   7.587 -0.2823 -0.1687 -0.4836
  109MOL0     H14386   8.376   5.864   7.837  1.6505 -0.3334  0.9292
  109MOL0     H14387   8.381   6.255   6.941 -2.1510  0.4438 -0.0657
  109MOL0     H14388   8.346   6.192   6.723 -1.9390 -1.6144 -1.7904
  110MOL0     O14389   6.281   5.267   3.330 -0.5552 -0.3953  0.6343
  110MOL0     C14390   6.191   5.256   3.245  0.8379  0.3128 -0.0799
  110MOL0     O14391   6.086   5.163   3.254 -0.1611 -0.6880  0.2275
  110MOL0     C14392   6.081   5.102   3.376  0.0281  0.3668  0.7882
  110MOL0     C14393   5.963   5.121   3.446 -0.5205  0.3272 -0.4870
  110MOL0     C14394   5.937   5.051   3.567 -0.1808 -0.5162  0.1567
  110MOL0     C14395   6.033   4.971   3.627  0.1217 -0.0971 -0.4873
  110MOL0     O14396   6.010   4.918   3.750 -0.3924  0.1672  0.1113
  110MOL0     C14397   6.037   4.782   3.764 -0.1197 -0.0359  0.0395
  110MOL0     C14398   5.973   4.711   3.886  0.3836 -1.1950 -0.2607
  110MOL0     C14399   5.823   4.672   3.856 -0.1373  1.3825  0.6541
  110MOL0     C14400   5.798   4.553   3.760 -0.3154  0.5926  0.1927
  110MOL0     C14401   5.643   4.530   3.755  0.0094  0.3979  1.2593
  110MOL0     C14402   5.621   4.417   3.658  0.2740  0.2822  0.4266
  110MOL0     C14403   5.467   4.370   3.651 -0.0012 -0.5483 -0.8955
  110MOL0     C14404   5.454   4.277   3.534  1.1568 -0.7358 -0.3031
  110MOL0     N14405   5.314   4.228   3.514 -0.1481  0.4129 -0.6380
  110MOL0     C14406   5.256   4.243   3.392  0.4474 -0.2244  0.2659
  110MOL0     C14407   5.156   4.149   3.394  1.1546  0.0714 -0.7842
  110MOL0     C14408   5.048   4.148   3.283  0.2348  0.3744 -0.0414
  110MOL0     C14409   4.951   4.261   3.318 -0.6666  0.7690 -0.4377
  110MOL0     C14410   4.819   4.256   3.230 -0.1939 -0.0465 -0.9873
  110MOL0     C14411   4.704   4.326   3.308  0.5069  0.0214 -0.7235
  110MOL0     O14412   4.694   4.260   3.435  0.0522  0.2577  0.8873
  110MOL0     C14413   4.625   4.143   3.449  0.2110 -0.0050 -0.3299
  110MOL0     C14414   4.550   4.082   3.355 -0.7272  0.0241  0.7141
  110MOL0     C14415   4.475   3.960   3.377 -0.2800  0.1052  1.0485
  110MOL0     C14416   4.492   3.899   3.497 -0.7966  0.1978  0.7113
  110MOL0     C14417   4.444   3.759   3.508 -0.0284 -0.3562 -0.2947
  110MOL0     O14418   4.443   3.711   3.643 -0.4810 -0.4316  0.1803
  110MOL0     C14419   4.382   3.588   3.666  1.2782 -0.6568 -0.8030
  110MOL0     C14420   4.452   3.471   3.689 -0.0180  0.4753  0.9698
  110MOL0     C14421   4.396   3.364   3.756 -0.0405  0.4571 -0.5107
  110MOL0     C14422   4.267   3.370   3.812 -0.2163 -0.6461 -0.3434
  110MOL0     O14423   4.214   3.267   3.893 -0.0759  0.2899 -0.8426
  110MOL0     C14424   4.302   3.157   3.940  0.3125  0.0224  0.5068
  110MOL0     C14425   4.228   3.062   4.044 -0.6241  0.1529  0.4106
  110MOL0     C14426   4.282   2.928   4.050 -0.5764  0.6204 -0.2136
  110MOL0     C14427   4.437   2.922   4.054 -0.2383  0.9645 -0.4491
  110MOL0     C14428   4.487   2.789   4.098  1.7346  0.4750  0.3858
  110MOL0     C14429   4.639   2.787   4.095  0.0868 -0.5391  0.4605
  110MOL0     C14430   4.706   2.658   4.146 -0.0046  0.1049  0.4258
  110MOL0     C14431   4.717   2.656   4.299 -0.3499  0.3173  0.1201
  110MOL0    Cl14432   4.771   2.489   4.346 -0.3060 -0.3552  0.1844
  110MOL0     C14433   4.188   3.490   3.788 -1.1228  0.2646 -0.1683
  110MOL0     C14434   4.251   3.600   3.722 -1.0042 -0.2242  0.2834
  110MOL0     O14435   4.401   3.693   3.414  0.1944  0.2100  0.7364
  110MOL0     C14436   4.562   3.959   3.595 -0.5177  0.4527 -0.3955
  110MOL0     C14437   4.632   4.076   3.572 -0.4962 -0.5550  0.1214
  110MOL0     N14438   5.160   4.073   3.510  0.0803 -0.8645 -0.1721
  110MOL0     N14439   5.261   4.118   3.580 -0.5156 -0.0192  0.6088
  110MOL0     C14440   6.152   4.945   3.552 -0.6195  0.2755 -0.5411
  110MOL0     C14441   6.174   5.012   3.427 -1.3633  0.4027  0.0029
  110MOL0     C14442   6.198   5.354   3.134 -0.2478  0.4776  1.3969
  110MOL0     C14443   6.299   5.449   3.111  0.3928 -0.3910 -0.9644
  110MOL0     C14444   6.279   5.543   3.010 -0.5763 -0.2688  0.3591
  110MOL0     C14445   6.172   5.534   2.916 -0.8339 -0.6788  0.0539
  110MOL0     O14446   6.148   5.613   2.812 -0.1843  0.0679  0.9558
  110MOL0     C14447   6.206   5.748   2.800 -0.2934  0.7378  0.0429
  110MOL0     C14448   6.192   5.799   2.657 -1.1762  0.1133  0.0747
  110MOL0     C14449   6.281   5.919   2.623  0.0195 -0.7122  0.9388
  110MOL0     C14450   6.229   5.995   2.500  0.6057 -0.1787 -0.8469
  110MOL0     C14451   6.128   6.092   2.536  0.3970 -0.5956 -0.3236
  110MOL0     C14452   6.039   6.172   2.563 -0.2202  0.1094 -0.7175
  110MOL0     C14453   6.072   5.431   2.935 -0.5652  0.1959 -0.8920
  110MOL0     C14454   6.092   5.341   3.043 -0.1115 -0.3680  0.4209
  110MOL0     H14455   5.879   5.167   3.394 -0.8715 -1.0553 -1.1882
  110MOL0     H14456   5.842   5.072   3.614 -0.1542 -1.2110  0.5378
  110MOL0     H14457   6.146   4.771   3.771  0.4168  1.9754 -3.1744
  110MOL0     H14458   6.001   4.733   3.673 -2.5408  0.7251  0.5394
  110MOL0     H14459   5.998   4.782   3.965 -1.0952  1.7752 -2.2976
  110MOL0     H14460   6.028   4.620   3.913  1.8212  0.1661  1.6284
  110MOL0     H14461   5.774   4.759   3.812  0.5269  1.3400 -0.2075
  110MOL0     H14462   5.768   4.642   3.946  0.3359 -2.6158 -0.1702
  110MOL0     H14463   5.834   4.572   3.659  0.2251  1.8440  0.6038
  110MOL0     H14464   5.853   4.468   3.801 -1.3915  0.0943  0.6395
  110MOL0     H14465   5.593   4.616   3.712  1.0788 -0.1411 -1.2266
  110MOL0     H14466   5.594   4.505   3.850 -2.7377  1.7342  0.2830
  110MOL0     H14467   5.674   4.332   3.702 -1.3503 -0.1054  1.7363
  110MOL0     H14468   5.672   4.419   3.562 -0.7579  0.2175 -0.1433
  110MOL0     H14469   5.454   4.315   3.745 -1.6517 -1.9017 -1.8468
  110MOL0     H14470   5.405   4.460   3.649  0.8520  0.1881  1.7644
  110MOL0     H14471   5.528   4.197   3.540  0.9756 -0.7670  3.0097
  110MOL0     H14472   5.484   4.330   3.444  1.5557 -0.3618  0.0512
  110MOL0     H14473   5.274   4.323   3.321  1.0660  0.2722  0.9642
  110MOL0     H14474   4.996   4.052   3.273  1.0964 -0.1194  0.1093
  110MOL0     H14475   5.097   4.158   3.186  0.6052  0.0330  0.1030
  110MOL0     H14476   5.004   4.356   3.305  2.6365 -1.0540 -1.4047
  110MOL0     H14477   4.927   4.231   3.421  2.0030  1.8364  0.5752
  110MOL0     H14478   4.824   4.314   3.137  0.2444 -0.1378 -1.0225
  110MOL0     H14479   4.788   4.154   3.204 -3.8673  0.7182 -0.1984
  110MOL0     H14480   4.610   4.331   3.252 -2.2160 -3.1401  3.0535
  110MOL0     H14481   4.737   4.430   3.320  0.8424 -0.1708  0.0884
  110MOL0     H14482   4.528   4.136   3.263  1.4673 -1.0874 -0.5303
  110MOL0     H14483   4.411   3.926   3.296  1.2892 -0.6549  0.0849
  110MOL0     H14484   4.554   3.470   3.651 -0.4563 -1.0810 -0.2817
  110MOL0     H14485   4.450   3.279   3.796 -0.7875  1.9706  4.3929
  110MOL0     H14486   4.399   3.192   3.976  0.7078  0.5666 -0.9835
  110MOL0     H14487   4.320   3.093   3.853 -0.5792 -0.6141  0.7819
  110MOL0     H14488   4.121   3.047   4.024  0.0699 -2.0377 -2.3234
  110MOL0     H14489   4.252   3.117   4.136  2.4314  0.6824 -0.6074
  110MOL0     H14490   4.239   2.869   3.969  0.7829  0.0492 -0.5587
  110MOL0     H14491   4.247   2.880   4.142 -0.6998  0.2451 -0.4527
  110MOL0     H14492   4.479   2.941   3.955  0.6165  2.6354  0.1855
  110MOL0     H14493   4.473   2.995   4.128  3.2553 -1.0539  0.0738
  110MOL0     H14494   4.452   2.710   4.030  0.3404  1.6765 -0.3423
  110MOL0     H14495   4.458   2.768   4.201  1.1210  0.1743  0.1594
  110MOL0     H14496   4.658   2.866   4.168 -0.8304  2.2597 -2.1215
  110MOL0     H14497   4.674   2.804   3.992 -0.4629  1.1910  0.5227
  110MOL0     H14498   4.654   2.571   4.106 -1.6566  1.2229  0.0296
  110MOL0     H14499   4.806   2.657   4.101 -0.7464 -3.4732 -1.5474
  110MOL0     H14500   4.620   2.675   4.346 -0.6158  0.8792 -0.6366
  110MOL0     H14501   4.784   2.733   4.338  0.7937 -0.2261 -0.7108
  110MOL0     H14502   4.095   3.508   3.843 -0.2057  4.2064  0.3760
  110MOL0     H14503   4.205   3.699   3.728 -0.3286  0.0258  3.7761
  110MOL0     H14504   4.579   3.912   3.691 -1.1591  1.3007  0.1516
  110MOL0     H14505   4.679   4.138   3.647 -3.9056  0.1412  1.8891
  110MOL0     H14506   6.236   4.886   3.587 -1.4013  0.4784  1.8392
  110MOL0     H14507   6.267   4.999   3.374 -1.9576 -1.3313 -0.7062
  110MOL0     H14508   6.372   5.464   3.190 -2.4197 -0.6431  1.8880
  110MOL0     H14509   6.352   5.621   2.995 -1.0548 -0.0612 -1.0305
  110MOL0     H14510   6.307   5.755   2.840  0.3147  1.5060 -1.5255
  110MOL0     H14511   6.143   5.814   2.861 -0.4190 -0.3003  1.0645
  110MOL0     H14512   6.209   5.709   2.598 -0.8264 -1.2948  2.1883
  110MOL0     H14513   6.088   5.826   2.632 -1.4719  0.7030  1.8036
  110MOL0     H14514   6.376   5.875   2.591 -0.8271 -4.3284  2.8754
  110MOL0     H14515   6.301   5.985   2.708 -3.7076 -0.9652  2.2024
  110MOL0     H14516   6.314   6.031   2.442  1.0637  1.8144  0.9253
  110MOL0     H14517   6.170   5.931   2.435 -0.2780 -0.4259  0.1782
  110MOL0     H14518   5.951   6.233   2.573 -0.3299  0.0625 -1.3929
  110MOL0     H14519   5.989   5.402   2.872 -0.9722 -1.1071  0.1939
  110MOL0     H14520   6.017   5.263   3.054  4.0653 -4.8994  0.1966
  111MOL0     O14521   1.479   7.980   5.378  0.1533  0.0480 -0.4742
  111MOL0     C14522   1.514   7.866   5.420  0.8196  0.3588  0.2122
  111MOL0     O14523   1.506   7.829   5.549 -0.5063  0.4248  0.4162
  111MOL0     C14524   1.452   7.922   5.634  0.8729 -0.0558  0.1577
  111MOL0     C14525   1.523   7.971   5.750 -0.1878  1.1403  0.7706
  111MOL0     C14526   1.469   8.066   5.836 -0.1451 -0.3656  0.3336
  111MOL0     C14527   1.330   8.106   5.821 -0.1203  0.0223  1.0207
  111MOL0     O14528   1.278   8.201   5.904  0.1094 -0.4596 -0.6926
  111MOL0     C14529   1.156   8.272   5.884  0.3412  0.4092  0.3664
  111MOL0     C14530   1.107   8.307   6.015  0.4640  0.4941 -0.0723
  111MOL0     C14531   0.968   8.380   6.007 -0.1984  1.1022  0.9658
  111MOL0     C14532   0.930   8.437   6.143  0.4381  0.8818  0.0293
  111MOL0     C14533   0.817   8.376   6.211  0.3621  0.1409 -1.4487
  111MOL0     C14534   0.845   8.231   6.242  0.3190  0.0825  0.1993
  111MOL0     C14535   0.765   8.191   6.358  0.0028 -0.1017  0.4779
  111MOL0     C14536   0.790   8.242   6.500 -0.1040 -0.2253  0.6667
  111MOL0     N14537   0.926   8.217   6.542  0.4485  0.0567  0.3445
  111MOL0     C14538   1.026   8.285   6.483  0.0286 -0.4677 -0.2306
  111MOL0     C14539   1.142   8.240   6.542 -0.3412 -0.2408 -0.3112
  111MOL0     C14540   1.288   8.276   6.501  0.0797  0.7205  0.4283
  111MOL0     C14541   1.352   8.179   6.398 -0.1561 -0.4292  0.6965
  111MOL0     C14542   1.488   8.245   6.352  0.1739  0.3431 -0.0835
  111MOL0     C14543   1.586   8.133   6.299 -0.1506  0.1851  0.8619
  111MOL0     O14544   1.708   8.196   6.241 -0.0085  0.2763 -0.1008
  111MOL0     C14545   1.776   8.154   6.130 -0.5884  0.2631  0.4840
  111MOL0     C14546   1.763   8.023   6.094  0.0083  1.4171  0.6900
  111MOL0     C14547   1.825   7.968   5.978 -0.9030 -0.7071  0.7260
  111MOL0     C14548   1.908   8.058   5.897 -0.3736 -0.2831  0.6093
  111MOL0     C14549   1.965   7.999   5.774  0.3802 -0.8906  0.8354
  111MOL0     O14550   1.923   7.868   5.750  0.9626  0.0467  0.2792
  111MOL0     C14551   1.979   7.813   5.647 -0.5284  0.2195  0.0578
  111MOL0     C14552   1.900   7.760   5.551 -0.3514 -0.6935 -0.5002
  111MOL0     C14553   1.954   7.678   5.456  0.3131 -0.1524 -0.7077
  111MOL0     C14554   2.091   7.650   5.449 -0.1474  0.1826 -0.1010
  111MOL0     O14555   2.133   7.579   5.340  0.3126  0.1374  0.8713
  111MOL0     C14556   2.241   7.488   5.365 -0.0635  0.6312 -0.0353
  111MOL0     C14557   2.255   7.370   5.271 -0.3064  0.3045 -0.0647
  111MOL0     C14558   2.140   7.346   5.170  0.9976 -0.6620  0.9088
  111MOL0     C14559   2.168   7.256   5.044 -0.0519  1.0132  0.8407
  111MOL0     C14560   2.158   7.102   5.071 -0.3584  0.1759  1.0015
  111MOL0     C14561   2.025   7.056   5.109 -0.3363 -0.2066 -0.9114
  111MOL0     C14562   2.031   6.902   5.093  0.3276  0.2282  0.3363
  111MOL0     C14563   1.897   6.838   5.119 -1.3149  0.1237 -0.2502
  111MOL0    Cl14564   1.922   6.660   5.104  0.0173  0.1074  0.4060
  111MOL0     C14565   2.178   7.709   5.544 -0.0618 -0.0523  0.6296
  111MOL0     C14566   2.123   7.781   5.647  0.4705 -0.0769 -0.0580
  111MOL0     O14567   2.042   8.062   5.699 -0.6966  0.4703  0.0472
  111MOL0     C14568   1.936   8.189   5.946  1.2402 -0.7863  1.1142
  111MOL0     C14569   1.869   8.239   6.057  0.8267 -0.0409  0.3429
  111MOL0     N14570   1.105   8.151   6.642  0.1942 -0.9413 -0.5353
  111MOL0     N14571   0.977   8.137   6.644 -0.2860  0.0237 -0.1307
  111MOL0     C14572   1.261   8.064   5.710 -0.1729 -0.7465  0.0153
  111MOL0     C14573   1.318   7.966   5.619  0.4280  0.7784  0.3307
  111MOL0     C14574   1.573   7.769   5.325 -0.2177  0.9905  0.2207
  111MOL0     C14575   1.568   7.795   5.185  0.3979 -1.3094 -0.3720
  111MOL0     C14576   1.612   7.704   5.093 -0.7390  0.2944  0.0917
  111MOL0     C14577   1.654   7.578   5.141  1.0431  0.4391  0.4695
  111MOL0     O14578   1.702   7.480   5.056 -0.4222 -0.5790 -0.2089
  111MOL0     C14579   1.667   7.492   4.913 -0.1814  0.0028  0.6816
  111MOL0     C14580   1.690   7.351   4.853  0.3208 -0.4537  0.0361
  111MOL0     C14581   1.663   7.343   4.703 -0.3501  1.0608  0.2900
  111MOL0     C14582   1.526   7.384   4.652 -0.8296  0.5035  0.8373
  111MOL0     C14583   1.412   7.349   4.738  0.4378  0.7421  0.2073
  111MOL0     C14584   1.318   7.308   4.813 -0.6514 -0.0314 -0.7212
  111MOL0     C14585   1.660   7.556   5.276  0.8198  1.1633 -0.1060
  111MOL0     C14586   1.628   7.650   5.367  0.2365 -0.0886 -0.9714
  111MOL0     H14587   1.629   7.946   5.757 -0.6388 -1.3113 -0.1122
  111MOL0     H14588   1.541   8.101   5.910  1.1213 -0.2147 -0.9206
  111MOL0     H14589   1.084   8.217   5.822  0.0178  1.9297 -0.6772
  111MOL0     H14590   1.172   8.370   5.839  0.7795 -0.6737 -2.0191
  111MOL0     H14591   1.186   8.367   6.061 -1.5710  0.4836  3.8882
  111MOL0     H14592   1.092   8.215   6.073 -0.7286  0.2964 -0.6581
  111MOL0     H14593   0.895   8.310   5.968  3.0342 -0.6074 -2.6560
  111MOL0     H14594   0.966   8.456   5.928  0.5764  0.0296 -0.1244
  111MOL0     H14595   1.013   8.434   6.214 -1.5708 -2.6595  2.5901
  111MOL0     H14596   0.907   8.543   6.125  3.5025  1.2432 -2.8375
  111MOL0     H14597   0.722   8.377   6.156  1.0580  3.1026 -2.7951
  111MOL0     H14598   0.796   8.430   6.304 -0.5674 -0.5240 -1.2538
  111MOL0     H14599   0.950   8.205   6.255  0.7373  2.1677  1.5758
  111MOL0     H14600   0.829   8.169   6.154  2.1878  1.8411 -1.4609
  111MOL0     H14601   0.660   8.208   6.333  0.5120  1.4470 -0.7933
  111MOL0     H14602   0.779   8.082   6.357  2.8447  0.1920 -0.6159
  111MOL0     H14603   0.730   8.181   6.569 -1.2157 -0.6337 -0.6085
  111MOL0     H14604   0.768   8.349   6.497  1.5039  0.1018 -1.8535
  111MOL0     H14605   1.021   8.351   6.397 -2.9780  0.2125  0.3594
  111MOL0     H14606   1.354   8.288   6.587 -3.1772  4.2384  2.7966
  111MOL0     H14607   1.282   8.373   6.451 -1.3289 -1.0645 -3.2352
  111MOL0     H14608   1.279   8.189   6.317  2.2477 -1.2405 -1.7052
  111MOL0     H14609   1.367   8.074   6.425 -1.9925 -1.6577 -2.4818
  111MOL0     H14610   1.472   8.307   6.264 -2.4297  2.5036  1.7349
  111MOL0     H14611   1.543   8.290   6.435  1.8561  0.5788 -1.2879
  111MOL0     H14612   1.527   8.074   6.227  2.3521  1.2496 -2.2977
  111MOL0     H14613   1.617   8.064   6.378 -3.7200  0.5178  2.7599
  111MOL0     H14614   1.696   7.957   6.146 -1.4053  2.0982 -0.1862
  111MOL0     H14615   1.818   7.863   5.954  0.5021 -1.1767  2.2267
  111MOL0     H14616   1.794   7.782   5.552 -0.5453 -1.5185  1.2518
  111MOL0     H14617   1.899   7.646   5.368 -0.3184  0.5702 -0.5828
  111MOL0     H14618   2.224   7.452   5.467  0.1716 -0.1997 -0.2875
  111MOL0     H14619   2.339   7.537   5.359  0.9396 -1.2509  0.3563
  111MOL0     H14620   2.265   7.282   5.335 -0.9111 -2.1995 -3.2061
  111MOL0     H14621   2.354   7.372   5.226 -0.3598  0.8394 -0.1626
  111MOL0     H14622   2.117   7.448   5.136 -0.8102 -1.2930  0.1096
  111MOL0     H14623   2.041   7.312   5.203 -1.5341  2.0675 -2.9526
  111MOL0     H14624   2.084   7.287   4.981 -0.1692  0.3560  0.6684
  111MOL0     H14625   2.269   7.282   5.011  0.2428  0.0405  0.9465
  111MOL0     H14626   2.235   7.074   5.143  1.0245  3.1718  0.8514
  111MOL0     H14627   2.189   7.058   4.977 -2.5067  3.5642 -1.5319
  111MOL0     H14628   1.948   7.104   5.048 -2.7327 -2.3359  0.2380
  111MOL0     H14629   2.004   7.070   5.215 -0.9385 -4.6742 -0.2307
  111MOL0     H14630   2.072   6.877   4.995  1.1812  0.4400  0.6268
  111MOL0     H14631   2.100   6.868   5.172  1.3608  1.5186  0.0303
  111MOL0     H14632   1.828   6.886   5.049  0.0907  1.4583 -0.7813
  111MOL0     H14633   1.861   6.854   5.221 -2.4919  1.7715 -0.8878
  111MOL0     H14634   2.286   7.695   5.541  0.5004  3.4820  0.2991
  111MOL0     H14635   2.192   7.807   5.727  1.0828 -2.0549  0.0964
  111MOL0     H14636   1.994   8.255   5.882 -3.5028  1.8376 -1.0074
  111MOL0     H14637   1.880   8.344   6.085 -0.8650  0.1717  0.3139
  111MOL0     H14638   1.161   8.096   5.681 -1.9375 -4.3713  1.3692
  111MOL0     H14639   1.259   7.935   5.533  1.1419 -3.4359  1.1687
  111MOL0     H14640   1.516   7.886   5.157  1.0657 -0.1640  1.8431
  111MOL0     H14641   1.589   7.726   4.989  0.3382 -2.8702 -0.9363
  111MOL0     H14642   1.723   7.572   4.863  0.4082 -0.7973  0.0307
  111MOL0     H14643   1.563   7.524   4.910  0.2073  1.2433 -0.8021
  111MOL0     H14644   1.793   7.323   4.875  0.1345 -2.2997 -1.1777
  111MOL0     H14645   1.632   7.276   4.908  2.1119 -1.4939  0.5912
  111MOL0     H14646   1.673   7.241   4.665  0.6462  1.7599 -1.4266
  111MOL0     H14647   1.746   7.397   4.657 -0.6550  1.6528  0.4080
  111MOL0     H14648   1.537   7.493   4.652  1.2565  0.3459 -0.4002
  111MOL0     H14649   1.515   7.349   4.549  3.0103 -0.3996  0.5696
  111MOL0     H14650   1.232   7.292   4.873 -0.2070  0.7752  0.1567
  111MOL0     H14651   1.696   7.458   5.304 -0.0761  1.1401  1.0337
  111MOL0     H14652   1.647   7.614   5.468 -1.3264 -1.0600 -1.0064
  112MOL0     O14653   0.143   5.556   1.577  0.5139 -0.1221 -0.4813
  112MOL0     C14654   0.039   5.593   1.632  0.7361 -0.9250  0.3330
  112MOL0     O14655   0.015   5.723   1.698 -0.1895  0.2130 -0.6091
  112MOL0     C14656   0.104   5.824   1.717  0.6894  0.3779  0.3565
  112MOL0     C14657   0.051   5.934   1.796 -0.5487  0.1301 -0.4351
  112MOL0     C14658   0.126   6.038   1.827 -0.3915 -0.1241  0.6926
  112MOL0     C14659   0.251   6.052   1.755 -0.1364 -0.7423 -0.0010
  112MOL0     O14660   0.335   6.162   1.762  0.2565 -0.6655 -0.0572
  112MOL0     C14661   0.311   6.251   1.868  0.0708  0.3199  0.2007
  112MOL0     C14662   0.434   6.335   1.891  0.5764 -0.1868  0.1759
  112MOL0     C14663   0.565   6.266   1.919  0.2516 -0.6297 -0.4868
  112MOL0     C14664   0.564   6.181   2.042  0.3581 -0.0597 -0.1393
  112MOL0     C14665   0.700   6.113   2.050  0.1641 -0.1142 -0.1695
  112MOL0     C14666   0.706   5.999   1.947 -0.9091  0.1440 -0.3816
  112MOL0     C14667   0.846   5.991   1.886 -0.4993  0.3136 -0.6348
  112MOL0     C14668   0.952   5.981   2.000 -0.0756 -0.4830 -0.0575
  112MOL0     N14669   1.082   5.989   1.934 -0.2056 -0.7590  1.0365
  112MOL0     C14670   1.186   5.903   1.959 -0.1422 -0.6830  0.9224
  112MOL0     C14671   1.285   5.939   1.880  0.0420 -0.5451 -0.5628
  112MOL0     C14672   1.419   5.870   1.886 -0.1914 -0.7922 -0.0985
  112MOL0     C14673   1.507   5.971   1.974  0.6240  0.2382  0.9152
  112MOL0     C14674   1.653   5.948   1.932 -0.0449 -0.1875 -0.3819
  112MOL0     C14675   1.767   5.998   2.035  0.7121  0.1358  0.5669
  112MOL0     O14676   1.730   5.966   2.173 -0.1422  0.0230 -0.2697
  112MOL0     C14677   1.793   5.857   2.231 -0.5940  0.8962  0.0946
  112MOL0     C14678   1.884   5.780   2.170  0.5821  0.1249  0.0542
  112MOL0     C14679   1.933   5.665   2.229 -0.6643  0.5807  0.5896
  112MOL0     C14680   1.902   5.623   2.353 -0.2916 -0.3620  0.0174
  112MOL0     C14681   1.937   5.498   2.420  0.0071 -0.7778  0.0356
  112MOL0     O14682   1.959   5.389   2.337 -0.0227 -0.4827  0.8509
  112MOL0     C14683   1.984   5.265   2.388 -0.1172 -0.0591 -0.6929
  112MOL0     C14684   1.928   5.149   2.337  0.8232  0.7874 -1.0749
  112MOL0     C14685   1.958   5.034   2.401 -0.6621 -0.3008 -0.2780
  112MOL0     C14686   2.042   5.019   2.507 -0.4122 -1.5052 -0.2580
  112MOL0     O14687   2.078   4.900   2.550  0.9940  0.8572  0.3720
  112MOL0     C14688   2.031   4.877   2.679 -0.1127 -0.4482  0.0479
  112MOL0     C14689   1.904   4.797   2.689  0.2646 -0.5812 -0.7110
  112MOL0     C14690   1.894   4.726   2.824  0.1314  0.7044 -0.3986
  112MOL0     C14691   1.766   4.649   2.826  0.3456 -0.3574  1.1078
  112MOL0     C14692   1.737   4.567   2.950  0.9979 -0.1548 -0.2384
  112MOL0     C14693   1.582   4.519   2.970  0.1575  0.1296 -0.6466
  112MOL0     C14694   1.559   4.483   3.116  0.0671 -0.4951 -0.8161
  112MOL0     C14695   1.435   4.397   3.132  0.0220  0.1488 -0.2076
  112MOL0    Cl14696   1.444   4.320   3.288  0.1967  0.0267  0.0017
  112MOL0     C14697   2.108   5.129   2.544  0.2972 -0.2594  0.3184
  112MOL0     C14698   2.077   5.257   2.496  0.6278 -0.4179 -0.3020
  112MOL0     O14699   1.922   5.494   2.541 -0.2570 -0.0663 -0.5911
  112MOL0     C14700   1.811   5.710   2.422 -0.1241 -0.6864  0.3414
  112MOL0     C14701   1.756   5.817   2.356  0.3619 -0.4948 -0.5721
  112MOL0     N14702   1.240   6.052   1.806 -0.6611 -0.3634 -1.0067
  112MOL0     N14703   1.127   6.087   1.856 -0.3158 -0.2254 -0.6158
  112MOL0     C14704   0.296   5.954   1.674 -0.3604 -0.1473 -0.1820
  112MOL0     C14705   0.226   5.837   1.665  1.3912  0.7794  0.3325
  112MOL0     C14706  -0.086   5.512   1.589 -0.0129  0.5213 -0.6495
  112MOL0     C14707  -0.212   5.569   1.596  0.4959 -0.0383  0.6972
  112MOL0     C14708  -0.326   5.501   1.555  0.6763  0.7205  0.3668
  112MOL0     C14709  -0.316   5.380   1.491 -0.1569 -0.0151 -0.2147
  112MOL0     O14710  -0.413   5.299   1.440 -0.3684  0.3060  0.2076
  112MOL0     C14711  -0.544   5.353   1.418 -0.5279  0.2238 -1.4789
  112MOL0     C14712  -0.644   5.241   1.400  0.5397 -0.0644 -0.0168
  112MOL0     C14713  -0.629   5.182   1.258 -0.2202 -0.6767 -0.7714
  112MOL0     C14714  -0.541   5.063   1.258  0.0879 -0.5274 -0.3566
  112MOL0     C14715  -0.574   4.952   1.354  1.3934  0.7755  1.4435
  112MOL0     C14716  -0.607   4.860   1.428 -0.1887 -0.5880  0.5495
  112MOL0     C14717  -0.195   5.321   1.498  0.6455 -0.1624  0.5990
  112MOL0     C14718  -0.082   5.378   1.542 -0.0357 -0.6333  0.1340
  112MOL0     H14719  -0.046   5.923   1.844 -1.0340  0.6882 -1.2689
  112MOL0     H14720   0.086   6.112   1.896 -4.2226  0.5644 -1.9683
  112MOL0     H14721   0.269   6.210   1.960 -1.6415  0.2950 -0.5645
  112MOL0     H14722   0.228   6.315   1.838 -3.7330 -3.0761  2.4789
  112MOL0     H14723   0.423   6.405   1.974  2.6017  3.3001 -2.2235
  112MOL0     H14724   0.455   6.390   1.799 -0.5712 -0.6163 -0.3588
  112MOL0     H14725   0.633   6.352   1.927  0.2620 -0.6395 -0.4722
  112MOL0     H14726   0.601   6.210   1.832 -0.9967  1.8902 -2.7992
  112MOL0     H14727   0.541   6.241   2.131  2.6974  1.3330 -0.3871
  112MOL0     H14728   0.481   6.110   2.036  0.3377 -0.4889  3.2221
  112MOL0     H14729   0.726   6.075   2.149 -0.0963 -3.1840 -1.1881
  112MOL0     H14730   0.773   6.192   2.029  2.2459 -2.5237 -2.9131
  112MOL0     H14731   0.619   5.999   1.882 -1.8395 -0.3906  0.8268
  112MOL0     H14732   0.692   5.907   2.005 -0.1590 -0.4270 -1.0812
  112MOL0     H14733   0.861   5.903   1.823 -1.2773 -0.2378 -0.0703
  112MOL0     H14734   0.863   6.080   1.826  2.2997  1.1915  1.2578
  112MOL0     H14735   0.937   5.887   2.056 -2.6988  0.1353  0.4430
  112MOL0     H14736   0.946   6.069   2.065 -3.4626 -0.3359 -0.3554
  112MOL0     H14737   1.194   5.816   2.022  1.4694 -1.3302 -0.1309
  112MOL0     H14738   1.460   5.843   1.789 -1.2516 -1.1317 -0.4720
  112MOL0     H14739   1.403   5.777   1.942 -4.0953  0.8435  1.9328
  112MOL0     H14740   1.489   5.949   2.080  2.7817  2.8883  1.9741
  112MOL0     H14741   1.477   6.073   1.949  0.4442 -0.5959 -2.8838
  112MOL0     H14742   1.669   5.840   1.922 -1.2061 -0.5666  1.3852
  112MOL0     H14743   1.666   6.005   1.840 -2.4255 -2.8797 -2.5635
  112MOL0     H14744   1.767   6.106   2.018  1.5997 -0.4945 -5.8104
  112MOL0     H14745   1.863   5.961   1.997 -0.1825  0.6105 -2.3224
  112MOL0     H14746   1.914   5.768   2.066  0.4277 -3.0078  0.2685
  112MOL0     H14747   2.003   5.606   2.172 -1.9344  1.4590 -2.0611
  112MOL0     H14748   1.862   5.145   2.251  2.0179  0.1239 -2.0003
  112MOL0     H14749   1.915   4.942   2.365  1.2029 -0.6108 -1.8959
  112MOL0     H14750   2.009   4.964   2.742 -0.8317 -0.4592 -0.1912
  112MOL0     H14751   2.116   4.826   2.727  0.5613 -0.8190 -1.4771
  112MOL0     H14752   1.924   4.722   2.612  1.1365  0.4043 -1.4644
  112MOL0     H14753   1.823   4.866   2.663  0.2731 -1.1591 -2.4150
  112MOL0     H14754   1.901   4.797   2.907 -0.7693 -0.5119  0.7782
  112MOL0     H14755   1.974   4.652   2.832 -0.5668 -0.3706 -2.6767
  112MOL0     H14756   1.684   4.722   2.820 -0.7255 -1.6181 -0.5932
  112MOL0     H14757   1.749   4.585   2.739 -1.3673  0.2551  0.9458
  112MOL0     H14758   1.770   4.617   3.042 -0.4112 -2.5472  1.7143
  112MOL0     H14759   1.798   4.477   2.938  2.2124  0.7632 -1.1933
  112MOL0     H14760   1.575   4.426   2.913 -0.8798 -2.1241  2.8347
  112MOL0     H14761   1.503   4.593   2.952 -0.7089 -0.3733  0.8591
  112MOL0     H14762   1.642   4.433   3.168 -1.5024 -0.8994  1.4553
  112MOL0     H14763   1.555   4.577   3.171  0.2909 -0.8867 -0.1100
  112MOL0     H14764   1.409   4.334   3.047  2.3613 -0.8162 -0.2761
  112MOL0     H14765   1.351   4.466   3.147  1.5899  1.7072  2.0545
  112MOL0     H14766   2.183   5.109   2.620  1.7609 -1.8260 -1.4442
  112MOL0     H14767   2.125   5.345   2.539 -1.2941  1.0986 -1.1336
  112MOL0     H14768   1.780   5.695   2.525 -0.7027  0.9062  0.4171
  112MOL0     H14769   1.689   5.887   2.404  0.5789 -0.1980 -0.6998
  112MOL0     H14770   0.402   5.954   1.647 -0.1805 -1.8827  0.4031
  112MOL0     H14771   0.285   5.759   1.619  1.2923  0.9829 -0.1452
  112MOL0     H14772  -0.241   5.667   1.634 -1.4500 -0.1574 -0.3734
  112MOL0     H14773  -0.423   5.551   1.557  1.2114  1.7914  0.4651
  112MOL0     H14774  -0.538   5.422   1.334 -3.0453  0.9113 -1.1907
  112MOL0     H14775  -0.574   5.410   1.506  4.9144  0.4891  0.5869
  112MOL0     H14776  -0.636   5.168   1.481 -0.7787 -0.7633 -0.5004
  112MOL0     H14777  -0.747   5.275   1.414  0.5615  0.2780 -0.6233
  112MOL0     H14778  -0.589   5.256   1.189  2.5835  0.4131  1.8403
  112MOL0     H14779  -0.728   5.145   1.229 -1.6203 -0.9441  3.5866
  112MOL0     H14780  -0.551   5.016   1.160 -2.3795  1.1302 -0.9778
  112MOL0     H14781  -0.442   5.106   1.277  0.0768 -1.7451  3.4772
  112MOL0     H14782  -0.623   4.793   1.511 -1.5945  0.7141  1.3907
  112MOL0     H14783  -0.181   5.219   1.463  2.4060  0.1730  0.2310
  112MOL0     H14784   0.018   5.336   1.541  0.8513  1.3568 -0.4168
  113MOL0     O14785   6.496   3.057   4.211  0.9486  0.3484  0.0582
  113MOL0     C14786   6.566   3.090   4.116  0.5551 -0.3319  0.4348
  113MOL0     O14787   6.546   3.038   3.985  0.8978 -0.6865  0.4781
  113MOL0     C14788   6.457   2.937   3.974 -0.4160 -0.0955 -0.8052
  113MOL0     C14789   6.502   2.809   3.984 -0.0256 -0.6422  0.4999
  113MOL0     C14790   6.424   2.698   3.969  0.3318 -1.2122  0.3579
  113MOL0     C14791   6.287   2.714   3.956 -0.1682  0.1415 -0.3976
  113MOL0     O14792   6.212   2.596   3.939 -0.1097  0.2678  0.1382
  113MOL0     C14793   6.099   2.586   4.032 -0.5407 -0.4018  0.0572
  113MOL0     C14794   6.018   2.469   3.986 -0.2575  0.3097  0.7753
  113MOL0     C14795   5.899   2.425   4.056  0.6055  0.4519  1.0133
  113MOL0     C14796   5.812   2.345   3.961 -0.8705 -0.3370 -0.8751
  113MOL0     C14797   5.734   2.239   4.037  0.6421 -0.4411 -0.0329
  113MOL0     C14798   5.601   2.195   3.961  0.7959 -0.5013 -0.6518
  113MOL0     C14799   5.528   2.097   4.039  0.0748  0.8078  0.0818
  113MOL0     C14800   5.377   2.084   3.987 -0.6556  0.1390  0.6851
  113MOL0     N14801   5.289   2.200   4.005  0.2264 -1.0075  0.3240
  113MOL0     C14802   5.241   2.242   4.129  0.2047  0.5665 -0.3228
  113MOL0     C14803   5.170   2.351   4.094  0.0003 -0.1005 -0.8122
  113MOL0     C14804   5.095   2.434   4.190 -0.3643  0.3188  0.7660
  113MOL0     C14805   5.182   2.535   4.265 -0.6533  1.0499  0.1409
  113MOL0     C14806   5.279   2.469   4.365  0.0709 -1.0457 -0.0033
  113MOL0     C14807   5.415   2.521   4.355 -0.0408 -0.1167 -0.1231
  113MOL0     O14808   5.491   2.476   4.460 -0.5048  0.2655  0.4216
  113MOL0     C14809   5.630   2.486   4.457 -0.1068 -1.0607 -0.0190
  113MOL0     C14810   5.720   2.522   4.351  0.9241  0.1186 -0.0023
  113MOL0     C14811   5.857   2.523   4.372 -0.5235  0.7062 -0.5687
  113MOL0     C14812   5.910   2.510   4.506  0.8338  0.0415 -0.6602
  113MOL0     C14813   6.052   2.515   4.532 -0.1013 -0.4851 -0.3717
  113MOL0     O14814   6.144   2.527   4.428 -0.5863  0.1475 -0.3881
  113MOL0     C14815   6.273   2.552   4.461  0.5163  0.4515 -0.6195
  113MOL0     C14816   6.346   2.462   4.545  0.0165 -0.6032 -0.7745
  113MOL0     C14817   6.484   2.471   4.552  0.2793  0.0817 -0.2904
  113MOL0     C14818   6.552   2.560   4.477  0.4019  0.5664 -0.3048
  113MOL0     O14819   6.686   2.557   4.482 -0.5866  0.5242  0.1627
  113MOL0     C14820   6.738   2.489   4.371  0.1599  0.2889  0.6384
  113MOL0     C14821   6.880   2.442   4.415  0.6203 -0.1629 -1.1236
  113MOL0     C14822   6.946   2.340   4.322 -0.1563  0.7647 -0.4567
  113MOL0     C14823   7.083   2.290   4.373 -0.3577  0.4066  0.4261
  113MOL0     C14824   7.094   2.256   4.526 -0.7210 -0.6285 -0.4534
  113MOL0     C14825   6.996   2.156   4.564  1.2091  0.9747 -0.0275
  113MOL0     C14826   6.973   2.143   4.713  0.6357 -0.2650 -0.6382
  113MOL0     C14827   6.840   2.103   4.757  0.4463  0.3953  0.0841
  113MOL0    Cl14828   6.836   2.088   4.940  0.1054  0.3802 -0.4012
  113MOL0     C14829   6.483   2.650   4.395 -0.3102 -0.0165 -0.8032
  113MOL0     C14830   6.346   2.647   4.391 -0.0272 -0.0013  0.7824
  113MOL0     O14831   6.080   2.492   4.645 -0.3767 -0.3333 -0.5154
  113MOL0     C14832   5.813   2.498   4.606 -0.9454  0.1441  0.5960
  113MOL0     C14833   5.680   2.477   4.576 -0.1431 -0.2822 -0.5679
  113MOL0     N14834   5.179   2.387   3.962 -0.1203  0.4096 -0.1079
  113MOL0     N14835   5.250   2.297   3.905 -0.3052 -0.3060 -0.7854
  113MOL0     C14836   6.233   2.845   3.962 -0.4896  0.2980 -0.4736
  113MOL0     C14837   6.317   2.956   3.958 -0.0788 -0.5330 -1.3789
  113MOL0     C14838   6.667   3.198   4.145 -0.7085 -0.1771  0.1320
  113MOL0     C14839   6.651   3.272   4.265  0.4073 -1.1121  1.2196
  113MOL0     C14840   6.742   3.371   4.290  0.0836  1.0713  0.4521
  113MOL0     C14841   6.848   3.404   4.197  0.8123 -0.6106  0.4041
  113MOL0     O14842   6.946   3.499   4.227 -0.2055  0.5490 -0.5108
  113MOL0     C14843   6.955   3.587   4.338 -0.5744  0.4504 -0.5159
  113MOL0     C14844   7.083   3.663   4.346 -0.2951 -0.1187 -0.8952
  113MOL0     C14845   7.095   3.763   4.231 -0.5109  0.0323  0.9446
  113MOL0     C14846   7.231   3.853   4.223  0.9358 -0.0846 -0.2350
  113MOL0     C14847   7.352   3.771   4.229 -0.1310  0.6287 -0.5740
  113MOL0     C14848   7.459   3.712   4.208  0.3151  0.5748 -0.3993
  113MOL0     C14849   6.871   3.325   4.078  0.0890  1.3088 -0.2544
  113MOL0     C14850   6.768   3.222   4.049 -0.6103 -0.9277  0.0840
  113MOL0     H14851   6.608   2.809   4.006 -0.1576  3.8365  2.2806
  113MOL0     H14852   6.482   2.607   3.972  2.8837  0.1813 -1.8567
  113MOL0     H14853   6.030   2.671   4.039 -0.1812  0.1331 -2.2451
  113MOL0     H14854   6.138   2.562   4.132  1.1790  1.9240  0.0222
  113MOL0     H14855   6.077   2.378   3.979 -0.7220  0.0134  0.6530
  113MOL0     H14856   5.996   2.490   3.881  0.1391 -3.3637 -0.1540
  113MOL0     H14857   5.836   2.509   4.086 -1.1657 -0.9627  1.4460
  113MOL0     H14858   5.935   2.355   4.132  0.4176 -1.2348 -0.3963
  113MOL0     H14859   5.747   2.421   3.918  0.3614  0.5324 -1.2529
  113MOL0     H14860   5.871   2.303   3.879 -1.2678  0.8255 -1.7890
  113MOL0     H14861   5.714   2.276   4.138 -0.1635  1.4539 -0.8306
  113MOL0     H14862   5.808   2.161   4.054 -2.0696 -3.3630 -0.7425
  113MOL0     H14863   5.619   2.169   3.856  0.0259  0.6229 -1.0871
  113MOL0     H14864   5.545   2.289   3.961 -1.3688 -1.7254  0.2771
  113MOL0     H14865   5.588   2.007   4.024 -0.1357  0.9519 -1.8408
  113MOL0     H14866   5.518   2.121   4.146 -3.0987 -1.5419  0.4293
  113MOL0     H14867   5.333   1.997   4.036 -0.9417  0.0776  0.3234
  113MOL0     H14868   5.379   2.055   3.881 -3.6909  1.4518  0.1568
  113MOL0     H14869   5.270   2.202   4.226 -1.0693 -3.4009 -1.3780
  113MOL0     H14870   5.048   2.371   4.265 -0.7918 -0.9069 -0.4904
  113MOL0     H14871   5.023   2.497   4.137 -0.9239  0.8836  2.1511
  113MOL0     H14872   5.117   2.593   4.331 -1.3056 -0.4512  0.8845
  113MOL0     H14873   5.238   2.581   4.184 -0.3138 -0.0023 -0.2458
  113MOL0     H14874   5.242   2.497   4.464 -0.5679  0.5409 -0.6612
  113MOL0     H14875   5.275   2.359   4.366 -1.9694 -1.0096  0.0695
  113MOL0     H14876   5.418   2.630   4.367  2.8041 -0.4018  3.4401
  113MOL0     H14877   5.458   2.489   4.259  0.3964  1.3642 -0.4566
  113MOL0     H14878   5.680   2.530   4.251 -2.3289  2.2006  1.2990
  113MOL0     H14879   5.919   2.552   4.287 -2.3152  0.9886 -1.8528
  113MOL0     H14880   6.284   2.391   4.600 -2.5367  0.1259 -2.5199
  113MOL0     H14881   6.529   2.386   4.602  3.4967  2.2970  0.9244
  113MOL0     H14882   6.758   2.564   4.294  0.1886  2.9274  3.0199
  113MOL0     H14883   6.676   2.408   4.334  1.2028  0.4102 -1.5226
  113MOL0     H14884   6.877   2.399   4.515 -0.8641  0.2836 -0.9502
  113MOL0     H14885   6.937   2.534   4.431  1.8807 -1.4156  2.6458
  113MOL0     H14886   6.972   2.389   4.228  0.7598  1.6451  0.2274
  113MOL0     H14887   6.885   2.251   4.306 -0.9305  1.8104 -4.0306
  113MOL0     H14888   7.116   2.194   4.333 -1.6802 -1.4266  3.3474
  113MOL0     H14889   7.153   2.369   4.344  0.2006 -0.7761 -1.6874
  113MOL0     H14890   7.076   2.349   4.580  3.7153  0.0999  0.1295
  113MOL0     H14891   7.198   2.226   4.542 -0.0341 -0.2032 -3.4183
  113MOL0     H14892   7.035   2.062   4.523  1.1394  2.1032 -2.8879
  113MOL0     H14893   6.907   2.180   4.506  0.8282 -0.7529 -0.2121
  113MOL0     H14894   7.034   2.060   4.750 -1.2856 -0.4563  2.4863
  113MOL0     H14895   7.013   2.229   4.767  0.8963 -0.1967 -0.9378
  113MOL0     H14896   6.818   2.006   4.712  0.0131  1.2865 -1.7139
  113MOL0     H14897   6.761   2.171   4.722 -0.8518 -1.2695 -0.3673
  113MOL0     H14898   6.538   2.726   4.340  0.2019  0.1967 -0.0100
  113MOL0     H14899   6.283   2.717   4.336  1.0648 -0.5546 -1.2754
  113MOL0     H14900   5.849   2.478   4.707 -1.9115 -0.6570  0.7953
  113MOL0     H14901   5.618   2.485   4.665  2.9211  3.6951  1.5144
  113MOL0     H14902   6.125   2.845   3.975 -0.5379  1.0355 -0.8206
  113MOL0     H14903   6.260   3.048   3.966 -3.4183 -2.5819  1.2260
  113MOL0     H14904   6.571   3.262   4.337 -1.7775  2.5562 -0.3731
  113MOL0     H14905   6.726   3.414   4.388  1.7490  0.6373  0.9322
  113MOL0     H14906   6.926   3.524   4.423 -3.5494 -1.2627 -2.6075
  113MOL0     H14907   6.869   3.654   4.337 -0.2959  1.1045  3.5815
  113MOL0     H14908   7.081   3.722   4.438 -1.6430  0.9160 -1.5581
  113MOL0     H14909   7.168   3.594   4.337 -0.1784  0.2469 -3.1117
  113MOL0     H14910   7.010   3.830   4.218  0.5230  1.8706  2.9982
  113MOL0     H14911   7.103   3.705   4.138  0.8417  1.0733  0.3743
  113MOL0     H14912   7.224   3.915   4.133 -3.1411  0.3306  0.1922
  113MOL0     H14913   7.231   3.916   4.313 -2.0361  1.2840 -1.0573
  113MOL0     H14914   7.543   3.646   4.216 -0.5745 -0.4189  0.9867
  113MOL0     H14915   6.945   3.346   4.001 -0.6797 -1.3670 -1.8571
  113MOL0     H14916   6.781   3.166   3.957  1.2386 -3.0516  1.5609
  114MOL0     O14917  10.970   0.067   9.971 -0.0129 -0.3262 -0.2450
  114MOL0     C14918  11.056   0.101  10.048 -0.4477  0.4183  0.5945
  114MOL0     O14919  11.149   0.010  10.111 -0.3902  0.6148 -0.1635
  114MOL0     C14920  11.142  -0.122  10.065  0.1103  0.1074 -0.7091
  114MOL0     C14921  11.176  -0.135   9.929 -0.6791 -0.6157  0.2447
  114MOL0     C14922  11.171  -0.261   9.872 -0.0367  0.6229 -0.7894
  114MOL0     C14923  11.139  -0.377   9.944  0.6581  0.7790  0.3294
  114MOL0     O14924  11.127  -0.495   9.867  0.3958  0.1708  0.1085
  114MOL0     C14925  11.113  -0.621   9.937 -0.5461  0.2908  0.2923
  114MOL0     C14926  11.110  -0.741   9.836 -0.3940 -0.2884 -0.5078
  114MOL0     C14927  11.231  -0.742   9.735 -0.1480  0.5838 -0.2986
  114MOL0     C14928  11.368  -0.765   9.800  0.1246  1.0931  0.2376
  114MOL0     C14929  11.481  -0.824   9.704 -0.5615  0.2279  0.4857
  114MOL0     C14930  11.497  -0.976   9.705  1.3903  1.4750 -0.1097
  114MOL0     C14931  11.626  -1.035   9.648  0.5314  0.3392  0.4427
  114MOL0     C14932  11.623  -1.195   9.639 -0.8560  0.5120 -0.2361
  114MOL0     N14933  11.749  -1.222   9.562  0.6039  0.1133 -0.0364
  114MOL0     C14934  11.754  -1.222   9.422 -0.2195 -0.1159 -0.6678
  114MOL0     C14935  11.892  -1.219   9.408 -0.1148  0.4166 -0.3602
  114MOL0     C14936  11.974  -1.232   9.284 -0.5112  0.0024  0.3991
  114MOL0     C14937  11.925  -1.141   9.166  0.2389 -0.2422 -0.1544
  114MOL0     C14938  12.019  -1.145   9.047  0.2866  0.2509 -0.4392
  114MOL0     C14939  11.992  -1.261   8.942  0.7062 -0.1175  0.1794
  114MOL0     O14940  11.859  -1.303   8.938  0.1314 -0.3023  0.6447
  114MOL0     C14941  11.817  -1.395   8.843  0.2624 -0.6917 -0.4690
  114MOL0     C14942  11.690  -1.396   8.794  1.1044 -0.2247 -0.7148
  114MOL0     C14943  11.639  -1.506   8.721  0.6184  0.4914  0.1964
  114MOL0     C14944  11.713  -1.624   8.706  0.2561 -0.1028 -1.0536
  114MOL0     C14945  11.656  -1.741   8.638  0.3248 -0.6267 -0.1752
  114MOL0     O14946  11.517  -1.745   8.623  0.0507  0.2993 -0.0253
  114MOL0     C14947  11.464  -1.863   8.570 -0.2921  0.3466 -0.7775
  114MOL0     C14948  11.351  -1.921   8.630  0.5643  0.6584 -0.5702
  114MOL0     C14949  11.278  -2.014   8.558  0.0501 -1.1166  0.5642
  114MOL0     C14950  11.326  -2.050   8.423  0.6307 -0.7323 -0.3347
  114MOL0     O14951  11.262  -2.126   8.333  0.3689  0.7223 -0.5155
  114MOL0     C14952  11.119  -2.108   8.328 -1.2697  0.1894  0.4497
  114MOL0     C14953  11.069  -2.209   8.215 -0.2432  0.0242  0.6855
  114MOL0     C14954  11.100  -2.366   8.212  0.3661  0.7886 -0.4100
  114MOL0     C14955  11.031  -2.431   8.084 -0.7250 -0.8516 -0.4380
  114MOL0     C14956  11.091  -2.565   8.043 -0.0845 -0.5680  0.2686
  114MOL0     C14957  11.046  -2.674   8.141 -0.6870 -0.2034  0.0598
  114MOL0     C14958  11.126  -2.809   8.118 -0.5070  0.9155  1.4485
  114MOL0     C14959  11.077  -2.917   8.220  0.1937 -0.7718  0.4691
  114MOL0    Cl14960  11.114  -2.870   8.384  0.4110  0.2292 -0.5067
  114MOL0     C14961  11.451  -2.008   8.379  0.2704  1.4569 -0.6954
  114MOL0     C14962  11.518  -1.918   8.453  0.0072 -0.2362 -0.1583
  114MOL0     O14963  11.741  -1.833   8.608 -0.0717  0.6539  0.3179
  114MOL0     C14964  11.844  -1.622   8.767  0.8419 -0.3978 -0.2071
  114MOL0     C14965  11.894  -1.509   8.827  0.5128  0.6236 -0.0220
  114MOL0     N14966  11.955  -1.200   9.526  0.1071  0.1539 -0.1699
  114MOL0     N14967  11.871  -1.221   9.618  0.8758 -0.0446 -0.0165
  114MOL0     C14968  11.105  -0.356  10.076  0.1338  1.5494  1.0706
  114MOL0     C14969  11.103  -0.233  10.143  0.9656 -0.1013 -0.5099
  114MOL0     C14970  11.058   0.244  10.081  0.5314  0.6088 -0.3050
  114MOL0     C14971  10.989   0.333   9.995  0.7429 -0.6005 -0.2049
  114MOL0     C14972  10.995   0.472  10.015  0.3031  0.0116  0.5815
  114MOL0     C14973  11.076   0.518  10.116  0.1400 -0.8996 -0.3720
  114MOL0     O14974  11.072   0.649  10.163  0.6982 -1.2121  0.3215
  114MOL0     C14975  10.991   0.741  10.093 -0.3971 -0.2576 -0.2290
  114MOL0     C14976  10.989   0.877  10.164  0.7031  0.1951 -1.0178
  114MOL0     C14977  10.918   0.967  10.059 -0.0342 -0.0045  0.3519
  114MOL0     C14978  10.879   1.110  10.112  1.0097 -0.7766 -0.1780
  114MOL0     C14979  11.000   1.182  10.141  0.5052  0.1745 -0.8055
  114MOL0     C14980  11.107   1.231  10.162 -0.3939 -0.1948 -0.4548
  114MOL0     C14981  11.149   0.426  10.203  0.1589  0.4637 -0.2540
  114MOL0     C14982  11.143   0.295  10.184 -0.8515  0.2109  0.7002
  114MOL0     H14983  11.195  -0.050   9.864 -1.5587  1.4024  2.4860
  114MOL0     H14984  11.187  -0.265   9.765  1.6378  0.4310 -0.5520
  114MOL0     H14985  11.021  -0.628   9.997  1.9719 -2.3579  4.3135
  114MOL0     H14986  11.198  -0.650   9.999 -0.1331 -1.0586 -0.8427
  114MOL0     H14987  11.024  -0.726   9.771  1.6681 -0.5401 -3.5233
  114MOL0     H14988  11.113  -0.835   9.891  1.3907  1.0125  1.8148
  114MOL0     H14989  11.231  -0.655   9.668 -2.4954 -1.0145 -2.5540
  114MOL0     H14990  11.217  -0.827   9.667 -0.8293  0.9262 -0.6017
  114MOL0     H14991  11.399  -0.665   9.831  0.5023  0.8973  0.4941
  114MOL0     H14992  11.374  -0.831   9.887  2.9806 -1.2192 -1.5720
  114MOL0     H14993  11.570  -0.770   9.738 -2.6048  4.3896 -0.1214
  114MOL0     H14994  11.479  -0.788   9.600  0.3361  0.0286  0.3888
  114MOL0     H14995  11.423  -1.022   9.639 -0.0861 -1.0747  3.0642
  114MOL0     H14996  11.473  -1.014   9.805 -0.5309  1.2085 -0.6446
  114MOL0     H14997  11.648  -0.998   9.548  2.2901 -0.2933  0.5613
  114MOL0     H14998  11.713  -1.012   9.712  0.0628 -0.1591  1.2856
  114MOL0     H14999  11.541  -1.250   9.592  1.5001 -4.5349  0.8840
  114MOL0     H15000  11.640  -1.232   9.740  1.1726  1.4172 -0.2033
  114MOL0     H15001  11.673  -1.230   9.351  0.3988  0.9580 -1.5320
  114MOL0     H15002  11.961  -1.335   9.251 -2.6917 -0.1486  1.5211
  114MOL0     H15003  12.077  -1.202   9.304 -0.1955 -0.6243 -0.2603
  114MOL0     H15004  11.948  -1.039   9.199  4.0728 -1.9443  3.2795
  114MOL0     H15005  11.821  -1.161   9.137  0.6925 -2.8518 -0.1745
  114MOL0     H15006  12.018  -1.049   8.994  3.3227 -0.3896 -1.8203
  114MOL0     H15007  12.123  -1.139   9.080  0.3559 -0.5177 -0.5098
  114MOL0     H15008  12.058  -1.336   8.985 -0.7967 -0.4982  1.9214
  114MOL0     H15009  12.031  -1.219   8.848  2.6514  0.2240  1.1063
  114MOL0     H15010  11.617  -1.317   8.812  1.2846 -0.1650 -0.2031
  114MOL0     H15011  11.541  -1.495   8.675  0.5911 -1.6711 -0.3994
  114MOL0     H15012  11.312  -1.882   8.724 -1.5808  1.5235 -1.7261
  114MOL0     H15013  11.185  -2.057   8.594 -1.9255  1.6394 -0.8887
  114MOL0     H15014  11.096  -2.005   8.299  3.2005  0.6969 -2.3393
  114MOL0     H15015  11.077  -2.124   8.427  0.3420 -0.9965  1.0017
  114MOL0     H15016  11.104  -2.167   8.120 -1.0207  3.2092  1.6855
  114MOL0     H15017  10.963  -2.185   8.224 -0.1621  0.9316 -0.4220
  114MOL0     H15018  11.067  -2.415   8.303  0.2056 -0.1464 -0.9636
  114MOL0     H15019  11.208  -2.384   8.218  0.5524  2.2595  2.0731
  114MOL0     H15020  10.924  -2.444   8.102 -1.4797 -0.0524 -3.6349
  114MOL0     H15021  11.045  -2.363   7.999  2.2202  0.6135  1.0750
  114MOL0     H15022  11.200  -2.564   8.053 -0.1418 -1.7306  1.2968
  114MOL0     H15023  11.072  -2.597   7.940  1.2909  1.0237 -0.5225
  114MOL0     H15024  10.938  -2.695   8.142 -0.7043 -0.0979  0.3439
  114MOL0     H15025  11.073  -2.630   8.237 -0.9760 -0.4258  0.2455
  114MOL0     H15026  11.118  -2.843   8.015  2.2894  2.4594  0.6190
  114MOL0     H15027  11.232  -2.795   8.141  0.1336 -0.1107 -0.6811
  114MOL0     H15028  11.116  -3.016   8.196 -4.2308 -1.8840 -3.7806
  114MOL0     H15029  10.968  -2.926   8.209  0.3895 -0.9152 -1.8375
  114MOL0     H15030  11.490  -2.050   8.287 -1.9365 -0.7001 -0.7557
  114MOL0     H15031  11.602  -1.862   8.413  0.7220 -0.4044  1.0475
  114MOL0     H15032  11.904  -1.712   8.760  1.1859 -0.1313 -0.7561
  114MOL0     H15033  11.994  -1.525   8.866 -1.4751 -0.7935  5.2945
  114MOL0     H15034  11.076  -0.445  10.131  0.9711  1.5530  1.5416
  114MOL0     H15035  11.066  -0.228  10.245  2.5061  2.0950  0.0035
  114MOL0     H15036  10.943   0.306   9.900 -1.7179  4.4450 -0.7727
  114MOL0     H15037  10.957   0.538   9.938  0.0940 -1.4943 -0.6594
  114MOL0     H15038  10.892   0.699  10.069  0.4583 -1.2620 -2.3097
  114MOL0     H15039  11.033   0.745   9.992 -2.0240 -0.8075 -0.9643
  114MOL0     H15040  10.927   0.870  10.254  2.3023  2.6122  0.3852
  114MOL0     H15041  11.092   0.910  10.180  0.0979  1.4087  0.6891
  114MOL0     H15042  10.825   0.922  10.022 -1.1525  0.6161  2.2723
  114MOL0     H15043  10.974   0.972   9.965 -3.6394 -1.3590 -2.1239
  114MOL0     H15044  10.817   1.168  10.042 -0.2937 -0.6247  1.0541
  114MOL0     H15045  10.821   1.097  10.204 -1.5166  0.2434 -1.5330
  114MOL0     H15046  11.209   1.255  10.188 -0.3944  0.2576 -0.8623
  114MOL0     H15047  11.209   0.459  10.287 -0.0894 -0.6831  0.3978
  114MOL0     H15048  11.190   0.217  10.243  2.6366 -0.3702 -2.4381
  115MOL0     O15049   3.050   6.086  11.119  0.6533 -0.4102  0.4651
  115MOL0     C15050   3.044   6.116  11.238 -0.9930  0.5858 -0.1620
  115MOL0     O15051   3.153   6.153  11.311  0.1690 -0.1755  0.3763
  115MOL0     C15052   3.277   6.176  11.252  0.2217 -1.8269  0.2428
  115MOL0     C15053   3.334   6.109  11.139  0.4632  0.3336  0.1614
  115MOL0     C15054   3.473   6.135  11.107  0.1061 -0.6891 -0.7247
  115MOL0     C15055   3.535   6.244  11.171 -0.2890  0.1377 -0.1708
  115MOL0     O15056   3.670   6.259  11.163  0.4487  0.2763  0.2920
  115MOL0     C15057   3.743   6.192  11.267  1.0908  0.0318  1.0667
  115MOL0     C15058   3.886   6.205  11.237 -1.2911  0.1828  0.2127
  115MOL0     C15059   3.955   6.096  11.139  0.3377 -0.1339  0.3680
  115MOL0     C15060   3.984   6.151  10.998 -0.7244  0.3661 -0.8361
  115MOL0     C15061   4.093   6.050  10.937  1.0331  0.1923 -1.1418
  115MOL0     C15062   4.151   6.093  10.805  0.3141 -0.2852 -0.9069
  115MOL0     C15063   4.065   6.061  10.684  0.7024  0.3009  0.2029
  115MOL0     C15064   4.163   6.015  10.579 -0.2399 -0.0284 -0.6259
  115MOL0     N15065   4.244   6.127  10.519  0.3478 -0.9465  0.0364
  115MOL0     C15066   4.210   6.197  10.398 -0.5964  0.6670 -0.8285
  115MOL0     C15067   4.322   6.275  10.378 -0.4484 -0.3821 -0.6469
  115MOL0     C15068   4.347   6.343  10.248  0.2432  0.6975  0.3877
  115MOL0     C15069   4.386   6.237  10.139  0.7059 -0.3327 -0.1736
  115MOL0     C15070   4.528   6.258  10.087 -0.2460  0.3235 -0.7221
  115MOL0     C15071   4.627   6.200  10.202  0.1336  0.0309  0.6461
  115MOL0     O15072   4.716   6.116  10.132 -0.1342  0.5480 -0.1651
  115MOL0     C15073   4.819   6.178  10.065  0.1097  0.7787 -0.9402
  115MOL0     C15074   4.904   6.091   9.993 -0.3442 -0.0399 -0.0253
  115MOL0     C15075   5.013   6.139   9.922  0.3086  0.2271  0.4050
  115MOL0     C15076   5.041   6.275   9.920 -0.0527 -0.6214 -0.0979
  115MOL0     C15077   5.156   6.325   9.846 -0.0314 -0.2268  0.2088
  115MOL0     O15078   5.143   6.453   9.787  0.3217  0.2832 -0.8787
  115MOL0     C15079   5.238   6.512   9.719  1.0436  0.1481 -0.2156
  115MOL0     C15080   5.234   6.649   9.721  0.7824 -0.3370 -0.5991
  115MOL0     C15081   5.318   6.723   9.644  0.5334  0.0577 -1.1252
  115MOL0     C15082   5.403   6.666   9.546  0.5151 -0.0046 -0.1267
  115MOL0     O15083   5.490   6.732   9.461 -0.3854  0.2823 -0.3225
  115MOL0     C15084   5.513   6.878   9.477 -1.5076  1.1383  0.5410
  115MOL0     C15085   5.617   6.914   9.371  0.7204 -0.7687  0.3725
  115MOL0     C15086   5.637   7.070   9.348 -0.1415  0.8045 -0.7479
  115MOL0     C15087   5.752   7.122   9.441 -0.3867 -0.2883 -0.6327
  115MOL0     C15088   5.893   7.112   9.376  0.3813  0.4831 -0.4092
  115MOL0     C15089   5.998   7.172   9.467 -0.1522 -0.6886 -0.4311
  115MOL0     C15090   6.136   7.152   9.414 -0.3746  0.1012 -0.0786
  115MOL0     C15091   6.250   7.202   9.504  0.4967 -1.4663  0.0055
  115MOL0    Cl15092   6.402   7.119   9.468 -0.6189  0.5336 -0.2594
  115MOL0     C15093   5.405   6.521   9.536  0.4487 -0.4096 -0.1832
  115MOL0     C15094   5.322   6.446   9.628  0.0326  0.0650  1.3658
  115MOL0     O15095   5.251   6.253   9.839  0.9508 -0.0729 -0.6129
  115MOL0     C15096   4.952   6.356   9.993  0.4425  0.4521  0.3471
  115MOL0     C15097   4.843   6.313  10.068 -0.7752  0.8998 -1.6835
  115MOL0     N15098   4.420   6.249  10.476  1.1567 -0.4867 -0.4868
  115MOL0     N15099   4.370   6.167  10.555 -0.3946  0.0782  0.1605
  115MOL0     C15100   3.478   6.315  11.268 -0.1560 -0.1975 -0.1682
  115MOL0     C15101   3.354   6.274  11.319 -0.8125  0.7348 -0.5758
  115MOL0     C15102   2.917   6.116  11.308 -0.1402 -0.3769  1.1585
  115MOL0     C15103   2.806   6.128  11.229  0.5726  0.6635  0.0922
  115MOL0     C15104   2.681   6.124  11.285  0.0538  0.6691  0.1846
  115MOL0     C15105   2.660   6.106  11.420 -0.6150  0.7342  0.5534
  115MOL0     O15106   2.535   6.089  11.472  0.8378  0.2834 -0.0923
  115MOL0     C15107   2.506   6.030  11.602 -0.0924 -0.3863  0.8620
  115MOL0     C15108   2.528   5.872  11.596  0.5620  1.5218  0.5522
  115MOL0     C15109   2.588   5.830  11.724 -0.0275 -0.6408 -0.1590
  115MOL0     C15110   2.590   5.681  11.734  0.0190  0.0703 -0.0697
  115MOL0     C15111   2.664   5.641  11.857 -0.4393  0.0531 -0.4726
  115MOL0     C15112   2.713   5.607  11.962 -0.6530 -0.1528 -1.0145
  115MOL0     C15113   2.777   6.091  11.498 -0.6047 -0.6097  0.2168
  115MOL0     C15114   2.901   6.093  11.443 -0.4290 -0.2285 -0.4249
  115MOL0     H15115   3.276   6.024  11.103 -1.5470  1.7966 -0.2263
  115MOL0     H15116   3.527   6.062  11.047 -0.2819 -1.7512  0.1675
  115MOL0     H15117   3.705   6.091  11.287 -2.1943  1.1920  1.3098
  115MOL0     H15118   3.714   6.250  11.355  1.7914  0.1378  1.2297
  115MOL0     H15119   3.943   6.175  11.325 -0.0651 -3.1601 -1.5330
  115MOL0     H15120   3.919   6.308  11.219  1.4107 -0.6206  0.1388
  115MOL0     H15121   3.909   5.997  11.133 -0.8182  0.4166 -0.1857
  115MOL0     H15122   4.051   6.077  11.187  0.5108 -0.4507 -0.1006
  115MOL0     H15123   3.892   6.154  10.940 -2.1059 -0.9519  1.1613
  115MOL0     H15124   4.028   6.251  10.999 -0.1999  0.1546  0.8070
  115MOL0     H15125   4.046   5.953  10.923  0.3290  0.6413 -1.9703
  115MOL0     H15126   4.178   6.044  11.006  3.1451 -1.8122 -3.7093
  115MOL0     H15127   4.250   6.048  10.790 -0.8178 -3.0263 -0.6921
  115MOL0     H15128   4.170   6.201  10.812 -0.6923 -0.2113  1.7765
  115MOL0     H15129   3.998   5.977  10.703 -2.2696  2.1793 -1.2915
  115MOL0     H15130   4.002   6.147  10.660  2.8351  2.0900  0.5712
  115MOL0     H15131   4.095   5.964  10.511 -0.4262 -1.7204  0.7501
  115MOL0     H15132   4.233   5.947  10.628  2.5411  3.5569  0.8692
  115MOL0     H15133   4.123   6.178  10.335  1.2823  1.8490 -4.0246
  115MOL0     H15134   4.434   6.407  10.263  2.2044 -0.9754 -2.6884
  115MOL0     H15135   4.260   6.401  10.216 -2.1929 -2.5584  0.6262
  115MOL0     H15136   4.329   6.260  10.048  3.7994  2.2204 -1.6650
  115MOL0     H15137   4.381   6.137  10.183  3.3916  0.2206  1.6299
  115MOL0     H15138   4.545   6.200   9.996 -0.6787  0.1764 -0.7135
  115MOL0     H15139   4.539   6.366  10.076 -4.2293  0.7971 -1.6784
  115MOL0     H15140   4.561   6.142  10.267 -0.5042 -0.6936 -0.6090
  115MOL0     H15141   4.664   6.277  10.270  0.9990  1.3136 -1.1684
  115MOL0     H15142   4.873   5.987   9.990  3.0724 -1.1779 -0.2341
  115MOL0     H15143   5.078   6.065   9.877 -1.5936 -1.1380 -0.1836
  115MOL0     H15144   5.154   6.692   9.779 -0.4665 -0.0369 -2.4604
  115MOL0     H15145   5.313   6.831   9.651  2.7155  0.1271  3.7346
  115MOL0     H15146   5.551   6.906   9.576 -2.1321 -0.5648  1.2909
  115MOL0     H15147   5.422   6.934   9.453 -0.8241  2.6730  1.3350
  115MOL0     H15148   5.576   6.877   9.277 -2.9910 -0.4664  1.7341
  115MOL0     H15149   5.708   6.857   9.396  2.3216  0.1888 -2.7368
  115MOL0     H15150   5.546   7.124   9.376 -1.5928 -1.7351 -0.3078
  115MOL0     H15151   5.675   7.085   9.246  0.6999  0.2807 -0.5211
  115MOL0     H15152   5.730   7.228   9.451 -0.5477 -0.4970  1.7918
  115MOL0     H15153   5.744   7.074   9.539 -1.5744 -1.4535 -1.2522
  115MOL0     H15154   5.907   7.174   9.288  0.1635 -1.6312 -2.0089
  115MOL0     H15155   5.914   7.008   9.351  0.2915  0.1175  0.9264
  115MOL0     H15156   5.993   7.133   9.569 -0.4407  1.1899  0.3133
  115MOL0     H15157   5.969   7.277   9.476  3.7832  0.5856 -0.6391
  115MOL0     H15158   6.147   7.044   9.405  1.2182  0.2492 -0.2607
  115MOL0     H15159   6.149   7.194   9.313 -0.0643 -2.1086 -1.0130
  115MOL0     H15160   6.232   7.178   9.610  1.5839 -0.4563  0.4448
  115MOL0     H15161   6.276   7.307   9.488  1.5005 -1.9020 -1.3617
  115MOL0     H15162   5.474   6.472   9.469 -1.2743 -4.3806  0.6178
  115MOL0     H15163   5.334   6.339   9.616 -1.7298  0.0866 -1.4881
  115MOL0     H15164   4.976   6.461  10.009  0.8177  0.5200 -0.6189
  115MOL0     H15165   4.779   6.385  10.119  2.2346  1.9989  0.8688
  115MOL0     H15166   3.528   6.396  11.318  1.5060  0.0010 -2.0380
  115MOL0     H15167   3.313   6.336  11.397 -2.6774 -0.7423 -0.3131
  115MOL0     H15168   2.817   6.136  11.122 -0.5671  0.4418 -0.0524
  115MOL0     H15169   2.590   6.147  11.230  0.2369  0.6939 -0.1162
  115MOL0     H15170   2.398   6.038  11.619 -0.3112 -0.6574 -0.2892
  115MOL0     H15171   2.558   6.066  11.691 -0.0540 -1.2403  1.1990
  115MOL0     H15172   2.429   5.832  11.575  0.4057  1.9703  0.4264
  115MOL0     H15173   2.597   5.834  11.520  2.0387  1.6620  1.7604
  115MOL0     H15174   2.521   5.858  11.806 -0.2967 -3.8433  0.8353
  115MOL0     H15175   2.680   5.888  11.736  0.2530 -1.0695 -0.2142
  115MOL0     H15176   2.492   5.633  11.727  1.6425 -3.6915  0.2371
  115MOL0     H15177   2.652   5.646  11.651  2.6740 -2.2594  2.6656
  115MOL0     H15178   2.738   5.560  12.055  3.1007  3.1117 -0.0973
  115MOL0     H15179   2.778   6.084  11.606  3.1703 -0.9491  0.2626
  115MOL0     H15180   2.988   6.080  11.506 -1.2615  0.6956  0.9768
  116MOL0     O15181   0.527   2.283   9.677  0.2567  0.0371 -0.6326
  116MOL0     C15182   0.503   2.387   9.740  0.8387 -0.0246  0.0179
  116MOL0     O15183   0.462   2.396   9.878 -0.5403 -0.0430  0.3797
  116MOL0     C15184   0.446   2.278   9.945  0.0919  0.5506  0.5003
  116MOL0     C15185   0.371   2.170   9.896 -0.3569 -0.4574  0.1609
  116MOL0     C15186   0.358   2.047   9.969 -0.4147  0.5673 -0.6801
  116MOL0     C15187   0.439   2.022  10.089  0.1467 -0.3205 -0.0361
  116MOL0     O15188   0.445   1.900  10.150 -0.4175  0.5119  0.4310
  116MOL0     C15189   0.497   1.878  10.282  0.0007 -0.9203  0.3899
  116MOL0     C15190   0.659   1.873  10.280 -0.2653  0.1952  0.6709
  116MOL0     C15191   0.711   1.728  10.240 -0.1338 -0.2782  0.6775
  116MOL0     C15192   0.863   1.701  10.265  0.1560 -0.9987 -0.0389
  116MOL0     C15193   0.950   1.768  10.158 -0.2391  0.6288 -1.0380
  116MOL0     C15194   1.012   1.909  10.197 -0.3759  0.2734  0.1244
  116MOL0     C15195   1.116   1.900  10.317  0.6206 -0.3197 -0.6710
  116MOL0     C15196   1.204   2.017  10.307 -0.1037 -0.3714  0.8529
  116MOL0     N15197   1.299   2.032  10.420  0.7830 -0.1143 -0.7956
  116MOL0     C15198   1.390   1.942  10.450 -0.8551  0.0420 -0.9735
  116MOL0     C15199   1.475   1.999  10.538  0.3999 -0.0719 -0.5279
  116MOL0     C15200   1.592   1.938  10.610 -0.8556 -0.0614  0.4006
  116MOL0     C15201   1.714   2.023  10.611  0.2322  0.0350  0.6543
  116MOL0     C15202   1.833   1.954  10.686 -0.4678 -0.1126  0.6264
  116MOL0     C15203   1.963   2.025  10.649 -0.1937  0.1282 -0.1261
  116MOL0     O15204   1.957   2.164  10.679  0.4621 -0.3326 -0.4651
  116MOL0     C15205   2.086   2.219  10.699  0.2689 -0.2563  0.6037
  116MOL0     C15206   2.091   2.338  10.759 -0.3433  0.1808 -0.2801
  116MOL0     C15207   2.215   2.403  10.781 -0.7967  0.3552 -0.0895
  116MOL0     C15208   2.333   2.348  10.735  0.6384 -0.6304  0.6821
  116MOL0     C15209   2.463   2.418  10.755  1.2920  0.1711  0.3894
  116MOL0     O15210   2.450   2.547  10.800  0.0660  0.3746  0.7389
  116MOL0     C15211   2.554   2.625  10.836  0.0220  0.6149 -0.0550
  116MOL0     C15212   2.664   2.578  10.910  0.3556 -1.0761  0.0401
  116MOL0     C15213   2.772   2.654  10.943  0.2977 -0.7104 -0.1477
  116MOL0     C15214   2.775   2.781  10.896 -0.1704 -0.7017 -0.5377
  116MOL0     O15215   2.887   2.852  10.932  0.5337  0.6288  0.0876
  116MOL0     C15216   2.932   2.958  10.850  0.1157  0.7848  0.3384
  116MOL0     C15217   3.065   3.000  10.887 -0.5270  0.0904  1.0919
  116MOL0     C15218   3.078   3.049  11.031 -0.0747 -0.6265 -0.1730
  116MOL0     C15219   3.206   3.129  11.041  0.4378 -0.5581 -0.2250
  116MOL0     C15220   3.225   3.182  11.183  0.1214  0.8782 -0.5429
  116MOL0     C15221   3.301   3.319  11.186 -0.4899 -0.7000  1.4276
  116MOL0     C15222   3.271   3.366  11.324  0.2858  0.8235 -1.3851
  116MOL0     C15223   3.346   3.493  11.347 -0.3465 -0.0557 -0.1081
  116MOL0    Cl15224   3.303   3.615  11.224 -0.0014  0.3792 -0.2354
  116MOL0     C15225   2.662   2.841  10.831  0.2773  0.0149 -0.2715
  116MOL0     C15226   2.553   2.761  10.803 -0.5725  0.0866 -0.6734
  116MOL0     O15227   2.565   2.362  10.717  0.6400 -0.0025  0.2084
  116MOL0     C15228   2.329   2.230  10.658 -0.7513  0.2095 -0.9673
  116MOL0     C15229   2.201   2.162  10.647 -0.8021 -0.0194  0.0092
  116MOL0     N15230   1.426   2.119  10.557 -0.2612  0.7274 -0.7423
  116MOL0     N15231   1.328   2.144  10.489 -0.5879 -0.3196  0.4539
  116MOL0     C15232   0.515   2.134  10.137 -0.5482  0.4950 -0.5061
  116MOL0     C15233   0.509   2.258  10.068 -1.1294  0.3126  0.1710
  116MOL0     C15234   0.511   2.521   9.673  0.5202 -0.1013 -0.7945
  116MOL0     C15235   0.495   2.644   9.743  1.1956 -0.2619 -0.1616
  116MOL0     C15236   0.515   2.760   9.673 -0.0616 -0.7180  0.2164
  116MOL0     C15237   0.531   2.757   9.535 -0.9929  0.0168 -0.0687
  116MOL0     O15238   0.528   2.870   9.457 -0.2707 -0.4052 -0.6324
  116MOL0     C15239   0.662   2.918   9.445  0.0560 -0.3158 -0.0478
  116MOL0     C15240   0.730   2.910   9.300 -0.8159 -0.6700 -0.1000
  116MOL0     C15241   0.789   2.768   9.263  0.5092 -0.7216  0.9862
  116MOL0     C15242   0.873   2.767   9.128  0.1022 -0.2361 -0.0936
  116MOL0     C15243   0.957   2.883   9.115 -0.8671  0.9303 -0.2635
  116MOL0     C15244   1.035   2.969   9.115 -0.1807  0.8503 -0.3776
  116MOL0     C15245   0.537   2.637   9.467 -0.2721 -0.7065 -0.4785
  116MOL0     C15246   0.531   2.519   9.538 -0.4023  0.1752  0.1143
  116MOL0     H15247   0.320   2.191   9.802 -1.9375 -2.5965  0.4555
  116MOL0     H15248   0.300   1.965   9.927 -1.0975  0.8552 -0.3229
  116MOL0     H15249   0.465   1.782  10.322 -0.8314 -0.0006  2.0821
  116MOL0     H15250   0.464   1.952  10.356 -0.8990 -0.3519 -0.5524
  116MOL0     H15251   0.695   1.906  10.378 -1.2176  1.0679  0.7417
  116MOL0     H15252   0.705   1.932  10.200 -1.3055 -1.0278 -0.8814
  116MOL0     H15253   0.690   1.707  10.135 -0.6672 -0.5145  0.8268
  116MOL0     H15254   0.655   1.658  10.303  1.3498 -1.5459  0.6485
  116MOL0     H15255   0.887   1.741  10.364  0.3321  0.4176 -0.6258
  116MOL0     H15256   0.897   1.597  10.264  1.4586 -0.6034  0.5786
  116MOL0     H15257   0.891   1.778  10.066 -4.3482 -0.4336  1.2072
  116MOL0     H15258   1.029   1.697  10.133 -1.9631 -0.9861 -2.1319
  116MOL0     H15259   0.928   1.971  10.229 -1.5847 -1.3089  0.1500
  116MOL0     H15260   1.044   1.936  10.096 -2.5359 -2.6728 -1.5378
  116MOL0     H15261   1.062   1.899  10.412 -0.0750 -2.2109 -1.0497
  116MOL0     H15262   1.176   1.809  10.308 -1.0685 -1.5056 -0.3908
  116MOL0     H15263   1.131   2.098  10.303 -1.6240 -1.6506 -3.5886
  116MOL0     H15264   1.255   2.016  10.210 -2.1019  0.4798 -0.2847
  116MOL0     H15265   1.397   1.837  10.422 -0.3681 -0.7348  1.7836
  116MOL0     H15266   1.614   1.843  10.559 -1.6632  0.2280 -0.5159
  116MOL0     H15267   1.562   1.911  10.711 -4.2251  2.0652  0.1018
  116MOL0     H15268   1.695   2.127  10.639  2.5262  0.0370  2.5924
  116MOL0     H15269   1.737   2.018  10.505  1.5114  1.2399  0.8400
  116MOL0     H15270   1.811   1.957  10.793 -1.9829 -3.5349  0.5147
  116MOL0     H15271   1.863   1.852  10.661  0.1284  0.6331 -2.0686
  116MOL0     H15272   1.960   2.015  10.540 -1.2900  3.9791 -0.6137
  116MOL0     H15273   2.044   1.977  10.704  0.9692  4.6134  2.6320
  116MOL0     H15274   2.003   2.387  10.798 -1.0303 -1.0364 -0.2532
  116MOL0     H15275   2.210   2.493  10.841 -0.0486  0.5415 -0.2943
  116MOL0     H15276   2.658   2.476  10.945 -0.0045 -0.9995  0.2145
  116MOL0     H15277   2.841   2.612  11.015 -0.1237 -3.2710 -1.1452
  116MOL0     H15278   2.857   3.038  10.847 -1.0823 -0.2397  1.7483
  116MOL0     H15279   2.934   2.911  10.751 -0.8116 -1.9075  1.4899
  116MOL0     H15280   3.102   3.081  10.823 -0.9984 -0.4696  0.0726
  116MOL0     H15281   3.131   2.914  10.873 -0.1819  0.4585  0.3360
  116MOL0     H15282   3.078   2.965  11.101  3.4392  0.1484  0.9385
  116MOL0     H15283   2.990   3.110  11.055 -0.5709 -1.5731  0.5056
  116MOL0     H15284   3.293   3.076  11.001  0.2088 -0.4288 -0.9219
  116MOL0     H15285   3.199   3.216  10.974 -1.8502  2.4904  3.5458
  116MOL0     H15286   3.287   3.109  11.235 -3.4392 -1.7097  0.4744
  116MOL0     H15287   3.131   3.178  11.239  1.5870  1.6033  2.1432
  116MOL0     H15288   3.256   3.377  11.105  1.0085 -0.3727  0.8103
  116MOL0     H15289   3.409   3.310  11.176 -0.5286 -0.8367  1.1319
  116MOL0     H15290   3.165   3.390  11.336  1.0882  3.4815  1.7065
  116MOL0     H15291   3.299   3.306  11.411  4.0535  1.9932 -1.6029
  116MOL0     H15292   3.454   3.477  11.354 -0.0894  0.8315 -1.5102
  116MOL0     H15293   3.321   3.535  11.444 -1.6486  1.3520 -0.9992
  116MOL0     H15294   2.667   2.944  10.799  0.7502 -0.2280 -1.0292
  116MOL0     H15295   2.455   2.783  10.762 -0.9628 -0.2127  0.0836
  116MOL0     H15296   2.418   2.190  10.609 -0.4553 -2.2237  1.3202
  116MOL0     H15297   2.201   2.064  10.599 -3.1118 -1.0316  1.8903
  116MOL0     H15298   0.583   2.121  10.220 -0.2922 -0.2464 -0.8246
  116MOL0     H15299   0.578   2.334  10.104 -1.4417  0.3267  0.7525
  116MOL0     H15300   0.476   2.642   9.850  0.0415 -1.9658 -0.3569
  116MOL0     H15301   0.506   2.856   9.722 -1.4147 -0.8658  0.2905
  116MOL0     H15302   0.733   2.864   9.508 -0.8421  0.6929  1.8998
  116MOL0     H15303   0.670   3.023   9.476  2.7385 -1.2618  3.0047
  116MOL0     H15304   0.654   2.948   9.231 -2.4015 -0.8277  1.4943
  116MOL0     H15305   0.810   2.984   9.308 -1.3544 -0.2539  2.2095
  116MOL0     H15306   0.695   2.714   9.247 -0.2747  0.8531 -0.1012
  116MOL0     H15307   0.839   2.721   9.348  2.1700 -1.5179 -0.3663
  116MOL0     H15308   0.936   2.680   9.107 -1.1785 -0.8801 -1.4210
  116MOL0     H15309   0.798   2.757   9.050 -0.3885  0.0245  0.3372
  116MOL0     H15310   1.109   3.047   9.112  0.2726  0.3992 -1.4631
  116MOL0     H15311   0.558   2.627   9.361  0.5201 -1.5988 -0.2576
  116MOL0     H15312   0.554   2.429   9.482 -2.0674 -1.3244  1.6813
  117MOL0     O15313   6.942   3.934   6.769 -0.1409  0.4983 -0.1154
  117MOL0     C15314   6.871   4.001   6.700  0.7013  0.0954 -0.0162
  117MOL0     O15315   6.787   4.109   6.736 -0.6958 -0.2424 -0.2244
  117MOL0     C15316   6.773   4.116   6.872 -0.7707  0.3538 -0.0530
  117MOL0     C15317   6.802   4.236   6.938  0.4426  0.1269  0.2474
  117MOL0     C15318   6.798   4.256   7.069  0.7385  0.7891  1.1531
  117MOL0     C15319   6.770   4.145   7.154  0.7571  0.8378  0.7908
  117MOL0     O15320   6.773   4.151   7.291 -0.1443 -0.4838  0.0210
  117MOL0     C15321   6.685   4.234   7.367  0.2779  0.0779  0.1777
  117MOL0     C15322   6.728   4.249   7.520 -0.2225  0.0162 -0.1384
  117MOL0     C15323   6.711   4.109   7.591 -1.1869 -0.3550  0.5853
  117MOL0     C15324   6.576   4.092   7.658 -0.2312  0.4783  0.3067
  117MOL0     C15325   6.528   3.967   7.730 -0.5752  0.8086  0.4508
  117MOL0     C15326   6.413   3.985   7.820  0.4662 -0.0565  1.5740
  117MOL0     C15327   6.376   3.851   7.881  0.1568  0.1463  0.6560
  117MOL0     C15328   6.471   3.793   7.988 -0.3520  0.7363  1.3754
  117MOL0     N15329   6.425   3.680   8.046  0.0011 -0.5365 -0.7141
  117MOL0     C15330   6.429   3.561   7.991 -0.1131  1.2584  0.3447
  117MOL0     C15331   6.341   3.486   8.060 -0.1425 -0.3322 -0.1484
  117MOL0     C15332   6.313   3.342   8.047  0.4516 -0.5405  0.6790
  117MOL0     C15333   6.239   3.281   8.160  0.3925  0.0775 -0.4974
  117MOL0     C15334   6.334   3.265   8.289  0.2125  0.1362  0.1081
  117MOL0     C15335   6.246   3.233   8.412 -0.1087  0.4331 -0.0684
  117MOL0     O15336   6.326   3.210   8.532  0.1800  0.2272 -0.1466
  117MOL0     C15337   6.408   3.309   8.586 -0.3885 -1.0895  1.0678
  117MOL0     C15338   6.513   3.284   8.673  0.4087 -1.1666 -0.5508
  117MOL0     C15339   6.578   3.382   8.757 -0.2730 -0.2947  1.4169
  117MOL0     C15340   6.558   3.522   8.725  0.7894  0.8436  0.1425
  117MOL0     C15341   6.621   3.630   8.810 -0.3452  1.0648 -0.5567
  117MOL0     O15342   6.599   3.760   8.778 -0.5711  0.1350 -0.4630
  117MOL0     C15343   6.679   3.840   8.850 -0.8840 -0.5465 -0.1202
  117MOL0     C15344   6.816   3.847   8.812  0.5280 -0.6743  0.0257
  117MOL0     C15345   6.897   3.948   8.864 -0.5162 -0.7474 -0.6858
  117MOL0     C15346   6.849   4.036   8.962  0.0766 -0.0434 -0.8558
  117MOL0     O15347   6.931   4.139   8.995  0.3542  0.0005 -0.5781
  117MOL0     C15348   6.898   4.214   9.113 -0.1580  0.1886 -1.0065
  117MOL0     C15349   6.967   4.352   9.121 -0.0948 -0.4157 -0.6204
  117MOL0     C15350   6.876   4.465   9.057  0.2810 -0.4420  1.0835
  117MOL0     C15351   6.957   4.591   9.098  0.9645 -0.7288  0.0571
  117MOL0     C15352   6.882   4.705   9.043 -0.0516 -0.2319 -0.2118
  117MOL0     C15353   6.925   4.827   9.106 -0.5274 -0.1618  0.3127
  117MOL0     C15354   6.852   4.954   9.071 -0.1578  0.1927 -1.4184
  117MOL0     C15355   6.865   4.996   8.926  1.1051  0.5473  0.0883
  117MOL0    Cl15356   6.760   5.150   8.910  0.5460 -0.6091 -0.4379
  117MOL0     C15357   6.715   4.022   9.006 -0.1022 -0.0939  0.7459
  117MOL0     C15358   6.629   3.929   8.954  0.9861  0.8818 -1.1074
  117MOL0     O15359   6.703   3.590   8.898  0.3200  0.5816 -0.3020
  117MOL0     C15360   6.451   3.548   8.626 -0.6844  0.4666  0.6115
  117MOL0     C15361   6.381   3.443   8.561 -0.2128 -0.1259  0.9925
  117MOL0     N15362   6.282   3.567   8.165 -0.4014 -0.5909  0.4499
  117MOL0     N15363   6.332   3.681   8.146  0.6411 -0.3666  0.3358
  117MOL0     C15364   6.753   4.012   7.097  0.3229  0.1291  0.2652
  117MOL0     C15365   6.751   4.003   6.961 -0.6588 -0.0719  0.4679
  117MOL0     C15366   6.860   3.960   6.561  1.3474 -0.2381 -1.1934
  117MOL0     C15367   6.747   4.009   6.486 -0.3433 -0.3635  0.6821
  117MOL0     C15368   6.738   3.966   6.352  0.7018  0.3271 -1.1243
  117MOL0     C15369   6.836   3.887   6.292  0.5954  0.1095  0.1584
  117MOL0     O15370   6.835   3.875   6.160  0.0678 -0.3896  0.1291
  117MOL0     C15371   6.726   3.785   6.121 -0.2991 -0.1884  0.2905
  117MOL0     C15372   6.790   3.665   6.042 -0.5060  0.8908  0.0024
  117MOL0     C15373   6.819   3.551   6.145 -0.3995 -0.2756  0.1658
  117MOL0     C15374   6.930   3.450   6.091 -0.2237  0.1376 -0.7845
  117MOL0     C15375   6.966   3.346   6.192 -0.4533 -0.3634 -0.8531
  117MOL0     C15376   7.005   3.289   6.296  0.7274  0.0400  0.1687
  117MOL0     C15377   6.945   3.854   6.364 -0.4632 -0.3762 -0.1250
  117MOL0     C15378   6.953   3.876   6.504 -0.2596  0.8661  0.0671
  117MOL0     H15379   6.829   4.316   6.869  3.1939 -2.1065 -1.4634
  117MOL0     H15380   6.823   4.346   7.123  0.5910  0.2762  2.0934
  117MOL0     H15381   6.587   4.187   7.356  0.4906 -0.4926  0.6377
  117MOL0     H15382   6.688   4.337   7.331  2.6161  1.0072  2.6280
  117MOL0     H15383   6.677   4.327   7.577  2.1408  1.1930  0.4999
  117MOL0     H15384   6.833   4.282   7.518 -0.3933  0.6053  0.2449
  117MOL0     H15385   6.782   4.111   7.674  1.0319 -1.6110 -1.1784
  117MOL0     H15386   6.742   4.020   7.535 -0.6363 -2.1279  3.4727
  117MOL0     H15387   6.565   4.178   7.724  1.4418 -0.1941  1.5360
  117MOL0     H15388   6.499   4.123   7.587  0.4778 -0.0894 -0.7295
  117MOL0     H15389   6.618   3.922   7.774 -0.0874  1.3422  0.0221
  117MOL0     H15390   6.516   3.891   7.652 -0.8908 -1.9103  2.9848
  117MOL0     H15391   6.334   4.038   7.766  0.3641 -0.0176  1.7608
  117MOL0     H15392   6.439   4.054   7.901 -1.0884  1.4640  0.8326
  117MOL0     H15393   6.282   3.856   7.937  1.3183 -3.1975  3.2543
  117MOL0     H15394   6.358   3.780   7.800 -1.8692 -1.3929  2.3456
  117MOL0     H15395   6.491   3.868   8.065  1.0229 -0.9000  2.6947
  117MOL0     H15396   6.565   3.781   7.935  0.1974  1.5339  2.1343
  117MOL0     H15397   6.509   3.529   7.925  0.7370 -3.0972  3.0784
  117MOL0     H15398   6.400   3.278   8.032  1.9708  1.2121  1.5541
  117MOL0     H15399   6.245   3.337   7.962  2.9982  1.8927 -1.7417
  117MOL0     H15400   6.208   3.178   8.139 -1.1119 -0.1566  2.2538
  117MOL0     H15401   6.151   3.339   8.191  1.0183  1.4376 -1.1592
  117MOL0     H15402   6.401   3.179   8.284 -0.6826 -0.9179  3.2662
  117MOL0     H15403   6.393   3.355   8.304  1.4574 -0.6753  0.2201
  117MOL0     H15404   6.206   3.136   8.382  2.0026  0.0911 -2.1286
  117MOL0     H15405   6.155   3.293   8.421  0.2030  0.8828  0.1505
  117MOL0     H15406   6.523   3.177   8.685 -0.2378 -1.0621  1.2196
  117MOL0     H15407   6.635   3.363   8.847 -1.0004  1.0376  2.1981
  117MOL0     H15408   6.854   3.787   8.730 -2.3217  1.9422 -3.5527
  117MOL0     H15409   6.996   3.974   8.827  0.3956 -1.3028  1.2389
  117MOL0     H15410   6.944   4.152   9.191  0.2261  1.5822 -0.0819
  117MOL0     H15411   6.794   4.237   9.138  1.2132  4.3289  1.9990
  117MOL0     H15412   7.067   4.348   9.075  0.7923 -1.7651  1.2811
  117MOL0     H15413   6.989   4.379   9.225 -0.3770  2.6307 -1.2427
  117MOL0     H15414   6.774   4.464   9.098 -1.3766  1.2618 -2.5780
  117MOL0     H15415   6.871   4.457   8.948  1.4735  1.5637  0.8405
  117MOL0     H15416   6.951   4.594   9.207 -1.8773 -4.9503  0.2548
  117MOL0     H15417   7.059   4.591   9.060  0.1809  0.5351 -2.2442
  117MOL0     H15418   6.775   4.689   9.057  0.1041 -1.9047 -0.6840
  117MOL0     H15419   6.891   4.699   8.934  3.8452 -2.5393  0.0524
  117MOL0     H15420   7.033   4.842   9.095 -0.6123  0.5628  0.4207
  117MOL0     H15421   6.910   4.812   9.214  2.0408 -0.1374  0.7401
  117MOL0     H15422   6.747   4.946   9.100 -0.1794 -1.8796 -1.8797
  117MOL0     H15423   6.902   5.027   9.136 -0.0291 -1.2868  0.2155
  117MOL0     H15424   6.814   4.922   8.863  2.4709 -1.1177  0.8898
  117MOL0     H15425   6.967   5.020   8.895  1.4988  0.1816  1.0684
  117MOL0     H15426   6.665   4.099   9.065 -0.2716  0.0505  0.4161
  117MOL0     H15427   6.523   3.922   8.976  0.8789  1.2864 -1.4885
  117MOL0     H15428   6.428   3.653   8.610 -0.1246  1.3010  4.3601
  117MOL0     H15429   6.300   3.472   8.495 -0.7014 -3.1585  0.1228
  117MOL0     H15430   6.723   3.929   7.162  2.2519 -2.6858 -2.1605
  117MOL0     H15431   6.734   3.906   6.914 -2.5316  0.0647  0.7809
  117MOL0     H15432   6.671   4.066   6.539 -0.6960  0.6725 -0.8863
  117MOL0     H15433   6.656   3.997   6.288  1.0174  3.2565 -0.2571
  117MOL0     H15434   6.667   3.845   6.052  0.5584  0.2182 -0.0985
  117MOL0     H15435   6.659   3.753   6.203 -0.8814 -0.0228 -0.1119
  117MOL0     H15436   6.710   3.624   5.979 -1.0498  2.0730 -0.0871
  117MOL0     H15437   6.879   3.696   5.986  0.0059 -0.7782 -0.1884
  117MOL0     H15438   6.730   3.494   6.176 -1.2306 -0.8111 -2.7814
  117MOL0     H15439   6.857   3.602   6.233  1.3453 -1.4717  0.1592
  117MOL0     H15440   6.890   3.394   6.006 -0.7176 -3.3641  1.5756
  117MOL0     H15441   7.021   3.501   6.057  0.2501  0.1989  0.5153
  117MOL0     H15442   7.020   3.237   6.388 -4.3643  0.2299  1.3572
  117MOL0     H15443   7.031   3.802   6.324 -1.3879 -1.3148 -0.9500
  117MOL0     H15444   7.028   3.830   6.568 -2.4813 -0.0669  2.1732
  118MOL0     O15445  10.225   2.023   4.347 -0.2492 -0.0896  0.2363
  118MOL0     C15446  10.121   2.073   4.304  0.5982  0.2429 -0.0701
  118MOL0     O15447   9.994   2.042   4.347  0.4084 -0.0121 -0.6146
  118MOL0     C15448   9.967   1.922   4.398  0.6426  0.5656 -0.6733
  118MOL0     C15449   9.915   1.829   4.316 -0.2211  0.4017 -0.4264
  118MOL0     C15450   9.888   1.699   4.353  0.5770  0.1147  0.3013
  118MOL0     C15451   9.927   1.647   4.480 -0.5007 -0.0084  0.0473
  118MOL0     O15452   9.902   1.516   4.529  0.4439  0.7554 -0.0600
  118MOL0     C15453   9.856   1.425   4.431 -0.3771 -1.2020 -0.0722
  118MOL0     C15454   9.849   1.293   4.495 -0.6116  0.2745  0.8520
  118MOL0     C15455   9.851   1.174   4.408  1.1344 -0.2128  0.3572
  118MOL0     C15456   9.960   1.161   4.305  0.7518 -0.0220  0.0224
  118MOL0     C15457  10.106   1.153   4.355  1.4098  1.8583 -0.7889
  118MOL0     C15458  10.199   1.128   4.242  0.3931 -0.5206 -0.8141
  118MOL0     C15459  10.350   1.122   4.299  0.2944 -0.1269  0.2990
  118MOL0     C15460  10.443   1.074   4.193  0.3336 -0.6090  0.5862
  118MOL0     N15461  10.546   1.175   4.158  0.2730  0.4323  0.0385
  118MOL0     C15462  10.526   1.289   4.089  0.7179 -0.1731 -0.1599
  118MOL0     C15463  10.644   1.337   4.079  0.3595 -0.6309  1.4991
  118MOL0     C15464  10.681   1.463   3.994 -0.0678 -0.2319  0.8564
  118MOL0     C15465  10.754   1.424   3.861 -1.2213 -0.4098  0.6229
  118MOL0     C15466  10.773   1.541   3.766  0.0490 -0.4863  0.4098
  118MOL0     C15467  10.914   1.615   3.782 -0.0818 -0.1160 -0.6557
  118MOL0     O15468  10.948   1.682   3.659  0.4711 -1.0703 -0.2227
  118MOL0     C15469  11.053   1.767   3.645  0.8424 -0.8073  0.1308
  118MOL0     C15470  11.145   1.788   3.747 -1.1141 -0.3420  0.6542
  118MOL0     C15471  11.245   1.882   3.721  0.7523  0.0622 -0.7385
  118MOL0     C15472  11.235   1.959   3.612 -1.0800 -0.3158 -0.8093
  118MOL0     C15473  11.345   2.056   3.579 -0.6357  0.3430 -0.2349
  118MOL0     O15474  11.327   2.152   3.477 -0.4760  0.4486 -0.0385
  118MOL0     C15475  11.437   2.222   3.428  0.7459  0.3212  0.2625
  118MOL0     C15476  11.554   2.157   3.385  0.0514 -0.2071  0.1177
  118MOL0     C15477  11.678   2.235   3.360  0.1852  0.2182  0.3492
  118MOL0     C15478  11.669   2.375   3.352  0.6697  0.7768  0.1083
  118MOL0     O15479  11.776   2.440   3.310 -0.3233 -0.5292 -0.1016
  118MOL0     C15480  11.780   2.587   3.328  0.7022  0.1439  0.1174
  118MOL0     C15481  11.917   2.649   3.310  0.8904  0.3818 -0.3905
  118MOL0     C15482  11.932   2.778   3.403 -0.1196 -0.6923 -0.1163
  118MOL0     C15483  12.076   2.835   3.417 -0.6108 -0.2595 -0.1003
  118MOL0     C15484  12.153   2.804   3.283  0.4832  0.4381  0.1691
  118MOL0     C15485  12.286   2.892   3.267 -0.2422  0.3539  1.0702
  118MOL0     C15486  12.404   2.836   3.363  0.8805 -0.4731 -0.9063
  118MOL0     C15487  12.506   2.942   3.392 -1.4761 -0.3206  0.1134
  118MOL0    Cl15488  12.452   3.072   3.505  0.4207  0.0081 -0.2555
  118MOL0     C15489  11.548   2.442   3.378 -0.6666  0.0765 -0.1645
  118MOL0     C15490  11.438   2.367   3.415  0.5747  1.0552 -0.7071
  118MOL0     O15491  11.443   2.058   3.654  0.1835 -0.4572  0.1816
  118MOL0     C15492  11.147   1.932   3.514  0.4839  0.0422  0.0671
  118MOL0     C15493  11.060   1.835   3.519  0.4857  0.1436 -0.0625
  118MOL0     N15494  10.733   1.266   4.148 -0.4920  0.4050 -0.6014
  118MOL0     N15495  10.674   1.170   4.202 -0.1452  0.0612  0.8379
  118MOL0     C15496   9.974   1.739   4.577 -0.9064 -0.7054  1.2047
  118MOL0     C15497   9.998   1.877   4.533 -0.4031 -0.1310 -0.6077
  118MOL0     C15498  10.141   2.186   4.207  0.8432  0.0282  0.4795
  118MOL0     C15499  10.272   2.196   4.143  0.5040  0.0684 -0.3364
  118MOL0     C15500  10.286   2.295   4.044  0.1062 -0.7231  0.2565
  118MOL0     C15501  10.188   2.393   4.013 -0.0237  0.0829 -0.4275
  118MOL0     O15502  10.198   2.504   3.927  0.2052  0.2216  0.3813
  118MOL0     C15503  10.298   2.501   3.833  0.2118  0.0463 -0.2548
  118MOL0     C15504  10.269   2.631   3.757 -0.3586  0.4865  0.2943
  118MOL0     C15505  10.343   2.632   3.626  0.4649 -0.0252  0.2966
  118MOL0     C15506  10.493   2.640   3.643 -0.3698  0.0572 -0.3570
  118MOL0     C15507  10.569   2.653   3.519 -0.4433 -1.3230  0.2540
  118MOL0     C15508  10.637   2.660   3.416  0.2919 -0.0704 -0.4335
  118MOL0     C15509  10.065   2.378   4.087  0.2579 -0.4085 -0.6370
  118MOL0     C15510  10.046   2.278   4.179  0.0362 -0.0443 -0.5564
  118MOL0     H15511   9.897   1.857   4.212 -0.8756 -2.3751 -1.1532
  118MOL0     H15512   9.853   1.632   4.275  2.2194  1.1559 -1.4012
  118MOL0     H15513   9.923   1.436   4.346 -2.0540  0.8972 -1.2341
  118MOL0     H15514   9.751   1.439   4.405  0.1875 -1.2884 -2.6596
  118MOL0     H15515   9.762   1.288   4.560 -2.4811 -2.2358 -1.6449
  118MOL0     H15516   9.939   1.278   4.555  2.7018 -0.5532 -3.7774
  118MOL0     H15517   9.760   1.178   4.348  0.5754  1.0479  1.2473
  118MOL0     H15518   9.845   1.093   4.482 -2.3205  0.8383  1.4158
  118MOL0     H15519   9.944   1.066   4.253 -0.1776  0.0904  0.0888
  118MOL0     H15520   9.951   1.239   4.229  2.6761 -0.8323 -1.1045
  118MOL0     H15521  10.112   1.067   4.422 -0.4270  0.2003 -2.6137
  118MOL0     H15522  10.131   1.242   4.415  1.2307  1.0592  0.5164
  118MOL0     H15523  10.195   1.204   4.163  2.3474  1.3533  0.7551
  118MOL0     H15524  10.182   1.031   4.196 -0.0413 -0.9399  0.2021
  118MOL0     H15525  10.382   1.204   4.363 -4.1092  0.5257  2.0224
  118MOL0     H15526  10.354   1.037   4.367  0.1702 -1.1227 -0.8969
  118MOL0     H15527  10.379   1.044   4.109  0.5183 -2.5015  1.0745
  118MOL0     H15528  10.498   0.984   4.224  4.4552  2.6264  3.7668
  118MOL0     H15529  10.432   1.329   4.053  1.1521 -0.4594 -1.6956
  118MOL0     H15530  10.738   1.522   4.067 -1.4510  1.0690  0.9273
  118MOL0     H15531  10.594   1.524   3.973  0.6991 -0.4120 -3.9688
  118MOL0     H15532  10.690   1.346   3.818 -2.4796  0.7353  0.3697
  118MOL0     H15533  10.855   1.388   3.886 -0.7403  1.2316  1.1194
  118MOL0     H15534  10.770   1.502   3.663 -0.6673 -1.7677  0.8872
  118MOL0     H15535  10.687   1.608   3.759  0.1434 -0.4415 -0.4729
  118MOL0     H15536  10.989   1.537   3.798 -0.2490  0.0454  1.1003
  118MOL0     H15537  10.918   1.688   3.863 -3.5750  0.3366 -0.7490
  118MOL0     H15538  11.146   1.727   3.837 -0.8305  0.2392  1.0520
  118MOL0     H15539  11.328   1.901   3.788 -1.2473  1.4097  1.5201
  118MOL0     H15540  11.555   2.049   3.382  7.7776 -0.6647 -1.6081
  118MOL0     H15541  11.776   2.189   3.346 -0.2408 -0.1047 -1.8874
  118MOL0     H15542  11.735   2.605   3.426 -1.4625 -2.4975 -0.2563
  118MOL0     H15543  11.715   2.638   3.256  1.2554  5.4342  2.9194
  118MOL0     H15544  11.948   2.645   3.205 -1.7823 -2.2907 -1.2159
  118MOL0     H15545  11.980   2.579   3.366 -1.0058 -0.4331  0.8390
  118MOL0     H15546  11.887   2.749   3.499 -3.1056  0.7536 -0.9514
  118MOL0     H15547  11.866   2.855   3.363 -1.0426 -1.6024 -0.3986
  118MOL0     H15548  12.087   2.941   3.442  0.2050  0.1339 -1.9651
  118MOL0     H15549  12.135   2.775   3.486  2.9652 -1.5937 -3.8876
  118MOL0     H15550  12.085   2.833   3.202 -0.9477  0.0476  1.1845
  118MOL0     H15551  12.164   2.697   3.265 -2.1144  0.3486 -1.3592
  118MOL0     H15552  12.261   2.995   3.296 -1.7357  1.1826 -2.5575
  118MOL0     H15553  12.318   2.898   3.163 -1.1398 -0.3029  0.7397
  118MOL0     H15554  12.360   2.813   3.460 -0.0387  0.1065 -1.1835
  118MOL0     H15555  12.447   2.741   3.328  0.8407 -2.0845  2.9625
  118MOL0     H15556  12.541   2.994   3.302 -2.1482  3.3503  1.7930
  118MOL0     H15557  12.599   2.898   3.429  1.1646  5.4556  1.3667
  118MOL0     H15558  11.535   2.549   3.363 -1.4149  1.0783  5.3310
  118MOL0     H15559  11.340   2.412   3.431 -0.9139 -2.5024  1.2537
  118MOL0     H15560  11.143   1.986   3.420  1.0642 -1.0005 -0.5735
  118MOL0     H15561  10.996   1.819   3.432 -0.0870 -0.7343  0.5088
  118MOL0     H15562  10.003   1.705   4.676 -1.0748 -1.8531  0.8795
  118MOL0     H15563  10.042   1.948   4.603  0.7506 -1.0477 -0.3674
  118MOL0     H15564  10.340   2.120   4.181 -1.2850  0.0536  3.3178
  118MOL0     H15565  10.384   2.316   4.003 -0.4075  2.4861  0.4015
  118MOL0     H15566  10.292   2.414   3.768 -0.2866  1.4088 -2.1182
  118MOL0     H15567  10.403   2.492   3.864  0.0710  0.4611  0.3548
  118MOL0     H15568  10.162   2.643   3.738 -0.0635  4.7198  0.4558
  118MOL0     H15569  10.303   2.717   3.815  1.3602  1.2481 -1.6817
  118MOL0     H15570  10.312   2.728   3.584 -1.3275 -0.2408  1.0275
  118MOL0     H15571  10.307   2.556   3.555  1.2029  0.9134 -1.1130
  118MOL0     H15572  10.526   2.713   3.718 -1.3242 -0.9925  1.1416
  118MOL0     H15573  10.532   2.548   3.688 -2.0331 -1.3329 -1.6556
  118MOL0     H15574  10.703   2.657   3.332  2.9111 -1.9564  1.5208
  118MOL0     H15575   9.979   2.439   4.064  0.9643  0.3448 -1.3328
  118MOL0     H15576   9.953   2.284   4.236 -0.9445  0.1887 -2.1278
  119MOL0     O15577   0.480   5.595   2.295  0.0020  0.1567  0.2617
  119MOL0     C15578   0.536   5.659   2.209 -0.4174  0.9588  0.0734
  119MOL0     O15579   0.478   5.726   2.109  0.6928 -0.7011 -0.3472
  119MOL0     C15580   0.348   5.700   2.077  0.1440 -0.2484 -0.3454
  119MOL0     C15581   0.252   5.795   2.102  0.0501  0.4499 -0.0102
  119MOL0     C15582   0.117   5.771   2.075 -0.2524  0.5984 -1.1765
  119MOL0     C15583   0.084   5.648   2.013  0.2516  0.1630 -0.9790
  119MOL0     O15584  -0.049   5.637   1.983 -0.3504  0.0324 -0.5159
  119MOL0     C15585  -0.097   5.499   1.980 -0.1425 -0.3859 -0.4005
  119MOL0     C15586  -0.254   5.501   1.958  0.8024 -0.0074 -0.1961
  119MOL0     C15587  -0.328   5.613   2.049 -0.0151 -0.1470  0.0044
  119MOL0     C15588  -0.289   5.599   2.192  0.6845  1.2624 -0.1535
  119MOL0     C15589  -0.380   5.675   2.284  0.0879 -0.1388  0.4516
  119MOL0     C15590  -0.299   5.712   2.408  0.3610 -0.7635  0.1361
  119MOL0     C15591  -0.203   5.831   2.405  0.5817  0.4815 -0.3688
  119MOL0     C15592  -0.251   5.954   2.326  0.2808  0.1987 -0.5321
  119MOL0     N15593  -0.147   6.050   2.281  0.3177  0.2122 -0.2873
  119MOL0     C15594  -0.039   6.099   2.359  0.0934  1.0840 -0.8119
  119MOL0     C15595   0.048   6.144   2.275  0.0494  0.2816 -0.0053
  119MOL0     C15596   0.186   6.188   2.297  0.1393 -0.4442 -0.5811
  119MOL0     C15597   0.187   6.334   2.336  0.1502 -1.0366  0.1075
  119MOL0     C15598   0.328   6.391   2.344 -0.4501 -1.1406 -0.1407
  119MOL0     C15599   0.437   6.298   2.403  0.7134  0.1014  0.6531
  119MOL0     O15600   0.402   6.295   2.535 -0.8809 -0.2779 -0.1807
  119MOL0     C15601   0.465   6.219   2.628  1.0177  0.1139  0.0909
  119MOL0     C15602   0.433   6.235   2.763 -0.6918 -0.1426  0.1052
  119MOL0     C15603   0.509   6.177   2.865  0.5932  0.2909 -1.2397
  119MOL0     C15604   0.618   6.095   2.835  0.0848 -0.6714  0.3517
  119MOL0     C15605   0.709   6.043   2.938  0.9076 -0.9671  0.8174
  119MOL0     O15606   0.807   5.955   2.882 -0.2742 -0.2743  1.0461
  119MOL0     C15607   0.870   5.887   2.980  0.4642  0.6937  0.0994
  119MOL0     C15608   0.803   5.777   3.045 -0.0535 -0.0957 -0.4723
  119MOL0     C15609   0.871   5.711   3.148 -0.5680  0.9694 -0.3513
  119MOL0     C15610   0.996   5.742   3.188  1.0544 -0.2868  0.0428
  119MOL0     O15611   1.042   5.655   3.285  0.6974 -0.7934 -0.3531
  119MOL0     C15612   1.124   5.698   3.404 -0.1475 -0.8374 -0.0482
  119MOL0     C15613   1.141   5.580   3.492  0.4624  0.0042 -0.2342
  119MOL0     C15614   1.015   5.568   3.584  0.3403  0.6384  0.6142
  119MOL0     C15615   1.017   5.438   3.667  0.0602  0.5427 -0.4035
  119MOL0     C15616   0.874   5.403   3.710 -0.0428  0.5818  0.6039
  119MOL0     C15617   0.856   5.283   3.814  1.0876 -0.2737 -0.0794
  119MOL0     C15618   0.742   5.327   3.908 -0.4062 -0.3203  0.8100
  119MOL0     C15619   0.790   5.412   4.024 -0.1722 -0.0929  0.9810
  119MOL0    Cl15620   0.877   5.320   4.155 -0.0720 -0.6453 -0.2004
  119MOL0     C15621   1.066   5.846   3.121 -0.9025 -0.2795  1.4095
  119MOL0     C15622   1.001   5.917   3.022 -0.1810 -0.3109 -0.0066
  119MOL0     O15623   0.701   6.083   3.052  0.4638  0.1119  0.5285
  119MOL0     C15624   0.647   6.074   2.696  0.6004 -0.2441  0.2028
  119MOL0     C15625   0.571   6.130   2.598 -0.5798  0.1714 -0.2659
  119MOL0     N15626  -0.007   6.146   2.147 -0.3453 -0.4720  0.1615
  119MOL0     N15627  -0.127   6.088   2.152 -0.4745  0.2392  1.0437
  119MOL0     C15628   0.185   5.558   1.973 -0.3996  0.1679 -0.0131
  119MOL0     C15629   0.314   5.584   2.014 -1.6394  0.6652  0.4408
  119MOL0     C15630   0.678   5.679   2.238  0.0650 -0.4314  0.0787
  119MOL0     C15631   0.775   5.578   2.203 -0.8645  0.3348  0.3658
  119MOL0     C15632   0.912   5.608   2.197 -0.3990  1.4437  0.5065
  119MOL0     C15633   0.964   5.734   2.246  0.6072  0.6443  0.4533
  119MOL0     O15634   1.098   5.746   2.247  0.1469 -0.0487  0.4036
  119MOL0     C15635   1.158   5.797   2.365  0.0198  0.3825 -0.5949
  119MOL0     C15636   1.311   5.802   2.352  0.2055 -0.1489  0.6291
  119MOL0     C15637   1.378   5.681   2.292  0.9622 -0.7249 -0.5319
  119MOL0     C15638   1.341   5.557   2.369 -0.4337 -0.3312 -1.1805
  119MOL0     C15639   1.464   5.487   2.421  0.7696 -0.1756  0.4154
  119MOL0     C15640   1.558   5.446   2.473  0.0299 -0.8925  0.6102
  119MOL0     C15641   0.869   5.828   2.286 -0.2433 -1.0060 -1.0332
  119MOL0     C15642   0.732   5.807   2.267 -0.8355  0.7504 -0.4968
  119MOL0     H15643   0.270   5.898   2.130 -1.6194  0.6152  0.5122
  119MOL0     H15644   0.042   5.838   2.116  1.0980  0.3480  1.9253
  119MOL0     H15645  -0.079   5.443   2.072 -0.0503  1.3284  0.6714
  119MOL0     H15646  -0.060   5.436   1.898 -1.9615 -2.2068  0.0841
  119MOL0     H15647  -0.288   5.398   1.973 -0.6697  0.5158  0.2174
  119MOL0     H15648  -0.257   5.528   1.852  1.6397 -2.6072 -0.9647
  119MOL0     H15649  -0.437   5.607   2.042 -0.0848 -2.8901  1.7566
  119MOL0     H15650  -0.304   5.712   2.010  0.4831  0.4620  1.7821
  119MOL0     H15651  -0.285   5.497   2.231 -0.0837  1.5319  0.6484
  119MOL0     H15652  -0.183   5.619   2.211  0.8639  1.5592 -1.3900
  119MOL0     H15653  -0.461   5.605   2.307 -1.2000  0.9405 -0.6251
  119MOL0     H15654  -0.427   5.759   2.231 -1.7538 -0.7761  0.9944
  119MOL0     H15655  -0.238   5.625   2.436  2.0757  0.0995 -0.7426
  119MOL0     H15656  -0.367   5.727   2.493 -1.1924  1.0592 -1.3475
  119MOL0     H15657  -0.161   5.864   2.501 -0.9859 -0.5235  0.7170
  119MOL0     H15658  -0.121   5.794   2.344 -0.2617  0.0776 -1.2745
  119MOL0     H15659  -0.326   6.009   2.383 -1.6463 -1.0588 -1.7795
  119MOL0     H15660  -0.296   5.910   2.237  1.5007 -1.2264 -0.4872
  119MOL0     H15661  -0.024   6.085   2.466 -1.0896 -2.4525 -0.9796
  119MOL0     H15662   0.246   6.157   2.212  1.9739  1.6408 -0.1304
  119MOL0     H15663   0.244   6.134   2.373 -3.4890  0.9404  3.5887
  119MOL0     H15664   0.132   6.339   2.431 -0.7381 -2.2021 -0.3242
  119MOL0     H15665   0.134   6.388   2.258  2.2785 -1.2606 -1.5669
  119MOL0     H15666   0.350   6.414   2.240 -1.4010 -1.6050 -0.4598
  119MOL0     H15667   0.331   6.483   2.402 -0.8118  0.0683 -1.9811
  119MOL0     H15668   0.542   6.329   2.392  0.8755  0.7072  3.2694
  119MOL0     H15669   0.444   6.198   2.360 -1.8397 -0.7416  2.0551
  119MOL0     H15670   0.353   6.309   2.770 -0.4597  0.4025 -2.3216
  119MOL0     H15671   0.483   6.191   2.969  0.9489  0.2790 -1.1497
  119MOL0     H15672   0.699   5.756   3.027 -0.0288 -2.0190  1.3225
  119MOL0     H15673   0.820   5.626   3.192 -0.2708 -0.5953 -2.8073
  119MOL0     H15674   1.075   5.782   3.454 -2.6082 -0.3610 -2.9886
  119MOL0     H15675   1.219   5.737   3.366  1.5642 -2.9609  1.8018
  119MOL0     H15676   1.226   5.602   3.557 -1.7191  2.9949  1.9227
  119MOL0     H15677   1.163   5.493   3.430 -1.0705 -0.3210 -0.3605
  119MOL0     H15678   0.925   5.584   3.523  1.2720 -0.0909 -1.0414
  119MOL0     H15679   0.997   5.653   3.650 -1.4450  1.0151 -0.2688
  119MOL0     H15680   1.045   5.345   3.617 -0.4720  0.2736 -0.2102
  119MOL0     H15681   1.088   5.455   3.748 -1.4544  2.2792  0.6088
  119MOL0     H15682   0.815   5.382   3.621  2.7451  0.2916 -1.2918
  119MOL0     H15683   0.846   5.497   3.759 -1.1771  1.1637 -1.0614
  119MOL0     H15684   0.936   5.259   3.884  0.5484  2.1964  1.5463
  119MOL0     H15685   0.838   5.193   3.755  0.9236  0.6165 -1.4263
  119MOL0     H15686   0.672   5.389   3.851 -1.3469 -2.8734 -1.0161
  119MOL0     H15687   0.683   5.238   3.933  0.9168 -1.2858  0.6052
  119MOL0     H15688   0.697   5.453   4.064 -3.8534 -3.5834 -2.9595
  119MOL0     H15689   0.854   5.487   3.977 -0.7278 -1.0042 -1.3711
  119MOL0     H15690   1.169   5.879   3.126 -0.7190  1.3168 -4.8768
  119MOL0     H15691   1.048   6.010   2.990 -2.2874  2.1581  3.3674
  119MOL0     H15692   0.732   6.013   2.665 -0.4440 -0.9946 -1.2906
  119MOL0     H15693   0.594   6.112   2.493  0.2083  0.0568 -0.0776
  119MOL0     H15694   0.161   5.462   1.928  0.2562 -0.7740  1.5450
  119MOL0     H15695   0.391   5.509   1.998  1.2416  3.0732  2.0728
  119MOL0     H15696   0.734   5.480   2.177 -2.8191  1.4241 -0.9596
  119MOL0     H15697   0.979   5.529   2.165 -1.2032  0.6910  0.6473
  119MOL0     H15698   1.125   5.726   2.442  2.8612  1.5725  1.9101
  119MOL0     H15699   1.127   5.896   2.398 -1.2133  0.6484 -2.4401
  119MOL0     H15700   1.324   5.868   2.265  3.8073 -0.8715  0.4541
  119MOL0     H15701   1.363   5.847   2.437  0.4485 -1.4988  1.2211
  119MOL0     H15702   1.485   5.703   2.300  0.6749  0.0334  4.7297
  119MOL0     H15703   1.343   5.659   2.191  0.0482  1.5086 -0.7405
  119MOL0     H15704   1.280   5.573   2.459 -0.3467 -1.0658 -0.9809
  119MOL0     H15705   1.295   5.485   2.301  0.2362 -1.7095 -0.2274
  119MOL0     H15706   1.640   5.398   2.524  0.2901  0.8254  1.8947
  119MOL0     H15707   0.906   5.921   2.327 -2.5291 -0.7237  0.5683
  119MOL0     H15708   0.660   5.882   2.298  1.6440  2.1376  2.4569
  120MOL0     O15709   5.512  10.925   7.145  0.7382 -0.2051 -0.8887
  120MOL0     C15710   5.454  11.038   7.144 -0.5184  0.4981  0.3153
  120MOL0     O15711   5.330  11.063   7.205 -0.0268 -0.9291 -0.1054
  120MOL0     C15712   5.237  10.971   7.200 -0.2977  0.8943  0.7577
  120MOL0     C15713   5.212  10.899   7.309 -0.3822 -0.0769  0.0097
  120MOL0     C15714   5.109  10.810   7.308  0.2444  0.5906 -0.4573
  120MOL0     C15715   5.031  10.790   7.190  0.6845 -1.4270  0.3423
  120MOL0     O15716   4.928  10.699   7.186 -0.4699  0.1747 -0.7321
  120MOL0     C15717   4.922  10.599   7.283  0.1220  0.9495 -1.1600
  120MOL0     C15718   4.856  10.479   7.231 -0.1070 -0.4293 -0.3857
  120MOL0     C15719   4.737  10.501   7.140 -0.3162 -0.4975  1.1900
  120MOL0     C15720   4.662  10.374   7.121 -0.1048 -0.1255  0.6866
  120MOL0     C15721   4.574  10.384   7.001  1.1931 -0.0514 -0.0476
  120MOL0     C15722   4.465  10.266   6.979  0.8446 -0.2269  0.7864
  120MOL0     C15723   4.389  10.292   6.848  0.1292 -0.1795  0.0998
  120MOL0     C15724   4.257  10.207   6.851 -0.6967  0.1401 -0.1581
  120MOL0     N15725   4.162  10.248   6.747 -0.0198 -0.2109  0.3612
  120MOL0     C15726   4.179  10.223   6.614  0.2538  0.8283 -0.1928
  120MOL0     C15727   4.062  10.269   6.562  0.5913 -0.2121 -0.4291
  120MOL0     C15728   4.015  10.258   6.421 -0.8150  0.1010  0.2447
  120MOL0     C15729   4.053  10.124   6.352  0.4539  1.1046  0.2187
  120MOL0     C15730   3.959  10.016   6.420 -0.5956  0.7587  0.1479
  120MOL0     C15731   4.032   9.880   6.444 -0.4750 -0.0489 -0.2811
  120MOL0     O15732   4.152   9.893   6.521  0.3656  0.1377 -0.2447
  120MOL0     C15733   4.142   9.854   6.660 -0.8581 -0.6486  1.1417
  120MOL0     C15734   4.035   9.890   6.742  0.0012  0.4615  0.2654
  120MOL0     C15735   4.050   9.895   6.877  0.1898  0.7268 -0.9346
  120MOL0     C15736   4.173   9.854   6.933 -0.0554  0.0290 -0.2538
  120MOL0     C15737   4.184   9.844   7.081 -0.3285  0.2117 -0.1002
  120MOL0     O15738   4.315   9.853   7.127  1.0829 -0.0616 -0.2529
  120MOL0     C15739   4.318   9.860   7.263  0.2481 -0.0847 -0.2100
  120MOL0     C15740   4.258   9.955   7.335  1.1243 -0.4610 -1.6580
  120MOL0     C15741   4.266   9.957   7.472  0.0087  0.4065  1.0126
  120MOL0     C15742   4.330   9.855   7.544  0.9651  0.1234  0.5588
  120MOL0     O15743   4.339   9.883   7.679 -0.5315  0.2507 -0.8896
  120MOL0     C15744   4.417   9.797   7.775 -0.7415 -0.7096  1.3632
  120MOL0     C15745   4.358   9.660   7.799  0.0448 -0.8510 -0.2620
  120MOL0     C15746   4.457   9.544   7.828 -0.1867 -0.0084  0.0936
  120MOL0     C15747   4.370   9.412   7.843 -0.5430  0.6160 -0.1253
  120MOL0     C15748   4.445   9.291   7.877 -0.8796  0.0523 -0.9040
  120MOL0     C15749   4.355   9.170   7.921  0.1453  0.4391  1.7797
  120MOL0     C15750   4.423   9.057   7.991  0.0268 -0.6700  0.2838
  120MOL0     C15751   4.333   8.978   8.093  0.2467  0.5203  0.0223
  120MOL0    Cl15752   4.242   8.843   8.010 -0.0895 -0.5414  0.6733
  120MOL0     C15753   4.392   9.746   7.472  0.8231  0.2022  0.2694
  120MOL0     C15754   4.388   9.758   7.333  0.1185 -0.4912  0.9050
  120MOL0     O15755   4.079   9.838   7.146  0.1783  0.5975  0.3741
  120MOL0     C15756   4.286   9.842   6.847 -0.2893 -0.1290  0.0866
  120MOL0     C15757   4.270   9.835   6.717  1.9487 -0.2568  0.5192
  120MOL0     N15758   3.990  10.336   6.655  0.6395  1.0202  0.5950
  120MOL0     N15759   4.043  10.313   6.765 -1.5856 -0.8683  0.0054
  120MOL0     C15760   5.056  10.866   7.075  0.0915  0.0622 -0.0855
  120MOL0     C15761   5.155  10.958   7.082 -0.3879 -0.4066  0.2316
  120MOL0     C15762   5.532  11.148   7.080  0.7093 -0.5572 -0.7618
  120MOL0     C15763   5.463  11.267   7.042 -0.4402  0.3826  0.5162
  120MOL0     C15764   5.543  11.369   6.982 -0.3263 -0.8905 -0.8374
  120MOL0     C15765   5.676  11.356   6.974  0.1080 -0.6739  0.8989
  120MOL0     O15766   5.760  11.463   6.935 -0.8305 -0.1815 -0.1051
  120MOL0     C15767   5.713  11.595   6.916 -0.3990 -0.4277 -0.5453
  120MOL0     C15768   5.818  11.676   6.842 -0.2587 -0.2745 -0.3986
  120MOL0     C15769   5.860  11.610   6.714 -0.4281  0.1887 -0.9851
  120MOL0     C15770   5.933  11.673   6.598 -1.1069 -0.4717  0.2774
  120MOL0     C15771   5.860  11.784   6.542  0.2573 -0.3368  0.6089
  120MOL0     C15772   5.797  11.870   6.480 -1.1093 -0.4944 -0.0717
  120MOL0     C15773   5.735  11.239   7.016 -0.2485  0.0713 -0.0830
  120MOL0     C15774   5.668  11.137   7.060  0.0266  0.9341 -0.0804
  120MOL0     H15775   5.277  10.907   7.396 -0.2713 -3.0708  0.3142
  120MOL0     H15776   5.084  10.755   7.398 -1.5234 -1.5447 -2.0965
  120MOL0     H15777   4.881  10.638   7.377  0.2016  1.6640 -1.4135
  120MOL0     H15778   5.025  10.569   7.301 -0.3242  0.7601  1.5041
  120MOL0     H15779   4.822  10.433   7.324 -2.4081  0.9620 -0.4784
  120MOL0     H15780   4.931  10.408   7.193 -0.5672 -0.8982 -0.4327
  120MOL0     H15781   4.773  10.528   7.040 -0.7062 -1.8595  0.6570
  120MOL0     H15782   4.681  10.581   7.189 -1.0365  0.5116 -1.1510
  120MOL0     H15783   4.733  10.292   7.114  0.3241  0.3367 -0.8361
  120MOL0     H15784   4.602  10.357   7.211 -0.7955  3.1781  1.0130
  120MOL0     H15785   4.647  10.399   6.921  3.6331  1.3151  2.2780
  120MOL0     H15786   4.506  10.468   7.017 -0.0824 -1.3630  1.7630
  120MOL0     H15787   4.397  10.260   7.065 -0.4626  2.3522  0.0057
  120MOL0     H15788   4.515  10.168   6.987 -1.1613 -1.2733  1.1090
  120MOL0     H15789   4.359  10.397   6.849 -0.1815 -0.2759  1.5561
  120MOL0     H15790   4.440  10.269   6.753 -0.6089  3.5748 -1.4079
  120MOL0     H15791   4.214  10.229   6.949 -0.7565  0.0828 -0.1713
  120MOL0     H15792   4.284  10.101   6.848 -2.2259 -0.4368  2.5060
  120MOL0     H15793   4.265  10.169   6.575  0.5899  2.3875 -1.7234
  120MOL0     H15794   4.082  10.326   6.368  2.1997 -2.1177  0.9430
  120MOL0     H15795   3.906  10.271   6.416 -1.4867 -4.1881 -1.4006
  120MOL0     H15796   4.160  10.100   6.353  0.0755 -0.6967  1.4309
  120MOL0     H15797   4.032  10.135   6.245  1.4204 -2.6813 -0.5189
  120MOL0     H15798   3.910  10.060   6.507  2.8807  3.1403  1.0944
  120MOL0     H15799   3.873   9.993   6.356 -1.7193  1.6830  1.2640
  120MOL0     H15800   4.067   9.854   6.344  0.5355  1.4202 -0.3284
  120MOL0     H15801   3.962   9.803   6.479 -1.6799  1.2914  0.3756
  120MOL0     H15802   3.941   9.923   6.700 -0.8364  0.3837  1.9861
  120MOL0     H15803   3.959   9.904   6.935  0.7444 -0.0583  0.1009
  120MOL0     H15804   4.189  10.021   7.283  0.4374 -1.1189 -1.6056
  120MOL0     H15805   4.222  10.042   7.523 -0.1232  0.7286  0.3590
  120MOL0     H15806   4.415   9.847   7.872  1.9749  1.4208  0.4643
  120MOL0     H15807   4.515   9.785   7.728 -1.7626 -1.9003 -0.6036
  120MOL0     H15808   4.294   9.625   7.717  0.1655 -3.5523  0.6835
  120MOL0     H15809   4.299   9.662   7.891  0.3879  0.7697 -0.0595
  120MOL0     H15810   4.503   9.565   7.925 -1.4228  0.8759  0.5052
  120MOL0     H15811   4.543   9.517   7.765  0.8042 -2.4900  2.3054
  120MOL0     H15812   4.287   9.427   7.912 -0.3283 -2.0662  0.8113
  120MOL0     H15813   4.330   9.395   7.743 -2.2259  0.1207  0.6087
  120MOL0     H15814   4.515   9.327   7.953 -0.7803  0.4551 -1.1832
  120MOL0     H15815   4.493   9.253   7.787  2.5114 -1.0541  1.1655
  120MOL0     H15816   4.294   9.125   7.842  3.3679 -0.5785 -0.3370
  120MOL0     H15817   4.284   9.216   7.990  0.0324 -0.6904  2.4409
  120MOL0     H15818   4.471   8.996   7.914  1.1728  2.2547 -1.4894
  120MOL0     H15819   4.506   9.098   8.049 -0.1497 -2.4305  1.8774
  120MOL0     H15820   4.258   9.045   8.137 -0.2839 -0.3139  0.4038
  120MOL0     H15821   4.399   8.935   8.168  1.9746  0.5672 -1.4175
  120MOL0     H15822   4.443   9.661   7.516  3.5399 -0.2128 -3.2004
  120MOL0     H15823   4.433   9.685   7.266  1.7584  2.4462 -1.4109
  120MOL0     H15824   4.388   9.828   6.881  0.4395  3.6852  0.0295
  120MOL0     H15825   4.350   9.814   6.648  0.8816  3.7484 -2.3433
  120MOL0     H15826   4.993  10.856   6.987  1.6285  2.1626 -1.5016
  120MOL0     H15827   5.172  11.019   6.993 -0.9851  0.1031  0.4636
  120MOL0     H15828   5.356  11.280   7.053 -0.1526  2.9689  1.0322
  120MOL0     H15829   5.488  11.458   6.955  1.7499  1.0906  1.0410
  120MOL0     H15830   5.677  11.635   7.011  2.9659  1.1923  0.2061
  120MOL0     H15831   5.623  11.591   6.854 -0.2260  2.2643 -1.1127
  120MOL0     H15832   5.782  11.777   6.822  1.1300  0.9219  2.4983
  120MOL0     H15833   5.904  11.698   6.906  0.4143 -3.0829 -0.1872
  120MOL0     H15834   5.765  11.575   6.675 -3.1952  1.1844  3.9978
  120MOL0     H15835   5.931  11.533   6.746  1.2626  1.3581 -1.7450
  120MOL0     H15836   6.033  11.702   6.631 -1.6118 -1.1094  2.5496
  120MOL0     H15837   5.958  11.596   6.524 -3.5448 -0.4531 -0.6607
  120MOL0     H15838   5.746  11.959   6.450  0.9998  2.3613  3.8149
  120MOL0     H15839   5.837  11.204   7.001 -1.1261 -3.6691  1.3979
  120MOL0     H15840   5.722  11.048   7.090  0.0467  0.2648 -1.9837
  121MOL0     O15841   3.138   6.590   0.790  0.0667 -0.1776  0.5940
  121MOL0     C15842   3.250   6.609   0.842  0.4553  0.0697  0.6933
  121MOL0     O15843   3.295   6.707   0.927  0.2278  0.2714 -0.7804
  121MOL0     C15844   3.215   6.767   1.026  0.6842 -0.1588 -0.0107
  121MOL0     C15845   3.281   6.836   1.129 -0.1270 -0.6082  0.7326
  121MOL0     C15846   3.213   6.897   1.234  0.0814 -0.9047 -0.9776
  121MOL0     C15847   3.073   6.885   1.251 -0.6256 -0.6277  0.2706
  121MOL0     O15848   2.999   6.947   1.347  1.1590 -0.1030  0.7793
  121MOL0     C15849   2.927   6.859   1.421 -0.0915 -0.0631 -0.1564
  121MOL0     C15850   2.797   6.919   1.488 -0.3360  0.1491  0.1061
  121MOL0     C15851   2.694   6.939   1.383  0.5138  0.9860 -0.4129
  121MOL0     C15852   2.560   6.993   1.454  0.0036 -0.7299  0.9090
  121MOL0     C15853   2.467   7.070   1.364 -0.3290  0.6106 -0.3658
  121MOL0     C15854   2.423   6.980   1.241 -1.3366  0.1835 -0.3719
  121MOL0     C15855   2.309   7.034   1.158 -0.0236 -0.5631 -0.0354
  121MOL0     C15856   2.183   7.032   1.245 -0.0898  0.5822 -0.1999
  121MOL0     N15857   2.054   7.050   1.177  0.1923 -0.3453  0.0809
  121MOL0     C15858   2.009   7.166   1.132  0.3470  0.8700  0.9162
  121MOL0     C15859   1.887   7.138   1.077  0.8513 -0.3753 -0.6141
  121MOL0     C15860   1.811   7.242   1.007  0.1938 -0.3225 -0.6301
  121MOL0     C15861   1.882   7.296   0.880 -0.2676  0.3108 -0.2023
  121MOL0     C15862   1.789   7.383   0.797  0.0051 -0.0087  0.4285
  121MOL0     C15863   1.843   7.454   0.683 -0.4088  0.3257  0.7254
  121MOL0     O15864   1.748   7.547   0.633  0.4171  0.0621  0.6250
  121MOL0     C15865   1.660   7.506   0.533 -0.2469 -0.0661  0.8995
  121MOL0     C15866   1.687   7.508   0.398 -0.2167  0.8727  0.2278
  121MOL0     C15867   1.585   7.476   0.312  0.2743  0.3193 -0.4659
  121MOL0     C15868   1.466   7.417   0.352 -0.7569  0.3573 -0.0254
  121MOL0     C15869   1.374   7.350   0.264  0.0907  0.4302 -0.5649
  121MOL0     O15870   1.297   7.248   0.310 -0.7132  0.1676 -0.2016
  121MOL0     C15871   1.186   7.203   0.240 -0.7626 -0.1028 -0.5200
  121MOL0     C15872   1.137   7.084   0.304  0.0644 -0.8480  1.2717
  121MOL0     C15873   1.019   7.025   0.254 -0.6831 -0.8076  0.6275
  121MOL0     C15874   0.949   7.082   0.136 -0.2467  0.0779  0.3083
  121MOL0     O15875   0.847   7.028   0.067  0.1510  0.5424 -0.0637
  121MOL0     C15876   0.769   6.916   0.123  0.9340  0.0314  0.0179
  121MOL0     C15877   0.694   6.960   0.246  0.6808 -0.2548 -0.2398
  121MOL0     C15878   0.564   7.029   0.192 -1.3912 -0.0532 -0.4562
  121MOL0     C15879   0.511   7.107   0.315 -0.3308 -0.7656 -0.2011
  121MOL0     C15880   0.388   7.191   0.267 -0.4917 -1.4910  0.5312
  121MOL0     C15881   0.343   7.279   0.382 -0.3916 -0.3153  0.3043
  121MOL0     C15882   0.234   7.377   0.320  0.5787  0.3471  0.7167
  121MOL0     C15883   0.167   7.447   0.440 -0.0843 -0.3683  0.0143
  121MOL0    Cl15884   0.102   7.334   0.547  0.4655 -0.3343  0.0460
  121MOL0     C15885   1.004   7.186   0.067 -0.4666 -0.2319 -0.3222
  121MOL0     C15886   1.119   7.245   0.124 -0.2877  0.4659 -0.5261
  121MOL0     O15887   1.383   7.385   0.143  0.1669 -1.1577 -0.7302
  121MOL0     C15888   1.444   7.411   0.485 -1.0262  0.1931 -0.0250
  121MOL0     C15889   1.534   7.462   0.576  0.1654 -0.0844  0.0374
  121MOL0     N15890   1.861   7.001   1.098  0.3167 -0.1104 -0.6722
  121MOL0     N15891   1.968   6.946   1.156  0.1349  0.5674 -0.2336
  121MOL0     C15892   3.009   6.815   1.150  0.9637 -0.5355  0.3497
  121MOL0     C15893   3.077   6.749   1.039 -0.3502 -0.5497 -0.3782
  121MOL0     C15894   3.368   6.525   0.798 -0.0368 -0.4457  0.7470
  121MOL0     C15895   3.505   6.564   0.803 -0.6490 -0.4324 -0.5651
  121MOL0     C15896   3.614   6.492   0.760 -0.0300  0.7146  0.2129
  121MOL0     C15897   3.591   6.367   0.689  0.0058 -0.2573 -0.4880
  121MOL0     O15898   3.680   6.284   0.633  0.0050  0.1944  0.7324
  121MOL0     C15899   3.799   6.339   0.585  0.2877  0.9381 -0.3672
  121MOL0     C15900   3.899   6.234   0.544 -0.7314 -0.4634 -0.2517
  121MOL0     C15901   3.854   6.148   0.424  0.1344 -0.6670 -0.5539
  121MOL0     C15902   3.976   6.120   0.339  0.0594  0.5793  0.8914
  121MOL0     C15903   3.946   6.057   0.212 -0.3260  0.0488  0.6388
  121MOL0     C15904   3.917   6.009   0.103 -0.3259 -0.2271  0.7580
  121MOL0     C15905   3.463   6.324   0.680  0.3859 -0.5599  0.3369
  121MOL0     C15906   3.350   6.404   0.725  0.2781  0.3942  0.1009
  121MOL0     H15907   3.386   6.855   1.105 -0.5844  2.0614  0.6019
  121MOL0     H15908   3.277   6.957   1.298 -0.9382  1.5677 -2.1141
  121MOL0     H15909   2.989   6.822   1.503 -0.0330  2.9533  1.3369
  121MOL0     H15910   2.899   6.766   1.372 -2.2046  1.1251 -1.3866
  121MOL0     H15911   2.823   7.013   1.539  1.4157 -0.1382 -0.1773
  121MOL0     H15912   2.763   6.840   1.556 -2.0541 -1.1462 -2.1145
  121MOL0     H15913   2.672   6.845   1.331  1.9618 -0.5944  1.6946
  121MOL0     H15914   2.726   7.014   1.310  0.6849 -0.5003 -1.9269
  121MOL0     H15915   2.504   6.918   1.510 -0.4604 -0.0326  1.4072
  121MOL0     H15916   2.594   7.065   1.529 -0.8068 -0.2775  0.8629
  121MOL0     H15917   2.502   7.167   1.327 -0.6709  0.1284 -2.0436
  121MOL0     H15918   2.385   7.096   1.432  0.4766  0.8983  0.5180
  121MOL0     H15919   2.390   6.885   1.284 -4.7253  1.5633  0.3863
  121MOL0     H15920   2.505   6.960   1.172  0.7583  0.1896  1.9738
  121MOL0     H15921   2.330   7.135   1.122  2.2790 -0.5187  1.1980
  121MOL0     H15922   2.298   6.964   1.074  1.1169 -0.4225 -0.3291
  121MOL0     H15923   2.191   7.118   1.312 -0.6685 -0.2255  0.9355
  121MOL0     H15924   2.180   6.952   1.319  0.4498  1.7791  1.1582
  121MOL0     H15925   2.063   7.261   1.129  0.7750  0.6197 -1.5501
  121MOL0     H15926   1.800   7.328   1.072  1.1893 -0.2221 -0.5707
  121MOL0     H15927   1.716   7.197   0.978 -1.0171 -0.2038  2.7029
  121MOL0     H15928   1.891   7.207   0.818  0.5878 -1.3638  2.1850
  121MOL0     H15929   1.973   7.352   0.903 -0.4947  0.6892 -0.2175
  121MOL0     H15930   1.695   7.337   0.765  0.4631 -0.8465  0.2392
  121MOL0     H15931   1.761   7.459   0.870 -1.0273  0.4452 -0.4080
  121MOL0     H15932   1.864   7.372   0.614 -3.1704  0.2627 -0.1908
  121MOL0     H15933   1.938   7.502   0.708 -1.5260  1.9900  2.0135
  121MOL0     H15934   1.791   7.517   0.368 -0.1978 -1.1188 -0.5105
  121MOL0     H15935   1.610   7.453   0.209 -4.1645  0.1652 -1.6941
  121MOL0     H15936   1.196   7.045   0.385  4.8645  4.0165  0.6571
  121MOL0     H15937   0.978   6.937   0.304 -3.4569  0.1274  0.1665
  121MOL0     H15938   0.826   6.824   0.136 -0.1404 -0.7367 -0.4981
  121MOL0     H15939   0.693   6.902   0.045 -0.6785 -1.6724  1.7687
  121MOL0     H15940   0.749   7.033   0.306  1.4796  1.9564 -3.3717
  121MOL0     H15941   0.669   6.868   0.298  3.2034 -0.6781  0.3337
  121MOL0     H15942   0.497   6.955   0.148 -0.7458  0.6668 -2.8005
  121MOL0     H15943   0.592   7.094   0.109  0.3228  0.7960  0.7210
  121MOL0     H15944   0.468   7.033   0.383 -1.7932 -0.2422 -0.5133
  121MOL0     H15945   0.583   7.172   0.367 -0.4593 -0.4924 -0.3593
  121MOL0     H15946   0.310   7.137   0.212 -1.1326 -0.7059  0.6583
  121MOL0     H15947   0.415   7.262   0.188  1.7746  0.0312  2.5406
  121MOL0     H15948   0.419   7.343   0.427 -0.6317  1.4456 -1.6225
  121MOL0     H15949   0.304   7.217   0.462 -2.7196 -2.1126 -2.0417
  121MOL0     H15950   0.283   7.449   0.253 -4.9922  1.7144 -2.5829
  121MOL0     H15951   0.158   7.322   0.263  0.4965  1.2995 -0.1202
  121MOL0     H15952   0.100   7.530   0.414 -1.3231 -1.7585 -1.4678
  121MOL0     H15953   0.254   7.494   0.485 -3.6712  3.6137  3.7670
  121MOL0     H15954   0.984   7.215  -0.035  2.5303 -0.1479 -0.9917
  121MOL0     H15955   1.157   7.326   0.063  1.8377 -1.6145 -2.2023
  121MOL0     H15956   1.345   7.384   0.519 -2.1534  2.3584 -1.3103
  121MOL0     H15957   1.516   7.447   0.682  1.7399 -3.0585  0.0126
  121MOL0     H15958   2.901   6.815   1.153  0.9460  1.0841  0.8727
  121MOL0     H15959   3.024   6.696   0.960 -1.1272 -2.6631  1.4533
  121MOL0     H15960   3.530   6.657   0.854 -0.5253  0.5563 -2.3696
  121MOL0     H15961   3.710   6.537   0.783  0.7441 -0.5371 -0.4507
  121MOL0     H15962   3.841   6.412   0.655  0.1409 -1.4425  2.3863
  121MOL0     H15963   3.789   6.404   0.498  2.1941  0.3591 -1.0658
  121MOL0     H15964   3.999   6.270   0.517 -0.3550 -2.2211 -1.3413
  121MOL0     H15965   3.908   6.182   0.639  1.2961  3.0864  1.6878
  121MOL0     H15966   3.770   6.190   0.368 -0.1345 -0.5147 -0.0383
  121MOL0     H15967   3.816   6.060   0.476 -2.9472  0.1519 -1.2066
  121MOL0     H15968   4.036   6.210   0.319  1.8243 -0.6392  0.4893
  121MOL0     H15969   4.045   6.066   0.404  2.5015  0.7548 -1.3846
  121MOL0     H15970   3.919   5.980  -0.000  1.5491 -1.3507  1.0615
  121MOL0     H15971   3.441   6.242   0.613 -1.5090  1.4701 -1.7286
  121MOL0     H15972   3.255   6.355   0.706  0.8255  0.0779 -2.0641
  122MOL0     O15973   4.428   3.615   2.552 -0.2221  0.7013 -0.0447
  122MOL0     C15974   4.397   3.627   2.432  0.3180  1.1512 -0.7192
  122MOL0     O15975   4.455   3.567   2.328 -0.5381 -0.0729 -0.3429
  122MOL0     C15976   4.557   3.484   2.364  0.2253  0.0956  0.0983
  122MOL0     C15977   4.548   3.353   2.369 -0.1166  0.2104 -0.6335
  122MOL0     C15978   4.663   3.271   2.399 -0.6861  0.6982 -0.1309
  122MOL0     C15979   4.792   3.328   2.406  0.8898 -0.1606 -0.4668
  122MOL0     O15980   4.886   3.226   2.441  0.1174 -0.6676 -0.4339
  122MOL0     C15981   5.020   3.247   2.408 -0.8308  0.9624  0.1861
  122MOL0     C15982   5.057   3.195   2.270 -0.0680  0.1956 -0.7492
  122MOL0     C15983   5.209   3.162   2.251 -1.0554 -0.2888 -0.2692
  122MOL0     C15984   5.244   3.020   2.296 -0.6471  0.4037 -0.2087
  122MOL0     C15985   5.404   3.009   2.286 -0.0304  0.1161 -0.2520
  122MOL0     C15986   5.448   2.928   2.411 -0.3691 -0.1280 -0.7067
  122MOL0     C15987   5.595   2.905   2.408  0.1941  0.3792 -0.1144
  122MOL0     C15988   5.646   2.824   2.289  0.4314  0.5723 -0.5527
  122MOL0     N15989   5.789   2.799   2.308 -0.0840  0.6970 -0.5117
  122MOL0     C15990   5.847   2.709   2.402 -0.2634  0.2274  0.0440
  122MOL0     C15991   5.978   2.714   2.372  0.1577  0.6876 -0.4905
  122MOL0     C15992   6.090   2.665   2.453  0.0894  0.9127  0.9026
  122MOL0     C15993   6.185   2.596   2.358 -0.8022 -0.1401  0.6200
  122MOL0     C15994   6.314   2.591   2.434 -0.1811 -0.4638  0.8131
  122MOL0     C15995   6.420   2.502   2.375 -0.3209 -1.5226 -0.5208
  122MOL0     O15996   6.381   2.360   2.395 -0.1490 -0.0143 -0.3075
  122MOL0     C15997   6.473   2.259   2.381 -0.1214  0.0214 -1.0577
  122MOL0     C15998   6.456   2.164   2.293 -0.5158  1.1762  0.2734
  122MOL0     C15999   6.554   2.068   2.270 -0.1400  0.0907 -1.1336
  122MOL0     C16000   6.658   2.049   2.359 -1.1977  0.2958  0.1556
  122MOL0     C16001   6.756   1.931   2.352  0.0073  0.5220 -0.0630
  122MOL0     O16002   6.755   1.858   2.239 -0.5777 -0.3357 -0.1419
  122MOL0     C16003   6.831   1.740   2.226 -0.1285 -1.2657  0.2546
  122MOL0     C16004   6.950   1.714   2.297  0.0523  0.0418  0.2216
  122MOL0     C16005   7.024   1.595   2.268 -0.1371  0.6090 -0.8975
  122MOL0     C16006   6.972   1.499   2.184  0.1027 -0.0167  0.5843
  122MOL0     O16007   7.043   1.389   2.141 -0.0459 -0.2227 -0.5905
  122MOL0     C16008   6.981   1.265   2.189 -0.7646 -0.0332  0.1412
  122MOL0     C16009   6.926   1.262   2.329  0.2875 -0.2502 -1.2167
  122MOL0     C16010   7.043   1.263   2.429  0.6804  0.0531  0.6772
  122MOL0     C16011   6.982   1.279   2.566 -0.7565 -0.4801  0.1940
  122MOL0     C16012   7.065   1.199   2.673 -0.1196  0.4554 -0.5854
  122MOL0     C16013   6.993   1.211   2.813  0.5626 -0.6396 -0.4290
  122MOL0     C16014   7.045   1.119   2.924  0.2902 -0.3312  0.0666
  122MOL0     C16015   6.953   1.139   3.050  0.6252  0.1878 -0.0802
  122MOL0    Cl16016   6.955   1.309   3.112 -0.4156  0.0551  0.4209
  122MOL0     C16017   6.859   1.528   2.113 -0.2655  0.1963  0.3750
  122MOL0     C16018   6.796   1.652   2.122  2.0717 -0.9064 -0.6559
  122MOL0     O16019   6.814   1.909   2.456  0.0330 -0.3017 -0.4784
  122MOL0     C16020   6.676   2.154   2.459 -0.9540 -0.1081 -0.0916
  122MOL0     C16021   6.578   2.250   2.471 -0.6796 -0.7914  1.2695
  122MOL0     N16022   5.996   2.809   2.274  0.0409 -0.4904  1.3481
  122MOL0     N16023   5.883   2.853   2.228  0.1006 -0.4243 -0.5601
  122MOL0     C16024   4.802   3.466   2.398 -0.2927 -0.0047  0.2150
  122MOL0     C16025   4.687   3.545   2.380  0.8999 -0.1203  0.9938
  122MOL0     C16026   4.288   3.727   2.418 -0.6177  0.2275  0.6554
  122MOL0     C16027   4.191   3.700   2.318  0.2903  0.0538 -0.0536
  122MOL0     C16028   4.083   3.787   2.295  0.2656 -0.0356  0.2825
  122MOL0     C16029   4.064   3.900   2.379 -0.1130 -0.1854  0.5093
  122MOL0     O16030   3.955   3.981   2.375  0.5801 -0.4798 -0.3416
  122MOL0     C16031   3.841   3.961   2.287 -0.3729  0.9169  0.3021
  122MOL0     C16032   3.745   4.081   2.260 -0.6916  0.4861 -0.2132
  122MOL0     C16033   3.819   4.184   2.161  0.7286 -1.1853  0.0674
  122MOL0     C16034   3.765   4.327   2.187 -0.2867  0.2446  0.1897
  122MOL0     C16035   3.808   4.376   2.314  0.7607  0.9842  0.1679
  122MOL0     C16036   3.848   4.414   2.426  0.3968  0.4717 -0.4777
  122MOL0     C16037   4.166   3.934   2.469 -0.5895  0.1148 -0.2210
  122MOL0     C16038   4.280   3.850   2.491 -0.6314 -0.8151 -0.7546
  122MOL0     H16039   4.451   3.310   2.346 -0.5319 -0.8736  2.6327
  122MOL0     H16040   4.659   3.163   2.398 -1.7438  0.7308 -0.6253
  122MOL0     H16041   5.080   3.182   2.473  1.5046  0.5326 -2.2453
  122MOL0     H16042   5.041   3.354   2.419  0.2575  0.8200 -0.3748
  122MOL0     H16043   5.031   3.272   2.197 -2.0165  0.5024  0.1953
  122MOL0     H16044   4.996   3.109   2.241 -0.6437 -0.1344  1.2943
  122MOL0     H16045   5.276   3.232   2.302  0.1898  0.0525 -2.2808
  122MOL0     H16046   5.239   3.176   2.147  1.3347  2.8822  0.6754
  122MOL0     H16047   5.216   3.007   2.401  4.0270 -4.5693  0.8892
  122MOL0     H16048   5.199   2.951   2.225 -0.9649  2.9320 -2.6639
  122MOL0     H16049   5.441   3.111   2.301  1.8697 -0.6523  0.6350
  122MOL0     H16050   5.439   2.979   2.187  2.6313  1.3822  0.2007
  122MOL0     H16051   5.391   2.836   2.427 -1.1532  0.6046  0.9151
  122MOL0     H16052   5.425   2.983   2.502  1.3473  2.1225 -1.5305
  122MOL0     H16053   5.644   3.002   2.413 -0.3303  0.6152  0.5705
  122MOL0     H16054   5.636   2.851   2.493  1.9897  2.4105  0.3943
  122MOL0     H16055   5.627   2.896   2.209 -1.9238  2.3900  1.4915
  122MOL0     H16056   5.596   2.728   2.278 -0.7525  1.1082 -0.0489
  122MOL0     H16057   5.791   2.648   2.471 -2.0134  1.5894 -0.0933
  122MOL0     H16058   6.067   2.603   2.540  1.5026  1.6989  1.8776
  122MOL0     H16059   6.134   2.757   2.493  0.8294 -0.0442  2.3305
  122MOL0     H16060   6.195   2.640   2.259 -1.3924  1.0926  1.0837
  122MOL0     H16061   6.151   2.495   2.336 -0.1463  0.2653 -2.6546
  122MOL0     H16062   6.363   2.689   2.432 -0.2782 -0.4253 -0.7179
  122MOL0     H16063   6.297   2.563   2.538 -3.8317 -1.2862  0.1200
  122MOL0     H16064   6.515   2.525   2.425 -0.1827  1.9477 -2.0475
  122MOL0     H16065   6.429   2.524   2.268 -2.6809 -2.2601 -0.9201
  122MOL0     H16066   6.361   2.158   2.240 -1.2131 -0.6422  1.6626
  122MOL0     H16067   6.535   1.999   2.188 -0.4803 -2.2420  0.8249
  122MOL0     H16068   7.003   1.792   2.351 -1.4200 -0.6805  2.8810
  122MOL0     H16069   7.124   1.580   2.306 -0.3597  0.2660 -0.4425
  122MOL0     H16070   7.037   1.171   2.185  2.2062  1.6056  0.3609
  122MOL0     H16071   6.898   1.247   2.120 -0.9417  1.2170  0.0132
  122MOL0     H16072   6.867   1.171   2.344 -0.2736  0.0731 -1.4338
  122MOL0     H16073   6.870   1.352   2.355 -0.0472 -0.2824 -1.8180
  122MOL0     H16074   7.112   1.347   2.413  0.8869  0.5727  3.6165
  122MOL0     H16075   7.111   1.178   2.417 -1.9956 -1.9328 -1.3969
  122MOL0     H16076   6.971   1.386   2.587 -2.6979 -0.3324 -1.3601
  122MOL0     H16077   6.881   1.241   2.581 -2.8989  4.4056 -0.0563
  122MOL0     H16078   7.169   1.234   2.671 -0.0423  0.3158  0.3017
  122MOL0     H16079   7.066   1.093   2.645 -1.1059  0.2804 -0.0138
  122MOL0     H16080   6.888   1.193   2.786  0.5048  1.8501 -2.3214
  122MOL0     H16081   6.993   1.316   2.846 -1.0788 -0.7113 -0.1152
  122MOL0     H16082   7.035   1.020   2.878  3.3825 -1.4291  1.4348
  122MOL0     H16083   7.150   1.133   2.952  0.3537  0.0108 -0.3385
  122MOL0     H16084   6.992   1.072   3.127  0.3518  2.3834  2.0915
  122MOL0     H16085   6.853   1.096   3.045  0.5689 -0.5139  3.8970
  122MOL0     H16086   6.834   1.455   2.036  1.2280 -0.4065  0.4409
  122MOL0     H16087   6.712   1.683   2.060  0.7179  1.5745  2.1205
  122MOL0     H16088   6.748   2.158   2.540 -2.9159  0.3271  1.7341
  122MOL0     H16089   6.582   2.324   2.550 -2.2657  3.8709 -2.5531
  122MOL0     H16090   4.895   3.521   2.408 -0.0163 -0.0497 -1.6557
  122MOL0     H16091   4.682   3.653   2.382  1.4944 -0.0526 -0.2431
  122MOL0     H16092   4.206   3.612   2.257  1.8382 -1.3298  2.1711
  122MOL0     H16093   4.006   3.757   2.225 -1.7557  2.5186  1.2428
  122MOL0     H16094   3.781   3.880   2.330 -0.8690  1.2607  0.2603
  122MOL0     H16095   3.880   3.927   2.191  2.5057  2.1045  0.9431
  122MOL0     H16096   3.655   4.041   2.213 -0.6019 -2.7605  2.1026
  122MOL0     H16097   3.725   4.135   2.353  0.5435  2.0573 -0.8029
  122MOL0     H16098   3.804   4.158   2.055  0.4515  0.6806 -0.3851
  122MOL0     H16099   3.927   4.174   2.170  0.8734  1.1132  1.4790
  122MOL0     H16100   3.800   4.400   2.113 -0.1064 -0.1573 -0.1235
  122MOL0     H16101   3.657   4.332   2.170 -0.5183 -0.2234  1.4509
  122MOL0     H16102   3.867   4.458   2.521 -1.9880 -3.6671  2.2060
  122MOL0     H16103   4.152   4.027   2.523 -2.5913 -0.3309  0.1317
  122MOL0     H16104   4.350   3.880   2.569 -0.8479  4.1013 -2.1350
  123MOL0     O16105   9.604  11.183   8.013  0.6283 -0.7813 -0.3651
  123MOL0     C16106   9.514  11.108   8.031 -0.2076 -0.2126  0.5217
  123MOL0     O16107   9.524  10.980   8.082  0.1496 -0.1048 -0.1248
  123MOL0     C16108   9.642  10.913   8.069 -0.1431 -0.0552  0.1079
  123MOL0     C16109   9.661  10.835   7.962 -0.2709  0.8168 -0.6005
  123MOL0     C16110   9.771  10.748   7.953 -1.1653  0.6613 -1.3557
  123MOL0     C16111   9.879  10.750   8.038  0.0242  0.0187  0.1033
  123MOL0     O16112   9.997  10.677   8.035 -0.4406 -0.7412  0.4158
  123MOL0     C16113  10.028  10.614   7.912  0.3952  0.1025 -0.6777
  123MOL0     C16114   9.988  10.463   7.891 -0.3376 -0.8385 -0.9875
  123MOL0     C16115  10.022  10.388   8.026 -0.2457  0.0548  0.6232
  123MOL0     C16116  10.042  10.239   8.015 -0.5436  0.2374 -0.3312
  123MOL0     C16117   9.929  10.159   7.926 -0.0500 -0.9029  0.2740
  123MOL0     C16118   9.790  10.158   7.983  0.1068  0.5775 -0.0207
  123MOL0     C16119   9.700  10.056   7.913  0.2850  0.8378  0.6566
  123MOL0     C16120   9.564  10.042   7.978 -0.8957 -0.1662 -0.4746
  123MOL0     N16121   9.577   9.964   8.107  0.2818  0.0713 -0.1786
  123MOL0     C16122   9.573   9.829   8.096 -0.4990  0.6376  0.3322
  123MOL0     C16123   9.582   9.784   8.224  0.1485 -0.2753 -0.2577
  123MOL0     C16124   9.589   9.640   8.268 -0.1999 -0.3615 -0.8868
  123MOL0     C16125   9.687   9.620   8.388  0.6097 -0.7283  0.4376
  123MOL0     C16126   9.696   9.474   8.434  0.4976 -0.3798  0.5565
  123MOL0     C16127   9.723   9.442   8.582  0.2365 -0.2836  0.4261
  123MOL0     O16128   9.768   9.304   8.581 -0.0652 -0.7046 -0.0001
  123MOL0     C16129   9.824   9.259   8.699 -0.7621 -0.0505 -0.1065
  123MOL0     C16130   9.891   9.136   8.703 -0.1359 -0.7087  0.7093
  123MOL0     C16131   9.962   9.099   8.823 -0.9521  0.2453  0.7188
  123MOL0     C16132   9.938   9.169   8.943  0.7129  0.1213  0.5434
  123MOL0     C16133  10.019   9.134   9.067 -1.0921 -0.7489 -0.3934
  123MOL0     O16134  10.115   9.039   9.045  0.1883 -0.5107  0.1395
  123MOL0     C16135  10.177   8.977   9.149  0.3591 -0.0677 -0.8123
  123MOL0     C16136  10.164   8.836   9.184  0.2551  0.1363 -0.2375
  123MOL0     C16137  10.239   8.778   9.284  0.2019  0.6116  0.1948
  123MOL0     C16138  10.341   8.858   9.345 -0.0417  1.0193 -1.0563
  123MOL0     O16139  10.424   8.804   9.446  0.1627  0.0195  0.5856
  123MOL0     C16140  10.568   8.823   9.436  0.5089  0.1774 -0.5854
  123MOL0     C16141  10.613   8.922   9.549 -0.2779  0.0631 -0.2647
  123MOL0     C16142  10.762   8.949   9.531 -0.2306 -1.3350  0.6315
  123MOL0     C16143  10.816   9.056   9.622  0.3254  0.7073  1.0417
  123MOL0     C16144  10.951   9.120   9.574 -0.5172  0.1784  0.3057
  123MOL0     C16145  11.063   9.010   9.558  0.2502  0.3489 -0.2673
  123MOL0     C16146  11.194   9.073   9.502  0.3789 -0.0957  0.1453
  123MOL0     C16147  11.303   8.973   9.499 -0.7198  0.3023 -0.6680
  123MOL0    Cl16148  11.270   8.853   9.374 -0.0805  0.0446  0.1062
  123MOL0     C16149  10.353   8.996   9.316 -0.3937  0.8630  0.6093
  123MOL0     C16150  10.272   9.057   9.221  1.2891  0.5574 -0.1197
  123MOL0     O16151   9.979   9.168   9.180  0.1077  0.4412  0.7946
  123MOL0     C16152   9.850   9.282   8.937 -0.1210  0.1500 -0.8414
  123MOL0     C16153   9.802   9.328   8.821  0.1933 -0.2297  0.0857
  123MOL0     N16154   9.583   9.897   8.313 -0.6219  0.6990  0.2305
  123MOL0     N16155   9.584  10.006   8.234  0.3495 -0.1187 -0.2384
  123MOL0     C16156   9.858  10.835   8.153  0.7863  0.0811 -0.0799
  123MOL0     C16157   9.743  10.909   8.165  0.1551 -0.3192  0.3429
  123MOL0     C16158   9.370  11.156   8.006 -0.6542  0.3788 -0.9329
  123MOL0     C16159   9.348  11.270   7.937  0.0940 -0.1021 -0.0338
  123MOL0     C16160   9.218  11.318   7.924  0.1081  0.0146 -0.1267
  123MOL0     C16161   9.110  11.245   7.974  0.0680 -0.0331  0.4145
  123MOL0     O16162   8.987  11.299   7.952 -0.6609 -0.8019 -0.5950
  123MOL0     C16163   8.936  11.284   7.817  0.2199  0.1670  0.0501
  123MOL0     C16164   8.857  11.154   7.801  0.0681 -1.2342 -0.3140
  123MOL0     C16165   8.720  11.167   7.871  0.3675  0.3091  0.0217
  123MOL0     C16166   8.670  11.032   7.912  0.2547  0.2461 -0.7504
  123MOL0     C16167   8.525  11.047   7.935 -0.2951  0.7801 -0.2973
  123MOL0     C16168   8.404  11.056   7.957 -1.0922  0.4838  0.3248
  123MOL0     C16169   9.131  11.133   8.054  0.0922  0.4437 -0.8145
  123MOL0     C16170   9.264  11.090   8.076  0.0225 -0.9071  0.0021
  123MOL0     H16171   9.586  10.831   7.884  0.8182  0.8209 -1.6682
  123MOL0     H16172   9.766  10.670   7.878  2.1165  0.4121 -1.4246
  123MOL0     H16173  10.138  10.609   7.908  0.5467 -1.3708  2.3916
  123MOL0     H16174   9.994  10.676   7.829  0.5276 -0.1941 -0.9524
  123MOL0     H16175  10.045  10.431   7.804 -0.2739  1.6478 -1.9413
  123MOL0     H16176   9.881  10.455   7.871 -0.3244  0.5398 -1.7557
  123MOL0     H16177   9.945  10.413   8.100 -1.7303  1.2527 -1.2313
  123MOL0     H16178  10.122  10.426   8.051  0.9658 -2.3785 -0.1691
  123MOL0     H16179  10.142  10.217   7.974 -1.1509 -2.2278 -0.6962
  123MOL0     H16180  10.051  10.188   8.111  1.7905 -0.8607 -1.0247
  123MOL0     H16181   9.969  10.058   7.919  0.8947 -0.5676  0.6246
  123MOL0     H16182   9.931  10.210   7.829 -2.4591 -0.0239  0.6201
  123MOL0     H16183   9.738  10.254   7.984 -0.0664  0.4999 -0.8623
  123MOL0     H16184   9.793  10.110   8.082 -2.0678 -0.8848 -0.5830
  123MOL0     H16185   9.681  10.089   7.811 -0.7978 -0.6419  0.3547
  123MOL0     H16186   9.753   9.960   7.913  2.5211  1.9628 -1.6072
  123MOL0     H16187   9.510   9.974   7.911  2.5856 -0.7869 -2.9188
  123MOL0     H16188   9.522  10.137   8.011  2.0908  0.5948  1.5668
  123MOL0     H16189   9.583   9.764   8.010 -4.2921 -0.9428  0.8673
  123MOL0     H16190   9.615   9.590   8.174 -3.4005  1.8820 -3.1917
  123MOL0     H16191   9.488   9.609   8.295  0.6329 -2.7761 -0.3112
  123MOL0     H16192   9.649   9.676   8.474 -0.6102  1.3538 -1.3480
  123MOL0     H16193   9.789   9.655   8.369  0.2620  0.5259  0.8214
  123MOL0     H16194   9.608   9.421   8.396 -0.4739  2.3085 -1.2394
  123MOL0     H16195   9.778   9.449   8.365 -1.0825  2.5487 -2.6693
  123MOL0     H16196   9.631   9.467   8.635  0.8700 -0.0735  1.4399
  123MOL0     H16197   9.803   9.508   8.617  0.1472 -1.2107  2.4856
  123MOL0     H16198   9.885   9.063   8.623 -0.6622  1.6514 -1.5425
  123MOL0     H16199  10.033   9.017   8.829 -0.9311  0.2479  0.5068
  123MOL0     H16200  10.091   8.778   9.127 -0.3108 -0.2860  0.8949
  123MOL0     H16201  10.230   8.673   9.313 -1.7477 -0.7502 -4.4154
  123MOL0     H16202  10.587   8.864   9.337  0.7521 -0.5269 -0.8407
  123MOL0     H16203  10.621   8.727   9.441  0.6119  0.2112 -0.9697
  123MOL0     H16204  10.608   8.880   9.650  1.5284  1.9206  0.6813
  123MOL0     H16205  10.552   9.012   9.542 -1.2024 -0.5388 -0.0471
  123MOL0     H16206  10.766   8.997   9.433 -1.2352 -2.1052  0.2036
  123MOL0     H16207  10.822   8.858   9.536  0.5695 -0.7991  1.1050
  123MOL0     H16208  10.741   9.136   9.626 -0.7774 -0.3253  1.8416
  123MOL0     H16209  10.818   9.007   9.719 -1.6451 -2.0418 -0.1807
  123MOL0     H16210  10.978   9.198   9.646 -1.6382  0.7580  0.1335
  123MOL0     H16211  10.937   9.167   9.476 -4.1355 -0.5895  0.3026
  123MOL0     H16212  11.034   8.932   9.488  0.9713  0.6311 -0.9030
  123MOL0     H16213  11.078   8.963   9.655 -0.3711 -1.2793 -0.9378
  123MOL0     H16214  11.173   9.097   9.397  1.1520 -0.2489 -0.0488
  123MOL0     H16215  11.234   9.165   9.546  0.9265  0.6754 -1.8273
  123MOL0     H16216  11.300   8.923   9.596 -2.7052 -2.2294 -1.9070
  123MOL0     H16217  11.400   9.016   9.473 -1.6559  1.7592 -1.8580
  123MOL0     H16218  10.419   9.059   9.374 -0.1043  0.3969  0.7819
  123MOL0     H16219  10.272   9.160   9.187 -3.2647  1.4176  1.8005
  123MOL0     H16220   9.820   9.344   9.021 -0.8810 -0.7588 -0.4246
  123MOL0     H16221   9.736   9.414   8.820  0.9509  0.3658 -0.3917
  123MOL0     H16222   9.929  10.841   8.234  1.0155  1.4487 -0.3631
  123MOL0     H16223   9.720  10.960   8.258 -0.3775 -1.2361  0.7267
  123MOL0     H16224   9.428  11.331   7.896 -1.2959  0.3987 -2.1504
  123MOL0     H16225   9.201  11.412   7.872  4.0165  0.3714 -1.1299
  123MOL0     H16226   9.015  11.289   7.742  1.4179 -1.8304  1.0764
  123MOL0     H16227   8.876  11.374   7.799 -0.2455 -0.2392 -0.4629
  123MOL0     H16228   8.844  11.150   7.692 -1.4424  0.7383 -0.2583
  123MOL0     H16229   8.920  11.069   7.830  0.1627 -0.3456  2.3554
  123MOL0     H16230   8.646  11.218   7.807  2.1784  1.1261 -1.5363
  123MOL0     H16231   8.735  11.239   7.952  0.6413 -1.1810  1.3204
  123MOL0     H16232   8.677  10.960   7.830 -0.8144 -1.0938  0.2861
  123MOL0     H16233   8.729  11.002   8.000  0.6239  1.6231 -0.5141
  123MOL0     H16234   8.301  11.057   7.985 -1.0345 -1.0857  0.6966
  123MOL0     H16235   9.044  11.088   8.101 -0.2776  0.1659 -1.7461
  123MOL0     H16236   9.283  11.008   8.145  2.0734 -0.3318  0.1648
  124MOL0     O16237   1.306   0.597   8.507  0.0955  0.0949 -0.6262
  124MOL0     C16238   1.411   0.581   8.572  0.3797  0.7990  0.2848
  124MOL0     O16239   1.495   0.673   8.638  0.1724 -0.3657 -0.5089
  124MOL0     C16240   1.455   0.805   8.617  0.4139 -0.9109  0.1434
  124MOL0     C16241   1.497   0.871   8.499 -0.3134  0.1068 -0.9860
  124MOL0     C16242   1.469   1.004   8.491 -1.1179 -0.8170  0.1986
  124MOL0     C16243   1.402   1.083   8.580 -0.1638  0.9067 -0.4899
  124MOL0     O16244   1.403   1.215   8.549 -0.4369  0.6876 -0.6869
  124MOL0     C16245   1.360   1.308   8.646 -0.3827 -0.0830 -0.3498
  124MOL0     C16246   1.370   1.456   8.581  0.2552 -0.0553 -0.4897
  124MOL0     C16247   1.411   1.568   8.675  0.6489 -0.8726  0.6897
  124MOL0     C16248   1.416   1.707   8.618  0.5613  0.4598  0.8872
  124MOL0     C16249   1.461   1.812   8.719 -0.6948  0.9372 -0.5180
  124MOL0     C16250   1.373   1.817   8.835 -0.5042  0.5805 -0.3688
  124MOL0     C16251   1.400   1.931   8.929  0.9658  0.9136 -0.2272
  124MOL0     C16252   1.530   1.917   9.003 -0.5059 -0.0705  1.3481
  124MOL0     N16253   1.548   2.036   9.095 -0.6073  0.0818 -0.6207
  124MOL0     C16254   1.566   2.170   9.054  0.0189 -0.0923 -0.5946
  124MOL0     C16255   1.573   2.244   9.173  0.9283  0.4077 -1.6971
  124MOL0     C16256   1.608   2.392   9.186 -0.4545 -0.2099  0.3940
  124MOL0     C16257   1.505   2.468   9.247  0.2899  0.4485  0.1073
  124MOL0     C16258   1.553   2.614   9.283 -0.5180  0.0213 -1.1905
  124MOL0     C16259   1.464   2.684   9.391 -0.2788 -0.1688  0.4893
  124MOL0     O16260   1.335   2.733   9.343  0.0255  0.1917 -0.5575
  124MOL0     C16261   1.300   2.859   9.371 -0.4567  0.3148  0.6503
  124MOL0     C16262   1.177   2.868   9.427 -0.3281 -0.0640 -0.0181
  124MOL0     C16263   1.125   3.004   9.437 -0.2503  0.3023 -0.5946
  124MOL0     C16264   1.179   3.115   9.375  0.7721  0.6819  0.1679
  124MOL0     C16265   1.101   3.242   9.357  0.9533 -0.3360  0.0092
  124MOL0     O16266   0.972   3.245   9.406 -1.1366  1.2782  0.2158
  124MOL0     C16267   0.913   3.359   9.403 -0.1494 -1.1214  1.0617
  124MOL0     C16268   0.886   3.425   9.280  0.5877  0.8268  0.1972
  124MOL0     C16269   0.817   3.544   9.265  0.3884  0.7683  0.1256
  124MOL0     C16270   0.758   3.604   9.381 -0.8380  0.4520  0.6065
  124MOL0     O16271   0.676   3.709   9.391  0.9659  0.7225 -0.0170
  124MOL0     C16272   0.646   3.790   9.277 -0.0646 -0.1619 -0.6711
  124MOL0     C16273   0.750   3.887   9.259 -0.2713 -0.1213 -0.5550
  124MOL0     C16274   0.712   4.014   9.183 -0.5695 -0.4127  0.6811
  124MOL0     C16275   0.830   4.109   9.189  0.1244  0.2930  0.4331
  124MOL0     C16276   0.786   4.249   9.146  0.0324  0.1747 -0.3878
  124MOL0     C16277   0.759   4.260   8.997 -0.6204  0.0371 -0.8658
  124MOL0     C16278   0.887   4.252   8.911 -0.1947 -0.1838 -0.5631
  124MOL0     C16279   0.867   4.272   8.767  0.0956  0.4803 -0.6811
  124MOL0    Cl16280   1.013   4.232   8.667 -0.4611 -0.2016 -0.1431
  124MOL0     C16281   0.793   3.543   9.503  0.4570  0.0002 -0.6918
  124MOL0     C16282   0.880   3.442   9.506 -0.5619 -0.2465 -0.3660
  124MOL0     O16283   1.156   3.329   9.290  0.2459  0.4142  0.4046
  124MOL0     C16284   1.300   3.098   9.312  0.7088 -0.1648  0.0697
  124MOL0     C16285   1.357   2.971   9.313 -0.5572  0.5275 -0.7855
  124MOL0     N16286   1.573   2.156   9.279  0.6237  0.0315  0.3216
  124MOL0     N16287   1.547   2.025   9.234  0.6410 -1.2603  0.5403
  124MOL0     C16288   1.339   1.022   8.680  0.3144  0.1271 -0.0568
  124MOL0     C16289   1.358   0.878   8.699  0.3100 -0.0913  0.2092
  124MOL0     C16290   1.456   0.435   8.558  0.8191 -0.6909  0.1424
  124MOL0     C16291   1.362   0.330   8.566 -0.2076  0.2680 -0.0980
  124MOL0     C16292   1.409   0.197   8.568 -0.2875 -0.3512  0.6643
  124MOL0     C16293   1.550   0.172   8.559 -0.8681  0.0589  0.2378
  124MOL0     O16294   1.611   0.046   8.563 -0.6213  1.5204  0.5207
  124MOL0     C16295   1.535  -0.056   8.492  0.6395  0.7137 -0.1587
  124MOL0     C16296   1.624  -0.167   8.437 -0.7055  0.5012  0.2539
  124MOL0     C16297   1.556  -0.259   8.336 -0.3290  0.0909 -1.1492
  124MOL0     C16298   1.446  -0.342   8.401 -0.1300  0.5465 -0.4477
  124MOL0     C16299   1.360  -0.416   8.302 -0.0471 -0.1903 -0.0387
  124MOL0     C16300   1.308  -0.488   8.211 -0.8450 -0.3356  0.3118
  124MOL0     C16301   1.632   0.282   8.571 -0.4194  0.6935  0.3769
  124MOL0     C16302   1.589   0.413   8.562  0.9080  0.8630  0.0508
  124MOL0     H16303   1.561   0.830   8.422  0.2220  0.6929 -0.8622
  124MOL0     H16304   1.516   1.043   8.402 -0.1293 -0.4761  0.8499
  124MOL0     H16305   1.426   1.305   8.733  1.3318  0.8840 -1.5660
  124MOL0     H16306   1.259   1.295   8.688 -0.7016 -1.0886 -1.3731
  124MOL0     H16307   1.264   1.470   8.557  0.1499  1.3057  0.6284
  124MOL0     H16308   1.443   1.448   8.500  0.3539 -1.2870 -0.2947
  124MOL0     H16309   1.515   1.561   8.710  0.7286  0.8043  0.8928
  124MOL0     H16310   1.336   1.573   8.754 -3.6840 -1.3219 -2.9792
  124MOL0     H16311   1.481   1.725   8.532  2.8123  1.2110  2.6461
  124MOL0     H16312   1.314   1.733   8.586  0.9233 -0.3414 -1.0673
  124MOL0     H16313   1.443   1.909   8.671  0.2511  1.9100  1.0078
  124MOL0     H16314   1.568   1.807   8.742 -1.0415  2.8962  2.0092
  124MOL0     H16315   1.404   1.730   8.893  2.0627  3.0841  2.3434
  124MOL0     H16316   1.267   1.811   8.806 -0.7402 -1.0339  0.7264
  124MOL0     H16317   1.399   2.030   8.882  2.0831  0.1893 -1.8638
  124MOL0     H16318   1.326   1.932   9.010 -0.6831  0.3556 -1.6816
  124MOL0     H16319   1.618   1.911   8.938 -0.1479 -1.1662  1.9064
  124MOL0     H16320   1.533   1.830   9.069  1.7810  0.9425  2.7400
  124MOL0     H16321   1.574   2.205   8.951 -0.9613  1.0010 -0.3227
  124MOL0     H16322   1.616   2.443   9.089 -2.7920  0.7182  0.6195
  124MOL0     H16323   1.701   2.409   9.241 -0.6162  0.1914  0.5443
  124MOL0     H16324   1.482   2.415   9.339  0.2843  0.9896  0.4212
  124MOL0     H16325   1.415   2.474   9.184 -0.2246  0.7427  0.8587
  124MOL0     H16326   1.655   2.619   9.321 -0.1851 -1.6582 -1.7442
  124MOL0     H16327   1.547   2.673   9.190  1.2296 -2.1229 -2.7693
  124MOL0     H16328   1.527   2.764   9.432 -0.6677  0.3712  0.0483
  124MOL0     H16329   1.454   2.615   9.475  1.3779  0.9532  1.6788
  124MOL0     H16330   1.144   2.776   9.474  2.2374 -0.3466  1.4634
  124MOL0     H16331   1.024   3.001   9.477 -0.2954 -1.4359 -0.7784
  124MOL0     H16332   0.927   3.374   9.193 -1.2538 -1.1543  0.3997
  124MOL0     H16333   0.803   3.593   9.169 -1.4645 -1.1059 -0.6508
  124MOL0     H16334   0.547   3.833   9.292  0.0928 -0.2752  0.8462
  124MOL0     H16335   0.630   3.717   9.196 -2.4735 -1.4978  0.8631
  124MOL0     H16336   0.830   3.841   9.199 -0.5989 -2.4519  0.6755
  124MOL0     H16337   0.794   3.901   9.358  0.2446 -0.3555 -0.7474
  124MOL0     H16338   0.627   4.064   9.231 -1.0527 -1.5009  0.9859
  124MOL0     H16339   0.681   3.990   9.082  1.6096 -0.3116 -0.0747
  124MOL0     H16340   0.861   4.104   9.293 -2.4560  1.6930  1.3547
  124MOL0     H16341   0.911   4.076   9.123  0.6019  0.0878  1.1121
  124MOL0     H16342   0.856   4.329   9.171  1.1700 -0.3381 -1.7792
  124MOL0     H16343   0.697   4.278   9.203  1.5415 -0.8684  2.7125
  124MOL0     H16344   0.705   4.353   8.975 -0.4285  0.2303 -0.5378
  124MOL0     H16345   0.689   4.182   8.967 -2.1152  1.0249 -0.1021
  124MOL0     H16346   0.961   4.326   8.943  2.8723 -2.9286 -0.8437
  124MOL0     H16347   0.931   4.154   8.933 -2.6168 -1.1076  0.6856
  124MOL0     H16348   0.842   4.375   8.738 -0.2510  1.5376  2.8598
  124MOL0     H16349   0.790   4.202   8.735  3.0667 -2.2738 -2.3498
  124MOL0     H16350   0.731   3.580   9.584 -0.3752 -0.9418 -0.8853
  124MOL0     H16351   0.906   3.412   9.607  1.2106 -2.5232 -1.4023
  124MOL0     H16352   1.354   3.179   9.264  2.7287 -1.4388  0.0950
  124MOL0     H16353   1.446   2.953   9.254 -0.6320 -2.4949 -0.1280
  124MOL0     H16354   1.271   1.079   8.743 -4.0346 -1.1916 -3.1365
  124MOL0     H16355   1.312   0.833   8.787  2.3447  1.4698  2.1926
  124MOL0     H16356   1.254   0.343   8.569 -0.2069  1.7963 -2.8407
  124MOL0     H16357   1.340   0.114   8.574 -0.7750  0.1557  3.8980
  124MOL0     H16358   1.474  -0.016   8.409  1.2608  0.0036 -0.9748
  124MOL0     H16359   1.447  -0.096   8.542 -0.5708  2.3133 -0.8944
  124MOL0     H16360   1.713  -0.133   8.385 -2.5242 -2.2897 -5.4939
  124MOL0     H16361   1.661  -0.231   8.518  1.6118  0.7276 -0.5579
  124MOL0     H16362   1.641  -0.307   8.288  1.3902  1.0881  0.7670
  124MOL0     H16363   1.509  -0.204   8.254 -0.9076 -0.8684 -1.4818
  124MOL0     H16364   1.488  -0.397   8.485 -2.7463  1.5441  1.6427
  124MOL0     H16365   1.376  -0.271   8.445  0.7249  0.1315  1.6908
  124MOL0     H16366   1.276  -0.554   8.133 -2.4506  0.3543  0.3504
  124MOL0     H16367   1.739   0.265   8.573 -0.1156  2.4496  0.3897
  124MOL0     H16368   1.664   0.486   8.590  0.6885  0.1320  2.8147
  125MOL0     O16369   9.803   2.945   3.218  0.1213  0.7024  0.4367
  125MOL0     C16370   9.765   3.057   3.244 -0.2359  0.9221 -0.5974
  125MOL0     O16371   9.747   3.162   3.151 -0.3460 -0.2678  0.2594
  125MOL0     C16372   9.802   3.130   3.020  0.6609 -0.0862  0.1908
  125MOL0     C16373   9.702   3.095   2.927  0.4226 -1.6669 -0.6013
  125MOL0     C16374   9.731   3.078   2.792 -0.1420 -0.9292 -0.5528
  125MOL0     C16375   9.860   3.112   2.743  0.5664  0.2548 -0.6276
  125MOL0     O16376   9.903   3.113   2.615 -0.0527 -0.4816 -0.3329
  125MOL0     C16377   9.833   3.183   2.525 -0.6293 -1.0100 -0.1033
  125MOL0     C16378   9.844   3.337   2.555  0.6247 -0.3341  0.1442
  125MOL0     C16379   9.939   3.398   2.448 -0.4398  0.8584 -0.7509
  125MOL0     C16380  10.091   3.357   2.462 -0.0716 -0.2322 -0.5469
  125MOL0     C16381  10.168   3.366   2.335 -0.0446 -0.2909  0.8297
  125MOL0     C16382  10.315   3.373   2.370 -0.0706 -0.8894  0.5850
  125MOL0     C16383  10.404   3.421   2.254  0.2832 -0.7850 -0.1048
  125MOL0     C16384  10.368   3.360   2.120  1.0649 -0.3655  0.0988
  125MOL0     N16385  10.455   3.421   2.026 -0.1278 -0.3745  0.2778
  125MOL0     C16386  10.453   3.536   1.952  0.3749  0.2908 -0.8244
  125MOL0     C16387  10.576   3.549   1.899 -0.9966  0.0221  0.5478
  125MOL0     C16388  10.616   3.649   1.795 -0.6775 -0.0899 -0.7183
  125MOL0     C16389  10.747   3.716   1.832 -0.6214  0.3593 -0.8563
  125MOL0     C16390  10.868   3.640   1.804  0.2026 -0.8121 -0.1328
  125MOL0     C16391  10.877   3.553   1.679 -0.2654  0.3940  0.5563
  125MOL0     O16392  11.010   3.511   1.632  0.6497  0.1434 -0.0757
  125MOL0     C16393  11.014   3.428   1.521  0.4433  0.0920 -0.2550
  125MOL0     C16394  11.124   3.339   1.504 -0.5601 -0.7664 -0.7917
  125MOL0     C16395  11.123   3.235   1.409  0.4741 -0.7696  0.2587
  125MOL0     C16396  11.022   3.217   1.312 -0.2191 -0.3990  0.0678
  125MOL0     C16397  11.034   3.124   1.202  0.1366 -0.2356 -0.3855
  125MOL0     O16398  10.973   3.159   1.083 -0.1843  0.9857  0.2838
  125MOL0     C16399  10.959   3.064   0.979  0.3221  0.2837 -0.1130
  125MOL0     C16400  11.033   2.945   0.941  0.3864 -0.1555 -1.1167
  125MOL0     C16401  11.015   2.876   0.825  0.6349  0.0035 -0.8586
  125MOL0     C16402  10.915   2.923   0.736 -0.9937 -0.0024  0.2802
  125MOL0     O16403  10.897   2.869   0.608 -0.8209 -0.5777  0.7059
  125MOL0     C16404  11.014   2.850   0.525 -0.4097  0.7705 -1.1765
  125MOL0     C16405  11.016   2.689   0.524 -0.0737 -0.5739 -0.0081
  125MOL0     C16406  10.883   2.617   0.496 -0.4957  0.3638 -0.0031
  125MOL0     C16407  10.890   2.469   0.507  0.4925  0.0042 -0.6323
  125MOL0     C16408  10.767   2.380   0.488 -0.0026 -0.4765 -0.1388
  125MOL0     C16409  10.769   2.241   0.562 -0.2644  0.4860 -0.4062
  125MOL0     C16410  10.893   2.152   0.537  0.1896 -0.0991 -0.1599
  125MOL0     C16411  10.907   2.045   0.635  0.0871  0.4871  0.7054
  125MOL0    Cl16412  10.939   2.102   0.811 -0.2244  0.2477  0.1993
  125MOL0     C16413  10.828   3.037   0.765  0.5134  0.1006  0.2040
  125MOL0     C16414  10.858   3.101   0.887 -0.0097 -0.1807  0.3408
  125MOL0     O16415  11.067   3.015   1.237  1.2245 -0.0283 -0.4839
  125MOL0     C16416  10.916   3.308   1.328  0.1291 -0.0764 -0.4905
  125MOL0     C16417  10.902   3.404   1.431 -0.0473  0.2651  0.6242
  125MOL0     N16418  10.655   3.433   1.919 -0.7127 -1.0573 -0.9950
  125MOL0     N16419  10.577   3.359   2.007 -0.7789  0.0251  1.0428
  125MOL0     C16420   9.956   3.141   2.840 -1.1815 -0.2986 -1.0598
  125MOL0     C16421   9.924   3.157   2.971 -0.2387 -0.4126 -0.0041
  125MOL0     C16422   9.711   3.079   3.383  0.3376  0.6296  0.1299
  125MOL0     C16423   9.629   3.193   3.411  0.3172 -0.1721  0.3672
  125MOL0     C16424   9.595   3.224   3.540  0.5065  0.4922 -0.7633
  125MOL0     C16425   9.624   3.131   3.644 -0.1923 -1.2416 -0.5455
  125MOL0     O16426   9.604   3.150   3.781  0.2392 -0.2351  0.9318
  125MOL0     C16427   9.510   3.257   3.818  0.7671 -1.0437  1.1839
  125MOL0     C16428   9.567   3.398   3.842 -0.1273 -0.2314 -0.1882
  125MOL0     C16429   9.471   3.503   3.886 -0.5266  0.2825  0.6931
  125MOL0     C16430   9.532   3.645   3.890 -0.1535  0.2917 -0.1563
  125MOL0     C16431   9.589   3.685   3.761  0.9975  0.3833  0.7308
  125MOL0     C16432   9.659   3.706   3.664 -0.4623 -0.6228  0.3557
  125MOL0     C16433   9.711   3.021   3.620 -0.1642 -0.5465  0.4461
  125MOL0     C16434   9.749   2.992   3.493 -0.3112 -0.2392 -0.5864
  125MOL0     H16435   9.605   3.080   2.973 -0.2495  2.3553 -0.3707
  125MOL0     H16436   9.653   3.068   2.718  0.2419 -0.9434 -0.9625
  125MOL0     H16437   9.725   3.167   2.520 -1.2135  2.2368 -0.6601
  125MOL0     H16438   9.864   3.154   2.425 -0.1325  1.2869 -0.6856
  125MOL0     H16439   9.884   3.364   2.653  1.6209  1.8711 -0.8149
  125MOL0     H16440   9.745   3.385   2.548  1.3133  1.6589  2.5579
  125MOL0     H16441   9.937   3.505   2.472 -0.7952  0.4393  1.1967
  125MOL0     H16442   9.905   3.395   2.344  1.8985 -0.1332 -1.5758
  125MOL0     H16443  10.142   3.410   2.543 -0.4211 -2.5466  1.3082
  125MOL0     H16444  10.095   3.251   2.491  0.1420 -0.1351 -0.2092
  125MOL0     H16445  10.152   3.466   2.292  2.6580  0.5351  1.4932
  125MOL0     H16446  10.150   3.283   2.266 -2.5946  0.5117  0.4448
  125MOL0     H16447  10.356   3.275   2.398  1.7239  0.0315  1.3049
  125MOL0     H16448  10.336   3.424   2.464  1.0818 -0.3757  0.0677
  125MOL0     H16449  10.395   3.530   2.249 -1.7460 -0.9621 -4.7209
  125MOL0     H16450  10.508   3.393   2.270  1.0954 -0.7745 -4.3216
  125MOL0     H16451  10.270   3.389   2.083  0.9714  1.2217  1.4797
  125MOL0     H16452  10.377   3.251   2.118 -1.6392 -0.6588  0.7250
  125MOL0     H16453  10.366   3.600   1.947  0.1737  0.3991  2.3534
  125MOL0     H16454  10.544   3.731   1.796  0.2598  0.7594  0.2887
  125MOL0     H16455  10.624   3.591   1.702  0.7496 -1.0918 -0.0113
  125MOL0     H16456  10.741   3.736   1.939 -0.7656  0.3170 -0.8560
  125MOL0     H16457  10.755   3.816   1.788 -0.2577 -0.3017 -2.3503
  125MOL0     H16458  10.948   3.711   1.781 -1.8768  0.4934 -4.5426
  125MOL0     H16459  10.897   3.577   1.888 -0.7310 -0.7919  0.2159
  125MOL0     H16460  10.836   3.617   1.601 -0.6889  1.3159  1.5016
  125MOL0     H16461  10.808   3.469   1.694 -2.2381  1.2512 -2.6892
  125MOL0     H16462  11.215   3.340   1.564 -0.5408 -1.1042 -0.8120
  125MOL0     H16463  11.210   3.172   1.397  1.3551  0.7684 -2.1108
  125MOL0     H16464  11.110   2.911   1.009 -2.0119  0.7111  2.3615
  125MOL0     H16465  11.083   2.794   0.809 -1.8839 -1.9703 -2.1531
  125MOL0     H16466  11.103   2.906   0.558  0.2622 -0.0995 -1.4690
  125MOL0     H16467  10.992   2.882   0.423 -1.0605 -0.8876 -1.5888
  125MOL0     H16468  11.057   2.651   0.618 -0.9814 -1.3419  0.0940
  125MOL0     H16469  11.088   2.665   0.445 -1.9458 -1.5198 -1.5112
  125MOL0     H16470  10.855   2.656   0.398 -1.8776 -0.4844  0.0326
  125MOL0     H16471  10.803   2.639   0.567  0.8125  0.8767  1.3803
  125MOL0     H16472  10.964   2.428   0.437  0.2554  3.6842 -3.3072
  125MOL0     H16473  10.929   2.461   0.609  3.3692  0.8881 -1.5532
  125MOL0     H16474  10.748   2.375   0.381  0.5797  0.9817 -0.3203
  125MOL0     H16475  10.687   2.431   0.544 -1.6201 -2.3684 -0.5807
  125MOL0     H16476  10.681   2.180   0.543  1.5715 -2.1724 -1.0038
  125MOL0     H16477  10.762   2.267   0.668 -2.1642  1.3860 -0.7238
  125MOL0     H16478  10.900   2.122   0.432  2.7602  2.4806 -0.8553
  125MOL0     H16479  10.984   2.210   0.553 -1.7687  2.5661  2.5626
  125MOL0     H16480  11.002   1.992   0.620  0.2644  1.1009 -0.4381
  125MOL0     H16481  10.821   1.977   0.630 -0.9108  1.7957 -1.3104
  125MOL0     H16482  10.753   3.075   0.697  1.6203 -0.0472 -1.1431
  125MOL0     H16483  10.792   3.183   0.913 -1.1844 -0.8492 -0.4297
  125MOL0     H16484  10.841   3.313   1.251 -1.3472  0.9509  0.9593
  125MOL0     H16485  10.816   3.471   1.425  2.3790  3.5576 -4.1888
  125MOL0     H16486  10.061   3.166   2.825 -0.3814 -1.7806  1.4659
  125MOL0     H16487  10.001   3.188   3.042 -2.0367  2.3578  0.9021
  125MOL0     H16488   9.576   3.239   3.328 -0.4619 -3.0020 -0.8262
  125MOL0     H16489   9.537   3.312   3.565 -2.3591  0.1972 -5.2411
  125MOL0     H16490   9.479   3.232   3.920  1.5753 -2.6778  1.0611
  125MOL0     H16491   9.411   3.257   3.770 -0.4218 -0.7687  3.4840
  125MOL0     H16492   9.634   3.397   3.928 -0.4981  1.0837  0.1476
  125MOL0     H16493   9.643   3.429   3.769 -0.1765  0.7759  0.1655
  125MOL0     H16494   9.434   3.487   3.988  1.0504 -0.7497  1.1295
  125MOL0     H16495   9.394   3.503   3.807  1.2354 -1.0893 -1.1148
  125MOL0     H16496   9.455   3.721   3.907  1.1922  2.6206 -3.5633
  125MOL0     H16497   9.605   3.649   3.972 -0.6917 -0.4066  0.3774
  125MOL0     H16498   9.723   3.725   3.580 -1.9312 -0.3178 -0.7338
  125MOL0     H16499   9.720   2.930   3.679 -4.1441 -2.6907 -1.8440
  125MOL0     H16500   9.800   2.900   3.465 -2.2147 -1.5330 -0.0262
  126MOL0     O16501   3.755   9.759   5.951  0.4557  0.1453  0.8554
  126MOL0     C16502   3.766   9.644   5.899 -0.3089 -0.3003 -0.5998
  126MOL0     O16503   3.784   9.526   5.966 -0.6488 -0.1193  0.5630
  126MOL0     C16504   3.826   9.537   6.096  0.4329 -0.8613 -0.1649
  126MOL0     C16505   3.958   9.498   6.122 -0.2238  0.2854  0.2052
  126MOL0     C16506   3.994   9.483   6.267 -0.4664 -0.5487  0.4160
  126MOL0     C16507   3.910   9.518   6.370  0.7687 -0.9866  0.1352
  126MOL0     O16508   3.952   9.499   6.502 -0.3228  0.3275  0.9205
  126MOL0     C16509   3.851   9.467   6.602 -0.2151 -0.7427  0.1211
  126MOL0     C16510   3.919   9.404   6.722  0.3204  0.1002 -0.2560
  126MOL0     C16511   4.013   9.497   6.801  0.4026  0.1016 -0.5316
  126MOL0     C16512   4.052   9.431   6.928  0.0080  0.6089 -0.0396
  126MOL0     C16513   3.960   9.467   7.040  0.2941  0.5131  1.2226
  126MOL0     C16514   3.965   9.388   7.172 -0.0684  0.4944  0.1159
  126MOL0     C16515   3.931   9.466   7.302 -0.7456  0.4220  0.4793
  126MOL0     C16516   3.782   9.501   7.330 -0.5502  0.4786 -0.5622
  126MOL0     N16517   3.723   9.599   7.241 -0.3217  0.2086  0.0857
  126MOL0     C16518   3.780   9.724   7.225 -0.0689  0.4593 -0.6397
  126MOL0     C16519   3.678   9.805   7.183 -0.5325 -0.3336  0.6937
  126MOL0     C16520   3.685   9.952   7.160 -0.7055 -0.0873 -0.3893
  126MOL0     C16521   3.628  10.032   7.277 -0.8392 -0.0658  0.3037
  126MOL0     C16522   3.699   9.998   7.412  0.3136 -0.1348  0.5283
  126MOL0     C16523   3.845  10.040   7.441  1.2707  0.3333  0.2765
  126MOL0     O16524   3.852  10.022   7.591 -0.3378 -0.4242  1.6282
  126MOL0     C16525   3.858   9.899   7.630 -0.7382  0.6562  0.0405
  126MOL0     C16526   3.791   9.862   7.748  0.6653  0.4436  0.2496
  126MOL0     C16527   3.812   9.733   7.812  0.1012 -0.7525  0.8619
  126MOL0     C16528   3.909   9.652   7.752 -0.5847  0.7744  0.0352
  126MOL0     C16529   3.950   9.530   7.830  0.0766  0.2119 -0.2679
  126MOL0     O16530   3.859   9.460   7.909 -0.0277  0.6682  0.2757
  126MOL0     C16531   3.903   9.364   7.997 -1.1090  0.0806 -0.2769
  126MOL0     C16532   3.989   9.413   8.105  0.4311 -0.4417  0.3192
  126MOL0     C16533   4.043   9.312   8.190 -0.6812 -0.2248 -0.3663
  126MOL0     C16534   4.019   9.175   8.174 -0.1620 -0.1637  0.0037
  126MOL0     O16535   4.072   9.083   8.258  0.2389  0.0741 -0.2939
  126MOL0     C16536   4.033   9.101   8.395  0.3394  0.0218 -0.7884
  126MOL0     C16537   4.110   8.992   8.467  0.1422  0.2443 -0.4548
  126MOL0     C16538   4.068   8.988   8.614 -0.3856  0.3418  0.3676
  126MOL0     C16539   4.154   8.895   8.696  0.5042 -0.4395  1.1649
  126MOL0     C16540   4.168   8.918   8.847  0.6553 -0.2146 -0.6303
  126MOL0     C16541   4.038   8.856   8.907  0.1327 -0.4880 -0.0534
  126MOL0     C16542   4.008   8.917   9.046  0.1233  0.1371 -0.2563
  126MOL0     C16543   3.879   8.832   9.105  0.2537 -0.3863  0.9197
  126MOL0    Cl16544   3.753   8.865   8.982  0.3561 -0.2403 -0.1599
  126MOL0     C16545   3.941   9.132   8.065 -0.6811 -0.5414  0.1874
  126MOL0     C16546   3.874   9.227   7.984  0.2866  1.1337  1.1821
  126MOL0     O16547   4.060   9.489   7.803  0.5873  0.3067  0.5734
  126MOL0     C16548   3.969   9.686   7.635 -0.5020  0.0352  0.3148
  126MOL0     C16549   3.944   9.802   7.574 -0.3315  0.1305  0.8224
  126MOL0     N16550   3.565   9.734   7.184  0.1876  0.1543  0.3813
  126MOL0     N16551   3.588   9.616   7.227 -0.4541  0.6296 -0.3407
  126MOL0     C16552   3.776   9.570   6.336 -0.1228  0.1720  0.1545
  126MOL0     C16553   3.729   9.582   6.203 -0.4940 -0.4583 -0.1673
  126MOL0     C16554   3.767   9.644   5.754 -0.5063 -0.4335  0.3971
  126MOL0     C16555   3.746   9.523   5.674  0.7248 -0.3478 -0.8222
  126MOL0     C16556   3.756   9.519   5.535 -0.1564 -0.0198  0.0823
  126MOL0     C16557   3.774   9.645   5.469  0.1987 -0.0471 -0.0290
  126MOL0     O16558   3.772   9.663   5.334 -0.2328 -0.1620  0.4793
  126MOL0     C16559   3.676   9.586   5.259  0.0973 -0.1174  0.3625
  126MOL0     C16560   3.658   9.662   5.122  0.1765 -0.1516  0.4985
  126MOL0     C16561   3.519   9.654   5.063  1.4626 -0.2155  0.2161
  126MOL0     C16562   3.494   9.603   4.926  0.0233  0.1512 -0.5872
  126MOL0     C16563   3.535   9.457   4.910  0.3459 -0.4821  1.0658
  126MOL0     C16564   3.592   9.343   4.922  0.1181 -0.2078 -0.0006
  126MOL0     C16565   3.798   9.769   5.543  1.3171  0.3817  0.0899
  126MOL0     C16566   3.778   9.769   5.684  0.3675 -0.5993  0.0851
  126MOL0     H16567   4.023   9.458   6.046 -0.6622 -3.7883  1.7341
  126MOL0     H16568   4.099   9.454   6.272 -0.2749 -0.1945 -1.1196
  126MOL0     H16569   3.776   9.401   6.557 -3.2521  2.6555 -0.2412
  126MOL0     H16570   3.797   9.559   6.628 -1.3032 -1.1590 -0.6232
  126MOL0     H16571   3.964   9.307   6.698 -1.2213 -1.9311  4.0022
  126MOL0     H16572   3.841   9.357   6.783 -1.2357 -0.4693 -2.5139
  126MOL0     H16573   3.967   9.595   6.820  0.4855 -0.0530  0.5281
  126MOL0     H16574   4.098   9.526   6.739  2.1259 -0.4140  1.4920
  126MOL0     H16575   4.069   9.323   6.923  1.0499  0.7881 -0.5399
  126MOL0     H16576   4.147   9.471   6.963 -0.7338  0.4803  2.3355
  126MOL0     H16577   3.859   9.451   7.002  1.3832  2.8320 -3.2869
  126MOL0     H16578   3.973   9.570   7.074 -1.2511  0.1533  3.0590
  126MOL0     H16579   4.055   9.330   7.190  1.8642  3.7524  1.8276
  126MOL0     H16580   3.900   9.300   7.163  0.9806 -0.5130  1.9885
  126MOL0     H16581   3.968   9.405   7.385  1.1780 -0.6046 -1.0212
  126MOL0     H16582   4.003   9.548   7.295  1.7557 -1.8100 -2.6444
  126MOL0     H16583   3.777   9.552   7.427  0.7407 -0.1840 -0.1267
  126MOL0     H16584   3.725   9.408   7.329  2.3852 -1.4642 -1.6204
  126MOL0     H16585   3.884   9.755   7.235 -0.6344  1.8226  1.9272
  126MOL0     H16586   3.636   9.996   7.073 -0.2340  1.7267  0.2095
  126MOL0     H16587   3.791   9.975   7.147 -0.4641 -0.8298  0.1899
  126MOL0     H16588   3.522  10.009   7.290 -1.3986  1.3599 -1.3785
  126MOL0     H16589   3.644  10.139   7.257 -1.0147  0.3740  2.2587
  126MOL0     H16590   3.625  10.036   7.483 -0.7887 -1.1936 -0.0219
  126MOL0     H16591   3.693   9.890   7.428  0.5144 -0.0689  1.0715
  126MOL0     H16592   3.857  10.148   7.431  0.2900  0.3504 -1.0197
  126MOL0     H16593   3.922   9.988   7.382  0.1582 -0.5254 -0.4780
  126MOL0     H16594   3.710   9.929   7.775 -1.6782 -0.8609 -2.9241
  126MOL0     H16595   3.752   9.696   7.895 -0.8475 -2.1802 -0.4001
  126MOL0     H16596   4.001   9.520   8.117 -2.5402 -0.1423  1.5111
  126MOL0     H16597   4.112   9.333   8.271 -0.1858  0.0341 -0.8462
  126MOL0     H16598   3.924   9.087   8.403 -0.3193  1.7948 -4.5219
  126MOL0     H16599   4.059   9.199   8.435  2.0901  0.8802 -3.7862
  126MOL0     H16600   4.219   9.000   8.455  0.3901 -0.3321  1.1759
  126MOL0     H16601   4.082   8.896   8.422 -0.0014  0.7433 -1.4497
  126MOL0     H16602   3.962   8.961   8.612  0.0234 -1.4233 -1.9979
  126MOL0     H16603   4.085   9.086   8.659  2.1228  0.0020  0.3431
  126MOL0     H16604   4.133   8.790   8.671 -0.1743  0.2611 -1.5136
  126MOL0     H16605   4.259   8.909   8.667  0.4724  0.4353  1.4578
  126MOL0     H16606   4.159   9.024   8.871  1.8227 -0.2025 -0.1610
  126MOL0     H16607   4.260   8.876   8.889  0.8249  1.9892  1.3982
  126MOL0     H16608   4.039   8.747   8.905  1.6609 -0.4967 -2.6842
  126MOL0     H16609   3.961   8.893   8.838  0.7999 -3.0522 -2.3412
  126MOL0     H16610   4.099   8.917   9.107 -0.5835  2.2630  0.8989
  126MOL0     H16611   3.977   9.022   9.056 -2.1322 -0.6183  1.6037
  126MOL0     H16612   3.862   8.878   9.203  3.5880  3.3045  0.0452
  126MOL0     H16613   3.904   8.726   9.115  2.2790  0.2270  3.2561
  126MOL0     H16614   3.922   9.026   8.051  0.6810 -0.9271  1.0472
  126MOL0     H16615   3.797   9.196   7.913 -1.4615  1.0960  2.9913
  126MOL0     H16616   4.042   9.624   7.584 -1.8202  0.3261 -2.0869
  126MOL0     H16617   3.983   9.821   7.475 -3.4643  2.0358 -0.1938
  126MOL0     H16618   3.700   9.593   6.410  1.4675  2.0327  1.3262
  126MOL0     H16619   3.630   9.624   6.191 -0.1576  0.4936  0.3378
  126MOL0     H16620   3.756   9.431   5.731  2.1114  1.6838  2.5415
  126MOL0     H16621   3.732   9.422   5.492 -1.1776 -0.2126  1.0263
  126MOL0     H16622   3.584   9.580   5.318  0.1096 -1.7243  0.2404
  126MOL0     H16623   3.699   9.480   5.251  0.4895 -0.0417  0.4693
  126MOL0     H16624   3.667   9.770   5.141 -0.9399 -0.0186  0.3364
  126MOL0     H16625   3.738   9.634   5.053 -1.5552 -3.5142 -0.3394
  126MOL0     H16626   3.465   9.750   5.070 -1.8825 -1.8225 -1.2420
  126MOL0     H16627   3.458   9.590   5.128  2.8662 -4.2196 -2.1025
  126MOL0     H16628   3.390   9.599   4.894  0.3632  0.3106 -1.7701
  126MOL0     H16629   3.544   9.670   4.855 -0.8521  1.4492 -0.0091
  126MOL0     H16630   3.627   9.242   4.920 -1.1778 -0.7121 -3.3183
  126MOL0     H16631   3.799   9.861   5.485 -1.1450  0.7143  0.4790
  126MOL0     H16632   3.772   9.869   5.725 -2.5100 -0.0024 -1.5050
  127MOL0     O16633   4.843   2.074   7.904 -0.5575  0.3559  0.1562
  127MOL0     C16634   4.746   2.095   7.969  0.1431  0.3522 -0.2154
  127MOL0     O16635   4.656   2.188   7.937 -0.6132  0.2299 -0.8128
  127MOL0     C16636   4.668   2.249   7.806  0.6832  0.5398  0.5089
  127MOL0     C16637   4.725   2.380   7.811 -0.2869  0.5007  0.1779
  127MOL0     C16638   4.738   2.452   7.693 -0.7299 -0.4022 -0.6290
  127MOL0     C16639   4.691   2.400   7.573 -0.2158 -0.0544 -0.3484
  127MOL0     O16640   4.679   2.463   7.460 -0.8253  0.3643  0.4464
  127MOL0     C16641   4.649   2.601   7.449 -0.7176 -0.8185  0.0795
  127MOL0     C16642   4.543   2.638   7.336  0.2987 -1.6395 -0.5059
  127MOL0     C16643   4.562   2.542   7.224 -0.2450  0.4252 -0.1949
  127MOL0     C16644   4.483   2.573   7.106  0.0967 -0.4549  0.5543
  127MOL0     C16645   4.551   2.527   6.983  0.0078 -0.3735  0.0160
  127MOL0     C16646   4.459   2.552   6.867  0.6265  0.5366 -0.2612
  127MOL0     C16647   4.517   2.474   6.744 -0.3322 -0.8412 -0.3180
  127MOL0     C16648   4.441   2.495   6.614 -0.0864 -0.2843  0.1355
  127MOL0     N16649   4.500   2.441   6.496 -0.0331  0.4665 -0.6479
  127MOL0     C16650   4.570   2.321   6.493  0.2175 -1.3174 -0.3242
  127MOL0     C16651   4.607   2.304   6.361  0.7726 -0.9972  0.1989
  127MOL0     C16652   4.668   2.188   6.298  0.3056 -0.5526  0.5660
  127MOL0     C16653   4.782   2.217   6.196  0.3665 -0.1861 -0.7266
  127MOL0     C16654   4.828   2.096   6.118  0.5645  0.7778 -0.4920
  127MOL0     C16655   4.723   2.021   6.031  0.2679  0.2400 -0.1849
  127MOL0     O16656   4.799   1.910   5.981  0.3438 -0.0940 -0.5175
  127MOL0     C16657   4.736   1.814   5.909  0.2883  0.6298 -0.3058
  127MOL0     C16658   4.601   1.790   5.906 -0.6880 -0.8176 -0.3182
  127MOL0     C16659   4.556   1.673   5.847  0.9085 -0.4145  0.2823
  127MOL0     C16660   4.641   1.577   5.791 -0.3867 -0.1881 -0.7282
  127MOL0     C16661   4.587   1.443   5.744 -0.0828  0.5819  0.8128
  127MOL0     O16662   4.675   1.341   5.718  0.6155 -0.2250  0.1922
  127MOL0     C16663   4.625   1.210   5.684  0.0072 -0.0090 -0.7362
  127MOL0     C16664   4.548   1.201   5.574  0.1210  0.6087  1.1750
  127MOL0     C16665   4.498   1.073   5.536 -0.6582 -1.2653 -0.9118
  127MOL0     C16666   4.523   0.959   5.613  1.1193  0.0337  0.2089
  127MOL0     O16667   4.506   0.833   5.576 -0.2262  0.9078  0.0691
  127MOL0     C16668   4.420   0.739   5.651 -0.3651 -0.4887  0.1161
  127MOL0     C16669   4.472   0.594   5.621 -0.2378 -0.2266  0.3521
  127MOL0     C16670   4.633   0.592   5.627 -0.0337  0.3933  0.0303
  127MOL0     C16671   4.693   0.455   5.675 -0.3789 -0.3412  0.7535
  127MOL0     C16672   4.646   0.400   5.813  1.2705 -0.0426 -0.5629
  127MOL0     C16673   4.690   0.490   5.934  0.2966  0.5842  0.8212
  127MOL0     C16674   4.662   0.421   6.064 -0.0184  0.7335  0.3842
  127MOL0     C16675   4.786   0.413   6.143  0.0808  0.3884 -0.4186
  127MOL0    Cl16676   4.742   0.365   6.297  0.1248 -0.1006  0.1821
  127MOL0     C16677   4.599   0.981   5.732 -0.0157  1.4240 -0.0216
  127MOL0     C16678   4.656   1.098   5.766  0.0176 -0.2331  0.8051
  127MOL0     O16679   4.466   1.427   5.731  0.3146  0.1405 -0.4551
  127MOL0     C16680   4.779   1.604   5.790 -0.4524  0.4773 -0.4354
  127MOL0     C16681   4.826   1.724   5.845 -1.2987  0.6517 -0.7195
  127MOL0     N16682   4.553   2.417   6.291  0.1080 -0.1850  0.2090
  127MOL0     N16683   4.498   2.499   6.374  0.1196  0.1067  0.6724
  127MOL0     C16684   4.642   2.264   7.570 -0.8161  0.1161 -0.3131
  127MOL0     C16685   4.633   2.189   7.689  0.1441  0.1792 -0.1808
  127MOL0     C16686   4.714   2.024   8.093  0.1447 -0.2070 -0.1385
  127MOL0     C16687   4.574   2.000   8.130  0.4167 -0.1873  0.3430
  127MOL0     C16688   4.539   1.930   8.245 -0.7271 -0.6351  0.3517
  127MOL0     C16689   4.641   1.889   8.329 -0.5676 -1.0295  0.4203
  127MOL0     O16690   4.621   1.818   8.444 -0.1116  0.1593 -0.1938
  127MOL0     C16691   4.494   1.812   8.510 -0.1060 -0.5964 -0.4535
  127MOL0     C16692   4.501   1.924   8.613 -0.5984  0.0414 -0.5196
  127MOL0     C16693   4.379   1.937   8.683  0.6416 -0.2506 -1.3662
  127MOL0     C16694   4.273   2.018   8.607  0.3457 -0.3607  0.2939
  127MOL0     C16695   4.175   2.060   8.709 -1.5561 -1.0343 -0.9596
  127MOL0     C16696   4.084   2.087   8.790  0.3802 -0.7871  0.4079
  127MOL0     C16697   4.773   1.918   8.298 -0.2663  0.3284  0.0565
  127MOL0     C16698   4.813   1.973   8.175  0.1317 -0.6089 -1.3916
  127MOL0     H16699   4.754   2.402   7.914  2.6521 -2.1424  0.0346
  127MOL0     H16700   4.784   2.550   7.698 -1.4952 -0.1171  2.0883
  127MOL0     H16701   4.741   2.657   7.429 -2.8270  2.1054 -2.4979
  127MOL0     H16702   4.618   2.632   7.549 -0.6207  0.8346 -0.3760
  127MOL0     H16703   4.561   2.735   7.288  1.4392 -2.0909 -1.0291
  127MOL0     H16704   4.440   2.628   7.370  0.1139  1.0058 -0.0838
  127MOL0     H16705   4.545   2.441   7.263  1.7732 -0.1129 -0.5957
  127MOL0     H16706   4.670   2.531   7.208  0.0333  0.8238  1.2795
  127MOL0     H16707   4.381   2.541   7.129  0.6110 -2.5594  0.1726
  127MOL0     H16708   4.482   2.680   7.083 -2.6663 -0.4843  0.2505
  127MOL0     H16709   4.569   2.420   6.994  0.3310 -0.3392 -0.1813
  127MOL0     H16710   4.643   2.586   6.976 -1.6793  2.3178 -1.0832
  127MOL0     H16711   4.465   2.658   6.843 -1.3195  0.3476 -1.8795
  127MOL0     H16712   4.354   2.526   6.881  0.8255 -1.3107 -1.6852
  127MOL0     H16713   4.612   2.526   6.736  0.3533 -0.5680  5.3841
  127MOL0     H16714   4.540   2.368   6.760  1.7062  0.0774  4.4394
  127MOL0     H16715   4.436   2.602   6.595  3.2532 -0.3963 -2.3596
  127MOL0     H16716   4.339   2.456   6.627  0.0773 -1.7092 -2.3638
  127MOL0     H16717   4.588   2.257   6.579  2.0309  0.8851  1.0732
  127MOL0     H16718   4.590   2.129   6.248 -0.5587  0.0021  1.2223
  127MOL0     H16719   4.695   2.117   6.377 -0.5583  0.0835  1.4582
  127MOL0     H16720   4.868   2.246   6.257  1.2300 -1.2645 -1.3928
  127MOL0     H16721   4.766   2.297   6.123  4.0588  0.5812 -0.8833
  127MOL0     H16722   4.906   2.137   6.053  0.7395  0.2300 -0.6329
  127MOL0     H16723   4.867   2.023   6.190 -1.8606  0.2957  0.4169
  127MOL0     H16724   4.701   2.087   5.948  0.1210  4.1285  2.6733
  127MOL0     H16725   4.634   1.993   6.088  0.6702 -0.3407  0.1745
  127MOL0     H16726   4.526   1.862   5.938  0.3764 -0.5440  1.6966
  127MOL0     H16727   4.450   1.651   5.837  0.6728  1.1071 -0.7863
  127MOL0     H16728   4.502   1.282   5.520 -2.2292 -1.0416  0.5772
  127MOL0     H16729   4.433   1.066   5.449 -2.3196  1.4247  0.0135
  127MOL0     H16730   4.317   0.774   5.637  0.4897  2.2322 -0.0083
  127MOL0     H16731   4.417   0.755   5.759 -3.4764  3.9944 -0.3532
  127MOL0     H16732   4.439   0.562   5.522 -2.2019  2.3556  0.0780
  127MOL0     H16733   4.415   0.525   5.684  1.7534 -1.6632  0.6980
  127MOL0     H16734   4.668   0.675   5.689  0.9183  1.1246 -1.4326
  127MOL0     H16735   4.668   0.609   5.524  2.8808  0.9560  1.0194
  127MOL0     H16736   4.679   0.376   5.600  1.6574  2.2657 -2.6540
  127MOL0     H16737   4.801   0.469   5.681 -0.7164  5.0914 -0.8522
  127MOL0     H16738   4.672   0.294   5.823 -0.9922 -0.5364  0.9696
  127MOL0     H16739   4.537   0.387   5.815  1.5467 -3.6188 -2.0191
  127MOL0     H16740   4.636   0.585   5.931  0.8227  0.8851  0.7629
  127MOL0     H16741   4.798   0.505   5.930  0.4208  0.6176  3.0834
  127MOL0     H16742   4.583   0.475   6.116 -0.6994  0.5777 -0.4571
  127MOL0     H16743   4.627   0.318   6.055  2.4467 -0.6529  4.1120
  127MOL0     H16744   4.833   0.511   6.140  1.8557 -0.1708  3.3752
  127MOL0     H16745   4.866   0.354   6.097  1.0773  1.9088 -0.7142
  127MOL0     H16746   4.637   0.901   5.795  0.0772  1.2499 -0.2990
  127MOL0     H16747   4.718   1.096   5.855  0.9772  1.2371  0.1978
  127MOL0     H16748   4.849   1.540   5.737 -0.7307  0.3756 -0.6823
  127MOL0     H16749   4.931   1.743   5.864 -0.9219 -1.3541 -0.5729
  127MOL0     H16750   4.609   2.226   7.474 -1.7018  0.9065 -0.3380
  127MOL0     H16751   4.592   2.089   7.682  2.5178 -0.9360  0.9108
  127MOL0     H16752   4.496   2.031   8.061  1.0810 -0.2972 -0.4805
  127MOL0     H16753   4.439   1.909   8.281 -0.9411 -1.9465 -0.9292
  127MOL0     H16754   4.483   1.713   8.556 -2.3662  0.1835  0.8762
  127MOL0     H16755   4.401   1.803   8.453 -0.2842 -1.3060 -0.0648
  127MOL0     H16756   4.578   1.894   8.685  0.0152  2.0505 -0.2761
  127MOL0     H16757   4.540   2.018   8.574  0.9674 -1.5715 -3.2026
  127MOL0     H16758   4.400   1.996   8.772 -1.1988 -0.6866 -0.6019
  127MOL0     H16759   4.343   1.851   8.740 -0.6959  3.3399  3.9010
  127MOL0     H16760   4.313   2.106   8.557 -1.8870  0.5248 -0.0529
  127MOL0     H16761   4.223   1.948   8.539 -2.2293  0.9325  0.7443
  127MOL0     H16762   4.009   2.103   8.865  1.8672  1.5172  1.5142
  127MOL0     H16763   4.858   1.907   8.364  0.6958  0.1053 -1.1757
  127MOL0     H16764   4.919   1.970   8.153 -0.0411  0.2901 -2.4108
  128MOL0     O16765   9.231   6.404   3.314 -0.8295 -0.3476  0.0280
  128MOL0     C16766   9.202   6.494   3.242 -0.4172 -0.7747  0.5570
  128MOL0     O16767   9.151   6.613   3.279  0.3995 -0.1909 -0.2850
  128MOL0     C16768   9.140   6.641   3.416 -0.1271 -0.3086  0.4608
  128MOL0     C16769   9.011   6.673   3.464  0.5983  0.3377 -0.1396
  128MOL0     C16770   8.986   6.691   3.595  0.1507 -0.4845  0.3844
  128MOL0     C16771   9.095   6.683   3.690 -0.9718  0.4331 -0.6304
  128MOL0     O16772   9.089   6.697   3.831 -0.3001  0.8010  0.4942
  128MOL0     C16773   8.959   6.711   3.886  0.2008  0.3705 -0.1689
  128MOL0     C16774   8.974   6.739   4.033  0.9086 -0.7761 -0.3490
  128MOL0     C16775   9.017   6.884   4.060 -0.1800  0.2957  0.5010
  128MOL0     C16776   9.031   6.899   4.222 -0.5119 -0.1045 -0.4863
  128MOL0     C16777   8.914   6.880   4.310  0.2280 -0.0857 -1.1439
  128MOL0     C16778   8.910   6.964   4.438 -0.3150 -0.1153  0.3945
  128MOL0     C16779   9.008   6.926   4.552  0.0204 -0.4303 -1.0056
  128MOL0     C16780   8.954   7.007   4.677 -0.1615  0.6176  0.4211
  128MOL0     N16781   9.050   6.989   4.782 -0.4196 -0.1150 -1.1294
  128MOL0     C16782   9.129   7.089   4.832 -0.1058  0.0762  0.1858
  128MOL0     C16783   9.210   7.032   4.930  0.5492  0.5306  0.5577
  128MOL0     C16784   9.315   7.099   5.016 -0.0313  0.1861 -0.1150
  128MOL0     C16785   9.264   7.135   5.159 -0.0193 -0.7634 -0.2339
  128MOL0     C16786   9.142   7.221   5.152 -0.8148 -0.0436  0.0483
  128MOL0     C16787   9.123   7.294   5.286 -0.1914  0.7406  0.5556
  128MOL0     O16788   9.232   7.367   5.326  0.6104  0.7643  0.0948
  128MOL0     C16789   9.212   7.476   5.410  0.7641 -0.7090 -0.3125
  128MOL0     C16790   9.118   7.489   5.513 -1.0075  0.8792 -0.4891
  128MOL0     C16791   9.113   7.602   5.598  0.5185 -0.0136 -0.9963
  128MOL0     C16792   9.207   7.704   5.592  0.5902  0.1156  0.0326
  128MOL0     C16793   9.210   7.824   5.678  0.2171  0.0417  0.8243
  128MOL0     O16794   9.101   7.841   5.763  0.0042  0.9542 -0.1240
  128MOL0     C16795   9.077   7.953   5.841 -0.6149  0.5295  0.1768
  128MOL0     C16796   9.062   7.931   5.979 -0.1946  0.6951  0.0870
  128MOL0     C16797   9.044   8.041   6.065  0.7136 -1.0136  0.1570
  128MOL0     C16798   9.042   8.170   6.012  0.2277  0.5856 -0.4076
  128MOL0     O16799   9.043   8.272   6.108  0.1144  0.1478 -0.4318
  128MOL0     C16800   9.001   8.403   6.070  0.0115  0.4957  0.7488
  128MOL0     C16801   9.047   8.472   6.201 -0.0272  1.1296  0.4597
  128MOL0     C16802   9.006   8.613   6.193  0.5555  0.2726 -0.7663
  128MOL0     C16803   9.077   8.678   6.323 -0.5633  0.8305  1.1057
  128MOL0     C16804   9.011   8.634   6.452 -1.0319 -0.4468 -0.9453
  128MOL0     C16805   9.078   8.719   6.571  0.1210  0.1788  0.0240
  128MOL0     C16806   9.025   8.863   6.584  0.1010  1.3968 -0.4135
  128MOL0     C16807   9.112   8.949   6.669  0.3555 -0.7249  0.9257
  128MOL0    Cl16808   9.024   9.100   6.683  0.2388  0.3591 -0.2192
  128MOL0     C16809   9.048   8.189   5.873 -0.3887 -0.3534 -0.9339
  128MOL0     C16810   9.058   8.075   5.794  0.2499 -0.4414 -0.3388
  128MOL0     O16811   9.305   7.909   5.672  0.3786 -0.4222  0.6208
  128MOL0     C16812   9.308   7.688   5.495  0.3249  0.0367  0.3991
  128MOL0     C16813   9.306   7.576   5.404 -0.2548  0.8571 -0.2539
  128MOL0     N16814   9.179   6.900   4.924 -0.1531  0.0931 -0.2346
  128MOL0     N16815   9.079   6.875   4.851  0.2266  0.1976  0.5274
  128MOL0     C16816   9.222   6.654   3.644  0.8608  0.3395  0.4207
  128MOL0     C16817   9.245   6.630   3.509 -0.0985  0.9752  0.0851
  128MOL0     C16818   9.224   6.461   3.102 -0.2080 -0.1923  0.1975
  128MOL0     C16819   9.204   6.560   3.009  0.6787  0.1967 -0.1772
  128MOL0     C16820   9.218   6.529   2.870 -0.1794  0.7876  0.2739
  128MOL0     C16821   9.246   6.401   2.826  0.2397 -0.3364  0.0211
  128MOL0     O16822   9.240   6.366   2.700 -0.6203 -0.4350 -0.1521
  128MOL0     C16823   9.115   6.335   2.639  0.9820 -0.9451  0.1559
  128MOL0     C16824   9.139   6.236   2.515 -0.0173 -0.4436 -0.2279
  128MOL0     C16825   9.186   6.095   2.554  0.1676  0.7410 -0.3339
  128MOL0     C16826   9.207   6.023   2.417  0.0231 -0.0219 -0.8493
  128MOL0     C16827   9.088   5.939   2.369  0.2624 -1.2184 -0.3698
  128MOL0     C16828   8.994   5.867   2.327  0.1824 -0.0973  0.4846
  128MOL0     C16829   9.264   6.306   2.923 -0.1345  0.6761  0.1156
  128MOL0     C16830   9.250   6.332   3.062 -0.2119  0.0762  0.0448
  128MOL0     H16831   8.930   6.692   3.394 -0.1370 -3.0198 -0.3503
  128MOL0     H16832   8.886   6.693   3.636 -1.0483 -4.7336 -1.7376
  128MOL0     H16833   8.916   6.611   3.873  1.6988 -0.2553 -0.4696
  128MOL0     H16834   8.894   6.784   3.838  0.5156  0.9783  0.3090
  128MOL0     H16835   9.051   6.675   4.076  1.5686  1.2042  1.5854
  128MOL0     H16836   8.872   6.724   4.071  1.1028 -2.9586 -0.5728
  128MOL0     H16837   8.940   6.952   4.023 -2.2823 -1.8337  0.7128
  128MOL0     H16838   9.109   6.891   4.002  0.5239 -1.8479  1.2647
  128MOL0     H16839   9.107   6.829   4.256 -0.3896  0.0494 -0.4447
  128MOL0     H16840   9.073   6.999   4.233  1.0837 -0.7699 -0.2937
  128MOL0     H16841   8.903   6.773   4.330  4.2256 -0.0225  2.9877
  128MOL0     H16842   8.824   6.906   4.253 -0.1286  0.6381 -0.2831
  128MOL0     H16843   8.807   6.945   4.469 -0.0441 -2.0211  0.2549
  128MOL0     H16844   8.925   7.070   4.417 -1.0359 -0.3512 -1.4778
  128MOL0     H16845   9.013   6.819   4.573  3.6510  0.0059  1.2155
  128MOL0     H16846   9.110   6.964   4.537  0.1460  1.2813  2.9472
  128MOL0     H16847   8.855   6.974   4.710  0.0732 -1.4843 -0.7695
  128MOL0     H16848   8.956   7.112   4.648 -0.7368  0.8225  1.1032
  128MOL0     H16849   9.137   7.192   4.801  2.4639  0.4985  1.9113
  128MOL0     H16850   9.361   7.188   4.973  3.2454 -0.8624  0.8681
  128MOL0     H16851   9.404   7.036   5.027  1.3045  1.9565 -0.2926
  128MOL0     H16852   9.353   7.168   5.213 -1.7600  1.7075  1.3252
  128MOL0     H16853   9.226   7.041   5.201 -1.7057 -0.8497 -1.8016
  128MOL0     H16854   9.159   7.296   5.074 -4.0437 -0.7318 -1.4781
  128MOL0     H16855   9.061   7.156   5.118  1.1474 -0.6419 -4.1351
  128MOL0     H16856   9.100   7.213   5.356  3.0621 -0.7183  0.1231
  128MOL0     H16857   9.040   7.365   5.277 -0.0712  0.9960  1.3517
  128MOL0     H16858   9.037   7.418   5.527 -1.5685  1.7553  0.9845
  128MOL0     H16859   9.046   7.597   5.683 -1.9623 -0.4561 -2.8783
  128MOL0     H16860   9.072   7.836   6.031  0.2001 -0.1699 -1.4976
  128MOL0     H16861   9.049   8.023   6.172 -0.8174  2.9504  1.0546
  128MOL0     H16862   8.894   8.417   6.051  0.5103  2.0024 -1.2328
  128MOL0     H16863   9.055   8.442   5.984 -0.4841 -0.9298 -0.2538
  128MOL0     H16864   9.154   8.461   6.221  0.8258  1.1155 -3.3291
  128MOL0     H16865   8.992   8.421   6.280 -2.2802  2.5895 -0.0751
  128MOL0     H16866   8.897   8.618   6.195  0.6041  1.7038 -0.5436
  128MOL0     H16867   9.056   8.666   6.111  0.4807  0.0286 -0.9740
  128MOL0     H16868   9.183   8.653   6.319 -1.1877 -2.0606 -0.8238
  128MOL0     H16869   9.068   8.787   6.325 -4.4547  0.6398  2.4265
  128MOL0     H16870   9.026   8.528   6.472  2.0467 -0.0337 -0.4508
  128MOL0     H16871   8.908   8.664   6.431 -1.2704 -0.6648 -0.1065
  128MOL0     H16872   9.186   8.729   6.561  0.0878  1.5824  0.8876
  128MOL0     H16873   9.051   8.679   6.669 -0.8904  0.7713 -0.0030
  128MOL0     H16874   8.998   8.908   6.488 -0.9949  3.0874  0.6206
  128MOL0     H16875   8.929   8.861   6.637 -0.6459  3.8133 -1.5287
  128MOL0     H16876   9.206   8.968   6.616 -2.4787  2.1499 -3.8866
  128MOL0     H16877   9.129   8.917   6.772  0.0979  1.5745  1.7478
  128MOL0     H16878   9.054   8.292   5.839 -0.5746 -0.5002 -1.4154
  128MOL0     H16879   9.062   8.092   5.687  0.1461  3.7994  0.1650
  128MOL0     H16880   9.392   7.754   5.480  0.4072 -0.1824 -0.1149
  128MOL0     H16881   9.399   7.563   5.349  0.4384  1.2511  0.7878
  128MOL0     H16882   9.305   6.651   3.714  2.4941  0.9377 -1.3975
  128MOL0     H16883   9.340   6.626   3.458  0.5302  0.1495  1.2721
  128MOL0     H16884   9.180   6.664   3.029  0.2843 -0.2842  2.0585
  128MOL0     H16885   9.195   6.613   2.805 -0.9826  1.9592  2.0029
  128MOL0     H16886   9.066   6.427   2.607  2.7009 -0.5109 -1.4536
  128MOL0     H16887   9.047   6.282   2.707  1.2839 -0.6713  0.6743
  128MOL0     H16888   9.045   6.237   2.458  1.4761 -0.5627 -2.8661
  128MOL0     H16889   9.217   6.280   2.452 -2.5071  2.3055 -1.6588
  128MOL0     H16890   9.101   6.045   2.602 -0.5315  2.9880  0.9575
  128MOL0     H16891   9.274   6.109   2.617  0.3432  2.0552 -0.8337
  128MOL0     H16892   9.247   6.089   2.340 -0.7618  0.6135 -0.7200
  128MOL0     H16893   9.282   5.944   2.432 -2.3544 -2.0856  1.2807
  128MOL0     H16894   8.911   5.810   2.290  0.9084 -1.3068  0.6771
  128MOL0     H16895   9.273   6.200   2.903 -1.5145  0.0929  2.2127
  128MOL0     H16896   9.281   6.261   3.138  3.5997  2.5072  1.0659
  129MOL0     O16897   1.172   9.279  10.715  0.4238  0.0342 -0.1304
  129MOL0     C16898   1.118   9.385  10.755  0.1170  1.5636 -0.0798
  129MOL0     O16899   1.068   9.495  10.673 -1.3770 -0.4863  0.2923
  129MOL0     C16900   1.095   9.499  10.543 -0.6859 -0.5245 -0.7565
  129MOL0     C16901   1.179   9.598  10.487 -0.2280  0.3856 -0.0329
  129MOL0     C16902   1.189   9.622  10.352  0.1014 -1.0032  0.5610
  129MOL0     C16903   1.103   9.561  10.264  0.0911  0.1413  0.2971
  129MOL0     O16904   1.092   9.594  10.138  0.1141  0.1696  0.9795
  129MOL0     C16905   1.113   9.727  10.106 -0.3513  0.4039 -0.1796
  129MOL0     C16906   1.018   9.777   9.990 -0.7125  0.9475 -0.9159
  129MOL0     C16907   0.866   9.795  10.032  1.2156 -0.2110 -0.0289
  129MOL0     C16908   0.780   9.804   9.896 -0.7115  0.3138 -0.5907
  129MOL0     C16909   0.630   9.815   9.931  0.6487  0.0631  0.3611
  129MOL0     C16910   0.554   9.825   9.799  0.3138  0.6751  0.1505
  129MOL0     C16911   0.413   9.881   9.824  0.1518  0.4031 -0.1726
  129MOL0     C16912   0.312   9.840   9.711 -0.4051  0.7266  0.1076
  129MOL0     N16913   0.174   9.883   9.737 -0.4682 -0.0211  0.3542
  129MOL0     C16914   0.117   9.922   9.854  0.7229 -0.7865  0.5272
  129MOL0     C16915  -0.012   9.955   9.816  0.1984  0.6806  0.4511
  129MOL0     C16916  -0.130   9.987   9.892 -0.2315 -1.6200 -0.6926
  129MOL0     C16917  -0.252   9.898   9.874 -0.0004  1.1458 -0.1356
  129MOL0     C16918  -0.378   9.966   9.947 -0.2161 -0.9719 -0.0857
  129MOL0     C16919  -0.353  10.004  10.100  0.9362  0.2047 -0.0574
  129MOL0     O16920  -0.470  10.064  10.168 -0.7970  0.2396  0.1261
  129MOL0     C16921  -0.462  10.203  10.198  0.3167  1.3593  0.0228
  129MOL0     C16922  -0.529  10.252  10.307  0.7705  0.2388 -0.2287
  129MOL0     C16923  -0.512  10.389  10.342  0.1150  0.2838 -1.1932
  129MOL0     C16924  -0.435  10.474  10.267  0.4612  0.1700  0.3018
  129MOL0     C16925  -0.428  10.611  10.309  0.2009 -0.4168  0.3887
  129MOL0     O16926  -0.537  10.664  10.373  0.0956  0.2696  0.7284
  129MOL0     C16927  -0.564  10.801  10.350 -0.4645  0.8749  0.2890
  129MOL0     C16928  -0.638  10.841  10.244 -0.5186 -1.0923 -0.0949
  129MOL0     C16929  -0.685  10.975  10.243 -0.7133  0.5994  0.4742
  129MOL0     C16930  -0.649  11.065  10.334  0.1937  0.5399  0.2200
  129MOL0     O16931  -0.679  11.202  10.342 -0.3004  0.5510 -0.5518
  129MOL0     C16932  -0.795  11.240  10.269 -0.6417 -1.4422 -0.5260
  129MOL0     C16933  -0.775  11.388  10.231 -0.2092 -0.2965  0.6610
  129MOL0     C16934  -0.752  11.475  10.355 -0.4740 -0.2515  0.5827
  129MOL0     C16935  -0.740  11.624  10.316  0.7042  0.5548  0.0704
  129MOL0     C16936  -0.650  11.697  10.410  0.1919  0.5102  0.1596
  129MOL0     C16937  -0.658  11.849  10.368 -0.2286  0.2337 -0.9347
  129MOL0     C16938  -0.789  11.928  10.404  0.5314 -0.6036 -0.0858
  129MOL0     C16939  -0.768  12.075  10.436 -0.0298 -0.6632 -0.1403
  129MOL0    Cl16940  -0.929  12.161  10.456  0.1954  0.1815  0.2693
  129MOL0     C16941  -0.554  11.026  10.434 -0.2158  0.8892 -0.8720
  129MOL0     C16942  -0.513  10.892  10.445  0.2320  0.0872 -0.0325
  129MOL0     O16943  -0.336  10.676  10.257 -0.9419  0.1025 -0.2951
  129MOL0     C16944  -0.372  10.430  10.153  0.2281  0.1695  0.6118
  129MOL0     C16945  -0.392  10.292  10.114  0.2365  0.1596 -0.6285
  129MOL0     N16946  -0.028   9.946   9.681 -0.1739  0.3415  0.0884
  129MOL0     N16947   0.079   9.891   9.634 -0.7654 -0.5498 -0.5267
  129MOL0     C16948   1.023   9.460  10.320  0.0324  0.1958 -0.5467
  129MOL0     C16949   1.021   9.427  10.454 -1.2280  0.3019  0.4543
  129MOL0     C16950   1.111   9.388  10.907 -0.0845  0.1084  0.1018
  129MOL0     C16951   1.063   9.505  10.962  0.2984 -0.1082 -0.0092
  129MOL0     C16952   1.028   9.510  11.094 -0.0959 -0.3859 -0.6148
  129MOL0     C16953   1.044   9.401  11.184 -0.3488 -0.2213  0.1599
  129MOL0     O16954   0.995   9.422  11.308 -0.0661 -0.2999  0.6967
  129MOL0     C16955   1.070   9.343  11.410 -0.1400  0.3540 -1.0947
  129MOL0     C16956   1.084   9.433  11.534  0.0245  1.1318  1.7509
  129MOL0     C16957   1.100   9.356  11.668 -0.9481 -0.1195  0.1261
  129MOL0     C16958   1.109   9.462  11.784 -0.3322 -0.8472 -0.3311
  129MOL0     C16959   0.973   9.506  11.818  0.3090 -0.0932 -0.8212
  129MOL0     C16960   0.853   9.544  11.839  0.5115  0.0005 -0.3579
  129MOL0     C16961   1.092   9.279  11.128  0.7155 -1.2465 -0.1268
  129MOL0     C16962   1.121   9.270  10.989 -0.2906 -0.0336  0.7247
  129MOL0     H16963   1.256   9.644  10.548 -0.4777  0.1516  0.4657
  129MOL0     H16964   1.258   9.700  10.319 -3.5466  1.6203 -1.6003
  129MOL0     H16965   1.216   9.719  10.069  0.7413  0.3565  2.6459
  129MOL0     H16966   1.110   9.792  10.194 -0.9258 -1.8213  1.5278
  129MOL0     H16967   1.029   9.705   9.908  2.0973  0.8299 -0.5302
  129MOL0     H16968   1.049   9.875   9.953 -3.0277  0.2630 -5.5249
  129MOL0     H16969   0.845   9.884  10.091 -3.9434  0.5264 -2.4678
  129MOL0     H16970   0.827   9.711  10.091  0.0582  1.1102  1.1403
  129MOL0     H16971   0.810   9.889   9.833  1.5743 -2.3405 -3.3497
  129MOL0     H16972   0.795   9.713   9.837 -0.4987  1.0234 -1.6799
  129MOL0     H16973   0.613   9.902   9.994 -1.1868  0.9284 -1.2450
  129MOL0     H16974   0.594   9.723   9.979 -0.0162 -0.3205 -0.8407
  129MOL0     H16975   0.551   9.726   9.753  1.4148  0.0398  1.3818
  129MOL0     H16976   0.610   9.885   9.727  0.9281 -0.2522 -0.1676
  129MOL0     H16977   0.379   9.841   9.920  0.1295 -2.2740 -1.2034
  129MOL0     H16978   0.411   9.990   9.828 -0.4985  0.4791 -1.7471
  129MOL0     H16979   0.301   9.732   9.720 -0.8313  0.9410  3.1821
  129MOL0     H16980   0.346   9.865   9.610 -0.5216  0.4341 -0.0028
  129MOL0     H16981   0.165   9.940   9.950 -1.1589  2.9581  0.9379
  129MOL0     H16982  -0.151  10.088   9.857  0.8291 -1.3145 -0.4580
  129MOL0     H16983  -0.110  10.004   9.998 -5.4348 -5.6056  1.4403
  129MOL0     H16984  -0.229   9.802   9.922 -0.1518 -0.0314 -2.3019
  129MOL0     H16985  -0.274   9.874   9.770 -2.9950  1.3783  0.3687
  129MOL0     H16986  -0.422  10.049   9.891  2.0358  0.8073  0.6183
  129MOL0     H16987  -0.453   9.887   9.941 -0.9813 -0.8814  4.5185
  129MOL0     H16988  -0.272  10.078  10.111  1.2251  0.0223 -0.8814
  129MOL0     H16989  -0.321   9.910  10.145 -1.0549 -1.5316 -2.0741
  129MOL0     H16990  -0.578  10.191  10.382  0.7173  3.0422  2.2409
  129MOL0     H16991  -0.578  10.420  10.422 -1.0390 -0.7601 -1.7060
  129MOL0     H16992  -0.657  10.768  10.166  1.3208  0.1536 -1.8082
  129MOL0     H16993  -0.754  10.993  10.161  2.6821  0.6314 -2.6848
  129MOL0     H16994  -0.888  11.236  10.326 -2.0546  1.0974 -2.4241
  129MOL0     H16995  -0.812  11.190  10.173 -1.2191  0.8920 -1.7091
  129MOL0     H16996  -0.867  11.405  10.174 -0.0503 -1.0604  0.1534
  129MOL0     H16997  -0.689  11.408  10.165 -1.3111  2.0253 -0.1990
  129MOL0     H16998  -0.662  11.450  10.412 -0.6527 -0.7870  0.6418
  129MOL0     H16999  -0.837  11.455  10.422 -0.0852 -1.2089  0.8124
  129MOL0     H17000  -0.719  11.635  10.209 -1.2941  0.9840 -0.3067
  129MOL0     H17001  -0.840  11.665  10.332  0.7434 -0.6018  4.3775
  129MOL0     H17002  -0.556  11.655  10.373 -1.4013 -1.9058 -1.4797
  129MOL0     H17003  -0.668  11.673  10.515  1.2688  0.7310  0.4046
  129MOL0     H17004  -0.640  11.853  10.260 -1.7802  1.6322 -1.1863
  129MOL0     H17005  -0.571  11.897  10.415  0.3464 -1.1908 -0.5103
  129MOL0     H17006  -0.861  11.921  10.322 -2.1902  0.1884  2.0964
  129MOL0     H17007  -0.842  11.877  10.485 -0.0992 -0.4111 -0.3700
  129MOL0     H17008  -0.714  12.123  10.354  1.0568 -0.2995  0.7593
  129MOL0     H17009  -0.702  12.069  10.524  1.1657  0.6991 -0.9091
  129MOL0     H17010  -0.528  11.089  10.519 -0.5861 -0.8301  0.5973
  129MOL0     H17011  -0.460  10.868  10.536  0.7444 -2.0469 -0.8312
  129MOL0     H17012  -0.299  10.487  10.097 -0.9096  1.6610  0.5799
  129MOL0     H17013  -0.347  10.249  10.024  0.2159 -0.7480 -0.2185
  129MOL0     H17014   0.959   9.409  10.249 -0.8452 -0.8973  0.9784
  129MOL0     H17015   0.946   9.356  10.487 -1.0478 -1.0897 -1.8466
  129MOL0     H17016   1.050   9.599  10.910  1.3029  1.4958  2.4475
  129MOL0     H17017   0.984   9.602  11.132 -3.3543 -3.4291  4.0267
  129MOL0     H17018   1.167   9.313  11.371  0.7182  3.4026 -1.5926
  129MOL0     H17019   1.025   9.247  11.437  0.7022  0.6359  1.6431
  129MOL0     H17020   1.172   9.495  11.513 -0.8400  1.8437  0.0094
  129MOL0     H17021   0.986   9.483  11.534 -1.3344 -0.8442 -3.2578
  129MOL0     H17022   1.198   9.308  11.657 -0.7540  0.4125 -0.5041
  129MOL0     H17023   1.023   9.279  11.680 -0.3027 -1.2046 -2.0264
  129MOL0     H17024   1.154   9.421  11.874  1.4790  3.2114  0.8386
  129MOL0     H17025   1.168   9.550  11.754 -0.5903 -0.5655 -0.0239
  129MOL0     H17026   0.754   9.560  11.876 -0.7007 -1.5765 -2.7218
  129MOL0     H17027   1.099   9.188  11.187  1.6138 -1.8353 -1.0928
  129MOL0     H17028   1.152   9.177  10.941 -1.7302 -0.0592 -0.2482
  130MOL0     O17029  11.122   2.832   8.541  0.3795 -0.2371 -0.5013
  130MOL0     C17030  11.144   2.955   8.549  0.5508  0.2579 -0.7636
  130MOL0     O17031  11.060   3.039   8.619 -0.9247  0.4537 -0.0841
  130MOL0     C17032  10.959   2.981   8.700 -0.3847  0.6247  0.3864
  130MOL0     C17033  10.979   2.949   8.835 -0.3143 -0.3961 -0.1708
  130MOL0     C17034  10.886   2.891   8.917 -0.7782 -0.2019  0.7720
  130MOL0     C17035  10.758   2.855   8.864  0.6999 -1.2691  0.1509
  130MOL0     O17036  10.667   2.811   8.952 -0.1192 -0.5896 -0.0503
  130MOL0     C17037  10.529   2.817   8.908  0.1405  0.5696  0.0555
  130MOL0     C17038  10.426   2.768   9.005 -0.2040  0.1889 -0.6462
  130MOL0     C17039  10.404   2.841   9.144  0.2366 -0.2534 -0.3429
  130MOL0     C17040  10.516   2.829   9.250 -0.1196 -0.1603 -0.4378
  130MOL0     C17041  10.473   2.823   9.395 -0.4735 -0.9613  0.5124
  130MOL0     C17042  10.417   2.958   9.449 -0.0034 -0.2271  0.2430
  130MOL0     C17043  10.348   2.951   9.591 -0.7418 -0.0365 -0.0763
  130MOL0     C17044  10.354   3.081   9.671  0.4231  0.7596 -0.0971
  130MOL0     N17045  10.263   3.066   9.782 -0.0780  0.0367  0.1112
  130MOL0     C17046  10.297   3.015   9.907  0.1858 -0.1919  0.2391
  130MOL0     C17047  10.193   3.042   9.986  0.4548 -0.7759  0.0565
  130MOL0     C17048  10.191   3.009  10.136 -0.1070 -0.1386 -0.1692
  130MOL0     C17049  10.130   3.127  10.211  0.4556 -0.3519 -0.5291
  130MOL0     C17050  10.151   3.113  10.361  0.8744 -0.6948  0.3188
  130MOL0     C17051  10.278   3.151  10.421 -1.5059 -0.5422 -0.5413
  130MOL0     O17052  10.366   3.038  10.416 -0.1125  0.0574 -0.2780
  130MOL0     C17053  10.498   3.055  10.455 -0.5277  0.2456  0.4113
  130MOL0     C17054  10.569   2.937  10.453  0.0041  0.1746 -0.5681
  130MOL0     C17055  10.701   2.934  10.496 -0.6388 -0.5329  0.3652
  130MOL0     C17056  10.757   3.051  10.540  0.2139 -0.3044 -0.3198
  130MOL0     C17057  10.895   3.062  10.595  0.1166  0.1612 -0.6044
  130MOL0     O17058  10.913   3.156  10.699  1.1793  0.1730  0.0021
  130MOL0     C17059  11.006   3.117  10.790 -0.3239 -0.1293  0.5715
  130MOL0     C17060  11.009   2.997  10.863  0.7099 -0.7368 -0.0899
  130MOL0     C17061  11.102   2.977  10.964  0.3841 -0.5508  0.4834
  130MOL0     C17062  11.200   3.068  10.995  0.5701 -0.5694 -0.6384
  130MOL0     O17063  11.298   3.066  11.089  1.2107  0.0109 -0.2664
  130MOL0     C17064  11.392   2.961  11.056 -0.5150 -1.1192  0.1115
  130MOL0     C17065  11.492   3.007  10.937 -0.8549  0.4108  0.1956
  130MOL0     C17066  11.602   3.099  10.993  0.7888 -0.5508 -1.1583
  130MOL0     C17067  11.650   3.177  10.874 -0.3037  0.7278  0.3722
  130MOL0     C17068  11.791   3.240  10.887 -0.3490  0.5421  0.1382
  130MOL0     C17069  11.808   3.347  10.774  0.5041  0.9058 -0.6021
  130MOL0     C17070  11.832   3.292  10.634  0.4592  1.0185 -0.3149
  130MOL0     C17071  11.748   3.371  10.541 -0.5478  0.2443  0.1641
  130MOL0    Cl17072  11.765   3.295  10.374 -0.0210 -0.1393 -0.0637
  130MOL0     C17073  11.202   3.187  10.925  0.1766  0.4501 -0.1980
  130MOL0     C17074  11.110   3.211  10.815  0.1449  0.3054 -0.4631
  130MOL0     O17075  10.971   2.974  10.562 -0.7100  0.7199 -0.1271
  130MOL0     C17076  10.684   3.173  10.536  0.0165  0.2722  1.1198
  130MOL0     C17077  10.554   3.174  10.486 -0.1462 -0.4360 -0.1416
  130MOL0     N17078  10.093   3.105   9.915  0.7506 -0.1684 -0.7871
  130MOL0     N17079  10.150   3.142   9.808  0.7819  0.7981  0.4226
  130MOL0     C17080  10.741   2.883   8.724 -0.4585  0.3661  0.1148
  130MOL0     C17081  10.836   2.948   8.647 -0.3824 -0.1854 -0.7977
  130MOL0     C17082  11.274   3.015   8.497  0.1739  1.1090 -0.0024
  130MOL0     C17083  11.291   3.155   8.465  0.6212  0.6339  0.3911
  130MOL0     C17084  11.402   3.196   8.400 -1.0911  0.1228 -0.0185
  130MOL0     C17085  11.515   3.115   8.394 -0.1106  0.7305  0.1673
  130MOL0     O17086  11.624   3.178   8.346 -0.9075 -0.1849  0.3755
  130MOL0     C17087  11.690   3.118   8.226 -0.1686  0.0340 -0.5920
  130MOL0     C17088  11.822   3.183   8.200  0.0664 -0.1852 -0.2376
  130MOL0     C17089  11.886   3.124   8.076 -0.1328 -1.6523  0.2209
  130MOL0     C17090  12.008   3.207   8.029 -0.3771  0.0981 -0.3485
  130MOL0     C17091  12.054   3.160   7.894 -0.2525  0.6492 -0.5765
  130MOL0     C17092  12.102   3.134   7.782  0.7227 -0.9562  0.1892
  130MOL0     C17093  11.508   2.977   8.425 -0.7205 -0.2579 -0.1019
  130MOL0     C17094  11.379   2.929   8.463 -0.2188  0.4255  0.1643
  130MOL0     H17095  11.069   2.989   8.882 -1.3302 -0.6617  2.0967
  130MOL0     H17096  10.894   2.890   9.025  0.8600 -0.4496  0.6848
  130MOL0     H17097  10.517   2.748   8.824 -0.8865  1.1731 -0.3067
  130MOL0     H17098  10.501   2.915   8.869 -0.2218  0.1055 -0.9004
  130MOL0     H17099  10.459   2.666   9.026  2.2969  1.5064  2.7610
  130MOL0     H17100  10.330   2.764   8.954  1.2142 -1.3582 -3.4211
  130MOL0     H17101  10.310   2.804   9.186  1.1090 -2.6166 -0.3414
  130MOL0     H17102  10.389   2.945   9.112  1.4816 -0.7115 -2.6905
  130MOL0     H17103  10.539   2.722   9.241 -0.0444 -0.3451  1.5935
  130MOL0     H17104  10.602   2.891   9.227  0.0027  1.1593  2.9837
  130MOL0     H17105  10.544   2.774   9.462  0.8964 -0.2281 -0.3558
  130MOL0     H17106  10.386   2.757   9.402 -2.0658  1.1715  1.6023
  130MOL0     H17107  10.338   3.005   9.390  0.8678 -0.1190 -0.8759
  130MOL0     H17108  10.508   3.018   9.453  2.0872 -3.1936  0.3833
  130MOL0     H17109  10.244   2.920   9.579 -0.6007 -0.4056 -0.3428
  130MOL0     H17110  10.392   2.868   9.647 -2.2845  0.9081  2.7224
  130MOL0     H17111  10.305   3.159   9.613 -0.5244 -0.6448 -1.2405
  130MOL0     H17112  10.458   3.110   9.690  0.3733  1.2798 -0.6112
  130MOL0     H17113  10.381   2.951   9.932  2.3739  1.9889 -1.1096
  130MOL0     H17114  10.288   2.997  10.184 -1.0083 -2.1361  1.3569
  130MOL0     H17115  10.140   2.913  10.154 -0.8224  0.0969 -0.8877
  130MOL0     H17116  10.026   3.116  10.181 -0.3178  1.4754  1.2255
  130MOL0     H17117  10.161   3.228  10.181  0.4973 -0.0697  0.4232
  130MOL0     H17118  10.076   3.178  10.406 -0.1086 -0.2890 -1.7961
  130MOL0     H17119  10.138   3.014  10.407 -0.1380 -1.5669 -1.7427
  130MOL0     H17120  10.270   3.170  10.529  1.5522 -2.8591  0.2408
  130MOL0     H17121  10.323   3.242  10.379  4.8173 -1.5038  2.9045
  130MOL0     H17122  10.528   2.837  10.435 -1.2269  0.4295  0.6373
  130MOL0     H17123  10.763   2.845  10.491  1.3256  0.7585  0.5133
  130MOL0     H17124  10.929   2.924  10.863  0.1171 -0.2135  2.9487
  130MOL0     H17125  11.093   2.884  11.019 -2.5719 -1.9854 -2.0866
  130MOL0     H17126  11.343   2.864  11.043  0.7224 -1.9167  1.1634
  130MOL0     H17127  11.451   2.954  11.148 -2.0328 -2.8569  1.0107
  130MOL0     H17128  11.451   3.047  10.844  0.1556  2.1583  0.4769
  130MOL0     H17129  11.545   2.923  10.891  0.7225  2.7149 -2.5299
  130MOL0     H17130  11.679   3.045  11.048  1.0336  0.0669 -0.8870
  130MOL0     H17131  11.551   3.171  11.058  2.1856 -0.9243  0.4181
  130MOL0     H17132  11.651   3.109  10.788  1.3362  0.5885  0.4680
  130MOL0     H17133  11.585   3.264  10.858 -0.1087  0.8438  0.2027
  130MOL0     H17134  11.861   3.157  10.891 -0.4561  0.3591 -1.1807
  130MOL0     H17135  11.810   3.286  10.985  1.1467  1.2358 -0.4403
  130MOL0     H17136  11.886   3.419  10.801  0.4514 -0.3074  3.5291
  130MOL0     H17137  11.714   3.403  10.770 -1.7322 -2.2133  2.2503
  130MOL0     H17138  11.938   3.307  10.612  1.4483 -1.9569  1.6723
  130MOL0     H17139  11.808   3.186  10.620  0.9306  0.7861  0.5051
  130MOL0     H17140  11.767   3.479  10.543 -1.0914  0.3325  1.7414
  130MOL0     H17141  11.642   3.360  10.567 -0.3928 -1.6706  0.1659
  130MOL0     H17142  11.275   3.262  10.953  0.4355  0.1719 -0.1289
  130MOL0     H17143  11.108   3.308  10.766 -1.6065  1.1662  1.1849
  130MOL0     H17144  10.731   3.270  10.554  2.6004 -0.0682 -2.7454
  130MOL0     H17145  10.508   3.271  10.468  0.8752 -0.3716 -2.8811
  130MOL0     H17146  10.655   2.837   8.676  0.0377 -1.7270  1.1431
  130MOL0     H17147  10.815   2.968   8.542  0.0332  0.2211 -0.8078
  130MOL0     H17148  11.209   3.225   8.474  1.1581  1.0160  3.0065
  130MOL0     H17149  11.415   3.298   8.368  1.8320  0.7209  2.5484
  130MOL0     H17150  11.623   3.136   8.141 -0.6705  3.6535  0.4089
  130MOL0     H17151  11.699   3.009   8.237  1.3473  0.1038 -0.9470
  130MOL0     H17152  11.802   3.290   8.194 -1.6920 -0.5217 -1.2144
  130MOL0     H17153  11.889   3.172   8.286 -0.8327 -1.3488  0.3370
  130MOL0     H17154  11.810   3.120   7.998  0.9722 -3.7854 -0.8603
  130MOL0     H17155  11.925   3.022   8.087  1.8086 -0.9631  0.1876
  130MOL0     H17156  11.973   3.310   8.016 -2.3092  0.0700  3.2608
  130MOL0     H17157  12.085   3.202   8.107  1.7041 -1.3532 -2.3647
  130MOL0     H17158  12.113   3.111   7.678 -3.4250 -0.1142 -0.6122
  130MOL0     H17159  11.586   2.902   8.427 -1.4836 -1.2160 -2.7164
  130MOL0     H17160  11.366   2.825   8.491  3.6098  0.6941  4.0276
  131MOL0     O17161  10.203   6.571   3.384 -0.4821 -0.5371  0.0360
  131MOL0     C17162  10.122   6.480   3.363  0.8888 -0.4104 -0.2297
  131MOL0     O17163  10.061   6.447   3.246  0.0574 -0.4032 -0.1153
  131MOL0     C17164  10.101   6.501   3.129 -0.2411 -1.0877 -0.1383
  131MOL0     C17165  10.102   6.411   3.019 -0.7963  1.2824 -0.5932
  131MOL0     C17166  10.149   6.454   2.890 -0.1457 -0.0881  0.1120
  131MOL0     C17167  10.194   6.582   2.869 -0.7185  0.4936 -1.2777
  131MOL0     O17168  10.222   6.631   2.746  0.2229  0.1411 -0.4900
  131MOL0     C17169  10.232   6.773   2.720 -0.6440 -0.7108 -0.2146
  131MOL0     C17170  10.256   6.785   2.569  0.6257  0.3561  0.3450
  131MOL0     C17171  10.128   6.752   2.499  0.7029 -0.1299 -0.0834
  131MOL0     C17172  10.129   6.720   2.341  0.0958 -0.2782 -0.3883
  131MOL0     C17173   9.991   6.665   2.302 -0.4592 -0.1974 -0.1320
  131MOL0     C17174   9.950   6.634   2.164  0.1380  0.1375 -0.0096
  131MOL0     C17175   9.943   6.754   2.071 -0.0407 -0.0594  0.0380
  131MOL0     C17176   9.845   6.876   2.100  0.9396  0.2137  0.5049
  131MOL0     N17177   9.835   6.961   1.976  0.5612 -0.0401 -0.0194
  131MOL0     C17178   9.929   7.050   1.944 -0.2445 -1.0368  0.0480
  131MOL0     C17179   9.920   7.072   1.807 -0.2471  0.1674  0.2364
  131MOL0     C17180   9.994   7.180   1.730  0.8651  0.7349  0.0349
  131MOL0     C17181   9.891   7.298   1.713 -0.0988 -0.5229  0.4804
  131MOL0     C17182   9.942   7.405   1.618 -0.5565  0.2402 -0.3247
  131MOL0     C17183  10.038   7.499   1.690 -0.1885 -0.3552  0.2506
  131MOL0     O17184   9.989   7.580   1.804 -0.4369 -0.0692  0.3277
  131MOL0     C17185   9.911   7.680   1.756  0.4061  0.2877 -0.0293
  131MOL0     C17186   9.963   7.804   1.761 -0.6207 -0.4402  0.0914
  131MOL0     C17187   9.879   7.917   1.726  0.1217 -0.0303 -0.3595
  131MOL0     C17188   9.743   7.901   1.694 -0.3582  0.7122 -0.7265
  131MOL0     C17189   9.663   8.017   1.656 -1.1144 -0.6093 -0.6062
  131MOL0     O17190   9.730   8.140   1.636  0.2019  0.1315  0.7479
  131MOL0     C17191   9.669   8.262   1.631  0.2340  0.1938 -0.9618
  131MOL0     C17192   9.531   8.289   1.594 -0.0182 -0.0585 -0.1775
  131MOL0     C17193   9.487   8.424   1.592 -0.5607 -0.2855 -0.4349
  131MOL0     C17194   9.583   8.525   1.628 -0.1184  0.4047 -0.8661
  131MOL0     O17195   9.570   8.657   1.634  0.4584  0.7951  1.0171
  131MOL0     C17196   9.465   8.710   1.546 -0.0971 -0.0150 -0.0122
  131MOL0     C17197   9.488   8.863   1.547 -0.7341  0.3250 -0.0090
  131MOL0     C17198   9.614   8.910   1.471 -0.1037  1.1589 -0.2856
  131MOL0     C17199   9.648   9.059   1.480 -0.1571 -0.7499 -0.4147
  131MOL0     C17200   9.718   9.096   1.613  0.2053 -0.5225 -0.1353
  131MOL0     C17201   9.759   9.238   1.615 -0.9006  0.2885 -0.5458
  131MOL0     C17202   9.860   9.272   1.733  0.3210 -0.5053  0.3811
  131MOL0     C17203   9.914   9.420   1.708 -0.3021 -0.3557 -0.2092
  131MOL0    Cl17204   9.783   9.533   1.762 -0.4855 -0.1691 -0.0793
  131MOL0     C17205   9.714   8.499   1.672 -0.1143 -0.4791 -0.5575
  131MOL0     C17206   9.760   8.367   1.668  0.2385  0.2386  0.1916
  131MOL0     O17207   9.545   7.995   1.638 -0.1646 -0.5472  0.3213
  131MOL0     C17208   9.689   7.762   1.693 -1.2457 -0.5450 -0.4353
  131MOL0     C17209   9.779   7.657   1.723  0.5540  0.4834 -0.5292
  131MOL0     N17210   9.815   6.996   1.762  1.1272  0.0934  0.7595
  131MOL0     N17211   9.769   6.925   1.857 -1.0508  1.0114 -0.3274
  131MOL0     C17212  10.187   6.673   2.980  0.2925 -0.4154  0.0876
  131MOL0     C17213  10.133   6.638   3.107 -0.2708  0.3912  0.1451
  131MOL0     C17214  10.074   6.412   3.484 -0.8085 -0.2811 -1.1149
  131MOL0     C17215  10.142   6.441   3.608  0.0462 -0.2206  0.7392
  131MOL0     C17216  10.107   6.368   3.722  0.0474 -1.0421  0.3124
  131MOL0     C17217  10.004   6.275   3.720  1.0560 -0.4407 -0.5378
  131MOL0     O17218   9.988   6.189   3.829  0.1947 -0.1488 -0.6065
  131MOL0     C17219   9.857   6.152   3.869 -0.0941  0.5056  0.8302
  131MOL0     C17220   9.852   5.998   3.885 -0.0580  0.6877  0.3841
  131MOL0     C17221   9.733   5.961   3.961  0.9878 -0.4447 -0.2761
  131MOL0     C17222   9.716   5.814   3.991  0.0148  0.5453 -0.6745
  131MOL0     C17223   9.805   5.782   4.102  0.2925  0.2583  0.1275
  131MOL0     C17224   9.881   5.763   4.196  0.1463  0.3850  1.2356
  131MOL0     C17225   9.944   6.245   3.594  0.8559 -0.1555 -0.3393
  131MOL0     C17226   9.977   6.316   3.481 -0.1490  1.1207 -0.6330
  131MOL0     H17227  10.094   6.305   3.040  0.9817  1.1735 -0.2793
  131MOL0     H17228  10.158   6.389   2.803 -0.8341 -0.0599  0.0140
  131MOL0     H17229  10.315   6.821   2.772 -1.2197 -0.3174  0.3615
  131MOL0     H17230  10.147   6.829   2.760  1.2822  0.6764  2.1802
  131MOL0     H17231  10.337   6.717   2.541 -0.2831 -0.9437  0.7840
  131MOL0     H17232  10.285   6.887   2.541 -1.2397  0.6429 -0.7110
  131MOL0     H17233  10.069   6.843   2.518 -1.1844 -1.1057 -1.0092
  131MOL0     H17234  10.089   6.658   2.540  1.9998 -0.5472  0.2229
  131MOL0     H17235  10.152   6.812   2.287 -0.4361  1.5914  2.3775
  131MOL0     H17236  10.209   6.646   2.328 -0.2311 -1.0425  1.6956
  131MOL0     H17237   9.931   6.748   2.340  2.9376  0.9400  3.4903
  131MOL0     H17238   9.968   6.575   2.361  0.4622 -1.8671 -2.1546
  131MOL0     H17239   9.851   6.589   2.173 -0.7284  1.5887 -1.6015
  131MOL0     H17240  10.012   6.556   2.119 -0.2810  0.9516 -2.1574
  131MOL0     H17241  10.044   6.793   2.053 -0.6747  1.8950  0.5209
  131MOL0     H17242   9.910   6.715   1.974  1.0437 -0.7974 -0.0593
  131MOL0     H17243   9.870   6.941   2.185 -3.1148  0.6734  1.5486
  131MOL0     H17244   9.746   6.842   2.132  0.8615  2.6558  3.2915
  131MOL0     H17245  10.008   7.087   2.009  0.1384  1.6898 -1.7937
  131MOL0     H17246  10.031   7.134   1.638  0.0576 -1.1479  0.5867
  131MOL0     H17247  10.087   7.208   1.779  0.6588 -0.1843  1.0052
  131MOL0     H17248   9.874   7.348   1.809 -0.7720 -0.3330  0.2696
  131MOL0     H17249   9.794   7.263   1.674 -0.6811 -0.6909  1.9949
  131MOL0     H17250  10.006   7.362   1.541  1.2179 -0.3399  1.3882
  131MOL0     H17251   9.855   7.450   1.569  1.0975  1.9261 -1.8789
  131MOL0     H17252  10.061   7.556   1.599  0.1891 -1.6269 -0.4679
  131MOL0     H17253  10.136   7.453   1.701  0.1820  0.6443  1.3323
  131MOL0     H17254  10.065   7.824   1.794 -1.0211 -0.5972  1.5040
  131MOL0     H17255   9.928   8.011   1.746  1.6077 -0.5166 -1.4822
  131MOL0     H17256   9.455   8.214   1.574  1.0211 -0.9094 -1.0061
  131MOL0     H17257   9.385   8.449   1.565 -0.2302  1.0811 -0.5254
  131MOL0     H17258   9.371   8.690   1.598 -0.4904 -0.2787 -0.7944
  131MOL0     H17259   9.469   8.674   1.442  2.8239  0.2994 -0.0786
  131MOL0     H17260   9.494   8.899   1.650 -0.8294 -0.7837  0.3990
  131MOL0     H17261   9.403   8.916   1.502 -0.7689 -0.1805 -0.5573
  131MOL0     H17262   9.585   8.891   1.368  0.8178  0.4124 -0.4158
  131MOL0     H17263   9.699   8.846   1.494 -1.3444 -1.4463 -2.3866
  131MOL0     H17264   9.722   9.076   1.401  3.2103 -1.3227  2.3991
  131MOL0     H17265   9.564   9.129   1.470 -0.7888 -1.7240 -2.6836
  131MOL0     H17266   9.811   9.042   1.628  1.7312  2.4188  2.2618
  131MOL0     H17267   9.646   9.076   1.693 -0.8901  0.3986 -0.8488
  131MOL0     H17268   9.672   9.305   1.620 -0.1712  1.4300 -2.2566
  131MOL0     H17269   9.823   9.254   1.528  3.7803  0.8028  2.6312
  131MOL0     H17270   9.806   9.271   1.829  0.0176  0.2675  0.2218
  131MOL0     H17271   9.949   9.208   1.731 -0.9343 -2.3404 -2.0762
  131MOL0     H17272   9.934   9.419   1.600  0.7339 -2.4690 -0.0466
  131MOL0     H17273   9.999   9.438   1.774  0.1951 -3.7553  0.2859
  131MOL0     H17274   9.772   8.577   1.719 -2.3476  0.7688  0.2651
  131MOL0     H17275   9.863   8.341   1.690 -0.3951 -1.3277  1.4683
  131MOL0     H17276   9.581   7.753   1.688 -1.3118  0.1560 -0.4159
  131MOL0     H17277   9.730   7.563   1.745 -4.4246  2.2080 -2.8652
  131MOL0     H17278  10.210   6.778   2.966 -1.9916  0.0754 -0.4853
  131MOL0     H17279  10.121   6.706   3.191 -0.8925 -1.7131  1.8672
  131MOL0     H17280  10.226   6.509   3.623  0.7009 -1.1044  1.1847
  131MOL0     H17281  10.173   6.384   3.807  1.1721  0.6550 -0.8113
  131MOL0     H17282   9.784   6.173   3.790 -0.0566 -0.3456  0.5569
  131MOL0     H17283   9.827   6.217   3.952 -2.3922  1.5627 -0.7425
  131MOL0     H17284   9.849   5.966   3.781  0.2488  2.7494 -0.3003
  131MOL0     H17285   9.942   5.966   3.939  0.1475 -0.7426 -0.7617
  131MOL0     H17286   9.640   5.999   3.917 -0.2653 -2.2116  0.7017
  131MOL0     H17287   9.746   6.015   4.055 -2.0728  2.1129 -1.1644
  131MOL0     H17288   9.615   5.799   4.030  0.0607  1.7715 -0.0275
  131MOL0     H17289   9.736   5.763   3.897 -2.5375 -0.3582 -0.7881
  131MOL0     H17290   9.947   5.751   4.279  3.2235  0.3463 -1.0421
  131MOL0     H17291   9.878   6.160   3.577  1.8110 -0.8070 -0.9153
  131MOL0     H17292   9.935   6.277   3.389  0.1653  1.4489 -0.9178
  132MOL0     O17293   6.446   3.629   3.192 -0.1097 -0.4298 -0.4585
  132MOL0     C17294   6.445   3.748   3.162 -0.5060  1.1456 -0.1799
  132MOL0     O17295   6.527   3.840   3.217 -0.2860  0.1602  0.0818
  132MOL0     C17296   6.594   3.812   3.327 -0.3481 -0.5225 -0.4368
  132MOL0     C17297   6.665   3.692   3.347  0.3575  0.2176 -0.7204
  132MOL0     C17298   6.780   3.688   3.432 -0.0975 -1.1509  0.5190
  132MOL0     C17299   6.808   3.803   3.517  0.5541  0.2062  1.1229
  132MOL0     O17300   6.914   3.785   3.605  0.0228 -0.4095  0.3295
  132MOL0     C17301   6.914   3.849   3.737 -0.2310  0.3627  0.8135
  132MOL0     C17302   7.059   3.810   3.787 -1.0350 -0.7807  0.6240
  132MOL0     C17303   7.059   3.653   3.827 -0.1423 -0.0433 -0.7392
  132MOL0     C17304   7.206   3.616   3.847  0.3130  0.1735  0.5064
  132MOL0     C17305   7.219   3.476   3.909 -0.2544 -0.6774  0.4524
  132MOL0     C17306   7.362   3.417   3.903  0.0512 -0.2497  1.2217
  132MOL0     C17307   7.396   3.329   4.021  0.0873  0.3549  0.2518
  132MOL0     C17308   7.294   3.218   4.054  0.3121 -0.2702 -0.7080
  132MOL0     N17309   7.248   3.153   3.935 -0.0114 -0.6937  0.1081
  132MOL0     C17310   7.310   3.062   3.859  0.1564  0.1219  0.1679
  132MOL0     C17311   7.213   3.018   3.773  0.4057  0.2561  0.3821
  132MOL0     C17312   7.251   2.905   3.677 -0.6623  0.1662 -0.2025
  132MOL0     C17313   7.377   2.952   3.585 -1.1751  0.7610 -0.1177
  132MOL0     C17314   7.438   2.821   3.513  0.5257  0.0954  0.1663
  132MOL0     C17315   7.576   2.849   3.441 -0.0885 -0.6512  0.5578
  132MOL0     O17316   7.623   2.730   3.388  0.1456  0.5101  0.3719
  132MOL0     C17317   7.760   2.715   3.359 -0.3046 -0.2229 -0.7841
  132MOL0     C17318   7.808   2.586   3.336  0.0171 -0.1024 -0.3527
  132MOL0     C17319   7.948   2.563   3.320 -0.4961  0.5493  0.3098
  132MOL0     C17320   8.033   2.673   3.291 -0.0681 -0.5041  0.3099
  132MOL0     C17321   8.178   2.663   3.243  0.2714 -0.1618  0.0925
  132MOL0     O17322   8.224   2.777   3.185  0.2434  0.0319 -0.2325
  132MOL0     C17323   8.338   2.781   3.112  1.1269  0.1645 -0.5384
  132MOL0     C17324   8.339   2.768   2.969  0.0015  0.3133 -0.5855
  132MOL0     C17325   8.463   2.783   2.901  0.4703  0.8776  1.1772
  132MOL0     C17326   8.580   2.802   2.978 -0.2742 -0.1942 -0.0751
  132MOL0     O17327   8.711   2.805   2.933  0.6842 -0.0431 -0.0401
  132MOL0     C17328   8.731   2.771   2.787 -0.6345 -0.0473  0.3452
  132MOL0     C17329   8.869   2.802   2.740  0.5673  0.0086  0.1238
  132MOL0     C17330   8.894   2.954   2.744 -0.4209  0.1350 -0.0198
  132MOL0     C17331   9.043   2.981   2.711  0.0551  0.8342  0.0818
  132MOL0     C17332   9.063   3.137   2.698 -0.5507 -0.2675  0.0875
  132MOL0     C17333   9.189   3.176   2.613  0.7428 -0.0386  0.0598
  132MOL0     C17334   9.199   3.331   2.601 -0.0470  0.4034  0.0945
  132MOL0     C17335   9.321   3.381   2.532 -0.4817  0.1158 -0.6708
  132MOL0    Cl17336   9.482   3.320   2.582 -0.1842  0.1891 -0.5116
  132MOL0     C17337   8.569   2.811   3.109 -0.5513  0.0390 -0.4064
  132MOL0     C17338   8.452   2.808   3.183 -0.9902 -0.4082  0.0154
  132MOL0     O17339   8.242   2.571   3.277 -0.2276 -0.2697 -0.8480
  132MOL0     C17340   7.984   2.801   3.315  0.0862 -0.1891  0.2928
  132MOL0     C17341   7.854   2.824   3.354 -0.2039  0.5196 -0.6319
  132MOL0     N17342   7.095   3.068   3.810  0.2413 -0.0458  0.5295
  132MOL0     N17343   7.115   3.140   3.913  0.3432 -0.6781 -0.3604
  132MOL0     C17344   6.726   3.912   3.504  0.7510 -0.6100  0.8610
  132MOL0     C17345   6.621   3.922   3.417 -0.8440  0.3878  0.1713
  132MOL0     C17346   6.366   3.795   3.041  0.4425 -0.2161 -0.3015
  132MOL0     C17347   6.403   3.920   2.985  0.4868 -0.2257  0.2521
  132MOL0     C17348   6.327   3.970   2.871  0.7092  0.3392  0.4047
  132MOL0     C17349   6.216   3.901   2.811 -0.1284 -0.0521 -0.0894
  132MOL0     O17350   6.147   3.971   2.716  0.1766  0.0947  0.3293
  132MOL0     C17351   6.011   3.932   2.700  0.7683  0.4992  0.2673
  132MOL0     C17352   5.914   4.004   2.789 -0.2226 -1.5605 -0.3544
  132MOL0     C17353   5.843   4.110   2.712 -0.5002 -0.1753 -1.2525
  132MOL0     C17354   5.727   4.189   2.793 -0.5401 -0.3267 -0.8132
  132MOL0     C17355   5.615   4.229   2.703  0.5998  0.7595 -0.2937
  132MOL0     C17356   5.513   4.252   2.633 -0.5623  0.0436  0.0932
  132MOL0     C17357   6.179   3.785   2.879 -0.2141 -0.2462  0.6720
  132MOL0     C17358   6.255   3.728   2.982 -0.3186 -0.0533  0.0876
  132MOL0     H17359   6.646   3.598   3.295 -0.4155  0.0065 -0.0661
  132MOL0     H17360   6.858   3.614   3.432  2.4633  0.9851 -4.7463
  132MOL0     H17361   6.836   3.807   3.800 -2.3148 -1.6246 -2.7808
  132MOL0     H17362   6.905   3.958   3.732  2.0967  0.6035  0.8248
  132MOL0     H17363   7.100   3.876   3.864  1.8043 -0.2981 -1.1551
  132MOL0     H17364   7.136   3.814   3.710 -2.6296  0.2618 -1.0183
  132MOL0     H17365   7.005   3.592   3.755 -2.4998 -0.1738  1.0106
  132MOL0     H17366   7.004   3.645   3.921 -0.7172  0.8233 -0.9898
  132MOL0     H17367   7.263   3.635   3.755 -1.3548  3.6270  0.0517
  132MOL0     H17368   7.248   3.694   3.910 -0.2655  1.7939 -1.0236
  132MOL0     H17369   7.146   3.414   3.856  0.9835 -2.6906  0.9953
  132MOL0     H17370   7.197   3.494   4.014  2.3208 -0.1577  0.9828
  132MOL0     H17371   7.446   3.486   3.892  1.4830 -2.3273 -3.3423
  132MOL0     H17372   7.376   3.363   3.810  3.3794  0.4984  1.1803
  132MOL0     H17373   7.493   3.283   3.998  0.6308  1.2776  0.6352
  132MOL0     H17374   7.405   3.392   4.109 -2.7754  0.8157  0.3158
  132MOL0     H17375   7.213   3.275   4.101  3.0714  2.8928  0.5786
  132MOL0     H17376   7.338   3.145   4.123 -2.2540 -0.1801  1.1965
  132MOL0     H17377   7.414   3.033   3.870  0.3251  1.2472  2.0033
  132MOL0     H17378   7.162   2.903   3.612 -1.1638 -1.1927  0.4783
  132MOL0     H17379   7.277   2.811   3.728  2.6899  1.3119  0.4447
  132MOL0     H17380   7.456   2.994   3.648 -1.5169 -2.0120  2.3664
  132MOL0     H17381   7.353   3.026   3.508 -0.4520  0.6560 -0.4487
  132MOL0     H17382   7.465   2.737   3.577  2.8382 -0.1165 -0.9678
  132MOL0     H17383   7.365   2.791   3.437 -0.3408  1.8319  0.2675
  132MOL0     H17384   7.643   2.896   3.514 -1.5808  0.2094  1.4421
  132MOL0     H17385   7.558   2.920   3.360 -1.4845 -2.3326 -0.6770
  132MOL0     H17386   7.731   2.510   3.342 -1.8853  1.8191  3.6984
  132MOL0     H17387   7.992   2.464   3.324 -0.6647  0.4192 -0.7151
  132MOL0     H17388   8.241   2.752   2.926 -1.2029  0.5342  1.9423
  132MOL0     H17389   8.449   2.765   2.795 -1.5446 -0.0488  1.5572
  132MOL0     H17390   8.661   2.833   2.730 -1.4357 -2.2470 -1.2222
  132MOL0     H17391   8.702   2.667   2.767  1.1430 -0.0544 -2.8931
  132MOL0     H17392   8.880   2.768   2.637 -0.4093  0.2269 -0.0566
  132MOL0     H17393   8.943   2.755   2.806  0.9538  0.0254 -0.2897
  132MOL0     H17394   8.866   2.981   2.847  0.9219  0.6264  0.2336
  132MOL0     H17395   8.825   3.016   2.686 -1.0867 -0.0589  0.5506
  132MOL0     H17396   9.107   2.954   2.796  0.1522 -0.3166 -0.3351
  132MOL0     H17397   9.065   2.935   2.614  2.2109  2.0805 -0.1092
  132MOL0     H17398   9.068   3.180   2.798  2.0517 -0.3978  0.0770
  132MOL0     H17399   8.969   3.161   2.647  1.5258  2.3036 -2.9699
  132MOL0     H17400   9.171   3.136   2.513 -1.9842  0.7624  0.1450
  132MOL0     H17401   9.277   3.122   2.647  2.2062  1.4700 -1.1565
  132MOL0     H17402   9.107   3.366   2.554 -0.9981  1.2270  2.4205
  132MOL0     H17403   9.203   3.379   2.699 -0.0097  0.6411 -0.0231
  132MOL0     H17404   9.327   3.487   2.559  0.4219  0.1830 -1.0674
  132MOL0     H17405   9.316   3.366   2.424 -2.0767 -2.1801 -0.3307
  132MOL0     H17406   8.650   2.819   3.181 -1.8124 -1.7116  1.3301
  132MOL0     H17407   8.462   2.815   3.291  1.8143  1.9290 -0.2616
  132MOL0     H17408   8.033   2.898   3.309 -1.4075  0.5283 -2.5030
  132MOL0     H17409   7.818   2.926   3.363 -1.6731  0.0669 -0.9724
  132MOL0     H17410   6.740   4.005   3.558 -1.2894  1.3478 -1.7298
  132MOL0     H17411   6.585   4.022   3.398 -0.6525  0.7038  1.4078
  132MOL0     H17412   6.480   3.988   3.020  1.0171  0.2154 -1.6244
  132MOL0     H17413   6.351   4.073   2.845  0.1531  1.5436  4.0580
  132MOL0     H17414   6.005   3.823   2.712  0.4461  0.3028 -1.3755
  132MOL0     H17415   5.975   3.942   2.597 -2.3763  0.1803  1.2188
  132MOL0     H17416   5.859   3.928   2.845  2.0609 -4.7549 -2.0810
  132MOL0     H17417   5.974   4.052   2.867  0.0837 -1.3626 -0.7073
  132MOL0     H17418   5.802   4.061   2.623  1.0813  3.6644 -4.3969
  132MOL0     H17419   5.910   4.176   2.656  0.0035 -1.7928 -2.6215
  132MOL0     H17420   5.703   4.129   2.882  1.4064 -2.9288 -1.9098
  132MOL0     H17421   5.767   4.283   2.832  0.3953 -0.5094 -1.2977
  132MOL0     H17422   5.444   4.266   2.552 -1.0726  0.4876  0.5946
  132MOL0     H17423   6.095   3.727   2.842 -0.1438  1.7182 -2.9826
  132MOL0     H17424   6.233   3.625   3.009  2.0606 -0.7298 -0.3238
  133MOL0     O17425  11.023   9.630   6.042 -0.0588 -0.3055  0.1836
  133MOL0     C17426  11.098   9.536   6.061 -0.1070  0.4475  0.7733
  133MOL0     O17427  11.234   9.556   6.070  0.2985 -0.5874  0.2375
  133MOL0     C17428  11.292   9.660   6.007 -0.9649 -1.2287 -0.4555
  133MOL0     C17429  11.405   9.722   6.072  0.2276  0.0917  0.1854
  133MOL0     C17430  11.465   9.842   6.022 -0.1155 -0.2801 -0.0946
  133MOL0     C17431  11.422   9.883   5.891 -0.7098 -0.4027 -1.7775
  133MOL0     O17432  11.482   9.984   5.822 -0.1361 -0.3862  0.4076
  133MOL0     C17433  11.608  10.039   5.861  0.2457  0.4808 -0.3132
  133MOL0     C17434  11.730   9.947   5.830  0.2659  0.7497 -0.7238
  133MOL0     C17435  11.757   9.932   5.682 -0.3461 -0.3101  0.4424
  133MOL0     C17436  11.638   9.862   5.598 -0.2012 -0.3361  0.2313
  133MOL0     C17437  11.597   9.725   5.647 -0.6132 -0.2619  0.4238
  133MOL0     C17438  11.525   9.646   5.539  0.2222 -0.2825 -0.7420
  133MOL0     C17439  11.451   9.517   5.594  0.2887 -0.5716  0.1958
  133MOL0     C17440  11.536   9.449   5.705 -1.0506 -0.7153 -0.6267
  133MOL0     N17441  11.465   9.323   5.729  0.4168  0.0913 -0.8417
  133MOL0     C17442  11.512   9.192   5.720  0.2816 -0.3600 -0.1571
  133MOL0     C17443  11.402   9.116   5.724  0.5380  0.1973  0.1897
  133MOL0     C17444  11.410   8.967   5.701  0.5168  0.7930  0.1310
  133MOL0     C17445  11.325   8.891   5.813  0.0632 -0.2107 -0.5190
  133MOL0     C17446  11.280   8.749   5.768 -0.4597 -0.6504  0.9072
  133MOL0     C17447  11.155   8.702   5.844  0.4625  0.8270 -0.6756
  133MOL0     O17448  11.193   8.726   5.980 -0.3131  0.0616  0.3809
  133MOL0     C17449  11.134   8.656   6.090  0.0723 -1.3369  0.8311
  133MOL0     C17450  11.024   8.568   6.078  0.8541 -0.6365  0.5391
  133MOL0     C17451  10.982   8.496   6.192 -0.2795 -0.7349  0.5020
  133MOL0     C17452  11.036   8.520   6.318 -0.5943  0.9376  0.8133
  133MOL0     C17453  10.976   8.456   6.432 -1.4451 -0.1287 -1.2014
  133MOL0     O17454  10.898   8.346   6.413 -0.3790  0.3821 -0.0843
  133MOL0     C17455  10.828   8.289   6.517 -0.3048  0.8652 -0.0200
  133MOL0     C17456  10.699   8.246   6.485 -0.8441 -0.5503  0.9552
  133MOL0     C17457  10.635   8.158   6.574 -1.1175 -0.2563 -0.1527
  133MOL0     C17458  10.701   8.100   6.681 -0.2962 -0.7723  0.0194
  133MOL0     O17459  10.641   8.019   6.769  0.3808 -0.1370  0.6953
  133MOL0     C17460  10.592   7.892   6.723 -0.2313 -0.1989 -0.4343
  133MOL0     C17461  10.544   7.811   6.841  0.1593  0.1678 -0.2661
  133MOL0     C17462  10.429   7.859   6.928 -0.4188 -0.1099 -0.6750
  133MOL0     C17463  10.288   7.833   6.874  0.2977  0.1891  0.3870
  133MOL0     C17464  10.173   7.902   6.955  0.3027 -0.1545  0.7263
  133MOL0     C17465  10.045   7.892   6.874 -0.7141 -0.0627  0.9923
  133MOL0     C17466   9.929   7.958   6.946  0.6231 -0.1372  0.1671
  133MOL0     C17467   9.888   7.898   7.080  1.2141  0.0980  0.5042
  133MOL0    Cl17468   9.908   7.721   7.086  0.1932 -0.4713 -0.5009
  133MOL0     C17469  10.829   8.144   6.712 -0.6249 -0.9429 -0.7800
  133MOL0     C17470  10.892   8.240   6.633  0.0856 -0.2714  0.1869
  133MOL0     O17471  10.990   8.510   6.541 -0.0514 -0.1517  0.1825
  133MOL0     C17472  11.148   8.601   6.325  0.6218 -0.3956 -0.9412
  133MOL0     C17473  11.196   8.662   6.212  0.0928  0.6068 -0.7596
  133MOL0     N17474  11.290   9.198   5.743 -0.2457  0.4674  0.2237
  133MOL0     N17475  11.327   9.318   5.748 -0.1776 -0.7531 -0.7669
  133MOL0     C17476  11.315   9.817   5.832  0.5410 -0.0085  0.3263
  133MOL0     C17477  11.241   9.717   5.893  0.6126  0.8753  0.2013
  133MOL0     C17478  11.040   9.407   6.082  0.6728  0.1904 -0.3829
  133MOL0     C17479  10.903   9.395   6.095 -0.0024 -0.1522  0.2271
  133MOL0     C17480  10.836   9.274   6.093  0.1977 -0.3090 -0.2726
  133MOL0     C17481  10.907   9.154   6.075 -0.8439  0.1304 -0.3671
  133MOL0     O17482  10.862   9.025   6.059 -0.2473 -0.0503 -0.5419
  133MOL0     C17483  10.727   9.013   6.116 -1.1101 -1.2552  0.8645
  133MOL0     C17484  10.682   8.875   6.129 -0.5224 -0.0362 -0.8582
  133MOL0     C17485  10.684   8.795   6.008  0.7009 -0.0779  0.7829
  133MOL0     C17486  10.558   8.701   5.999 -0.4644 -0.2059 -0.7328
  133MOL0     C17487  10.572   8.595   6.099 -0.2725  1.5704 -0.2963
  133MOL0     C17488  10.589   8.511   6.190  1.3564 -0.7480  0.7052
  133MOL0     C17489  11.049   9.156   6.063  0.1875 -0.0917 -0.5223
  133MOL0     C17490  11.116   9.281   6.085  1.3473  0.0741 -0.2284
  133MOL0     H17491  11.425   9.704   6.177  0.8895  3.8079  0.8347
  133MOL0     H17492  11.543   9.892   6.079  2.3130 -2.5951 -1.1854
  133MOL0     H17493  11.601  10.079   5.963 -0.5109  0.3217 -0.2937
  133MOL0     H17494  11.615  10.126   5.795  1.5497 -0.7221 -1.8372
  133MOL0     H17495  11.718   9.849   5.878  1.7085  0.3594 -1.1082
  133MOL0     H17496  11.823   9.994   5.863 -0.0401  0.5490  0.4702
  133MOL0     H17497  11.844   9.866   5.685 -2.0602 -2.7080  0.5069
  133MOL0     H17498  11.781  10.030   5.641  0.0528 -0.5952 -0.0101
  133MOL0     H17499  11.549   9.925   5.593  0.3030  0.6340  2.3927
  133MOL0     H17500  11.680   9.857   5.497 -2.3151 -0.0584 -0.7162
  133MOL0     H17501  11.521   9.730   5.726  0.4070  1.1634  1.3596
  133MOL0     H17502  11.674   9.673   5.703 -0.9946 -2.5345 -1.0432
  133MOL0     H17503  11.598   9.619   5.462  2.2749 -1.6786  1.5586
  133MOL0     H17504  11.455   9.713   5.487 -1.8415 -0.4213  1.6224
  133MOL0     H17505  11.356   9.540   5.643  0.7280 -1.3084  1.4660
  133MOL0     H17506  11.440   9.443   5.514 -0.0233  0.9741 -1.2470
  133MOL0     H17507  11.537   9.506   5.798  4.3527 -2.9810  1.0794
  133MOL0     H17508  11.641   9.427   5.683 -1.4987 -1.7216 -1.9033
  133MOL0     H17509  11.611   9.153   5.704 -0.1531 -1.1031 -1.1472
  133MOL0     H17510  11.515   8.936   5.705  0.4478  0.3102 -1.2727
  133MOL0     H17511  11.377   8.932   5.603  0.1740 -0.5683  0.7138
  133MOL0     H17512  11.228   8.936   5.838  0.0960  0.2111 -1.1291
  133MOL0     H17513  11.374   8.888   5.911 -3.4900  1.5631  1.5580
  133MOL0     H17514  11.261   8.750   5.660 -0.2224  0.9202  0.8596
  133MOL0     H17515  11.370   8.688   5.781  1.2352  2.3413  5.4971
  133MOL0     H17516  11.140   8.601   5.806 -0.4767 -0.4964  2.8655
  133MOL0     H17517  11.064   8.760   5.825  0.8155  0.7186 -2.9426
  133MOL0     H17518  10.980   8.540   5.983  1.1727  0.2105  0.1364
  133MOL0     H17519  10.917   8.414   6.164 -0.0499 -0.1841 -1.8801
  133MOL0     H17520  10.630   8.281   6.409 -3.1417 -3.0850  1.7324
  133MOL0     H17521  10.530   8.132   6.559 -1.7930  0.6667  2.4601
  133MOL0     H17522  10.679   7.840   6.682  1.5191  1.6636  0.6573
  133MOL0     H17523  10.519   7.905   6.644 -2.5314  0.7518  1.7094
  133MOL0     H17524  10.624   7.805   6.915 -0.2583 -1.5705  0.0822
  133MOL0     H17525  10.512   7.718   6.793 -0.3163  1.4423 -2.5827
  133MOL0     H17526  10.442   7.959   6.971  1.1092 -0.7018  0.3406
  133MOL0     H17527  10.416   7.806   7.022  0.3043 -0.7567 -0.9259
  133MOL0     H17528  10.283   7.871   6.771 -3.0302 -0.4203  0.2039
  133MOL0     H17529  10.270   7.725   6.867  1.9202 -0.2257  1.9393
  133MOL0     H17530  10.195   8.007   6.977  2.4743 -0.3235 -0.4457
  133MOL0     H17531  10.165   7.846   7.049  1.5584 -0.9223  0.4079
  133MOL0     H17532  10.005   7.796   6.840 -1.2345 -0.2428  2.0616
  133MOL0     H17533  10.063   7.958   6.788  1.5928  0.7547  2.0292
  133MOL0     H17534   9.949   8.063   6.970 -0.7471 -0.3465  2.5818
  133MOL0     H17535   9.841   7.963   6.880  0.9412 -1.9332 -0.4637
  133MOL0     H17536   9.793   7.940   7.115  1.3061  2.2576 -1.6369
  133MOL0     H17537   9.957   7.934   7.157  3.2569  1.4201 -1.8225
  133MOL0     H17538  10.901   8.104   6.782 -1.1463  0.2050  0.4341
  133MOL0     H17539  11.000   8.246   6.643  0.6442 -5.1835 -0.4213
  133MOL0     H17540  11.196   8.628   6.418 -0.9584  1.0055 -0.4791
  133MOL0     H17541  11.298   8.698   6.212  0.8406 -1.2240  2.0450
  133MOL0     H17542  11.291   9.847   5.731  1.6910  2.9344  0.8073
  133MOL0     H17543  11.165   9.682   5.823  2.0498  1.1726 -1.5815
  133MOL0     H17544  10.843   9.486   6.098  0.1325  0.0927 -2.3692
  133MOL0     H17545  10.730   9.267   6.115  0.1917 -1.3499 -0.5416
  133MOL0     H17546  10.668   9.068   6.042  1.7714  0.6033 -0.2238
  133MOL0     H17547  10.729   9.067   6.211  0.5558 -0.7048  0.5556
  133MOL0     H17548  10.733   8.819   6.208 -0.9134  1.4328  0.4935
  133MOL0     H17549  10.584   8.873   6.177  0.7809 -1.3262  2.0223
  133MOL0     H17550  10.768   8.725   6.009  1.7814  1.1797  1.6929
  133MOL0     H17551  10.687   8.856   5.917  0.1334  0.6345  1.2262
  133MOL0     H17552  10.466   8.757   6.017  0.7900  1.6171  0.3884
  133MOL0     H17553  10.552   8.658   5.899 -0.8302 -0.5848 -0.5509
  133MOL0     H17554  10.606   8.423   6.248 -1.5131 -2.9110 -1.4165
  133MOL0     H17555  11.118   9.073   6.052  1.8708  1.3339 -1.0210
  133MOL0     H17556  11.224   9.292   6.091  1.1038  3.4007 -0.2997
  134MOL0     O17557   7.186   8.327   6.993  0.3511  0.5679  0.0706
  134MOL0     C17558   7.065   8.340   6.986 -0.4710  0.3535  0.1215
  134MOL0     O17559   6.986   8.319   6.879  0.0798 -0.7417 -0.2216
  134MOL0     C17560   7.044   8.254   6.774  0.7235  0.1801 -0.6282
  134MOL0     C17561   7.101   8.126   6.802 -0.1953  0.8709 -0.1869
  134MOL0     C17562   7.144   8.048   6.694  0.5816 -0.1167 -0.1861
  134MOL0     C17563   7.158   8.110   6.568  0.2320  0.5708 -0.3174
  134MOL0     O17564   7.186   8.043   6.455  0.2308  0.4517  0.3150
  134MOL0     C17565   7.292   7.938   6.459  0.6356 -0.6706  0.4057
  134MOL0     C17566   7.433   7.981   6.499  0.1076 -0.1724 -0.3059
  134MOL0     C17567   7.456   7.990   6.650  0.5697  0.3108  0.6877
  134MOL0     C17568   7.602   7.988   6.702 -0.0212  0.1726 -0.0214
  134MOL0     C17569   7.613   8.064   6.839  0.7718  1.2546 -0.5515
  134MOL0     C17570   7.757   8.069   6.897  0.1609  0.4107  0.9827
  134MOL0     C17571   7.753   8.135   7.031  0.2491  0.0703  0.7927
  134MOL0     C17572   7.878   8.123   7.113 -0.6112 -0.0188  0.5506
  134MOL0     N17573   7.977   8.228   7.068 -0.1175 -0.1327 -0.1101
  134MOL0     C17574   7.964   8.356   7.119  0.9478  0.5253  0.6754
  134MOL0     C17575   8.058   8.424   7.046 -0.0351 -0.0537 -0.0150
  134MOL0     C17576   8.098   8.568   7.064  0.4108  0.4155  0.0732
  134MOL0     C17577   8.122   8.594   7.221 -1.3880 -0.3017  0.2719
  134MOL0     C17578   8.181   8.744   7.237 -0.1794  0.5836  0.0269
  134MOL0     C17579   8.200   8.773   7.381 -0.1835  0.2510 -0.0953
  134MOL0     O17580   8.176   8.906   7.421  0.0541 -0.3898 -1.0689
  134MOL0     C17581   8.270   9.007   7.418  0.0011 -0.1790  0.6279
  134MOL0     C17582   8.232   9.122   7.484 -1.5638 -0.3240 -0.2948
  134MOL0     C17583   8.314   9.236   7.472  0.4319  0.0446 -0.3858
  134MOL0     C17584   8.440   9.225   7.405 -1.2875 -0.9654 -0.6216
  134MOL0     C17585   8.537   9.340   7.407 -0.2801 -0.5207 -0.0355
  134MOL0     O17586   8.664   9.320   7.352 -0.2245 -0.2845  0.2100
  134MOL0     C17587   8.722   9.433   7.312 -0.1054 -0.5584  0.0307
  134MOL0     C17588   8.777   9.523   7.403 -0.0960 -0.7044  0.0180
  134MOL0     C17589   8.845   9.632   7.359  0.4271 -0.7516 -0.1419
  134MOL0     C17590   8.858   9.671   7.225  0.8969  0.2184  0.1111
  134MOL0     O17591   8.911   9.784   7.159 -0.2454  0.5850 -0.1893
  134MOL0     C17592   8.962   9.889   7.249 -0.3631  0.0957 -0.2841
  134MOL0     C17593   9.102   9.920   7.210 -0.4036 -0.5372  0.4881
  134MOL0     C17594   9.190   9.794   7.211  0.9932  0.0453 -0.6828
  134MOL0     C17595   9.341   9.818   7.198  1.2133  1.6476  0.3175
  134MOL0     C17596   9.406   9.865   7.328 -0.4687 -0.4364  0.0732
  134MOL0     C17597   9.560   9.909   7.307  0.5964  0.6279 -0.6571
  134MOL0     C17598   9.627   9.966   7.438  0.7941 -0.2276 -0.0027
  134MOL0     C17599   9.612  10.122   7.426  0.6889 -0.2227  0.5165
  134MOL0    Cl17600   9.697  10.199   7.571 -0.2504 -1.0535  0.4775
  134MOL0     C17601   8.803   9.584   7.133  0.1319  0.2090  0.0295
  134MOL0     C17602   8.736   9.462   7.177 -0.2689 -0.7218  0.6886
  134MOL0     O17603   8.509   9.448   7.462 -0.0688  0.4963 -0.2569
  134MOL0     C17604   8.482   9.102   7.350 -0.9323 -0.3569 -0.5049
  134MOL0     C17605   8.388   8.997   7.343 -0.6943  0.5931  0.0954
  134MOL0     N17606   8.118   8.328   6.965  0.6736  0.4490 -0.2288
  134MOL0     N17607   8.070   8.212   6.976 -0.1424  1.1140 -0.5774
  134MOL0     C17608   7.107   8.237   6.557  0.0272  0.5209 -0.3750
  134MOL0     C17609   7.039   8.310   6.651 -0.1290  0.1266  1.2182
  134MOL0     C17610   6.997   8.387   7.112  0.3380  0.8954 -0.2252
  134MOL0     C17611   6.865   8.347   7.132 -0.2207 -0.0910 -0.2025
  134MOL0     C17612   6.803   8.389   7.253 -0.4274 -0.2156  0.2362
  134MOL0     C17613   6.880   8.455   7.348  1.2916 -0.1506  0.3281
  134MOL0     O17614   6.821   8.485   7.465  0.4346  0.3488  0.6330
  134MOL0     C17615   6.840   8.621   7.513  0.7778  0.6397 -0.5169
  134MOL0     C17616   6.707   8.699   7.510  0.4983  0.3522 -0.5541
  134MOL0     C17617   6.634   8.675   7.640 -0.0924  0.2464  0.0999
  134MOL0     C17618   6.501   8.736   7.651  0.1846  1.0739 -1.0517
  134MOL0     C17619   6.502   8.878   7.653  0.1883  0.6963 -0.5550
  134MOL0     C17620   6.488   8.994   7.661 -1.1829 -0.0468  0.2090
  134MOL0     C17621   7.015   8.487   7.335 -0.4861 -0.2268  0.0941
  134MOL0     C17622   7.071   8.452   7.209 -0.0560  0.1912  0.2067
  134MOL0     H17623   7.102   8.089   6.904 -0.7173 -0.6785 -0.7142
  134MOL0     H17624   7.169   7.942   6.700  0.1454 -0.1239  2.2652
  134MOL0     H17625   7.301   7.904   6.355 -0.9658  2.9092 -1.1063
  134MOL0     H17626   7.268   7.845   6.510  2.5184 -2.7234 -2.1583
  134MOL0     H17627   7.456   8.080   6.457 -1.2700 -0.0035 -0.7068
  134MOL0     H17628   7.506   7.907   6.465 -0.1727 -0.8528  0.5571
  134MOL0     H17629   7.408   7.901   6.693  1.2240 -0.5003 -0.1994
  134MOL0     H17630   7.406   8.079   6.688 -0.4424  1.4020 -2.8479
  134MOL0     H17631   7.636   7.885   6.717  2.8432  1.3595  2.7830
  134MOL0     H17632   7.660   8.033   6.620 -1.3745 -0.9292 -1.6671
  134MOL0     H17633   7.556   8.008   6.914 -1.0737 -0.5145 -3.0992
  134MOL0     H17634   7.578   8.167   6.830 -3.3901  0.2306  1.4262
  134MOL0     H17635   7.826   8.116   6.827  0.6763  2.1549  2.5773
  134MOL0     H17636   7.800   7.968   6.898 -0.2422  0.2385  0.8090
  134MOL0     H17637   7.728   8.240   7.013  2.7848  0.7603  0.8735
  134MOL0     H17638   7.678   8.084   7.092  1.1639 -1.4507  0.7094
  134MOL0     H17639   7.926   8.027   7.097 -0.0843  0.5358 -1.4450
  134MOL0     H17640   7.853   8.143   7.218 -1.7341  1.7472  0.0037
  134MOL0     H17641   7.901   8.394   7.198 -1.4209 -0.8713 -0.4157
  134MOL0     H17642   8.015   8.627   7.025 -0.6968 -0.6362  0.7838
  134MOL0     H17643   8.185   8.586   7.000  0.5496  0.1433  0.1842
  134MOL0     H17644   8.189   8.516   7.257  0.9168  2.1460  1.6324
  134MOL0     H17645   8.032   8.580   7.282 -1.8315 -4.2187 -1.0295
  134MOL0     H17646   8.274   8.755   7.181 -0.3621 -2.3752 -1.0119
  134MOL0     H17647   8.107   8.812   7.193 -0.8792  0.9062  1.6104
  134MOL0     H17648   8.289   8.722   7.420 -2.1606 -2.6634  1.0000
  134MOL0     H17649   8.121   8.719   7.433 -1.8550  1.0372 -1.7096
  134MOL0     H17650   8.147   9.125   7.552  0.1487 -2.6314  2.1547
  134MOL0     H17651   8.280   9.318   7.536  0.0051 -1.4711  1.4334
  134MOL0     H17652   8.763   9.513   7.511  0.9310  1.1551  0.3665
  134MOL0     H17653   8.898   9.697   7.429 -0.5611 -0.2331  0.1413
  134MOL0     H17654   8.955   9.863   7.355 -1.5242 -1.1442 -0.6342
  134MOL0     H17655   8.892   9.973   7.245 -0.4102  0.0107 -1.4976
  134MOL0     H17656   9.140   9.998   7.275  0.8475 -1.5107  0.9650
  134MOL0     H17657   9.095   9.950   7.105 -0.4582  1.9692  1.1637
  134MOL0     H17658   9.162   9.726   7.131  1.9393 -3.3612  1.6318
  134MOL0     H17659   9.171   9.743   7.306  2.3402  0.4264 -0.1831
  134MOL0     H17660   9.393   9.730   7.158 -1.2139 -0.2317  1.0438
  134MOL0     H17661   9.361   9.897   7.125  3.4689  0.5068 -0.3740
  134MOL0     H17662   9.405   9.790   7.408 -0.5229  1.7262  2.1852
  134MOL0     H17663   9.349   9.950   7.365  2.8542  1.0249  2.2326
  134MOL0     H17664   9.573   9.987   7.232  0.2071 -0.8357 -2.2870
  134MOL0     H17665   9.616   9.827   7.261 -0.7906  0.0822 -1.3998
  134MOL0     H17666   9.570   9.924   7.522  0.5115  2.3796  1.1938
  134MOL0     H17667   9.732   9.935   7.444  0.7205 -0.6288 -0.6736
  134MOL0     H17668   9.507  10.151   7.421  1.4146  2.4666 -0.4854
  134MOL0     H17669   9.651  10.168   7.335 -4.4516 -1.1051 -2.5300
  134MOL0     H17670   8.795   9.620   7.031 -0.7274 -4.9504 -2.0111
  134MOL0     H17671   8.685   9.397   7.106 -2.5350  0.8429  0.7613
  134MOL0     H17672   8.587   9.089   7.323 -0.8319 -2.7533  0.7801
  134MOL0     H17673   8.424   8.901   7.307  0.0664  1.3707 -1.2418
  134MOL0     H17674   7.107   8.284   6.459 -1.3520  0.8280 -0.2487
  134MOL0     H17675   6.985   8.402   6.632  3.0059  1.3441 -3.9077
  134MOL0     H17676   6.807   8.297   7.056 -1.7752  1.3356 -0.0117
  134MOL0     H17677   6.703   8.357   7.279 -0.0857 -0.9542  0.7017
  134MOL0     H17678   6.916   8.670   7.451 -0.8893  0.8702 -2.4533
  134MOL0     H17679   6.884   8.618   7.613  1.6369  0.7323 -0.8803
  134MOL0     H17680   6.714   8.807   7.491 -2.3929  0.8764  0.7579
  134MOL0     H17681   6.647   8.665   7.426  0.4500  1.0963 -0.8332
  134MOL0     H17682   6.697   8.703   7.724  1.7784 -1.3512 -0.6837
  134MOL0     H17683   6.624   8.566   7.652  0.2485  0.0894 -0.9323
  134MOL0     H17684   6.448   8.718   7.556 -0.3699  2.8958 -1.1221
  134MOL0     H17685   6.447   8.689   7.733  0.2051  0.8133 -1.1847
  134MOL0     H17686   6.478   9.100   7.670  1.6353  0.2419  0.5874
  134MOL0     H17687   7.073   8.539   7.410  2.0671 -0.9085 -1.2903
  134MOL0     H17688   7.173   8.482   7.186  1.2416 -2.2932  2.1536
  135MOL0     O17689   7.330   2.429   0.631 -0.3881 -0.3782 -1.1527
  135MOL0     C17690   7.388   2.443   0.738  0.1042 -0.4047  0.2995
  135MOL0     O17691   7.362   2.542   0.832  0.1873 -0.6469 -0.8502
  135MOL0     C17692   7.253   2.617   0.829  0.2209  1.0843 -0.2461
  135MOL0     C17693   7.151   2.585   0.916  0.0238 -0.0637 -0.1019
  135MOL0     C17694   7.029   2.654   0.903  0.5447  0.1766 -0.2426
  135MOL0     C17695   7.020   2.770   0.819  0.0843  0.5227  0.7669
  135MOL0     O17696   6.895   2.824   0.815 -0.3846  0.4127  0.1932
  135MOL0     C17697   6.866   2.914   0.919 -0.3483 -0.0451  0.5641
  135MOL0     C17698   6.748   2.989   0.876  0.2371  0.0952  0.4877
  135MOL0     C17699   6.617   2.905   0.888  0.0901 -0.7096  0.4255
  135MOL0     C17700   6.502   3.003   0.893  0.5931 -0.4035 -0.6162
  135MOL0     C17701   6.365   2.956   0.860  0.8232 -0.2517  0.7945
  135MOL0     C17702   6.284   2.935   0.988 -0.2976  0.6760  0.3044
  135MOL0     C17703   6.161   2.865   0.944  0.6986  0.8752  0.2558
  135MOL0     C17704   6.051   2.960   0.875 -0.2718  0.2710 -0.4810
  135MOL0     N17705   6.024   3.084   0.951  0.2274  0.7077  0.4689
  135MOL0     C17706   5.986   3.098   1.084  0.5915 -0.3822 -0.2188
  135MOL0     C17707   5.977   3.233   1.101  1.0257  0.2185 -0.0602
  135MOL0     C17708   5.963   3.294   1.243  0.0960 -0.4073 -0.6462
  135MOL0     C17709   6.065   3.407   1.259  0.7221 -0.1684 -0.2210
  135MOL0     C17710   6.195   3.335   1.294 -0.0815 -0.4661 -0.5664
  135MOL0     C17711   6.313   3.424   1.332 -0.3387  0.0246 -0.3703
  135MOL0     O17712   6.434   3.355   1.342  0.2507  0.9247 -1.1621
  135MOL0     C17713   6.548   3.423   1.330 -0.0559 -0.3977  0.1502
  135MOL0     C17714   6.642   3.412   1.226  0.4776 -0.7997  0.5733
  135MOL0     C17715   6.760   3.488   1.234 -0.2968 -0.7267 -0.1255
  135MOL0     C17716   6.783   3.576   1.339 -0.0344  0.3261  0.0349
  135MOL0     C17717   6.907   3.656   1.337 -0.4130  0.3395 -0.6016
  135MOL0     O17718   6.924   3.733   1.445 -0.2650  0.1199 -0.2951
  135MOL0     C17719   7.049   3.807   1.461 -0.7170  0.4611 -0.4887
  135MOL0     C17720   7.186   3.750   1.466 -0.7257 -0.3413 -0.1616
  135MOL0     C17721   7.300   3.833   1.468  0.1536  0.8634  0.4383
  135MOL0     C17722   7.286   3.970   1.495 -0.6136 -0.4264  0.0203
  135MOL0     O17723   7.400   4.047   1.501 -0.1099  1.1131  0.2561
  135MOL0     C17724   7.406   4.188   1.471 -0.5686 -0.6906 -0.3470
  135MOL0     C17725   7.448   4.258   1.597 -0.1941 -0.7214 -0.6273
  135MOL0     C17726   7.591   4.272   1.626 -0.8326 -1.0374  0.8410
  135MOL0     C17727   7.650   4.385   1.534  0.0105 -0.2525  0.7518
  135MOL0     C17728   7.805   4.406   1.526  0.6385 -0.6340 -0.3797
  135MOL0     C17729   7.857   4.481   1.398 -0.4460  0.5063 -0.1427
  135MOL0     C17730   7.841   4.409   1.271 -0.0851  0.6614  0.5915
  135MOL0     C17731   7.892   4.495   1.157  0.5491 -0.2322 -0.5900
  135MOL0    Cl17732   7.793   4.638   1.122  0.1973  0.4453 -0.1390
  135MOL0     C17733   7.160   4.025   1.492  0.5344 -1.0078  0.6267
  135MOL0     C17734   7.047   3.945   1.487 -0.2910  0.1740 -0.2280
  135MOL0     O17735   6.989   3.639   1.252  0.1988 -0.5867  0.0239
  135MOL0     C17736   6.681   3.594   1.436 -0.8853  1.3444  0.8760
  135MOL0     C17737   6.571   3.516   1.432 -0.2763  0.6282 -0.1750
  135MOL0     N17738   5.996   3.291   0.973 -0.3300  1.0437  0.2484
  135MOL0     N17739   6.040   3.204   0.887  0.8491  0.0737  0.1582
  135MOL0     C17740   7.124   2.801   0.729 -0.4575  0.0430  0.1230
  135MOL0     C17741   7.239   2.716   0.732 -0.7243 -0.4486 -0.1093
  135MOL0     C17742   7.490   2.352   0.779  0.6237 -0.0121 -1.1233
  135MOL0     C17743   7.475   2.228   0.737 -0.3154  1.2710 -1.5406
  135MOL0     C17744   7.564   2.125   0.791  0.2916 -1.3514 -0.4090
  135MOL0     C17745   7.667   2.156   0.885  0.0078  0.5445  0.4956
  135MOL0     O17746   7.754   2.062   0.939  0.7881 -0.7312  0.1381
  135MOL0     C17747   7.871   2.035   0.852  0.4800  0.0856  0.1310
  135MOL0     C17748   7.903   1.889   0.847 -0.3210 -0.0184 -0.8775
  135MOL0     C17749   8.036   1.868   0.770 -0.3182 -0.4473  0.3426
  135MOL0     C17750   8.050   1.718   0.763 -0.2178  0.2907 -0.0691
  135MOL0     C17751   8.197   1.684   0.782 -0.8384  0.0791  0.5098
  135MOL0     C17752   8.320   1.646   0.786  0.2616 -0.2488  0.5398
  135MOL0     C17753   7.676   2.290   0.918  0.5677 -0.2913  0.0531
  135MOL0     C17754   7.587   2.392   0.874  0.1617 -0.0349 -0.0206
  135MOL0     H17755   7.169   2.500   0.981  1.2327 -2.0648 -2.8375
  135MOL0     H17756   6.955   2.630   0.979  2.4553 -0.5247  1.4710
  135MOL0     H17757   6.944   2.991   0.927 -1.6108  1.1419  2.0140
  135MOL0     H17758   6.855   2.866   1.017  1.0099  2.5449  2.1002
  135MOL0     H17759   6.762   3.029   0.775 -1.7244  0.6458  0.3834
  135MOL0     H17760   6.743   3.077   0.941  4.2247  1.4541 -0.7990
  135MOL0     H17761   6.624   2.839   0.975  0.5569 -1.2977 -0.0514
  135MOL0     H17762   6.621   2.834   0.805 -1.9962 -0.0396 -0.3065
  135MOL0     H17763   6.509   3.045   0.994  2.4802 -0.1528 -0.8130
  135MOL0     H17764   6.533   3.078   0.820  1.5401  1.1665  1.3068
  135MOL0     H17765   6.364   2.864   0.801 -1.5514  1.0894 -1.4380
  135MOL0     H17766   6.321   3.032   0.795  2.0748  0.4733  0.7801
  135MOL0     H17767   6.260   3.022   1.048  0.3677 -0.2913  2.0416
  135MOL0     H17768   6.339   2.873   1.059  0.4574 -2.4017 -2.6652
  135MOL0     H17769   6.180   2.785   0.872  0.5443  1.3535 -0.3320
  135MOL0     H17770   6.114   2.819   1.031  1.0668 -2.7512 -1.2830
  135MOL0     H17771   5.964   2.894   0.873 -0.0963 -0.0872  1.6776
  135MOL0     H17772   6.092   2.984   0.776  0.5967 -0.6585 -0.3549
  135MOL0     H17773   5.986   3.014   1.152 -1.1587 -0.4271 -0.2450
  135MOL0     H17774   5.971   3.212   1.315 -1.5172 -0.6381 -0.6997
  135MOL0     H17775   5.871   3.351   1.253  2.2669  3.0264  1.8801
  135MOL0     H17776   6.031   3.478   1.334 -1.8065 -0.9691 -0.5276
  135MOL0     H17777   6.078   3.461   1.165  2.5085  1.1147  0.7009
  135MOL0     H17778   6.163   3.279   1.382  1.0048  0.3354  0.3538
  135MOL0     H17779   6.225   3.261   1.218 -0.6010 -1.9745  0.6436
  135MOL0     H17780   6.291   3.470   1.429  1.2719 -1.1013  0.5788
  135MOL0     H17781   6.333   3.505   1.261 -0.7103  1.4550  1.0894
  135MOL0     H17782   6.631   3.351   1.137  0.5598  1.6892 -1.2362
  135MOL0     H17783   6.829   3.490   1.150 -1.4272  4.8499 -1.3007
  135MOL0     H17784   7.196   3.643   1.451  2.5115  0.0535 -1.6169
  135MOL0     H17785   7.398   3.789   1.450  0.6785  1.2785  2.0907
  135MOL0     H17786   7.307   4.229   1.446  0.1368 -1.3500 -5.3855
  135MOL0     H17787   7.475   4.210   1.389  1.5789  2.9003  2.1218
  135MOL0     H17788   7.406   4.218   1.690  0.3728  3.0629  1.4551
  135MOL0     H17789   7.403   4.357   1.601 -3.4317 -2.1024  0.1402
  135MOL0     H17790   7.646   4.182   1.599  1.7949  0.7388 -0.1205
  135MOL0     H17791   7.618   4.304   1.727  3.1670 -2.1195  0.2734
  135MOL0     H17792   7.610   4.368   1.433 -0.2015 -2.8401  1.2088
  135MOL0     H17793   7.607   4.482   1.558  2.1900  0.5259  1.7500
  135MOL0     H17794   7.855   4.310   1.545  2.0708  0.3840  1.2363
  135MOL0     H17795   7.836   4.456   1.618  0.6161 -0.8149 -0.2723
  135MOL0     H17796   7.964   4.501   1.403 -1.0516  5.0188 -1.3811
  135MOL0     H17797   7.803   4.575   1.387 -2.2983 -0.6971 -2.0753
  135MOL0     H17798   7.895   4.314   1.282 -0.0956  0.5741 -0.0656
  135MOL0     H17799   7.736   4.383   1.255  0.2877 -0.8715  0.4983
  135MOL0     H17800   7.893   4.431   1.069 -0.2763 -1.7892  0.4908
  135MOL0     H17801   7.990   4.531   1.190  0.3523  0.4935 -0.7674
  135MOL0     H17802   7.146   4.133   1.496  0.2703 -0.8873 -2.0582
  135MOL0     H17803   6.951   3.992   1.502  1.2905  4.1558 -1.3463
  135MOL0     H17804   6.671   3.676   1.506  0.4749  2.3372 -0.0382
  135MOL0     H17805   6.502   3.541   1.512 -0.8666  2.8465 -1.3126
  135MOL0     H17806   7.106   2.881   0.658  1.4534  0.3878 -0.0078
  135MOL0     H17807   7.315   2.737   0.657 -1.6121  1.7034 -0.4777
  135MOL0     H17808   7.396   2.202   0.667 -0.6321  1.9656 -1.4559
  135MOL0     H17809   7.568   2.019   0.770  3.6828 -0.8343 -3.2636
  135MOL0     H17810   7.959   2.093   0.879 -0.0900  1.7712 -1.4034
  135MOL0     H17811   7.842   2.068   0.751  0.7664 -1.6670 -0.5516
  135MOL0     H17812   7.916   1.855   0.950  1.9471  1.8353 -0.4813
  135MOL0     H17813   7.825   1.826   0.802  0.2471  0.0075 -1.9277
  135MOL0     H17814   8.131   1.896   0.817 -0.2353 -1.1218  0.5922
  135MOL0     H17815   8.030   1.911   0.670  0.2166 -1.3809 -0.1042
  135MOL0     H17816   7.998   1.661   0.841  1.4556  1.8844  2.3550
  135MOL0     H17817   8.032   1.671   0.666  3.2019 -2.0262  0.2175
  135MOL0     H17818   8.426   1.629   0.787  0.4882  1.1227  1.5879
  135MOL0     H17819   7.737   2.322   1.002 -1.6358  3.2406  0.5313
  135MOL0     H17820   7.579   2.495   0.908  2.0582  1.2315 -3.0435
  136MOL0     O17821   7.113   7.669   2.167  0.6628 -0.1941  0.0317
  136MOL0     C17822   7.049   7.772   2.144  0.0906  0.4112  0.9670
  136MOL0     O17823   6.942   7.782   2.061  0.1005  0.0290  0.5896
  136MOL0     C17824   6.884   7.671   1.997  0.4597  0.7121  0.5608
  136MOL0     C17825   6.957   7.591   1.906  0.3966  0.7506 -0.0104
  136MOL0     C17826   6.881   7.489   1.840 -0.5492  0.0940  0.2293
  136MOL0     C17827   6.745   7.473   1.853 -0.3596  0.6011  0.8681
  136MOL0     O17828   6.683   7.375   1.780  0.4212  0.3926 -0.2582
  136MOL0     C17829   6.571   7.306   1.836 -0.2765 -0.1178 -0.6278
  136MOL0     C17830   6.561   7.160   1.793  0.7460 -0.4106 -0.2131
  136MOL0     C17831   6.665   7.072   1.863 -1.8048  0.4601 -0.1952
  136MOL0     C17832   6.665   7.046   2.013  0.3379 -1.0453 -0.7942
  136MOL0     C17833   6.578   6.927   2.048 -0.3802  0.6524  0.1552
  136MOL0     C17834   6.664   6.798   2.053 -0.3160 -0.2016 -0.3132
  136MOL0     C17835   6.588   6.671   2.100  0.3960  0.2820 -0.5398
  136MOL0     C17836   6.667   6.540   2.068 -0.3521 -0.5524 -0.3254
  136MOL0     N17837   6.637   6.491   1.932  0.0703 -0.2312  0.3528
  136MOL0     C17838   6.592   6.362   1.904 -0.3206 -0.6059  0.4735
  136MOL0     C17839   6.555   6.366   1.776 -0.8819  0.2582  0.8673
  136MOL0     C17840   6.488   6.247   1.700 -0.1318  0.6578 -0.1306
  136MOL0     C17841   6.588   6.129   1.695  0.3490  0.4146  0.6924
  136MOL0     C17842   6.538   6.025   1.588  0.0994 -0.0403 -0.3729
  136MOL0     C17843   6.387   5.987   1.599  1.3544 -0.1218 -0.0570
  136MOL0     O17844   6.307   6.079   1.513  0.8563 -0.4286  0.1088
  136MOL0     C17845   6.166   6.077   1.502 -0.3243  0.3049  1.2820
  136MOL0     C17846   6.082   5.994   1.578  0.4239  0.4524 -0.5834
  136MOL0     C17847   5.941   5.993   1.554 -0.9410  1.1069  0.5384
  136MOL0     C17848   5.886   6.086   1.461 -0.0515  0.3199 -0.0948
  136MOL0     C17849   5.745   6.070   1.432 -0.2519 -0.2702 -0.3025
  136MOL0     O17850   5.664   5.982   1.502  0.5721  0.0622 -0.7936
  136MOL0     C17851   5.531   6.006   1.485  1.0325  0.7840 -0.0873
  136MOL0     C17852   5.455   5.914   1.402  0.8000  0.7496  0.9364
  136MOL0     C17853   5.315   5.937   1.376  0.1138  0.8916  0.2824
  136MOL0     C17854   5.254   6.038   1.456 -0.4300 -0.6193 -0.4391
  136MOL0     O17855   5.131   6.084   1.456  0.5715 -0.0956 -0.2479
  136MOL0     C17856   5.056   6.057   1.336 -0.6490  0.4281  0.0854
  136MOL0     C17857   4.935   6.145   1.326 -0.7941  0.9519  0.5365
  136MOL0     C17858   4.838   6.096   1.223 -0.5431  1.9836 -0.8334
  136MOL0     C17859   4.713   6.186   1.212  0.1018 -0.0946 -0.2939
  136MOL0     C17860   4.586   6.124   1.166  0.9429  0.3881  0.1680
  136MOL0     C17861   4.609   6.049   1.036 -0.5770 -0.3593 -0.3903
  136MOL0     C17862   4.489   6.030   0.940  0.1183 -0.5519  0.1630
  136MOL0     C17863   4.409   5.918   0.999 -0.0451  0.0577 -0.8838
  136MOL0    Cl17864   4.303   5.956   1.139 -0.4273 -0.2966 -0.4533
  136MOL0     C17865   5.318   6.113   1.548 -0.7736 -0.0056 -0.3906
  136MOL0     C17866   5.456   6.093   1.569 -0.2847  0.1514 -0.0873
  136MOL0     O17867   5.706   6.137   1.333  1.1786  0.6858 -0.3012
  136MOL0     C17868   5.972   6.174   1.392  0.1056 -0.2106  0.3529
  136MOL0     C17869   6.111   6.165   1.417  0.4328 -0.9284  0.8374
  136MOL0     N17870   6.584   6.485   1.715 -0.6576  0.4303 -0.8485
  136MOL0     N17871   6.621   6.559   1.813 -0.1862 -0.2313  0.2482
  136MOL0     C17872   6.681   7.559   1.942  0.3335  0.1739  0.3755
  136MOL0     C17873   6.749   7.657   2.018  0.5170 -0.1140  0.2983
  136MOL0     C17874   7.091   7.889   2.209 -0.5950 -0.0496  0.4918
  136MOL0     C17875   7.020   8.008   2.184  0.0439  0.0418  0.1061
  136MOL0     C17876   7.051   8.126   2.255  0.4398 -0.0078 -0.0747
  136MOL0     C17877   7.161   8.134   2.339  0.0270  0.3333 -0.9562
  136MOL0     O17878   7.183   8.261   2.390  0.1884 -0.3979  0.3409
  136MOL0     C17879   7.249   8.270   2.519  0.0219  0.0456  0.2411
  136MOL0     C17880   7.239   8.413   2.566 -0.7322 -0.6470  0.1356
  136MOL0     C17881   7.090   8.453   2.598 -0.5298  0.7361  0.8507
  136MOL0     C17882   7.063   8.597   2.629 -0.6367 -0.1817 -0.4623
  136MOL0     C17883   7.146   8.638   2.747 -0.5416  0.0178  0.5858
  136MOL0     C17884   7.214   8.688   2.829 -0.0880  0.8480 -0.0105
  136MOL0     C17885   7.229   8.019   2.372 -0.3766  1.0984  0.2589
  136MOL0     C17886   7.190   7.889   2.313  0.3852  0.5700  0.2870
  136MOL0     H17887   7.063   7.610   1.889  0.7543 -1.9551 -1.3589
  136MOL0     H17888   6.937   7.424   1.772 -1.1438  1.1126 -1.2961
  136MOL0     H17889   6.474   7.351   1.814 -0.7507  0.7747  2.7119
  136MOL0     H17890   6.582   7.310   1.945 -0.9689 -0.5631 -0.5377
  136MOL0     H17891   6.578   7.155   1.685  2.4483 -2.8867  0.0902
  136MOL0     H17892   6.462   7.122   1.818  0.8265  0.0063  0.8077
  136MOL0     H17893   6.765   7.114   1.848 -0.6292 -0.3586  4.1303
  136MOL0     H17894   6.677   6.981   1.804  2.0998 -0.3033  1.4848
  136MOL0     H17895   6.768   7.031   2.048 -0.6241 -3.4157  1.3383
  136MOL0     H17896   6.620   7.135   2.057 -1.2145 -2.4070  0.5177
  136MOL0     H17897   6.507   6.913   1.967 -1.4335 -1.0699  1.2941
  136MOL0     H17898   6.531   6.953   2.144  0.1179  0.6299  0.4088
  136MOL0     H17899   6.730   6.801   2.140  0.1669 -0.2605 -0.6764
  136MOL0     H17900   6.716   6.786   1.958  2.5257  0.7722  1.0147
  136MOL0     H17901   6.574   6.672   2.209  0.8870 -1.4368 -0.4317
  136MOL0     H17902   6.485   6.671   2.062  0.5914  0.2900 -1.0702
  136MOL0     H17903   6.642   6.455   2.133  0.2845 -1.5877 -1.3860
  136MOL0     H17904   6.773   6.564   2.079 -0.9042  1.1045  2.2793
  136MOL0     H17905   6.583   6.277   1.972  2.1912 -2.2556 -1.0827
  136MOL0     H17906   6.468   6.278   1.597  0.6618 -1.9934 -1.1798
  136MOL0     H17907   6.387   6.222   1.735  0.0773 -0.0578 -0.0243
  136MOL0     H17908   6.601   6.082   1.793 -0.7950 -0.9931  0.2064
  136MOL0     H17909   6.689   6.160   1.666  0.5983 -1.1730 -0.3161
  136MOL0     H17910   6.564   6.066   1.491 -0.5601  0.2473 -0.4304
  136MOL0     H17911   6.596   5.934   1.607 -0.8356 -0.6387 -0.3252
  136MOL0     H17912   6.354   5.989   1.703  0.0512 -1.3222 -0.4070
  136MOL0     H17913   6.383   5.884   1.561  0.3938 -0.9759  2.2088
  136MOL0     H17914   6.126   5.917   1.641  0.6797  0.5395 -0.6525
  136MOL0     H17915   5.887   5.907   1.593 -2.7277  0.3238 -3.1856
  136MOL0     H17916   5.514   5.833   1.360  1.8196  0.1834  3.2572
  136MOL0     H17917   5.256   5.878   1.306  1.5774  0.9638 -1.0749
  136MOL0     H17918   5.038   5.949   1.333  1.3675  0.0085  0.8065
  136MOL0     H17919   5.114   6.080   1.247 -1.4152 -1.4556 -0.9436
  136MOL0     H17920   4.973   6.242   1.293  1.3726 -0.9314 -3.1484
  136MOL0     H17921   4.883   6.161   1.421 -1.4682  3.0926 -0.1389
  136MOL0     H17922   4.796   6.000   1.255 -1.1868  2.5612  0.1342
  136MOL0     H17923   4.885   6.086   1.125 -0.6168  0.2564 -0.7152
  136MOL0     H17924   4.698   6.228   1.312 -0.3010 -2.8233  0.8716
  136MOL0     H17925   4.741   6.261   1.138 -0.7074 -0.3944 -0.9165
  136MOL0     H17926   4.511   6.202   1.150 -0.0259 -0.6914 -0.7071
  136MOL0     H17927   4.548   6.066   1.250 -0.3289  0.9789  0.0099
  136MOL0     H17928   4.648   5.953   1.072 -0.1790  0.9705  3.2298
  136MOL0     H17929   4.682   6.102   0.975 -2.0613  0.1688 -1.7718
  136MOL0     H17930   4.429   6.119   0.919  1.3645  0.2833  0.0431
  136MOL0     H17931   4.532   5.998   0.845 -2.2668 -1.1558 -0.7880
  136MOL0     H17932   4.474   5.836   1.033  0.3689 -0.7743 -3.4331
  136MOL0     H17933   4.335   5.881   0.927 -2.2143  4.7628 -1.3940
  136MOL0     H17934   5.268   6.195   1.598  1.2771  1.2082 -0.2157
  136MOL0     H17935   5.515   6.135   1.650  0.8913 -2.0192  0.2797
  136MOL0     H17936   5.929   6.249   1.325 -1.6765 -1.5878 -0.1273
  136MOL0     H17937   6.161   6.229   1.345 -0.7598  1.0950  1.7239
  136MOL0     H17938   6.579   7.541   1.974  0.8916  0.3293  2.3553
  136MOL0     H17939   6.690   7.719   2.084 -0.9629 -0.8859 -0.2424
  136MOL0     H17940   6.930   8.019   2.126 -1.8130  3.2071  3.1687
  136MOL0     H17941   7.007   8.223   2.234 -0.7153 -0.1072  1.6850
  136MOL0     H17942   7.352   8.232   2.515  0.1229  0.3730 -3.0069
  136MOL0     H17943   7.190   8.208   2.588  0.8908 -2.7209 -1.3519
  136MOL0     H17944   7.300   8.427   2.655 -0.5427 -1.7438  0.1907
  136MOL0     H17945   7.282   8.479   2.489  0.5206 -0.8088  0.6705
  136MOL0     H17946   7.028   8.384   2.656 -1.9324 -1.1047 -2.5772
  136MOL0     H17947   7.041   8.431   2.503 -0.2051  2.2267  0.3016
  136MOL0     H17948   7.089   8.660   2.543 -0.4111 -1.0584 -1.0563
  136MOL0     H17949   6.963   8.627   2.661 -1.5542  1.3615 -4.1981
  136MOL0     H17950   7.276   8.738   2.901 -2.3516 -0.8813  3.3925
  136MOL0     H17951   7.313   8.028   2.439  1.3089 -0.7522 -1.4878
  136MOL0     H17952   7.236   7.797   2.346 -0.0485 -0.2608 -1.3386
  137MOL0     O17953   9.403   4.548   0.130 -0.2962  0.6040 -0.2950
  137MOL0     C17954   9.474   4.507   0.226  0.2212  0.5710 -0.0125
  137MOL0     O17955   9.431   4.464   0.350  0.0371 -0.1566  0.1593
  137MOL0     C17956   9.304   4.486   0.393 -0.2989 -1.0185 -1.6054
  137MOL0     C17957   9.237   4.387   0.461  0.3474  0.4152  1.0289
  137MOL0     C17958   9.112   4.400   0.521  1.1325 -1.0597  0.5226
  137MOL0     C17959   9.046   4.525   0.507  0.3207  0.3894  0.2889
  137MOL0     O17960   8.923   4.549   0.550  0.3514 -0.3686  0.6879
  137MOL0     C17961   8.834   4.454   0.500  0.4456  0.1029 -0.1947
  137MOL0     C17962   8.787   4.362   0.609 -0.1721  0.3353  0.3607
  137MOL0     C17963   8.676   4.270   0.566 -0.0003  0.7208 -0.6140
  137MOL0     C17964   8.548   4.343   0.530 -0.0826  0.6035 -0.2355
  137MOL0     C17965   8.425   4.259   0.540 -1.1962 -0.3546 -0.4498
  137MOL0     C17966   8.425   4.118   0.472 -0.1140  0.3212 -0.0585
  137MOL0     C17967   8.474   4.117   0.326  0.0910 -0.5051  0.5113
  137MOL0     C17968   8.509   3.969   0.291  0.1433  0.0346 -0.2639
  137MOL0     N17969   8.556   3.951   0.149  0.4395 -0.6450 -0.0873
  137MOL0     C17970   8.634   3.853   0.093 -0.8784 -0.2063 -1.1092
  137MOL0     C17971   8.663   3.892  -0.032 -0.1320 -0.1763  0.2867
  137MOL0     C17972   8.762   3.829  -0.118 -0.0108 -0.0494  0.0734
  137MOL0     C17973   8.769   3.894  -0.254 -0.1768  0.0985  0.2015
  137MOL0     C17974   8.890   3.842  -0.335  0.1791 -0.1485  0.5455
  137MOL0     C17975   8.852   3.706  -0.398  0.1188  0.1811 -0.5514
  137MOL0     O17976   8.967   3.622  -0.422  0.2308  0.2516 -0.1677
  137MOL0     C17977   8.957   3.485  -0.431  0.0998 -0.3219 -0.0646
  137MOL0     C17978   9.074   3.412  -0.444 -0.5240  0.6861 -0.5699
  137MOL0     C17979   9.071   3.263  -0.452 -0.1379 -0.3305 -0.2609
  137MOL0     C17980   8.946   3.200  -0.445  0.8185 -0.0904  0.5286
  137MOL0     C17981   8.936   3.058  -0.446 -0.9349  0.9079  0.4944
  137MOL0     O17982   8.815   2.997  -0.446 -0.3670  0.2654 -0.2321
  137MOL0     C17983   8.815   2.858  -0.421  0.7742 -0.1250 -0.3046
  137MOL0     C17984   8.736   2.774  -0.505  0.0319  1.9596  0.3089
  137MOL0     C17985   8.717   2.640  -0.482 -0.9690  0.1529 -0.9304
  137MOL0     C17986   8.769   2.588  -0.364  0.0878  0.3082  0.1398
  137MOL0     O17987   8.766   2.456  -0.319  0.3079 -0.1791 -0.0396
  137MOL0     C17988   8.708   2.351  -0.396 -0.1794  0.9087  0.1820
  137MOL0     C17989   8.812   2.315  -0.498  0.1943 -0.1540  0.3236
  137MOL0     C17990   8.758   2.194  -0.574 -0.9316  0.4466  0.9198
  137MOL0     C17991   8.822   2.156  -0.711  0.0927 -0.1863  0.2107
  137MOL0     C17992   8.798   2.259  -0.820 -0.3635 -0.6808  0.0797
  137MOL0     C17993   8.649   2.305  -0.840  0.3086 -0.3927  0.3699
  137MOL0     C17994   8.628   2.414  -0.952 -1.0903  0.3217 -0.0554
  137MOL0     C17995   8.728   2.514  -0.970  0.3544 -1.1469  0.0820
  137MOL0    Cl17996   8.692   2.658  -0.865  0.0534  0.0007  0.2748
  137MOL0     C17997   8.836   2.674  -0.273 -1.1973 -0.0181 -0.3761
  137MOL0     C17998   8.860   2.806  -0.298  1.2990 -0.5456  0.1257
  137MOL0     O17999   9.041   2.997  -0.464 -0.2199  0.0282  0.2189
  137MOL0     C18000   8.829   3.270  -0.447  0.5020  0.5924  0.1465
  137MOL0     C18001   8.835   3.411  -0.444  0.1465 -0.2440 -0.3677
  137MOL0     N18002   8.594   4.005  -0.061  0.0269  0.4841  0.3590
  137MOL0     N18003   8.541   4.048   0.045  0.7004  1.5134 -0.8635
  137MOL0     C18004   9.117   4.630   0.444 -0.2859  0.8775  0.3449
  137MOL0     C18005   9.240   4.608   0.382  1.2596 -0.9178  0.0374
  137MOL0     C18006   9.618   4.499   0.219 -0.7916 -0.3069 -0.6103
  137MOL0     C18007   9.690   4.573   0.126  0.7847 -0.0115  0.2494
  137MOL0     C18008   9.831   4.558   0.108 -0.5507 -0.9996  0.1330
  137MOL0     C18009   9.896   4.463   0.182 -0.1953 -0.7561  0.2673
  137MOL0     O18010  10.028   4.446   0.152 -0.1150  0.4097  0.9327
  137MOL0     C18011  10.118   4.410   0.258  1.0057  0.1593  1.0280
  137MOL0     C18012  10.238   4.496   0.237  0.4510  0.7840 -0.2799
  137MOL0     C18013  10.211   4.643   0.222  0.3867  0.6487 -0.9024
  137MOL0     C18014  10.341   4.729   0.215  0.3991  0.0807 -0.3557
  137MOL0     C18015  10.405   4.739   0.340 -0.2570  0.1657  0.3067
  137MOL0     C18016  10.465   4.756   0.442  0.0517  0.0895  0.3022
  137MOL0     C18017   9.825   4.395   0.274 -0.0580 -0.1859  0.7898
  137MOL0     C18018   9.696   4.422   0.300  1.3553  0.1487  0.1642
  137MOL0     H18019   9.283   4.289   0.471 -2.1389 -0.7058  2.1319
  137MOL0     H18020   9.067   4.308   0.558  0.4202 -0.7751  0.3852
  137MOL0     H18021   8.870   4.395   0.415 -0.7568 -1.5718  0.4152
  137MOL0     H18022   8.744   4.511   0.475 -2.0133 -1.9112  3.2586
  137MOL0     H18023   8.751   4.419   0.696  0.4118  0.4244  0.5468
  137MOL0     H18024   8.870   4.302   0.647 -1.4076 -1.9084 -0.2842
  137MOL0     H18025   8.654   4.212   0.656 -0.2212  2.9081  0.8315
  137MOL0     H18026   8.709   4.201   0.487 -0.1649  1.2264 -1.1355
  137MOL0     H18027   8.537   4.414   0.613 -0.6140  1.0190 -0.6473
  137MOL0     H18028   8.544   4.387   0.430  2.0703 -1.0831 -1.1412
  137MOL0     H18029   8.344   4.319   0.497 -2.8260  0.9633  3.8780
  137MOL0     H18030   8.407   4.252   0.648 -2.6142 -0.1795 -0.6555
  137MOL0     H18031   8.328   4.069   0.481 -0.3517  0.9459  0.8741
  137MOL0     H18032   8.490   4.044   0.519  0.0854 -1.1855 -2.5271
  137MOL0     H18033   8.384   4.150   0.273  0.0115 -2.2433 -0.5310
  137MOL0     H18034   8.550   4.194   0.310 -0.2905 -0.2832 -0.3236
  137MOL0     H18035   8.430   3.900   0.320 -0.2809 -0.2568 -2.0185
  137MOL0     H18036   8.589   3.941   0.360 -0.9540 -0.0549  1.0109
  137MOL0     H18037   8.678   3.771   0.149  0.2784 -0.5519 -2.4604
  137MOL0     H18038   8.758   3.721  -0.135  3.4011 -0.5042  1.4682
  137MOL0     H18039   8.856   3.846  -0.065  0.2970 -0.8642 -0.1981
  137MOL0     H18040   8.785   4.000  -0.232 -0.0573 -0.1401  1.3181
  137MOL0     H18041   8.680   3.872  -0.315 -1.0758  0.3066  1.3993
  137MOL0     H18042   8.898   3.914  -0.416 -1.5030  3.2743  3.1422
  137MOL0     H18043   8.984   3.841  -0.279  0.5645  0.0276 -0.0993
  137MOL0     H18044   8.781   3.718  -0.480 -4.7905 -2.5849  2.7824
  137MOL0     H18045   8.805   3.646  -0.320 -2.1152  2.2533 -0.1838
  137MOL0     H18046   9.166   3.468  -0.450 -0.5414  0.5869 -2.8947
  137MOL0     H18047   9.159   3.200  -0.457 -0.7516 -1.4040  1.6278
  137MOL0     H18048   8.699   2.820  -0.596 -1.2490 -2.9289 -1.9880
  137MOL0     H18049   8.645   2.593  -0.548 -1.7473  0.8298 -0.5711
  137MOL0     H18050   8.611   2.375  -0.439  0.4500  1.9120 -0.7278
  137MOL0     H18051   8.697   2.263  -0.333  1.2545  2.5999  3.0381
  137MOL0     H18052   8.910   2.293  -0.456  0.0810  1.3172  1.3985
  137MOL0     H18053   8.819   2.403  -0.563  2.4829 -0.9680 -0.6170
  137MOL0     H18054   8.650   2.201  -0.587 -0.7719 -0.4788 -1.4878
  137MOL0     H18055   8.772   2.103  -0.516 -1.2904 -0.5306 -0.4617
  137MOL0     H18056   8.931   2.142  -0.705  0.3396  1.5759  0.5271
  137MOL0     H18057   8.764   2.072  -0.750 -3.0070  2.3821 -1.2162
  137MOL0     H18058   8.834   2.221  -0.916  1.6936  2.9915 -0.8265
  137MOL0     H18059   8.868   2.342  -0.803  0.1685 -0.4537 -2.7924
  137MOL0     H18060   8.610   2.352  -0.750  0.8464 -2.1328  1.5658
  137MOL0     H18061   8.589   2.216  -0.863 -0.6373  0.2231  0.4012
  137MOL0     H18062   8.620   2.348  -1.040 -1.7124 -0.6298  0.7026
  137MOL0     H18063   8.529   2.455  -0.933 -0.9639 -0.1123  1.6949
  137MOL0     H18064   8.716   2.540  -1.076 -0.1515  2.2426  0.8682
  137MOL0     H18065   8.833   2.483  -0.962  0.5777 -0.0719  1.8544
  137MOL0     H18066   8.870   2.637  -0.177  1.8402  0.4675 -1.1572
  137MOL0     H18067   8.897   2.859  -0.211 -0.5406 -0.1793  0.7451
  137MOL0     H18068   8.734   3.217  -0.454  1.7811 -1.7469 -0.3037
  137MOL0     H18069   8.742   3.460  -0.415  1.1852 -0.1203  3.1419
  137MOL0     H18070   9.077   4.730   0.431 -2.6311  0.3353  2.5486
  137MOL0     H18071   9.272   4.685   0.312 -1.7533 -1.4471 -2.1550
  137MOL0     H18072   9.631   4.631   0.056  0.9755 -2.2420 -1.9190
  137MOL0     H18073   9.883   4.613   0.030 -0.7738  5.9668  4.1722
  137MOL0     H18074  10.138   4.302   0.250 -3.8345 -0.9225  0.6359
  137MOL0     H18075  10.064   4.431   0.350  1.2298  0.4490  1.0959
  137MOL0     H18076  10.299   4.477   0.326  2.1122  0.8021 -1.3674
  137MOL0     H18077  10.304   4.463   0.156  2.6368 -0.2982  1.8020
  137MOL0     H18078  10.158   4.681   0.310  1.9969 -0.1088  0.4495
  137MOL0     H18079  10.156   4.648   0.128 -0.2386  2.1677 -0.4822
  137MOL0     H18080  10.407   4.683   0.141  0.3258 -0.7812  0.1040
  137MOL0     H18081  10.316   4.825   0.169 -2.9179 -0.4971  0.0072
  137MOL0     H18082  10.527   4.766   0.529 -1.0403 -0.7577  1.2111
  137MOL0     H18083   9.881   4.327   0.336 -1.5816  1.2056  3.9239
  137MOL0     H18084   9.643   4.375   0.382 -0.4137  0.9529 -0.4651
  138MOL0     O18085  11.315   3.388   2.771 -0.1894 -0.3218  0.0440
  138MOL0     C18086  11.270   3.498   2.777  1.1110 -0.3841 -0.3792
  138MOL0     O18087  11.292   3.589   2.887  0.3777 -0.0949 -0.2940
  138MOL0     C18088  11.391   3.554   2.976  0.5864 -0.8235 -0.3596
  138MOL0     C18089  11.503   3.635   2.983 -0.4828 -0.5057 -0.3323
  138MOL0     C18090  11.605   3.608   3.081 -0.2197 -0.6681 -0.4474
  138MOL0     C18091  11.604   3.485   3.150 -0.0294 -0.8198 -0.2498
  138MOL0     O18092  11.686   3.457   3.250 -1.2792 -0.2025  0.6992
  138MOL0     C18093  11.710   3.315   3.278 -0.2179  0.2533 -0.5080
  138MOL0     C18094  11.835   3.303   3.372 -0.4016 -0.2467  0.0578
  138MOL0     C18095  11.965   3.330   3.303 -0.3426  0.1965 -0.2170
  138MOL0     C18096  12.076   3.317   3.414  1.0268 -0.2215 -0.3915
  138MOL0     C18097  12.222   3.331   3.372  0.3061  0.6238  0.0499
  138MOL0     C18098  12.255   3.455   3.292  0.0384 -1.1157 -0.2624
  138MOL0     C18099  12.407   3.491   3.284 -0.6816  1.0533  0.0855
  138MOL0     C18100  12.503   3.382   3.224  1.2038 -0.0584  0.1957
  138MOL0     N18101  12.647   3.424   3.243  0.7287 -0.1229  0.8799
  138MOL0     C18102  12.704   3.458   3.362  0.9182 -0.5669  0.3761
  138MOL0     C18103  12.824   3.523   3.326  0.4697 -0.2790  0.0481
  138MOL0     C18104  12.944   3.550   3.407  0.1090  0.2382 -0.0509
  138MOL0     C18105  13.044   3.656   3.360  0.8203  0.0592 -0.5969
  138MOL0     C18106  13.154   3.669   3.475 -1.2777 -0.6947 -0.3847
  138MOL0     C18107  13.273   3.767   3.435  0.4824  0.5389  0.7831
  138MOL0     O18108  13.227   3.895   3.409 -0.0477  0.3744  0.2486
  138MOL0     C18109  13.318   3.997   3.382 -0.1039 -0.5031  0.7060
  138MOL0     C18110  13.456   3.987   3.373 -0.7669 -0.2964  1.0824
  138MOL0     C18111  13.535   4.103   3.353 -0.1944  0.2881  0.7852
  138MOL0     C18112  13.473   4.231   3.343 -0.0273  0.8117 -1.3857
  138MOL0     C18113  13.563   4.348   3.322  1.2921  0.1203 -0.2343
  138MOL0     O18114  13.518   4.448   3.237  0.3419  0.1522 -0.0860
  138MOL0     C18115  13.587   4.564   3.209  0.2191  0.3819  0.6706
  138MOL0     C18116  13.545   4.638   3.102  0.1456 -0.6494  0.1824
  138MOL0     C18117  13.602   4.760   3.062 -0.4496  0.1162  0.2123
  138MOL0     C18118  13.714   4.809   3.125  0.2615  0.6855 -0.2326
  138MOL0     O18119  13.781   4.923   3.092 -0.2739 -0.5732 -0.2703
  138MOL0     C18120  13.716   5.049   3.128 -0.0321 -0.5576 -1.1336
  138MOL0     C18121  13.757   5.074   3.280 -0.5169 -0.4452 -0.2113
  138MOL0     C18122  13.742   5.226   3.298 -0.6780  1.4754  0.1440
  138MOL0     C18123  13.722   5.254   3.447  0.1360  0.3572 -0.7999
  138MOL0     C18124  13.724   5.403   3.487  0.0374  0.7207  0.6753
  138MOL0     C18125  13.623   5.485   3.416  0.0026  0.5371 -0.0843
  138MOL0     C18126  13.598   5.634   3.460  0.5061 -0.3967 -0.9002
  138MOL0     C18127  13.438   5.646   3.455  1.2884  0.2439  0.5431
  138MOL0    Cl18128  13.377   5.627   3.280 -0.0545 -0.2708 -0.4755
  138MOL0     C18129  13.770   4.735   3.230  0.3364  0.9443  0.9713
  138MOL0     C18130  13.704   4.615   3.271  0.3774 -1.0504  0.0565
  138MOL0     O18131  13.667   4.349   3.383  0.3621 -0.1201  0.3649
  138MOL0     C18132  13.328   4.238   3.342  0.4559 -0.0379 -0.6390
  138MOL0     C18133  13.257   4.124   3.364 -0.2040  0.3414  0.8176
  138MOL0     N18134  12.824   3.528   3.190 -0.1161 -0.3297  0.3084
  138MOL0     N18135  12.720   3.471   3.138  0.3940  0.2346 -0.4122
  138MOL0     C18136  11.488   3.411   3.134 -0.1873 -0.0098  0.2004
  138MOL0     C18137  11.381   3.439   3.055  0.4280  1.1497  0.1398
  138MOL0     C18138  11.200   3.555   2.658 -0.4179 -0.1153  0.8804
  138MOL0     C18139  11.136   3.684   2.663 -0.9671  0.7591 -0.4103
  138MOL0     C18140  11.070   3.739   2.551  0.7011  0.6470  0.2458
  138MOL0     C18141  11.068   3.664   2.435 -0.6675  0.3461 -0.2341
  138MOL0     O18142  11.011   3.694   2.315 -0.4829 -1.1497 -0.1230
  138MOL0     C18143  10.925   3.804   2.312 -0.2194 -0.3656  0.2512
  138MOL0     C18144  10.846   3.804   2.177  0.4269 -0.4093 -0.8047
  138MOL0     C18145  10.706   3.870   2.201 -0.3333  0.1781 -0.7448
  138MOL0     C18146  10.599   3.767   2.243 -0.3586  0.4406 -0.0229
  138MOL0     C18147  10.617   3.714   2.380 -0.1326  0.6612  0.4766
  138MOL0     C18148  10.623   3.670   2.489 -0.0639  0.4305 -0.2653
  138MOL0     C18149  11.147   3.546   2.420 -0.0352 -0.2251 -0.0831
  138MOL0     C18150  11.206   3.491   2.530  0.5548  0.1346  0.5397
  138MOL0     H18151  11.513   3.724   2.922 -1.2416  2.0783  3.0606
  138MOL0     H18152  11.684   3.681   3.091 -0.5428 -0.1945 -1.2570
  138MOL0     H18153  11.735   3.262   3.186 -1.3950  3.1786 -2.6743
  138MOL0     H18154  11.633   3.267   3.339  1.5223 -0.2271  1.4390
  138MOL0     H18155  11.847   3.212   3.432  1.8884 -0.0651 -0.0557
  138MOL0     H18156  11.821   3.381   3.446  0.4217  0.8424 -0.8958
  138MOL0     H18157  11.958   3.427   3.252 -1.9109  0.3325  0.2066
  138MOL0     H18158  11.991   3.258   3.226  0.6177  1.4575 -1.1238
  138MOL0     H18159  12.053   3.388   3.494  0.7448 -0.1660 -0.5196
  138MOL0     H18160  12.083   3.213   3.448 -0.9016 -0.0531  0.7105
  138MOL0     H18161  12.265   3.249   3.315 -0.5357 -0.7213  1.2955
  138MOL0     H18162  12.271   3.342   3.469 -3.1846  1.2652  1.9142
  138MOL0     H18163  12.193   3.529   3.344  2.0033 -1.5706  3.0032
  138MOL0     H18164  12.217   3.440   3.191 -0.4500 -0.3533 -0.1987
  138MOL0     H18165  12.416   3.579   3.220 -3.7132 -0.1600 -2.1960
  138MOL0     H18166  12.445   3.512   3.385  2.0290  2.0515 -1.0207
  138MOL0     H18167  12.479   3.366   3.119 -0.6053  2.9238  0.0579
  138MOL0     H18168  12.484   3.290   3.280  3.4657 -0.1688  0.9083
  138MOL0     H18169  12.691   3.430   3.466 -1.4777  4.5238  1.7673
  138MOL0     H18170  13.005   3.459   3.414  0.6496  0.4808 -1.3547
  138MOL0     H18171  12.900   3.587   3.500 -3.4328 -0.9160 -1.0991
  138MOL0     H18172  12.990   3.749   3.340 -0.7282 -1.2715 -3.1983
  138MOL0     H18173  13.092   3.631   3.265  0.9748 -1.3984 -0.1551
  138MOL0     H18174  13.109   3.693   3.572 -0.7571 -0.9607 -0.0747
  138MOL0     H18175  13.212   3.577   3.486  0.1234 -0.3116 -3.4292
  138MOL0     H18176  13.325   3.728   3.347 -1.8625  1.6166 -1.1778
  138MOL0     H18177  13.345   3.778   3.516 -1.0838  0.6009  2.2301
  138MOL0     H18178  13.513   3.895   3.376  1.1458  0.8165  0.8055
  138MOL0     H18179  13.643   4.107   3.352 -0.2316  1.5117  0.3262
  138MOL0     H18180  13.451   4.611   3.054 -0.3859 -0.5615  1.1556
  138MOL0     H18181  13.568   4.805   2.969  0.4631 -4.5007 -2.7155
  138MOL0     H18182  13.608   5.045   3.113  0.2332 -3.4665 -3.3095
  138MOL0     H18183  13.751   5.125   3.059 -1.3304 -0.7533 -2.0335
  138MOL0     H18184  13.859   5.047   3.308 -0.2001 -0.2309 -1.1306
  138MOL0     H18185  13.692   5.016   3.347  0.4968  1.3760  2.5457
  138MOL0     H18186  13.655   5.257   3.239  0.0800  1.7199 -0.8590
  138MOL0     H18187  13.832   5.270   3.255  0.9896 -0.9159  0.9791
  138MOL0     H18188  13.637   5.208   3.498 -0.3537  4.3965  2.5984
  138MOL0     H18189  13.809   5.210   3.497  0.2577  0.5957 -0.7980
  138MOL0     H18190  13.826   5.435   3.465  0.1912  0.2426  0.6728
  138MOL0     H18191  13.694   5.400   3.593 -2.2616 -0.2715  0.0702
  138MOL0     H18192  13.533   5.426   3.433  2.2934 -2.9758  1.1330
  138MOL0     H18193  13.634   5.473   3.308 -1.2382 -0.8779 -0.0847
  138MOL0     H18194  13.627   5.646   3.565  4.4640  2.2855 -2.0636
  138MOL0     H18195  13.657   5.696   3.392  1.5777 -0.0399  0.3352
  138MOL0     H18196  13.404   5.744   3.490 -1.1596 -0.7441  1.1236
  138MOL0     H18197  13.396   5.566   3.516 -0.0001  0.8430  0.4832
  138MOL0     H18198  13.861   4.771   3.277  0.4358  1.3320  0.4911
  138MOL0     H18199  13.743   4.571   3.362  1.7774  0.5980  0.3327
  138MOL0     H18200  13.268   4.328   3.343  2.4753  1.4028  1.6293
  138MOL0     H18201  13.151   4.111   3.343  0.8086 -4.2744 -3.3197
  138MOL0     H18202  11.478   3.314   3.182 -0.5242 -0.3638 -0.5589
  138MOL0     H18203  11.309   3.359   3.041 -0.0385  1.8839 -2.2373
  138MOL0     H18204  11.140   3.756   2.744  0.8145  2.3059 -1.7880
  138MOL0     H18205  11.025   3.836   2.572 -0.5428 -0.0224  0.8396
  138MOL0     H18206  10.983   3.895   2.324  2.6482 -2.0152 -0.2681
  138MOL0     H18207  10.868   3.791   2.404  1.6244  1.5882  1.7498
  138MOL0     H18208  10.903   3.860   2.103  0.9029 -0.1589 -0.2563
  138MOL0     H18209  10.836   3.700   2.144 -4.6142 -1.2546  2.3572
  138MOL0     H18210  10.678   3.916   2.106 -2.9823  1.4949  0.5502
  138MOL0     H18211  10.717   3.953   2.271  1.0799  0.7908 -1.6297
  138MOL0     H18212  10.502   3.806   2.213 -1.3675 -2.2104 -0.4921
  138MOL0     H18213  10.624   3.677   2.184  1.8084  0.8211  0.2361
  138MOL0     H18214  10.642   3.617   2.580  2.3606  1.7837  0.1140
  138MOL0     H18215  11.144   3.508   2.318  3.6689  1.0012 -0.7955
  138MOL0     H18216  11.263   3.400   2.516  1.2148  0.7592 -1.1219
  139MOL0     O18217   6.053   5.230   7.794  0.6491  0.4224 -0.1900
  139MOL0     C18218   5.968   5.185   7.865  0.2511 -0.4422  0.0695
  139MOL0     O18219   5.984   5.139   7.996  0.6349  0.9505  0.1425
  139MOL0     C18220   6.100   5.178   8.060 -0.1597  0.5077 -1.2807
  139MOL0     C18221   6.165   5.298   8.063  0.4443  0.6605  1.0683
  139MOL0     C18222   6.254   5.332   8.166  0.1808  0.0914  0.0526
  139MOL0     C18223   6.289   5.243   8.262 -0.1939  0.9746 -0.3079
  139MOL0     O18224   6.374   5.263   8.363 -0.2768  0.1920 -0.4759
  139MOL0     C18225   6.446   5.385   8.371 -0.5685 -0.1140  0.4862
  139MOL0     C18226   6.547   5.371   8.492  0.2123 -0.0568 -0.4805
  139MOL0     C18227   6.472   5.368   8.627 -0.4900 -0.2171  0.5335
  139MOL0     C18228   6.553   5.404   8.747 -0.2510 -0.5023  0.5114
  139MOL0     C18229   6.527   5.549   8.811  0.0639  0.5700 -0.4762
  139MOL0     C18230   6.586   5.542   8.951  0.0693  0.6559  0.1349
  139MOL0     C18231   6.560   5.675   9.033  0.2576  0.2147  0.3324
  139MOL0     C18232   6.660   5.698   9.155  0.6543  0.7453 -0.1243
  139MOL0     N18233   6.666   5.586   9.248  0.0264 -0.3873 -0.8095
  139MOL0     C18234   6.782   5.528   9.294 -0.9818  0.5025 -0.0843
  139MOL0     C18235   6.725   5.430   9.380 -0.7848 -0.2310  0.2408
  139MOL0     C18236   6.826   5.329   9.447 -0.2780  0.4899 -0.1630
  139MOL0     C18237   6.794   5.182   9.419  0.1367 -0.7867 -0.7223
  139MOL0     C18238   6.670   5.138   9.503 -0.5354 -0.4391 -0.2133
  139MOL0     C18239   6.677   4.981   9.522  0.4513 -1.2536  0.7358
  139MOL0     O18240   6.654   4.907   9.406  0.6633 -0.4891 -0.0110
  139MOL0     C18241   6.649   4.771   9.410 -0.1143  0.1265  0.0805
  139MOL0     C18242   6.726   4.699   9.506 -0.5188  0.5778 -0.3647
  139MOL0     C18243   6.713   4.559   9.512 -0.9402  0.7349  0.1241
  139MOL0     C18244   6.628   4.489   9.421 -1.2422 -1.0018 -0.3782
  139MOL0     C18245   6.607   4.344   9.431 -0.3903  0.1711  0.5575
  139MOL0     O18246   6.497   4.291   9.368  0.1887  0.5186 -0.5252
  139MOL0     C18247   6.495   4.160   9.371  0.0429  0.9311 -0.1012
  139MOL0     C18248   6.373   4.109   9.416 -0.0319 -0.2589  0.2789
  139MOL0     C18249   6.359   3.976   9.395 -0.6865  0.3025 -0.3481
  139MOL0     C18250   6.458   3.884   9.341  0.5205  0.0174 -0.5249
  139MOL0     O18251   6.422   3.753   9.305 -0.0559 -0.0824  0.3070
  139MOL0     C18252   6.288   3.713   9.270 -0.7107 -1.0549  1.1871
  139MOL0     C18253   6.277   3.608   9.161  0.0749 -0.2596  0.5509
  139MOL0     C18254   6.345   3.466   9.196  0.8258  0.9805  0.4416
  139MOL0     C18255   6.342   3.373   9.072  0.9616  0.0332  0.3437
  139MOL0     C18256   6.201   3.330   9.025 -0.6351 -0.0698 -0.7407
  139MOL0     C18257   6.221   3.213   8.933  0.8379 -0.1993  0.7431
  139MOL0     C18258   6.084   3.134   8.926 -0.0780  0.3243 -0.2434
  139MOL0     C18259   6.053   3.045   9.052 -0.3770 -0.6117 -0.0267
  139MOL0    Cl18260   6.181   2.919   9.054 -0.6403 -0.0466  0.1455
  139MOL0     C18261   6.581   3.931   9.311 -0.4327 -0.7974  0.3292
  139MOL0     C18262   6.605   4.073   9.324 -0.1039  0.3779  0.3987
  139MOL0     O18263   6.690   4.283   9.487 -0.6819 -0.3331  0.2340
  139MOL0     C18264   6.569   4.566   9.317 -0.3638  0.3314  0.2280
  139MOL0     C18265   6.578   4.703   9.317 -0.5135 -0.8320  0.1359
  139MOL0     N18266   6.589   5.430   9.383  0.6462  0.2158  0.2681
  139MOL0     N18267   6.559   5.534   9.308 -0.6232  0.0270  0.6773
  139MOL0     C18268   6.231   5.112   8.266  0.6758 -0.0157  1.3076
  139MOL0     C18269   6.134   5.088   8.169 -1.5151 -0.5122 -0.0672
  139MOL0     C18270   5.838   5.163   7.807  0.7109  0.3919  0.7303
  139MOL0     C18271   5.733   5.215   7.876 -0.4754 -0.3020 -0.0121
  139MOL0     C18272   5.597   5.199   7.836 -0.5921  0.2155 -0.4281
  139MOL0     C18273   5.570   5.129   7.714  0.4641  0.1092 -0.2259
  139MOL0     O18274   5.441   5.132   7.675  0.0185  0.2999  0.1470
  139MOL0     C18275   5.378   5.054   7.568  0.1899  0.4151  0.0494
  139MOL0     C18276   5.323   4.918   7.611  0.7800  1.2967  0.8337
  139MOL0     C18277   5.262   4.843   7.494 -0.6279 -0.3194  0.3324
  139MOL0     C18278   5.117   4.878   7.478  0.5421 -0.2289 -0.3003
  139MOL0     C18279   5.078   4.853   7.339 -0.6989  0.1822  0.9174
  139MOL0     C18280   5.026   4.829   7.232  0.4324  0.5525  0.5497
  139MOL0     C18281   5.678   5.075   7.642 -0.0881  0.5978 -0.4656
  139MOL0     C18282   5.812   5.098   7.684  0.2344  0.4312  0.1380
  139MOL0     H18283   6.135   5.366   7.984 -4.0872 -0.6082  1.4015
  139MOL0     H18284   6.302   5.428   8.180  1.8003 -0.6384 -0.2808
  139MOL0     H18285   6.374   5.463   8.397  1.6140  2.0085  0.4659
  139MOL0     H18286   6.490   5.414   8.275  0.5812 -1.4270  0.5869
  139MOL0     H18287   6.619   5.453   8.500  2.3291 -1.9925  4.0962
  139MOL0     H18288   6.592   5.274   8.469 -2.0758 -0.8444 -1.9382
  139MOL0     H18289   6.420   5.272   8.634  1.4686 -1.3188  0.5805
  139MOL0     H18290   6.394   5.445   8.622  0.3641  0.6083 -0.4596
  139MOL0     H18291   6.530   5.337   8.831 -0.7302  0.3226  1.0497
  139MOL0     H18292   6.660   5.393   8.730 -0.2260  1.5025 -0.9059
  139MOL0     H18293   6.418   5.558   8.820  0.0694 -0.4571  0.7279
  139MOL0     H18294   6.565   5.623   8.739  0.4548  0.1733 -0.6826
  139MOL0     H18295   6.693   5.528   8.936 -0.1676 -2.5536  0.7404
  139MOL0     H18296   6.548   5.453   9.002  2.2498 -0.0549  0.6253
  139MOL0     H18297   6.581   5.761   8.968  0.2761 -1.4225 -1.9505
  139MOL0     H18298   6.460   5.689   9.073 -0.4727  1.7721 -1.8628
  139MOL0     H18299   6.639   5.786   9.216  1.7610 -0.0762  1.5110
  139MOL0     H18300   6.760   5.710   9.111  0.0254  0.9720 -1.5538
  139MOL0     H18301   6.884   5.522   9.259  0.0797 -2.0561  2.9713
  139MOL0     H18302   6.832   5.345   9.555  1.7260  1.3169 -0.3440
  139MOL0     H18303   6.928   5.346   9.410  0.3629 -0.2562  1.1612
  139MOL0     H18304   6.873   5.116   9.455 -2.4895 -5.3438 -2.5024
  139MOL0     H18305   6.773   5.180   9.312  0.8676 -0.9431 -0.8691
  139MOL0     H18306   6.671   5.202   9.592 -2.0048 -0.5949 -0.0709
  139MOL0     H18307   6.578   5.152   9.447 -0.4354 -0.7290 -0.4507
  139MOL0     H18308   6.600   4.945   9.590 -2.2898 -2.1926 -2.5568
  139MOL0     H18309   6.776   4.965   9.565  1.0814 -1.3565 -0.6900
  139MOL0     H18310   6.789   4.740   9.584 -1.6915  0.4821  0.6724
  139MOL0     H18311   6.771   4.504   9.585 -2.5348 -0.2306  0.7326
  139MOL0     H18312   6.311   4.185   9.463  1.5738  1.7732 -0.7005
  139MOL0     H18313   6.264   3.942   9.433 -0.8666  0.7115 -0.4275
  139MOL0     H18314   6.230   3.800   9.236 -2.1260 -1.4189  2.5376
  139MOL0     H18315   6.235   3.687   9.362  2.0025  0.5673  3.3571
  139MOL0     H18316   6.308   3.653   9.066 -2.6280  1.2787  0.2937
  139MOL0     H18317   6.169   3.598   9.150  0.1331 -1.2256  0.8163
  139MOL0     H18318   6.289   3.419   9.277  0.0669 -1.5942 -1.4548
  139MOL0     H18319   6.451   3.489   9.209  1.8001  0.5271 -4.7164
  139MOL0     H18320   6.390   3.418   8.985  0.2505 -0.7926 -0.4902
  139MOL0     H18321   6.406   3.289   9.101 -2.4174 -2.5812  0.8864
  139MOL0     H18322   6.143   3.408   8.975  1.2806  1.0884 -1.2886
  139MOL0     H18323   6.154   3.293   9.116 -2.2643  0.1678 -1.4621
  139MOL0     H18324   6.301   3.142   8.958  1.9030  0.3789 -0.8497
  139MOL0     H18325   6.230   3.247   8.830 -1.6474 -0.0862  0.5234
  139MOL0     H18326   5.996   3.199   8.918 -0.7170 -0.4558  0.2161
  139MOL0     H18327   6.088   3.068   8.839 -1.7135  2.6376 -2.1889
  139MOL0     H18328   5.954   3.003   9.037 -0.1676 -2.6444  3.3106
  139MOL0     H18329   6.059   3.101   9.146  0.9542 -0.5089 -0.1535
  139MOL0     H18330   6.664   3.865   9.289  1.8175  1.4268  1.5888
  139MOL0     H18331   6.709   4.102   9.329  0.1441 -0.5979  1.8843
  139MOL0     H18332   6.506   4.513   9.247  3.3817 -1.9542 -1.7352
  139MOL0     H18333   6.541   4.756   9.229  0.8682 -1.1192 -0.6565
  139MOL0     H18334   6.263   5.038   8.338  1.3759 -1.2276 -0.2016
  139MOL0     H18335   6.088   4.992   8.191  1.3401 -2.3785 -1.5819
  139MOL0     H18336   5.757   5.286   7.954  0.9698  0.7324 -1.3550
  139MOL0     H18337   5.528   5.248   7.905  2.3719  1.6109  1.7866
  139MOL0     H18338   5.442   5.028   7.484  1.1961  0.0995  0.8856
  139MOL0     H18339   5.305   5.124   7.529  2.1395  1.1833 -2.4482
  139MOL0     H18340   5.406   4.853   7.640  2.2559  1.5477 -2.4497
  139MOL0     H18341   5.247   4.937   7.687 -2.0604  1.0208 -1.7363
  139MOL0     H18342   5.260   4.734   7.502 -0.1705 -0.2733  1.1327
  139MOL0     H18343   5.312   4.872   7.401 -3.6818  0.9711 -1.0362
  139MOL0     H18344   5.050   4.818   7.540 -0.7334  2.9161  1.5934
  139MOL0     H18345   5.100   4.984   7.497 -3.6408 -0.9330  1.0920
  139MOL0     H18346   4.993   4.800   7.135  2.9785 -0.7386 -0.0405
  139MOL0     H18347   5.669   5.032   7.543  0.1472 -1.6342  0.4278
  139MOL0     H18348   5.892   5.062   7.620 -0.5308 -1.4305  0.1885
  140MOL0     O18349   3.399   1.688   8.199  0.0729 -0.0072  0.1681
  140MOL0     C18350   3.445   1.784   8.258 -0.1946  0.0370 -0.6654
  140MOL0     O18351   3.526   1.881   8.203 -0.3476  0.2139  0.0557
  140MOL0     C18352   3.551   1.884   8.070  0.5244  0.0692 -0.5147
  140MOL0     C18353   3.653   1.805   8.017  0.2160  0.6672  0.1716
  140MOL0     C18354   3.681   1.822   7.881  0.0588 -0.6869  0.1803
  140MOL0     C18355   3.604   1.904   7.792  0.3544  1.2362 -0.1983
  140MOL0     O18356   3.637   1.900   7.658  0.9132  0.0209 -0.0303
  140MOL0     C18357   3.562   1.977   7.559 -1.1899  0.3416  0.0577
  140MOL0     C18358   3.437   1.898   7.521  0.3589  0.3327 -0.2570
  140MOL0     C18359   3.346   1.997   7.445 -0.5652  0.0599 -0.1950
  140MOL0     C18360   3.218   1.949   7.380  0.6162 -0.3499 -0.3120
  140MOL0     C18361   3.130   2.064   7.325  0.0417 -0.4836  0.1940
  140MOL0     C18362   3.001   2.000   7.259 -0.6796 -1.1289 -0.0012
  140MOL0     C18363   3.029   1.923   7.121 -1.2127 -0.7950 -0.6410
  140MOL0     C18364   3.080   2.020   7.013 -0.5190 -0.1161 -0.2367
  140MOL0     N18365   3.044   1.991   6.878  0.4821  1.0557  0.7162
  140MOL0     C18366   3.074   1.871   6.818  0.5343  0.2590  0.3415
  140MOL0     C18367   2.984   1.853   6.710 -0.3590 -0.7683 -0.2617
  140MOL0     C18368   2.937   1.736   6.628  0.4671 -0.4195 -0.1807
  140MOL0     C18369   3.029   1.707   6.523  0.8030  0.3760  0.8751
  140MOL0     C18370   2.997   1.561   6.473  0.0909  0.0515  0.0514
  140MOL0     C18371   3.034   1.556   6.316 -0.3220  0.2330  0.2345
  140MOL0     O18372   3.172   1.589   6.300  0.2697  0.2007 -0.1540
  140MOL0     C18373   3.224   1.604   6.171  0.4292  0.0262 -0.1426
  140MOL0     C18374   3.148   1.596   6.047  1.0905  0.7354 -0.2292
  140MOL0     C18375   3.203   1.602   5.920 -0.5118 -0.2441 -0.1826
  140MOL0     C18376   3.347   1.602   5.919  0.0294  0.1114  0.2218
  140MOL0     C18377   3.426   1.557   5.798 -0.2975 -0.1232  0.8120
  140MOL0     O18378   3.353   1.542   5.688  0.7744  0.2755 -0.0748
  140MOL0     C18379   3.417   1.508   5.572 -0.4553  0.4170 -0.8772
  140MOL0     C18380   3.483   1.389   5.540 -0.6668  0.3665 -0.2427
  140MOL0     C18381   3.543   1.377   5.420  0.0784 -0.8906 -0.4619
  140MOL0     C18382   3.532   1.484   5.324  0.8357  0.4033 -0.3045
  140MOL0     O18383   3.602   1.468   5.207 -0.4533  0.0957 -0.0704
  140MOL0     C18384   3.707   1.561   5.182 -0.0616 -0.4850  0.3979
  140MOL0     C18385   3.748   1.518   5.043  1.1724 -0.3306  0.1127
  140MOL0     C18386   3.835   1.387   5.050 -0.3787 -0.4495  0.4302
  140MOL0     C18387   3.864   1.324   4.902  0.6105  0.3870  1.1377
  140MOL0     C18388   3.948   1.193   4.925  0.0157 -0.2892  0.0244
  140MOL0     C18389   3.870   1.071   4.963 -0.8659  0.9331  0.5798
  140MOL0     C18390   3.965   0.948   4.959  0.0331  0.2818 -0.7272
  140MOL0     C18391   3.905   0.814   5.021 -0.4460 -0.1427  0.9059
  140MOL0    Cl18392   3.924   0.679   4.911  0.5437 -0.2325 -0.1924
  140MOL0     C18393   3.456   1.597   5.346 -0.1169 -0.7238  0.6794
  140MOL0     C18394   3.393   1.600   5.469 -0.8974 -0.8248  0.1868
  140MOL0     O18395   3.549   1.550   5.810  0.4632  0.6594 -0.7948
  140MOL0     C18396   3.418   1.611   6.035  0.0953 -0.2173  0.6247
  140MOL0     C18397   3.360   1.624   6.160  0.1591 -0.0553 -0.3210
  140MOL0     N18398   2.920   1.977   6.698 -0.8969 -0.1379 -0.3861
  140MOL0     N18399   2.948   2.054   6.804 -0.3995 -0.2573  0.6981
  140MOL0     C18400   3.496   1.974   7.844 -0.7688 -0.5111 -0.1705
  140MOL0     C18401   3.474   1.962   7.986 -0.7273 -0.0415 -0.5220
  140MOL0     C18402   3.406   1.806   8.398 -0.6865 -0.5335  0.3485
  140MOL0     C18403   3.432   1.926   8.456  0.0852 -0.5709 -0.1450
  140MOL0     C18404   3.422   1.944   8.599  0.4054  0.1315  0.2957
  140MOL0     C18405   3.368   1.837   8.675 -0.6923  0.1721  0.6241
  140MOL0     O18406   3.338   1.845   8.803  0.1641  0.1492 -0.7962
  140MOL0     C18407   3.429   1.797   8.907 -0.3279  0.1540 -0.0409
  140MOL0     C18408   3.339   1.740   9.019 -0.5198 -1.0618 -0.1188
  140MOL0     C18409   3.269   1.857   9.090 -0.2802 -0.9731  0.4006
  140MOL0     C18410   3.358   1.959   9.164  0.4615 -0.6078  0.0774
  140MOL0     C18411   3.281   2.016   9.278  0.8471  0.0312 -0.1668
  140MOL0     C18412   3.232   2.072   9.375  0.3452  0.6919 -0.2461
  140MOL0     C18413   3.341   1.718   8.611  0.7484  0.3005 -0.1902
  140MOL0     C18414   3.365   1.695   8.475 -0.4609 -0.6827  0.2015
  140MOL0     H18415   3.701   1.738   8.088  0.7704  0.3450 -0.4975
  140MOL0     H18416   3.745   1.749   7.833  0.9807 -0.0709  0.4455
  140MOL0     H18417   3.613   1.986   7.462 -1.0169 -2.6140 -0.2127
  140MOL0     H18418   3.544   2.083   7.582  1.1308  0.6372  0.8820
  140MOL0     H18419   3.380   1.861   7.607 -2.9150  1.6118 -1.6752
  140MOL0     H18420   3.467   1.826   7.445 -1.4262  1.5286 -2.2294
  140MOL0     H18421   3.411   2.045   7.371  0.8419  1.3569  1.7633
  140MOL0     H18422   3.321   2.076   7.517 -2.0628 -0.2078 -0.3925
  140MOL0     H18423   3.260   1.882   7.304  0.5419  0.6909 -1.2862
  140MOL0     H18424   3.166   1.896   7.461  2.2294 -3.3758 -1.0987
  140MOL0     H18425   3.190   2.119   7.252  0.4621 -3.1222 -1.5846
  140MOL0     H18426   3.085   2.125   7.404 -1.3149 -0.2986 -0.6852
  140MOL0     H18427   2.945   2.088   7.227  2.2064 -0.5268 -4.2377
  140MOL0     H18428   2.945   1.947   7.337  0.0579 -0.4163  1.0432
  140MOL0     H18429   3.095   1.836   7.134 -0.1828  0.2581  1.9309
  140MOL0     H18430   2.929   1.890   7.092 -1.7074  1.5968 -1.8740
  140MOL0     H18431   3.189   2.028   7.021 -0.6209  1.0060  0.0589
  140MOL0     H18432   3.032   2.117   7.029 -0.1507  0.1237 -0.5677
  140MOL0     H18433   3.146   1.795   6.846 -0.2743 -0.3200  0.9406
  140MOL0     H18434   2.834   1.742   6.593  1.0358 -0.9191 -2.0243
  140MOL0     H18435   2.952   1.650   6.694 -0.1831  0.1521  0.7353
  140MOL0     H18436   3.137   1.725   6.534  1.2812 -1.6171 -0.0840
  140MOL0     H18437   2.992   1.763   6.436  0.5970 -1.1565 -0.0700
  140MOL0     H18438   3.050   1.489   6.537  0.1225  0.5281  0.5770
  140MOL0     H18439   2.890   1.543   6.485  0.2261 -1.2378 -0.5307
  140MOL0     H18440   2.972   1.630   6.264  0.9196  1.9259  1.0570
  140MOL0     H18441   3.008   1.460   6.270 -1.2721  0.9512 -0.7745
  140MOL0     H18442   3.041   1.579   6.055  1.2454  0.4465  1.8936
  140MOL0     H18443   3.139   1.587   5.834 -0.8290  1.2665 -0.2386
  140MOL0     H18444   3.487   1.306   5.610 -4.8833 -0.0461 -0.2185
  140MOL0     H18445   3.603   1.288   5.403  1.4312 -0.3644  1.2979
  140MOL0     H18446   3.784   1.553   5.259 -0.6901  0.6980  1.1938
  140MOL0     H18447   3.668   1.663   5.178 -3.0313 -1.5484 -0.8040
  140MOL0     H18448   3.825   1.589   5.011  1.3746 -0.8089 -0.5019
  140MOL0     H18449   3.666   1.522   4.971  0.3028  2.2718  1.1434
  140MOL0     H18450   3.796   1.300   5.104  1.8898 -0.6495  1.8933
  140MOL0     H18451   3.930   1.411   5.100 -0.2282 -1.5256  0.6779
  140MOL0     H18452   3.773   1.315   4.841  0.8330 -2.7610  1.1234
  140MOL0     H18453   3.925   1.398   4.849  3.2550 -0.4128  2.9094
  140MOL0     H18454   4.024   1.227   4.997  0.4525  3.5478 -1.9904
  140MOL0     H18455   4.016   1.165   4.843  0.5814 -0.5197  0.5598
  140MOL0     H18456   3.795   1.049   4.887  0.9509  0.2300 -1.1148
  140MOL0     H18457   3.822   1.075   5.060  0.6039 -3.0034  1.6693
  140MOL0     H18458   3.991   0.930   4.855  1.4849 -1.3089 -0.1522
  140MOL0     H18459   4.054   0.967   5.020 -1.1840 -1.4499  1.7674
  140MOL0     H18460   3.797   0.827   5.034 -0.8150 -2.6557  0.8875
  140MOL0     H18461   3.948   0.795   5.120  1.0133  0.3851  0.3957
  140MOL0     H18462   3.425   1.668   5.269  2.2174  2.8000  2.7150
  140MOL0     H18463   3.318   1.675   5.494 -0.8693 -0.1729 -1.5836
  140MOL0     H18464   3.526   1.615   6.031  0.0369  0.4792 -1.2427
  140MOL0     H18465   3.427   1.628   6.245 -1.0084 -0.0751  0.6341
  140MOL0     H18466   3.444   2.038   7.773  1.4350  4.4986  2.2044
  140MOL0     H18467   3.397   2.015   8.042 -1.3280 -1.2724 -0.1375
  140MOL0     H18468   3.470   2.013   8.404 -1.5676  1.3244  1.6480
  140MOL0     H18469   3.437   2.036   8.654  0.9202 -0.7784  1.7294
  140MOL0     H18470   3.479   1.878   8.961 -1.0530 -0.9009  2.3026
  140MOL0     H18471   3.503   1.729   8.863  0.0411  1.4200 -1.4923
  140MOL0     H18472   3.275   1.658   8.985  0.1777 -1.6676 -0.0079
  140MOL0     H18473   3.419   1.699   9.082  1.6562  2.7213 -0.1168
  140MOL0     H18474   3.217   1.808   9.172 -1.6089  0.4399  0.4469
  140MOL0     H18475   3.195   1.906   9.026  0.3836  0.6396  0.8299
  140MOL0     H18476   3.449   1.916   9.207 -0.7084 -1.0564  2.2239
  140MOL0     H18477   3.378   2.028   9.081 -0.5079 -1.2881 -0.7374
  140MOL0     H18478   3.187   2.124   9.457  2.3697  0.6015  0.9690
  140MOL0     H18479   3.269   1.654   8.660  1.1315  1.1345  1.5536
  140MOL0     H18480   3.329   1.604   8.428 -0.4839 -0.1594 -0.8367
  141MOL0     O18481   8.167   3.261   4.159  0.5992  1.0601 -0.3045
  141MOL0     C18482   8.237   3.231   4.252 -0.5932 -0.0844  0.0320
  141MOL0     O18483   8.264   3.104   4.285  0.1734 -0.4481 -0.0848
  141MOL0     C18484   8.186   3.000   4.254 -0.2470  0.7862 -0.5820
  141MOL0     C18485   8.222   2.878   4.305 -0.0737  1.0017  0.2570
  141MOL0     C18486   8.156   2.763   4.264 -0.1307 -0.2869 -0.1701
  141MOL0     C18487   8.028   2.779   4.209 -0.6873  0.2931  0.8065
  141MOL0     O18488   7.952   2.669   4.181 -0.7860 -0.1803 -0.4751
  141MOL0     C18489   7.809   2.686   4.213  0.1304  0.8189 -0.2422
  141MOL0     C18490   7.757   2.544   4.254 -0.3369  0.3472 -0.3062
  141MOL0     C18491   7.621   2.570   4.315 -0.4725  0.2329  0.6302
  141MOL0     C18492   7.516   2.643   4.229  0.1031 -0.7031  0.6172
  141MOL0     C18493   7.375   2.586   4.247  0.6427 -0.0602 -0.3290
  141MOL0     C18494   7.269   2.674   4.180  0.6206 -0.0197 -0.2075
  141MOL0     C18495   7.258   2.667   4.024 -0.6857 -0.6740 -0.5453
  141MOL0     C18496   7.217   2.531   3.969 -0.7214 -1.3363 -0.2189
  141MOL0     N18497   7.226   2.536   3.823 -0.1735 -0.1903  0.4859
  141MOL0     C18498   7.121   2.588   3.748 -0.7410  1.6075 -0.3073
  141MOL0     C18499   7.166   2.587   3.621  0.1703  0.1672  0.1366
  141MOL0     C18500   7.085   2.634   3.512 -0.0157  1.3288 -0.6152
  141MOL0     C18501   7.068   2.547   3.388  0.0467 -0.3230 -0.3692
  141MOL0     C18502   6.979   2.425   3.427  0.3099 -0.7030 -0.7389
  141MOL0     C18503   6.969   2.323   3.305  1.0102  0.2768 -0.1635
  141MOL0     O18504   6.867   2.224   3.340 -0.8370  0.4894  0.2265
  141MOL0     C18505   6.902   2.140   3.441  0.6877  0.5453  0.4019
  141MOL0     C18506   6.825   2.138   3.558  0.4080  1.3364  0.7050
  141MOL0     C18507   6.836   2.040   3.658  1.0938 -0.4996  0.8084
  141MOL0     C18508   6.935   1.937   3.637  0.1488  0.0374 -0.1061
  141MOL0     C18509   6.972   1.845   3.743 -0.1720  0.2702 -0.0407
  141MOL0     O18510   7.105   1.806   3.744  0.4957 -0.0457  0.1317
  141MOL0     C18511   7.160   1.707   3.831 -0.1319 -0.8077  0.4726
  141MOL0     C18512   7.286   1.661   3.800  0.3760  0.5898  0.2111
  141MOL0     C18513   7.362   1.591   3.893 -0.4083 -0.9861 -0.8263
  141MOL0     C18514   7.303   1.564   4.017  0.4650  0.5002 -0.1485
  141MOL0     O18515   7.374   1.515   4.127  0.8911 -0.7037 -0.4719
  141MOL0     C18516   7.476   1.419   4.110 -0.1933 -0.0476  0.9828
  141MOL0     C18517   7.545   1.387   4.243  0.0503  0.0472 -0.4757
  141MOL0     C18518   7.640   1.495   4.297 -0.2906  0.5073  0.9128
  141MOL0     C18519   7.689   1.457   4.443  0.0980 -0.9946  0.4952
  141MOL0     C18520   7.799   1.350   4.448 -0.1833  0.0342  0.0230
  141MOL0     C18521   7.805   1.290   4.588  0.6010 -0.3466 -0.1186
  141MOL0     C18522   7.892   1.162   4.586 -0.3294 -0.1377 -0.9622
  141MOL0     C18523   7.932   1.102   4.723  0.6025  0.0678  0.0407
  141MOL0    Cl18524   7.803   1.116   4.848  0.5782  0.2395  0.0111
  141MOL0     C18525   7.171   1.589   4.044 -0.1968  0.0467 -0.0017
  141MOL0     C18526   7.098   1.663   3.951 -0.1330  0.0185  0.6588
  141MOL0     O18527   6.879   1.813   3.815  0.1456  0.4751 -0.1300
  141MOL0     C18528   7.007   1.936   3.517 -0.2017  0.1249  0.3842
  141MOL0     C18529   6.976   2.027   3.415  0.0261  0.1427  0.6845
  141MOL0     N18530   7.289   2.532   3.622 -0.0772  0.0906  0.4339
  141MOL0     N18531   7.318   2.488   3.738  0.4112 -0.1752 -0.7122
  141MOL0     C18532   7.980   2.902   4.174  0.4117  0.3785 -0.2762
  141MOL0     C18533   8.056   3.013   4.190  0.3050 -0.4684 -0.5255
  141MOL0     C18534   8.283   3.337   4.344 -0.6700 -0.3310  0.2329
  141MOL0     C18535   8.266   3.474   4.312  0.3438 -0.7018  0.1737
  141MOL0     C18536   8.309   3.575   4.402  0.4019 -0.4322 -0.5660
  141MOL0     C18537   8.353   3.540   4.532  0.4337 -0.0818  0.1498
  141MOL0     O18538   8.390   3.632   4.627  0.0744  0.2315 -0.6254
  141MOL0     C18539   8.368   3.611   4.771  0.3969  0.1407 -1.1409
  141MOL0     C18540   8.330   3.748   4.848  0.3266 -0.7864  0.2169
  141MOL0     C18541   8.179   3.774   4.830  0.8926 -0.5722 -0.3947
  141MOL0     C18542   8.085   3.707   4.936  0.1902 -0.9360 -0.1483
  141MOL0     C18543   8.061   3.562   4.912 -0.3800 -0.1625 -0.4673
  141MOL0     C18544   8.053   3.445   4.883 -0.9285  0.4269 -0.2745
  141MOL0     C18545   8.375   3.404   4.565 -0.2487 -0.7352 -1.2318
  141MOL0     C18546   8.337   3.302   4.473 -0.6932 -0.0541  0.8073
  141MOL0     H18547   8.309   2.871   4.369 -1.2872  2.2982  2.1383
  141MOL0     H18548   8.203   2.667   4.284 -0.3146 -0.5408 -0.9419
  141MOL0     H18549   7.766   2.708   4.115 -0.1594  1.3836  0.0062
  141MOL0     H18550   7.779   2.766   4.281 -0.2433 -0.1359  0.7571
  141MOL0     H18551   7.817   2.494   4.330 -0.6207 -2.7917 -1.9731
  141MOL0     H18552   7.739   2.475   4.171 -1.0244  1.5291 -1.1853
  141MOL0     H18553   7.633   2.606   4.418 -0.6171  1.9147  0.0834
  141MOL0     H18554   7.579   2.470   4.328  0.6673 -0.3369 -0.0097
  141MOL0     H18555   7.520   2.745   4.270  1.6377  0.1780 -1.5298
  141MOL0     H18556   7.542   2.655   4.124 -0.5275 -1.1266  0.4104
  141MOL0     H18557   7.344   2.572   4.351 -0.9297  0.5264 -0.6805
  141MOL0     H18558   7.362   2.492   4.193 -3.5700  0.2562 -0.2293
  141MOL0     H18559   7.293   2.778   4.203  0.0216 -0.1874  1.3320
  141MOL0     H18560   7.175   2.646   4.229 -0.0165  0.0949 -1.3334
  141MOL0     H18561   7.191   2.748   3.994 -0.2886 -0.5241 -1.0544
  141MOL0     H18562   7.358   2.694   3.988 -0.3554  1.7344  1.8166
  141MOL0     H18563   7.118   2.506   4.009 -1.4028 -0.4900 -1.3372
  141MOL0     H18564   7.288   2.451   3.990 -0.8715 -1.7545 -1.2257
  141MOL0     H18565   7.029   2.634   3.783 -2.2748 -1.9405  0.7097
  141MOL0     H18566   7.110   2.738   3.487  0.2282  1.0656 -1.5238
  141MOL0     H18567   6.982   2.645   3.547 -0.1351 -1.6866  0.3088
  141MOL0     H18568   7.167   2.524   3.348  1.2163  1.5336  1.2666
  141MOL0     H18569   7.022   2.605   3.307  0.3253 -0.9634 -0.9951
  141MOL0     H18570   7.020   2.368   3.511  0.0596  0.8987  0.4990
  141MOL0     H18571   6.880   2.456   3.459 -0.5660 -2.6090 -1.4071
  141MOL0     H18572   7.069   2.283   3.282  0.5997 -0.6661 -0.3818
  141MOL0     H18573   6.933   2.372   3.214 -0.1387  1.0532  0.6806
  141MOL0     H18574   6.759   2.214   3.597  0.5534  1.6412  0.3545
  141MOL0     H18575   6.780   2.055   3.749 -0.9875 -0.1934 -0.4626
  141MOL0     H18576   7.324   1.691   3.703  0.6777 -2.7054 -0.8295
  141MOL0     H18577   7.463   1.552   3.885 -0.6044 -2.2436  1.8948
  141MOL0     H18578   7.554   1.454   4.042 -0.8669  0.0760  0.2473
  141MOL0     H18579   7.443   1.323   4.068  0.4312  0.5493 -1.0138
  141MOL0     H18580   7.604   1.297   4.229  0.0356  0.3422 -2.9104
  141MOL0     H18581   7.466   1.377   4.318  0.0912  4.5402  0.4545
  141MOL0     H18582   7.579   1.586   4.294 -3.1786 -1.2372 -3.1439
  141MOL0     H18583   7.724   1.508   4.229 -0.7132 -0.9429  0.0545
  141MOL0     H18584   7.724   1.548   4.492 -0.5570 -0.0408 -0.7273
  141MOL0     H18585   7.598   1.444   4.501 -0.2112  1.6394  0.7346
  141MOL0     H18586   7.898   1.392   4.425  0.2686  1.0914  3.2826
  141MOL0     H18587   7.771   1.266   4.385  2.3309 -0.2639 -0.7878
  141MOL0     H18588   7.700   1.264   4.606  0.8389  0.4961  3.0631
  141MOL0     H18589   7.830   1.368   4.660 -1.7444 -0.1779  0.6129
  141MOL0     H18590   7.833   1.079   4.545  0.8738 -1.1401 -0.6978
  141MOL0     H18591   7.984   1.174   4.527 -0.2518 -0.3989 -0.8929
  141MOL0     H18592   8.015   1.154   4.772  2.0013 -0.9031 -1.2185
  141MOL0     H18593   7.959   0.997   4.712  0.2677  0.2219 -3.4421
  141MOL0     H18594   7.132   1.561   4.142 -1.5915  2.3698  0.1898
  141MOL0     H18595   7.003   1.697   3.990  0.3247  2.7368 -0.3316
  141MOL0     H18596   7.091   1.870   3.498 -0.3455  0.2465 -0.7551
  141MOL0     H18597   7.026   2.021   3.319 -0.2726 -0.6910  0.5807
  141MOL0     H18598   7.885   2.917   4.123  1.1439  5.7015 -0.6089
  141MOL0     H18599   7.997   3.100   4.162 -0.1726  0.2603  2.3955
  141MOL0     H18600   8.223   3.509   4.219  0.0164 -1.2999  0.0952
  141MOL0     H18601   8.296   3.676   4.367 -2.1847 -0.6145 -0.3063
  141MOL0     H18602   8.452   3.565   4.824  0.3066  1.2432  0.0070
  141MOL0     H18603   8.285   3.541   4.785  1.5558 -0.6526  2.9792
  141MOL0     H18604   8.360   3.731   4.952  2.4409  0.2903 -0.1658
  141MOL0     H18605   8.387   3.835   4.815  1.0097 -1.2358  0.1863
  141MOL0     H18606   8.153   3.744   4.728  0.2575 -0.4577 -0.2720
  141MOL0     H18607   8.173   3.883   4.824  0.6921 -0.6597 -2.7636
  141MOL0     H18608   8.141   3.716   5.029  1.1274 -1.7077 -0.6198
  141MOL0     H18609   7.996   3.770   4.945 -0.4724 -1.8751  0.0286
  141MOL0     H18610   8.058   3.340   4.863  0.1937  0.6678 -1.4417
  141MOL0     H18611   8.412   3.376   4.663 -0.5005 -0.2955 -1.0123
  141MOL0     H18612   8.358   3.199   4.501  0.2820 -1.2431 -3.4375
  142MOL0     O18613  10.805   8.431   8.503  0.8535  0.8392  0.1772
  142MOL0     C18614  10.722   8.499   8.563 -0.3344  0.2400  0.3662
  142MOL0     O18615  10.634   8.455   8.653 -0.2226 -0.3923 -0.2596
  142MOL0     C18616  10.648   8.327   8.695  0.0103  0.1095  0.1315
  142MOL0     C18617  10.566   8.234   8.636  0.9327  0.0044  0.4217
  142MOL0     C18618  10.562   8.109   8.694  0.7077 -1.0202  0.4714
  142MOL0     C18619  10.638   8.081   8.806 -0.8100 -0.2702  0.7503
  142MOL0     O18620  10.627   7.958   8.858  0.0754  0.4412 -0.1342
  142MOL0     C18621  10.738   7.904   8.929  0.4852  0.2726 -0.7452
  142MOL0     C18622  10.747   7.746   8.905 -0.5793  0.6148  0.4072
  142MOL0     C18623  10.780   7.710   8.756  0.1061 -0.2880 -0.8778
  142MOL0     C18624  10.727   7.573   8.708  1.3716 -0.5717 -0.6797
  142MOL0     C18625  10.763   7.532   8.566 -0.0724 -0.1770  0.9802
  142MOL0     C18626  10.743   7.636   8.446 -0.1263 -0.6942 -1.1803
  142MOL0     C18627  10.802   7.597   8.307  0.8212  0.3673 -0.2217
  142MOL0     C18628  10.752   7.461   8.252 -0.0285 -0.3978 -0.0348
  142MOL0     N18629  10.614   7.436   8.279  0.2896 -0.2738  0.4306
  142MOL0     C18630  10.571   7.334   8.358 -0.4375  0.6934  0.3351
  142MOL0     C18631  10.437   7.333   8.348 -0.1027 -0.2029 -0.7334
  142MOL0     C18632  10.341   7.249   8.435  0.3632  0.2585 -0.0448
  142MOL0     C18633  10.259   7.335   8.529 -0.2624  0.0129 -0.0164
  142MOL0     C18634  10.171   7.263   8.642  0.1487  0.6439  0.1801
  142MOL0     C18635  10.253   7.218   8.772  0.4824 -0.3035 -0.5298
  142MOL0     O18636  10.162   7.184   8.873 -0.0599 -0.1836  0.8557
  142MOL0     C18637  10.091   7.067   8.867  0.4109  0.4350 -0.6225
  142MOL0     C18638  10.123   6.974   8.767 -0.8466  0.6644  0.0149
  142MOL0     C18639  10.045   6.859   8.755  0.0939 -0.2508  0.7397
  142MOL0     C18640   9.940   6.831   8.837 -0.7502  0.2813 -1.1269
  142MOL0     C18641   9.875   6.706   8.816  0.1751 -0.2455  0.2359
  142MOL0     O18642   9.789   6.664   8.907  0.6749 -0.5889 -0.1414
  142MOL0     C18643   9.728   6.543   8.891 -0.0400 -0.3976 -0.9942
  142MOL0     C18644   9.590   6.530   8.899 -0.8147  0.8420 -0.5602
  142MOL0     C18645   9.524   6.400   8.889 -0.3515  0.7588 -0.6013
  142MOL0     C18646   9.599   6.289   8.865 -0.2990  0.2257  0.2424
  142MOL0     O18647   9.540   6.169   8.848  0.2566 -0.2355  0.0402
  142MOL0     C18648   9.560   6.094   8.970 -0.7888 -0.2761 -0.1592
  142MOL0     C18649   9.528   5.947   8.957  0.2352  0.2061 -0.4417
  142MOL0     C18650   9.398   5.920   8.888  0.7402  0.0669  0.5204
  142MOL0     C18651   9.384   5.777   8.855 -0.5263  0.0573  0.6281
  142MOL0     C18652   9.247   5.716   8.859 -0.2185  0.2495 -0.4250
  142MOL0     C18653   9.256   5.570   8.885 -0.4807  0.1032 -0.1271
  142MOL0     C18654   9.325   5.509   8.761  0.4970  0.6785 -0.0270
  142MOL0     C18655   9.341   5.357   8.782 -0.1065  0.1046  0.2612
  142MOL0    Cl18656   9.432   5.326   8.935  0.4849 -0.3187 -0.4268
  142MOL0     C18657   9.738   6.299   8.845  0.6043 -0.0843  0.1134
  142MOL0     C18658   9.802   6.423   8.875 -0.1239  0.3993 -0.0358
  142MOL0     O18659   9.891   6.647   8.706 -0.2934  0.2157 -0.2352
  142MOL0     C18660   9.910   6.917   8.948 -0.8716  0.9525  0.2440
  142MOL0     C18661   9.992   7.030   8.962  0.5296 -0.2015 -0.2034
  142MOL0     N18662  10.397   7.427   8.252  0.7579  0.2022 -0.1292
  142MOL0     N18663  10.501   7.495   8.224 -0.6865  0.5328  0.8851
  142MOL0     C18664  10.711   8.181   8.868  0.2863  0.3339  0.4888
  142MOL0     C18665  10.728   8.299   8.803  0.2982  0.2395  0.1371
  142MOL0     C18666  10.707   8.643   8.530 -0.7678  1.0063 -0.3509
  142MOL0     C18667  10.619   8.723   8.606  0.8496  0.8316  0.7311
  142MOL0     C18668  10.619   8.855   8.578  0.4317  0.1347 -0.0357
  142MOL0     C18669  10.700   8.917   8.483  0.2449  0.5260 -0.4243
  142MOL0     O18670  10.698   9.049   8.455 -0.0212  0.1498  0.5233
  142MOL0     C18671  10.649   9.139   8.553 -0.4149 -0.5710 -0.5270
  142MOL0     C18672  10.746   9.172   8.676 -0.9939 -0.5588 -0.4362
  142MOL0     C18673  10.883   9.231   8.622  0.7781  0.1676  0.1977
  142MOL0     C18674  11.003   9.207   8.712  0.2348  0.2443  0.0797
  142MOL0     C18675  11.024   9.297   8.832  0.0710 -0.2795 -0.8054
  142MOL0     C18676  11.036   9.370   8.931  0.2677 -0.3776  0.0665
  142MOL0     C18677  10.797   8.844   8.415  0.1270  0.7365  0.6102
  142MOL0     C18678  10.792   8.701   8.437 -0.1783 -0.1029  1.2078
  142MOL0     H18679  10.499   8.265   8.556 -2.1455  0.0239  2.7798
  142MOL0     H18680  10.495   8.038   8.647  1.2905  1.4330 -4.7366
  142MOL0     H18681  10.735   7.944   9.031  1.0913  0.1070 -0.6594
  142MOL0     H18682  10.825   7.942   8.875  0.9145  2.2152  1.1505
  142MOL0     H18683  10.660   7.696   8.948 -1.2203  0.2207 -1.2746
  142MOL0     H18684  10.835   7.705   8.955 -1.5847  0.2411  1.9454
  142MOL0     H18685  10.888   7.708   8.738 -0.0453  1.2289 -2.1713
  142MOL0     H18686  10.733   7.784   8.690  0.9902 -2.7441 -4.6240
  142MOL0     H18687  10.758   7.496   8.780  3.5764 -1.8755 -2.8345
  142MOL0     H18688  10.619   7.586   8.704  1.6560  2.4682 -0.5208
  142MOL0     H18689  10.702   7.445   8.545  4.6060 -3.7858  0.7657
  142MOL0     H18690  10.869   7.505   8.560  0.1220  0.6167  0.6051
  142MOL0     H18691  10.790   7.730   8.475  0.3116 -1.3393  0.3067
  142MOL0     H18692  10.634   7.645   8.443 -0.1652  0.1140  1.0458
  142MOL0     H18693  10.770   7.670   8.232  1.8899  2.4666  1.2718
  142MOL0     H18694  10.910   7.584   8.303  0.5982 -2.1848  0.3882
  142MOL0     H18695  10.811   7.389   8.309  0.2989  0.5845  0.9145
  142MOL0     H18696  10.768   7.453   8.144  3.1281  0.1131  0.3121
  142MOL0     H18697  10.634   7.277   8.426  1.5882  1.0024 -1.1909
  142MOL0     H18698  10.400   7.185   8.501 -0.9216 -0.8828  0.0429
  142MOL0     H18699  10.283   7.186   8.368 -0.6035 -0.2724  1.2510
  142MOL0     H18700  10.193   7.403   8.475 -2.1284 -0.4790  1.5376
  142MOL0     H18701  10.325   7.408   8.577  1.9572 -2.3092  0.6824
  142MOL0     H18702  10.098   7.342   8.664  0.5002  1.8764 -2.6618
  142MOL0     H18703  10.127   7.174   8.596  1.5030 -1.4002  2.5662
  142MOL0     H18704  10.299   7.310   8.808 -0.7126 -0.2767  1.0404
  142MOL0     H18705  10.332   7.142   8.764  1.0777 -0.3156  3.3604
  142MOL0     H18706  10.207   6.989   8.701 -0.1793 -1.1764  0.3855
  142MOL0     H18707  10.070   6.799   8.668 -0.9201  3.0492 -2.0675
  142MOL0     H18708   9.530   6.618   8.919 -1.1800  0.5465 -0.3451
  142MOL0     H18709   9.419   6.377   8.905 -0.4712 -0.2871 -2.5992
  142MOL0     H18710   9.499   6.139   9.048 -0.6563 -1.4625  0.6456
  142MOL0     H18711   9.663   6.102   9.007 -0.9896  2.2631 -0.0048
  142MOL0     H18712   9.525   5.911   9.060 -0.9978  2.5800  0.4021
  142MOL0     H18713   9.612   5.898   8.905  1.3048  0.3060  1.1322
  142MOL0     H18714   9.375   5.979   8.799  0.0385  0.7128  1.1182
  142MOL0     H18715   9.312   5.946   8.950 -1.4191  2.3023 -2.9937
  142MOL0     H18716   9.425   5.761   8.755 -1.4515  1.2692  0.0288
  142MOL0     H18717   9.444   5.722   8.928 -3.6054 -0.4876  2.9793
  142MOL0     H18718   9.200   5.749   8.766  1.1388  4.3620  0.1465
  142MOL0     H18719   9.186   5.774   8.929 -2.3362 -1.2547 -0.9168
  142MOL0     H18720   9.154   5.532   8.884 -0.5819  0.0762 -3.6732
  142MOL0     H18721   9.299   5.551   8.984 -1.0730 -3.5513 -0.4331
  142MOL0     H18722   9.263   5.528   8.674  0.1367 -0.2010  0.0294
  142MOL0     H18723   9.417   5.553   8.723 -0.7933  1.3506 -2.5752
  142MOL0     H18724   9.411   5.320   8.707 -0.9538  1.5084 -1.2895
  142MOL0     H18725   9.252   5.293   8.788 -0.6804  0.9291  0.9357
  142MOL0     H18726   9.803   6.212   8.834  1.3453  0.7604 -3.2810
  142MOL0     H18727   9.906   6.452   8.865  0.1100 -0.9975 -2.4260
  142MOL0     H18728   9.840   6.889   9.025  1.3009 -3.2719  0.9874
  142MOL0     H18729   9.978   7.095   9.047 -1.3432  0.1881 -0.7761
  142MOL0     H18730  10.766   8.169   8.961 -0.0155 -1.7680  0.4411
  142MOL0     H18731  10.783   8.379   8.853 -0.4462  1.5409 -1.0601
  142MOL0     H18732  10.543   8.681   8.670 -0.3573 -1.2185 -1.8627
  142MOL0     H18733  10.549   8.905   8.644 -0.0130 -1.4579  0.7419
  142MOL0     H18734  10.549   9.120   8.593 -0.6902  1.0196 -0.3964
  142MOL0     H18735  10.643   9.236   8.503 -0.9754  0.6943  1.7978
  142MOL0     H18736  10.692   9.254   8.724 -1.3238 -1.5679  0.9823
  142MOL0     H18737  10.751   9.081   8.736 -1.2310 -0.6012 -0.4810
  142MOL0     H18738  10.882   9.340   8.613  4.6449  0.4087  0.7503
  142MOL0     H18739  10.913   9.183   8.529 -0.8166 -1.3026  0.3888
  142MOL0     H18740  11.004   9.109   8.760  4.7892 -0.2003 -0.5297
  142MOL0     H18741  11.084   9.202   8.639  1.0680 -0.1073  1.0047
  142MOL0     H18742  11.032   9.424   9.023 -4.0557 -0.9239  0.4394
  142MOL0     H18743  10.869   8.887   8.346 -3.1844  3.2072 -1.6172
  142MOL0     H18744  10.874   8.655   8.382  0.0821  2.1213 -0.3944
  143MOL0     O18745   7.355   6.159   8.471 -0.1576  0.4288  0.8590
  143MOL0     C18746   7.241   6.195   8.467 -1.2873  0.7023 -0.2568
  143MOL0     O18747   7.147   6.155   8.384 -0.5687  0.2409  0.5406
  143MOL0     C18748   7.180   6.083   8.273 -0.4291  0.4970 -0.0833
  143MOL0     C18749   7.082   5.987   8.245 -0.4685  0.0972 -0.8303
  143MOL0     C18750   7.087   5.907   8.132  0.7669  0.3942 -0.7815
  143MOL0     C18751   7.202   5.915   8.048  0.5285 -0.0643 -0.5780
  143MOL0     O18752   7.200   5.828   7.942 -0.4765 -0.1039 -0.1266
  143MOL0     C18753   7.328   5.801   7.874  0.2005 -0.1126  0.1935
  143MOL0     C18754   7.318   5.671   7.796 -0.4526 -0.2658 -0.1093
  143MOL0     C18755   7.200   5.659   7.699 -0.1794  0.9362  0.6778
  143MOL0     C18756   7.209   5.523   7.618 -0.7688 -0.0721 -0.2701
  143MOL0     C18757   7.156   5.505   7.483 -0.8658 -1.0614 -0.4885
  143MOL0     C18758   7.185   5.615   7.388 -0.7157 -0.9137  0.6376
  143MOL0     C18759   7.168   5.578   7.246 -0.3179  0.6785  0.1801
  143MOL0     C18760   7.218   5.695   7.157  0.4475 -0.3485  0.5165
  143MOL0     N18761   7.149   5.827   7.187  0.7497 -0.5453  0.4886
  143MOL0     C18762   7.203   5.946   7.224 -0.8153 -0.1481  0.8951
  143MOL0     C18763   7.095   6.023   7.260  0.3795 -0.7858  0.1948
  143MOL0     C18764   7.090   6.171   7.310 -0.8330  0.6416  0.5887
  143MOL0     C18765   7.066   6.181   7.455  0.4145  0.2375 -0.7345
  143MOL0     C18766   7.188   6.165   7.540 -0.0533  0.9058 -0.4314
  143MOL0     C18767   7.166   6.187   7.684  0.4510 -0.7258 -1.0060
  143MOL0     O18768   7.139   6.331   7.698  0.0363 -0.7873  0.0142
  143MOL0     C18769   7.099   6.373   7.823 -0.3034 -0.5805  0.4606
  143MOL0     C18770   7.115   6.314   7.946 -0.4989  0.2963 -0.5384
  143MOL0     C18771   7.083   6.377   8.065  0.0178  0.2116  0.2197
  143MOL0     C18772   7.033   6.506   8.071  0.4062  0.8628 -0.3971
  143MOL0     C18773   7.024   6.566   8.202  0.4534 -1.3651  0.3428
  143MOL0     O18774   7.014   6.702   8.196 -0.5423 -0.3758 -0.7042
  143MOL0     C18775   7.020   6.779   8.308 -0.7927 -0.4667 -0.8178
  143MOL0     C18776   7.077   6.733   8.432 -0.3286 -0.3987 -0.3658
  143MOL0     C18777   7.069   6.814   8.553  0.7791  0.4818 -0.1590
  143MOL0     C18778   6.992   6.925   8.550 -0.2203  0.4077 -0.0040
  143MOL0     O18779   6.980   7.004   8.660  0.0398 -0.2659 -0.0142
  143MOL0     C18780   7.096   7.063   8.711 -0.1367  0.1044  0.1234
  143MOL0     C18781   7.070   7.159   8.829 -0.0173 -0.0110  0.6933
  143MOL0     C18782   6.945   7.257   8.812 -0.0327  0.1130 -0.4004
  143MOL0     C18783   6.954   7.391   8.885  0.1625 -0.1808  0.5146
  143MOL0     C18784   6.864   7.504   8.833  0.7823 -0.2992 -0.1255
  143MOL0     C18785   6.710   7.461   8.819 -0.1712 -0.5808 -0.1850
  143MOL0     C18786   6.639   7.431   8.962 -0.2618 -0.3008  0.8720
  143MOL0     C18787   6.490   7.410   8.949 -0.5937 -0.5449  0.3436
  143MOL0    Cl18788   6.399   7.448   9.101  0.1152  0.4138 -0.4041
  143MOL0     C18789   6.938   6.974   8.428 -0.2973  0.6007  0.8509
  143MOL0     C18790   6.949   6.896   8.310 -0.3921 -0.6298  0.0010
  143MOL0     O18791   7.016   6.496   8.308  0.1289  0.7176 -0.4206
  143MOL0     C18792   7.011   6.563   7.952  0.2323 -0.0259  0.1697
  143MOL0     C18793   7.045   6.503   7.826  0.3714 -0.2158 -0.3139
  143MOL0     N18794   6.980   5.950   7.242  0.0004 -0.0372 -0.7018
  143MOL0     N18795   7.012   5.829   7.203 -0.0568 -0.3571 -0.6109
  143MOL0     C18796   7.301   6.001   8.080  0.1709  0.0379 -0.9351
  143MOL0     C18797   7.283   6.090   8.188 -1.4011  0.1206 -0.4360
  143MOL0     C18798   7.202   6.290   8.578 -0.5683 -0.1387 -0.1321
  143MOL0     C18799   7.296   6.360   8.654 -0.0264  0.1956 -0.3286
  143MOL0     C18800   7.260   6.454   8.751 -0.1044 -0.2429 -0.1069
  143MOL0     C18801   7.125   6.504   8.751  0.4664 -0.2174 -0.8343
  143MOL0     O18802   7.101   6.591   8.859 -0.5122  0.5564 -0.8110
  143MOL0     C18803   6.970   6.620   8.890  0.7279  0.8242 -0.5123
  143MOL0     C18804   6.963   6.727   8.997 -0.6804  0.2387 -0.8828
  143MOL0     C18805   6.959   6.680   9.145 -0.4431  1.0461  0.5852
  143MOL0     C18806   6.992   6.800   9.242 -0.2980 -0.3823 -0.1972
  143MOL0     C18807   6.911   6.923   9.208 -0.0906  0.1256 -0.5373
  143MOL0     C18808   6.863   7.030   9.187 -0.3296  0.8051  0.0971
  143MOL0     C18809   7.030   6.447   8.666  0.0627  1.4797  0.2248
  143MOL0     C18810   7.065   6.339   8.585 -0.4632  0.3283 -0.0657
  143MOL0     H18811   6.998   5.981   8.314 -0.1971  1.4236 -0.3538
  143MOL0     H18812   7.020   5.826   8.106  1.4633  0.2471 -2.2171
  143MOL0     H18813   7.409   5.790   7.947  0.9853 -0.4323 -0.7119
  143MOL0     H18814   7.348   5.883   7.804 -3.7100  0.5677 -0.3497
  143MOL0     H18815   7.314   5.595   7.875 -0.4045 -1.8721 -1.5713
  143MOL0     H18816   7.410   5.655   7.740 -1.4456 -2.4964 -1.2711
  143MOL0     H18817   7.215   5.739   7.626  2.9746 -2.1584 -2.4535
  143MOL0     H18818   7.100   5.669   7.742 -1.3424 -2.3151 -0.9560
  143MOL0     H18819   7.312   5.491   7.601 -0.6194  0.4966 -0.4400
  143MOL0     H18820   7.164   5.455   7.691 -0.8536 -1.4981 -1.5956
  143MOL0     H18821   7.048   5.488   7.493 -0.9479 -0.2222  0.1921
  143MOL0     H18822   7.199   5.420   7.431  2.0650  1.5307 -2.6517
  143MOL0     H18823   7.290   5.632   7.411 -0.6800 -1.4963  0.9216
  143MOL0     H18824   7.118   5.695   7.421 -2.5231 -0.3637 -3.7595
  143MOL0     H18825   7.219   5.488   7.211  1.5420  1.7313  0.0522
  143MOL0     H18826   7.061   5.567   7.226 -0.0997  2.2618 -2.3020
  143MOL0     H18827   7.192   5.675   7.053 -2.2779 -2.4899  1.4904
  143MOL0     H18828   7.327   5.706   7.158  0.4351  0.2616  3.5275
  143MOL0     H18829   7.306   5.973   7.205 -1.7833  2.4012 -1.2867
  143MOL0     H18830   7.020   6.227   7.248  0.6361  2.1710  0.2062
  143MOL0     H18831   7.187   6.210   7.277 -0.9717  0.1965 -0.3814
  143MOL0     H18832   7.012   6.092   7.491  1.8144  0.0578  1.0873
  143MOL0     H18833   7.018   6.277   7.478  0.9559  0.5064 -0.7226
  143MOL0     H18834   7.236   6.068   7.521  0.0225  0.2323  2.6975
  143MOL0     H18835   7.261   6.242   7.513  0.9387 -0.0955 -0.7172
  143MOL0     H18836   7.247   6.164   7.755 -0.2297  4.3703  1.9425
  143MOL0     H18837   7.077   6.131   7.712  0.5137 -0.2234  0.2539
  143MOL0     H18838   7.144   6.210   7.953 -2.3632 -0.3209 -1.5152
  143MOL0     H18839   7.095   6.325   8.159 -0.0045 -1.9220 -0.9068
  143MOL0     H18840   7.135   6.642   8.435  1.2239  0.5624  2.1285
  143MOL0     H18841   7.107   6.778   8.649 -0.9036  0.3226  0.4748
  143MOL0     H18842   7.142   7.123   8.632 -0.3692 -1.3363 -1.1594
  143MOL0     H18843   7.160   6.984   8.752  1.4859 -0.7252 -3.5448
  143MOL0     H18844   7.164   7.211   8.850 -0.4988 -0.8138  6.3940
  143MOL0     H18845   7.056   7.098   8.919 -0.0537  0.4233  0.9834
  143MOL0     H18846   6.859   7.196   8.840  0.0763 -0.5306 -1.4157
  143MOL0     H18847   6.938   7.283   8.706 -1.9872  1.6160  0.0354
  143MOL0     H18848   6.945   7.376   8.993  0.8024  0.9486  0.7464
  143MOL0     H18849   7.057   7.423   8.867  1.1332 -2.2093  2.0235
  143MOL0     H18850   6.899   7.543   8.737 -0.7584  0.8899 -0.2300
  143MOL0     H18851   6.867   7.587   8.903 -0.3395  0.1393 -0.5777
  143MOL0     H18852   6.720   7.377   8.749  1.5884 -0.8319  0.3330
  143MOL0     H18853   6.655   7.547   8.780 -0.0924  0.1543  1.2841
  143MOL0     H18854   6.684   7.347   9.017 -1.1556 -1.0404  0.5033
  143MOL0     H18855   6.648   7.522   9.021 -2.0227  2.0845 -2.2402
  143MOL0     H18856   6.470   7.304   8.935 -3.4893 -0.1118  0.5671
  143MOL0     H18857   6.443   7.463   8.866  3.0003 -1.1300 -2.3020
  143MOL0     H18858   6.873   7.061   8.426 -0.4775  0.4682 -0.6940
  143MOL0     H18859   6.885   6.927   8.229 -0.8771  1.0555  0.9720
  143MOL0     H18860   6.973   6.664   7.938  1.1740  0.1831 -1.0108
  143MOL0     H18861   7.032   6.554   7.731  0.8574 -1.0546 -0.8457
  143MOL0     H18862   7.380   5.998   8.006 -2.1215  0.6805 -3.5599
  143MOL0     H18863   7.355   6.168   8.211  0.7084 -2.1431  1.1231
  143MOL0     H18864   7.397   6.337   8.622  0.4041  0.6863  0.6375
  143MOL0     H18865   7.348   6.495   8.800  0.2204  1.0431 -1.6642
  143MOL0     H18866   6.912   6.536   8.930  1.5343  1.0745  1.3135
  143MOL0     H18867   6.920   6.655   8.800 -1.0316 -0.1972  0.0073
  143MOL0     H18868   7.037   6.803   8.972 -0.5991  2.9705  5.8217
  143MOL0     H18869   6.868   6.775   8.976 -0.7423  0.1063 -0.9111
  143MOL0     H18870   7.032   6.600   9.158 -1.9602 -0.8400 -1.5759
  143MOL0     H18871   6.861   6.641   9.173  1.6255 -3.7320  2.0774
  143MOL0     H18872   6.990   6.774   9.348 -1.7549  0.3936 -0.0026
  143MOL0     H18873   7.095   6.832   9.225 -0.6834  3.4532  3.1034
  143MOL0     H18874   6.809   7.121   9.177  0.9540  1.8667  2.0402
  143MOL0     H18875   6.925   6.472   8.655  0.1793  2.1965  0.6612
  143MOL0     H18876   6.979   6.307   8.527 -2.5389  3.1239  1.2372
  144MOL0     O18877   6.374   4.083   0.743 -0.0315  0.0767 -0.1190
  144MOL0     C18878   6.485   4.062   0.706  0.2202 -0.2218  0.9082
  144MOL0     O18879   6.518   3.988   0.603  0.2352 -0.4144  0.3850
  144MOL0     C18880   6.422   3.926   0.527  0.1189  0.8028 -1.0757
  144MOL0     C18881   6.458   3.908   0.387  0.3471 -0.0269  0.3156
  144MOL0     C18882   6.365   3.847   0.298 -0.5374 -0.0104 -0.1728
  144MOL0     C18883   6.249   3.790   0.342  0.7897  0.3893  1.1701
  144MOL0     O18884   6.181   3.727   0.236  0.5130 -0.1221 -0.2202
  144MOL0     C18885   6.057   3.657   0.260  0.0285 -0.0389 -0.0409
  144MOL0     C18886   5.992   3.641   0.117 -1.0407  0.7304  0.3172
  144MOL0     C18887   6.070   3.533   0.045  0.2122 -0.2438 -0.1664
  144MOL0     C18888   6.045   3.561  -0.109 -1.1255  0.0722 -0.0884
  144MOL0     C18889   6.159   3.500  -0.179  0.2833  0.0423  0.0258
  144MOL0     C18890   6.169   3.342  -0.158 -0.1300 -0.4484 -0.7638
  144MOL0     C18891   6.061   3.269  -0.243  0.4084 -0.3757 -0.5950
  144MOL0     C18892   6.094   3.251  -0.394  0.3516 -0.5375 -1.1439
  144MOL0     N18893   5.978   3.212  -0.470 -0.5522  0.4326  0.3163
  144MOL0     C18894   5.851   3.184  -0.426 -0.5569  1.0950 -0.1839
  144MOL0     C18895   5.793   3.121  -0.524 -0.8209  0.2811  0.5246
  144MOL0     C18896   5.648   3.083  -0.549 -0.3867  0.2107  0.5513
  144MOL0     C18897   5.566   3.211  -0.563 -0.3524 -0.9542 -1.1414
  144MOL0     C18898   5.616   3.312  -0.670 -0.8377 -0.5954 -0.4265
  144MOL0     C18899   5.562   3.452  -0.664  0.0847 -0.8976 -0.6968
  144MOL0     O18900   5.596   3.521  -0.545 -0.7449 -0.5199 -0.1271
  144MOL0     C18901   5.726   3.591  -0.535 -0.1322  0.5802  0.0099
  144MOL0     C18902   5.833   3.579  -0.626  0.7433  0.2979 -1.5494
  144MOL0     C18903   5.954   3.648  -0.609  0.5119 -0.0557  0.6587
  144MOL0     C18904   5.972   3.721  -0.487 -0.2891 -0.4767 -0.8171
  144MOL0     C18905   6.091   3.811  -0.464  0.0265  1.2063  1.0877
  144MOL0     O18906   6.148   3.792  -0.342 -0.0266 -0.6456  0.2123
  144MOL0     C18907   6.246   3.875  -0.302  0.3885 -0.6573  0.2040
  144MOL0     C18908   6.233   4.012  -0.319  1.3569 -0.2288  0.8161
  144MOL0     C18909   6.308   4.110  -0.249 -0.1280  0.8777  0.1437
  144MOL0     C18910   6.414   4.067  -0.168 -0.2007  1.0076  0.6029
  144MOL0     O18911   6.472   4.165  -0.090  0.1904  0.5802 -0.2526
  144MOL0     C18912   6.534   4.137   0.035 -0.6536  1.0137  0.5309
  144MOL0     C18913   6.546   4.264   0.116  0.8255  0.3036 -0.7119
  144MOL0     C18914   6.668   4.342   0.064  0.2984  0.8312  0.0621
  144MOL0     C18915   6.703   4.447   0.169 -0.4205  0.5575  1.1788
  144MOL0     C18916   6.830   4.531   0.122 -0.4892 -1.0591 -0.1536
  144MOL0     C18917   6.809   4.660   0.034 -0.9266  0.6471  0.1523
  144MOL0     C18918   6.789   4.636  -0.121  0.7194  0.0938 -1.0229
  144MOL0     C18919   6.807   4.765  -0.196  0.0920 -0.5064 -0.0169
  144MOL0    Cl18920   6.679   4.891  -0.149 -0.3113 -0.2407  0.3437
  144MOL0     C18921   6.434   3.928  -0.154 -0.2634 -0.3298 -0.1327
  144MOL0     C18922   6.347   3.838  -0.219  0.2502  0.5525  0.1665
  144MOL0     O18923   6.129   3.877  -0.562 -0.3011  0.0738 -0.5221
  144MOL0     C18924   5.870   3.728  -0.389 -0.7308  0.6626  0.9880
  144MOL0     C18925   5.749   3.661  -0.421 -0.0607  0.0958  0.1721
  144MOL0     N18926   5.891   3.098  -0.630 -0.3544  0.0480 -1.1255
  144MOL0     N18927   5.995   3.166  -0.593 -0.0601  0.1093 -0.2388
  144MOL0     C18928   6.223   3.796   0.483 -0.0821 -0.5261  0.0244
  144MOL0     C18929   6.307   3.870   0.570 -0.1472  0.2127  1.4204
  144MOL0     C18930   6.595   4.129   0.769 -0.4983  0.5295 -0.3047
  144MOL0     C18931   6.579   4.243   0.850  0.2345 -0.2949 -0.7758
  144MOL0     C18932   6.683   4.318   0.913 -0.1960  0.7319  0.7218
  144MOL0     C18933   6.811   4.284   0.870  0.8332 -0.3162 -0.5942
  144MOL0     O18934   6.925   4.340   0.910 -0.0977  0.3018  0.3649
  144MOL0     C18935   6.913   4.464   0.987 -0.4352 -0.2699  0.0000
  144MOL0     C18936   6.880   4.591   0.906  0.6828  1.1054  0.1208
  144MOL0     C18937   6.941   4.718   0.957  0.3265 -0.0728 -0.4467
  144MOL0     C18938   7.085   4.723   0.992 -0.0223 -0.6832 -0.4162
  144MOL0     C18939   7.165   4.676   0.877 -0.1391  0.0567 -0.0505
  144MOL0     C18940   7.234   4.652   0.777  0.5074  1.1691 -0.1401
  144MOL0     C18941   6.828   4.166   0.806  0.1905  0.9579  0.0767
  144MOL0     C18942   6.726   4.089   0.748 -0.2931  0.5039  0.8492
  144MOL0     H18943   6.559   3.936   0.362  0.2968  0.6721  0.8624
  144MOL0     H18944   6.384   3.831   0.192 -3.7722  0.2881 -0.9105
  144MOL0     H18945   5.992   3.728   0.312  0.8784  0.0712  0.8972
  144MOL0     H18946   6.067   3.562   0.313  0.7818 -1.5514 -2.6973
  144MOL0     H18947   6.005   3.736   0.066  1.5796 -0.1713 -0.9017
  144MOL0     H18948   5.887   3.615   0.128 -0.5879 -1.2199  0.4791
  144MOL0     H18949   6.028   3.434   0.065 -1.1293  0.9182  3.4992
  144MOL0     H18950   6.178   3.543   0.056  0.2356  0.6106 -1.0652
  144MOL0     H18951   5.949   3.522  -0.143 -2.3498  2.0105  0.9314
  144MOL0     H18952   6.037   3.668  -0.132 -0.8333  0.8089  2.7818
  144MOL0     H18953   6.252   3.545  -0.143 -0.4335  0.6387  1.1684
  144MOL0     H18954   6.149   3.519  -0.287  3.4040  1.2271 -0.1697
  144MOL0     H18955   6.162   3.312  -0.053 -1.3755 -1.6874 -1.1734
  144MOL0     H18956   6.270   3.311  -0.185 -0.1274 -0.0208 -1.2714
  144MOL0     H18957   6.041   3.170  -0.199 -2.9905  0.5087  0.0612
  144MOL0     H18958   5.971   3.330  -0.237  0.5579 -0.2508  3.4859
  144MOL0     H18959   6.169   3.172  -0.403 -1.8549 -2.9870  0.5231
  144MOL0     H18960   6.124   3.348  -0.436  0.4974 -0.1779 -0.2311
  144MOL0     H18961   5.804   3.222  -0.335 -1.7056  0.0949 -0.3324
  144MOL0     H18962   5.594   3.038  -0.465  0.4465  3.7391  3.2161
  144MOL0     H18963   5.644   3.020  -0.638 -1.6353 -2.1318  2.1569
  144MOL0     H18964   5.579   3.257  -0.465  0.0560 -1.3976 -0.9896
  144MOL0     H18965   5.460   3.193  -0.585 -0.2651 -0.6172 -1.8857
  144MOL0     H18966   5.725   3.322  -0.661 -0.2508 -4.8914 -0.8384
  144MOL0     H18967   5.610   3.276  -0.773  1.2682  2.6219 -1.8354
  144MOL0     H18968   5.452   3.451  -0.670 -0.1195  2.1972  0.6591
  144MOL0     H18969   5.596   3.523  -0.740  1.5117  0.3029  0.9874
  144MOL0     H18970   5.826   3.524  -0.719  0.6542 -2.5828  0.0339
  144MOL0     H18971   6.027   3.648  -0.689 -1.5069 -0.4182 -1.2757
  144MOL0     H18972   6.164   4.060  -0.387  2.3054 -0.9474 -0.7179
  144MOL0     H18973   6.283   4.215  -0.257 -0.4466  0.6656 -2.7593
  144MOL0     H18974   6.638   4.104   0.025 -1.4379 -1.5170 -0.0025
  144MOL0     H18975   6.481   4.057   0.086  3.4994 -2.2423  0.2899
  144MOL0     H18976   6.571   4.228   0.216 -2.2020  0.7632  0.3298
  144MOL0     H18977   6.454   4.323   0.119  0.4550 -0.2673 -0.6358
  144MOL0     H18978   6.634   4.380  -0.033  3.6872 -0.4068 -1.7890
  144MOL0     H18979   6.750   4.271   0.051  0.4195  1.1320 -0.9029
  144MOL0     H18980   6.624   4.522   0.181  0.4739  1.8598 -0.4823
  144MOL0     H18981   6.717   4.396   0.264 -0.2004  0.8760  1.3208
  144MOL0     H18982   6.898   4.470   0.061 -0.4596 -2.1164  0.8975
  144MOL0     H18983   6.891   4.554   0.210  1.0105 -0.8227 -1.2059
  144MOL0     H18984   6.903   4.712   0.056 -1.6174  1.7724  0.5397
  144MOL0     H18985   6.722   4.705   0.083 -1.6824 -1.2406  0.6487
  144MOL0     H18986   6.865   4.563  -0.152  1.0711 -0.7918  1.6045
  144MOL0     H18987   6.688   4.596  -0.137  1.3050 -0.8376 -2.5510
  144MOL0     H18988   6.794   4.749  -0.303 -1.5024 -1.5784  0.3098
  144MOL0     H18989   6.911   4.795  -0.178  0.5101 -2.1889  0.5931
  144MOL0     H18990   6.512   3.872  -0.104 -1.3316  0.0150  2.0346
  144MOL0     H18991   6.359   3.733  -0.194  1.9777  0.6479 -0.1253
  144MOL0     H18992   5.881   3.794  -0.303  2.1487 -1.3963  2.4001
  144MOL0     H18993   5.670   3.666  -0.347 -0.9847 -2.1434 -0.5689
  144MOL0     H18994   6.131   3.759   0.526 -2.8290  4.6438 -0.6271
  144MOL0     H18995   6.282   3.860   0.675 -1.4679 -3.3369  0.9090
  144MOL0     H18996   6.475   4.271   0.867  0.3372 -0.8438  0.9345
  144MOL0     H18997   6.660   4.414   0.960 -2.9394 -0.9024  3.0804
  144MOL0     H18998   7.011   4.488   1.031 -1.2479  3.5707  0.0760
  144MOL0     H18999   6.847   4.453   1.074  0.8887 -1.8271  0.8768
  144MOL0     H19000   6.913   4.577   0.802  2.1209 -0.1806  0.7157
  144MOL0     H19001   6.775   4.622   0.903  0.1302 -0.6883 -1.2160
  144MOL0     H19002   6.882   4.770   1.033 -2.3068  0.3680 -2.6218
  144MOL0     H19003   6.930   4.794   0.878 -0.1371 -1.5383 -1.8528
  144MOL0     H19004   7.112   4.828   1.006 -0.2999 -0.6764  0.0932
  144MOL0     H19005   7.106   4.667   1.084 -0.8619 -0.5370 -0.1282
  144MOL0     H19006   7.284   4.659   0.682 -1.4265  3.9679 -1.0668
  144MOL0     H19007   6.928   4.127   0.793  0.0755  0.8905 -0.6106
  144MOL0     H19008   6.753   4.000   0.691 -0.1444  1.6669 -0.9709
  145MOL0     O19009   1.606   1.763   2.717 -0.3509 -0.6580 -1.3334
  145MOL0     C19010   1.509   1.697   2.739  0.7977  0.4106  0.4190
  145MOL0     O19011   1.387   1.744   2.792 -0.1880 -0.0879  0.4648
  145MOL0     C19012   1.361   1.880   2.793 -0.7096  0.4244  0.6813
  145MOL0     C19013   1.351   1.957   2.678 -0.2812  0.2155 -0.0211
  145MOL0     C19014   1.325   2.091   2.677  0.6390 -0.8914  0.2554
  145MOL0     C19015   1.292   2.164   2.796 -0.7001  1.1503  0.4177
  145MOL0     O19016   1.261   2.300   2.790 -1.0108 -0.4514 -0.2332
  145MOL0     C19017   1.222   2.363   2.672  0.6134 -0.3145  0.3162
  145MOL0     C19018   1.184   2.501   2.722 -0.5321 -0.3464 -0.1550
  145MOL0     C19019   1.129   2.511   2.865  0.8176 -0.6865  1.0778
  145MOL0     C19020   1.017   2.417   2.886  0.5487  0.2108  0.2377
  145MOL0     C19021   0.915   2.468   3.000 -0.6154 -0.8043  0.0581
  145MOL0     C19022   0.785   2.394   2.983  0.5452  1.0669 -0.6882
  145MOL0     C19023   0.677   2.446   3.085  0.6111  0.3076  0.0182
  145MOL0     C19024   0.535   2.408   3.048 -1.1612 -0.9695  0.5574
  145MOL0     N19025   0.515   2.261   3.067  0.1626  0.7270  1.4622
  145MOL0     C19026   0.396   2.202   3.035  0.1847  0.0378  0.0804
  145MOL0     C19027   0.407   2.075   3.066 -0.4280  0.0835  1.1359
  145MOL0     C19028   0.300   1.978   3.059  1.2680  1.1691  0.2002
  145MOL0     C19029   0.304   1.915   2.924 -0.7425  0.1529  0.9322
  145MOL0     C19030   0.387   1.791   2.901 -0.1705 -0.8708 -1.1213
  145MOL0     C19031   0.360   1.705   2.774  0.1454  1.7387  0.3538
  145MOL0     O19032   0.221   1.709   2.747 -0.0034  0.0758 -0.9293
  145MOL0     C19033   0.166   1.644   2.636 -0.4501 -0.5086  0.1884
  145MOL0     C19034   0.240   1.556   2.561 -0.0915 -0.2568  1.1431
  145MOL0     C19035   0.186   1.510   2.439  0.7650  0.1756  0.9399
  145MOL0     C19036   0.061   1.562   2.389 -1.0556  0.4209  1.1983
  145MOL0     C19037   0.017   1.540   2.243 -0.0074  0.5914  0.7341
  145MOL0     O19038   0.085   1.445   2.175  0.5877  0.5781 -0.1237
  145MOL0     C19039   0.065   1.434   2.033  0.3146 -0.3108 -0.1654
  145MOL0     C19040   0.175   1.438   1.942  0.3026  0.4217  1.1229
  145MOL0     C19041   0.146   1.453   1.807  0.2582  0.7404  0.2981
  145MOL0     C19042   0.022   1.440   1.755 -0.6969  0.3856  1.3839
  145MOL0     O19043   0.010   1.441   1.615 -0.1859  0.5998  0.4137
  145MOL0     C19044  -0.120   1.425   1.560 -0.2630  0.0809  0.0977
  145MOL0     C19045  -0.103   1.394   1.415  0.4686  0.5012 -0.1950
  145MOL0     C19046  -0.234   1.361   1.344 -0.2679  0.8785  0.5907
  145MOL0     C19047  -0.213   1.275   1.215  0.5103  1.2142  0.6673
  145MOL0     C19048  -0.347   1.258   1.143  0.6463 -0.3275 -0.3347
  145MOL0     C19049  -0.343   1.195   1.011  0.3368  0.8602 -0.5136
  145MOL0     C19050  -0.257   1.256   0.906 -0.6725 -1.0672 -0.0963
  145MOL0     C19051  -0.307   1.253   0.770 -0.4130 -0.1048 -0.5446
  145MOL0    Cl19052  -0.190   1.300   0.645  0.1817 -0.3499  0.5357
  145MOL0     C19053  -0.085   1.432   1.842  0.3477 -0.6108 -0.3601
  145MOL0     C19054  -0.062   1.426   1.983 -0.4468 -0.3564 -0.2403
  145MOL0     O19055  -0.059   1.621   2.200 -0.1594 -0.7394 -0.0567
  145MOL0     C19056  -0.015   1.652   2.465 -0.4979 -0.6672  1.4159
  145MOL0     C19057   0.039   1.687   2.591  0.0825  0.7016 -0.1758
  145MOL0     N19058   0.532   2.055   3.116  0.0408 -0.0289 -0.0853
  145MOL0     N19059   0.597   2.164   3.114 -0.1316  0.3113 -0.1059
  145MOL0     C19060   1.316   2.094   2.918  0.1189  1.1700  0.1408
  145MOL0     C19061   1.342   1.957   2.914  0.4379 -0.2009  0.5408
  145MOL0     C19062   1.512   1.570   2.687  0.1735 -0.5606 -0.3454
  145MOL0     C19063   1.397   1.492   2.689  0.2307 -0.0039 -0.0204
  145MOL0     C19064   1.401   1.355   2.652 -0.0433 -0.6487  0.0527
  145MOL0     C19065   1.514   1.301   2.598  0.3939  0.1491  0.1156
  145MOL0     O19066   1.509   1.182   2.523 -0.3545 -0.2979 -0.2882
  145MOL0     C19067   1.412   1.087   2.549  0.1638 -0.5268  0.2564
  145MOL0     C19068   1.415   0.965   2.456 -0.7660 -0.0902  0.2548
  145MOL0     C19069   1.536   0.879   2.489 -1.0642  0.0676 -0.9181
  145MOL0     C19070   1.513   0.720   2.501  0.0549  0.0801  0.3438
  145MOL0     C19071   1.406   0.690   2.597 -0.4479 -0.1655 -0.2340
  145MOL0     C19072   1.307   0.670   2.670  0.9208  0.0410  0.6793
  145MOL0     C19073   1.631   1.375   2.600  0.5102  0.4867 -0.7192
  145MOL0     C19074   1.628   1.509   2.642 -0.2418  0.0369  0.2308
  145MOL0     H19075   1.364   1.910   2.581 -1.3422 -2.0745  0.8771
  145MOL0     H19076   1.321   2.143   2.582 -1.0312  1.3619  1.4441
  145MOL0     H19077   1.131   2.327   2.623 -1.3572  2.2259  1.8472
  145MOL0     H19078   1.304   2.364   2.600 -1.6678  3.3477 -2.6441
  145MOL0     H19079   1.123   2.549   2.645 -1.3347  0.1201  0.7528
  145MOL0     H19080   1.284   2.545   2.726  0.7772 -3.1690  2.6397
  145MOL0     H19081   1.086   2.612   2.869 -1.6629 -1.4036 -2.4579
  145MOL0     H19082   1.205   2.494   2.941  0.0405  0.2473  2.0861
  145MOL0     H19083   0.954   2.420   2.797 -2.5028  1.2286  2.2442
  145MOL0     H19084   1.055   2.317   2.905 -0.2849 -0.1427  0.0729
  145MOL0     H19085   0.884   2.572   2.985  2.3464 -0.1857 -3.2902
  145MOL0     H19086   0.954   2.454   3.101 -0.3288  1.4767  0.3173
  145MOL0     H19087   0.814   2.292   3.008 -1.9581  0.5458  0.4502
  145MOL0     H19088   0.751   2.395   2.879 -1.3744 -0.7042 -0.1465
  145MOL0     H19089   0.696   2.402   3.184 -0.9832 -1.1299 -0.2686
  145MOL0     H19090   0.674   2.555   3.087  1.6590  0.3593 -0.5266
  145MOL0     H19091   0.519   2.434   2.943 -0.9071 -2.5265  0.1095
  145MOL0     H19092   0.460   2.462   3.107 -1.0004 -0.1803  0.0528
  145MOL0     H19093   0.309   2.255   2.997 -0.0744 -0.9103 -0.6874
  145MOL0     H19094   0.196   2.010   3.071  1.2393  1.0201  0.3601
  145MOL0     H19095   0.312   1.907   3.141 -2.4663  1.8893  1.5401
  145MOL0     H19096   0.354   1.979   2.851  0.0518 -1.9573 -0.4663
  145MOL0     H19097   0.205   1.890   2.884  0.3157 -2.9257  0.0183
  145MOL0     H19098   0.494   1.813   2.907 -0.4725  1.3314 -2.7467
  145MOL0     H19099   0.367   1.727   2.987  1.8843 -1.8676 -1.3137
  145MOL0     H19100   0.401   1.605   2.793  2.5094  2.0201 -2.4248
  145MOL0     H19101   0.413   1.730   2.681  1.5302  1.6846  1.0912
  145MOL0     H19102   0.336   1.516   2.591 -0.1550 -0.2383  1.3770
  145MOL0     H19103   0.234   1.439   2.372  3.1787  2.0733  0.5038
  145MOL0     H19104   0.279   1.459   1.967  0.5584  1.2708 -0.5064
  145MOL0     H19105   0.225   1.466   1.733 -1.5324 -0.7566 -2.0317
  145MOL0     H19106  -0.166   1.523   1.580  3.2233  1.9718 -0.3094
  145MOL0     H19107  -0.168   1.344   1.615  2.3012 -0.5753  1.4902
  145MOL0     H19108  -0.051   1.298   1.408 -0.6285 -0.0010 -2.1002
  145MOL0     H19109  -0.056   1.474   1.357  1.2539  0.1376 -0.0699
  145MOL0     H19110  -0.288   1.450   1.310 -1.9782  0.5528  2.2581
  145MOL0     H19111  -0.295   1.304   1.415  2.4953 -0.1502  2.2984
  145MOL0     H19112  -0.140   1.325   1.149 -0.8985 -1.2292 -3.0948
  145MOL0     H19113  -0.179   1.173   1.234 -1.8596  0.3704  0.7077
  145MOL0     H19114  -0.382   1.360   1.122  2.1756  0.5208  1.0264
  145MOL0     H19115  -0.422   1.218   1.212  3.9932 -0.8765  3.3324
  145MOL0     H19116  -0.448   1.181   0.985 -0.8206  5.0776  0.9943
  145MOL0     H19117  -0.301   1.097   1.033  0.3198  1.5279  3.1127
  145MOL0     H19118  -0.227   1.357   0.936 -0.0983 -0.2567 -3.0586
  145MOL0     H19119  -0.162   1.203   0.899  0.1474  0.2697  0.3924
  145MOL0     H19120  -0.388   1.327   0.763  0.1912  0.5748 -0.4885
  145MOL0     H19121  -0.344   1.154   0.742 -1.2400 -0.2669  1.0103
  145MOL0     H19122  -0.189   1.412   1.820 -0.2398 -0.8809  2.2586
  145MOL0     H19123  -0.144   1.415   2.054 -0.6199  2.8898  0.1987
  145MOL0     H19124  -0.099   1.706   2.423  0.7211 -0.1714 -0.4540
  145MOL0     H19125  -0.013   1.744   2.668 -0.2702 -0.2673  0.3138
  145MOL0     H19126   1.295   2.145   3.012  0.0815 -0.2300  0.9146
  145MOL0     H19127   1.352   1.906   3.009 -1.9893 -0.7335  0.5703
  145MOL0     H19128   1.296   1.522   2.717 -0.0095 -2.5652  2.4006
  145MOL0     H19129   1.303   1.311   2.640 -0.9919  0.7214  2.2822
  145MOL0     H19130   1.312   1.132   2.549  0.3884  0.1579 -2.3429
  145MOL0     H19131   1.439   1.056   2.650  1.6507 -1.8568 -0.5056
  145MOL0     H19132   1.324   0.913   2.485  1.3228 -2.7256  2.6243
  145MOL0     H19133   1.412   1.002   2.353  0.3244  0.8405  0.5372
  145MOL0     H19134   1.585   0.915   2.579 -0.9672  0.5301 -1.1522
  145MOL0     H19135   1.615   0.902   2.417  2.4655 -0.7132  2.3968
  145MOL0     H19136   1.492   0.689   2.399  3.5697  2.4650 -1.3212
  145MOL0     H19137   1.604   0.680   2.547 -1.1719 -0.7332  2.1683
  145MOL0     H19138   1.216   0.664   2.726 -0.1166  1.7843 -0.7172
  145MOL0     H19139   1.722   1.331   2.561  0.2314  0.9503 -1.9389
  145MOL0     H19140   1.720   1.566   2.630  0.8090 -1.8259 -1.2177
  146MOL0     O19141   0.568   4.752   6.678 -0.3758  0.6452  0.1037
  146MOL0     C19142   0.532   4.700   6.781  0.2039 -0.1807 -0.2030
  146MOL0     O19143   0.406   4.715   6.844 -0.1339 -0.6032 -0.2568
  146MOL0     C19144   0.295   4.737   6.768  0.5906  0.4837  0.8187
  146MOL0     C19145   0.232   4.628   6.714 -0.2655  0.1723 -0.3395
  146MOL0     C19146   0.130   4.643   6.613 -0.1217 -0.2495 -0.3924
  146MOL0     C19147   0.059   4.759   6.611  0.2075  1.2122  0.3635
  146MOL0     O19148  -0.065   4.747   6.546 -0.4222 -0.1265  0.8874
  146MOL0     C19149  -0.144   4.861   6.527  0.1846 -0.4338  0.9337
  146MOL0     C19150  -0.089   4.945   6.417 -1.4614 -0.2351 -0.4670
  146MOL0     C19151  -0.189   5.033   6.349  0.3439  0.3647 -1.1881
  146MOL0     C19152  -0.117   5.100   6.223  0.1914 -0.4577 -0.3415
  146MOL0     C19153  -0.211   5.184   6.121 -0.5941  0.7764  0.5566
  146MOL0     C19154  -0.344   5.104   6.087 -1.1518  1.0880 -0.4060
  146MOL0     C19155  -0.435   5.186   5.993  0.6387  0.4798 -0.1229
  146MOL0     C19156  -0.577   5.125   5.985  0.5601 -0.3103 -0.4557
  146MOL0     N19157  -0.665   5.170   6.095  0.4748  0.7199  0.5961
  146MOL0     C19158  -0.792   5.216   6.077 -0.0664 -0.2970  0.1640
  146MOL0     C19159  -0.827   5.279   6.189  0.4148 -0.1059 -0.9129
  146MOL0     C19160  -0.951   5.360   6.208  0.5117  0.6916 -0.9909
  146MOL0     C19161  -0.921   5.503   6.188  0.1430  0.8660 -0.0200
  146MOL0     C19162  -1.050   5.582   6.214 -0.4695  0.2166  0.1327
  146MOL0     C19163  -1.032   5.721   6.163 -0.4632  0.6921  0.0924
  146MOL0     O19164  -1.098   5.736   6.039  0.1928  0.0423 -0.2529
  146MOL0     C19165  -1.137   5.864   6.022 -0.1881 -0.2480  0.2875
  146MOL0     C19166  -1.272   5.901   6.030  0.2138  0.1046  0.4649
  146MOL0     C19167  -1.314   6.035   6.001 -0.4016  0.1452 -0.1704
  146MOL0     C19168  -1.224   6.132   5.962 -0.0940 -0.8242  0.3548
  146MOL0     C19169  -1.277   6.256   5.918 -0.0867  0.9512 -0.3168
  146MOL0     O19170  -1.178   6.349   5.872 -0.0335 -0.5420 -0.1793
  146MOL0     C19171  -1.220   6.479   5.827  0.4516 -0.6514 -0.2192
  146MOL0     C19172  -1.232   6.504   5.693  0.3496  0.8239  1.1756
  146MOL0     C19173  -1.282   6.620   5.640  0.7801 -0.3039 -0.5307
  146MOL0     C19174  -1.324   6.722   5.724 -0.3287 -0.7621  0.8322
  146MOL0     O19175  -1.380   6.834   5.667 -0.2873  0.4158 -0.3574
  146MOL0     C19176  -1.369   6.953   5.742  0.5574 -0.2512  0.0456
  146MOL0     C19177  -1.439   7.071   5.673  0.4065 -0.4841 -0.4799
  146MOL0     C19178  -1.452   7.187   5.773 -0.6050  0.1891 -0.0604
  146MOL0     C19179  -1.514   7.307   5.707  0.3855 -0.0012 -0.3819
  146MOL0     C19180  -1.598   7.386   5.799  0.7075  0.2581 -0.0791
  146MOL0     C19181  -1.524   7.467   5.900  0.1528  0.1955 -0.3345
  146MOL0     C19182  -1.618   7.558   5.983 -0.2013  0.2638 -0.0785
  146MOL0     C19183  -1.559   7.623   6.117 -0.3405  0.5188  0.0638
  146MOL0    Cl19184  -1.543   7.503   6.243 -0.1669 -0.1958  0.0866
  146MOL0     C19185  -1.338   6.684   5.863 -0.0535  0.0313  0.0709
  146MOL0     C19186  -1.278   6.566   5.916  0.2514  0.2417  0.7039
  146MOL0     O19187  -1.396   6.277   5.927  0.1121  0.0448 -0.2953
  146MOL0     C19188  -1.086   6.103   5.965  0.2959  1.1436 -0.1678
  146MOL0     C19189  -1.045   5.969   5.996  0.9008 -0.7471  0.4938
  146MOL0     N19190  -0.735   5.239   6.286  0.3436  0.8104  0.2659
  146MOL0     N19191  -0.648   5.168   6.228 -0.5873 -0.1584 -0.0154
  146MOL0     C19192   0.109   4.867   6.686 -0.2357 -0.2458  0.1564
  146MOL0     C19193   0.236   4.864   6.743  0.2272  0.6541  0.2068
  146MOL0     C19194   0.630   4.623   6.861 -0.1968 -0.5332  1.3466
  146MOL0     C19195   0.750   4.573   6.816  0.3329 -0.6002  0.6801
  146MOL0     C19196   0.846   4.514   6.889  0.1427  0.4563  0.6476
  146MOL0     C19197   0.816   4.470   7.019  0.7919 -1.0767  0.7768
  146MOL0     O19198   0.906   4.381   7.067 -0.0882  0.1352 -0.7827
  146MOL0     C19199   1.010   4.433   7.154 -0.4256  0.7691  0.6104
  146MOL0     C19200   0.950   4.451   7.286  0.8032 -0.4192 -0.6526
  146MOL0     C19201   0.925   4.322   7.368  0.1883 -1.6514 -0.2524
  146MOL0     C19202   0.854   4.372   7.502 -0.3784 -0.7055  0.3805
  146MOL0     C19203   0.817   4.259   7.572 -0.1793  0.3964 -0.8698
  146MOL0     C19204   0.765   4.164   7.626  0.2646  0.3976  0.6148
  146MOL0     C19205   0.691   4.503   7.071 -0.0530  1.0921 -0.3220
  146MOL0     C19206   0.602   4.584   6.995  1.1895 -0.5668  0.3036
  146MOL0     H19207   0.277   4.531   6.725 -0.2316 -0.2948 -3.6268
  146MOL0     H19208   0.086   4.557   6.565 -0.8085 -1.4004  2.1277
  146MOL0     H19209  -0.145   4.923   6.617 -4.9537 -1.2890  1.7668
  146MOL0     H19210  -0.252   4.842   6.521  0.3345 -1.3100  0.9329
  146MOL0     H19211  -0.053   4.876   6.340  0.1572  0.5055 -0.4170
  146MOL0     H19212   0.000   4.996   6.454 -0.4277 -1.6213 -0.9597
  146MOL0     H19213  -0.221   5.106   6.423  2.2868 -0.1536  0.2467
  146MOL0     H19214  -0.263   4.966   6.303  1.4053 -1.3523 -0.5246
  146MOL0     H19215  -0.051   5.179   6.261  0.1245 -0.5505 -0.0298
  146MOL0     H19216  -0.054   5.029   6.169  1.2186  1.3481 -1.6445
  146MOL0     H19217  -0.146   5.197   6.034  1.4853 -3.5745  1.2009
  146MOL0     H19218  -0.248   5.279   6.162 -3.9569  0.2134 -0.8771
  146MOL0     H19219  -0.397   5.089   6.182  0.3294  1.2414  0.4808
  146MOL0     H19220  -0.320   5.007   6.044 -0.5837  0.2828  1.5824
  146MOL0     H19221  -0.453   5.282   6.042  2.5188 -0.4862  2.7197
  146MOL0     H19222  -0.405   5.194   5.889  0.4168  0.4657 -0.1896
  146MOL0     H19223  -0.580   5.016   6.000 -1.9544 -0.3804 -1.1656
  146MOL0     H19224  -0.617   5.132   5.883  2.0339  0.9805 -0.9942
  146MOL0     H19225  -0.854   5.210   5.989 -1.7864  0.7318  1.2504
  146MOL0     H19226  -0.997   5.331   6.303 -0.1519  0.6683 -1.3115
  146MOL0     H19227  -1.016   5.326   6.127  0.4766  0.1696 -0.7465
  146MOL0     H19228  -0.888   5.520   6.085 -0.0236  2.3387  0.1477
  146MOL0     H19229  -0.851   5.544   6.261 -0.3165 -1.3567  1.7874
  146MOL0     H19230  -1.125   5.535   6.149  1.0770 -1.8958 -0.2379
  146MOL0     H19231  -1.075   5.591   6.320  0.5942  2.8223  0.2380
  146MOL0     H19232  -0.926   5.749   6.157  0.1860 -1.2797  1.3522
  146MOL0     H19233  -1.079   5.785   6.238  0.3476  1.3558  0.0545
  146MOL0     H19234  -1.347   5.823   6.039 -1.0482  0.9395 -1.8588
  146MOL0     H19235  -1.422   6.051   6.006 -1.1542 -3.7705  0.0972
  146MOL0     H19236  -1.217   6.427   5.618 -1.3752 -0.3489  1.9418
  146MOL0     H19237  -1.293   6.639   5.533  0.3939  3.2850  0.0300
  146MOL0     H19238  -1.268   6.982   5.771 -0.9706  4.5710  1.5998
  146MOL0     H19239  -1.432   6.944   5.831 -0.6585 -3.0391 -0.9937
  146MOL0     H19240  -1.532   7.042   5.624  0.2031  1.9550 -1.6894
  146MOL0     H19241  -1.374   7.100   5.590  1.7702 -0.9585  0.3868
  146MOL0     H19242  -1.355   7.211   5.817 -0.8696  0.8720  0.1563
  146MOL0     H19243  -1.524   7.152   5.847  0.8338 -1.6554  0.5706
  146MOL0     H19244  -1.431   7.360   5.660  1.3501 -1.9459 -1.0036
  146MOL0     H19245  -1.579   7.276   5.624  1.6420  0.7802 -1.7103
  146MOL0     H19246  -1.663   7.315   5.852  1.6781 -0.9946 -0.5022
  146MOL0     H19247  -1.660   7.455   5.741 -1.4746  0.0858  1.9024
  146MOL0     H19248  -1.465   7.530   5.833 -0.7859 -1.2283 -2.6017
  146MOL0     H19249  -1.461   7.394   5.952  1.0673 -0.2526 -2.0001
  146MOL0     H19250  -1.635   7.644   5.918  3.2461  2.2213  1.3266
  146MOL0     H19251  -1.708   7.502   6.009 -0.7246 -0.0610 -2.3438
  146MOL0     H19252  -1.631   7.703   6.139  1.0979  1.5701  1.0838
  146MOL0     H19253  -1.461   7.669   6.102  0.1589 -0.4786  0.2270
  146MOL0     H19254  -1.376   6.761   5.929 -1.5080  1.6709 -2.5240
  146MOL0     H19255  -1.278   6.538   6.021 -2.1553 -1.9645  0.2216
  146MOL0     H19256  -1.010   6.169   5.925  0.2193  2.0086  1.0809
  146MOL0     H19257  -0.939   5.949   5.993  0.7142 -1.7991  0.1140
  146MOL0     H19258   0.061   4.964   6.689 -0.4901 -0.3595 -0.1762
  146MOL0     H19259   0.292   4.952   6.773  1.7440  0.1747 -1.0619
  146MOL0     H19260   0.792   4.614   6.724 -1.5840 -0.4919 -0.1967
  146MOL0     H19261   0.948   4.510   6.853 -0.0942  1.7935 -0.2403
  146MOL0     H19262   1.044   4.535   7.130 -0.6334  1.0330  1.4029
  146MOL0     H19263   1.097   4.366   7.149  1.5873  3.2016  0.7232
  146MOL0     H19264   1.013   4.519   7.345 -2.8697  1.0250  1.9569
  146MOL0     H19265   0.859   4.510   7.276  1.7389  1.4191  0.9917
  146MOL0     H19266   1.021   4.270   7.381 -0.6826 -3.0020  1.3025
  146MOL0     H19267   0.853   4.247   7.332  0.1109 -0.6982 -2.2012
  146MOL0     H19268   0.909   4.432   7.576 -1.5992  2.1252 -0.8699
  146MOL0     H19269   0.763   4.423   7.469  0.7851  0.6323 -0.8698
  146MOL0     H19270   0.717   4.071   7.648 -0.3375 -0.6787 -4.2642
  146MOL0     H19271   0.657   4.455   7.162 -3.1818 -2.5326 -3.0413
  146MOL0     H19272   0.514   4.629   7.041  2.3585  2.5987 -0.3097
  147MOL0     O19273   8.055   9.153   5.557 -0.0373 -0.0018  0.1561
  147MOL0     C19274   7.960   9.230   5.516 -0.0270  0.7300 -0.2530
  147MOL0     O19275   7.942   9.256   5.381  0.4450  0.7856 -0.0770
  147MOL0     C19276   8.028   9.205   5.288 -0.3416 -0.9659  0.4060
  147MOL0     C19277   8.156   9.261   5.270  0.7804  0.1071 -0.1613
  147MOL0     C19278   8.241   9.209   5.171  0.1850  0.3662  0.1624
  147MOL0     C19279   8.204   9.108   5.080 -0.1805  0.2813 -0.7557
  147MOL0     O19280   8.288   9.071   4.983  0.1645  0.1344 -0.1054
  147MOL0     C19281   8.241   9.005   4.858 -0.3987 -0.2421 -1.0134
  147MOL0     C19282   8.354   9.031   4.757 -0.5051  0.4603  0.2387
  147MOL0     C19283   8.490   8.961   4.786 -0.3530  0.3969  0.2133
  147MOL0     C19284   8.502   8.829   4.720  0.7628  0.4254  0.1897
  147MOL0     C19285   8.638   8.751   4.751  0.3930  0.6720 -0.4523
  147MOL0     C19286   8.750   8.846   4.709 -0.5832 -0.7522  0.2290
  147MOL0     C19287   8.753   8.868   4.554 -0.0357 -0.7768  0.4673
  147MOL0     C19288   8.784   8.737   4.474 -0.7798 -0.2335  0.1894
  147MOL0     N19289   8.851   8.750   4.339 -0.6124  0.2691  0.7109
  147MOL0     C19290   8.908   8.638   4.267 -0.1895 -0.3146 -0.0940
  147MOL0     C19291   8.995   8.678   4.176  1.1003  0.1583  0.1832
  147MOL0     C19292   9.090   8.604   4.088 -0.8059  0.4209 -0.0315
  147MOL0     C19293   9.016   8.474   4.058  0.3374  0.2713 -0.7130
  147MOL0     C19294   9.092   8.393   3.954 -0.2817  0.0327  0.3867
  147MOL0     C19295   9.022   8.282   3.892 -0.3213 -0.6144  0.6402
  147MOL0     O19296   9.121   8.194   3.834 -0.3948 -0.4471  0.2108
  147MOL0     C19297   9.064   8.094   3.767 -0.3195 -0.2911  0.4819
  147MOL0     C19298   8.923   8.056   3.771 -1.3427 -0.2826 -0.7804
  147MOL0     C19299   8.871   7.956   3.691 -0.1309  0.0739 -0.7993
  147MOL0     C19300   8.962   7.875   3.620  0.9321 -0.1382 -0.3240
  147MOL0     C19301   8.909   7.759   3.552  0.3411  0.3044  0.0481
  147MOL0     O19302   8.772   7.730   3.569  0.4076 -0.1904  0.6464
  147MOL0     C19303   8.722   7.642   3.479  0.7666 -0.1998  0.3823
  147MOL0     C19304   8.613   7.683   3.405  0.7529 -0.8308 -0.0314
  147MOL0     C19305   8.526   7.600   3.325  0.3861 -0.0444  0.3420
  147MOL0     C19306   8.566   7.468   3.306  0.2277  0.8335 -0.6584
  147MOL0     O19307   8.489   7.386   3.232 -0.2418  0.1586  0.1018
  147MOL0     C19308   8.516   7.388   3.089 -0.3248 -0.3174  1.0564
  147MOL0     C19309   8.610   7.278   3.027  0.0421 -1.6338 -0.5099
  147MOL0     C19310   8.580   7.254   2.884  0.2534  0.3904 -0.0148
  147MOL0     C19311   8.643   7.357   2.799  0.1391 -0.1484  0.1395
  147MOL0     C19312   8.639   7.309   2.642  0.0575  0.0430 -0.1693
  147MOL0     C19313   8.692   7.430   2.564  0.4867 -0.1629  0.6601
  147MOL0     C19314   8.835   7.480   2.602  0.0996  0.2186  0.1393
  147MOL0     C19315   8.892   7.573   2.512  0.0659  0.0306 -0.1074
  147MOL0    Cl19316   9.032   7.655   2.582 -0.1689  0.1625 -0.5729
  147MOL0     C19317   8.679   7.421   3.377  1.0256 -0.2377 -0.6140
  147MOL0     C19318   8.763   7.510   3.461  0.6074  0.1556  1.0617
  147MOL0     O19319   8.988   7.696   3.484  0.0450 -0.0561  0.7019
  147MOL0     C19320   9.094   7.914   3.603 -0.5283 -0.6692 -1.6253
  147MOL0     C19321   9.146   8.023   3.678  0.3631 -0.6333 -0.1312
  147MOL0     N19322   8.986   8.817   4.181 -0.7231 -0.2949  0.1464
  147MOL0     N19323   8.906   8.858   4.278  0.1753 -0.4906  0.5803
  147MOL0     C19324   8.077   9.056   5.099 -0.6108  1.6000 -0.1073
  147MOL0     C19325   7.995   9.107   5.206  0.2797  0.6827  0.4321
  147MOL0     C19326   7.849   9.265   5.617 -0.6511  0.6815 -0.1428
  147MOL0     C19327   7.859   9.238   5.756 -0.2137  0.3625  0.3000
  147MOL0     C19328   7.752   9.254   5.832 -0.1836 -0.1673 -0.4024
  147MOL0     C19329   7.627   9.312   5.789 -0.0291  0.5688  1.3413
  147MOL0     O19330   7.518   9.332   5.868  0.7097  0.5155  0.2908
  147MOL0     C19331   7.456   9.207   5.909  0.2455  0.0214 -0.2175
  147MOL0     C19332   7.430   9.204   6.057  0.0078 -0.4628  0.3125
  147MOL0     C19333   7.540   9.120   6.132  0.2355 -0.0939  0.3119
  147MOL0     C19334   7.509   9.093   6.289 -0.1474  0.5087 -0.7778
  147MOL0     C19335   7.543   9.210   6.374 -0.3828  0.8862  0.1865
  147MOL0     C19336   7.561   9.301   6.450  0.9704  0.6146  0.0756
  147MOL0     C19337   7.618   9.356   5.658  0.6853  0.0351 -0.2319
  147MOL0     C19338   7.730   9.329   5.576  0.3229 -0.5046  0.1932
  147MOL0     H19339   8.192   9.345   5.329 -2.1825  2.4065 -1.3763
  147MOL0     H19340   8.337   9.258   5.161  1.0404 -1.5140 -1.5439
  147MOL0     H19341   8.144   9.044   4.826 -1.4819 -1.5027  0.6168
  147MOL0     H19342   8.224   8.897   4.861  1.6586 -0.6087 -1.1555
  147MOL0     H19343   8.375   9.138   4.769 -0.3803  0.4261  0.3334
  147MOL0     H19344   8.331   9.008   4.653  1.5359 -2.7225  0.3319
  147MOL0     H19345   8.523   8.958   4.890  1.2806 -0.9780 -0.2866
  147MOL0     H19346   8.562   9.032   4.744  0.2633 -1.0067 -1.2319
  147MOL0     H19347   8.415   8.771   4.752 -1.5566  2.9484 -1.1063
  147MOL0     H19348   8.480   8.828   4.613 -0.3740 -1.9188  0.3916
  147MOL0     H19349   8.652   8.650   4.709 -0.4322  0.0253  0.7795
  147MOL0     H19350   8.674   8.737   4.853  1.3499  2.4965 -0.4866
  147MOL0     H19351   8.840   8.805   4.755 -0.2865  1.8613  2.2028
  147MOL0     H19352   8.741   8.945   4.754  1.4653 -0.3084 -0.2484
  147MOL0     H19353   8.662   8.919   4.522 -0.9979 -0.5321  3.3324
  147MOL0     H19354   8.840   8.929   4.530 -1.5240  1.7372  1.1133
  147MOL0     H19355   8.683   8.698   4.458 -1.3049  1.6478 -1.3712
  147MOL0     H19356   8.843   8.675   4.543  0.6714  3.2122  2.3105
  147MOL0     H19357   8.883   8.536   4.295 -3.0028 -0.0180 -1.2488
  147MOL0     H19358   9.183   8.575   4.137 -0.9730 -3.3900 -1.6516
  147MOL0     H19359   9.123   8.663   4.002  2.1981 -3.8908 -2.2444
  147MOL0     H19360   8.917   8.503   4.023  0.0129  1.8491  1.3052
  147MOL0     H19361   9.008   8.421   4.154 -3.4847  4.1136  1.4324
  147MOL0     H19362   9.132   8.460   3.878  0.1038  0.3303  0.8485
  147MOL0     H19363   9.183   8.359   4.005  0.4129  1.9198  0.4859
  147MOL0     H19364   8.949   8.316   3.818  1.1974  2.6140  0.4921
  147MOL0     H19365   8.969   8.230   3.972 -0.3784 -1.6117 -0.0213
  147MOL0     H19366   8.858   8.110   3.838 -0.1001  0.5407 -0.1968
  147MOL0     H19367   8.765   7.937   3.700 -0.3531  0.6804 -2.0211
  147MOL0     H19368   8.581   7.786   3.419 -0.7940 -0.8616 -2.7025
  147MOL0     H19369   8.426   7.624   3.288  1.8610  2.7927 -2.3184
  147MOL0     H19370   8.555   7.485   3.057  0.4446 -1.3080 -1.1632
  147MOL0     H19371   8.417   7.392   3.041 -0.1632 -0.1777  0.7367
  147MOL0     H19372   8.597   7.189   3.089  0.5924  0.0039  2.1427
  147MOL0     H19373   8.714   7.311   3.025 -0.9817  3.0074 -6.3366
  147MOL0     H19374   8.472   7.241   2.876 -0.0357  2.5009  0.0397
  147MOL0     H19375   8.636   7.164   2.856  0.9869  0.1996  1.8950
  147MOL0     H19376   8.588   7.451   2.810 -3.5968 -2.0108 -0.8489
  147MOL0     H19377   8.748   7.365   2.829  0.4530 -3.2328  0.1485
  147MOL0     H19378   8.535   7.285   2.620 -0.3966 -0.7854  2.4631
  147MOL0     H19379   8.702   7.221   2.624 -0.0327 -0.0590  0.0122
  147MOL0     H19380   8.623   7.515   2.570  0.3396 -0.3099  1.0873
  147MOL0     H19381   8.705   7.397   2.461  0.2022 -2.4349  1.3045
  147MOL0     H19382   8.844   7.528   2.700  3.7903  2.0608 -0.9182
  147MOL0     H19383   8.899   7.392   2.598 -0.4225 -0.2000  0.8033
  147MOL0     H19384   8.823   7.651   2.479 -2.0940 -1.7341 -0.0185
  147MOL0     H19385   8.913   7.528   2.414 -2.7423 -0.7106 -0.4510
  147MOL0     H19386   8.709   7.317   3.371  0.6575 -0.4178  0.4336
  147MOL0     H19387   8.853   7.475   3.510  1.7519  2.6730  0.9084
  147MOL0     H19388   9.169   7.860   3.546  2.4495 -1.3064  2.4337
  147MOL0     H19389   9.252   8.047   3.678 -0.2717  2.7039  1.7968
  147MOL0     H19390   8.036   8.980   5.034  3.4724 -0.7178 -0.2736
  147MOL0     H19391   7.890   9.080   5.200  1.2132 -3.4401 -0.4634
  147MOL0     H19392   7.939   9.183   5.805 -0.6940  0.1429  0.8491
  147MOL0     H19393   7.743   9.220   5.935 -1.8150  1.2701 -0.0363
  147MOL0     H19394   7.518   9.122   5.878 -0.1921 -0.2053 -0.5008
  147MOL0     H19395   7.360   9.197   5.856 -1.6602 -0.1786  3.0118
  147MOL0     H19396   7.437   9.307   6.092 -0.7207 -0.9660  2.0488
  147MOL0     H19397   7.323   9.183   6.072 -0.4908 -1.2766 -3.3004
  147MOL0     H19398   7.634   9.176   6.131 -0.7680  1.6531 -0.4862
  147MOL0     H19399   7.549   9.025   6.078 -0.4022 -0.8274  1.4484
  147MOL0     H19400   7.406   9.055   6.289 -0.8981  2.4027 -0.3113
  147MOL0     H19401   7.562   9.008   6.332  1.2553  3.3483  3.8667
  147MOL0     H19402   7.583   9.379   6.520  1.8890  0.0380  0.4531
  147MOL0     H19403   7.529   9.390   5.605 -0.6223  2.1418  2.9960
  147MOL0     H19404   7.736   9.368   5.475 -0.6152  0.0470  0.3396
  148MOL0     O19405  10.091   1.789   0.558 -0.3572 -0.0903 -0.3881
  148MOL0     C19406  10.108   1.842   0.454 -0.5878 -0.6485  0.1849
  148MOL0     O19407  10.222   1.864   0.391  0.4927 -0.0062 -0.1227
  148MOL0     C19408  10.338   1.805   0.433 -0.0893 -0.4556  0.9772
  148MOL0     C19409  10.416   1.863   0.535 -0.3632  0.6141  0.5750
  148MOL0     C19410  10.542   1.803   0.571 -0.3334 -0.6825 -0.2477
  148MOL0     C19411  10.589   1.689   0.493  0.2906  0.0077  0.0731
  148MOL0     O19412  10.719   1.647   0.539 -0.1786  0.9866  0.9353
  148MOL0     C19413  10.779   1.539   0.456 -0.7602  0.6476  0.3404
  148MOL0     C19414  10.920   1.524   0.497 -0.1003 -1.3805 -0.3961
  148MOL0     C19415  11.005   1.640   0.432 -0.2623 -0.9069  1.1985
  148MOL0     C19416  11.152   1.618   0.457 -1.9640  0.4396 -0.5985
  148MOL0     C19417  11.241   1.674   0.342  0.4490 -0.1447 -0.4501
  148MOL0     C19418  11.248   1.831   0.351 -0.5692 -1.0762 -0.6151
  148MOL0     C19419  11.323   1.923   0.247  0.1037 -0.2780  1.2553
  148MOL0     C19420  11.469   1.959   0.280  0.2043  0.2259  0.2002
  148MOL0     N19421  11.549   1.845   0.255 -0.4379  0.1703  1.1339
  148MOL0     C19422  11.578   1.736   0.330 -0.3676  1.0541 -0.9403
  148MOL0     C19423  11.661   1.658   0.261 -0.0161  0.4511 -0.0539
  148MOL0     C19424  11.712   1.525   0.288  0.0637 -0.0383  0.5461
  148MOL0     C19425  11.848   1.533   0.355 -0.2173  0.1291  0.2481
  148MOL0     C19426  11.937   1.413   0.320 -0.2499 -0.7853 -0.3948
  148MOL0     C19427  11.901   1.284   0.396  0.5285 -0.4834  0.0613
  148MOL0     O19428  11.899   1.302   0.539  0.0400 -0.9733 -0.1097
  148MOL0     C19429  11.904   1.189   0.615 -0.0315  1.1193 -0.7599
  148MOL0     C19430  11.874   1.059   0.570 -0.0200 -1.0363  0.3394
  148MOL0     C19431  11.870   0.949   0.649 -0.2280 -0.1023  0.1675
  148MOL0     C19432  11.916   0.962   0.785  0.6183 -0.5555  0.5184
  148MOL0     C19433  11.905   0.848   0.880 -1.0143  0.2744  0.0981
  148MOL0     O19434  11.942   0.867   1.015 -0.4689 -0.0607  0.2532
  148MOL0     C19435  11.998   0.757   1.085  0.4213 -0.6160  0.2520
  148MOL0     C19436  12.056   0.641   1.026  0.3739  0.5597 -0.3840
  148MOL0     C19437  12.122   0.543   1.102 -0.1091  0.6109 -0.7592
  148MOL0     C19438  12.129   0.548   1.243 -0.6529  0.8980 -0.2015
  148MOL0     O19439  12.187   0.443   1.310  0.2066 -0.7721  0.4196
  148MOL0     C19440  12.216   0.466   1.450 -0.2470  0.1060  0.1508
  148MOL0     C19441  12.321   0.359   1.497  0.4555  0.5908  0.5409
  148MOL0     C19442  12.444   0.349   1.414  0.0140 -0.0616  0.4558
  148MOL0     C19443  12.549   0.247   1.455 -0.1207 -0.0368 -0.7736
  148MOL0     C19444  12.498   0.096   1.474 -0.0757  1.5211 -0.6422
  148MOL0     C19445  12.612   0.002   1.520 -0.3873  0.7252  0.6580
  148MOL0     C19446  12.567  -0.138   1.559 -0.7475 -0.4778  0.4257
  148MOL0     C19447  12.547  -0.223   1.429  0.3682 -0.1028  0.4796
  148MOL0    Cl19448  12.697  -0.332   1.406 -0.2281  0.2957  0.4157
  148MOL0     C19449  12.048   0.644   1.302  0.7272  0.3235 -0.5179
  148MOL0     C19450  11.991   0.747   1.227  0.9391  0.7497 -0.1035
  148MOL0     O19451  11.850   0.748   0.840 -0.4920  0.7143 -0.0355
  148MOL0     C19452  11.963   1.086   0.824  0.8621 -0.4422  0.5760
  148MOL0     C19453  11.955   1.198   0.750 -0.0354  0.0936  0.1819
  148MOL0     N19454  11.687   1.714   0.139 -0.2181  0.5805 -0.1621
  148MOL0     N19455  11.627   1.831   0.142 -0.3081  0.2092  0.4976
  148MOL0     C19456  10.511   1.646   0.383  0.1767  0.0729  0.5255
  148MOL0     C19457  10.389   1.700   0.356  0.2600 -0.6694 -1.0358
  148MOL0     C19458   9.989   1.927   0.416  0.6495  0.6693  0.3416
  148MOL0     C19459  10.009   2.040   0.343 -0.2096  0.2805  0.4123
  148MOL0     C19460   9.904   2.119   0.301 -0.3659  0.4244  0.3278
  148MOL0     C19461   9.771   2.085   0.323 -0.1273  0.0277 -0.1729
  148MOL0     O19462   9.677   2.175   0.271  0.7568  0.3150 -0.5265
  148MOL0     C19463   9.655   2.297   0.347  0.6744  0.6215  0.7091
  148MOL0     C19464   9.601   2.263   0.486 -0.3815  0.4609 -0.5441
  148MOL0     C19465   9.450   2.226   0.472  0.0362  0.7655 -0.0564
  148MOL0     C19466   9.422   2.074   0.429 -0.5441 -0.1771 -0.7979
  148MOL0     C19467   9.283   2.037   0.422  0.8128 -0.3520 -0.1504
  148MOL0     C19468   9.175   1.990   0.409 -0.2461  0.5697  0.8396
  148MOL0     C19469   9.750   1.960   0.384  0.2965 -0.3098 -0.5830
  148MOL0     C19470   9.855   1.884   0.427 -0.6978 -0.1160 -0.5916
  148MOL0     H19471  10.388   1.957   0.582  2.2571  2.8471 -1.9039
  148MOL0     H19472  10.586   1.831   0.666 -3.9661 -1.3565  1.8368
  148MOL0     H19473  10.780   1.561   0.349  1.3873  0.3282  0.2574
  148MOL0     H19474  10.722   1.448   0.477 -3.2186  1.6263 -1.5941
  148MOL0     H19475  10.958   1.425   0.469 -1.0430 -2.0412  0.5668
  148MOL0     H19476  10.927   1.530   0.606  0.2405  1.5194 -0.5117
  148MOL0     H19477  10.974   1.736   0.475 -1.8098 -0.2833 -1.1067
  148MOL0     H19478  10.983   1.648   0.325  0.6373 -0.5010  1.0326
  148MOL0     H19479  11.168   1.659   0.557 -1.9813 -0.4509 -0.2201
  148MOL0     H19480  11.169   1.510   0.458  2.1172  0.9285  0.1007
  148MOL0     H19481  11.197   1.657   0.243 -0.0772  0.4907 -0.3293
  148MOL0     H19482  11.335   1.620   0.325 -0.8174 -2.0219 -2.0852
  148MOL0     H19483  11.268   1.864   0.454  2.2480 -2.4379 -0.6276
  148MOL0     H19484  11.143   1.859   0.339 -0.3103  0.9490  1.1594
  148MOL0     H19485  11.312   1.871   0.152  2.4923  1.5243 -0.1399
  148MOL0     H19486  11.270   2.019   0.245  1.1462  0.3093  0.8883
  148MOL0     H19487  11.487   1.994   0.382  0.3077  0.6140  0.0527
  148MOL0     H19488  11.503   2.045   0.222  0.8542 -0.0391  0.1815
  148MOL0     H19489  11.529   1.713   0.424 -2.4899 -1.0623 -2.4374
  148MOL0     H19490  11.721   1.478   0.190  1.1908  0.7325  0.2545
  148MOL0     H19491  11.648   1.465   0.353 -0.3577 -0.2494 -0.0673
  148MOL0     H19492  11.834   1.545   0.463 -0.7784 -0.1756  0.2133
  148MOL0     H19493  11.908   1.616   0.316  1.1004 -0.1876  1.4790
  148MOL0     H19494  11.927   1.388   0.214  0.8797  3.0848 -1.5755
  148MOL0     H19495  12.042   1.439   0.340 -0.7681 -0.2627  1.9555
  148MOL0     H19496  11.971   1.207   0.364 -0.0086 -0.6607 -0.7085
  148MOL0     H19497  11.800   1.253   0.369  0.1633 -1.0885  1.9460
  148MOL0     H19498  11.843   1.038   0.468  0.8095 -1.1089  0.0979
  148MOL0     H19499  11.833   0.851   0.618  0.3951 -0.8537  1.6694
  148MOL0     H19500  12.073   0.636   0.919 -0.5324 -0.2674 -0.5022
  148MOL0     H19501  12.179   0.466   1.050  0.3349  0.2713  0.2002
  148MOL0     H19502  12.127   0.483   1.511 -1.8398  1.5785 -2.3905
  148MOL0     H19503  12.265   0.563   1.452 -0.5914  0.3779 -1.9974
  148MOL0     H19504  12.267   0.265   1.509  1.9017 -0.7055 -2.1304
  148MOL0     H19505  12.347   0.401   1.595 -0.2968  1.3432  0.4292
  148MOL0     H19506  12.489   0.448   1.411 -0.5612  0.1715 -1.0911
  148MOL0     H19507  12.409   0.319   1.315 -0.9357  2.1068  0.0944
  148MOL0     H19508  12.636   0.261   1.391 -2.4456  1.1426 -3.9804
  148MOL0     H19509  12.580   0.294   1.549 -3.9787  1.0396  0.1638
  148MOL0     H19510  12.448   0.049   1.389  2.0915 -0.0744 -1.1195
  148MOL0     H19511  12.438   0.098   1.565 -2.4164  1.1866 -2.0796
  148MOL0     H19512  12.665   0.059   1.597 -0.9201  3.4367 -0.8565
  148MOL0     H19513  12.682  -0.014   1.437 -0.5406  0.7952  0.5147
  148MOL0     H19514  12.645  -0.185   1.620  0.6170  1.2900  0.0955
  148MOL0     H19515  12.475  -0.137   1.620 -0.3832  0.3988  0.9748
  148MOL0     H19516  12.539  -0.162   1.339  1.6232 -0.9210 -0.2023
  148MOL0     H19517  12.450  -0.274   1.426  0.8949 -1.0885 -0.0592
  148MOL0     H19518  12.039   0.660   1.409  0.0229 -0.2865 -0.4729
  148MOL0     H19519  11.946   0.821   1.294  1.3526 -0.2079  1.2786
  148MOL0     H19520  11.997   1.102   0.926 -1.2718 -0.5641  1.3456
  148MOL0     H19521  11.983   1.292   0.795 -1.8117  0.8211 -0.1613
  148MOL0     H19522  10.550   1.572   0.315  2.4240  2.4948 -1.0388
  148MOL0     H19523  10.338   1.679   0.263 -0.4197  0.4596 -0.9446
  148MOL0     H19524  10.109   2.078   0.325 -1.4558  2.6489 -2.4079
  148MOL0     H19525   9.920   2.209   0.244  0.8152  0.5142  0.7727
  148MOL0     H19526   9.587   2.366   0.294 -0.8688  0.3524  2.2643
  148MOL0     H19527   9.752   2.345   0.362 -0.4394  2.3310  3.0855
  148MOL0     H19528   9.661   2.185   0.535  1.2379  2.1577  0.3145
  148MOL0     H19529   9.619   2.345   0.556  2.1158  0.3151 -0.9028
  148MOL0     H19530   9.391   2.293   0.410 -0.1730  1.3080  0.7160
  148MOL0     H19531   9.398   2.245   0.566  1.3730  1.7036  0.5272
  148MOL0     H19532   9.468   2.042   0.335 -0.7432 -1.0702 -0.6021
  148MOL0     H19533   9.457   2.013   0.513 -3.0358 -0.2111  0.2994
  148MOL0     H19534   9.077   1.949   0.396  0.1846 -0.0494 -0.5921
  148MOL0     H19535   9.644   1.938   0.375 -0.1241  2.0418 -2.5107
  148MOL0     H19536   9.826   1.792   0.477 -1.0656  0.9075  1.1439
  149MOL0     O19537   4.071   6.639   0.240  0.0651 -0.0600 -0.3015
  149MOL0     C19538   4.092   6.568   0.339 -0.1273  0.5016  0.2227
  149MOL0     O19539   4.171   6.461   0.345 -0.1056  0.3929 -0.4538
  149MOL0     C19540   4.250   6.439   0.235 -0.5517  0.3230  0.2334
  149MOL0     C19541   4.388   6.484   0.246  0.1414  0.0134 -0.3166
  149MOL0     C19542   4.464   6.461   0.132  0.4643 -0.4066 -0.1071
  149MOL0     C19543   4.428   6.388   0.013  0.8187 -0.2694  0.0678
  149MOL0     O19544   4.507   6.373  -0.104 -0.3748  0.5841  0.1354
  149MOL0     C19545   4.646   6.363  -0.096 -0.3240 -0.3274 -0.0428
  149MOL0     C19546   4.718   6.405  -0.223  0.4855 -1.0323 -0.1441
  149MOL0     C19547   4.688   6.311  -0.344  1.0187  0.6115 -0.3522
  149MOL0     C19548   4.746   6.361  -0.472 -0.2608 -0.3746 -0.6482
  149MOL0     C19549   4.699   6.285  -0.603 -1.0755  0.4176  0.7648
  149MOL0     C19550   4.757   6.137  -0.604 -0.0554  0.7757 -0.0642
  149MOL0     C19551   4.714   6.060  -0.734 -0.2783  0.8293  0.9471
  149MOL0     C19552   4.816   6.076  -0.854 -0.3026  0.0788  0.2041
  149MOL0     N19553   4.796   5.976  -0.958  0.8194 -0.2037  0.1682
  149MOL0     C19554   4.676   5.977  -1.026  0.2898 -1.1734  0.5633
  149MOL0     C19555   4.672   5.861  -1.096  0.1663 -0.1132 -0.3666
  149MOL0     C19556   4.561   5.810  -1.188  0.2341  0.9339  0.6636
  149MOL0     C19557   4.423   5.820  -1.126  0.5602 -0.6333  0.9976
  149MOL0     C19558   4.316   5.760  -1.227  0.0886 -0.3193 -0.0657
  149MOL0     C19559   4.178   5.760  -1.167  1.4884 -0.8857 -0.0028
  149MOL0     O19560   4.176   5.674  -1.052  0.7289  0.2595  1.0044
  149MOL0     C19561   4.072   5.686  -0.968  0.4347  0.5160  0.5797
  149MOL0     C19562   4.086   5.641  -0.838 -0.3919 -0.2649  0.3185
  149MOL0     C19563   3.984   5.652  -0.745  0.8410  0.1499 -0.4142
  149MOL0     C19564   3.855   5.704  -0.788 -0.6933 -0.0875  0.1829
  149MOL0     C19565   3.748   5.715  -0.698 -0.4077 -1.1993  0.2936
  149MOL0     O19566   3.743   5.608  -0.604  0.1352 -0.4564 -0.5565
  149MOL0     C19567   3.626   5.598  -0.539  0.2826 -0.1644 -0.3350
  149MOL0     C19568   3.572   5.706  -0.471  0.1860  0.2943  0.1246
  149MOL0     C19569   3.440   5.691  -0.423 -0.1340 -0.4736 -0.4311
  149MOL0     C19570   3.368   5.578  -0.435  1.0747  0.7447  0.5598
  149MOL0     O19571   3.241   5.587  -0.383 -0.2109  0.5378  0.1279
  149MOL0     C19572   3.143   5.491  -0.432  1.1668  0.1762  0.3634
  149MOL0     C19573   3.074   5.549  -0.563 -0.1321 -0.0524 -0.0962
  149MOL0     C19574   3.048   5.701  -0.553  1.2119  0.0897 -0.4154
  149MOL0     C19575   2.973   5.749  -0.680 -0.3829  0.8056  0.0444
  149MOL0     C19576   2.896   5.877  -0.657 -0.2860 -0.6866  0.1403
  149MOL0     C19577   2.800   5.887  -0.539  0.6361  0.1595 -0.2508
  149MOL0     C19578   2.673   5.807  -0.551 -0.3891 -0.1681  0.6468
  149MOL0     C19579   2.593   5.818  -0.426 -0.7680  0.2471 -0.2700
  149MOL0    Cl19580   2.524   5.980  -0.457  0.0626  0.5065 -0.2802
  149MOL0     C19581   3.430   5.464  -0.499  0.5543 -0.5728  0.2777
  149MOL0     C19582   3.556   5.479  -0.562 -0.1446 -0.7425  0.5070
  149MOL0     O19583   3.676   5.813  -0.702  1.0703 -0.0027 -1.0324
  149MOL0     C19584   3.842   5.743  -0.922  0.9741 -0.0485 -0.3122
  149MOL0     C19585   3.945   5.740  -1.011 -0.2170  0.5830  0.2904
  149MOL0     N19586   4.794   5.803  -1.077 -0.8627 -0.0772 -0.2943
  149MOL0     N19587   4.869   5.863  -0.995 -0.6117 -0.5469 -0.4037
  149MOL0     C19588   4.298   6.340   0.016 -0.4144  0.4254  1.0926
  149MOL0     C19589   4.209   6.370   0.122  0.6980 -0.0610  0.0694
  149MOL0     C19590   4.026   6.616   0.465  0.6075  0.1478 -0.3880
  149MOL0     C19591   3.911   6.689   0.453  0.0405  0.1699 -0.7115
  149MOL0     C19592   3.853   6.737   0.574  0.5068 -0.6284 -0.1147
  149MOL0     C19593   3.913   6.714   0.692 -0.0034  0.5200  0.2407
  149MOL0     O19594   3.839   6.754   0.793  0.8650  0.9770 -0.4341
  149MOL0     C19595   3.891   6.761   0.928  0.4338  0.2368 -0.5342
  149MOL0     C19596   3.963   6.887   0.958  0.6134 -0.3696 -1.0929
  149MOL0     C19597   3.973   6.892   1.112 -0.2303  0.2123  0.7296
  149MOL0     C19598   4.064   6.999   1.146 -0.8122 -0.4635 -0.2019
  149MOL0     C19599   4.092   7.004   1.290  0.0538 -0.9605 -0.0723
  149MOL0     C19600   4.087   7.020   1.410  0.4232 -0.6250 -0.3611
  149MOL0     C19601   4.042   6.655   0.707 -0.1966  0.1125  0.0396
  149MOL0     C19602   4.092   6.593   0.587  0.2627 -0.2550  0.1354
  149MOL0     H19603   4.431   6.537   0.331  1.9975 -1.6689 -0.1379
  149MOL0     H19604   4.559   6.513   0.134  1.0472 -1.3576 -1.5504
  149MOL0     H19605   4.676   6.265  -0.060 -2.3246  0.0521  2.9990
  149MOL0     H19606   4.687   6.423  -0.014  0.3274 -0.6167 -0.1552
  149MOL0     H19607   4.827   6.401  -0.216  0.4898 -1.9620 -0.5700
  149MOL0     H19608   4.700   6.508  -0.255  3.5067 -0.2774  0.2705
  149MOL0     H19609   4.583   6.285  -0.358  0.6210  2.3477 -0.8634
  149MOL0     H19610   4.739   6.218  -0.318 -2.9143 -1.8094 -0.4673
  149MOL0     H19611   4.718   6.466  -0.486  1.1867  0.6202  2.8165
  149MOL0     H19612   4.855   6.358  -0.473 -0.1416  1.3627  0.7472
  149MOL0     H19613   4.746   6.333  -0.690  1.6728 -2.1519  0.6349
  149MOL0     H19614   4.592   6.292  -0.621 -0.8897 -2.5967 -2.9216
  149MOL0     H19615   4.720   6.082  -0.518  1.8998 -0.9018 -0.2115
  149MOL0     H19616   4.867   6.135  -0.604 -0.0147  0.7851 -2.1872
  149MOL0     H19617   4.704   5.952  -0.721  1.7671  0.6071  0.9675
  149MOL0     H19618   4.613   6.090  -0.764 -0.0393  1.7484  1.0458
  149MOL0     H19619   4.917   6.056  -0.819 -0.9484 -0.5120  1.8312
  149MOL0     H19620   4.807   6.173  -0.904  0.6969  0.0400 -0.0614
  149MOL0     H19621   4.590   6.042  -1.012  2.1169  1.2953  1.0075
  149MOL0     H19622   4.581   5.703  -1.200  2.1088  1.4552 -1.4833
  149MOL0     H19623   4.563   5.860  -1.285  3.3334 -1.4689 -0.6864
  149MOL0     H19624   4.404   5.918  -1.081 -1.1876 -0.0072 -0.9361
  149MOL0     H19625   4.418   5.761  -1.035 -0.6252  1.9678  2.7406
  149MOL0     H19626   4.313   5.828  -1.312  2.8439 -0.0460 -0.0256
  149MOL0     H19627   4.335   5.655  -1.249 -0.2024 -0.6328  1.0754
  149MOL0     H19628   4.105   5.725  -1.242 -1.3746  4.1858 -0.0160
  149MOL0     H19629   4.135   5.860  -1.160 -1.2687 -1.6981 -2.7088
  149MOL0     H19630   4.185   5.605  -0.813 -0.7866  0.0399  2.4891
  149MOL0     H19631   4.003   5.617  -0.643  1.6128 -0.0582 -0.6227
  149MOL0     H19632   3.618   5.801  -0.447 -0.1981  0.8116 -1.1210
  149MOL0     H19633   3.374   5.760  -0.372 -3.0972 -2.6615 -1.0267
  149MOL0     H19634   3.055   5.479  -0.367 -1.0463  2.5484 -1.9296
  149MOL0     H19635   3.191   5.394  -0.445 -1.3961 -1.0429 -0.7873
  149MOL0     H19636   2.991   5.486  -0.598 -2.1135  1.1970  2.1048
  149MOL0     H19637   3.157   5.537  -0.634  0.9255 -1.9527  1.3759
  149MOL0     H19638   3.142   5.755  -0.538  1.2089 -0.3350  1.4002
  149MOL0     H19639   2.990   5.713  -0.461 -1.1113 -0.1557 -1.7644
  149MOL0     H19640   3.050   5.759  -0.756 -2.0281  0.0279 -1.8272
  149MOL0     H19641   2.900   5.673  -0.712 -0.4642 -0.4474  2.8602
  149MOL0     H19642   2.851   5.900  -0.754  1.0721  0.3018 -0.2821
  149MOL0     H19643   2.960   5.961  -0.630  1.7214 -1.7959 -0.9862
  149MOL0     H19644   2.757   5.988  -0.547 -0.3457 -0.0990  1.3864
  149MOL0     H19645   2.860   5.895  -0.448  2.4377  0.8887 -1.4328
  149MOL0     H19646   2.604   5.846  -0.627 -0.1624  1.5664  1.3033
  149MOL0     H19647   2.708   5.708  -0.581  2.6104  1.2743 -1.0463
  149MOL0     H19648   2.658   5.803  -0.339 -0.6257 -2.1411 -0.7184
  149MOL0     H19649   2.510   5.748  -0.414 -1.0267  0.6804  0.5985
  149MOL0     H19650   3.387   5.369  -0.528  2.0376 -0.7427 -1.6250
  149MOL0     H19651   3.605   5.397  -0.613 -0.4543  0.1171 -1.2709
  149MOL0     H19652   3.751   5.788  -0.960  1.7891  0.3096 -1.9451
  149MOL0     H19653   3.934   5.783  -1.110 -1.2413  2.8683  1.3370
  149MOL0     H19654   4.254   6.301  -0.075  0.6138  0.6567  0.4798
  149MOL0     H19655   4.105   6.338   0.117  0.6652  0.2611 -2.2929
  149MOL0     H19656   3.871   6.713   0.355  1.5400 -3.2285 -2.2988
  149MOL0     H19657   3.758   6.787   0.563  0.1847 -1.7823 -4.4186
  149MOL0     H19658   3.952   6.674   0.956  0.6569  0.9822  1.4676
  149MOL0     H19659   3.803   6.750   0.991 -1.2013  1.0368 -2.5828
  149MOL0     H19660   4.061   6.871   0.913  0.5407 -4.5697 -0.1435
  149MOL0     H19661   3.902   6.969   0.917 -4.2038 -4.2285 -2.7411
  149MOL0     H19662   4.009   6.804   1.165  1.8868  2.1825  2.8577
  149MOL0     H19663   3.873   6.913   1.151 -0.1815 -0.5050  1.2417
  149MOL0     H19664   4.167   6.990   1.112 -0.2784  3.6487 -0.0959
  149MOL0     H19665   4.028   7.093   1.105  1.0825  0.1719 -0.4836
  149MOL0     H19666   4.084   7.042   1.515 -0.5974  1.5414 -0.7997
  149MOL0     H19667   4.091   6.647   0.803  0.4879 -3.2492 -0.4657
  149MOL0     H19668   4.183   6.533   0.585  1.2447  1.1903 -1.1962
  150MOL0     O19669   1.582   9.983  11.327 -0.3073  0.6501 -0.2000
  150MOL0     C19670   1.675  10.051  11.284 -0.3648  0.4676 -1.3528
  150MOL0     O19671   1.758  10.023  11.176 -0.3176 -0.2443  0.0911
  150MOL0     C19672   1.737   9.901  11.107  1.2303 -0.5283 -0.3071
  150MOL0     C19673   1.738   9.909  10.964  0.4979  0.0189 -0.4582
  150MOL0     C19674   1.710   9.806  10.877 -0.3086  0.2510  0.6471
  150MOL0     C19675   1.669   9.682  10.929 -0.1460 -0.6191  0.7012
  150MOL0     O19676   1.622   9.579  10.855 -0.9193 -0.1602 -0.1287
  150MOL0     C19677   1.629   9.581  10.710 -0.4276  0.5386 -0.4085
  150MOL0     C19678   1.535   9.453  10.675 -0.8321  0.0747 -0.0431
  150MOL0     C19679   1.596   9.323  10.716 -0.5945  1.1089 -0.3411
  150MOL0     C19680   1.487   9.216  10.742  0.1443 -0.0154  0.6388
  150MOL0     C19681   1.553   9.088  10.800  0.2359  0.2722  0.3049
  150MOL0     C19682   1.446   8.987  10.839  0.5065  0.0548 -0.1846
  150MOL0     C19683   1.490   8.865  10.910  0.1133 -0.7669 -0.1475
  150MOL0     C19684   1.385   8.750  10.915 -0.0151 -0.2609  0.1200
  150MOL0     N19685   1.260   8.811  10.955  0.4337 -0.9318  0.4647
  150MOL0     C19686   1.158   8.843  10.869 -0.1047  0.9267 -0.4927
  150MOL0     C19687   1.051   8.884  10.941 -0.4529  0.1912  0.6478
  150MOL0     C19688   0.922   8.897  10.868  0.8037 -0.5421  1.0204
  150MOL0     C19689   0.804   8.840  10.937  0.0262  0.1319  0.1538
  150MOL0     C19690   0.808   8.689  10.942  0.4830  0.4843 -0.5336
  150MOL0     C19691   0.668   8.631  10.931 -0.2905  0.2556  0.0292
  150MOL0     O19692   0.584   8.663  11.040 -0.3321 -0.0606 -0.5096
  150MOL0     C19693   0.474   8.581  11.063  0.0020  0.1347 -0.3870
  150MOL0     C19694   0.431   8.573  11.185  0.3802  0.0604 -0.8746
  150MOL0     C19695   0.331   8.487  11.214  0.3180  0.1228  0.2975
  150MOL0     C19696   0.259   8.415  11.119  0.5761 -0.6425  0.2239
  150MOL0     C19697   0.142   8.339  11.148  0.1649 -0.5626 -0.7714
  150MOL0     O19698   0.080   8.272  11.046  0.1031 -0.7102 -0.1317
  150MOL0     C19699  -0.029   8.187  11.062 -0.0246 -0.1804  0.8361
  150MOL0     C19700  -0.043   8.108  11.171 -0.2432 -0.3026  0.5074
  150MOL0     C19701  -0.148   8.015  11.180  0.5473  0.2059  0.0613
  150MOL0     C19702  -0.242   8.003  11.074 -0.2966  0.3360 -0.1587
  150MOL0     O19703  -0.333   7.903  11.089  0.1079 -0.0339  0.3392
  150MOL0     C19704  -0.445   7.880  11.001  0.3201 -0.3025  0.4811
  150MOL0     C19705  -0.430   7.755  10.922 -0.0912  0.3687  0.8414
  150MOL0     C19706  -0.560   7.698  10.863  0.3750 -0.7298  0.9084
  150MOL0     C19707  -0.538   7.565  10.794  0.7098  0.2533  0.7673
  150MOL0     C19708  -0.482   7.594  10.650 -0.2877 -0.0279  0.1299
  150MOL0     C19709  -0.448   7.467  10.572 -0.1296  0.4301  0.3771
  150MOL0     C19710  -0.419   7.463  10.424 -0.3513 -0.0298  0.4168
  150MOL0     C19711  -0.452   7.334  10.362  0.7829  1.4916 -0.4509
  150MOL0    Cl19712  -0.632   7.316  10.326  0.1233  0.4257 -0.7415
  150MOL0     C19713  -0.238   8.105  10.978 -0.0163 -0.2560  1.4584
  150MOL0     C19714  -0.138   8.198  10.971 -1.3700 -0.0173 -0.6024
  150MOL0     O19715   0.110   8.349  11.267 -0.2940 -0.0893  0.3215
  150MOL0     C19716   0.290   8.453  10.979  0.5575  0.6403  0.1471
  150MOL0     C19717   0.404   8.525  10.956 -1.1681  0.0150 -0.1919
  150MOL0     N19718   1.085   8.894  11.075 -0.4010  0.7704  0.0180
  150MOL0     N19719   1.216   8.856  11.078  0.0946  0.4276  0.6700
  150MOL0     C19720   1.669   9.666  11.068  0.4270  0.4054  0.0563
  150MOL0     C19721   1.700   9.776  11.155 -1.1932 -0.3104  0.8214
  150MOL0     C19722   1.680  10.190  11.337 -1.4376 -0.6549  0.6728
  150MOL0     C19723   1.601  10.234  11.441 -0.9768  0.3069 -0.0471
  150MOL0     C19724   1.632  10.359  11.503  0.9659  0.3040 -0.5500
  150MOL0     C19725   1.726  10.449  11.449  0.2031  0.0073  0.3054
  150MOL0     O19726   1.742  10.584  11.490  0.2757  0.2081 -0.5394
  150MOL0     C19727   1.634  10.638  11.573  0.3357  0.6798  0.0317
  150MOL0     C19728   1.642  10.786  11.574 -0.1807  0.0629 -0.6019
  150MOL0     C19729   1.617  10.851  11.437  0.0463  0.2500  1.0509
  150MOL0     C19730   1.614  11.003  11.460 -0.0406  0.3750  0.0810
  150MOL0     C19731   1.558  11.072  11.346  0.5496 -0.5760  0.5507
  150MOL0     C19732   1.504  11.150  11.268  0.8750 -0.6300  0.4164
  150MOL0     C19733   1.808  10.399  11.355  0.4075 -0.2700  0.1215
  150MOL0     C19734   1.792  10.271  11.293 -0.2997 -0.5454  0.1644
  150MOL0     H19735   1.772  10.003  10.921  0.7546 -1.0750 -2.8374
  150MOL0     H19736   1.710   9.837  10.773 -2.2926  2.4004  1.2054
  150MOL0     H19737   1.735   9.577  10.682 -0.1552 -1.0079  0.6959
  150MOL0     H19738   1.589   9.669  10.659  0.4418  1.0209 -0.2793
  150MOL0     H19739   1.503   9.452  10.570 -0.3714 -0.2048 -0.1851
  150MOL0     H19740   1.441   9.460  10.730 -1.6938 -1.4238 -1.2358
  150MOL0     H19741   1.644   9.352  10.810 -0.7874  5.1104 -1.3050
  150MOL0     H19742   1.662   9.288  10.636  0.4221  1.0100  0.5180
  150MOL0     H19743   1.412   9.240  10.817  1.1603  1.7014  1.1438
  150MOL0     H19744   1.430   9.200  10.649 -2.4394  2.8913  1.5693
  150MOL0     H19745   1.622   9.112  10.882 -0.0651  0.3397  0.5420
  150MOL0     H19746   1.619   9.038  10.729 -0.2179  0.2412 -0.1019
  150MOL0     H19747   1.384   8.959  10.753 -3.6517 -1.8680  3.1044
  150MOL0     H19748   1.377   9.042  10.903 -0.7192  1.5104 -2.5936
  150MOL0     H19749   1.582   8.825  10.867  1.3023  1.8892 -0.2732
  150MOL0     H19750   1.512   8.893  11.013  0.0522 -1.6594  0.1133
  150MOL0     H19751   1.424   8.675  10.984  0.9276 -0.4764 -0.6237
  150MOL0     H19752   1.390   8.700  10.818  1.5709 -0.4663  0.2830
  150MOL0     H19753   1.159   8.852  10.760 -0.7060 -2.2544 -0.8571
  150MOL0     H19754   0.917   8.843  10.773 -2.3696  0.1574  0.6905
  150MOL0     H19755   0.916   9.004  10.843 -2.1989 -0.6139  1.1591
  150MOL0     H19756   0.706   8.865  10.896 -1.0316 -3.6030  0.1047
  150MOL0     H19757   0.807   8.878  11.040 -0.1391  0.1614  0.1476
  150MOL0     H19758   0.867   8.648  10.859 -2.1037 -3.1456 -0.8124
  150MOL0     H19759   0.865   8.643  11.023 -1.8940 -0.5749  0.6256
  150MOL0     H19760   0.687   8.523  10.924  0.1836  0.2225  1.4995
  150MOL0     H19761   0.629   8.664  10.834 -2.4235 -2.5979 -0.2304
  150MOL0     H19762   0.476   8.635  11.262  1.1866 -1.0752 -0.4029
  150MOL0     H19763   0.304   8.473  11.319 -1.0342  1.2046  0.1245
  150MOL0     H19764   0.038   8.098  11.242  0.6503  0.1324 -0.4308
  150MOL0     H19765  -0.156   7.932  11.249 -0.2379 -3.4643 -3.9635
  150MOL0     H19766  -0.461   7.970  10.941 -3.1803  0.0329  1.6688
  150MOL0     H19767  -0.545   7.884  11.045 -0.0963  3.6874 -0.4808
  150MOL0     H19768  -0.383   7.683  10.989  1.2459  1.0193  0.6297
  150MOL0     H19769  -0.367   7.774  10.834  0.1419 -2.2465  0.3422
  150MOL0     H19770  -0.615   7.768  10.798  1.4649  0.3285  1.0786
  150MOL0     H19771  -0.628   7.677  10.946 -1.1550  0.1352 -0.0711
  150MOL0     H19772  -0.463   7.508  10.850 -1.2018 -0.7669  2.4167
  150MOL0     H19773  -0.632   7.510  10.788  1.2936 -0.6996 -0.0833
  150MOL0     H19774  -0.387   7.648  10.656  1.1638 -2.0450 -2.5705
  150MOL0     H19775  -0.560   7.650  10.598  0.8977  2.6169  1.0105
  150MOL0     H19776  -0.531   7.396  10.580 -0.9895  1.2646 -0.7120
  150MOL0     H19777  -0.364   7.424  10.628 -0.1610  0.3475  0.3613
  150MOL0     H19778  -0.463   7.554  10.384 -1.1547  0.8337  3.0113
  150MOL0     H19779  -0.310   7.471  10.431 -0.4756  1.0833  1.6032
  150MOL0     H19780  -0.420   7.253  10.429 -1.5906  0.0220 -0.9972
  150MOL0     H19781  -0.382   7.334  10.278  2.2213 -0.1592  0.6827
  150MOL0     H19782  -0.309   8.107  10.896  1.6708  3.0127 -0.1291
  150MOL0     H19783  -0.139   8.276  10.895 -1.0993 -1.1388 -1.8108
  150MOL0     H19784   0.239   8.423  10.888 -0.0162 -3.2308  1.5332
  150MOL0     H19785   0.434   8.545  10.854 -2.9088 -0.9422 -0.9424
  150MOL0     H19786   1.633   9.571  11.108 -1.4773 -0.4802 -3.3533
  150MOL0     H19787   1.696   9.767  11.263  2.9925 -0.0219  1.1564
  150MOL0     H19788   1.514  10.180  11.477 -1.0239 -0.3679 -1.1005
  150MOL0     H19789   1.569  10.386  11.587  0.8038 -0.9670 -0.2438
  150MOL0     H19790   1.646  10.610  11.678 -1.8456  1.1982  0.4644
  150MOL0     H19791   1.533  10.602  11.551  0.4923  0.0699  0.2947
  150MOL0     H19792   1.575  10.824  11.653  3.0829  0.2140  2.3239
  150MOL0     H19793   1.737  10.816  11.619 -0.6287  0.4312  0.1440
  150MOL0     H19794   1.518  10.821  11.402  1.3262 -0.9775 -1.8233
  150MOL0     H19795   1.688  10.824  11.359  1.5162 -0.5547  2.6125
  150MOL0     H19796   1.571  11.033  11.555  0.7148 -1.2086  0.9575
  150MOL0     H19797   1.714  11.046  11.462 -0.2430  1.0864  4.3641
  150MOL0     H19798   1.440  11.200  11.199 -2.7517  2.4501  5.3327
  150MOL0     H19799   1.893  10.462  11.328  0.9637 -0.7532  0.7036
  150MOL0     H19800   1.853  10.233  11.211 -0.3327  2.2183 -1.2638
  151MOL0     O19801   2.089   3.083  11.312 -0.4284 -0.5199  0.3786
  151MOL0     C19802   2.002   3.144  11.378 -0.0001 -0.1682 -0.1217
  151MOL0     O19803   2.016   3.264  11.433  0.0276  0.4134 -0.4566
  151MOL0     C19804   2.136   3.337  11.422  0.4165  0.8023 -0.0659
  151MOL0     C19805   2.243   3.324  11.328 -0.9044  0.4060  0.2580
  151MOL0     C19806   2.366   3.392  11.337 -0.1231  1.7300  0.1893
  151MOL0     C19807   2.384   3.473  11.456  0.0606  0.1601  0.4120
  151MOL0     O19808   2.499   3.552  11.456 -0.5280  0.3766  0.2659
  151MOL0     C19809   2.454   3.686  11.451 -1.2747  0.0276 -1.2090
  151MOL0     C19810   2.557   3.791  11.424 -0.4471  0.4252 -0.3400
  151MOL0     C19811   2.690   3.786  11.511  0.3916 -0.4381 -0.1819
  151MOL0     C19812   2.666   3.814  11.661  0.0054 -0.4293  0.2144
  151MOL0     C19813   2.796   3.782  11.747 -0.3203  0.1955  0.3702
  151MOL0     C19814   2.766   3.801  11.897  0.5519  0.4080  0.6316
  151MOL0     C19815   2.738   3.944  11.926  0.2952 -0.6764  0.1178
  151MOL0     C19816   2.850   4.038  11.893  0.9055 -0.4497 -0.5246
  151MOL0     N19817   2.813   4.172  11.928 -0.9516 -0.2381 -0.9988
  151MOL0     C19818   2.895   4.282  11.970  0.4259  1.0601  0.2336
  151MOL0     C19819   2.830   4.392  11.959  0.0190  0.1990 -0.3907
  151MOL0     C19820   2.893   4.530  11.979 -1.0025 -0.7767  0.5891
  151MOL0     C19821   2.879   4.591  12.127  0.1847 -0.2595  0.4724
  151MOL0     C19822   2.729   4.629  12.151 -0.1013 -0.5771 -0.1784
  151MOL0     C19823   2.729   4.713  12.278  0.1941 -0.2371  0.6811
  151MOL0     O19824   2.591   4.760  12.310  0.1675  0.5115  0.2293
  151MOL0     C19825   2.531   4.842  12.218 -0.4404 -0.3207 -0.5146
  151MOL0     C19826   2.451   4.790  12.121 -0.1184 -1.2330  0.3142
  151MOL0     C19827   2.403   4.876  12.028 -0.7107  0.6770 -0.2360
  151MOL0     C19828   2.427   5.018  12.035  0.2318  0.5280  0.9697
  151MOL0     C19829   2.370   5.103  11.929 -0.4360 -0.0385 -0.3343
  151MOL0     O19830   2.368   5.237  11.958  0.6732  0.3953 -0.2725
  151MOL0     C19831   2.304   5.346  11.899 -0.2407 -0.3244  0.8179
  151MOL0     C19832   2.191   5.334  11.810 -0.1831 -0.1408 -0.0531
  151MOL0     C19833   2.106   5.440  11.780  0.3544 -0.2400  0.5255
  151MOL0     C19834   2.127   5.567  11.835 -0.3883 -0.4254  0.7782
  151MOL0     O19835   2.030   5.666  11.827  0.0734 -0.3853  1.0146
  151MOL0     C19836   2.066   5.782  11.753  0.1569  0.2337 -0.6522
  151MOL0     C19837   2.041   5.899  11.842 -0.0924 -0.4148 -0.1124
  151MOL0     C19838   2.114   6.028  11.793 -0.8924  0.7850  0.7474
  151MOL0     C19839   2.047   6.152  11.850  0.2143  1.1530 -0.3117
  151MOL0     C19840   2.062   6.169  12.002  0.6393 -0.7087  0.7139
  151MOL0     C19841   1.975   6.287  12.044  0.1353 -0.5146  0.2173
  151MOL0     C19842   1.824   6.256  12.052 -1.1149  1.2454  0.1955
  151MOL0     C19843   1.751   6.383  12.110 -0.0570  0.2018  0.6115
  151MOL0    Cl19844   1.585   6.346  12.153  0.1212  0.2664  0.5591
  151MOL0     C19845   2.256   5.580  11.903  0.0871  0.0211 -0.3518
  151MOL0     C19846   2.338   5.477  11.933 -0.5001  0.3330  0.0294
  151MOL0     O19847   2.329   5.050  11.827  0.8870 -0.2623 -0.7305
  151MOL0     C19848   2.509   5.069  12.139 -0.1080  0.8216  0.0141
  151MOL0     C19849   2.556   4.972  12.232 -0.5042 -0.3873  0.6406
  151MOL0     N19850   2.695   4.363  11.931 -0.2801 -0.4416 -0.7228
  151MOL0     N19851   2.686   4.231  11.916  0.1083 -0.5129  0.5098
  151MOL0     C19852   2.278   3.488  11.548  0.1617 -1.3715 -0.2214
  151MOL0     C19853   2.161   3.418  11.533  0.2504  0.6360  0.2104
  151MOL0     C19854   1.874   3.073  11.389  0.6190 -0.8328 -0.0109
  151MOL0     C19855   1.846   2.955  11.322 -0.4714 -0.2235  0.8811
  151MOL0     C19856   1.732   2.888  11.353 -0.3832  0.6431 -0.0386
  151MOL0     C19857   1.636   2.920  11.453 -1.1455 -0.4224  1.1759
  151MOL0     O19858   1.530   2.847  11.483 -0.4598 -0.6769  0.0643
  151MOL0     C19859   1.475   2.746  11.402 -0.6271  0.7409  1.4419
  151MOL0     C19860   1.323   2.745  11.414  0.5275  0.6124 -0.0850
  151MOL0     C19861   1.263   2.890  11.430  0.2142 -0.1933 -0.2614
  151MOL0     C19862   1.271   2.950  11.563  0.3997  0.0451  0.1090
  151MOL0     C19863   1.167   3.047  11.576 -0.4041 -0.7859  0.0327
  151MOL0     C19864   1.089   3.142  11.581 -0.7199  0.2923  0.0975
  151MOL0     C19865   1.659   3.043  11.515 -0.1126  0.4126 -0.9718
  151MOL0     C19866   1.772   3.119  11.489  0.7271  0.3953  0.3518
  151MOL0     H19867   2.231   3.277  11.231  0.8459  3.5300 -1.6561
  151MOL0     H19868   2.444   3.394  11.262 -1.5886 -0.6715 -1.5367
  151MOL0     H19869   2.410   3.717  11.546 -0.7318  0.0821 -0.9745
  151MOL0     H19870   2.378   3.682  11.372  0.8367 -5.5158 -3.4799
  151MOL0     H19871   2.504   3.884  11.448  0.3436  0.3315  2.0017
  151MOL0     H19872   2.579   3.782  11.318 -1.8040  0.3702 -0.6335
  151MOL0     H19873   2.761   3.848  11.457  0.1315 -0.5766 -0.6891
  151MOL0     H19874   2.726   3.683  11.519 -2.9121 -1.5533  3.1129
  151MOL0     H19875   2.646   3.920  11.678 -2.8181 -1.2097  2.3968
  151MOL0     H19876   2.585   3.758  11.707 -0.8017 -0.1774 -0.8541
  151MOL0     H19877   2.890   3.832  11.720 -0.4168  1.4194  2.1105
  151MOL0     H19878   2.813   3.676  11.731  1.1515 -0.2537  3.9335
  151MOL0     H19879   2.842   3.767  11.968 -0.4695  1.1207  2.1301
  151MOL0     H19880   2.682   3.732  11.915  1.8677 -0.8962  2.0281
  151MOL0     H19881   2.653   3.990  11.876  0.1227 -2.9641 -1.8516
  151MOL0     H19882   2.728   3.955  12.034  0.5563  2.6450 -0.0810
  151MOL0     H19883   2.879   4.054  11.789  2.2035  1.9774  0.1350
  151MOL0     H19884   2.936   4.002  11.950  0.7137 -2.4048 -1.3828
  151MOL0     H19885   3.002   4.270  11.985  0.3842  1.5680  1.0231
  151MOL0     H19886   2.852   4.598  11.904  0.8871  1.7606  1.6984
  151MOL0     H19887   3.002   4.523  11.977 -0.8030  1.7315 -0.5025
  151MOL0     H19888   2.945   4.677  12.138  1.9133 -1.3459 -0.9544
  151MOL0     H19889   2.914   4.505  12.185 -1.4653 -1.4394 -0.2001
  151MOL0     H19890   2.685   4.686  12.068 -1.1932 -1.6198 -0.3597
  151MOL0     H19891   2.666   4.541  12.168  2.3021 -2.1588  1.0161
  151MOL0     H19892   2.798   4.791  12.245 -1.3440 -0.3264 -3.2716
  151MOL0     H19893   2.764   4.650  12.360 -0.8235 -3.0951 -0.9537
  151MOL0     H19894   2.422   4.686  12.110 -0.2073 -1.1311 -0.4710
  151MOL0     H19895   2.347   4.824  11.950  3.0050 -1.3627 -1.7929
  151MOL0     H19896   2.156   5.240  11.769 -1.5083 -0.8221  2.4285
  151MOL0     H19897   2.019   5.431  11.716  0.2629  1.6616  0.3315
  151MOL0     H19898   2.004   5.792  11.663 -1.5741  2.0076  0.6610
  151MOL0     H19899   2.172   5.789  11.724  1.0313  0.7590  2.3588
  151MOL0     H19900   2.081   5.882  11.942  0.6201  0.6193 -0.2029
  151MOL0     H19901   1.935   5.920  11.857  0.4566  2.0608  0.8647
  151MOL0     H19902   2.107   6.034  11.684 -0.6384 -0.9637  0.5982
  151MOL0     H19903   2.219   6.013  11.821 -0.4755  0.0309 -1.0377
  151MOL0     H19904   2.088   6.241  11.801  1.9361  0.5073 -0.0932
  151MOL0     H19905   1.941   6.160  11.822 -0.2815 -0.1047  1.0857
  151MOL0     H19906   2.168   6.180  12.028  1.8784  0.2375 -3.8254
  151MOL0     H19907   2.019   6.083  12.052  0.1070 -0.1074  1.3015
  151MOL0     H19908   1.978   6.357  11.960  1.5164 -3.8501 -2.7725
  151MOL0     H19909   2.010   6.324  12.141  1.8721 -1.2548 -0.0867
  151MOL0     H19910   1.793   6.227  11.951  0.1638 -4.1297  1.0596
  151MOL0     H19911   1.790   6.178  12.121 -1.1603  3.2236  2.5465
  151MOL0     H19912   1.740   6.464  12.038 -0.8962  1.1663  1.7818
  151MOL0     H19913   1.812   6.426  12.190  1.6620  0.9136 -0.9906
  151MOL0     H19914   2.275   5.677  11.949 -2.3726 -0.4893  1.9944
  151MOL0     H19915   2.436   5.499  11.974  0.4428 -1.8106 -0.9533
  151MOL0     H19916   2.529   5.175  12.145  0.5717  1.4101 -6.1628
  151MOL0     H19917   2.616   5.016  12.311  1.0156 -1.6686  0.2666
  151MOL0     H19918   2.287   3.556  11.632 -2.0919 -0.7247 -0.4474
  151MOL0     H19919   2.095   3.418  11.619  0.3047  1.3001  0.2615
  151MOL0     H19920   1.915   2.908  11.253 -1.5194  2.6207 -2.4136
  151MOL0     H19921   1.720   2.793  11.302 -1.3980  0.8782 -0.2696
  151MOL0     H19922   1.514   2.651  11.440  1.0578  0.6629 -0.3108
  151MOL0     H19923   1.506   2.754  11.297  0.6315  1.1273  1.8355
  151MOL0     H19924   1.280   2.695  11.326  1.7656  1.4619 -1.2031
  151MOL0     H19925   1.298   2.692  11.507 -1.0481  2.2347  0.4613
  151MOL0     H19926   1.156   2.888  11.409 -0.8572  0.1787  4.1950
  151MOL0     H19927   1.303   2.943  11.343  2.6413 -1.5835 -0.0919
  151MOL0     H19928   1.251   2.871  11.636 -1.2383 -1.7036 -2.1154
  151MOL0     H19929   1.369   2.995  11.582  2.4517 -2.6239 -3.0558
  151MOL0     H19930   1.009   3.211  11.598 -2.6791 -1.6076 -0.8816
  151MOL0     H19931   1.600   3.073  11.601 -0.3622 -2.7364  0.0602
  151MOL0     H19932   1.800   3.198  11.558 -0.2929  2.3790 -1.3858
  152MOL0     O19933   3.107   2.870   1.881  0.2242 -0.4950 -0.2271
  152MOL0     C19934   3.068   2.984   1.840  0.6141  0.0774 -0.1621
  152MOL0     O19935   2.975   3.070   1.905  0.1731  0.1082  0.8260
  152MOL0     C19936   2.862   3.019   1.970  0.4644 -0.0073  0.1902
  152MOL0     C19937   2.776   3.124   2.018 -0.2317 -0.7723 -0.2112
  152MOL0     C19938   2.659   3.088   2.089  0.1530 -0.3685 -0.6807
  152MOL0     C19939   2.643   2.952   2.140  0.1496 -0.0468  0.0037
  152MOL0     O19940   2.536   2.937   2.227  0.8735  0.3269 -0.4556
  152MOL0     C19941   2.519   2.808   2.282 -0.1633 -0.8287 -0.0998
  152MOL0     C19942   2.381   2.809   2.360  0.1854 -0.1660  0.2191
  152MOL0     C19943   2.256   2.808   2.265 -0.5133  0.4346  0.0913
  152MOL0     C19944   2.120   2.844   2.335  0.4324  0.1339  0.8367
  152MOL0     C19945   2.011   2.819   2.225  0.1331  0.2167  0.1308
  152MOL0     C19946   1.865   2.858   2.261 -1.0718 -0.2630 -1.2557
  152MOL0     C19947   1.864   3.009   2.283  0.8558  0.5560  1.2316
  152MOL0     C19948   1.749   3.038   2.382 -0.0019 -0.5181  0.2825
  152MOL0     N19949   1.730   3.188   2.382  1.3175 -0.3810 -0.0772
  152MOL0     C19950   1.821   3.286   2.350 -0.3226  0.0810  0.4123
  152MOL0     C19951   1.751   3.404   2.354  1.0456 -0.3235  0.1097
  152MOL0     C19952   1.785   3.551   2.339  0.5586  0.5463  1.4614
  152MOL0     C19953   1.692   3.635   2.247  0.1872 -0.1818 -0.3662
  152MOL0     C19954   1.559   3.680   2.313 -0.1065  0.4642  0.3855
  152MOL0     C19955   1.562   3.761   2.450 -0.7465 -0.9418 -0.8208
  152MOL0     O19956   1.642   3.874   2.444 -0.6534  0.4636  0.0481
  152MOL0     C19957   1.773   3.864   2.484 -0.1982 -0.6199 -0.4631
  152MOL0     C19958   1.880   3.890   2.399  0.3021  1.0686 -0.2163
  152MOL0     C19959   2.011   3.887   2.438  0.5966 -0.2558 -0.0087
  152MOL0     C19960   2.040   3.872   2.585  0.4543 -0.9015  0.9042
  152MOL0     C19961   2.187   3.871   2.619 -0.0957 -0.0954  1.0263
  152MOL0     O19962   2.275   3.915   2.521 -0.0503 -0.1200 -0.3928
  152MOL0     C19963   2.413   3.910   2.540 -0.1910  0.7018 -0.0319
  152MOL0     C19964   2.496   4.022   2.525 -0.5985 -0.5697  0.7386
  152MOL0     C19965   2.630   4.027   2.565  0.1339 -0.3474  0.1784
  152MOL0     C19966   2.692   3.911   2.602 -0.5079 -0.3875 -0.3246
  152MOL0     O19967   2.822   3.920   2.650  0.6222  0.9458  0.1597
  152MOL0     C19968   2.894   3.799   2.681  0.7186 -0.2557 -0.2711
  152MOL0     C19969   3.042   3.825   2.663  0.7023 -0.4067  0.2934
  152MOL0     C19970   3.063   3.879   2.523 -0.4340 -1.0181  0.2303
  152MOL0     C19971   3.015   3.791   2.396 -0.2792  0.1931  0.2735
  152MOL0     C19972   3.039   3.864   2.263  0.7476 -0.9498 -0.8606
  152MOL0     C19973   3.180   3.904   2.220 -0.1834  0.4670 -0.2128
  152MOL0     C19974   3.186   3.933   2.064  0.3086  0.6289  0.3048
  152MOL0     C19975   3.331   3.931   2.016 -0.7683  0.6947 -0.1441
  152MOL0    Cl19976   3.409   4.065   2.100 -0.3492  0.3487 -0.3827
  152MOL0     C19977   2.613   3.804   2.626  0.7789 -0.2038 -0.7158
  152MOL0     C19978   2.478   3.807   2.595 -0.3363 -0.0965 -0.1189
  152MOL0     O19979   2.218   3.865   2.738 -0.8769  0.3824  0.0738
  152MOL0     C19980   1.929   3.862   2.676  0.1959  0.4119  0.2920
  152MOL0     C19981   1.802   3.856   2.624  0.0280 -0.1142  0.2425
  152MOL0     N19982   1.615   3.368   2.385 -0.6044  0.4467 -0.6793
  152MOL0     N19983   1.605   3.242   2.406 -0.5212 -0.0255 -0.1677
  152MOL0     C19984   2.732   2.853   2.090  0.3547 -0.2936  0.4551
  152MOL0     C19985   2.834   2.886   1.999  0.6365 -0.9278 -0.2512
  152MOL0     C19986   3.136   3.028   1.711 -0.7954  0.0360  0.3301
  152MOL0     C19987   3.222   2.937   1.636 -0.0366  0.6871 -0.9064
  152MOL0     C19988   3.269   2.961   1.512 -0.6918 -0.5935  0.7241
  152MOL0     C19989   3.234   3.076   1.446  0.1714  0.6413  0.0916
  152MOL0     O19990   3.258   3.091   1.305  0.3730 -0.2152 -0.6671
  152MOL0     C19991   3.392   3.099   1.274 -1.0918  0.2468 -0.5015
  152MOL0     C19992   3.426   2.995   1.176  0.5367  0.0768  0.3610
  152MOL0     C19993   3.560   3.031   1.103  0.9128  0.5107  0.0638
  152MOL0     C19994   3.678   3.049   1.194 -1.0512  1.1257  1.7277
  152MOL0     C19995   3.804   3.087   1.123 -0.8357 -0.5957 -1.2232
  152MOL0     C19996   3.900   3.131   1.070 -1.0072  0.2534  0.0563
  152MOL0     C19997   3.147   3.165   1.512 -0.2101 -0.0415  0.0213
  152MOL0     C19998   3.092   3.138   1.642 -0.6544 -0.1986 -0.6379
  152MOL0     H19999   2.808   3.228   2.013 -0.6047 -0.6762 -0.7001
  152MOL0     H20000   2.595   3.169   2.122 -2.9405 -3.2302  0.8180
  152MOL0     H20001   2.601   2.789   2.352  1.2326  0.3496 -1.3273
  152MOL0     H20002   2.515   2.732   2.203 -0.6779  0.8143 -1.7249
  152MOL0     H20003   2.375   2.905   2.412  0.1822  1.1291 -2.0449
  152MOL0     H20004   2.367   2.733   2.437 -0.3773 -3.6264 -2.9896
  152MOL0     H20005   2.252   2.706   2.225  1.8597 -0.6585  2.3531
  152MOL0     H20006   2.279   2.876   2.183  4.8081 -1.8351 -0.7213
  152MOL0     H20007   2.100   2.783   2.424 -0.8353  0.7916  1.0242
  152MOL0     H20008   2.126   2.948   2.367 -1.8803  0.6097 -0.0685
  152MOL0     H20009   2.011   2.711   2.205 -0.6881 -0.0815  1.5855
  152MOL0     H20010   2.031   2.886   2.142 -0.3667 -1.1920 -1.1788
  152MOL0     H20011   1.830   2.818   2.356 -1.7006 -0.4519 -1.5631
  152MOL0     H20012   1.799   2.829   2.178  1.5707 -5.1009 -2.0268
  152MOL0     H20013   1.953   3.042   2.336  1.1746  3.9660 -1.1103
  152MOL0     H20014   1.847   3.068   2.192  1.2132 -1.0866  0.0512
  152MOL0     H20015   1.758   2.989   2.479  0.4817 -4.9867 -1.7772
  152MOL0     H20016   1.654   2.998   2.347  1.4019 -2.8661 -1.1074
  152MOL0     H20017   1.921   3.265   2.313 -1.0567 -0.0259 -1.6476
  152MOL0     H20018   1.888   3.556   2.303 -0.1175 -0.5844 -0.7974
  152MOL0     H20019   1.781   3.600   2.437  1.5063  1.8535  0.8757
  152MOL0     H20020   1.665   3.566   2.167 -1.3005 -0.4531  0.3256
  152MOL0     H20021   1.743   3.716   2.195  0.7211 -1.3466 -1.7346
  152MOL0     H20022   1.503   3.735   2.237  2.2165 -0.9078 -2.5031
  152MOL0     H20023   1.499   3.593   2.340  0.6220  0.4990  2.2772
  152MOL0     H20024   1.599   3.703   2.535 -1.1174  1.1184  0.8283
  152MOL0     H20025   1.462   3.791   2.484 -1.6578 -0.7732 -3.4303
  152MOL0     H20026   1.848   3.916   2.298  1.9122 -0.1054 -1.0862
  152MOL0     H20027   2.089   3.903   2.365  0.4046  1.1374  0.0783
  152MOL0     H20028   2.455   4.115   2.488  0.0765 -0.2919  0.6776
  152MOL0     H20029   2.687   4.119   2.564  2.7993 -1.9175  0.2068
  152MOL0     H20030   2.872   3.726   2.602 -0.6166  2.3962 -2.5543
  152MOL0     H20031   2.866   3.773   2.783 -0.5548 -0.3165 -0.6188
  152MOL0     H20032   3.105   3.736   2.669 -0.7488 -1.4358  1.0388
  152MOL0     H20033   3.065   3.905   2.734  1.3032  1.6584 -2.1160
  152MOL0     H20034   3.166   3.912   2.506 -1.6837  2.1085 -2.5267
  152MOL0     H20035   3.004   3.971   2.520  0.9580 -0.0751  0.7796
  152MOL0     H20036   3.064   3.694   2.384 -1.4357 -0.1187 -2.7812
  152MOL0     H20037   2.910   3.765   2.413 -0.2057 -0.9169 -0.8179
  152MOL0     H20038   2.978   3.954   2.279  0.0332 -1.3903 -1.0580
  152MOL0     H20039   2.995   3.808   2.180 -1.1959  0.8630 -1.1482
  152MOL0     H20040   3.242   3.817   2.244 -2.2150 -0.6029  1.5035
  152MOL0     H20041   3.209   3.997   2.269  1.8152 -0.6277  0.7687
  152MOL0     H20042   3.135   3.853   2.010 -0.4933  1.2729  0.0919
  152MOL0     H20043   3.139   4.029   2.039  0.6765  0.4029 -1.4290
  152MOL0     H20044   3.330   3.947   1.907  1.2953  1.0996 -0.1492
  152MOL0     H20045   3.383   3.841   2.049 -1.1593 -0.2102 -1.8645
  152MOL0     H20046   2.643   3.710   2.671  0.5211 -1.3007 -2.6926
  152MOL0     H20047   2.424   3.718   2.626  0.2457  0.1429  1.6383
  152MOL0     H20048   1.933   3.837   2.781 -1.6625  2.3040  0.8865
  152MOL0     H20049   1.744   3.817   2.707  1.6888 -1.4842  0.8346
  152MOL0     H20050   2.719   2.752   2.129 -1.3340 -0.6951 -1.0567
  152MOL0     H20051   2.904   2.807   1.974  2.1276 -0.3241  1.7924
  152MOL0     H20052   3.241   2.847   1.693  1.7560  2.9711  2.4429
  152MOL0     H20053   3.317   2.874   1.467 -2.7451 -1.4346  0.0254
  152MOL0     H20054   3.455   3.073   1.360  1.0542 -2.2932 -2.6590
  152MOL0     H20055   3.416   3.193   1.223  3.4582  0.8789  2.2402
  152MOL0     H20056   3.435   2.897   1.224 -1.2079  1.4919  3.8922
  152MOL0     H20057   3.353   2.979   1.096  0.4153 -0.8417  0.6477
  152MOL0     H20058   3.559   3.122   1.042  0.0747  1.4962  1.4972
  152MOL0     H20059   3.594   2.941   1.050  0.8909  1.6789 -2.0457
  152MOL0     H20060   3.657   3.116   1.278 -0.5408 -0.5063  3.2072
  152MOL0     H20061   3.695   2.952   1.241 -2.0459 -0.9026 -1.7283
  152MOL0     H20062   3.991   3.168   1.028  1.7681 -2.5660  2.9700
  152MOL0     H20063   3.120   3.248   1.448 -2.6851  0.0643  1.0976
  152MOL0     H20064   3.009   3.194   1.686  1.0703  1.2768  0.9015
  153MOL0     O20065   9.604   7.903   6.255  0.2849 -0.1566  0.9136
  153MOL0     C20066   9.533   7.863   6.344 -0.4789  0.2253 -0.1686
  153MOL0     O20067   9.450   7.754   6.334  0.6813  0.8857  0.2397
  153MOL0     C20068   9.414   7.690   6.218 -1.1583  0.5639 -0.2521
  153MOL0     C20069   9.445   7.732   6.081  0.7738 -0.2144 -0.6192
  153MOL0     C20070   9.393   7.647   5.978 -0.3699  0.5410 -0.2383
  153MOL0     C20071   9.320   7.537   6.006 -0.0303  0.5245  0.0197
  153MOL0     O20072   9.269   7.479   5.893 -0.4464 -0.1580 -0.5820
  153MOL0     C20073   9.274   7.336   5.890  0.8417  0.1317 -0.2080
  153MOL0     C20074   9.415   7.286   5.862  0.2929 -0.3942 -0.2307
  153MOL0     C20075   9.420   7.134   5.833  0.1071  0.3612 -0.1973
  153MOL0     C20076   9.547   7.093   5.745 -1.2342  0.2636  0.5700
  153MOL0     C20077   9.560   6.940   5.751  0.2983  0.4071 -0.0489
  153MOL0     C20078   9.698   6.885   5.707 -0.1015 -0.3590  0.7425
  153MOL0     C20079   9.712   6.727   5.701  0.2673  0.4081  0.1816
  153MOL0     C20080   9.631   6.657   5.816 -0.2629  0.3489 -1.2621
  153MOL0     N20081   9.628   6.513   5.828  0.4890 -0.0907  0.3299
  153MOL0     C20082   9.738   6.431   5.876 -0.2566 -0.2416  0.1244
  153MOL0     C20083   9.673   6.316   5.897  0.2597  0.3766 -0.1043
  153MOL0     C20084   9.730   6.188   5.962  0.2332  0.1164  0.0304
  153MOL0     C20085   9.679   6.151   6.107 -0.1550 -0.5130 -0.2740
  153MOL0     C20086   9.657   6.002   6.112 -0.4271 -0.5869  0.3945
  153MOL0     C20087   9.784   5.924   6.129 -0.0902  0.1092 -0.2568
  153MOL0     O20088   9.881   5.980   6.222  0.0202 -0.7288  0.2883
  153MOL0     C20089   9.922   5.897   6.330 -0.4781 -0.2673 -0.7734
  153MOL0     C20090   9.840   5.807   6.402 -0.5631 -0.1932 -0.3089
  153MOL0     C20091   9.901   5.725   6.500 -1.3379  0.3380 -0.3184
  153MOL0     C20092  10.044   5.726   6.518 -0.0006 -1.0674  0.9104
  153MOL0     C20093  10.106   5.641   6.619 -0.9855  0.1875  0.0113
  153MOL0     O20094  10.039   5.611   6.734  0.1950 -0.1161  0.6155
  153MOL0     C20095  10.112   5.540   6.829  0.5678 -0.9361 -1.0732
  153MOL0     C20096  10.242   5.586   6.871 -0.2902 -0.1521  0.1498
  153MOL0     C20097  10.310   5.508   6.959 -0.5319  0.1180  0.4724
  153MOL0     C20098  10.259   5.382   6.995  0.5174  0.0700 -0.7686
  153MOL0     O20099  10.329   5.296   7.082  1.0076 -0.0087  0.3671
  153MOL0     C20100  10.433   5.353   7.167  0.0115 -0.6293  0.6473
  153MOL0     C20101  10.487   5.235   7.242  0.0609 -0.9372  0.1232
  153MOL0     C20102  10.384   5.174   7.340  0.1424 -0.4097 -0.4227
  153MOL0     C20103  10.465   5.097   7.453 -0.7508 -0.6952  0.2785
  153MOL0     C20104  10.395   5.046   7.574  0.4142 -0.2560 -0.3731
  153MOL0     C20105  10.361   4.901   7.553  0.0162 -1.0118 -0.2825
  153MOL0     C20106  10.268   4.853   7.669 -0.0861 -0.2411 -0.4192
  153MOL0     C20107  10.326   4.867   7.819 -0.2949 -0.4185 -0.4142
  153MOL0    Cl20108  10.257   4.761   7.948 -0.1511  0.4225 -0.2804
  153MOL0     C20109  10.136   5.334   6.933  0.4888 -0.6437  0.1152
  153MOL0     C20110  10.062   5.411   6.846  0.6259  0.1968 -0.8993
  153MOL0     O20111  10.213   5.594   6.586 -1.2912  0.3332  0.1407
  153MOL0     C20112  10.121   5.815   6.440  0.1946 -0.0254  0.3526
  153MOL0     C20113  10.062   5.902   6.356  0.8921  0.0800  0.3273
  153MOL0     N20114   9.531   6.331   5.869 -0.3510 -0.2126  0.4840
  153MOL0     N20115   9.502   6.451   5.840 -0.2695 -0.6824  0.4253
  153MOL0     C20116   9.287   7.494   6.138 -0.6720 -0.7179  0.3975
  153MOL0     C20117   9.338   7.573   6.246 -0.0720  0.7504 -0.0048
  153MOL0     C20118   9.534   7.942   6.476 -0.0839 -0.5002 -0.2266
  153MOL0     C20119   9.446   7.899   6.578 -0.8511  0.8296  0.1549
  153MOL0     C20120   9.437   7.977   6.697 -0.7196 -0.2228 -0.9526
  153MOL0     C20121   9.511   8.095   6.703  0.5958  0.9488 -0.2266
  153MOL0     O20122   9.490   8.174   6.813 -0.3016 -0.5325 -0.4684
  153MOL0     C20123   9.594   8.141   6.915 -0.5947  0.3585  0.2791
  153MOL0     C20124   9.537   8.132   7.054  0.3593 -0.2290 -0.3936
  153MOL0     C20125   9.483   8.278   7.090  0.5052 -0.0043 -0.7834
  153MOL0     C20126   9.434   8.304   7.228  0.4188  0.7069  0.2826
  153MOL0     C20127   9.522   8.254   7.335  1.0421  1.2712 -0.7933
  153MOL0     C20128   9.583   8.207   7.425 -0.2210 -0.3757  0.8063
  153MOL0     C20129   9.603   8.130   6.608 -0.6821  0.2152  0.1336
  153MOL0     C20130   9.614   8.062   6.493  0.2508 -0.2552  1.2432
  153MOL0     H20131   9.506   7.820   6.066  0.5063  0.0354 -0.2588
  153MOL0     H20132   9.418   7.680   5.878 -1.8692  1.2356 -0.4057
  153MOL0     H20133   9.202   7.293   5.820 -1.0288  1.1107  1.0236
  153MOL0     H20134   9.241   7.283   5.980  0.5533 -2.9997 -2.0106
  153MOL0     H20135   9.487   7.303   5.943  0.0148 -1.5184  0.2810
  153MOL0     H20136   9.452   7.339   5.774  0.1938 -0.3995 -0.2751
  153MOL0     H20137   9.326   7.114   5.781 -0.0047  0.0755  0.1088
  153MOL0     H20138   9.412   7.076   5.925  0.0767  0.2001 -0.3032
  153MOL0     H20139   9.539   7.135   5.644 -2.4629  1.0869  0.9969
  153MOL0     H20140   9.638   7.140   5.784 -0.8515 -0.1584  0.2042
  153MOL0     H20141   9.478   6.917   5.683  1.6885 -1.4018 -1.1945
  153MOL0     H20142   9.539   6.900   5.851 -0.4080 -3.0325 -1.4315
  153MOL0     H20143   9.773   6.940   5.764 -1.7453  2.3633  0.4600
  153MOL0     H20144   9.703   6.920   5.603 -4.2392 -0.6528  0.3104
  153MOL0     H20145   9.658   6.689   5.614 -3.0586  0.0053  2.2721
  153MOL0     H20146   9.820   6.707   5.696  0.4584  1.3585  0.3012
  153MOL0     H20147   9.526   6.687   5.805 -1.0252 -0.5534  2.2835
  153MOL0     H20148   9.660   6.696   5.914 -4.6460  1.1381 -0.0343
  153MOL0     H20149   9.843   6.456   5.875 -0.2747  0.1478  2.4754
  153MOL0     H20150   9.839   6.191   5.947  0.5877 -2.9387  1.2516
  153MOL0     H20151   9.703   6.105   5.897  0.2568  0.8740 -0.9843
  153MOL0     H20152   9.582   6.195   6.131  1.1031  2.3950 -0.1048
  153MOL0     H20153   9.759   6.190   6.171  3.5183 -0.3389 -4.3990
  153MOL0     H20154   9.601   5.972   6.201  1.2030 -0.3174  1.5567
  153MOL0     H20155   9.611   5.960   6.022  0.1785 -1.3001  0.3988
  153MOL0     H20156   9.840   5.916   6.035 -0.1795 -2.1836 -0.1728
  153MOL0     H20157   9.758   5.821   6.155 -1.7566  1.4207  4.3730
  153MOL0     H20158   9.732   5.809   6.399 -0.5556  0.8905 -0.2094
  153MOL0     H20159   9.855   5.636   6.542 -0.4026  0.6882  1.5636
  153MOL0     H20160  10.283   5.684   6.849  1.1578 -0.5197  1.0419
  153MOL0     H20161  10.405   5.551   6.989 -1.1661  0.3481  2.2768
  153MOL0     H20162  10.406   5.434   7.235  2.2421 -1.0650  2.1738
  153MOL0     H20163  10.512   5.388   7.101 -1.1377  1.1315  0.1432
  153MOL0     H20164  10.561   5.288   7.302 -1.8979  1.2578  0.7527
  153MOL0     H20165  10.534   5.164   7.173 -2.0856 -2.6039  0.2700
  153MOL0     H20166  10.320   5.108   7.281  0.0735  1.1956 -2.2488
  153MOL0     H20167  10.320   5.254   7.378 -1.6217 -2.1719  0.4567
  153MOL0     H20168  10.505   5.009   7.402 -3.8465 -2.3651  0.4890
  153MOL0     H20169  10.554   5.150   7.487 -0.5473 -0.5042 -0.5286
  153MOL0     H20170  10.311   5.115   7.592  1.8305  2.2032 -2.4226
  153MOL0     H20171  10.466   5.052   7.656  0.4464 -2.5297 -0.1773
  153MOL0     H20172  10.451   4.843   7.534  1.3431  0.5612  0.8996
  153MOL0     H20173  10.308   4.887   7.458 -0.6785 -0.2463 -0.0226
  153MOL0     H20174  10.167   4.894   7.656 -0.6802 -1.9577 -1.6019
  153MOL0     H20175  10.260   4.745   7.653  5.9922 -1.3864  1.5942
  153MOL0     H20176  10.322   4.973   7.845  2.8802 -0.3959  0.3398
  153MOL0     H20177  10.434   4.848   7.817  0.1417 -0.2280  5.3231
  153MOL0     H20178  10.106   5.239   6.977  0.0462  0.1357  1.5358
  153MOL0     H20179   9.969   5.368   6.810 -1.0512 -0.0001  3.1865
  153MOL0     H20180  10.227   5.829   6.457  0.0922  1.8705 -0.3924
  153MOL0     H20181  10.104   5.983   6.297 -1.6698 -1.1367 -3.6027
  153MOL0     H20182   9.237   7.399   6.151  2.2250 -2.3156  0.8988
  153MOL0     H20183   9.306   7.546   6.346 -0.6847  0.3385 -0.3055
  153MOL0     H20184   9.398   7.802   6.572  2.6099 -1.1746  1.7587
  153MOL0     H20185   9.382   7.931   6.777  2.8433 -3.1921  0.0599
  153MOL0     H20186   9.676   8.212   6.924  3.4739 -3.2989 -3.0867
  153MOL0     H20187   9.638   8.043   6.894 -1.7109 -0.6707  2.4572
  153MOL0     H20188   9.462   8.053   7.056  1.6238 -1.4548  0.9392
  153MOL0     H20189   9.618   8.098   7.118  0.1699  0.9974  0.5259
  153MOL0     H20190   9.397   8.291   7.024 -3.1999 -3.0080  2.9942
  153MOL0     H20191   9.563   8.350   7.065  0.7100 -0.1344 -0.5074
  153MOL0     H20192   9.418   8.410   7.245  0.1363  1.4915 -3.7530
  153MOL0     H20193   9.331   8.267   7.232 -0.3426  2.3735 -1.7829
  153MOL0     H20194   9.648   8.176   7.504  2.5411  1.4355 -0.5957
  153MOL0     H20195   9.665   8.216   6.635 -2.3939  1.3162  0.7191
  153MOL0     H20196   9.685   8.103   6.422  0.8265 -1.3359  1.1758
  154MOL0     O20197   8.186   2.703   2.590  0.3322  0.5948  0.4332
  154MOL0     C20198   8.179   2.685   2.461  0.6033  0.4415  0.1900
  154MOL0     O20199   8.163   2.554   2.398  0.6050 -0.9470 -0.2330
  154MOL0     C20200   8.158   2.438   2.463  0.5417  0.4564  0.4011
  154MOL0     C20201   8.235   2.404   2.570 -0.7930  1.3704  0.6694
  154MOL0     C20202   8.233   2.274   2.635  0.1832  0.0347  1.2308
  154MOL0     C20203   8.150   2.181   2.571  0.0425 -0.6944  0.2562
  154MOL0     O20204   8.154   2.059   2.626  0.9180 -0.0564 -0.3221
  154MOL0     C20205   8.020   1.997   2.658  0.9032  0.0223 -0.3945
  154MOL0     C20206   7.964   2.050   2.794 -0.6624 -0.1430  0.3799
  154MOL0     C20207   8.037   2.004   2.917 -0.2551 -0.3788 -0.1870
  154MOL0     C20208   7.948   2.051   3.030 -0.9443 -1.4870  0.3402
  154MOL0     C20209   8.044   2.066   3.156 -0.6459  0.4931  0.1778
  154MOL0     C20210   7.966   2.140   3.262 -0.1653  0.1670 -1.0631
  154MOL0     C20211   7.835   2.066   3.315  0.6675  0.5279 -0.8758
  154MOL0     C20212   7.719   2.141   3.386  0.1161  0.1463 -0.0138
  154MOL0     N20213   7.766   2.226   3.495  0.1741  0.0787  0.6356
  154MOL0     C20214   7.675   2.293   3.573 -1.1569 -0.1448 -0.5546
  154MOL0     C20215   7.753   2.328   3.676  0.5435  0.6990 -0.8130
  154MOL0     C20216   7.707   2.419   3.782  0.6523  0.3203 -0.3892
  154MOL0     C20217   7.701   2.557   3.741 -0.5186 -1.0354  0.7282
  154MOL0     C20218   7.643   2.628   3.866  0.1540 -0.1398 -0.3082
  154MOL0     C20219   7.610   2.780   3.846 -0.9861 -0.1897  0.7187
  154MOL0     O20220   7.569   2.845   3.969  1.0463 -0.0844 -0.9933
  154MOL0     C20221   7.628   2.960   4.018  0.0230  0.4332  0.4781
  154MOL0     C20222   7.594   3.006   4.142  0.1693 -0.0785 -0.2457
  154MOL0     C20223   7.647   3.120   4.204  0.0506 -0.6867  0.4171
  154MOL0     C20224   7.739   3.201   4.139 -1.1515  0.6263  0.0652
  154MOL0     C20225   7.786   3.329   4.198  0.6937  0.1771 -0.1202
  154MOL0     O20226   7.746   3.357   4.321  0.0480  0.0354  0.0078
  154MOL0     C20227   7.772   3.483   4.370  0.3230  0.0969 -0.7335
  154MOL0     C20228   7.670   3.563   4.417  0.2313 -0.8120  0.0047
  154MOL0     C20229   7.697   3.671   4.499 -1.3323  0.9059  0.3234
  154MOL0     C20230   7.829   3.713   4.526 -0.3869 -0.3991  0.6841
  154MOL0     O20231   7.843   3.812   4.614  0.4357 -0.0371  0.3720
  154MOL0     C20232   7.875   3.930   4.542 -0.6041 -1.1709 -0.7498
  154MOL0     C20233   7.897   4.037   4.637  0.1797  0.4846 -0.0476
  154MOL0     C20234   7.923   4.170   4.558 -0.5014  0.6463 -0.0507
  154MOL0     C20235   7.927   4.290   4.646 -0.2347 -0.2964  0.7178
  154MOL0     C20236   7.960   4.421   4.562 -0.1305 -0.3240 -0.1434
  154MOL0     C20237   7.983   4.539   4.658 -0.2865  0.3168  1.0836
  154MOL0     C20238   7.863   4.594   4.738 -0.1583 -0.4757  0.4969
  154MOL0     C20239   7.810   4.728   4.687 -0.5025  0.4833  0.4557
  154MOL0    Cl20240   7.716   4.778   4.831  0.0280  0.1043  0.2917
  154MOL0     C20241   7.938   3.638   4.465 -0.6107 -0.0155 -0.1498
  154MOL0     C20242   7.912   3.521   4.392  0.3365  0.1394  0.0950
  154MOL0     O20243   7.852   3.406   4.129 -0.1514  0.4256  0.1401
  154MOL0     C20244   7.779   3.153   4.003 -0.6316 -0.5722 -0.1017
  154MOL0     C20245   7.736   3.034   3.951 -0.4810  0.1995  0.5577
  154MOL0     N20246   7.876   2.275   3.663  0.2758  0.0311  0.7434
  154MOL0     N20247   7.886   2.200   3.562  0.0199  0.0864 -1.3650
  154MOL0     C20248   8.062   2.224   2.470  0.5105 -0.1809 -0.3700
  154MOL0     C20249   8.069   2.347   2.410 -0.9653 -1.0351  0.2798
  154MOL0     C20250   8.209   2.798   2.378 -0.4596  0.0672  0.6895
  154MOL0     C20251   8.226   2.773   2.239  0.7155 -0.1255 -0.0464
  154MOL0     C20252   8.269   2.874   2.156 -1.1762  0.5328  0.5946
  154MOL0     C20253   8.292   3.004   2.209  0.2727  0.2988 -0.0471
  154MOL0     O20254   8.341   3.112   2.133  0.4043 -0.7943 -0.0414
  154MOL0     C20255   8.387   3.082   2.009 -0.6364 -0.1543 -0.1867
  154MOL0     C20256   8.414   3.215   1.933 -0.2373  1.1958  0.5515
  154MOL0     C20257   8.288   3.303   1.918  0.2628 -0.3452  0.4976
  154MOL0     C20258   8.176   3.246   1.843  0.0352  1.2281 -0.1860
  154MOL0     C20259   8.204   3.202   1.712  0.1635 -0.1291  0.0475
  154MOL0     C20260   8.235   3.169   1.600  0.1183  0.4425  0.6107
  154MOL0     C20261   8.282   3.019   2.349 -0.8097 -0.5898  0.4955
  154MOL0     C20262   8.239   2.919   2.435  0.0703  0.6566 -0.2148
  154MOL0     H20263   8.302   2.474   2.618  0.6161 -2.4871  5.0353
  154MOL0     H20264   8.305   2.260   2.714  1.0485  0.6740  0.5777
  154MOL0     H20265   8.042   1.893   2.682  0.9765  0.0858 -0.1787
  154MOL0     H20266   7.944   2.005   2.580 -1.7335  0.7411  2.0615
  154MOL0     H20267   7.857   2.031   2.803 -0.6276 -1.6639 -1.6974
  154MOL0     H20268   7.979   2.158   2.799  1.9042 -0.2167 -2.2448
  154MOL0     H20269   8.137   2.047   2.910  0.2695 -1.8185 -2.8256
  154MOL0     H20270   8.051   1.896   2.927 -0.4603 -0.3925 -0.0268
  154MOL0     H20271   7.898   2.147   3.017  1.6656 -0.2419 -1.3719
  154MOL0     H20272   7.872   1.972   3.033 -2.3988 -0.3418 -2.6351
  154MOL0     H20273   8.143   2.108   3.136 -0.8178 -0.1182 -2.3837
  154MOL0     H20274   8.065   1.962   3.182  1.7678  0.4503 -1.5820
  154MOL0     H20275   7.926   2.235   3.227 -1.2861  1.1648  2.4758
  154MOL0     H20276   8.036   2.169   3.341  0.8935 -1.3542 -1.4015
  154MOL0     H20277   7.799   2.005   3.232  2.2576 -0.7504 -0.6664
  154MOL0     H20278   7.866   1.995   3.392 -0.8668  0.3250 -0.4070
  154MOL0     H20279   7.646   2.072   3.429 -1.4432  0.3879 -2.0757
  154MOL0     H20280   7.667   2.195   3.306 -1.9820 -2.9075 -0.8708
  154MOL0     H20281   7.578   2.338   3.556  0.6521  4.1631 -0.9542
  154MOL0     H20282   7.786   2.412   3.858 -0.3482  1.4424  0.8055
  154MOL0     H20283   7.609   2.390   3.819 -0.5859  2.9194 -1.3398
  154MOL0     H20284   7.643   2.573   3.649 -1.3654 -2.3325  1.0114
  154MOL0     H20285   7.803   2.593   3.723 -0.7689 -0.3683  0.5822
  154MOL0     H20286   7.552   2.572   3.894  1.4692 -0.4985  4.0850
  154MOL0     H20287   7.717   2.619   3.946  0.1661 -0.6656 -0.3699
  154MOL0     H20288   7.520   2.796   3.786  0.8738  1.0211 -1.9308
  154MOL0     H20289   7.691   2.823   3.787 -0.9367  2.4842  2.5808
  154MOL0     H20290   7.522   2.945   4.196  0.0850  0.3543  0.1328
  154MOL0     H20291   7.624   3.162   4.301  0.7848  2.1668 -0.5358
  154MOL0     H20292   7.567   3.533   4.404 -1.0863  3.5610 -1.4685
  154MOL0     H20293   7.617   3.728   4.546 -1.1814  0.8634  0.6410
  154MOL0     H20294   7.793   3.954   4.474  0.4311  0.9637 -1.3386
  154MOL0     H20295   7.968   3.916   4.486 -1.7832 -1.2858 -2.7917
  154MOL0     H20296   7.981   4.009   4.701 -0.7434  1.2757  1.5521
  154MOL0     H20297   7.811   4.053   4.702 -2.1132 -0.5658 -2.5798
  154MOL0     H20298   7.841   4.188   4.488  0.1388  2.6213 -0.3599
  154MOL0     H20299   8.017   4.161   4.502  0.9021 -1.2606  2.3723
  154MOL0     H20300   7.831   4.304   4.696  0.2127  5.6740  0.5462
  154MOL0     H20301   8.010   4.276   4.717  1.6177 -0.6233 -1.3920
  154MOL0     H20302   7.885   4.434   4.483 -2.1881  0.8512  1.8555
  154MOL0     H20303   8.063   4.418   4.527  0.0034  2.3960 -0.1896
  154MOL0     H20304   8.028   4.625   4.608 -2.2191  1.9885  2.0564
  154MOL0     H20305   8.062   4.499   4.721  1.4576  1.4414 -0.3036
  154MOL0     H20306   7.793   4.514   4.762 -0.0507 -0.3688  1.1988
  154MOL0     H20307   7.900   4.606   4.841  2.7595 -0.9292 -0.3942
  154MOL0     H20308   7.738   4.720   4.605  0.9427  1.9719 -1.0424
  154MOL0     H20309   7.892   4.795   4.660 -1.7179  1.6462 -0.5378
  154MOL0     H20310   8.044   3.662   4.469 -0.8650  0.9584  2.4316
  154MOL0     H20311   7.991   3.456   4.357 -0.4849 -1.6632  1.4123
  154MOL0     H20312   7.842   3.216   3.942  0.2330 -2.2508 -1.0042
  154MOL0     H20313   7.767   3.005   3.851 -1.1671 -0.2360  0.4629
  154MOL0     H20314   7.992   2.152   2.429 -1.2501  1.1661  0.1728
  154MOL0     H20315   8.016   2.378   2.321 -2.3563 -0.5251  1.2454
  154MOL0     H20316   8.213   2.671   2.202  1.8402 -0.3783  0.2128
  154MOL0     H20317   8.280   2.855   2.050 -2.4097 -1.9449  0.8289
  154MOL0     H20318   8.319   3.023   1.947 -0.3931  0.9815 -1.6109
  154MOL0     H20319   8.483   3.030   2.001  0.8580  2.6537 -5.0343
  154MOL0     H20320   8.494   3.263   1.991  2.0022  0.9987 -2.1375
  154MOL0     H20321   8.459   3.197   1.834 -2.6725 -1.0512 -0.2532
  154MOL0     H20322   8.314   3.399   1.872 -2.5764 -0.1972 -1.0261
  154MOL0     H20323   8.247   3.325   2.017 -1.0739 -1.9383  0.3322
  154MOL0     H20324   8.156   3.153   1.897  0.2751  0.6729 -1.0243
  154MOL0     H20325   8.082   3.302   1.838  1.3785  3.5394 -3.5840
  154MOL0     H20326   8.266   3.139   1.502  1.6760  0.0228  1.1925
  154MOL0     H20327   8.313   3.108   2.401  1.0302 -0.7700 -0.2270
  154MOL0     H20328   8.205   2.942   2.536 -0.7293 -2.3128  0.2717
  155MOL0     O20329   1.135   2.466  11.293 -0.2226  0.0407  0.5258
  155MOL0     C20330   1.050   2.554  11.291 -0.1840 -0.5590  0.2014
  155MOL0     O20331   0.986   2.599  11.181  0.6000 -0.0526  1.4042
  155MOL0     C20332   1.024   2.583  11.050  0.7442 -0.2186  0.0853
  155MOL0     C20333   1.152   2.548  11.009  1.1882 -0.1136 -0.0941
  155MOL0     C20334   1.183   2.545  10.872 -0.3623  1.4652 -1.1865
  155MOL0     C20335   1.078   2.577  10.777 -0.0866  0.5988  0.7850
  155MOL0     O20336   1.080   2.540  10.639  0.3359 -0.1754  0.0586
  155MOL0     C20337   1.210   2.513  10.567  0.7415  0.7247 -0.9475
  155MOL0     C20338   1.160   2.429  10.443 -0.1029 -0.4529  0.4612
  155MOL0     C20339   1.062   2.507  10.351  0.1026  0.0632 -0.1061
  155MOL0     C20340   1.029   2.423  10.228  0.6738  0.6339  0.3642
  155MOL0     C20341   0.931   2.494  10.138  0.3904 -0.1909 -0.1690
  155MOL0     C20342   0.924   2.433   9.998 -0.3911 -0.0847 -0.2045
  155MOL0     C20343   0.854   2.528   9.897 -0.0229 -0.9875 -0.3348
  155MOL0     C20344   0.964   2.628   9.857  0.0399 -0.3715 -0.2202
  155MOL0     N20345   0.924   2.773   9.841  0.5963  0.0284  0.0123
  155MOL0     C20346   0.853   2.852   9.930  0.1945 -0.7647 -1.0426
  155MOL0     C20347   0.824   2.969   9.863  0.5356 -0.9351 -0.1350
  155MOL0     C20348   0.738   3.083   9.901 -0.9196 -0.6745  0.1661
  155MOL0     C20349   0.797   3.221   9.871 -0.4690 -0.4602  0.1429
  155MOL0     C20350   0.940   3.235   9.925 -0.8013 -0.7922  0.6174
  155MOL0     C20351   0.948   3.221  10.076  0.1932  1.0061  0.2195
  155MOL0     O20352   0.844   3.298  10.133 -0.3653 -0.1504  0.9828
  155MOL0     C20353   0.832   3.316  10.268 -1.2277 -0.3605 -0.3746
  155MOL0     C20354   0.705   3.357  10.307  0.4213  0.4088 -0.1215
  155MOL0     C20355   0.681   3.394  10.436  0.6188 -0.1069 -0.5479
  155MOL0     C20356   0.781   3.376  10.530  0.4494 -0.1254 -0.1155
  155MOL0     C20357   0.757   3.404  10.672 -0.2809  0.4622  0.5927
  155MOL0     O20358   0.859   3.383  10.761 -0.0549 -0.1881  0.1313
  155MOL0     C20359   0.840   3.395  10.900 -0.5194  0.1346 -0.3256
  155MOL0     C20360   0.720   3.339  10.967  0.2509 -1.5493  1.6308
  155MOL0     C20361   0.697   3.369  11.100 -0.2050 -0.8765 -0.0282
  155MOL0     C20362   0.792   3.448  11.164  0.3177 -0.5391 -0.1115
  155MOL0     O20363   0.759   3.480  11.284 -0.0819  0.5109 -0.1552
  155MOL0     C20364   0.633   3.563  11.303  0.3371 -0.8958  0.3056
  155MOL0     C20365   0.627   3.614  11.448 -0.5146 -0.1771 -0.9348
  155MOL0     C20366   0.523   3.723  11.479 -0.1236  1.1151 -0.2135
  155MOL0     C20367   0.550   3.854  11.390  0.9749 -0.5318 -0.1653
  155MOL0     C20368   0.492   3.981  11.444  0.3158 -1.1070  0.2953
  155MOL0     C20369   0.545   4.098  11.358 -0.8442 -0.5663 -0.1018
  155MOL0     C20370   0.495   4.238  11.412  0.0571  0.6185  0.0158
  155MOL0     C20371   0.563   4.275  11.538  0.2958  0.2999 -0.8011
  155MOL0    Cl20372   0.713   4.344  11.502  0.2333  0.5770  0.1784
  155MOL0     C20373   0.918   3.493  11.115  0.0723 -0.0899  0.8560
  155MOL0     C20374   0.938   3.468  10.977 -0.3683  1.9259 -0.2549
  155MOL0     O20375   0.645   3.454  10.702  0.1470 -0.5092 -0.0743
  155MOL0     C20376   0.914   3.339  10.493  0.6712  0.4895  0.1465
  155MOL0     C20377   0.935   3.313  10.361 -0.4093 -0.0224 -0.3499
  155MOL0     N20378   0.891   2.960   9.741 -0.1950 -0.5535  0.4764
  155MOL0     N20379   0.929   2.847   9.725  0.5920  0.6264 -0.0510
  155MOL0     C20380   0.952   2.607  10.820  0.7423  1.3895 -0.4216
  155MOL0     C20381   0.925   2.603  10.952 -1.1179 -0.1598  0.6857
  155MOL0     C20382   1.007   2.608  11.420  0.7021  0.2692  0.7189
  155MOL0     C20383   1.018   2.535  11.548 -0.8774  0.4314 -0.5654
  155MOL0     C20384   0.968   2.593  11.664  0.2504 -1.2368  0.2332
  155MOL0     C20385   0.905   2.719  11.658 -0.9739  0.5135  1.0630
  155MOL0     O20386   0.850   2.766  11.781 -0.0201  0.3667  0.5359
  155MOL0     C20387   0.804   2.896  11.782 -0.1181  0.3635  0.0585
  155MOL0     C20388   0.795   2.954  11.922  0.6992 -0.3050 -0.6564
  155MOL0     C20389   0.931   2.978  11.990 -0.3321  0.4315  0.5872
  155MOL0     C20390   1.020   2.850  12.004 -0.4991  0.1040  0.3948
  155MOL0     C20391   0.958   2.755  12.097 -0.0846  0.0765 -1.3471
  155MOL0     C20392   0.883   2.682  12.166  0.3294 -0.3861  0.4311
  155MOL0     C20393   0.903   2.782  11.536 -0.1140 -0.5313  0.3021
  155MOL0     C20394   0.949   2.733  11.419 -0.3319 -0.3946 -0.4001
  155MOL0     H20395   1.230   2.516  11.077  0.0426 -0.9960  0.8470
  155MOL0     H20396   1.279   2.515  10.832 -0.5327  1.1506 -1.3614
  155MOL0     H20397   1.279   2.447  10.621 -1.0357  0.0883  0.6537
  155MOL0     H20398   1.258   2.607  10.539  2.6053 -0.6959 -2.9209
  155MOL0     H20399   1.101   2.349  10.487  0.4563 -1.4516 -0.5771
  155MOL0     H20400   1.245   2.395  10.383 -1.2081 -1.3462 -0.6257
  155MOL0     H20401   1.096   2.606  10.320 -0.4203 -0.7570 -3.7975
  155MOL0     H20402   0.966   2.520  10.402  0.4947 -1.1944  1.0239
  155MOL0     H20403   1.117   2.401  10.168 -2.6885  0.8838 -5.3369
  155MOL0     H20404   0.978   2.337  10.272  0.1116  1.7702  2.0620
  155MOL0     H20405   0.963   2.598  10.125  0.8448 -0.4776 -1.4883
  155MOL0     H20406   0.832   2.499  10.183 -1.1065  2.9669 -3.3092
  155MOL0     H20407   0.867   2.343  10.020 -0.3240 -0.3316 -1.0094
  155MOL0     H20408   1.017   2.397   9.954 -0.2245  0.5738 -0.4104
  155MOL0     H20409   0.819   2.471   9.810 -0.1923 -2.4314  0.6472
  155MOL0     H20410   0.777   2.590   9.944  1.3948 -0.0003  0.7795
  155MOL0     H20411   1.003   2.598   9.759 -1.4427 -4.4434  0.2580
  155MOL0     H20412   1.038   2.631   9.938  0.4471  0.3984 -0.6073
  155MOL0     H20413   0.823   2.834  10.033 -0.8778  2.0197 -0.7947
  155MOL0     H20414   0.704   3.077  10.005 -0.7271  3.0304  0.5663
  155MOL0     H20415   0.640   3.076   9.852 -0.3389 -0.4356 -1.0678
  155MOL0     H20416   0.729   3.298   9.910 -1.4922 -0.9528 -0.6134
  155MOL0     H20417   0.803   3.232   9.762 -0.4372 -2.6789 -0.1232
  155MOL0     H20418   1.007   3.161   9.881 -0.4799 -1.5117  2.2653
  155MOL0     H20419   0.978   3.335   9.902  0.3034 -1.2805  0.2521
  155MOL0     H20420   1.044   3.245  10.123  2.4484 -4.2834 -0.9438
  155MOL0     H20421   0.921   3.119  10.105 -0.9533  0.1136 -3.4861
  155MOL0     H20422   0.640   3.377  10.222 -0.9529 -2.0344  0.2554
  155MOL0     H20423   0.582   3.428  10.464  1.4604  1.5874  0.6004
  155MOL0     H20424   0.650   3.285  10.904 -0.4890 -0.1848  1.2593
  155MOL0     H20425   0.611   3.341  11.159  0.4938  2.0554  2.6443
  155MOL0     H20426   0.540   3.508  11.284 -0.0433  0.1235 -0.8772
  155MOL0     H20427   0.644   3.651  11.240 -0.1406  1.8094  3.6784
  155MOL0     H20428   0.722   3.668  11.461 -1.0884  0.5337  0.4886
  155MOL0     H20429   0.612   3.532  11.519 -0.2737 -0.8707 -1.6682
  155MOL0     H20430   0.535   3.744  11.586 -5.3047 -1.7391  1.3088
  155MOL0     H20431   0.422   3.680  11.469 -0.9973  2.8223  0.7750
  155MOL0     H20432   0.659   3.868  11.387  1.0946 -1.2650  0.3615
  155MOL0     H20433   0.510   3.847  11.289  4.3388  1.1460 -1.7995
  155MOL0     H20434   0.513   3.991  11.551  0.9922 -0.7775  0.1364
  155MOL0     H20435   0.384   3.974  11.427  0.1104  1.5160  0.0193
  155MOL0     H20436   0.515   4.090  11.254 -2.3670  4.2359 -0.2398
  155MOL0     H20437   0.654   4.092  11.347 -0.6302  2.6429 -0.5963
  155MOL0     H20438   0.524   4.317  11.342 -0.7784 -0.4402 -1.5921
  155MOL0     H20439   0.390   4.233  11.443  0.8996  0.4686  3.2053
  155MOL0     H20440   0.563   4.192  11.608  4.6654  1.8582  1.4080
  155MOL0     H20441   0.507   4.353  11.590 -0.2131 -2.1908  2.7156
  155MOL0     H20442   0.986   3.551  11.177  0.8203 -2.4911  2.4070
  155MOL0     H20443   1.032   3.502  10.933  1.0159 -1.3354 -0.0675
  155MOL0     H20444   0.992   3.333  10.568 -0.5341 -0.2017  1.3915
  155MOL0     H20445   1.039   3.286  10.342  0.0731  1.5444 -0.1227
  155MOL0     H20446   0.860   2.609  10.761 -0.2434 -2.1576  0.7185
  155MOL0     H20447   0.824   2.628  10.984 -1.7061 -1.4459 -0.0598
  155MOL0     H20448   1.075   2.443  11.556 -0.7958  0.5342  0.1071
  155MOL0     H20449   0.994   2.554  11.762  0.2055 -0.5491  0.5276
  155MOL0     H20450   0.707   2.890  11.733  0.3384 -0.8723 -0.7414
  155MOL0     H20451   0.874   2.963  11.731  1.9299 -1.8821 -0.2576
  155MOL0     H20452   0.740   3.048  11.920 -0.7444 -0.8436  3.4620
  155MOL0     H20453   0.747   2.887  11.994  1.1207  2.0436  1.9977
  155MOL0     H20454   0.916   3.016  12.092  0.9035  0.1212  0.8919
  155MOL0     H20455   0.991   3.049  11.933  3.5293 -3.0637 -0.1608
  155MOL0     H20456   1.030   2.800  11.908 -5.5515 -0.2578 -0.1820
  155MOL0     H20457   1.118   2.883  12.040 -0.4249  3.3308 -2.2631
  155MOL0     H20458   0.811   2.607  12.189  0.2929 -0.5727 -0.2502
  155MOL0     H20459   0.868   2.885  11.541  0.4548 -0.3250  0.1184
  155MOL0     H20460   0.952   2.799  11.332 -2.9665  2.5963  1.5602
  156MOL0     O20461   4.621   3.831  11.062 -0.7261  0.0422  0.4097
  156MOL0     C20462   4.747   3.845  11.045  0.9067  0.8814 -0.3031
  156MOL0     O20463   4.814   3.769  10.954 -0.0689 -0.1354  0.5444
  156MOL0     C20464   4.740   3.699  10.858 -0.4117 -1.1972 -0.2038
  156MOL0     C20465   4.676   3.583  10.886 -0.1254  0.1633 -0.4283
  156MOL0     C20466   4.616   3.505  10.785 -0.0455 -0.4210 -1.0207
  156MOL0     C20467   4.607   3.555  10.656  0.0149 -0.6443  0.0806
  156MOL0     O20468   4.546   3.477  10.563 -0.5119 -1.0370 -0.7783
  156MOL0     C20469   4.598   3.487  10.433 -0.7994  0.1983 -0.7497
  156MOL0     C20470   4.525   3.389  10.345  0.2210  0.2757 -0.2079
  156MOL0     C20471   4.606   3.393  10.218 -1.4349  0.0693 -0.8132
  156MOL0     C20472   4.548   3.307  10.111  0.1127  0.0075  0.7893
  156MOL0     C20473   4.653   3.308   9.985  0.1091 -0.2603 -0.2670
  156MOL0     C20474   4.665   3.449   9.911  0.5045  0.6259 -1.0039
  156MOL0     C20475   4.733   3.437   9.781  0.2900  0.1695 -0.1532
  156MOL0     C20476   4.745   3.572   9.720 -0.4756  0.1624  0.7799
  156MOL0     N20477   4.624   3.621   9.653 -0.0867 -0.1643 -0.3302
  156MOL0     C20478   4.578   3.744   9.678  0.0879 -0.2728 -0.3293
  156MOL0     C20479   4.491   3.768   9.580 -0.3240 -0.6989  0.5703
  156MOL0     C20480   4.403   3.882   9.560 -0.4565 -0.0629 -0.7944
  156MOL0     C20481   4.257   3.847   9.602 -0.5187  0.2722  0.6672
  156MOL0     C20482   4.167   3.966   9.597  0.3635 -0.3676  0.7241
  156MOL0     C20483   4.018   3.927   9.617 -0.0984  1.0929  0.2083
  156MOL0     O20484   3.944   3.862   9.513  0.6334 -0.0948  0.8112
  156MOL0     C20485   3.809   3.856   9.524  0.3179  0.3762 -0.0464
  156MOL0     C20486   3.727   3.953   9.479  0.3601 -0.3569  0.5926
  156MOL0     C20487   3.592   3.962   9.517 -1.1624 -0.1000  0.2580
  156MOL0     C20488   3.528   3.855   9.589  0.1270 -0.8820 -0.2379
  156MOL0     C20489   3.381   3.873   9.636 -0.9141 -0.2636 -0.2812
  156MOL0     O20490   3.317   3.759   9.655  0.2013 -0.7057  0.3263
  156MOL0     C20491   3.191   3.755   9.696  0.8401  0.9751  0.2989
  156MOL0     C20492   3.093   3.809   9.616  0.2790  0.3093 -0.4462
  156MOL0     C20493   2.960   3.782   9.648 -0.4808 -0.5146  0.0430
  156MOL0     C20494   2.917   3.702   9.752 -1.4763  0.2191  0.4895
  156MOL0     O20495   2.788   3.668   9.769 -0.0400 -0.3600 -0.2177
  156MOL0     C20496   2.739   3.558   9.693  0.2114 -0.5905  0.2639
  156MOL0     C20497   2.587   3.545   9.707 -0.3979 -0.2047  0.0022
  156MOL0     C20498   2.521   3.671   9.673  0.6170  0.0645 -0.1372
  156MOL0     C20499   2.529   3.713   9.522 -0.6232 -0.0807 -0.2309
  156MOL0     C20500   2.425   3.826   9.488 -0.3106 -0.2172  0.6432
  156MOL0     C20501   2.499   3.942   9.409  0.0193 -0.0960 -0.3154
  156MOL0     C20502   2.393   4.021   9.338  1.0339 -0.1618  0.3832
  156MOL0     C20503   2.461   4.118   9.229 -0.4674  0.0919 -0.2456
  156MOL0    Cl20504   2.345   4.186   9.115  0.1664 -0.1095 -0.3750
  156MOL0     C20505   3.020   3.632   9.827  0.5475 -0.1486  0.3188
  156MOL0     C20506   3.153   3.674   9.803  0.0011  0.3932 -0.0274
  156MOL0     O20507   3.337   3.987   9.653 -0.1941  0.0539  0.3457
  156MOL0     C20508   3.611   3.753   9.623  0.4275  1.1118 -0.1175
  156MOL0     C20509   3.752   3.750   9.596  0.7798  0.6813 -0.2282
  156MOL0     N20510   4.491   3.668   9.490  0.0998  0.9286 -0.0037
  156MOL0     N20511   4.569   3.573   9.539  0.4655 -0.0355 -0.6125
  156MOL0     C20512   4.665   3.680  10.629  0.0074  0.0772 -0.9571
  156MOL0     C20513   4.727   3.757  10.725 -0.7956 -0.4510  0.6992
  156MOL0     C20514   4.824   3.938  11.127  0.3183 -0.4851  0.5499
  156MOL0     C20515   4.969   3.943  11.117 -0.0374  0.3814 -0.1441
  156MOL0     C20516   5.035   4.042  11.198  0.1171  0.6553  0.0247
  156MOL0     C20517   4.968   4.144  11.271 -0.2580  0.0449  0.3154
  156MOL0     O20518   5.033   4.243  11.339  0.1308  0.7423 -0.0860
  156MOL0     C20519   5.172   4.263  11.318 -0.4437  0.0978  0.4277
  156MOL0     C20520   5.204   4.413  11.353  0.3845  0.4852 -1.2126
  156MOL0     C20521   5.174   4.502  11.232 -0.1519 -0.3962  0.0724
  156MOL0     C20522   5.243   4.639  11.251  0.2566 -0.1415  0.6007
  156MOL0     C20523   5.379   4.652  11.199 -0.2660  0.3641  0.5275
  156MOL0     C20524   5.487   4.658  11.152 -0.5677  0.3781 -0.4357
  156MOL0     C20525   4.834   4.129  11.282 -0.1169  0.6153 -0.3277
  156MOL0     C20526   4.764   4.029  11.206 -0.6426 -0.3190  0.4519
  156MOL0     H20527   4.672   3.545  10.988 -1.9906 -0.8592 -0.8383
  156MOL0     H20528   4.569   3.409  10.802  0.5190 -0.4384  0.6019
  156MOL0     H20529   4.707   3.486  10.430 -0.5438  3.3989  1.7767
  156MOL0     H20530   4.571   3.584  10.389  0.4801  0.8800 -0.0755
  156MOL0     H20531   4.429   3.428  10.310 -1.1595 -2.3041  0.4415
  156MOL0     H20532   4.511   3.296  10.402  0.1308  3.0919  5.0413
  156MOL0     H20533   4.708   3.360  10.242 -2.2516 -0.5245  2.2385
  156MOL0     H20534   4.597   3.497  10.184 -0.0906  1.2281  2.0056
  156MOL0     H20535   4.532   3.203  10.140  0.9977 -0.4019 -0.1439
  156MOL0     H20536   4.456   3.358  10.079 -0.1535 -1.9228 -1.8252
  156MOL0     H20537   4.615   3.229   9.919 -0.4598 -1.1277  1.0399
  156MOL0     H20538   4.745   3.275  10.033  0.6347 -1.0189 -1.7575
  156MOL0     H20539   4.717   3.525   9.972 -0.0205  0.9787 -0.9894
  156MOL0     H20540   4.565   3.487   9.887  1.3199  3.1324 -0.7974
  156MOL0     H20541   4.837   3.410   9.797  0.4985  1.0307  0.0118
  156MOL0     H20542   4.678   3.360   9.726 -0.4358 -0.6859  1.6888
  156MOL0     H20543   4.822   3.579   9.643 -3.5279 -0.6977 -2.5570
  156MOL0     H20544   4.761   3.637   9.807  2.5306 -0.7502  1.0528
  156MOL0     H20545   4.606   3.821   9.750 -0.6224  0.3597 -0.7115
  156MOL0     H20546   4.405   3.888   9.451 -2.6154 -0.4905 -0.9186
  156MOL0     H20547   4.429   3.974   9.613 -3.3403 -0.6260  1.9294
  156MOL0     H20548   4.249   3.809   9.704  0.5285 -3.5231 -0.4914
  156MOL0     H20549   4.226   3.765   9.536 -3.4458  0.2414  1.9315
  156MOL0     H20550   4.209   4.036   9.670  1.1775 -1.1827  1.0531
  156MOL0     H20551   4.175   4.017   9.501  0.5783 -0.0762  0.8971
  156MOL0     H20552   3.966   4.022   9.634  1.0772  1.7081  0.4641
  156MOL0     H20553   4.000   3.864   9.704 -2.8846 -1.4665 -1.9850
  156MOL0     H20554   3.768   4.034   9.418 -0.7327 -0.6068 -0.5215
  156MOL0     H20555   3.538   4.041   9.466 -0.6725  0.2726  0.3086
  156MOL0     H20556   3.130   3.868   9.533  0.5380 -0.4962 -0.9167
  156MOL0     H20557   2.892   3.834   9.582  0.2394 -1.4619 -1.4999
  156MOL0     H20558   2.784   3.466   9.732 -1.1822 -0.9991  0.9762
  156MOL0     H20559   2.770   3.588   9.593  3.1899  2.1366  1.8372
  156MOL0     H20560   2.577   3.526   9.814  0.7713  2.8443  0.7594
  156MOL0     H20561   2.543   3.456   9.661 -1.9736 -1.3461  3.3767
  156MOL0     H20562   2.569   3.754   9.727  1.0654  0.3326 -0.9370
  156MOL0     H20563   2.415   3.664   9.700  1.2879  0.2972  2.9140
  156MOL0     H20564   2.630   3.748   9.500  1.3136 -3.6811  2.0595
  156MOL0     H20565   2.515   3.625   9.458 -0.0174  1.1484 -2.1510
  156MOL0     H20566   2.399   3.873   9.584  2.1647 -0.2494  1.4101
  156MOL0     H20567   2.331   3.797   9.441 -1.5992  1.9115  1.7573
  156MOL0     H20568   2.557   3.885   9.336  0.0597 -2.0117  1.1398
  156MOL0     H20569   2.553   4.012   9.475 -2.1437  1.0622  0.3087
  156MOL0     H20570   2.331   3.944   9.292  5.0579 -2.6523 -1.4878
  156MOL0     H20571   2.337   4.084   9.408  1.7293 -1.0337  1.7756
  156MOL0     H20572   2.549   4.077   9.179 -0.4325 -0.1854  0.0358
  156MOL0     H20573   2.508   4.208   9.268 -0.3526  3.2628 -6.4900
  156MOL0     H20574   3.018   3.557   9.906  0.6696  2.8474  3.4071
  156MOL0     H20575   3.231   3.627   9.862 -0.8795  1.7603  2.3507
  156MOL0     H20576   3.568   3.669   9.677 -0.1044 -0.7044 -3.1840
  156MOL0     H20577   3.803   3.661   9.634 -0.9062  0.6110  2.1103
  156MOL0     H20578   4.646   3.725  10.532 -1.7612  1.1051 -0.1875
  156MOL0     H20579   4.757   3.850  10.679  0.3145 -3.3577 -5.5113
  156MOL0     H20580   5.026   3.876  11.054 -0.4705  1.0121 -1.2420
  156MOL0     H20581   5.143   4.037  11.193  0.2984 -0.7847  3.0147
  156MOL0     H20582   5.195   4.245  11.212  1.7927 -0.1039  0.9053
  156MOL0     H20583   5.231   4.197  11.381  0.3352  3.2877  3.3969
  156MOL0     H20584   5.134   4.452  11.427  2.4595 -2.5331  2.6586
  156MOL0     H20585   5.306   4.431  11.387  0.1787  0.7461 -0.7347
  156MOL0     H20586   5.067   4.522  11.223 -0.3078  0.2415  2.7307
  156MOL0     H20587   5.206   4.466  11.133  1.6713  1.2337  0.0152
  156MOL0     H20588   5.178   4.720  11.218 -0.4719  0.1001  2.5175
  156MOL0     H20589   5.251   4.662  11.358  2.7703 -0.6832  0.6092
  156MOL0     H20590   5.588   4.679  11.121 -1.0074  2.6557 -0.5240
  156MOL0     H20591   4.775   4.189  11.350  0.6864 -1.8213  2.7052
  156MOL0     H20592   4.656   4.029  11.199 -0.5920  0.3643 -0.6375
  157MOL0     O20593   8.992   0.868  10.591 -0.4293 -0.8219 -0.5401
  157MOL0     C20594   8.935   0.962  10.537  0.0042 -0.1414 -0.2263
  157MOL0     O20595   8.802   0.949  10.493  0.3880 -0.2785  0.7676
  157MOL0     C20596   8.737   0.833  10.516  0.0624 -0.0852  0.3324
  157MOL0     C20597   8.780   0.711  10.470 -0.9159  0.3052 -0.5415
  157MOL0     C20598   8.718   0.592  10.504 -0.2984  0.0227  0.7371
  157MOL0     C20599   8.584   0.596  10.560 -1.4207 -0.1620 -0.9550
  157MOL0     O20600   8.504   0.495  10.596  0.0008 -0.5140  0.2404
  157MOL0     C20601   8.535   0.362  10.558 -0.6208  1.0517  1.0920
  157MOL0     C20602   8.618   0.304  10.677 -0.3792  0.6252  0.1768
  157MOL0     C20603   8.529   0.231  10.779  0.1841 -0.0168 -0.0749
  157MOL0     C20604   8.404   0.306  10.833 -0.0313 -0.0661  0.5661
  157MOL0     C20605   8.437   0.421  10.935  0.7357 -0.3756 -0.2797
  157MOL0     C20606   8.493   0.370  11.067 -0.0368 -0.1448 -0.1138
  157MOL0     C20607   8.502   0.487  11.165 -0.4129 -0.0505  0.9311
  157MOL0     C20608   8.386   0.576  11.185  0.4331 -0.6942  0.4056
  157MOL0     N20609   8.250   0.521  11.207  0.0231  0.3834 -0.2224
  157MOL0     C20610   8.237   0.425  11.305  0.4157  0.2652  0.2620
  157MOL0     C20611   8.102   0.392  11.294 -0.1424 -0.2773  0.3505
  157MOL0     C20612   8.010   0.301  11.367  0.5917 -0.0631  0.0545
  157MOL0     C20613   7.960   0.172  11.283 -0.1937  0.2207  0.4608
  157MOL0     C20614   8.077   0.084  11.241  0.3875  0.6010  0.8517
  157MOL0     C20615   8.163   0.040  11.354 -0.7190  0.0084 -0.8433
  157MOL0     O20616   8.082  -0.018  11.455  1.0433  0.1392 -0.3106
  157MOL0     C20617   8.138  -0.070  11.565 -0.3699 -1.2042 -0.4631
  157MOL0     C20618   8.268  -0.059  11.595 -0.5116  0.3085 -0.1863
  157MOL0     C20619   8.318  -0.122  11.711  0.5717 -0.4285  0.1167
  157MOL0     C20620   8.239  -0.201  11.793  0.0820  0.3663  0.2891
  157MOL0     C20621   8.289  -0.288  11.907  0.8291  0.3191  0.6946
  157MOL0     O20622   8.196  -0.342  11.997  0.7366 -0.3833  0.5143
  157MOL0     C20623   8.252  -0.415  12.094  0.0267  0.2672 -0.2660
  157MOL0     C20624   8.231  -0.546  12.081 -0.3505  0.4290 -0.2537
  157MOL0     C20625   8.255  -0.644  12.183  0.9228 -0.4417 -0.4545
  157MOL0     C20626   8.299  -0.590  12.304  0.4907  0.6218  0.5578
  157MOL0     O20627   8.322  -0.675  12.414 -0.6402  0.2392  0.2386
  157MOL0     C20628   8.227  -0.648  12.522 -0.6343  1.0633  0.1507
  157MOL0     C20629   8.274  -0.563  12.646  0.2279 -0.3504  0.6131
  157MOL0     C20630   8.363  -0.642  12.743 -0.3090  0.6562  0.2133
  157MOL0     C20631   8.415  -0.578  12.867  0.4657 -0.9940  0.3420
  157MOL0     C20632   8.307  -0.489  12.937  0.2458  0.3065 -0.1461
  157MOL0     C20633   8.196  -0.575  12.999 -0.1627  0.4969 -0.3902
  157MOL0     C20634   8.101  -0.483  13.074 -0.2316  1.5329 -0.4268
  157MOL0     C20635   8.008  -0.397  12.984  1.2775  0.5109  0.1206
  157MOL0    Cl20636   8.096  -0.250  12.922  0.4535  0.0934  0.0294
  157MOL0     C20637   8.317  -0.455  12.319  0.5991 -0.4991 -0.2942
  157MOL0     C20638   8.281  -0.365  12.217 -0.7464  0.5082  0.1816
  157MOL0     O20639   8.403  -0.309  11.901 -0.8821  0.5677  0.3649
  157MOL0     C20640   8.096  -0.204  11.759 -1.3214 -0.3284 -0.4699
  157MOL0     C20641   8.050  -0.133  11.645  0.7014  0.2351 -0.0139
  157MOL0     N20642   8.049   0.475  11.196 -0.9509 -0.2118 -0.1139
  157MOL0     N20643   8.134   0.556  11.142  0.7023  0.0159 -0.1536
  157MOL0     C20644   8.530   0.720  10.594  0.5887  0.7022  0.4063
  157MOL0     C20645   8.609   0.835  10.576 -0.5182  0.5801 -0.0132
  157MOL0     C20646   9.013   1.095  10.505 -0.1534 -0.2116  0.3162
  157MOL0     C20647   8.938   1.210  10.485 -0.0181 -0.2067 -0.7774
  157MOL0     C20648   8.996   1.330  10.449 -0.0127 -0.9735 -0.1387
  157MOL0     C20649   9.131   1.332  10.413 -0.6247 -0.0288 -0.2489
  157MOL0     O20650   9.193   1.441  10.361 -0.6268 -1.0693  0.2450
  157MOL0     C20651   9.123   1.569  10.329 -0.1617  0.5805 -0.8825
  157MOL0     C20652   9.205   1.664  10.246  0.5429 -0.1171 -0.4982
  157MOL0     C20653   9.337   1.692  10.293  1.0101 -0.7090 -0.5884
  157MOL0     C20654   9.426   1.726  10.167  0.1976  0.3179  0.0384
  157MOL0     C20655   9.553   1.792  10.200  0.2204 -0.8784 -0.1665
  157MOL0     C20656   9.668   1.843  10.217 -0.1845 -0.0031  0.0069
  157MOL0     C20657   9.208   1.213  10.436  0.3663 -0.0076 -0.2324
  157MOL0     C20658   9.154   1.095  10.487 -0.6187  0.5123 -0.5468
  157MOL0     H20659   8.876   0.691  10.425 -1.4859 -1.3996 -1.0804
  157MOL0     H20660   8.752   0.500  10.457 -1.7704  0.3045 -0.9936
  157MOL0     H20661   8.593   0.346  10.467  4.3407  1.6932  3.7691
  157MOL0     H20662   8.450   0.294  10.553  0.4048 -0.1458 -0.9157
  157MOL0     H20663   8.696   0.372  10.712  0.7649 -0.5135 -0.0903
  157MOL0     H20664   8.675   0.220  10.637  0.4384 -0.7222  3.7198
  157MOL0     H20665   8.591   0.192  10.860  0.1565 -1.7556 -0.8544
  157MOL0     H20666   8.495   0.132  10.748  0.0039  0.7045 -2.3589
  157MOL0     H20667   8.358   0.347  10.743  3.1909  0.9125 -0.7776
  157MOL0     H20668   8.339   0.231  10.880 -1.6332  2.5917  2.9595
  157MOL0     H20669   8.343   0.472  10.956 -0.0103 -1.6716 -0.3511
  157MOL0     H20670   8.500   0.495  10.884  1.4169 -1.6710 -1.3896
  157MOL0     H20671   8.593   0.327  11.049  1.0325  1.0888  2.3946
  157MOL0     H20672   8.437   0.284  11.102  1.7285 -0.6756  1.6008
  157MOL0     H20673   8.538   0.447  11.260 -0.3087  0.6897  1.2123
  157MOL0     H20674   8.585   0.545  11.124  1.5781 -2.9833  0.5048
  157MOL0     H20675   8.388   0.643  11.099 -0.5472  2.1025  2.4223
  157MOL0     H20676   8.413   0.649  11.261  1.4541  0.4272 -0.9956
  157MOL0     H20677   8.303   0.401  11.387  1.6203 -0.2288 -0.8347
  157MOL0     H20678   7.932   0.368  11.402  2.4723  2.6290 -0.5460
  157MOL0     H20679   8.061   0.269  11.458  1.4888 -0.1709 -0.4715
  157MOL0     H20680   7.915   0.213  11.193  2.1652  1.7477 -0.1275
  157MOL0     H20681   7.885   0.122  11.346 -0.9930  3.6286  2.4582
  157MOL0     H20682   8.027  -0.003  11.197  1.6379 -1.1156  2.6580
  157MOL0     H20683   8.141   0.129  11.164  0.9472 -2.2031 -0.4577
  157MOL0     H20684   8.215   0.125  11.400 -1.7260 -0.8842  2.1716
  157MOL0     H20685   8.237  -0.036  11.328 -3.5958 -3.2034 -0.3931
  157MOL0     H20686   8.344  -0.018  11.530  0.0155  1.1226  0.9022
  157MOL0     H20687   8.419  -0.106  11.749  0.0939 -1.6334  2.0345
  157MOL0     H20688   8.183  -0.577  11.989 -0.6281  1.5316 -0.4931
  157MOL0     H20689   8.231  -0.747  12.162 -0.0490 -0.6992  1.6461
  157MOL0     H20690   8.199  -0.740  12.573  1.0547  0.9733  0.9886
  157MOL0     H20691   8.135  -0.614  12.474 -1.8704 -1.3574  0.6545
  157MOL0     H20692   8.186  -0.531  12.703  0.8683 -2.5767  3.0177
  157MOL0     H20693   8.328  -0.470  12.625  1.7134 -1.5942 -1.4451
  157MOL0     H20694   8.438  -0.680  12.673 -1.6316 -1.8320  0.0291
  157MOL0     H20695   8.316  -0.737  12.773 -0.3686  0.5628 -0.1652
  157MOL0     H20696   8.446  -0.655  12.938 -1.7431 -4.3170 -2.0035
  157MOL0     H20697   8.499  -0.517  12.831 -0.2773 -1.5888 -2.6269
  157MOL0     H20698   8.275  -0.415  12.863  2.8060 -0.6689 -2.3975
  157MOL0     H20699   8.356  -0.446  13.025  0.2031 -0.3841  0.2214
  157MOL0     H20700   8.247  -0.639  13.072 -1.4647  2.2728  2.2466
  157MOL0     H20701   8.150  -0.646  12.931 -0.0703 -0.1985  0.2578
  157MOL0     H20702   8.036  -0.552  13.129  0.8194  1.1430  0.3572
  157MOL0     H20703   8.159  -0.416  13.139  3.2170 -0.2273 -1.4973
  157MOL0     H20704   7.927  -0.358  13.045  1.4074  1.2148 -0.1411
  157MOL0     H20705   7.983  -0.460  12.898 -1.9839  2.1956 -0.3043
  157MOL0     H20706   8.364  -0.423  12.411 -0.2646 -3.2359  1.2338
  157MOL0     H20707   8.284  -0.257  12.231 -4.7696  0.6650  1.0592
  157MOL0     H20708   8.038  -0.282  11.807  2.8294 -3.3142  0.2263
  157MOL0     H20709   7.946  -0.136  11.613  0.8529  0.2114 -0.5200
  157MOL0     H20710   8.426   0.729  10.624  0.5154  1.7371 -0.1245
  157MOL0     H20711   8.579   0.930  10.618 -1.3566  0.6981 -0.8388
  157MOL0     H20712   8.830   1.200  10.498  0.0245  0.4686  0.1224
  157MOL0     H20713   8.944   1.423  10.430  0.7837 -0.2838  0.9339
  157MOL0     H20714   9.099   1.608  10.428 -4.0433 -0.1581 -1.3553
  157MOL0     H20715   9.030   1.544  10.277  0.4988  0.0032 -1.8297
  157MOL0     H20716   9.223   1.626  10.145  0.6298  1.8884 -1.2877
  157MOL0     H20717   9.140   1.752  10.236 -0.2790 -0.6734 -0.1709
  157MOL0     H20718   9.379   1.612  10.355 -1.9238  0.1552  2.8255
  157MOL0     H20719   9.330   1.790  10.341 -1.5181  1.6076 -4.9649
  157MOL0     H20720   9.446   1.626  10.129 -0.1586 -0.8810  2.7755
  157MOL0     H20721   9.370   1.789  10.096 -0.8729 -4.4050 -3.8480
  157MOL0     H20722   9.768   1.871  10.241 -0.3247 -0.3891  1.1373
  157MOL0     H20723   9.311   1.200  10.404  0.2726 -3.2838  0.3628
  157MOL0     H20724   9.206   1.000  10.497  1.6841  1.7877  0.2232
  158MOL0     O20725   4.699  11.266   0.064 -0.7015  0.3281 -0.6964
  158MOL0     C20726   4.583  11.292   0.089  0.3191 -0.0745 -0.0882
  158MOL0     O20727   4.521  11.411   0.055  0.1314 -0.4123  0.1183
  158MOL0     C20728   4.588  11.515  -0.007 -0.0078 -0.3679 -0.0078
  158MOL0     C20729   4.653  11.489  -0.130 -0.5374 -0.4177 -0.2745
  158MOL0     C20730   4.739  11.584  -0.183 -0.0395  1.1401 -0.8590
  158MOL0     C20731   4.763  11.707  -0.122  0.1173 -0.3119  0.6934
  158MOL0     O20732   4.847  11.798  -0.170  0.1133  0.2907 -0.1574
  158MOL0     C20733   4.932  11.766  -0.281  1.0131  0.8536 -1.1331
  158MOL0     C20734   5.003  11.893  -0.320 -0.3308 -0.1407  0.4500
  158MOL0     C20735   5.089  11.957  -0.205  1.0879 -1.4008  0.1002
  158MOL0     C20736   5.205  11.869  -0.142 -0.2650  0.2404  0.5804
  158MOL0     C20737   5.303  11.804  -0.229  0.2419  0.7954  0.4888
  158MOL0     C20738   5.362  11.893  -0.324 -0.6755 -0.0346 -0.3895
  158MOL0     C20739   5.435  12.011  -0.273  0.0498  0.8437 -0.4117
  158MOL0     C20740   5.589  11.975  -0.270 -0.2422 -0.4173 -0.1655
  158MOL0     N20741   5.648  11.949  -0.410 -0.1800  0.1313  0.5354
  158MOL0     C20742   5.598  11.991  -0.533  0.2314 -0.0825 -0.5612
  158MOL0     C20743   5.697  11.958  -0.622 -0.8659 -0.4469  0.7692
  158MOL0     C20744   5.682  11.973  -0.780  0.3764  1.1668 -0.5292
  158MOL0     C20745   5.635  12.111  -0.830 -0.2286 -0.0523 -0.4665
  158MOL0     C20746   5.624  12.124  -0.979  0.0469  0.0583 -0.9327
  158MOL0     C20747   5.574  11.999  -1.051 -0.3860  1.5400 -0.8335
  158MOL0     O20748   5.544  12.014  -1.193  0.1968  0.9167  0.3169
  158MOL0     C20749   5.639  12.081  -1.272  0.7572  0.4472  0.1789
  158MOL0     C20750   5.777  12.064  -1.264 -0.5730  0.5939 -0.0258
  158MOL0     C20751   5.866  12.129  -1.353  0.2660 -0.5766 -0.4848
  158MOL0     C20752   5.808  12.224  -1.439  0.7743 -0.5056  0.0723
  158MOL0     C20753   5.877  12.304  -1.544  0.2431  0.3288 -0.1378
  158MOL0     O20754   5.809  12.408  -1.597 -0.5952 -0.4980 -0.4972
  158MOL0     C20755   5.856  12.482  -1.697 -0.5032 -0.0512 -0.3461
  158MOL0     C20756   5.764  12.514  -1.799 -0.4127  0.8452  0.5754
  158MOL0     C20757   5.806  12.589  -1.911 -1.4535 -0.6034  1.4255
  158MOL0     C20758   5.938  12.642  -1.920 -0.7650 -0.4647  0.0953
  158MOL0     O20759   5.960  12.722  -2.029  0.0346 -0.4792 -0.4629
  158MOL0     C20760   6.005  12.855  -1.998  0.6817  0.6539 -0.6690
  158MOL0     C20761   5.988  12.928  -2.133  0.4995 -0.4763  0.2700
  158MOL0     C20762   6.093  12.899  -2.244  0.5370  0.7577 -0.4530
  158MOL0     C20763   6.051  12.963  -2.377 -0.7377  0.1415  0.1435
  158MOL0     C20764   6.095  13.114  -2.385  0.0716  0.7256  0.1956
  158MOL0     C20765   6.042  13.177  -2.515 -0.1700 -0.2972  0.8865
  158MOL0     C20766   6.066  13.331  -2.505 -0.4001 -0.2232 -0.6277
  158MOL0     C20767   6.034  13.396  -2.636 -1.1463 -0.7407 -0.4479
  158MOL0    Cl20768   5.855  13.388  -2.657 -0.2345 -0.0824  0.1034
  158MOL0     C20769   6.025  12.613  -1.821  0.1232  0.4148  0.8558
  158MOL0     C20770   5.984  12.530  -1.710 -0.5807  0.7519  0.3653
  158MOL0     O20771   5.995  12.282  -1.563  0.1291  0.2252 -0.5791
  158MOL0     C20772   5.672  12.246  -1.436  0.2039 -0.4557 -0.0294
  158MOL0     C20773   5.587  12.176  -1.355  0.7271  0.0374 -0.3490
  158MOL0     N20774   5.789  11.891  -0.554 -0.2488 -0.5139 -0.8893
  158MOL0     N20775   5.758  11.879  -0.434 -0.7247  0.3522 -0.1740
  158MOL0     C20776   4.687  11.740  -0.007  0.0309  0.0996 -0.1680
  158MOL0     C20777   4.598  11.649   0.046 -0.8230  0.8717 -0.1688
  158MOL0     C20778   4.514  11.187   0.171  0.4119  0.0998 -0.8901
  158MOL0     C20779   4.379  11.172   0.149 -0.9798 -0.0898  0.1423
  158MOL0     C20780   4.311  11.071   0.221 -1.0773  0.6312 -0.9551
  158MOL0     C20781   4.374  10.976   0.305  0.3548  1.1791  0.0865
  158MOL0     O20782   4.318  10.875   0.375 -0.1858  1.5043  0.9409
  158MOL0     C20783   4.209  10.796   0.323  0.6785 -0.7647  0.1121
  158MOL0     C20784   4.242  10.727   0.190  0.0168 -0.7357  0.0159
  158MOL0     C20785   4.178  10.594   0.186 -0.0311  0.9008  0.6484
  158MOL0     C20786   4.198  10.526   0.050 -1.4232  0.8330 -0.1102
  158MOL0     C20787   4.068  10.463   0.008  0.3933 -0.7145  0.2400
  158MOL0     C20788   3.969  10.408  -0.020  0.6485  0.3329 -0.2657
  158MOL0     C20789   4.514  10.990   0.315 -0.9624 -0.9431 -0.4568
  158MOL0     C20790   4.576  11.092   0.257 -0.2833  0.0727 -0.4824
  158MOL0     H20791   4.649  11.387  -0.167 -2.3467 -0.8850  1.0524
  158MOL0     H20792   4.784  11.558  -0.278  1.4046  3.0846 -0.7728
  158MOL0     H20793   4.876  11.727  -0.366  0.9117  0.1393 -0.7458
  158MOL0     H20794   4.997  11.687  -0.243 -2.4165 -1.3613  0.6236
  158MOL0     H20795   4.933  11.974  -0.340 -1.1982 -0.2022  2.9664
  158MOL0     H20796   5.074  11.869  -0.400  4.0409  0.3700  3.7799
  158MOL0     H20797   5.007  11.986  -0.138 -0.2199  1.8183 -2.6230
  158MOL0     H20798   5.125  12.051  -0.248 -0.4659 -0.0769  1.5298
  158MOL0     H20799   5.254  11.928  -0.065  0.0625  2.0046 -0.9033
  158MOL0     H20800   5.162  11.786  -0.085  1.5439 -2.0864 -1.2153
  158MOL0     H20801   5.247  11.733  -0.291  1.2929 -0.2025  0.6397
  158MOL0     H20802   5.378  11.741  -0.179 -0.4443 -2.3124 -1.9947
  158MOL0     H20803   5.273  11.932  -0.375 -2.1847 -0.8987  1.4557
  158MOL0     H20804   5.418  11.830  -0.394 -0.8485 -1.2341  0.5211
  158MOL0     H20805   5.427  12.097  -0.340  1.6253  2.1712  1.0271
  158MOL0     H20806   5.379  12.028  -0.180 -0.0309 -2.8283  0.3939
  158MOL0     H20807   5.597  11.887  -0.204 -0.0880  1.2539  2.1771
  158MOL0     H20808   5.655  12.051  -0.227  1.1442 -1.6344 -0.0426
  158MOL0     H20809   5.499  12.030  -0.553 -1.1286 -0.0705  4.8547
  158MOL0     H20810   5.619  11.890  -0.812  3.5965 -3.9199  4.4244
  158MOL0     H20811   5.783  11.959  -0.820  1.5215 -4.0433  3.2045
  158MOL0     H20812   5.702  12.182  -0.780  1.0745 -0.9488 -0.8763
  158MOL0     H20813   5.540  12.136  -0.781 -0.9533 -2.3261 -0.5869
  158MOL0     H20814   5.551  12.203  -0.999 -0.0330 -0.1991 -1.6634
  158MOL0     H20815   5.720  12.164  -1.014 -0.3887  1.1146 -0.9540
  158MOL0     H20816   5.482  11.972  -1.000  0.2747  1.3099  0.2675
  158MOL0     H20817   5.647  11.918  -1.041 -3.3133 -1.0128  2.6919
  158MOL0     H20818   5.818  11.982  -1.205  1.0082  2.5398  1.7664
  158MOL0     H20819   5.971  12.108  -1.367  1.4346  2.9847  1.7404
  158MOL0     H20820   5.670  12.460  -1.806 -0.0837  0.2017  1.0437
  158MOL0     H20821   5.740  12.612  -1.994 -2.0603  0.2334  2.1243
  158MOL0     H20822   6.107  12.849  -1.960  0.2072 -1.9474  0.4411
  158MOL0     H20823   5.940  12.907  -1.927 -1.2347 -0.3575 -1.5846
  158MOL0     H20824   5.980  13.033  -2.106 -1.8562 -0.7701  0.9634
  158MOL0     H20825   5.889  12.904  -2.173 -0.6756  0.7595  2.2353
  158MOL0     H20826   6.098  12.791  -2.257 -0.8479  0.7049 -0.6334
  158MOL0     H20827   6.193  12.935  -2.218  2.3838 -5.4484  3.0992
  158MOL0     H20828   6.101  12.900  -2.451  0.5883  0.2897  0.8750
  158MOL0     H20829   5.944  12.952  -2.397 -0.5157  1.5527 -2.0904
  158MOL0     H20830   6.204  13.116  -2.375  0.1478 -1.1527  0.1448
  158MOL0     H20831   6.045  13.159  -2.299  0.3133  2.0697 -0.3548
  158MOL0     H20832   5.934  13.168  -2.525 -0.0809  0.3036 -1.1979
  158MOL0     H20833   6.087  13.140  -2.608 -2.9709  1.6175 -1.4235
  158MOL0     H20834   6.009  13.370  -2.420  2.3647 -1.9758  2.2972
  158MOL0     H20835   6.173  13.348  -2.485 -0.9087  2.6234  0.0537
  158MOL0     H20836   6.071  13.342  -2.723 -1.6137 -3.7216  1.0463
  158MOL0     H20837   6.060  13.502  -2.634 -4.8446  0.3226 -1.1954
  158MOL0     H20838   6.124  12.655  -1.833 -0.2952  1.5580  1.2874
  158MOL0     H20839   6.062  12.513  -1.637 -0.7287 -2.3794 -0.0810
  158MOL0     H20840   5.623  12.316  -1.503 -1.2522  1.6812  3.0289
  158MOL0     H20841   5.484  12.188  -1.387  0.5284  0.9598  0.5875
  158MOL0     H20842   4.687  11.837   0.042 -0.4454 -0.4223  0.9067
  158MOL0     H20843   4.537  11.669   0.134 -0.0093 -2.9320  1.4781
  158MOL0     H20844   4.324  11.240   0.086 -0.1772 -0.4488 -0.9710
  158MOL0     H20845   4.203  11.062   0.222 -1.0198 -0.2549  0.4563
  158MOL0     H20846   4.130  10.869   0.303  0.8635 -0.0779  1.7422
  158MOL0     H20847   4.177  10.727   0.403 -0.3246 -0.7714 -0.2782
  158MOL0     H20848   4.214  10.786   0.102  0.8986 -0.9504 -0.4241
  158MOL0     H20849   4.351  10.717   0.184  0.2240  1.2691 -0.3902
  158MOL0     H20850   4.072  10.602   0.210  0.0895  1.2989  1.0391
  158MOL0     H20851   4.225  10.530   0.261 -1.5943 -0.4202  0.5714
  158MOL0     H20852   4.250  10.583  -0.027  2.5431 -1.4386  0.6209
  158MOL0     H20853   4.267  10.442   0.061  0.6117  2.5065  0.4676
  158MOL0     H20854   3.874  10.358  -0.020 -0.2943  1.9275  1.9511
  158MOL0     H20855   4.570  10.919   0.375  0.6929  1.0437  0.4592
  158MOL0     H20856   4.684  11.105   0.263 -0.4295  1.0785  0.1630
  159MOL0     O20857   9.805   4.860   3.426  0.4327  0.3966  0.2789
  159MOL0     C20858   9.836   4.796   3.318  0.3732 -0.1961  0.6707
  159MOL0     O20859   9.942   4.709   3.309  0.1232 -0.6257  0.6057
  159MOL0     C20860  10.020   4.710   3.422 -0.1987  0.1491 -0.2772
  159MOL0     C20861   9.987   4.636   3.533 -0.4272  0.0010  0.5011
  159MOL0     C20862  10.067   4.631   3.646  0.6717 -0.7067 -0.5317
  159MOL0     C20863  10.187   4.700   3.661  0.0037 -0.3086  0.0331
  159MOL0     O20864  10.269   4.699   3.763 -0.3645 -0.1118  0.0641
  159MOL0     C20865  10.278   4.583   3.846  0.0542 -0.3186 -0.3459
  159MOL0     C20866  10.373   4.615   3.965  0.2153 -0.0083  0.4120
  159MOL0     C20867  10.521   4.619   3.907  0.9751  0.2101  1.1999
  159MOL0     C20868  10.624   4.711   3.985 -0.6217  0.2084 -0.9897
  159MOL0     C20869  10.610   4.697   4.145 -0.9266  0.5952 -0.1765
  159MOL0     C20870  10.687   4.817   4.214  0.2138 -0.4685 -0.4475
  159MOL0     C20871  10.845   4.795   4.205  0.2297 -0.0007 -0.0636
  159MOL0     C20872  10.880   4.684   4.297 -1.0590 -0.5973  0.7605
  159MOL0     N20873  11.023   4.646   4.275 -0.9053  0.3999  0.9805
  159MOL0     C20874  11.106   4.595   4.373 -0.7410 -0.7201  0.2997
  159MOL0     C20875  11.188   4.509   4.310 -0.3500 -0.0336 -0.0731
  159MOL0     C20876  11.303   4.423   4.366  0.7882 -0.5852  0.2242
  159MOL0     C20877  11.361   4.473   4.505  0.3767 -1.2447 -0.4464
  159MOL0     C20878  11.494   4.414   4.550  0.0771 -0.4659 -0.4154
  159MOL0     C20879  11.602   4.457   4.453  0.3617  1.1167 -1.3414
  159MOL0     O20880  11.627   4.353   4.355  0.0388 -0.2944 -0.2452
  159MOL0     C20881  11.752   4.355   4.304  0.0459  0.5308 -0.7711
  159MOL0     C20882  11.808   4.464   4.255 -0.7619  0.4058  0.5040
  159MOL0     C20883  11.921   4.472   4.173 -0.1029  0.5163  1.1641
  159MOL0     C20884  11.985   4.360   4.129  0.1004 -0.8484  0.6493
  159MOL0     C20885  12.108   4.352   4.056 -0.5945  0.0654 -0.1779
  159MOL0     O20886  12.120   4.433   3.948  0.1216 -0.3568 -0.2125
  159MOL0     C20887  12.240   4.441   3.880 -0.9609  0.3652  0.5570
  159MOL0     C20888  12.295   4.317   3.824  0.0003  0.1991 -0.6800
  159MOL0     C20889  12.417   4.324   3.768  0.3694  0.2407  0.9988
  159MOL0     C20890  12.498   4.434   3.778  0.5465 -0.4941  0.0583
  159MOL0     O20891  12.623   4.429   3.721  0.2956  0.2508  0.4440
  159MOL0     C20892  12.703   4.547   3.716  0.1514 -0.9911 -0.1120
  159MOL0     C20893  12.838   4.507   3.657  0.2127  0.0363 -0.1840
  159MOL0     C20894  12.911   4.623   3.583 -0.0421  0.1413  0.2152
  159MOL0     C20895  13.046   4.564   3.540  0.2631 -0.5774  0.5577
  159MOL0     C20896  13.124   4.669   3.461  0.6342  0.3981 -0.6866
  159MOL0     C20897  13.168   4.796   3.536 -0.4080  0.4499  0.4569
  159MOL0     C20898  13.215   4.909   3.442  0.1056  0.2826  0.0860
  159MOL0     C20899  13.355   4.905   3.382 -0.1360 -0.1634 -0.2845
  159MOL0    Cl20900  13.359   5.032   3.255  0.1682 -0.3078 -0.2769
  159MOL0     C20901  12.445   4.551   3.841 -0.0909 -0.5744 -0.0231
  159MOL0     C20902  12.317   4.553   3.900  0.6383 -0.0854 -0.6719
  159MOL0     O20903  12.183   4.259   4.080 -0.1749  0.3276  0.1543
  159MOL0     C20904  11.924   4.240   4.169  0.5062 -0.4424 -0.2021
  159MOL0     C20905  11.805   4.235   4.255 -0.9835  0.1571  0.4238
  159MOL0     N20906  11.160   4.513   4.178 -0.2648  0.2460  0.6496
  159MOL0     N20907  11.067   4.599   4.152 -0.1642 -0.6038  0.2594
  159MOL0     C20908  10.224   4.776   3.548  0.3862 -0.5686  0.5248
  159MOL0     C20909  10.141   4.780   3.434  0.3666 -0.3259 -0.0758
  159MOL0     C20910   9.748   4.823   3.200  0.2944  0.9250 -0.7008
  159MOL0     C20911   9.734   4.737   3.088 -1.0034  0.3665  0.1035
  159MOL0     C20912   9.642   4.757   2.988 -0.3231  0.0375 -0.3312
  159MOL0     C20913   9.558   4.867   2.993  0.7965  0.5925 -0.7493
  159MOL0     O20914   9.467   4.879   2.893  0.1451 -0.2687  1.1028
  159MOL0     C20915   9.352   4.978   2.902 -0.9121  0.6095 -0.2932
  159MOL0     C20916   9.388   5.129   2.872  0.0608 -0.2116 -1.0842
  159MOL0     C20917   9.495   5.144   2.756  0.2227  0.7794 -0.5937
  159MOL0     C20918   9.544   5.290   2.738  0.8075 -0.6972  0.6297
  159MOL0     C20919   9.665   5.323   2.807 -0.4494  0.6177  0.3977
  159MOL0     C20920   9.773   5.341   2.865 -0.6805  1.0188 -0.1605
  159MOL0     C20921   9.550   4.942   3.109 -1.3298  0.4081 -0.5036
  159MOL0     C20922   9.653   4.930   3.208  0.3987  0.7666  0.1928
  159MOL0     H20923   9.899   4.572   3.529 -0.0883 -0.4014 -1.0278
  159MOL0     H20924  10.039   4.569   3.731 -4.2124  2.7430  0.7921
  159MOL0     H20925  10.314   4.498   3.788  2.7541  2.3201 -2.8711
  159MOL0     H20926  10.182   4.568   3.896  0.1512  0.4539  0.0940
  159MOL0     H20927  10.364   4.549   4.051  2.6906 -0.6307  0.2511
  159MOL0     H20928  10.334   4.712   3.998 -0.2969 -0.2892  0.6492
  159MOL0     H20929  10.533   4.652   3.804  0.4484  0.3540  1.1819
  159MOL0     H20930  10.558   4.517   3.920 -1.1708 -0.8841 -0.7146
  159MOL0     H20931  10.722   4.678   3.951 -0.0486  0.1256  0.6302
  159MOL0     H20932  10.605   4.818   3.974  2.6678  0.6720 -3.6541
  159MOL0     H20933  10.656   4.601   4.170 -2.1502 -0.5050 -1.9217
  159MOL0     H20934  10.511   4.704   4.189 -0.1905 -3.3678  2.6571
  159MOL0     H20935  10.657   4.814   4.319 -1.2382 -3.7276 -0.8248
  159MOL0     H20936  10.668   4.915   4.168  0.0096 -0.5196 -0.4750
  159MOL0     H20937  10.874   4.790   4.100  2.3650  3.4637  0.2135
  159MOL0     H20938  10.892   4.879   4.257  0.1164 -1.8719  3.4014
  159MOL0     H20939  10.825   4.590   4.284  2.0620 -2.3801 -1.0927
  159MOL0     H20940  10.853   4.722   4.395 -1.6605  1.9811 -0.3367
  159MOL0     H20941  11.108   4.601   4.481  0.5286 -0.5352  0.2741
  159MOL0     H20942  11.374   4.428   4.283 -0.4726 -0.9417 -0.8940
  159MOL0     H20943  11.281   4.317   4.379 -2.7718  0.0236  0.1954
  159MOL0     H20944  11.283   4.449   4.577  0.2618  0.6885  0.1225
  159MOL0     H20945  11.378   4.580   4.516  2.7929 -1.6904  0.9310
  159MOL0     H20946  11.525   4.448   4.649 -3.4506 -0.1621  0.7253
  159MOL0     H20947  11.487   4.306   4.564  0.4194 -0.6062 -1.2970
  159MOL0     H20948  11.692   4.488   4.507  1.4075  1.1013 -2.9994
  159MOL0     H20949  11.573   4.541   4.390  2.2016 -0.4726 -4.5592
  159MOL0     H20950  11.779   4.561   4.293  3.4489  1.1745  2.3617
  159MOL0     H20951  11.976   4.563   4.150  3.9630 -2.5365 -2.9518
  159MOL0     H20952  12.229   4.231   3.820  1.1779 -0.9085  1.9676
  159MOL0     H20953  12.478   4.243   3.727 -0.2015 -0.5680  1.7082
  159MOL0     H20954  12.711   4.581   3.820  2.0070 -3.4927  0.6736
  159MOL0     H20955  12.652   4.613   3.646  1.5604 -0.5885 -0.7982
  159MOL0     H20956  12.830   4.412   3.603 -1.1959 -0.8550  1.5013
  159MOL0     H20957  12.905   4.487   3.741  2.9302 -1.4587 -2.5253
  159MOL0     H20958  12.914   4.712   3.647 -2.6263 -1.8112  3.3799
  159MOL0     H20959  12.868   4.650   3.486  0.5184 -0.9183 -0.3457
  159MOL0     H20960  13.102   4.528   3.627 -1.4352 -1.9041  1.1582
  159MOL0     H20961  13.039   4.476   3.476  0.9417 -1.6715  1.9254
  159MOL0     H20962  13.066   4.698   3.373 -0.0669  2.1846  0.3099
  159MOL0     H20963  13.217   4.629   3.420  0.6576 -1.2650  0.8245
  159MOL0     H20964  13.246   4.782   3.611  2.3482 -0.2165 -2.3367
  159MOL0     H20965  13.092   4.838   3.602  1.5115  1.0227  2.4268
  159MOL0     H20966  13.144   4.907   3.360 -0.8474  2.9199  0.7274
  159MOL0     H20967  13.196   5.002   3.498 -0.3277 -0.7864  1.8014
  159MOL0     H20968  13.370   4.811   3.329 -0.5349 -0.2545 -0.2344
  159MOL0     H20969  13.442   4.922   3.446  0.8240 -1.5358 -1.1703
  159MOL0     H20970  12.493   4.648   3.829 -1.7096  0.2889  0.1298
  159MOL0     H20971  12.282   4.638   3.957 -0.7219 -0.4617 -0.9177
  159MOL0     H20972  11.958   4.138   4.151  2.2146  0.4050 -2.1702
  159MOL0     H20973  11.755   4.141   4.273  3.2931 -2.0556  2.1177
  159MOL0     H20974  10.307   4.846   3.551 -2.4035  3.0310  1.6301
  159MOL0     H20975  10.171   4.848   3.354 -1.0591 -0.1218 -0.4772
  159MOL0     H20976   9.798   4.651   3.068 -4.1109 -1.7333 -1.5407
  159MOL0     H20977   9.628   4.698   2.899  0.6060 -1.0541  0.2285
  159MOL0     H20978   9.298   4.961   2.996  0.5461 -2.1436  0.1513
  159MOL0     H20979   9.280   4.934   2.833  1.0787 -1.5566 -1.1005
  159MOL0     H20980   9.295   5.179   2.843 -0.7960 -0.1346  1.5224
  159MOL0     H20981   9.433   5.171   2.962 -1.6392 -0.7123  0.0368
  159MOL0     H20982   9.433   5.104   2.675 -2.1687 -1.5280  2.0830
  159MOL0     H20983   9.585   5.082   2.761  1.2556  2.2704  0.1092
  159MOL0     H20984   9.548   5.318   2.632 -1.5320 -0.6545  0.4892
  159MOL0     H20985   9.466   5.350   2.786  1.0266 -0.7779  1.0927
  159MOL0     H20986   9.868   5.334   2.914 -0.9216 -4.3477  0.1519
  159MOL0     H20987   9.477   5.022   3.113  1.5409  3.3281 -2.0504
  159MOL0     H20988   9.656   5.008   3.283 -0.6200  1.6096 -0.6067
  160MOL0     O20989   5.560   0.435   1.215 -0.4908  0.2534 -0.5465
  160MOL0     C20990   5.566   0.521   1.128  0.4200 -0.2656 -0.9664
  160MOL0     O20991   5.514   0.508   1.003  0.3188  0.6944  0.2592
  160MOL0     C20992   5.439   0.395   0.956 -1.4586 -0.0504  0.0269
  160MOL0     C20993   5.341   0.339   1.049 -0.0655 -0.3911 -0.3097
  160MOL0     C20994   5.239   0.248   1.000 -0.0911 -0.5678  0.7218
  160MOL0     C20995   5.243   0.200   0.868  0.1363 -0.1604  0.2766
  160MOL0     O20996   5.168   0.117   0.791 -0.3237  0.2672 -0.2765
  160MOL0     C20997   5.034   0.095   0.831 -0.3926  0.9832 -1.0518
  160MOL0     C20998   5.009   0.024   0.971 -1.1071 -0.5164 -0.1778
  160MOL0     C20999   4.871  -0.035   0.991 -0.4239 -0.2622 -0.8040
  160MOL0     C21000   4.862  -0.136   1.111  0.5537 -0.9719  0.0036
  160MOL0     C21001   4.814  -0.055   1.236  0.5940  0.1291 -0.2071
  160MOL0     C21002   4.664  -0.039   1.251 -0.3814  0.1700 -0.4871
  160MOL0     C21003   4.616   0.109   1.246 -0.5281  0.9344 -0.7587
  160MOL0     C21004   4.461   0.124   1.260 -0.2049 -0.2591 -0.3542
  160MOL0     N21005   4.397   0.058   1.145 -0.5973  0.0536 -0.1469
  160MOL0     C21006   4.350  -0.070   1.146  0.3766 -0.2908 -0.7562
  160MOL0     C21007   4.309  -0.090   1.014 -0.3709 -0.2920 -0.7788
  160MOL0     C21008   4.246  -0.214   0.959  0.7269 -0.3736 -0.6590
  160MOL0     C21009   4.347  -0.321   0.945 -0.2767  1.0502  0.7316
  160MOL0     C21010   4.282  -0.438   0.867 -0.7459 -0.9883  0.1071
  160MOL0     C21011   4.173  -0.507   0.944  0.0207 -0.5659  0.5468
  160MOL0     O21012   4.167  -0.635   0.893  0.0961  0.5196 -0.8148
  160MOL0     C21013   4.103  -0.735   0.964  0.3892  0.4428  0.2408
  160MOL0     C21014   4.102  -0.859   0.894  0.2144 -0.5146  0.1238
  160MOL0     C21015   4.042  -0.967   0.954 -0.8469 -0.2590 -1.1315
  160MOL0     C21016   3.978  -0.952   1.079  0.8785  0.1030  0.7793
  160MOL0     C21017   3.915  -1.067   1.153  0.4943  0.0029  0.4170
  160MOL0     O21018   3.847  -1.045   1.274 -0.1837 -0.4259 -0.5205
  160MOL0     C21019   3.795  -1.166   1.325  0.8195  0.3401 -0.0347
  160MOL0     C21020   3.867  -1.276   1.387 -0.8397 -0.3944 -0.2271
  160MOL0     C21021   3.798  -1.383   1.446  0.3471  1.1453  0.3743
  160MOL0     C21022   3.658  -1.397   1.433 -0.4273  0.5071 -0.1636
  160MOL0     O21023   3.584  -1.509   1.465 -0.3437  0.3175 -0.0183
  160MOL0     C21024   3.668  -1.624   1.472 -0.0239  0.3565 -1.2261
  160MOL0     C21025   3.561  -1.734   1.473 -0.5828  1.1849 -0.7410
  160MOL0     C21026   3.621  -1.885   1.474  0.1840  0.6727  0.0499
  160MOL0     C21027   3.668  -1.938   1.609 -0.4926  0.5160  0.1455
  160MOL0     C21028   3.555  -1.958   1.716  0.4733 -0.9824 -0.5478
  160MOL0     C21029   3.604  -2.057   1.832  0.2133 -0.9603 -0.4795
  160MOL0     C21030   3.486  -2.076   1.925 -0.6238 -0.2354 -0.3793
  160MOL0     C21031   3.469  -1.963   2.028 -0.0900 -0.1103 -0.0119
  160MOL0    Cl21032   3.350  -2.034   2.153 -0.4317  0.1245 -0.1661
  160MOL0     C21033   3.588  -1.292   1.372  0.8897 -0.2855 -0.8489
  160MOL0     C21034   3.655  -1.175   1.330  0.2353 -1.0405 -0.2775
  160MOL0     O21035   3.935  -1.175   1.100  0.3553 -0.7022  0.3064
  160MOL0     C21036   3.984  -0.829   1.144  0.5229  1.1489  0.7207
  160MOL0     C21037   4.041  -0.721   1.083  0.3654 -0.7698  0.1102
  160MOL0     N21038   4.370   0.011   0.943 -0.2122 -0.8802 -0.0199
  160MOL0     N21039   4.409   0.109   1.020 -0.3471 -0.5809  0.1495
  160MOL0     C21040   5.344   0.257   0.788  0.8186  0.9393  0.7460
  160MOL0     C21041   5.432   0.357   0.827  0.2731  0.3671 -0.3906
  160MOL0     C21042   5.647   0.647   1.163 -0.0335 -0.4387  1.3490
  160MOL0     C21043   5.670   0.734   1.057 -0.9489  0.0306 -0.3003
  160MOL0     C21044   5.735   0.851   1.080 -0.4322 -0.9440  0.0908
  160MOL0     C21045   5.776   0.895   1.214 -0.2093  0.2420 -0.4883
  160MOL0     O21046   5.849   1.008   1.237  0.1346 -0.2102  0.7148
  160MOL0     C21047   5.978   0.991   1.179  0.2602 -0.5130  0.4773
  160MOL0     C21048   5.992   1.088   1.055 -0.0974  0.3907 -0.5500
  160MOL0     C21049   5.958   1.227   1.104 -0.0003 -0.5487  0.4603
  160MOL0     C21050   6.013   1.331   0.998  0.3908  1.4676 -0.5209
  160MOL0     C21051   5.922   1.450   0.981  0.4172  0.0685  1.0519
  160MOL0     C21052   5.850   1.543   0.958  0.5467  0.0530  0.2323
  160MOL0     C21053   5.751   0.801   1.311  0.4344 -0.8776 -1.1180
  160MOL0     C21054   5.689   0.675   1.293  0.4212  0.1579  1.0012
  160MOL0     H21055   5.348   0.363   1.155  3.1938 -3.8976  0.5138
  160MOL0     H21056   5.181   0.220   1.088 -0.4328  1.5647  1.2231
  160MOL0     H21057   4.987   0.047   0.745 -0.2410  1.4682 -1.4123
  160MOL0     H21058   4.978   0.189   0.833 -2.9192 -0.4336 -0.0192
  160MOL0     H21059   5.041   0.078   1.060  2.1788 -2.4272 -0.0459
  160MOL0     H21060   5.079  -0.061   0.973  0.5334  0.7031 -1.8710
  160MOL0     H21061   4.831  -0.095   0.909 -0.1120 -2.0031  0.2710
  160MOL0     H21062   4.799   0.048   0.998 -0.6000 -0.5115  3.9552
  160MOL0     H21063   4.787  -0.214   1.093 -1.1477  0.6394 -0.2167
  160MOL0     H21064   4.957  -0.184   1.134 -1.2947 -4.1160  1.9222
  160MOL0     H21065   4.855   0.046   1.223  2.8906 -0.9964 -2.6571
  160MOL0     H21066   4.854  -0.104   1.325  0.5430 -2.0448 -1.3250
  160MOL0     H21067   4.633  -0.089   1.343  0.9244  0.5049  0.1608
  160MOL0     H21068   4.633  -0.093   1.161  0.1197 -2.9052  1.0781
  160MOL0     H21069   4.667   0.157   1.330  2.0063 -3.4331  0.5334
  160MOL0     H21070   4.654   0.149   1.151  2.5713 -0.4794 -0.2202
  160MOL0     H21071   4.432   0.229   1.250  0.5704  0.1954  1.6439
  160MOL0     H21072   4.428   0.098   1.361 -0.0768  2.3673  0.4464
  160MOL0     H21073   4.342  -0.137   1.231  0.5520  2.5503  1.6653
  160MOL0     H21074   4.209  -0.190   0.859  1.9843 -0.1464 -1.0865
  160MOL0     H21075   4.168  -0.249   1.026 -0.0360 -0.6737 -1.6874
  160MOL0     H21076   4.393  -0.355   1.038  0.8563 -0.0590 -0.1954
  160MOL0     H21077   4.424  -0.278   0.879  1.8688 -0.8941  1.8316
  160MOL0     H21078   4.227  -0.407   0.778 -1.0594  0.7780  0.8950
  160MOL0     H21079   4.360  -0.503   0.825  0.0874  1.4698 -2.4506
  160MOL0     H21080   4.073  -0.464   0.934 -1.3396 -3.5620 -0.1836
  160MOL0     H21081   4.191  -0.501   1.051  3.9677 -1.6065  0.1032
  160MOL0     H21082   4.160  -0.878   0.804 -1.0330  2.2848 -1.3831
  160MOL0     H21083   4.071  -1.066   0.919  3.3461  0.1010  0.6679
  160MOL0     H21084   3.975  -1.280   1.374 -0.8037  1.2553 -0.6633
  160MOL0     H21085   3.861  -1.460   1.489 -2.3247 -1.5588 -0.1964
  160MOL0     H21086   3.714  -1.617   1.571  2.4482  0.0862 -2.2990
  160MOL0     H21087   3.727  -1.629   1.380  1.8623 -0.0901 -0.0442
  160MOL0     H21088   3.503  -1.721   1.382 -1.3151 -0.5240 -0.5474
  160MOL0     H21089   3.496  -1.725   1.560 -1.1549  0.0326 -1.0320
  160MOL0     H21090   3.693  -1.888   1.392 -2.8635  0.3860 -2.8422
  160MOL0     H21091   3.544  -1.957   1.446  0.9757 -1.5669  3.2073
  160MOL0     H21092   3.722  -2.032   1.591 -0.5331  0.2760  1.1979
  160MOL0     H21093   3.753  -1.881   1.649 -1.8107  2.4732  0.2669
  160MOL0     H21094   3.458  -1.988   1.675 -1.1876  1.7739  1.0767
  160MOL0     H21095   3.528  -1.861   1.757  2.3381 -0.6385 -0.0236
  160MOL0     H21096   3.689  -2.024   1.891 -1.2315 -1.3712  1.9630
  160MOL0     H21097   3.637  -2.147   1.779  1.0216 -1.3937  0.7272
  160MOL0     H21098   3.395  -2.086   1.864 -0.5801  0.7811 -0.6256
  160MOL0     H21099   3.497  -2.175   1.970 -1.3445 -1.1817 -2.1478
  160MOL0     H21100   3.433  -1.867   1.987  1.0759  0.8735  1.1777
  160MOL0     H21101   3.559  -1.935   2.084  0.9724 -2.2248 -0.5615
  160MOL0     H21102   3.485  -1.306   1.338  0.6604 -0.5477 -0.0705
  160MOL0     H21103   3.597  -1.088   1.299  2.2397  1.0003  1.4261
  160MOL0     H21104   3.947  -0.817   1.245  1.6294  2.6154  0.9806
  160MOL0     H21105   4.031  -0.631   1.143 -1.7105 -2.6145  2.7653
  160MOL0     H21106   5.361   0.229   0.684 -3.3800  0.8647 -0.1211
  160MOL0     H21107   5.503   0.402   0.757  1.1344 -0.0186  0.2222
  160MOL0     H21108   5.629   0.705   0.961  3.4239 -2.3072 -1.7720
  160MOL0     H21109   5.764   0.924   1.006  0.8310 -0.6098  0.8860
  160MOL0     H21110   6.004   0.888   1.152  0.9295  0.4148 -2.8760
  160MOL0     H21111   6.058   1.025   1.244  1.1048 -0.0377 -0.7608
  160MOL0     H21112   6.091   1.090   1.008  0.6847  0.2766  1.0017
  160MOL0     H21113   5.936   1.057   0.967 -1.9362 -0.1543  0.7467
  160MOL0     H21114   5.990   1.247   1.207  0.7733  0.5582  0.0289
  160MOL0     H21115   5.849   1.233   1.100 -0.2014 -3.0584  0.7630
  160MOL0     H21116   6.102   1.377   1.043  0.2911 -1.8766  3.7589
  160MOL0     H21117   6.049   1.284   0.906 -2.7296  0.5169 -1.3673
  160MOL0     H21118   5.779   1.619   0.931 -2.0182 -3.0256 -2.6976
  160MOL0     H21119   5.791   0.822   1.410  1.1222 -1.2560 -1.3090
  160MOL0     H21120   5.670   0.603   1.371  1.9355 -1.1940  0.1945
  161MOL0     O21121  10.033   0.708   3.670  0.2980 -0.1806 -0.6240
  161MOL0     C21122  10.119   0.634   3.609  0.4394  0.0890  0.6776
  161MOL0     O21123  10.215   0.568   3.659 -1.1101  0.1401 -0.3380
  161MOL0     C21124  10.223   0.564   3.798 -0.4556  0.2517  0.7870
  161MOL0     C21125  10.310   0.651   3.866  0.3429 -0.9159  0.1091
  161MOL0     C21126  10.291   0.669   4.000 -0.5558  1.4972  0.0413
  161MOL0     C21127  10.211   0.581   4.078 -1.3484 -0.2148  0.0831
  161MOL0     O21128  10.211   0.590   4.216  0.4460 -0.8338  0.5023
  161MOL0     C21129  10.328   0.625   4.278 -0.6022 -0.8608 -0.2351
  161MOL0     C21130  10.324   0.551   4.415  0.1298  0.6301 -0.5480
  161MOL0     C21131  10.313   0.397   4.408  0.1100 -0.0315 -0.3322
  161MOL0     C21132  10.267   0.332   4.542 -0.0025 -0.9771 -0.1468
  161MOL0     C21133  10.294   0.195   4.559 -0.7212 -0.7098  0.1084
  161MOL0     C21134  10.250   0.153   4.700  0.9093  0.4495  0.0350
  161MOL0     C21135  10.268   0.003   4.720  0.0040  0.2452 -0.5787
  161MOL0     C21136  10.420  -0.040   4.708 -0.5553 -0.8450  0.5478
  161MOL0     N21137  10.447  -0.168   4.771  0.1114  0.3473  0.3752
  161MOL0     C21138  10.425  -0.191   4.906  0.2926 -0.5311  0.2997
  161MOL0     C21139  10.469  -0.313   4.935  1.2811  0.3766  0.9017
  161MOL0     C21140  10.478  -0.387   5.065 -0.7704  0.9007 -0.7880
  161MOL0     C21141  10.379  -0.509   5.069 -0.3165 -0.2177 -0.8005
  161MOL0     C21142  10.402  -0.607   5.192 -0.2188 -0.4861  0.5889
  161MOL0     C21143  10.358  -0.532   5.323  0.1643 -0.0170  0.0591
  161MOL0     O21144  10.458  -0.530   5.428 -0.4286 -0.6602 -0.1179
  161MOL0     C21145  10.423  -0.513   5.560 -0.8502 -0.3329  1.1833
  161MOL0     C21146  10.315  -0.432   5.605  1.1996  1.1213  0.4476
  161MOL0     C21147  10.274  -0.429   5.736 -0.0700 -0.5862  0.3093
  161MOL0     C21148  10.366  -0.485   5.831  0.1841  0.3767  0.6439
  161MOL0     C21149  10.328  -0.485   5.979  0.1514  0.1350  1.2113
  161MOL0     O21150  10.208  -0.411   6.010 -0.9256  0.5982 -0.1243
  161MOL0     C21151  10.188  -0.369   6.133 -0.2191  0.5741  0.4680
  161MOL0     C21152  10.188  -0.452   6.238  0.1358  1.0440  0.2192
  161MOL0     C21153  10.174  -0.405   6.366 -0.8405  0.4242 -0.9984
  161MOL0     C21154  10.166  -0.271   6.387 -0.7979  0.9661  0.4620
  161MOL0     O21155  10.144  -0.215   6.513 -1.3162  0.9219 -0.4839
  161MOL0     C21156  10.061  -0.287   6.614 -0.0193  0.5401  0.1915
  161MOL0     C21157  10.018  -0.204   6.724  0.1821  0.2190 -1.4139
  161MOL0     C21158   9.915  -0.099   6.693 -0.1888 -0.5092 -0.3600
  161MOL0     C21159   9.886  -0.009   6.807 -0.3137 -0.2320 -0.7274
  161MOL0     C21160   9.845   0.126   6.760  0.7339  0.0931  0.3433
  161MOL0     C21161   9.721   0.114   6.670 -0.0790  0.6201  0.0405
  161MOL0     C21162   9.634   0.241   6.640 -0.2034  0.8664  1.1685
  161MOL0     C21163   9.500   0.221   6.580  0.4945 -0.1778  0.1237
  161MOL0    Cl21164   9.517   0.134   6.420  0.2912 -0.4571 -0.0805
  161MOL0     C21165  10.183  -0.187   6.279  0.2968 -0.6629 -0.0574
  161MOL0     C21166  10.195  -0.228   6.150  0.9157  0.0311  0.1005
  161MOL0     O21167  10.396  -0.551   6.060 -0.5238  0.4001 -0.3808
  161MOL0     C21168  10.480  -0.564   5.783  0.6382 -0.0837 -0.5061
  161MOL0     C21169  10.500  -0.576   5.650 -0.4442  0.0148 -1.0328
  161MOL0     N21170  10.517  -0.365   4.814 -0.5273 -1.0519  0.0488
  161MOL0     N21171  10.516  -0.275   4.724 -0.8216  0.4230  0.1166
  161MOL0     C21172  10.138   0.486   4.016  1.5345  0.2257  0.4342
  161MOL0     C21173  10.145   0.480   3.868 -0.1072 -0.5986  0.1422
  161MOL0     C21174  10.086   0.610   3.465  0.0567 -1.2362 -0.0785
  161MOL0     C21175  10.159   0.506   3.405  0.1935  0.7253 -0.2781
  161MOL0     C21176  10.127   0.471   3.276 -0.2382 -0.3086  0.7418
  161MOL0     C21177  10.026   0.544   3.205 -0.2078 -0.0669  0.5879
  161MOL0     O21178  10.010   0.504   3.071  0.0361  0.9432  0.5200
  161MOL0     C21179   9.958   0.378   3.036 -0.8233 -0.0311 -0.2238
  161MOL0     C21180   9.869   0.401   2.913 -1.1120 -0.2312  0.2360
  161MOL0     C21181   9.730   0.417   2.962 -0.1845  0.0217  0.4591
  161MOL0     C21182   9.623   0.419   2.852 -0.2322 -0.1741  0.2057
  161MOL0     C21183   9.490   0.460   2.895  0.3572 -0.4054  0.1853
  161MOL0     C21184   9.375   0.492   2.914  0.4499 -0.5370  0.2952
  161MOL0     C21185   9.956   0.644   3.264 -0.6974 -1.1399 -1.1220
  161MOL0     C21186   9.985   0.673   3.394 -1.0309 -0.5459 -0.9362
  161MOL0     H21187  10.369   0.723   3.811 -4.0519  1.0474 -2.5744
  161MOL0     H21188  10.345   0.752   4.043 -0.0063  0.2085  1.9453
  161MOL0     H21189  10.342   0.731   4.299 -1.2205 -1.3882  3.6695
  161MOL0     H21190  10.422   0.587   4.236  1.7543  1.9785  2.0821
  161MOL0     H21191  10.245   0.584   4.484  0.6748 -0.1231  0.4651
  161MOL0     H21192  10.420   0.574   4.463  0.8851  0.8533 -2.1051
  161MOL0     H21193  10.401   0.344   4.369 -0.3520 -0.2658 -1.0842
  161MOL0     H21194  10.227   0.372   4.346  0.2237 -0.7877 -0.1912
  161MOL0     H21195  10.320   0.383   4.623  2.0545 -1.0341 -1.3664
  161MOL0     H21196  10.160   0.350   4.558  0.0924  0.3834 -0.8800
  161MOL0     H21197  10.401   0.175   4.546 -0.1137  2.4504 -0.3729
  161MOL0     H21198  10.238   0.138   4.484 -0.5848  0.9991 -1.3648
  161MOL0     H21199  10.146   0.182   4.718  1.4087  1.2320  2.0163
  161MOL0     H21200  10.319   0.197   4.773 -0.4308  1.6318  0.6591
  161MOL0     H21201  10.233  -0.018   4.822  2.1142 -0.4064  0.0680
  161MOL0     H21202  10.207  -0.058   4.653 -0.1004 -3.6987  2.7344
  161MOL0     H21203  10.477   0.036   4.762  0.3187 -1.2212  0.1629
  161MOL0     H21204  10.446  -0.055   4.603 -3.3805 -2.0267 -0.0729
  161MOL0     H21205  10.389  -0.123   4.983  0.2808 -1.1450  0.8425
  161MOL0     H21206  10.440  -0.318   5.142 -1.7546 -0.2653 -0.2028
  161MOL0     H21207  10.582  -0.415   5.079 -1.0423 -0.1176 -0.7507
  161MOL0     H21208  10.401  -0.564   4.976 -1.0765 -0.9342 -0.5750
  161MOL0     H21209  10.273  -0.480   5.072 -0.1104  0.4744  2.4890
  161MOL0     H21210  10.339  -0.696   5.183  1.6657 -1.6798 -2.7640
  161MOL0     H21211  10.509  -0.629   5.192 -0.3363 -1.1486 -0.8775
  161MOL0     H21212  10.269  -0.578   5.367 -0.0375  1.5670  1.4178
  161MOL0     H21213  10.324  -0.432   5.295 -3.1153 -0.8039  0.7665
  161MOL0     H21214  10.243  -0.408   5.527  0.5954 -0.5685  0.4593
  161MOL0     H21215  10.182  -0.376   5.759 -0.6244 -1.3633 -0.0652
  161MOL0     H21216  10.190  -0.558   6.215 -0.0913  0.6715  1.7746
  161MOL0     H21217  10.160  -0.482   6.441 -1.5509  1.0537 -0.4695
  161MOL0     H21218  10.132  -0.354   6.662  0.8330  2.7896  2.2777
  161MOL0     H21219   9.973  -0.331   6.566  0.0894 -0.4226  0.8673
  161MOL0     H21220  10.108  -0.161   6.769 -2.2117  1.9351  2.2327
  161MOL0     H21221   9.979  -0.261   6.809  1.4295  4.8854  2.7965
  161MOL0     H21222   9.822  -0.150   6.666 -1.2295  1.4653 -0.7705
  161MOL0     H21223   9.961  -0.053   6.604  1.2082 -0.5776  0.3029
  161MOL0     H21224   9.815  -0.061   6.872  2.8624 -0.8482  2.5499
  161MOL0     H21225   9.976  -0.004   6.868 -1.2858 -1.4033  0.8678
  161MOL0     H21226   9.929   0.175   6.711  0.0419  1.8692  0.8480
  161MOL0     H21227   9.818   0.184   6.849  0.1055 -0.7669  0.7273
  161MOL0     H21228   9.646   0.064   6.732 -0.9300  0.2883 -1.2179
  161MOL0     H21229   9.732   0.055   6.578  0.6758  1.2328 -0.2678
  161MOL0     H21230   9.625   0.308   6.726  2.4454 -0.7031  2.7986
  161MOL0     H21231   9.686   0.291   6.557  0.7474 -4.4866 -1.9174
  161MOL0     H21232   9.431   0.302   6.558 -3.0235 -3.6360 -3.1794
  161MOL0     H21233   9.442   0.151   6.642 -1.0190  0.5434 -0.4362
  161MOL0     H21234  10.180  -0.079   6.294  1.0428 -0.9272  2.5931
  161MOL0     H21235  10.199  -0.151   6.074  4.8671 -1.4514 -1.4537
  161MOL0     H21236  10.552  -0.594   5.859  0.4791 -2.5334 -1.2082
  161MOL0     H21237  10.593  -0.624   5.624  1.9352  3.7334 -0.2068
  161MOL0     H21238  10.065   0.428   4.070  0.6617  1.7299  0.9367
  161MOL0     H21239  10.084   0.414   3.806  1.6437 -1.9679 -0.2030
  161MOL0     H21240  10.223   0.439   3.461 -0.4172 -2.2690 -2.8782
  161MOL0     H21241  10.191   0.397   3.229  0.6757  0.4943  0.6920
  161MOL0     H21242   9.892   0.334   3.111 -2.3312 -0.0363 -1.5106
  161MOL0     H21243  10.037   0.304   3.020  0.9903  1.5927  0.7365
  161MOL0     H21244   9.902   0.477   2.841 -1.3306 -1.7536 -1.5621
  161MOL0     H21245   9.866   0.311   2.850 -1.9561  0.0645 -0.1621
  161MOL0     H21246   9.720   0.516   3.009  0.9621  0.5320 -0.3465
  161MOL0     H21247   9.701   0.338   3.033 -0.8371  0.9890  1.3084
  161MOL0     H21248   9.645   0.495   2.776 -2.6618  0.9634  0.5323
  161MOL0     H21249   9.603   0.322   2.806  0.0631  1.6188 -4.1437
  161MOL0     H21250   9.273   0.521   2.927  0.3185 -0.8380 -0.0606
  161MOL0     H21251   9.880   0.697   3.206  1.5816  3.1447 -0.6145
  161MOL0     H21252   9.925   0.745   3.449 -0.7238  0.4507 -1.8783
  162MOL0     O21253  10.576  11.201   3.865 -0.4793  0.0753  0.2796
  162MOL0     C21254  10.669  11.169   3.785  0.6543 -0.1312 -0.2357
  162MOL0     O21255  10.652  11.097   3.671  0.7219  0.6770  0.4945
  162MOL0     C21256  10.526  11.067   3.635  1.1700  0.2873  0.0893
  162MOL0     C21257  10.496  10.932   3.615  0.6414 -0.0787  1.3998
  162MOL0     C21258  10.361  10.882   3.606 -0.5812  0.0183 -0.8540
  162MOL0     C21259  10.258  10.980   3.591  0.3036 -0.3896  0.1674
  162MOL0     O21260  10.124  10.955   3.575  0.1039 -0.5738 -0.4609
  162MOL0     C21261  10.085  10.816   3.586 -0.3160 -0.1133 -0.3242
  162MOL0     C21262   9.938  10.795   3.631  0.4242 -1.3301  0.7790
  162MOL0     C21263   9.931  10.691   3.751  0.7656  0.0096  0.7613
  162MOL0     C21264   9.790  10.677   3.812 -1.0462 -0.9431  1.2974
  162MOL0     C21265   9.689  10.634   3.702  0.4807 -0.1891  0.3628
  162MOL0     C21266   9.721  10.518   3.610  0.1457  0.3489  1.3271
  162MOL0     C21267   9.711  10.388   3.683 -0.0755  0.7715  0.0367
  162MOL0     C21268   9.562  10.347   3.730 -0.3283 -1.2117  0.2669
  162MOL0     N21269   9.516  10.212   3.687  0.3887 -0.5433  0.5035
  162MOL0     C21270   9.460  10.194   3.560 -1.1650 -0.3280  0.3439
  162MOL0     C21271   9.406  10.064   3.558 -0.0480 -0.6938  1.3763
  162MOL0     C21272   9.358   9.978   3.444  0.1488  0.7577 -0.6118
  162MOL0     C21273   9.442   9.980   3.309  0.1757 -0.3409 -0.3504
  162MOL0     C21274   9.595   9.950   3.329 -0.1964 -0.4125  0.2169
  162MOL0     C21275   9.675   9.925   3.204 -0.5691 -0.5799  0.1893
  162MOL0     O21276   9.704  10.061   3.162 -0.0707  0.1024 -0.7918
  162MOL0     C21277   9.809  10.119   3.237 -0.0492 -0.8958  0.1925
  162MOL0     C21278   9.786  10.237   3.307  0.0410 -0.4323  0.7214
  162MOL0     C21279   9.891  10.309   3.356  0.2317 -0.3072 -1.1451
  162MOL0     C21280  10.025  10.264   3.345  1.0303  1.1972 -0.0248
  162MOL0     C21281  10.136  10.340   3.419 -0.6470  0.7191 -0.0565
  162MOL0     O21282  10.265  10.293   3.413 -0.1380 -0.4476  0.5088
  162MOL0     C21283  10.358  10.368   3.469  0.4684  0.3842 -0.6787
  162MOL0     C21284  10.382  10.505   3.425 -0.2234 -0.5339 -0.4093
  162MOL0     C21285  10.499  10.571   3.471  0.2492  0.6057  1.4338
  162MOL0     C21286  10.582  10.517   3.565  0.3030  0.2275  0.2299
  162MOL0     O21287  10.693  10.595   3.607 -0.4695  0.3158 -0.1416
  162MOL0     C21288  10.823  10.537   3.627  0.0162  0.4000 -0.8814
  162MOL0     C21289  10.882  10.612   3.750 -0.6970 -0.5975 -0.5642
  162MOL0     C21290  10.940  10.747   3.699 -0.2312  0.4042 -0.8186
  162MOL0     C21291  11.004  10.836   3.807 -0.1906  0.6473  0.7363
  162MOL0     C21292  11.136  10.780   3.874 -0.0457  0.7717  0.4109
  162MOL0     C21293  11.184  10.870   3.986 -0.5277  0.2274  0.3018
  162MOL0     C21294  11.102  10.849   4.120 -0.5209  0.0876 -0.6159
  162MOL0     C21295  11.172  10.908   4.239  0.0896  0.4044 -0.6583
  162MOL0    Cl21296  11.086  10.891   4.389 -0.8043  0.0236 -0.3595
  162MOL0     C21297  10.559  10.386   3.606  0.6800 -0.7187  0.4442
  162MOL0     C21298  10.450  10.312   3.563 -0.2435  0.2798 -0.4527
  162MOL0     O21299  10.102  10.445   3.484  0.2276  0.5518  0.2379
  162MOL0     C21300  10.047  10.138   3.278 -0.4411 -1.2600 -0.1544
  162MOL0     C21301   9.936  10.070   3.226  0.3506  0.9000 -1.4490
  162MOL0     N21302   9.425  10.022   3.681 -0.8259 -0.6870  1.1277
  162MOL0     N21303   9.494  10.102   3.755  0.8285 -0.2735 -0.4427
  162MOL0     C21304  10.295  11.106   3.589  0.3366  0.0381 -0.7953
  162MOL0     C21305  10.422  11.153   3.613  0.6462 -0.2556 -0.2122
  162MOL0     C21306  10.810  11.207   3.831 -0.2456  1.1021  0.3982
  162MOL0     C21307  10.828  11.253   3.963  0.1455 -0.6448  0.1247
  162MOL0     C21308  10.955  11.284   4.006  1.1329 -0.1615 -0.4547
  162MOL0     C21309  11.069  11.251   3.923  0.7076 -0.0610 -0.8081
  162MOL0     O21310  11.202  11.265   3.963 -0.4899  0.3723 -0.3763
  162MOL0     C21311  11.225  11.371   4.056  0.0548  0.2052  0.1738
  162MOL0     C21312  11.210  11.511   3.991  0.5327 -0.0270 -0.7035
  162MOL0     C21313  11.272  11.603   4.094  0.5391  0.1715 -0.0089
  162MOL0     C21314  11.182  11.643   4.210  0.8437  0.6088  0.0498
  162MOL0     C21315  11.223  11.774   4.274 -0.2525 -0.2648  0.0709
  162MOL0     C21316  11.251  11.879   4.322 -0.6077 -0.9582  0.2041
  162MOL0     C21317  11.042  11.224   3.784 -0.4548  0.0657  0.5591
  162MOL0     C21318  10.912  11.197   3.741  0.6708  0.2282  0.9154
  162MOL0     H21319  10.574  10.858   3.602 -1.7764 -2.5715 -0.1157
  162MOL0     H21320  10.350  10.775   3.588 -0.2056 -0.0994 -0.3833
  162MOL0     H21321  10.151  10.765   3.657  1.3338  1.8235 -0.3699
  162MOL0     H21322  10.100  10.772   3.487  2.5060 -0.8452  0.3496
  162MOL0     H21323   9.896  10.758   3.538  1.5505  2.1949 -1.3111
  162MOL0     H21324   9.886  10.888   3.656 -0.2942 -1.4732 -0.1379
  162MOL0     H21325   9.999  10.720   3.831  0.2257  0.8966  0.9193
  162MOL0     H21326   9.972  10.601   3.704 -0.7121 -0.5539  0.5001
  162MOL0     H21327   9.790  10.601   3.891  0.6418  1.3075  3.6281
  162MOL0     H21328   9.772  10.775   3.857 -0.9479  0.0530 -0.6945
  162MOL0     H21329   9.677  10.721   3.636  1.3902 -0.9599 -0.8535
  162MOL0     H21330   9.588  10.612   3.739  0.2310  0.2994 -0.0140
  162MOL0     H21331   9.825  10.539   3.584  0.2557  1.0157  2.2548
  162MOL0     H21332   9.661  10.520   3.518 -3.8681 -2.8327  3.5357
  162MOL0     H21333   9.755  10.305   3.627 -1.1728 -1.8187  2.7009
  162MOL0     H21334   9.758  10.394   3.782 -0.9419 -0.4671  0.5595
  162MOL0     H21335   9.499  10.425   3.686  3.5738  1.3189 -1.3826
  162MOL0     H21336   9.548  10.360   3.838 -2.1906 -1.2895  0.0655
  162MOL0     H21337   9.467  10.269   3.481 -3.7322 -0.2026  0.1502
  162MOL0     H21338   9.257  10.008   3.415 -0.3997 -0.4351 -0.0069
  162MOL0     H21339   9.368   9.874   3.476  0.1812  0.9300 -0.0490
  162MOL0     H21340   9.435  10.086   3.282  2.6353 -0.5811 -2.4270
  162MOL0     H21341   9.399   9.917   3.230 -2.0637 -2.4524  2.3762
  162MOL0     H21342   9.626  10.025   3.402  2.1500 -1.3597  0.2621
  162MOL0     H21343   9.592   9.854   3.381 -0.3560 -0.2135  0.5775
  162MOL0     H21344   9.630   9.854   3.134 -2.3427  0.6236  0.0305
  162MOL0     H21345   9.772   9.878   3.222  1.8545  2.7555 -2.6517
  162MOL0     H21346   9.681  10.261   3.318 -0.6609 -1.6159 -2.3723
  162MOL0     H21347   9.880  10.405   3.405  0.7623 -1.2359  0.8974
  162MOL0     H21348  10.314  10.558   3.360  1.8040  1.9586 -0.6597
  162MOL0     H21349  10.517  10.671   3.431 -1.9557  1.9507  3.5853
  162MOL0     H21350  10.896  10.559   3.549 -1.4108  3.8615 -1.4391
  162MOL0     H21351  10.811  10.430   3.649  3.2876  0.2018  0.5776
  162MOL0     H21352  10.970  10.558   3.787 -1.2549 -2.3892 -1.7148
  162MOL0     H21353  10.813  10.627   3.833 -0.4824  0.3055 -0.5290
  162MOL0     H21354  10.852  10.789   3.649 -2.7523 -0.8371  2.2110
  162MOL0     H21355  11.019  10.740   3.624  1.8175  3.1911  0.8683
  162MOL0     H21356  11.024  10.928   3.752  0.9704  1.5103  2.5118
  162MOL0     H21357  10.927  10.862   3.879 -1.9862 -2.2617  0.0172
  162MOL0     H21358  11.212  10.791   3.797  0.0911  1.7312  0.6593
  162MOL0     H21359  11.122  10.678   3.910 -0.8780  0.8181  0.2488
  162MOL0     H21360  11.183  10.975   3.958  0.6339 -0.6576 -3.6834
  162MOL0     H21361  11.282  10.824   3.998 -0.0261  0.9326 -0.9321
  162MOL0     H21362  11.004  10.897   4.107 -0.6337  1.5301  3.8368
  162MOL0     H21363  11.071  10.748   4.147 -0.3987  0.7055  2.1093
  162MOL0     H21364  11.187  11.015   4.222  1.6350  0.3201  0.1008
  162MOL0     H21365  11.273  10.871   4.256  0.4736  2.5704  2.7947
  162MOL0     H21366  10.617  10.354   3.692  0.1943 -1.0406  0.6591
  162MOL0     H21367  10.441  10.207   3.589 -1.0318 -0.6924 -3.9930
  162MOL0     H21368  10.152  10.113   3.269  0.5903  2.5461 -0.2640
  162MOL0     H21369   9.937   9.984   3.159 -0.7237  0.8509 -1.4251
  162MOL0     H21370  10.225  11.189   3.585  2.4006  2.0399  1.4040
  162MOL0     H21371  10.457  11.255   3.601  1.1612 -0.6148 -2.0193
  162MOL0     H21372  10.750  11.267   4.037 -1.6872  0.7993 -1.9233
  162MOL0     H21373  10.973  11.316   4.108  1.0256 -0.9605 -0.1782
  162MOL0     H21374  11.325  11.365   4.101 -0.3745  3.9872  2.0142
  162MOL0     H21375  11.166  11.357   4.146 -2.4986 -1.2023 -1.5898
  162MOL0     H21376  11.276  11.520   3.904 -1.2749  1.5941 -1.9977
  162MOL0     H21377  11.107  11.528   3.958  0.6809  0.1541 -1.0854
  162MOL0     H21378  11.304  11.696   4.046 -0.5829  0.4664 -0.2293
  162MOL0     H21379  11.362  11.555   4.132  0.0240 -0.2135  0.7562
  162MOL0     H21380  11.075  11.634   4.188  1.5765 -0.2128 -3.8497
  162MOL0     H21381  11.190  11.566   4.288 -2.9739 -0.6631 -0.5892
  162MOL0     H21382  11.268  11.968   4.380  2.6806 -2.4696  1.8512
  162MOL0     H21383  11.120  11.209   3.710  3.3261  1.8406  3.8042
  162MOL0     H21384  10.898  11.156   3.642 -0.0453 -1.2530  1.5947
  163MOL0     O21385   4.939   8.636   1.350 -0.7217 -0.6529 -0.8381
  163MOL0     C21386   5.041   8.671   1.420  0.2381  0.2333  0.3359
  163MOL0     O21387   5.155   8.733   1.378 -0.6121  0.6324  0.8048
  163MOL0     C21388   5.156   8.776   1.244  0.5454 -0.1266 -0.4554
  163MOL0     C21389   5.141   8.909   1.212 -1.1089  1.0667 -0.6818
  163MOL0     C21390   5.151   8.957   1.081 -0.4061 -1.0973 -0.2913
  163MOL0     C21391   5.166   8.862   0.976 -0.8749 -0.8294 -0.7298
  163MOL0     O21392   5.135   8.921   0.856 -0.2645  0.2405 -0.8510
  163MOL0     C21393   5.193   8.842   0.744 -0.1450 -0.1266  0.4238
  163MOL0     C21394   5.114   8.870   0.613  0.7907  0.0352  0.0544
  163MOL0     C21395   5.113   8.743   0.518  0.0257 -0.9126 -0.7289
  163MOL0     C21396   4.972   8.691   0.502  0.7425  0.0518  0.0151
  163MOL0     C21397   4.917   8.618   0.615 -0.1919  0.2612 -0.7725
  163MOL0     C21398   5.009   8.505   0.659  0.2730  0.9818  1.2116
  163MOL0     C21399   4.933   8.393   0.716 -0.3164  0.0837  0.2346
  163MOL0     C21400   4.874   8.422   0.851  0.2293 -0.8703 -0.0535
  163MOL0     N21401   4.872   8.308   0.946  0.4139 -0.5965 -0.1420
  163MOL0     C21402   4.788   8.208   0.921  1.2035 -0.6014  0.7749
  163MOL0     C21403   4.788   8.135   1.034  0.4439  0.2363 -1.1978
  163MOL0     C21404   4.687   8.033   1.064  0.2621 -0.5402 -0.0325
  163MOL0     C21405   4.675   7.934   0.953  0.0207 -1.1659  0.2752
  163MOL0     C21406   4.556   7.838   0.970  0.2191  0.2809  0.3037
  163MOL0     C21407   4.583   7.701   1.032 -0.4540 -0.0411 -0.0877
  163MOL0     O21408   4.686   7.618   0.981 -0.1933 -0.3250  0.1220
  163MOL0     C21409   4.689   7.578   0.845  0.0215 -0.0941  0.6108
  163MOL0     C21410   4.817   7.578   0.786  0.7284  0.7873 -1.3835
  163MOL0     C21411   4.826   7.533   0.651 -0.0111  0.5518  0.0241
  163MOL0     C21412   4.710   7.496   0.580  0.0017 -0.2785  0.1719
  163MOL0     C21413   4.723   7.453   0.438  0.3175  0.6365 -0.2777
  163MOL0     O21414   4.622   7.477   0.353  0.4095 -0.7283 -0.3160
  163MOL0     C21415   4.640   7.483   0.220 -0.4833  0.1139 -0.9435
  163MOL0     C21416   4.576   7.391   0.136  0.0210  0.1109  0.8787
  163MOL0     C21417   4.589   7.406  -0.009  0.4106  0.6055 -0.7653
  163MOL0     C21418   4.663   7.506  -0.061  0.6308  0.0830  0.7793
  163MOL0     O21419   4.656   7.512  -0.203 -0.0340  0.4276 -0.1945
  163MOL0     C21420   4.778   7.535  -0.270 -0.2897  0.0379  0.3983
  163MOL0     C21421   4.751   7.502  -0.430  0.3023 -0.0225 -1.0071
  163MOL0     C21422   4.874   7.479  -0.497 -0.3553  0.0226 -0.0861
  163MOL0     C21423   4.847   7.476  -0.644  0.2114  0.1900  0.0891
  163MOL0     C21424   4.799   7.606  -0.711 -0.2608  0.3346 -0.5576
  163MOL0     C21425   4.896   7.720  -0.683 -0.1341 -1.3697  0.7840
  163MOL0     C21426   4.825   7.845  -0.733  0.0970  0.2299  0.2491
  163MOL0     C21427   4.928   7.937  -0.800  0.0099  0.1456 -0.2200
  163MOL0    Cl21428   4.836   8.084  -0.819  0.3746 -0.1188  0.2781
  163MOL0     C21429   4.727   7.607   0.022  0.6290 -0.7628 -0.7101
  163MOL0     C21430   4.710   7.591   0.159 -0.2393 -0.1653  0.1207
  163MOL0     O21431   4.836   7.412   0.408  0.2633 -0.0826  0.1061
  163MOL0     C21432   4.585   7.495   0.645 -0.4337 -0.5670 -0.3405
  163MOL0     C21433   4.573   7.553   0.770 -0.0854 -0.5344  0.2086
  163MOL0     N21434   4.884   8.182   1.114  0.0710  0.1041  0.9252
  163MOL0     N21435   4.922   8.299   1.073 -0.0512 -0.4992  0.2427
  163MOL0     C21436   5.172   8.721   1.005 -0.3006 -1.0441 -1.0091
  163MOL0     C21437   5.175   8.681   1.142 -0.2790  0.3501 -0.1846
  163MOL0     C21438   5.031   8.639   1.564  0.7579  0.2729 -1.1034
  163MOL0     C21439   4.914   8.586   1.623 -0.4573 -0.8192  1.7523
  163MOL0     C21440   4.916   8.538   1.752  0.6468  0.9780  0.8012
  163MOL0     C21441   5.012   8.546   1.835  0.7256 -1.0227  0.5186
  163MOL0     O21442   4.973   8.510   1.960 -0.7402  0.3914  0.2302
  163MOL0     C21443   5.081   8.479   2.047 -0.1281  0.1629 -0.7167
  163MOL0     C21444   5.042   8.362   2.141  0.1012 -0.7428  1.0877
  163MOL0     C21445   5.032   8.240   2.050 -0.0724  0.0091 -0.2570
  163MOL0     C21446   4.973   8.116   2.110  0.0766  0.7595  0.0406
  163MOL0     C21447   5.080   8.048   2.186 -0.9405 -0.4269  0.0681
  163MOL0     C21448   5.170   7.989   2.243  0.4119  0.8404 -1.1088
  163MOL0     C21449   5.132   8.613   1.793 -0.5858  0.1247  0.4144
  163MOL0     C21450   5.133   8.662   1.655 -0.6914 -0.6530  0.6109
  163MOL0     H21451   5.138   8.986   1.289 -3.3423  1.5406 -1.1991
  163MOL0     H21452   5.141   9.062   1.059 -0.2942 -1.1486 -0.5914
  163MOL0     H21453   5.191   8.735   0.766  3.8103 -0.1778  1.1107
  163MOL0     H21454   5.296   8.877   0.733  0.1410 -1.3575 -1.3418
  163MOL0     H21455   5.169   8.950   0.562 -1.2954  1.1864 -0.4860
  163MOL0     H21456   5.011   8.898   0.637  1.9254  3.3162  1.6714
  163MOL0     H21457   5.188   8.673   0.555  1.0292  1.1855  1.5388
  163MOL0     H21458   5.146   8.780   0.421  1.7043  0.9888  0.4843
  163MOL0     H21459   4.896   8.770   0.500 -0.5635 -1.1359 -2.2967
  163MOL0     H21460   4.974   8.629   0.412  2.1334  1.0269 -0.6576
  163MOL0     H21461   4.824   8.574   0.577  0.3408 -2.3120  0.7126
  163MOL0     H21462   4.899   8.674   0.707  0.2185  2.0150 -1.7155
  163MOL0     H21463   5.092   8.541   0.721  0.7932  2.3751 -0.2197
  163MOL0     H21464   5.051   8.463   0.568 -3.1422 -4.2323  1.6371
  163MOL0     H21465   4.860   8.360   0.642 -1.4879  2.8664 -0.0003
  163MOL0     H21466   5.009   8.314   0.723 -0.1908  0.0687 -1.0292
  163MOL0     H21467   4.771   8.455   0.837  0.6929 -0.5701 -3.9519
  163MOL0     H21468   4.935   8.502   0.894 -0.5575 -0.9361  1.2270
  163MOL0     H21469   4.732   8.192   0.829  3.4738 -0.4940 -0.7180
  163MOL0     H21470   4.594   8.091   1.060 -0.3321 -1.1948  2.8003
  163MOL0     H21471   4.701   7.990   1.163  0.4322 -0.0237  0.1745
  163MOL0     H21472   4.768   7.877   0.952  0.2693 -0.7771 -1.1665
  163MOL0     H21473   4.682   7.982   0.855  1.7283 -0.1302  0.8431
  163MOL0     H21474   4.480   7.891   1.029 -1.4572  2.0325 -3.1492
  163MOL0     H21475   4.499   7.821   0.878  1.0392 -1.0473  0.0154
  163MOL0     H21476   4.490   7.642   1.033 -0.2119 -0.6256  4.1125
  163MOL0     H21477   4.614   7.713   1.136  3.2381 -0.9226 -0.9617
  163MOL0     H21478   4.903   7.602   0.848 -2.5767 -0.8481  4.7121
  163MOL0     H21479   4.927   7.530   0.613 -0.6602 -1.5063 -1.7167
  163MOL0     H21480   4.507   7.313   0.169 -0.3494  0.0387 -0.0173
  163MOL0     H21481   4.539   7.340  -0.079 -1.6613  0.8232  0.4162
  163MOL0     H21482   4.857   7.468  -0.235  2.5494  2.6602 -0.5308
  163MOL0     H21483   4.821   7.634  -0.253  0.6032 -0.5022  1.4493
  163MOL0     H21484   4.687   7.582  -0.468 -1.4709 -0.6442  0.4917
  163MOL0     H21485   4.701   7.405  -0.425 -1.2252  0.7024 -1.4669
  163MOL0     H21486   4.905   7.385  -0.450 -0.6959  0.7126  1.5778
  163MOL0     H21487   4.952   7.551  -0.469 -0.5304 -0.1829  0.9814
  163MOL0     H21488   4.936   7.448  -0.702  0.2494 -0.2824  0.3701
  163MOL0     H21489   4.767   7.405  -0.668 -1.9158  2.3994  0.2776
  163MOL0     H21490   4.698   7.635  -0.680 -1.3623 -0.6385 -3.0067
  163MOL0     H21491   4.801   7.579  -0.817  0.0448 -1.6034 -0.0837
  163MOL0     H21492   4.999   7.708  -0.718 -0.8742  0.3325 -2.3774
  163MOL0     H21493   4.894   7.737  -0.575 -0.6366  0.8098  0.4907
  163MOL0     H21494   4.761   7.827  -0.820  2.7284  1.5629 -2.1330
  163MOL0     H21495   4.775   7.904  -0.656 -2.5392  1.0819 -1.9636
  163MOL0     H21496   4.955   7.909  -0.902  1.8262  0.6492  0.0701
  163MOL0     H21497   5.018   7.967  -0.744 -0.2682 -0.8666  0.8119
  163MOL0     H21498   4.776   7.694  -0.020 -0.5368  0.8439  1.0970
  163MOL0     H21499   4.751   7.652   0.239 -1.9001 -0.9311  1.6080
  163MOL0     H21500   4.498   7.461   0.589 -1.1521 -1.3030  1.1925
  163MOL0     H21501   4.469   7.554   0.801  0.4154  2.5243  2.1525
  163MOL0     H21502   5.154   8.650   0.924  0.4325  0.2123 -2.3098
  163MOL0     H21503   5.187   8.576   1.167  2.7286  0.7402  0.3489
  163MOL0     H21504   4.837   8.566   1.549  2.8333  0.3257 -2.3827
  163MOL0     H21505   4.819   8.498   1.781  0.0554  1.2265 -0.7246
  163MOL0     H21506   5.104   8.565   2.112 -2.9857  0.0783  0.5813
  163MOL0     H21507   5.173   8.447   1.999  2.0068  2.0062  1.8114
  163MOL0     H21508   5.115   8.358   2.222  2.6702 -1.0177 -1.0721
  163MOL0     H21509   4.943   8.387   2.180 -0.2546  1.7840 -1.1412
  163MOL0     H21510   5.126   8.205   2.007  1.4346  0.1202  2.6846
  163MOL0     H21511   4.955   8.267   1.978 -0.1685  0.6262  0.0734
  163MOL0     H21512   4.899   8.138   2.188 -1.0515 -3.5597  0.4279
  163MOL0     H21513   4.928   8.055   2.032  1.4009  1.4447 -1.3074
  163MOL0     H21514   5.242   7.942   2.307  0.1044 -1.1691 -2.1415
  163MOL0     H21515   5.223   8.634   1.849  0.0011  0.3888 -0.6138
  163MOL0     H21516   5.221   8.714   1.619  0.6282 -2.9955  0.2645
  164MOL0     O21517   0.072  11.194   4.869  0.8471  0.6681  0.2358
  164MOL0     C21518  -0.028  11.142   4.826  1.1028  0.8933 -0.6285
  164MOL0     O21519  -0.162  11.172   4.874  0.0630  0.5688 -0.3434
  164MOL0     C21520  -0.174  11.218   4.997 -0.6032  0.3022 -0.4508
  164MOL0     C21521  -0.158  11.350   5.031 -0.9793  0.0961  0.1625
  164MOL0     C21522  -0.197  11.394   5.155 -0.3966  0.1657 -0.0174
  164MOL0     C21523  -0.231  11.310   5.260 -0.4396  0.5486 -0.0578
  164MOL0     O21524  -0.255  11.356   5.384 -0.4566 -0.0746  0.4386
  164MOL0     C21525  -0.224  11.262   5.496 -0.7063  0.5913 -0.0836
  164MOL0     C21526  -0.212  11.344   5.624 -1.0653 -0.1151 -0.2803
  164MOL0     C21527  -0.352  11.392   5.671 -0.0337  0.2008  0.4036
  164MOL0     C21528  -0.348  11.485   5.796  0.3072 -0.0356 -0.2657
  164MOL0     C21529  -0.298  11.426   5.926  0.4482  0.5313  0.0016
  164MOL0     C21530  -0.389  11.407   6.040 -0.1173 -0.5594 -0.8179
  164MOL0     C21531  -0.473  11.515   6.103 -0.0702  0.4343  0.5318
  164MOL0     C21532  -0.556  11.444   6.211 -1.0104 -0.9338  0.0296
  164MOL0     N21533  -0.644  11.539   6.277  1.0841  0.1120 -0.5471
  164MOL0     C21534  -0.783  11.508   6.279  0.1345 -0.4958  0.8950
  164MOL0     C21535  -0.829  11.599   6.370 -1.0295  0.6792 -0.9109
  164MOL0     C21536  -0.972  11.624   6.410 -0.1400  0.0688  0.0686
  164MOL0     C21537  -0.991  11.575   6.558 -0.1662  0.4780 -1.1809
  164MOL0     C21538  -1.120  11.658   6.595 -0.5771  0.5963 -0.5883
  164MOL0     C21539  -1.159  11.613   6.738  0.5343 -0.7550 -0.2821
  164MOL0     O21540  -1.070  11.677   6.827 -0.7257  0.1751  0.2848
  164MOL0     C21541  -1.103  11.801   6.872  0.1473  0.1926 -0.5850
  164MOL0     C21542  -1.212  11.808   6.964  0.6419  0.0301  0.3176
  164MOL0     C21543  -1.259  11.925   7.008  0.0490  0.2786  0.4120
  164MOL0     C21544  -1.193  12.047   6.978  0.6473  0.3229  0.5003
  164MOL0     C21545  -1.234  12.163   7.052 -0.0785  0.2012  0.3654
  164MOL0     O21546  -1.363  12.167   7.093  0.2831 -0.3162  0.0764
  164MOL0     C21547  -1.402  12.287   7.143  0.3058 -0.6046  0.1078
  164MOL0     C21548  -1.363  12.334   7.273  0.9764  0.4007  0.1022
  164MOL0     C21549  -1.395  12.458   7.326  0.0823 -0.1517 -0.2633
  164MOL0     C21550  -1.470  12.544   7.240  0.0405 -0.4617 -0.1176
  164MOL0     O21551  -1.517  12.671   7.283 -1.3916 -0.8629 -0.1137
  164MOL0     C21552  -1.559  12.685   7.414  0.4684  0.4825 -0.4785
  164MOL0     C21553  -1.698  12.614   7.423  0.3912  0.0674  0.3033
  164MOL0     C21554  -1.800  12.650   7.319  0.6299 -0.2167  0.0298
  164MOL0     C21555  -1.940  12.628   7.367  0.3230  0.5580 -0.3897
  164MOL0     C21556  -2.049  12.667   7.279 -0.6749 -0.3087  0.8085
  164MOL0     C21557  -2.181  12.601   7.314 -0.4263  0.2837  0.3667
  164MOL0     C21558  -2.245  12.657   7.444 -0.0466  0.3124  0.3088
  164MOL0     C21559  -2.382  12.610   7.458 -1.3586 -0.2973 -0.1570
  164MOL0    Cl21560  -2.375  12.433   7.484 -0.0277  0.1802  0.0663
  164MOL0     C21561  -1.517  12.498   7.121 -0.0855 -0.4000  0.1412
  164MOL0     C21562  -1.483  12.373   7.070 -0.5394  0.4749 -0.1111
  164MOL0     O21563  -1.150  12.250   7.064  0.4862 -0.4846 -0.7489
  164MOL0     C21564  -1.075  12.038   6.894 -0.1289  1.0974  0.7767
  164MOL0     C21565  -1.034  11.917   6.840  0.9052  0.1445  0.3369
  164MOL0     N21566  -0.726  11.656   6.439  0.0435  0.3678 -0.1030
  164MOL0     N21567  -0.614  11.626   6.370  0.9706 -0.0921  0.2696
  164MOL0     C21568  -0.233  11.176   5.230 -0.2634  0.0834  0.5041
  164MOL0     C21569  -0.222  11.132   5.096  0.2832 -1.0283 -0.0693
  164MOL0     C21570  -0.031  11.048   4.722 -0.2249  0.0866 -1.5207
  164MOL0     C21571   0.081  11.035   4.634 -0.0049  0.6254  0.2256
  164MOL0     C21572   0.085  10.937   4.540 -0.1767  0.8159  0.3114
  164MOL0     C21573  -0.008  10.831   4.539 -0.0124 -0.4288 -0.0117
  164MOL0     O21574   0.002  10.746   4.436 -0.4152 -0.3562 -0.3488
  164MOL0     C21575  -0.071  10.622   4.440  0.1843  0.3579  0.4177
  164MOL0     C21576   0.002  10.540   4.335  0.4999  1.2915  0.1482
  164MOL0     C21577  -0.068  10.572   4.196 -0.4646 -0.9569  0.2602
  164MOL0     C21578  -0.192  10.490   4.150  1.1234  0.0728 -1.3241
  164MOL0     C21579  -0.155  10.345   4.138 -0.7301 -0.1629 -0.0993
  164MOL0     C21580  -0.115  10.232   4.149  1.0135  1.0285 -0.5536
  164MOL0     C21581  -0.122  10.842   4.620 -0.2703 -0.5937 -1.0190
  164MOL0     C21582  -0.132  10.952   4.716 -0.5877  1.2046 -0.6183
  164MOL0     H21583  -0.124  11.422   4.958 -0.6293  1.7823  1.8910
  164MOL0     H21584  -0.189  11.501   5.169 -1.5646  0.3657 -0.7486
  164MOL0     H21585  -0.136  11.201   5.477 -0.6684 -0.1118  2.0527
  164MOL0     H21586  -0.311  11.196   5.504 -0.3297  0.1776  0.7364
  164MOL0     H21587  -0.147  11.431   5.611 -0.6896  0.1796  2.7882
  164MOL0     H21588  -0.164  11.282   5.700 -0.3579 -1.9047 -2.0904
  164MOL0     H21589  -0.430  11.315   5.674 -4.3229  4.0540 -0.4774
  164MOL0     H21590  -0.390  11.451   5.586  2.7839  2.6458  0.6766
  164MOL0     H21591  -0.283  11.565   5.759  1.9339 -1.7665 -1.3369
  164MOL0     H21592  -0.444  11.534   5.816  1.6314  1.7492  2.2750
  164MOL0     H21593  -0.214  11.482   5.969  0.5814 -1.9740  3.3705
  164MOL0     H21594  -0.264  11.325   5.902 -2.9155 -0.5792 -0.5759
  164MOL0     H21595  -0.329  11.361   6.119 -1.4703  0.8154  1.1178
  164MOL0     H21596  -0.457  11.327   6.008  1.8728 -1.5824 -2.7264
  164MOL0     H21597  -0.401  11.579   6.154 -0.6079  0.3113  1.4716
  164MOL0     H21598  -0.546  11.557   6.034 -0.0081 -2.5924 -1.5450
  164MOL0     H21599  -0.480  11.407   6.280 -0.5336  1.8917  1.1684
  164MOL0     H21600  -0.608  11.357   6.168  0.0888 -0.9293 -1.3799
  164MOL0     H21601  -0.843  11.441   6.218  0.8408  0.3265 -0.7502
  164MOL0     H21602  -1.047  11.586   6.340 -1.4846  2.9667 -0.2008
  164MOL0     H21603  -0.983  11.732   6.400  2.0191  0.1252 -3.2689
  164MOL0     H21604  -0.902  11.597   6.618  0.1486  3.1269 -2.5013
  164MOL0     H21605  -1.017  11.469   6.546 -0.2581  0.6125 -2.1955
  164MOL0     H21606  -1.101  11.765   6.586  1.5421  0.1971 -1.4078
  164MOL0     H21607  -1.203  11.640   6.526 -2.1392  0.0773  1.3293
  164MOL0     H21608  -1.166  11.504   6.748  1.1213 -1.0068 -2.1233
  164MOL0     H21609  -1.259  11.650   6.765  0.0898 -2.1045 -0.0041
  164MOL0     H21610  -1.258  11.719   7.005  1.8489 -0.3821  0.8193
  164MOL0     H21611  -1.355  11.923   7.059  0.4441 -0.2304  1.1607
  164MOL0     H21612  -1.303  12.266   7.333 -1.9916 -4.3252 -1.7558
  164MOL0     H21613  -1.365  12.488   7.426  1.8690 -0.7195 -0.5993
  164MOL0     H21614  -1.580  12.788   7.442 -0.2184  0.2426 -0.0754
  164MOL0     H21615  -1.493  12.642   7.490  0.4654  2.2936  0.5896
  164MOL0     H21616  -1.736  12.627   7.524 -0.7324  0.3315 -0.1400
  164MOL0     H21617  -1.684  12.505   7.417  0.1595  0.0951 -1.4268
  164MOL0     H21618  -1.783  12.582   7.235 -1.5955 -3.6573  2.1209
  164MOL0     H21619  -1.789  12.746   7.268 -2.6838 -1.6612 -4.0235
  164MOL0     H21620  -1.945  12.521   7.385 -3.8659  0.3714 -1.6853
  164MOL0     H21621  -1.951  12.677   7.465 -0.7511 -2.4684  1.1300
  164MOL0     H21622  -2.019  12.627   7.181 -4.9282 -2.9040  0.3227
  164MOL0     H21623  -2.056  12.776   7.275 -3.9378 -0.3986  1.5666
  164MOL0     H21624  -2.158  12.494   7.314 -0.0823  0.2315 -3.4384
  164MOL0     H21625  -2.242  12.636   7.230 -0.8491 -0.1051  0.5042
  164MOL0     H21626  -2.175  12.624   7.522 -0.3134  0.0756  0.4519
  164MOL0     H21627  -2.254  12.766   7.451 -1.8603  0.1164  1.9960
  164MOL0     H21628  -2.441  12.632   7.369 -1.7478  2.8153  0.7627
  164MOL0     H21629  -2.434  12.665   7.537 -0.0329  1.2881 -0.3375
  164MOL0     H21630  -1.584  12.554   7.056 -1.3787  0.0362  1.7785
  164MOL0     H21631  -1.538  12.326   6.989 -0.0786  1.2378 -0.8962
  164MOL0     H21632  -1.001  12.117   6.883  0.7051  0.0477 -2.1691
  164MOL0     H21633  -0.940  11.895   6.790  0.3478 -1.5057 -0.0707
  164MOL0     H21634  -0.257  11.103   5.306  0.7922 -0.9162 -0.0981
  164MOL0     H21635  -0.237  11.027   5.071  3.4961 -1.6376  0.0900
  164MOL0     H21636   0.171  11.096   4.634  2.5290 -2.8294  1.3425
  164MOL0     H21637   0.168  10.941   4.470 -0.2681 -0.1256  0.1287
  164MOL0     H21638  -0.179  10.637   4.431  0.3023  1.9337  1.1456
  164MOL0     H21639  -0.053  10.572   4.536 -0.8046  0.9090  0.9076
  164MOL0     H21640   0.105  10.574   4.321  1.7560 -2.1585  0.1707
  164MOL0     H21641  -0.005  10.433   4.354 -1.3074  1.1528 -1.0756
  164MOL0     H21642   0.005  10.554   4.117 -0.8560  0.4554 -0.4601
  164MOL0     H21643  -0.097  10.677   4.200 -0.7869 -0.9839 -1.0285
  164MOL0     H21644  -0.280  10.508   4.212  1.9387 -3.5214  1.2207
  164MOL0     H21645  -0.237  10.525   4.056 -0.9381 -1.3489 -0.9393
  164MOL0     H21646  -0.080  10.131   4.140  0.9384  0.5934  2.8241
  164MOL0     H21647  -0.192  10.760   4.624 -0.2003 -0.6045  0.2595
  164MOL0     H21648  -0.220  10.945   4.781 -2.9015 -0.8737 -3.6773
  165MOL0     O21649   5.269   5.092  10.582  0.0271 -0.3653  0.3662
  165MOL0     C21650   5.292   5.055  10.696  0.4959  0.0182  0.4877
  165MOL0     O21651   5.385   5.107  10.773 -0.4243 -0.4273  0.7668
  165MOL0     C21652   5.468   5.207  10.727 -0.2799  1.1702 -0.7230
  165MOL0     C21653   5.571   5.170  10.644  0.4362 -0.3812  0.1037
  165MOL0     C21654   5.650   5.267  10.585  0.0228  1.1153  0.3960
  165MOL0     C21655   5.632   5.400  10.617 -0.1264  0.2919 -0.1455
  165MOL0     O21656   5.725   5.486  10.556  0.6017 -0.1902  0.1809
  165MOL0     C21657   5.708   5.636  10.547 -0.6081  0.0243 -0.6077
  165MOL0     C21658   5.836   5.696  10.486 -0.2300  0.7610  0.5588
  165MOL0     C21659   5.862   5.644  10.341  0.3091  0.9937  0.1743
  165MOL0     C21660   5.994   5.690  10.282 -0.2680 -0.5324  0.0850
  165MOL0     C21661   6.032   5.837  10.276  0.7422 -0.9714  0.2366
  165MOL0     C21662   5.952   5.917  10.167  0.6375  0.1620  0.5990
  165MOL0     C21663   5.971   6.061  10.187  0.9408 -0.1908  0.4945
  165MOL0     C21664   6.112   6.124  10.169 -0.1034 -0.3122 -0.1860
  165MOL0     N21665   6.116   6.253  10.234 -0.6493 -0.5352  0.3957
  165MOL0     C21666   6.099   6.259  10.377 -0.5890 -0.4034  0.9175
  165MOL0     C21667   6.111   6.380  10.412 -0.1199 -0.5340  0.3014
  165MOL0     C21668   6.114   6.440  10.546 -1.2987  0.4583  0.0463
  165MOL0     C21669   6.047   6.580  10.568 -0.4666  0.9200  0.4094
  165MOL0     C21670   6.025   6.599  10.711  0.5404 -0.1914 -0.6012
  165MOL0     C21671   6.138   6.685  10.771  0.3521 -0.1591 -0.2586
  165MOL0     O21672   6.259   6.602  10.804  0.1956  0.1589  0.8322
  165MOL0     C21673   6.339   6.640  10.904 -0.1194  0.2146  0.3066
  165MOL0     C21674   6.415   6.536  10.971 -0.2020 -0.1899  0.2551
  165MOL0     C21675   6.490   6.575  11.087 -0.1629  0.2350  0.1593
  165MOL0     C21676   6.500   6.713  11.124  0.0444  0.5061  0.0762
  165MOL0     C21677   6.579   6.755  11.242  0.4557  0.0774 -1.2463
  165MOL0     O21678   6.621   6.885  11.256  0.4263  0.2432  0.5810
  165MOL0     C21679   6.659   6.930  11.375  0.0111 -0.0582  0.3008
  165MOL0     C21680   6.789   6.956  11.394 -0.1225  0.8524 -0.2248
  165MOL0     C21681   6.833   7.007  11.515  0.4605  0.9433 -0.4375
  165MOL0     C21682   6.737   7.021  11.622 -1.0253 -0.0773 -0.2492
  165MOL0     O21683   6.773   7.057  11.755 -0.0287 -0.6691  0.1615
  165MOL0     C21684   6.912   7.052  11.794 -0.3600 -0.2042  0.2139
  165MOL0     C21685   6.908   7.047  11.950 -1.0833  0.0155  0.9489
  165MOL0     C21686   6.818   7.153  12.008 -0.5285  0.0029  0.1995
  165MOL0     C21687   6.854   7.180  12.156 -0.3653  0.2521  0.6254
  165MOL0     C21688   6.972   7.274  12.188  0.6572 -0.0620 -0.4434
  165MOL0     C21689   6.978   7.313  12.336  0.7904 -1.1075  0.5933
  165MOL0     C21690   7.104   7.385  12.381 -0.0094  0.2661  0.2804
  165MOL0     C21691   7.086   7.463  12.502 -0.2009  0.5505  0.7033
  165MOL0    Cl21692   7.005   7.617  12.475  0.0130 -0.1428 -0.4098
  165MOL0     C21693   6.602   7.005  11.594  0.4011 -0.0933  0.6000
  165MOL0     C21694   6.565   6.953  11.468 -0.3013 -0.0905  0.7350
  165MOL0     O21695   6.610   6.666  11.318  0.4257  0.5891 -0.0075
  165MOL0     C21696   6.439   6.815  11.042 -0.6562  0.2363 -0.5476
  165MOL0     C21697   6.358   6.777  10.935  0.2282 -0.0630  0.9832
  165MOL0     N21698   6.164   6.455  10.301  0.7777 -0.4470  0.1308
  165MOL0     N21699   6.171   6.372  10.193  0.8023 -0.8359  0.3523
  165MOL0     C21700   5.532   5.441  10.710  0.2861 -0.1463 -0.1566
  165MOL0     C21701   5.452   5.344  10.767  0.6112  1.0032 -0.4378
  165MOL0     C21702   5.216   4.938  10.751  0.1525 -0.4161  0.5251
  165MOL0     C21703   5.230   4.893  10.880  0.4638 -0.8864  0.4570
  165MOL0     C21704   5.162   4.776  10.919 -0.1579  0.0886 -0.8061
  165MOL0     C21705   5.049   4.732  10.842 -0.9120 -0.6198  0.0697
  165MOL0     O21706   4.978   4.639  10.902 -0.4375 -0.4061 -0.2857
  165MOL0     C21707   4.863   4.590  10.828 -0.3091  0.1952  0.0176
  165MOL0     C21708   4.780   4.518  10.930 -0.2097  0.1199 -0.1671
  165MOL0     C21709   4.833   4.383  10.996 -0.2115 -0.5694 -0.2942
  165MOL0     C21710   4.898   4.288  10.896 -0.4733 -0.2667  1.0974
  165MOL0     C21711   5.041   4.316  10.880 -0.4780 -0.5960  0.6216
  165MOL0     C21712   5.156   4.350  10.866  0.2521  0.0294 -0.2611
  165MOL0     C21713   5.030   4.781  10.714 -0.1701  0.2136  0.0293
  165MOL0     C21714   5.116   4.883  10.668  0.3125  0.7266 -0.8059
  165MOL0     H21715   5.587   5.068  10.611  1.8755  0.1394 -0.8795
  165MOL0     H21716   5.718   5.226  10.511  2.1038 -1.3254  3.3705
  165MOL0     H21717   5.694   5.681  10.646 -1.1050 -0.0398 -0.6438
  165MOL0     H21718   5.615   5.664  10.495 -0.1720  1.4149 -0.6763
  165MOL0     H21719   5.919   5.649  10.540 -1.6124 -2.2854  0.2424
  165MOL0     H21720   5.846   5.804  10.499  1.8118  0.6422  0.2411
  165MOL0     H21721   5.781   5.659  10.270  0.8109  2.3020 -0.1392
  165MOL0     H21722   5.876   5.537  10.361  1.1325  1.0018 -0.3376
  165MOL0     H21723   6.075   5.641  10.337 -1.8991 -1.6652  1.6149
  165MOL0     H21724   6.016   5.658  10.180  3.6866  0.6639  0.3707
  165MOL0     H21725   6.139   5.848  10.255  0.1765  0.8705 -2.1278
  165MOL0     H21726   6.013   5.882  10.374  0.1088  2.3578 -1.2392
  165MOL0     H21727   5.846   5.890  10.161  0.6458  0.2675 -0.0757
  165MOL0     H21728   5.982   5.907  10.062  2.3494  1.4949  0.9289
  165MOL0     H21729   5.913   6.121  10.116  2.3303 -0.3161 -0.7909
  165MOL0     H21730   5.920   6.084  10.281 -1.5161  0.2518 -0.8602
  165MOL0     H21731   6.122   6.150  10.063  1.3136  2.5545  0.5511
  165MOL0     H21732   6.188   6.060  10.214 -1.4799  0.0799  3.0210
  165MOL0     H21733   6.081   6.187  10.456 -0.7011 -1.7341 -0.2689
  165MOL0     H21734   6.220   6.455  10.568 -0.7889 -1.7782 -0.6357
  165MOL0     H21735   6.070   6.368  10.616  0.3103  2.4304  3.3638
  165MOL0     H21736   5.949   6.581  10.520 -1.4857 -0.1446  2.3453
  165MOL0     H21737   6.104   6.665  10.529 -1.2885  0.1550 -2.8007
  165MOL0     H21738   5.936   6.661  10.711  1.1821  0.7591 -1.2507
  165MOL0     H21739   6.021   6.501  10.758  0.4053 -0.0822 -0.3887
  165MOL0     H21740   6.084   6.727  10.857 -3.4895  1.5124 -3.1948
  165MOL0     H21741   6.159   6.778  10.717  1.2831  0.1042  0.5243
  165MOL0     H21742   6.397   6.432  10.943  1.0583  0.2698 -2.7224
  165MOL0     H21743   6.522   6.494  11.151 -3.4967 -1.0950  0.3478
  165MOL0     H21744   6.862   6.933  11.316 -2.0487  0.1800 -1.9119
  165MOL0     H21745   6.939   7.021  11.532  1.0525 -1.0676 -2.0913
  165MOL0     H21746   6.974   7.137  11.764 -0.3430 -0.1105  0.5087
  165MOL0     H21747   6.964   6.964  11.756 -2.4108  0.4714 -4.9469
  165MOL0     H21748   7.006   7.051  11.999  0.0880  0.9947 -1.3167
  165MOL0     H21749   6.860   6.949  11.950 -5.2586  1.8359  1.7816
  165MOL0     H21750   6.712   7.131  11.993 -0.5444  0.1442  0.0963
  165MOL0     H21751   6.842   7.247  11.957 -1.1380  1.2679  2.1107
  165MOL0     H21752   6.769   7.237  12.194 -0.5013 -0.7656  1.9061
  165MOL0     H21753   6.868   7.091  12.217  0.7137 -0.8370 -1.1129
  165MOL0     H21754   6.952   7.365  12.131 -0.9679  0.4172  0.8310
  165MOL0     H21755   7.066   7.233  12.148  1.5660  1.8053 -0.3505
  165MOL0     H21756   6.978   7.217  12.389  0.0964 -0.0689  2.5622
  165MOL0     H21757   6.888   7.369  12.363  1.2991 -0.5885  1.2251
  165MOL0     H21758   7.177   7.306  12.402  0.4082  0.2044 -1.2576
  165MOL0     H21759   7.131   7.445  12.294 -0.8772 -0.8164 -0.7636
  165MOL0     H21760   7.183   7.487  12.547  1.3058  2.0965 -2.9707
  165MOL0     H21761   7.029   7.394  12.563 -0.8394 -2.0297 -2.5595
  165MOL0     H21762   6.532   7.038  11.670 -1.1974  0.5879 -1.0850
  165MOL0     H21763   6.466   6.921  11.435 -0.6968  1.2514  0.5774
  165MOL0     H21764   6.461   6.918  11.067  0.2803 -0.1057  0.0950
  165MOL0     H21765   6.320   6.850  10.864  2.1161  1.5434  1.5262
  165MOL0     H21766   5.515   5.543  10.743  1.1138 -0.4880  1.4025
  165MOL0     H21767   5.370   5.366  10.835  1.1479  3.0178 -0.3981
  165MOL0     H21768   5.306   4.946  10.936  1.2757 -0.9930 -0.5072
  165MOL0     H21769   5.194   4.721  11.006 -1.7472 -0.4386 -0.5187
  165MOL0     H21770   4.894   4.523  10.746 -2.0230 -0.5756 -0.0358
  165MOL0     H21771   4.802   4.669  10.785  0.6703  1.2916  0.5917
  165MOL0     H21772   4.746   4.591  11.004 -5.7723  1.8725 -3.7825
  165MOL0     H21773   4.688   4.485  10.880 -0.5218 -1.4082  1.3467
  165MOL0     H21774   4.751   4.336  11.050 -0.0924  0.9865  1.3617
  165MOL0     H21775   4.910   4.393  11.073 -1.3327 -2.1105  1.0859
  165MOL0     H21776   4.887   4.189  10.940  2.9018  0.3794  3.8842
  165MOL0     H21777   4.855   4.289  10.796  1.7616  0.4203  0.0748
  165MOL0     H21778   5.259   4.380  10.862  0.5626 -0.8094  0.9019
  165MOL0     H21779   4.946   4.750  10.654  0.0124  1.6264 -1.0171
  165MOL0     H21780   5.103   4.921  10.567  0.6812  1.1084 -0.7124
  166MOL0     O21781   3.058   9.364   3.072 -0.0353  0.4040  0.6435
  166MOL0     C21782   3.163   9.361   3.140  0.5886 -0.5751  0.3274
  166MOL0     O21783   3.195   9.258   3.214 -0.1164 -0.6907  1.5300
  166MOL0     C21784   3.168   9.135   3.159  0.9831 -0.3424  0.3102
  166MOL0     C21785   3.037   9.077   3.178 -0.1107 -0.3688 -0.2063
  166MOL0     C21786   3.009   8.945   3.142 -0.2283 -0.0537 -0.5329
  166MOL0     C21787   3.114   8.865   3.079  0.7246  0.0548  0.5662
  166MOL0     O21788   3.097   8.731   3.039 -0.2038  0.0780  0.6110
  166MOL0     C21789   2.961   8.699   3.003  0.4960  0.0807  0.4398
  166MOL0     C21790   2.912   8.598   3.116  0.0315 -0.3010 -0.2763
  166MOL0     C21791   2.967   8.626   3.265 -0.1882  1.3648  0.4742
  166MOL0     C21792   2.881   8.535   3.348  0.2764  0.0408 -0.3929
  166MOL0     C21793   2.915   8.566   3.495 -0.1617  0.0281 -0.0352
  166MOL0     C21794   2.831   8.476   3.593 -0.0443 -0.3394 -0.2114
  166MOL0     C21795   2.855   8.524   3.738  0.0612  0.0706  0.5281
  166MOL0     C21796   2.991   8.472   3.789  0.0273  0.2754 -0.4387
  166MOL0     N21797   3.000   8.324   3.798 -0.0789 -1.4073  0.3446
  166MOL0     C21798   3.117   8.252   3.789 -0.7291  0.7437  0.9464
  166MOL0     C21799   3.080   8.116   3.811 -0.1081 -0.2180 -1.0940
  166MOL0     C21800   3.181   7.996   3.818  0.2288  0.9367 -0.3604
  166MOL0     C21801   3.134   7.867   3.892 -0.1812  0.1721 -0.8324
  166MOL0     C21802   3.248   7.766   3.934 -0.0513 -0.9036 -0.3794
  166MOL0     C21803   3.314   7.691   3.827 -0.1653  0.4167  0.6253
  166MOL0     O21804   3.446   7.662   3.863 -0.4267  0.1694 -0.5356
  166MOL0     C21805   3.519   7.577   3.788  1.4290  0.4898 -0.3795
  166MOL0     C21806   3.498   7.558   3.655  0.2623  0.1365  0.1816
  166MOL0     C21807   3.586   7.478   3.586 -0.1538  0.2365 -0.0140
  166MOL0     C21808   3.679   7.404   3.652 -0.0078 -0.5408 -0.5143
  166MOL0     C21809   3.750   7.300   3.572  0.2281 -0.4900 -0.0841
  166MOL0     O21810   3.710   7.279   3.442  0.4420 -0.3980  0.3270
  166MOL0     C21811   3.792   7.214   3.353  0.3252  0.8471  0.1200
  166MOL0     C21812   3.930   7.235   3.335 -1.6470 -0.4170 -0.4795
  166MOL0     C21813   4.000   7.161   3.246  0.1842  0.7873  0.1913
  166MOL0     C21814   3.949   7.066   3.158  0.8813 -0.3657 -0.1836
  166MOL0     O21815   4.034   7.003   3.074  0.0294 -0.4676 -0.2887
  166MOL0     C21816   3.988   6.916   2.978  0.0841 -0.2244 -0.5040
  166MOL0     C21817   4.108   6.869   2.890  0.4137 -0.1573 -0.2799
  166MOL0     C21818   4.075   6.749   2.801  0.5051  0.8711 -0.1591
  166MOL0     C21819   4.192   6.700   2.711  0.2219 -0.3075 -0.0021
  166MOL0     C21820   4.235   6.800   2.600 -0.2349 -0.0020 -0.2553
  166MOL0     C21821   4.365   6.756   2.531  0.6732 -0.0104 -0.3913
  166MOL0     C21822   4.492   6.785   2.602 -1.0504 -0.4822 -0.3484
  166MOL0     C21823   4.550   6.656   2.670 -0.3422 -0.4998 -0.4277
  166MOL0    Cl21824   4.610   6.564   2.528 -0.2721  0.4186  0.3708
  166MOL0     C21825   3.812   7.053   3.167  0.7883  0.2311  0.1904
  166MOL0     C21826   3.734   7.118   3.265  0.8648  0.5899 -0.1049
  166MOL0     O21827   3.845   7.250   3.626  0.1260  0.5311  0.2200
  166MOL0     C21828   3.699   7.426   3.788  0.5245 -0.3196  0.5954
  166MOL0     C21829   3.626   7.516   3.855  0.3986  0.4282 -0.7985
  166MOL0     N21830   2.942   8.117   3.828 -0.4174  0.3023 -0.2636
  166MOL0     N21831   2.899   8.238   3.815 -0.0107  0.2480  0.6972
  166MOL0     C21832   3.235   8.924   3.073 -0.4931 -0.3377  0.3336
  166MOL0     C21833   3.271   9.059   3.103  0.5984  0.3096  0.6255
  166MOL0     C21834   3.215   9.493   3.170 -0.2619 -0.5912 -0.0668
  166MOL0     C21835   3.298   9.511   3.285 -0.6543 -1.0017  0.0170
  166MOL0     C21836   3.359   9.639   3.305  0.2585  0.9064  0.4696
  166MOL0     C21837   3.328   9.745   3.213 -0.8952 -0.3620  0.1339
  166MOL0     O21838   3.366   9.879   3.228  0.7317 -0.2530  0.1068
  166MOL0     C21839   3.429   9.920   3.349 -0.7785 -0.6028 -0.2744
  166MOL0     C21840   3.342   9.932   3.469 -1.1195  0.9454 -0.2302
  166MOL0     C21841   3.424   9.991   3.591  0.4492  0.6470  0.0957
  166MOL0     C21842   3.329  10.045   3.703  0.4387 -0.4971  0.8441
  166MOL0     C21843   3.282  10.174   3.639  0.3287  0.7145 -0.8431
  166MOL0     C21844   3.243  10.273   3.579  0.0592 -0.1968  0.5388
  166MOL0     C21845   3.248   9.722   3.105 -0.0887  0.0214 -0.3772
  166MOL0     C21846   3.177   9.605   3.093  0.4269  0.5955  0.3317
  166MOL0     H21847   2.957   9.134   3.224 -0.7668 -2.1256  0.9550
  166MOL0     H21848   2.910   8.913   3.173  0.6323 -3.1434 -0.6553
  166MOL0     H21849   2.952   8.653   2.904 -0.7898 -1.8666  1.3872
  166MOL0     H21850   2.889   8.781   3.004 -1.3513 -1.4533  1.1025
  166MOL0     H21851   2.952   8.497   3.100  3.2501  0.8337 -0.0234
  166MOL0     H21852   2.803   8.590   3.108 -0.4543  1.2531  3.1161
  166MOL0     H21853   2.956   8.731   3.293 -1.8896  1.6524 -1.0689
  166MOL0     H21854   3.069   8.585   3.269 -1.0801 -2.3929 -4.6560
  166MOL0     H21855   2.774   8.545   3.329 -0.1806 -2.5751  0.3797
  166MOL0     H21856   2.902   8.430   3.327 -0.2724 -0.3561  0.9550
  166MOL0     H21857   2.903   8.674   3.509 -2.3188 -0.4428  2.4647
  166MOL0     H21858   3.022   8.542   3.500 -0.0088 -0.4011 -3.2373
  166MOL0     H21859   2.844   8.367   3.586  1.9706 -0.2547  1.2398
  166MOL0     H21860   2.725   8.491   3.567 -0.2123 -0.3908  0.4134
  166MOL0     H21861   2.846   8.631   3.757  1.1152 -0.2911  3.7530
  166MOL0     H21862   2.787   8.474   3.808  2.3306 -0.2305  2.6601
  166MOL0     H21863   3.012   8.507   3.891 -2.0447  2.5929 -0.7207
  166MOL0     H21864   3.072   8.517   3.732 -2.6188  2.7804 -2.5146
  166MOL0     H21865   3.221   8.279   3.783 -0.2588 -0.7213  1.9041
  166MOL0     H21866   3.272   8.017   3.873  1.8818 -3.9159 -0.7889
  166MOL0     H21867   3.211   7.965   3.717 -0.2972 -2.6513  0.4333
  166MOL0     H21868   3.057   7.826   3.827 -2.8356  1.2197  1.4530
  166MOL0     H21869   3.086   7.902   3.984 -1.1360 -0.3559 -1.1229
  166MOL0     H21870   3.319   7.810   4.004 -1.1676 -3.0095  2.2438
  166MOL0     H21871   3.204   7.700   4.009 -0.4525 -1.4799 -1.1083
  166MOL0     H21872   3.305   7.745   3.732 -0.9764 -0.0189  0.4393
  166MOL0     H21873   3.261   7.595   3.825  1.1410 -0.3194  0.0153
  166MOL0     H21874   3.430   7.624   3.602 -1.4085 -0.5977  1.3139
  166MOL0     H21875   3.577   7.473   3.478  0.3824 -0.3628 -0.0330
  166MOL0     H21876   3.995   7.302   3.390 -2.4735  1.1952 -1.3665
  166MOL0     H21877   4.105   7.187   3.241 -0.4870  3.4825 -1.2112
  166MOL0     H21878   3.913   6.957   2.909  0.9396 -0.3518 -1.5438
  166MOL0     H21879   3.940   6.833   3.030 -2.0638  1.7396  0.8675
  166MOL0     H21880   4.201   6.843   2.941  0.1458  1.8741  1.3971
  166MOL0     H21881   4.139   6.954   2.828 -0.3842  0.2973 -0.0703
  166MOL0     H21882   3.987   6.777   2.743  0.8396  0.5182 -0.8444
  166MOL0     H21883   4.054   6.665   2.869  3.6666  2.7126  3.5180
  166MOL0     H21884   4.275   6.674   2.777  0.3875  0.7252  0.2111
  166MOL0     H21885   4.158   6.609   2.660  0.1020  0.4287 -1.2769
  166MOL0     H21886   4.243   6.900   2.643 -0.4047 -1.3329  3.2078
  166MOL0     H21887   4.148   6.804   2.533  0.2915 -1.6471 -1.1014
  166MOL0     H21888   4.358   6.815   2.439  0.7408  1.8117  0.7249
  166MOL0     H21889   4.350   6.651   2.507  2.0323 -0.7573  1.7636
  166MOL0     H21890   4.571   6.838   2.548 -0.8989  1.0596  1.3012
  166MOL0     H21891   4.465   6.849   2.687 -1.9380  1.2601 -1.8683
  166MOL0     H21892   4.476   6.593   2.720 -0.6277  1.5864  1.9611
  166MOL0     H21893   4.622   6.679   2.748 -0.9758  1.5635 -0.3822
  166MOL0     H21894   3.761   7.005   3.084 -0.6604  3.3094 -0.8448
  166MOL0     H21895   3.632   7.083   3.266  1.6855 -1.9948  1.5560
  166MOL0     H21896   3.789   7.384   3.831  1.3587 -0.1348 -0.8935
  166MOL0     H21897   3.650   7.536   3.959  2.0036 -1.9654 -0.6297
  166MOL0     H21898   3.319   8.866   3.037  1.6665  3.1452 -0.7619
  166MOL0     H21899   3.378   9.072   3.088 -0.0817  4.0256 -2.8547
  166MOL0     H21900   3.312   9.430   3.355 -2.5444  0.7554  2.5799
  166MOL0     H21901   3.406   9.667   3.398  1.6957 -0.1656  0.0833
  166MOL0     H21902   3.466  10.020   3.328 -1.3662 -0.3337 -0.0485
  166MOL0     H21903   3.521   9.866   3.375 -0.7427 -0.1802  0.5019
  166MOL0     H21904   3.262  10.002   3.443 -0.0924  1.7796 -1.2806
  166MOL0     H21905   3.301   9.835   3.495  2.3809 -0.4149  0.8393
  166MOL0     H21906   3.488  10.070   3.553 -0.9301  1.1174 -1.3525
  166MOL0     H21907   3.483   9.910   3.636 -0.8756 -0.3260  0.1702
  166MOL0     H21908   3.255   9.964   3.711  0.4829 -0.6575 -0.2983
  166MOL0     H21909   3.376  10.050   3.802 -0.2915 -1.5973  1.2664
  166MOL0     H21910   3.196  10.360   3.539 -0.7154 -1.4620 -1.4853
  166MOL0     H21911   3.225   9.808   3.042 -0.9512  0.5409  0.6237
  166MOL0     H21912   3.114   9.587   3.007 -1.4589  4.4628  0.6775
  167MOL0     O21913   0.372  10.065  10.088 -0.3484  0.2814  0.9313
  167MOL0     C21914   0.417  10.153  10.157  0.7522 -0.8632  0.4071
  167MOL0     O21915   0.471  10.146  10.282  0.8207  0.2273  0.5948
  167MOL0     C21916   0.495  10.029  10.349  0.3824 -0.1893 -0.0770
  167MOL0     C21917   0.474   9.901  10.297  0.1193  0.4262 -1.3470
  167MOL0     C21918   0.493   9.784  10.366 -1.3924  0.0098 -0.6190
  167MOL0     C21919   0.545   9.793  10.503  0.3003 -0.7041  0.1379
  167MOL0     O21920   0.564   9.675  10.564  0.2026 -0.2533 -0.8112
  167MOL0     C21921   0.614   9.670  10.693  0.3028  1.0442  0.1617
  167MOL0     C21922   0.649   9.527  10.724  0.5993 -0.4141 -0.3071
  167MOL0     C21923   0.669   9.503  10.874 -0.2422  0.5521  0.2027
  167MOL0     C21924   0.697   9.356  10.897  0.2571 -0.1797 -0.7988
  167MOL0     C21925   0.720   9.320  11.048 -0.9929  0.1367 -0.6033
  167MOL0     C21926   0.771   9.173  11.082 -0.1281 -1.2140 -1.0325
  167MOL0     C21927   0.828   9.134  11.226  0.7303 -0.6860  0.8222
  167MOL0     C21928   0.729   9.062  11.317  0.0841 -0.0498  0.7342
  167MOL0     N21929   0.615   9.150  11.339  0.0092  0.2649 -0.5294
  167MOL0     C21930   0.610   9.265  11.418  0.1811 -0.1384  0.9188
  167MOL0     C21931   0.476   9.285  11.437  0.1458 -0.9185 -0.6959
  167MOL0     C21932   0.407   9.394  11.526 -0.5450  1.1471  0.1580
  167MOL0     C21933   0.424   9.531  11.466  0.3131 -0.6753  0.5433
  167MOL0     C21934   0.360   9.636  11.556 -0.7276 -0.4182  0.5381
  167MOL0     C21935   0.328   9.774  11.487  0.0242 -0.2613  0.7245
  167MOL0     O21936   0.437   9.851  11.440  0.6345 -0.5525 -0.0949
  167MOL0     C21937   0.417   9.987  11.415 -1.6320 -0.0200  0.0050
  167MOL0     C21938   0.501  10.045  11.314 -1.4627  0.1716 -0.2849
  167MOL0     C21939   0.487  10.169  11.260 -0.8511 -0.1448 -0.1164
  167MOL0     C21940   0.378  10.238  11.311 -0.0384 -0.9963  0.0425
  167MOL0     C21941   0.358  10.373  11.253 -0.7764 -0.4127  0.6486
  167MOL0     O21942   0.434  10.411  11.142  0.4859 -0.4514 -0.1252
  167MOL0     C21943   0.440  10.543  11.101  0.6849  1.2681  0.0780
  167MOL0     C21944   0.453  10.553  10.970 -0.7246 -0.2892  0.1480
  167MOL0     C21945   0.482  10.677  10.914  0.2680 -0.6744  0.5610
  167MOL0     C21946   0.485  10.790  11.005  0.0096  1.7840  0.6261
  167MOL0     O21947   0.498  10.922  10.961 -0.1171 -0.1955  0.1616
  167MOL0     C21948   0.513  10.964  10.825  0.5920 -0.7473 -0.1477
  167MOL0     C21949   0.479  11.113  10.810  0.0667  0.1188 -0.0773
  167MOL0     C21950   0.498  11.146  10.664 -0.4291  0.3723  0.5491
  167MOL0     C21951   0.481  11.297  10.645  0.3476 -0.1453 -0.4512
  167MOL0     C21952   0.504  11.324  10.497 -0.4372  0.0061 -0.3082
  167MOL0     C21953   0.555  11.475  10.476  0.7498  0.0527  0.0572
  167MOL0     C21954   0.458  11.576  10.526 -0.2664 -0.3020 -0.3592
  167MOL0     C21955   0.509  11.713  10.485 -0.3574  0.0447 -0.4825
  167MOL0    Cl21956   0.520  11.746  10.310  0.2426  0.0140  0.0300
  167MOL0     C21957   0.471  10.779  11.144 -0.8491 -0.0371 -0.5181
  167MOL0     C21958   0.457  10.652  11.195 -0.7714  1.4849  0.4297
  167MOL0     O21959   0.291  10.450  11.317 -0.2129 -0.9168  0.0361
  167MOL0     C21960   0.285  10.189  11.402 -0.0285  0.7975  0.0075
  167MOL0     C21961   0.306  10.062  11.456 -0.0694  0.0202  0.9352
  167MOL0     N21962   0.397   9.192  11.368  0.4789 -0.0298  0.2635
  167MOL0     N21963   0.484   9.113  11.319 -0.7912  0.2229 -0.1940
  167MOL0     C21964   0.569   9.923  10.556  0.3328  0.5060 -1.3883
  167MOL0     C21965   0.549  10.037  10.481  0.2470  0.2682  0.2848
  167MOL0     C21966   0.435  10.278  10.080 -0.1527  0.7573 -0.1419
  167MOL0     C21967   0.435  10.299   9.944 -0.3418 -0.0708  0.3784
  167MOL0     C21968   0.465  10.419   9.888  0.2784 -1.0971 -0.2766
  167MOL0     C21969   0.485  10.535   9.963  0.6457  0.1144 -0.7985
  167MOL0     O21970   0.515  10.655   9.908  0.2474  0.0570  0.7289
  167MOL0     C21971   0.500  10.678   9.767  0.7119  0.8830  0.2269
  167MOL0     C21972   0.545  10.815   9.735  0.0532  0.0713 -0.6888
  167MOL0     C21973   0.550  10.847   9.593 -1.3017  0.3520 -0.4254
  167MOL0     C21974   0.615  10.986   9.563 -0.0518  0.2854 -0.5214
  167MOL0     C21975   0.555  11.101   9.632 -0.1107  0.1176  1.3417
  167MOL0     C21976   0.476  11.192   9.668 -0.6877  0.8722  1.4231
  167MOL0     C21977   0.465  10.520  10.099 -0.1951  0.8127 -0.4778
  167MOL0     C21978   0.438  10.395  10.152  0.3020 -0.5458 -0.1290
  167MOL0     H21979   0.441   9.865  10.199 -4.0015 -2.7064  0.8456
  167MOL0     H21980   0.474   9.683  10.332 -1.9261  0.9911 -3.5788
  167MOL0     H21981   0.527   9.701  10.751 -2.0319 -3.5738 -0.4341
  167MOL0     H21982   0.710   9.719  10.711  0.7624  0.1665  0.1506
  167MOL0     H21983   0.744   9.502  10.677  0.2091  2.0152 -2.6248
  167MOL0     H21984   0.570   9.461  10.685 -0.0254 -0.3268  0.7835
  167MOL0     H21985   0.576   9.533  10.921 -0.3026 -0.6860  0.9148
  167MOL0     H21986   0.758   9.553  10.914 -0.4302 -0.7001  2.3554
  167MOL0     H21987   0.611   9.297  10.864  1.1255 -1.5995 -0.6053
  167MOL0     H21988   0.787   9.327  10.842  1.7645  0.5660  1.1714
  167MOL0     H21989   0.627   9.339  11.101 -0.5464 -1.2252  0.7429
  167MOL0     H21990   0.798   9.390  11.079  0.6063 -1.0123 -1.8364
  167MOL0     H21991   0.852   9.169  11.009 -0.5094 -0.7378 -1.4925
  167MOL0     H21992   0.683   9.110  11.067 -2.1712  0.6965  1.8375
  167MOL0     H21993   0.907   9.059  11.217 -1.0875 -2.4563 -1.6452
  167MOL0     H21994   0.867   9.224  11.274  2.0178 -1.1003  0.5944
  167MOL0     H21995   0.769   9.050  11.418 -1.0179 -2.0190  1.0031
  167MOL0     H21996   0.702   8.966  11.270 -2.5641  0.5667  0.8647
  167MOL0     H21997   0.693   9.321  11.458 -0.4332  0.3606  1.5329
  167MOL0     H21998   0.411   9.389  11.635 -1.2494 -1.1340  0.1330
  167MOL0     H21999   0.300   9.377  11.509 -0.4326 -2.0567  1.8542
  167MOL0     H22000   0.370   9.544  11.372  0.4891 -0.3928  0.4770
  167MOL0     H22001   0.532   9.553  11.465  0.1948 -0.0264 -0.9334
  167MOL0     H22002   0.272   9.590  11.603  0.8628 -2.0051  2.1222
  167MOL0     H22003   0.432   9.649  11.636 -1.6412 -1.4676  1.5812
  167MOL0     H22004   0.281   9.836  11.563 -0.9402  2.3798 -1.8196
  167MOL0     H22005   0.246   9.753  11.417  0.2803  1.6978 -0.2193
  167MOL0     H22006   0.589   9.988  11.287 -1.6302 -0.6790  0.8985
  167MOL0     H22007   0.556  10.215  11.190 -0.4522  2.5818  1.8882
  167MOL0     H22008   0.447  10.466  10.905 -0.5619  0.9061 -1.5093
  167MOL0     H22009   0.472  10.698  10.808 -2.3213  0.6115  0.9801
  167MOL0     H22010   0.424  10.925  10.773 -1.1810  3.8422 -1.0238
  167MOL0     H22011   0.614  10.941  10.790  0.5851  0.8811 -1.3959
  167MOL0     H22012   0.546  11.173  10.872 -0.0619 -3.0272  3.4315
  167MOL0     H22013   0.377  11.136  10.841  0.3993 -0.3797  1.4340
  167MOL0     H22014   0.429  11.083  10.609  1.5113 -0.8308 -0.6418
  167MOL0     H22015   0.605  11.130  10.643 -0.1051  2.8028  0.0558
  167MOL0     H22016   0.381  11.330  10.675  0.0101 -1.3187 -0.2147
  167MOL0     H22017   0.546  11.354  10.712  1.4428 -0.0416 -1.5566
  167MOL0     H22018   0.411  11.311  10.441  1.2098  1.9436 -3.8394
  167MOL0     H22019   0.580  11.254  10.462 -0.3910 -0.0632 -0.0703
  167MOL0     H22020   0.573  11.504  10.372  2.5053 -0.2611  0.2464
  167MOL0     H22021   0.645  11.495  10.535  0.1599 -0.2206  1.0697
  167MOL0     H22022   0.354  11.567  10.495 -0.4624  1.1617 -0.2021
  167MOL0     H22023   0.453  11.573  10.635  1.3134  1.0721 -0.2116
  167MOL0     H22024   0.612  11.733  10.515 -0.0038  0.1070 -1.6918
  167MOL0     H22025   0.445  11.784  10.538 -1.1938 -1.2767  0.3334
  167MOL0     H22026   0.493  10.868  11.201 -0.1420  0.1899 -1.1261
  167MOL0     H22027   0.471  10.638  11.302  0.3271 -1.9687 -0.0453
  167MOL0     H22028   0.207  10.246  11.453  0.6646  1.9066 -0.1244
  167MOL0     H22029   0.228  10.021  11.519  1.2499 -1.0982  1.9020
  167MOL0     H22030   0.608   9.915  10.657  1.5577 -2.8869 -1.9913
  167MOL0     H22031   0.544  10.124  10.545 -2.4843 -1.4731  2.7155
  167MOL0     H22032   0.410  10.209   9.889 -1.6283 -0.6783  1.8613
  167MOL0     H22033   0.468  10.415   9.779 -0.9763 -4.9051 -0.3079
  167MOL0     H22034   0.395  10.673   9.736  1.9412  1.0035 -4.8046
  167MOL0     H22035   0.557  10.597   9.719 -1.6660 -0.5190 -0.3981
  167MOL0     H22036   0.476  10.878   9.791 -0.9997 -2.0696  0.5847
  167MOL0     H22037   0.644  10.836   9.775 -0.0036  0.1736 -0.6025
  167MOL0     H22038   0.454  10.843   9.541 -1.3365 -1.0270 -0.2823
  167MOL0     H22039   0.616  10.770   9.551  0.5395  2.4820 -1.6883
  167MOL0     H22040   0.723  10.984   9.579 -0.0310  0.7686 -0.5667
  167MOL0     H22041   0.606  11.000   9.455  0.5850 -2.3925 -0.9707
  167MOL0     H22042   0.401  11.265   9.691  0.0979  2.6612 -1.2425
  167MOL0     H22043   0.474  10.608  10.162  2.3332 -1.5615  2.8241
  167MOL0     H22044   0.427  10.410  10.259 -2.6538  0.1600 -0.4628
  168MOL0     O22045  10.602   6.979   9.274  0.3347 -0.0984 -0.3039
  168MOL0     C22046  10.500   6.975   9.202  0.8425  0.0589  1.6197
  168MOL0     O22047  10.423   7.085   9.171  0.5594  0.8027 -0.7723
  168MOL0     C22048  10.415   7.172   9.283  0.6153  1.4721  1.3155
  168MOL0     C22049  10.409   7.136   9.415  0.4913 -0.2076 -0.6563
  168MOL0     C22050  10.389   7.222   9.518  0.5329  0.9110 -0.3602
  168MOL0     C22051  10.411   7.356   9.501  0.4216 -0.2190 -0.0805
  168MOL0     O22052  10.415   7.455   9.601  0.6298  0.0114  0.1410
  168MOL0     C22053  10.485   7.412   9.719  0.1618  0.1325  0.1272
  168MOL0     C22054  10.492   7.521   9.825 -0.6958  0.4105 -0.3669
  168MOL0     C22055  10.351   7.561   9.879  0.0221 -0.2566  0.7337
  168MOL0     C22056  10.358   7.644  10.005 -0.6400 -0.4755  0.5234
  168MOL0     C22057  10.225   7.683  10.071 -0.0174 -0.0666 -0.6760
  168MOL0     C22058  10.161   7.800   9.992 -0.4250 -0.4372  0.6068
  168MOL0     C22059  10.044   7.860  10.080 -0.0264  0.1149 -0.1560
  168MOL0     C22060  10.008   7.999  10.030 -0.6311 -0.7325  0.7634
  168MOL0     N22061   9.959   7.994   9.896 -0.0790 -0.1802  0.1558
  168MOL0     C22062   9.825   7.998   9.852 -0.1741 -0.3691  0.3361
  168MOL0     C22063   9.837   7.985   9.717  0.0279 -0.3047 -0.6040
  168MOL0     C22064   9.715   7.952   9.632 -0.5555  0.1844 -1.2639
  168MOL0     C22065   9.639   8.075   9.599 -0.2548 -0.1216 -0.0565
  168MOL0     C22066   9.499   8.039   9.543  0.1899 -0.0024  0.2433
  168MOL0     C22067   9.443   8.160   9.476 -1.0653 -0.7618 -0.2640
  168MOL0     O22068   9.426   8.260   9.582 -0.5338  0.3636  0.3872
  168MOL0     C22069   9.387   8.383   9.539 -0.5267 -0.0096 -0.9424
  168MOL0     C22070   9.474   8.489   9.541  0.3299 -0.7217 -0.6199
  168MOL0     C22071   9.418   8.622   9.517  0.2313  0.9043 -0.4643
  168MOL0     C22072   9.286   8.643   9.485 -0.6194 -0.4118 -0.0101
  168MOL0     C22073   9.242   8.780   9.438 -0.6660 -0.6777  0.2232
  168MOL0     O22074   9.124   8.774   9.360 -0.2207 -0.5528 -0.0785
  168MOL0     C22075   9.102   8.877   9.280 -0.0905  0.1057  0.3818
  168MOL0     C22076   8.971   8.918   9.268  0.4674 -0.2982 -0.1970
  168MOL0     C22077   8.924   9.006   9.166 -0.3511 -0.8500 -0.1521
  168MOL0     C22078   9.021   9.057   9.074  0.3165  0.7327 -0.4316
  168MOL0     O22079   8.976   9.147   8.984 -0.3197 -0.7101  0.1813
  168MOL0     C22080   9.063   9.258   8.953  0.4697  0.6884 -0.2357
  168MOL0     C22081   9.051   9.309   8.814 -0.3536 -0.3465  0.5914
  168MOL0     C22082   9.111   9.454   8.819 -0.4739  0.1866  0.5947
  168MOL0     C22083   9.118   9.506   8.668  0.2275  0.0171  0.0338
  168MOL0     C22084   9.263   9.540   8.642  0.6971 -0.6708 -0.2262
  168MOL0     C22085   9.297   9.598   8.506  0.3574 -0.6988 -0.0982
  168MOL0     C22086   9.197   9.713   8.472  0.5416  0.2634  0.1500
  168MOL0     C22087   9.239   9.806   8.351 -0.1107  1.0666 -0.3713
  168MOL0    Cl22088   9.095   9.896   8.302  0.4347 -0.6906 -0.0523
  168MOL0     C22089   9.153   9.004   9.078 -0.1022 -0.6308  0.8061
  168MOL0     C22090   9.192   8.907   9.175  0.1751  0.5300  0.3352
  168MOL0     O22091   9.301   8.886   9.475 -0.0810  0.4879  0.2424
  168MOL0     C22092   9.203   8.531   9.491 -0.1160  0.0772  0.1593
  168MOL0     C22093   9.247   8.396   9.511 -0.4790  0.8025  0.8690
  168MOL0     N22094   9.964   8.001   9.671  0.0863  0.3177  0.2310
  168MOL0     N22095  10.029   8.030   9.784 -1.0871 -0.3948  0.6931
  168MOL0     C22096  10.406   7.406   9.361 -0.2081  0.6919  0.4192
  168MOL0     C22097  10.401   7.311   9.253  0.3651 -1.2876 -0.2188
  168MOL0     C22098  10.466   6.844   9.120  0.0780  0.8968  0.4864
  168MOL0     C22099  10.354   6.836   9.036 -0.1758 -0.1688  0.3440
  168MOL0     C22100  10.330   6.726   8.954  1.2037 -0.7233 -0.2162
  168MOL0     C22101  10.413   6.618   8.956  0.4557  0.5295  0.8022
  168MOL0     O22102  10.401   6.498   8.889  0.1220 -0.1172 -0.2447
  168MOL0     C22103  10.279   6.485   8.812 -0.3832 -0.3795  0.6298
  168MOL0     C22104  10.275   6.354   8.740 -0.2919  0.4479  0.1518
  168MOL0     C22105  10.234   6.237   8.828 -0.9740 -1.0466 -0.3822
  168MOL0     C22106  10.103   6.171   8.787  0.7520  0.7750 -1.0702
  168MOL0     C22107  10.071   6.064   8.871 -0.3956  0.0005 -1.0964
  168MOL0     C22108  10.058   5.963   8.934 -0.7578 -1.2744  1.1796
  168MOL0     C22109  10.519   6.619   9.052  0.4268  0.0897  1.0154
  168MOL0     C22110  10.543   6.728   9.135 -0.7199  1.3649  0.0731
  168MOL0     H22111  10.416   7.031   9.443 -0.1325 -0.4161 -1.2434
  168MOL0     H22112  10.391   7.180   9.618  1.9302 -0.0352 -0.7591
  168MOL0     H22113  10.590   7.396   9.690  0.1359  0.7513 -0.3525
  168MOL0     H22114  10.442   7.323   9.765 -1.5717  2.5220  3.5287
  168MOL0     H22115  10.543   7.607   9.782  2.8747 -2.1983 -1.7592
  168MOL0     H22116  10.555   7.489   9.908 -0.7606 -0.7031 -0.7367
  168MOL0     H22117  10.289   7.472   9.894  0.3305 -0.8321 -1.1402
  168MOL0     H22118  10.299   7.612   9.798  0.5537 -0.2457  0.3897
  168MOL0     H22119  10.415   7.596  10.085 -0.0659 -0.3406  0.2016
  168MOL0     H22120  10.421   7.728   9.973  0.9829 -2.5257 -2.1373
  168MOL0     H22121  10.256   7.719  10.170 -4.0462  2.2186 -0.0242
  168MOL0     H22122  10.153   7.601  10.083  0.7547 -0.8734 -1.4245
  168MOL0     H22123  10.124   7.758   9.898 -0.9284 -0.8937  1.0059
  168MOL0     H22124  10.232   7.882   9.978 -2.1384  1.2465  1.2715
  168MOL0     H22125   9.957   7.796  10.066  0.7442 -0.6394 -1.8084
  168MOL0     H22126  10.070   7.865  10.186 -2.8055 -0.0124  0.5993
  168MOL0     H22127  10.097   8.063  10.027 -0.4932 -0.7577 -4.6565
  168MOL0     H22128   9.935   8.042  10.099 -0.2811 -0.3438  0.8986
  168MOL0     H22129   9.735   7.987   9.911 -2.3224 -0.4605 -2.7323
  168MOL0     H22130   9.650   7.898   9.701  3.7450 -1.0238  2.2557
  168MOL0     H22131   9.718   7.881   9.549 -0.8521  1.6751 -2.5957
  168MOL0     H22132   9.699   8.130   9.526  2.0974 -1.0536  1.0513
  168MOL0     H22133   9.626   8.137   9.689 -1.7286 -0.4994  0.0070
  168MOL0     H22134   9.524   7.972   9.460  0.0712  0.6740 -0.3502
  168MOL0     H22135   9.425   7.989   9.606  1.7683 -0.1437  2.0840
  168MOL0     H22136   9.348   8.135   9.429 -0.7660 -0.7867 -0.8558
  168MOL0     H22137   9.507   8.188   9.392 -0.0871 -1.1923  0.3177
  168MOL0     H22138   9.579   8.493   9.571  0.2227 -1.4610 -0.1307
  168MOL0     H22139   9.497   8.695   9.515  3.9352 -2.7329 -0.2661
  168MOL0     H22140   8.911   8.884   9.352 -0.0068  0.9593  0.0094
  168MOL0     H22141   8.821   9.042   9.160 -0.2856 -0.2310  1.6974
  168MOL0     H22142   9.166   9.223   8.965  0.7031 -0.1456 -3.7150
  168MOL0     H22143   9.053   9.338   9.027  0.0992  1.2792 -0.9081
  168MOL0     H22144   8.947   9.314   8.780 -0.1840  0.8085  0.1947
  168MOL0     H22145   9.097   9.245   8.738  0.9946 -0.5617  1.5420
  168MOL0     H22146   9.208   9.463   8.869  0.8202 -0.0596 -1.6857
  168MOL0     H22147   9.042   9.520   8.872  1.3040  0.8421  2.1984
  168MOL0     H22148   9.096   9.427   8.595  0.8929 -0.2851  0.1573
  168MOL0     H22149   9.050   9.591   8.670 -0.9465 -0.8842 -0.0993
  168MOL0     H22150   9.322   9.449   8.654 -2.4132 -3.1870 -2.2993
  168MOL0     H22151   9.297   9.614   8.716 -2.2257 -0.2583  0.8242
  168MOL0     H22152   9.289   9.513   8.438 -2.2716 -0.7240  0.1574
  168MOL0     H22153   9.402   9.630   8.509  0.0456  0.8454  5.3253
  168MOL0     H22154   9.105   9.661   8.444  1.4919 -1.0365 -0.6743
  168MOL0     H22155   9.177   9.772   8.562 -2.0414  0.2873 -0.3584
  168MOL0     H22156   9.271   9.736   8.273 -0.9938  0.9619 -0.6561
  168MOL0     H22157   9.314   9.877   8.385 -0.4446  1.6685 -0.8823
  168MOL0     H22158   9.232   9.033   9.009 -1.1720 -0.4057 -0.3627
  168MOL0     H22159   9.292   8.868   9.161 -1.1371 -2.9870 -0.1797
  168MOL0     H22160   9.097   8.549   9.496 -0.6099 -2.5022  0.5739
  168MOL0     H22161   9.169   8.322   9.514 -0.6239  0.6963 -2.0539
  168MOL0     H22162  10.409   7.514   9.357  3.8392  0.6813 -1.1212
  168MOL0     H22163  10.419   7.350   9.153  3.6327 -2.5183 -0.2412
  168MOL0     H22164  10.281   6.916   9.026 -0.2197 -0.3587 -1.1132
  168MOL0     H22165  10.249   6.730   8.882 -0.9490  1.9137  2.1574
  168MOL0     H22166  10.274   6.565   8.737  1.3031 -1.7142 -0.9822
  168MOL0     H22167  10.188   6.490   8.873  0.6981  3.9100  2.2250
  168MOL0     H22168  10.200   6.359   8.660 -0.6833  0.4171  0.5107
  168MOL0     H22169  10.361   6.325   8.680  1.4552 -0.0651  2.7596
  168MOL0     H22170  10.218   6.273   8.930  0.2528 -0.5134 -0.3676
  168MOL0     H22171  10.315   6.164   8.824  0.4119  0.3150  1.2526
  168MOL0     H22172  10.022   6.244   8.776  0.3417  0.5927  0.5443
  168MOL0     H22173  10.135   6.127   8.692  0.1998 -1.5316 -0.2374
  168MOL0     H22174  10.035   5.876   8.992  1.9872 -4.6078 -2.2275
  168MOL0     H22175  10.581   6.530   9.051  1.7709  0.9783  2.0713
  168MOL0     H22176  10.623   6.728   9.209 -1.3552  1.1232  0.7754
  169MOL0     O22177   7.325   2.279   2.476  0.3959 -0.5592 -0.5793
  169MOL0     C22178   7.389   2.181   2.444  0.6810 -0.7411  1.0579
  169MOL0     O22179   7.507   2.131   2.501  0.4470 -0.8847  0.1768
  169MOL0     C22180   7.566   2.217   2.587  0.0841  0.6924  0.6126
  169MOL0     C22181   7.689   2.266   2.542 -0.1061 -0.3325  0.2098
  169MOL0     C22182   7.775   2.340   2.626  0.3128 -0.0090 -0.2047
  169MOL0     C22183   7.729   2.389   2.752  0.8276  0.4357 -0.4399
  169MOL0     O22184   7.809   2.471   2.823  0.0388  0.4515  0.0288
  169MOL0     C22185   7.832   2.591   2.771 -0.9562 -0.7237  0.4002
  169MOL0     C22186   7.823   2.700   2.889  0.0536  0.2218 -0.6157
  169MOL0     C22187   7.915   2.818   2.866  0.7212 -0.0089  0.0052
  169MOL0     C22188   7.914   2.911   2.991  0.2037 -0.5190 -0.5660
  169MOL0     C22189   7.993   3.051   2.975  0.2828  0.9577  0.5499
  169MOL0     C22190   7.979   3.127   3.108  0.3336 -0.1099 -0.3993
  169MOL0     C22191   7.862   3.228   3.068  0.0136 -0.3754 -1.1786
  169MOL0     C22192   7.815   3.316   3.182  0.9022 -0.2025  0.7695
  169MOL0     N22193   7.807   3.244   3.316  0.0991  0.0659 -0.0564
  169MOL0     C22194   7.906   3.233   3.403  0.6335  0.2014 -0.0958
  169MOL0     C22195   7.854   3.187   3.522 -0.6406  1.1189 -0.5493
  169MOL0     C22196   7.932   3.168   3.652 -0.4190 -0.2759 -0.0509
  169MOL0     C22197   8.021   3.045   3.649  0.1129 -0.9187  0.3167
  169MOL0     C22198   8.138   3.058   3.545  0.3006  0.3966  0.0019
  169MOL0     C22199   8.229   2.946   3.574 -0.8516 -0.0833 -0.3438
  169MOL0     O22200   8.303   2.974   3.697  0.2073  0.0673  0.7807
  169MOL0     C22201   8.352   2.871   3.768 -0.7249  0.0915  0.2574
  169MOL0     C22202   8.429   2.770   3.711  0.1355 -0.3479  0.9003
  169MOL0     C22203   8.512   2.695   3.794 -0.7362  0.0832 -0.0251
  169MOL0     C22204   8.490   2.694   3.931  0.1928 -1.2266 -0.4571
  169MOL0     C22205   8.571   2.590   4.008  0.5820  0.3694 -0.3955
  169MOL0     O22206   8.655   2.504   3.934  0.4583  0.2109 -0.1511
  169MOL0     C22207   8.712   2.411   4.010  1.0321 -0.2920  0.0518
  169MOL0     C22208   8.813   2.435   4.107 -0.1322 -0.1549  0.8647
  169MOL0     C22209   8.874   2.331   4.170 -0.3512  0.1518  0.5970
  169MOL0     C22210   8.838   2.191   4.140 -0.1263 -0.4880 -0.2972
  169MOL0     O22211   8.896   2.068   4.180  1.3059  0.5722  0.0660
  169MOL0     C22212   9.009   2.088   4.272  0.4851 -0.2256 -0.4281
  169MOL0     C22213   9.060   1.946   4.300 -0.1707  0.4354  1.4613
  169MOL0     C22214   9.186   1.939   4.377  1.0164  0.1876  0.4105
  169MOL0     C22215   9.254   1.805   4.370 -0.0221  0.5010  0.1726
  169MOL0     C22216   9.400   1.808   4.423 -0.0287 -0.0317  1.4463
  169MOL0     C22217   9.478   1.673   4.401  0.5283  0.5437 -0.2568
  169MOL0     C22218   9.463   1.566   4.512  0.1246 -0.1101  0.2183
  169MOL0     C22219   9.554   1.574   4.633  0.1557  0.1883 -0.2326
  169MOL0    Cl22220   9.542   1.730   4.708  0.5161 -0.3166 -0.2894
  169MOL0     C22221   8.739   2.171   4.046  0.3937  0.5694 -0.5141
  169MOL0     C22222   8.680   2.280   3.979 -0.2587  0.6333 -0.7875
  169MOL0     O22223   8.562   2.591   4.134 -0.2877  0.1086  0.0569
  169MOL0     C22224   8.412   2.799   3.984  0.9539  0.5754 -0.0822
  169MOL0     C22225   8.348   2.885   3.906 -0.6323 -0.7349 -0.9519
  169MOL0     N22226   7.719   3.165   3.502  0.7120  0.0082 -0.8513
  169MOL0     N22227   7.689   3.207   3.382  0.3002  0.1290  0.0430
  169MOL0     C22228   7.608   2.331   2.797 -0.5618  0.3030  0.0654
  169MOL0     C22229   7.530   2.241   2.719 -0.4573 -0.8205 -0.7346
  169MOL0     C22230   7.327   2.086   2.348 -0.8974  0.0212 -0.1377
  169MOL0     C22231   7.383   1.959   2.326  0.1522  0.2691 -0.2825
  169MOL0     C22232   7.327   1.871   2.235  0.3696 -0.4635 -0.4341
  169MOL0     C22233   7.222   1.919   2.148  0.5036  0.7421 -0.3455
  169MOL0     O22234   7.175   1.869   2.025  0.8825  0.1162 -0.5744
  169MOL0     C22235   7.212   1.742   1.968 -0.5406  0.1402  0.2472
  169MOL0     C22236   7.362   1.739   1.953 -0.3435 -0.7900  0.4079
  169MOL0     C22237   7.391   1.628   1.846 -0.9084 -0.1073 -0.0505
  169MOL0     C22238   7.540   1.619   1.820 -0.2955  0.4424 -0.3424
  169MOL0     C22239   7.551   1.567   1.680  0.5163  0.0159  0.7524
  169MOL0     C22240   7.553   1.524   1.564 -0.0923  0.5306  0.0305
  169MOL0     C22241   7.159   2.038   2.184  0.1510 -0.1994 -1.1022
  169MOL0     C22242   7.206   2.121   2.278  0.0137 -0.1798 -0.1403
  169MOL0     H22243   7.731   2.245   2.444 -1.2758  1.6699 -0.7985
  169MOL0     H22244   7.862   2.381   2.577 -1.1260  4.8478  0.7742
  169MOL0     H22245   7.762   2.620   2.692 -0.4511 -2.0432 -0.5670
  169MOL0     H22246   7.929   2.586   2.722 -1.5601 -4.3084 -0.6763
  169MOL0     H22247   7.844   2.652   2.985 -1.4005  1.0068  0.1177
  169MOL0     H22248   7.719   2.731   2.887 -0.2820 -0.8085  0.0308
  169MOL0     H22249   7.894   2.870   2.772 -1.3377 -2.1988 -0.8396
  169MOL0     H22250   8.018   2.785   2.854  2.3037  3.9505  1.1592
  169MOL0     H22251   7.815   2.943   3.025  1.2182  0.9275  1.2021
  169MOL0     H22252   7.949   2.849   3.074 -2.4688 -0.4462  0.7301
  169MOL0     H22253   7.960   3.103   2.884  3.2276 -2.5288 -2.8819
  169MOL0     H22254   8.096   3.023   2.951 -1.0647 -2.2542 -2.2405
  169MOL0     H22255   8.073   3.177   3.129  0.0414  0.0682  0.5013
  169MOL0     H22256   7.954   3.076   3.201  0.2282  4.7966  2.6040
  169MOL0     H22257   7.908   3.298   2.997  1.0083  1.3046  0.9889
  169MOL0     H22258   7.774   3.181   3.025 -0.2740  0.7560 -1.8615
  169MOL0     H22259   7.709   3.331   3.158  1.0392 -0.3360  0.0401
  169MOL0     H22260   7.870   3.410   3.180  1.6733 -0.6435 -1.2491
  169MOL0     H22261   8.011   3.259   3.392  1.5713 -2.6363  1.2114
  169MOL0     H22262   7.860   3.175   3.733 -0.3489  2.2009 -0.1249
  169MOL0     H22263   7.998   3.255   3.658 -2.1085  0.9328  2.0194
  169MOL0     H22264   7.960   2.957   3.625  1.5657 -1.3042 -2.3795
  169MOL0     H22265   8.062   3.034   3.749 -0.7345 -2.4918  0.5266
  169MOL0     H22266   8.100   3.069   3.443 -0.1716  2.8226  0.3879
  169MOL0     H22267   8.200   3.146   3.565 -1.3306  1.8498 -1.1621
  169MOL0     H22268   8.290   2.918   3.487 -2.7704 -1.0563 -1.4362
  169MOL0     H22269   8.163   2.860   3.583 -0.0371 -0.8640 -1.4790
  169MOL0     H22270   8.447   2.761   3.605  1.2207 -0.9043  1.1180
  169MOL0     H22271   8.580   2.625   3.746 -0.9645 -1.0331  1.2231
  169MOL0     H22272   8.846   2.534   4.138 -0.6350  0.2125  0.2478
  169MOL0     H22273   8.964   2.349   4.228  1.1121 -3.7774 -0.1247
  169MOL0     H22274   8.973   2.139   4.362 -0.6453 -0.4668 -0.7389
  169MOL0     H22275   9.085   2.148   4.219 -1.5192  1.9679 -0.9988
  169MOL0     H22276   9.073   1.896   4.204  1.6876  0.4385  1.6698
  169MOL0     H22277   8.978   1.899   4.355  0.9123 -1.1271  1.8250
  169MOL0     H22278   9.165   1.963   4.481 -1.0186 -0.8461  0.2980
  169MOL0     H22279   9.240   2.021   4.329  1.6523 -0.9530 -0.8796
  169MOL0     H22280   9.197   1.750   4.444 -0.5809  1.5345  0.5376
  169MOL0     H22281   9.254   1.761   4.270  1.9291 -2.5678  1.3740
  169MOL0     H22282   9.391   1.846   4.525  0.3539  1.9040  0.8021
  169MOL0     H22283   9.440   1.891   4.364  0.6376 -1.9310 -0.9861
  169MOL0     H22284   9.580   1.710   4.385  0.3446  0.5813 -1.3930
  169MOL0     H22285   9.448   1.629   4.306  2.3778 -1.2324 -0.0867
  169MOL0     H22286   9.362   1.572   4.551  0.5220  4.3375  1.0616
  169MOL0     H22287   9.482   1.467   4.470  0.9873  0.4959 -0.8971
  169MOL0     H22288   9.660   1.573   4.604  0.3443  3.2380  0.0305
  169MOL0     H22289   9.528   1.495   4.704  1.2848 -0.4102 -0.4462
  169MOL0     H22290   8.695   2.075   4.018 -0.8931  0.7443  0.7604
  169MOL0     H22291   8.597   2.250   3.916  0.7904 -1.0727 -1.4403
  169MOL0     H22292   8.386   2.806   4.089  1.5876 -0.1643  0.1369
  169MOL0     H22293   8.275   2.954   3.948 -1.6450 -1.6443 -1.1764
  169MOL0     H22294   7.587   2.364   2.898 -1.5617 -1.9952  0.6690
  169MOL0     H22295   7.434   2.199   2.747 -1.0050  1.7209  1.6723
  169MOL0     H22296   7.465   1.921   2.386 -1.9957  0.9627  3.3636
  169MOL0     H22297   7.371   1.772   2.227 -0.4388 -0.7349 -1.7502
  169MOL0     H22298   7.168   1.747   1.868 -0.3104  2.5911  0.1943
  169MOL0     H22299   7.190   1.653   2.027  2.2711 -2.0137 -1.7003
  169MOL0     H22300   7.394   1.829   1.899  0.8880 -1.0477  0.6703
  169MOL0     H22301   7.421   1.718   2.042  0.5591 -0.4850 -0.0990
  169MOL0     H22302   7.341   1.646   1.750  1.1125  0.6892 -1.0196
  169MOL0     H22303   7.369   1.530   1.889  3.1749 -0.3902  1.8988
  169MOL0     H22304   7.582   1.719   1.832 -0.2914  0.2473  1.5786
  169MOL0     H22305   7.588   1.556   1.896 -1.1423  1.3828  1.0258
  169MOL0     H22306   7.558   1.465   1.474 -0.4687 -1.7009  1.3722
  169MOL0     H22307   7.073   2.068   2.123 -0.3620  1.7727  0.4853
  169MOL0     H22308   7.147   2.205   2.314 -1.1476 -2.9056  5.3115
  170MOL0     O22309   3.971   6.933   5.484  0.1424  0.7257 -0.6073
  170MOL0     C22310   4.091   6.937   5.499 -0.1935  0.4400  0.0931
  170MOL0     O22311   4.166   6.852   5.587 -0.3732  0.3320 -0.0404
  170MOL0     C22312   4.109   6.749   5.656 -0.8030  0.7015  0.6864
  170MOL0     C22313   4.010   6.665   5.614 -0.7285  0.7907 -0.2508
  170MOL0     C22314   3.964   6.570   5.705  0.5009 -1.1868 -0.0703
  170MOL0     C22315   4.021   6.544   5.834  0.1722 -0.3753  0.5599
  170MOL0     O22316   3.967   6.449   5.916 -0.0794  0.1596  1.4703
  170MOL0     C22317   3.827   6.415   5.907 -0.2151 -0.8566  1.0284
  170MOL0     C22318   3.800   6.327   6.030 -0.3599  0.6633 -0.7111
  170MOL0     C22319   3.837   6.393   6.167 -0.0393  0.2816 -1.0221
  170MOL0     C22320   3.832   6.291   6.279 -0.4560 -0.3827  0.2679
  170MOL0     C22321   3.693   6.241   6.317  0.3492  0.4739 -0.5066
  170MOL0     C22322   3.695   6.129   6.430 -0.2674 -0.2908 -0.3869
  170MOL0     C22323   3.794   6.018   6.409  0.6513  0.0797 -0.1805
  170MOL0     C22324   3.774   5.908   6.513  0.2043 -0.1344 -0.5133
  170MOL0     N22325   3.894   5.837   6.535  0.1342  1.2305  0.6044
  170MOL0     C22326   3.951   5.755   6.435  0.6477 -0.0838  0.7991
  170MOL0     C22327   4.063   5.718   6.492 -0.5031  0.1291 -0.6125
  170MOL0     C22328   4.175   5.633   6.421 -0.0931  0.0240 -0.1203
  170MOL0     C22329   4.288   5.714   6.356 -0.4519 -0.4410 -0.3192
  170MOL0     C22330   4.263   5.739   6.208 -0.0444 -1.3438 -1.1920
  170MOL0     C22331   4.378   5.812   6.145 -0.6030 -0.0992  0.8100
  170MOL0     O22332   4.491   5.721   6.113 -0.1690 -0.1162  0.0149
  170MOL0     C22333   4.616   5.760   6.070  0.0027 -0.4439 -0.3484
  170MOL0     C22334   4.719   5.658   6.053 -0.1047 -0.2101 -0.2653
  170MOL0     C22335   4.848   5.702   6.014  0.2844  0.0133  0.1583
  170MOL0     C22336   4.880   5.843   6.002 -0.5781 -0.6017 -0.4106
  170MOL0     C22337   5.017   5.886   5.964  0.6320  0.0277 -0.7360
  170MOL0     O22338   5.098   5.807   5.898 -0.0855 -0.1991  0.1775
  170MOL0     C22339   5.226   5.855   5.877 -0.3538  0.6222  1.3103
  170MOL0     C22340   5.307   5.937   5.962 -0.1060 -0.1656 -0.2200
  170MOL0     C22341   5.430   5.975   5.921  0.3478  0.0957  1.5955
  170MOL0     C22342   5.481   5.948   5.797 -0.2123 -0.0183  0.3688
  170MOL0     O22343   5.613   5.989   5.765 -0.5812  1.1087  0.9631
  170MOL0     C22344   5.649   6.116   5.706 -0.2307  0.7852  0.4496
  170MOL0     C22345   5.726   6.103   5.569 -1.0577 -0.4862  0.7301
  170MOL0     C22346   5.828   6.222   5.562  1.2140  0.5929 -0.8110
  170MOL0     C22347   5.889   6.231   5.430  1.3964  0.8604  0.5114
  170MOL0     C22348   5.956   6.365   5.389  0.3190  0.5282 -0.7474
  170MOL0     C22349   5.975   6.365   5.240 -0.3630  0.8837 -0.0667
  170MOL0     C22350   6.053   6.475   5.180 -0.9630 -0.3371 -0.6135
  170MOL0     C22351   6.166   6.420   5.090  0.5409 -0.6237 -0.0961
  170MOL0    Cl22352   6.262   6.548   5.025  0.2041 -0.0971  0.3998
  170MOL0     C22353   5.390   5.881   5.709 -0.1583  0.4798  0.1155
  170MOL0     C22354   5.268   5.829   5.753 -0.0196 -0.0352 -1.1036
  170MOL0     O22355   5.039   6.006   6.000 -0.4796 -0.0492 -0.2530
  170MOL0     C22356   4.776   5.935   6.019 -0.9449  0.7576  0.1899
  170MOL0     C22357   4.649   5.900   6.056  0.3966 -0.2552  0.4246
  170MOL0     N22358   4.075   5.776   6.618  0.2323 -0.3032 -0.1992
  170MOL0     N22359   3.972   5.854   6.649 -0.7207 -0.9533  1.0326
  170MOL0     C22360   4.142   6.612   5.863 -0.4858 -1.1565 -0.5275
  170MOL0     C22361   4.181   6.716   5.778  0.1082  0.7981  0.3749
  170MOL0     C22362   4.169   7.030   5.409  0.5550  0.0198 -0.5427
  170MOL0     C22363   4.309   7.049   5.430  0.8822 -0.0299 -0.0517
  170MOL0     C22364   4.382   7.123   5.356  0.1966 -0.4249  1.4217
  170MOL0     C22365   4.323   7.191   5.238 -0.3641  0.1769  0.0161
  170MOL0     O22366   4.402   7.261   5.152 -0.2805  0.6319  0.7661
  170MOL0     C22367   4.537   7.288   5.193 -0.5513  0.3228  0.2232
  170MOL0     C22368   4.591   7.411   5.118  0.7415 -0.7072  0.1749
  170MOL0     C22369   4.589   7.413   4.963 -0.5045 -0.2240  0.5483
  170MOL0     C22370   4.693   7.513   4.908 -0.7447 -0.6079 -0.3986
  170MOL0     C22371   4.659   7.650   4.950 -0.2155 -0.9270 -0.2954
  170MOL0     C22372   4.594   7.753   4.982 -0.2010 -0.0857 -0.5088
  170MOL0     C22373   4.184   7.174   5.211  0.9307 -0.6678 -0.4252
  170MOL0     C22374   4.109   7.098   5.304 -0.1805  0.2463  0.8287
  170MOL0     H22375   3.967   6.692   5.518  0.3284 -0.4085 -1.0838
  170MOL0     H22376   3.874   6.512   5.688 -3.4219  3.2349  2.8442
  170MOL0     H22377   3.811   6.360   5.813 -0.5977  1.4977 -0.3680
  170MOL0     H22378   3.766   6.505   5.915  2.7322  1.1925  2.1296
  170MOL0     H22379   3.863   6.239   6.013 -0.5534 -0.2625  2.7036
  170MOL0     H22380   3.696   6.294   6.038 -1.1553  2.8015 -1.4849
  170MOL0     H22381   3.774   6.480   6.186 -1.3322 -1.2043  2.0229
  170MOL0     H22382   3.939   6.425   6.144  1.6067 -2.3028  1.8634
  170MOL0     H22383   3.895   6.205   6.255 -0.0552 -0.4961  1.6195
  170MOL0     H22384   3.876   6.334   6.370 -1.4380  0.0289  0.5620
  170MOL0     H22385   3.630   6.201   6.238  1.1331 -3.2633  0.5197
  170MOL0     H22386   3.643   6.330   6.354  1.5704  0.7438  0.6080
  170MOL0     H22387   3.591   6.095   6.435  0.7536 -3.6784 -0.4327
  170MOL0     H22388   3.725   6.177   6.524  2.9752 -0.2774 -1.3028
  170MOL0     H22389   3.774   5.971   6.312  3.8292 -0.5908 -0.6259
  170MOL0     H22390   3.897   6.054   6.423  0.0509  1.0149  2.2509
  170MOL0     H22391   3.684   5.854   6.483  0.6840 -0.0303 -2.2639
  170MOL0     H22392   3.750   5.939   6.615 -0.0636 -1.1680 -0.2561
  170MOL0     H22393   3.913   5.724   6.338  0.3236  0.2877  0.8052
  170MOL0     H22394   4.133   5.586   6.332 -1.3471 -0.8828  0.9036
  170MOL0     H22395   4.218   5.562   6.493 -1.8408  0.0955  1.0578
  170MOL0     H22396   4.379   5.654   6.363 -0.6036 -0.5000  3.3551
  170MOL0     H22397   4.310   5.804   6.414  2.3646 -1.8883  1.0052
  170MOL0     H22398   4.242   5.644   6.157  1.0022  0.0114 -4.4205
  170MOL0     H22399   4.168   5.791   6.194 -0.3928 -1.9127 -0.9944
  170MOL0     H22400   4.415   5.886   6.216  2.2772 -1.7049  1.1795
  170MOL0     H22401   4.347   5.854   6.049 -0.1573 -1.8853 -0.1673
  170MOL0     H22402   4.685   5.556   6.041 -1.5840  0.3739 -1.4400
  170MOL0     H22403   4.935   5.640   5.991  2.0666  2.7529 -0.9664
  170MOL0     H22404   5.276   5.956   6.064 -3.1733  1.1197 -1.2387
  170MOL0     H22405   5.496   6.005   6.002  1.2767 -2.7292  1.9889
  170MOL0     H22406   5.721   6.152   5.780  0.6564  0.2145 -0.1207
  170MOL0     H22407   5.567   6.188   5.710 -0.0337  0.9541  1.8003
  170MOL0     H22408   5.655   6.109   5.486 -0.9266 -0.4764  0.6170
  170MOL0     H22409   5.771   6.003   5.565 -3.0510 -1.4279  0.7302
  170MOL0     H22410   5.914   6.210   5.629  0.1923  3.5121  1.1849
  170MOL0     H22411   5.775   6.311   5.597 -3.8107 -3.0428  2.1906
  170MOL0     H22412   5.953   6.143   5.420 -2.5470 -2.4879  2.0711
  170MOL0     H22413   5.803   6.220   5.363  1.8750 -2.2081  0.2804
  170MOL0     H22414   6.049   6.382   5.444  0.8384 -0.8012 -1.1684
  170MOL0     H22415   5.891   6.451   5.403  1.3018  0.8895  2.2043
  170MOL0     H22416   5.878   6.397   5.200  0.3639 -0.4660 -3.1988
  170MOL0     H22417   6.020   6.272   5.206 -0.7023 -0.1150  2.0190
  170MOL0     H22418   5.988   6.529   5.111 -1.6327 -0.7149 -0.2895
  170MOL0     H22419   6.109   6.530   5.257  0.0384 -2.0850 -0.0226
  170MOL0     H22420   6.116   6.366   5.009  1.1132  2.0562 -2.4291
  170MOL0     H22421   6.232   6.364   5.156  0.4820 -0.5748  0.0045
  170MOL0     H22422   5.430   5.866   5.609 -2.2628 -3.0095 -0.3662
  170MOL0     H22423   5.219   5.775   5.672 -0.2676 -1.7541  0.1368
  170MOL0     H22424   4.796   6.035   5.981 -2.4534  0.4352 -1.6021
  170MOL0     H22425   4.569   5.973   6.060 -0.5400 -1.3149  1.8284
  170MOL0     H22426   4.209   6.587   5.944  2.7740  0.9810 -2.3353
  170MOL0     H22427   4.272   6.767   5.808  2.2504 -3.0936  1.2704
  170MOL0     H22428   4.359   6.998   5.512 -2.6587 -1.1428  1.6372
  170MOL0     H22429   4.489   7.119   5.375  0.8734  1.2487 -1.3685
  170MOL0     H22430   4.597   7.203   5.160 -1.5346 -0.3266  0.0494
  170MOL0     H22431   4.553   7.311   5.299  2.7763  0.5874 -0.2231
  170MOL0     H22432   4.545   7.504   5.151 -1.3840 -1.2707 -1.0350
  170MOL0     H22433   4.699   7.409   5.136  1.0903 -1.0064 -1.6731
  170MOL0     H22434   4.493   7.432   4.915 -0.0418 -5.7689 -3.5031
  170MOL0     H22435   4.608   7.313   4.924 -0.1293 -1.0737  2.7579
  170MOL0     H22436   4.790   7.489   4.953 -1.3773  3.7505  4.1903
  170MOL0     H22437   4.699   7.523   4.799  1.3943  6.9270 -0.1955
  170MOL0     H22438   4.539   7.840   5.009 -0.8313 -0.6656  0.1112
  170MOL0     H22439   4.135   7.236   5.136  1.7782  0.3248 -0.1748
  170MOL0     H22440   4.003   7.080   5.284  0.7399 -1.1614 -4.5744
  171MOL0     O22441   5.800   7.610   9.186 -0.1991 -0.1484  0.3406
  171MOL0     C22442   5.761   7.592   9.297  0.5891 -0.9066 -0.9891
  171MOL0     O22443   5.820   7.617   9.419 -0.0098 -0.1528 -0.2794
  171MOL0     C22444   5.932   7.689   9.408 -0.3998  0.1240 -0.7380
  171MOL0     C22445   6.063   7.633   9.391  0.6004  0.2312  0.6920
  171MOL0     C22446   6.178   7.725   9.383  0.1228  0.2059  0.4961
  171MOL0     C22447   6.165   7.863   9.401  0.0424 -0.3490  0.3449
  171MOL0     O22448   6.278   7.945   9.393  0.3384 -0.2481 -0.4476
  171MOL0     C22449   6.261   8.086   9.357 -0.4752 -0.3252  0.6747
  171MOL0     C22450   6.404   8.159   9.354 -0.1171  0.0059 -1.0917
  171MOL0     C22451   6.374   8.306   9.320  0.1090 -0.6832  0.2010
  171MOL0     C22452   6.321   8.351   9.179 -1.1886 -0.1714 -0.9865
  171MOL0     C22453   6.407   8.282   9.070  0.4598  0.7913  0.1047
  171MOL0     C22454   6.377   8.330   8.935 -0.5383 -0.2846  0.0961
  171MOL0     C22455   6.227   8.330   8.894  0.1378 -0.0360  0.2504
  171MOL0     C22456   6.201   8.354   8.739  0.8797  1.2244 -0.9722
  171MOL0     N22457   6.288   8.276   8.649 -0.5350  0.0911  0.3215
  171MOL0     C22458   6.247   8.155   8.596 -0.1644 -0.2891  0.1199
  171MOL0     C22459   6.356   8.110   8.539  0.0543  0.2693 -0.9900
  171MOL0     C22460   6.372   7.975   8.476  0.9282 -0.4617  0.0456
  171MOL0     C22461   6.351   7.861   8.572  1.0120  0.6245  0.1776
  171MOL0     C22462   6.412   7.881   8.716 -1.0225 -0.2496  0.2416
  171MOL0     C22463   6.567   7.899   8.705  0.3292 -0.2191 -0.5835
  171MOL0     O22464   6.638   7.792   8.635  0.2613  0.1007 -0.5574
  171MOL0     C22465   6.753   7.834   8.566  0.2594  0.0435  0.1782
  171MOL0     C22466   6.834   7.953   8.577 -0.2235  0.1038  0.6470
  171MOL0     C22467   6.942   7.972   8.490 -1.6511  0.0821 -0.2636
  171MOL0     C22468   6.977   7.879   8.393 -0.7707  0.1628  0.3085
  171MOL0     C22469   7.085   7.904   8.298  0.8493  1.0094  1.1913
  171MOL0     O22470   7.170   7.992   8.328  0.7583  0.2919 -0.0956
  171MOL0     C22471   7.286   8.000   8.258 -0.5954  0.0233  0.3774
  171MOL0     C22472   7.297   8.093   8.152 -0.1333 -0.0045 -0.2476
  171MOL0     C22473   7.413   8.100   8.076 -0.7304  0.5225 -0.2766
  171MOL0     C22474   7.530   8.037   8.123  0.2746  0.1385  1.3791
  171MOL0     O22475   7.656   8.030   8.061 -0.2691  0.0740 -0.2497
  171MOL0     C22476   7.671   8.115   7.950  1.5380 -0.2209  0.3677
  171MOL0     C22477   7.814   8.131   7.913 -0.0272 -0.3428 -0.7819
  171MOL0     C22478   7.894   8.201   8.016  0.5687 -0.6362 -0.3017
  171MOL0     C22479   8.043   8.199   7.995  0.5931 -0.3269 -0.2640
  171MOL0     C22480   8.114   8.289   8.098 -0.1199 -0.4391  0.1476
  171MOL0     C22481   8.270   8.284   8.089  0.2962 -0.1164  0.1605
  171MOL0     C22482   8.345   8.373   8.194 -0.2734 -0.3824  0.6351
  171MOL0     C22483   8.332   8.315   8.335  0.0588 -0.6984 -0.0004
  171MOL0    Cl22484   8.363   8.136   8.359  0.1346 -0.4699 -0.4454
  171MOL0     C22485   7.518   7.955   8.239 -1.2881  0.0358  0.6135
  171MOL0     C22486   7.398   7.929   8.304 -0.5865  0.4290 -0.3778
  171MOL0     O22487   7.102   7.814   8.204 -0.1020 -0.9711 -0.2151
  171MOL0     C22488   6.897   7.761   8.382 -0.0008 -0.4248 -0.7242
  171MOL0     C22489   6.792   7.738   8.467  0.3422  0.8985 -1.0502
  171MOL0     N22490   6.463   8.191   8.547  0.0471 -0.7673  0.3072
  171MOL0     N22491   6.414   8.301   8.604  0.1734 -0.4508 -0.5478
  171MOL0     C22492   6.035   7.913   9.409 -0.7023 -0.8610 -0.6685
  171MOL0     C22493   5.920   7.831   9.413  0.3604  0.7738  0.5555
  171MOL0     C22494   5.625   7.532   9.313 -0.2635 -0.3163  0.3547
  171MOL0     C22495   5.585   7.440   9.216 -0.9117  0.0149  0.7055
  171MOL0     C22496   5.472   7.375   9.223 -0.1368  0.0043  0.4185
  171MOL0     C22497   5.387   7.394   9.324  0.0169  0.1889 -1.0894
  171MOL0     O22498   5.275   7.323   9.346 -0.9664 -0.1118  0.5596
  171MOL0     C22499   5.222   7.244   9.235 -1.0184 -0.2940  0.0504
  171MOL0     C22500   5.086   7.188   9.257 -0.3121 -0.8427 -0.8774
  171MOL0     C22501   5.072   7.116   9.387  0.4585 -1.0298 -0.2262
  171MOL0     C22502   4.934   7.035   9.414 -0.8061 -0.0214  0.3027
  171MOL0     C22503   4.948   6.955   9.534 -0.4475  0.6012 -0.3329
  171MOL0     C22504   4.985   6.892   9.634 -0.3491  0.1557 -0.1110
  171MOL0     C22505   5.423   7.477   9.431 -0.4428 -0.9067  0.1579
  171MOL0     C22506   5.534   7.550   9.418  0.0171 -0.8724  0.1886
  171MOL0     H22507   6.083   7.526   9.388 -0.4525  0.0155  0.8458
  171MOL0     H22508   6.276   7.678   9.385 -0.1660 -0.4539 -0.4177
  171MOL0     H22509   6.192   8.132   9.429  0.2082  2.0091 -0.0740
  171MOL0     H22510   6.216   8.096   9.258 -1.1902 -1.4838  0.8656
  171MOL0     H22511   6.487   8.112   9.300 -0.3949  0.4594 -1.9285
  171MOL0     H22512   6.449   8.164   9.453  1.3822  1.4860 -1.7973
  171MOL0     H22513   6.466   8.362   9.337  0.4965 -0.4192 -2.3160
  171MOL0     H22514   6.300   8.329   9.397 -1.4465 -0.3283 -1.3406
  171MOL0     H22515   6.213   8.335   9.186 -1.4757  1.1419 -1.9074
  171MOL0     H22516   6.322   8.458   9.157  0.9930 -0.4630 -2.6603
  171MOL0     H22517   6.372   8.179   9.065 -0.4701  1.0517  0.8243
  171MOL0     H22518   6.514   8.276   9.091 -0.0927 -2.2562  2.7357
  171MOL0     H22519   6.436   8.268   8.866 -0.3646 -0.8694  0.7653
  171MOL0     H22520   6.424   8.428   8.935 -0.1609 -0.4635 -0.1790
  171MOL0     H22521   6.181   8.235   8.921 -0.9155  0.4652  0.2413
  171MOL0     H22522   6.165   8.399   8.951 -4.0103 -3.0974 -0.1086
  171MOL0     H22523   6.226   8.460   8.729  1.3690  1.3002  0.7128
  171MOL0     H22524   6.096   8.348   8.711  0.5821  1.5635  0.0034
  171MOL0     H22525   6.152   8.105   8.611 -1.1989  1.9479  1.3993
  171MOL0     H22526   6.478   7.972   8.448  1.5064  2.5554  1.4903
  171MOL0     H22527   6.306   7.965   8.389 -0.7223 -1.7050  1.3648
  171MOL0     H22528   6.403   7.774   8.531  2.0800 -0.1342  2.9342
  171MOL0     H22529   6.244   7.845   8.589  0.0382  5.2436 -0.4519
  171MOL0     H22530   6.364   7.960   8.776  0.5138  0.4009  0.6694
  171MOL0     H22531   6.382   7.786   8.761 -1.8405 -0.5422 -0.8965
  171MOL0     H22532   6.606   7.892   8.807 -1.1770  0.7603  0.0991
  171MOL0     H22533   6.588   8.000   8.671 -0.6421 -0.0723 -0.7950
  171MOL0     H22534   6.820   8.031   8.650  0.3797  0.3757  0.4744
  171MOL0     H22535   7.001   8.062   8.500 -0.8678 -0.6579  2.9391
  171MOL0     H22536   7.217   8.166   8.142  0.8934  1.1155 -0.5804
  171MOL0     H22537   7.400   8.162   7.987  1.4224  0.1847 -0.8709
  171MOL0     H22538   7.632   8.213   7.982  2.4416  0.4656 -0.5776
  171MOL0     H22539   7.604   8.099   7.865  0.9064  2.1072  0.3503
  171MOL0     H22540   7.825   8.185   7.818 -0.6255  0.4284 -0.4211
  171MOL0     H22541   7.845   8.028   7.893 -2.9426 -1.6829  0.8715
  171MOL0     H22542   7.856   8.172   8.114 -0.8988 -0.7228 -0.8639
  171MOL0     H22543   7.856   8.302   7.999  0.9842 -0.4283  0.0085
  171MOL0     H22544   8.085   8.101   8.019 -1.2474 -0.5567  2.5257
  171MOL0     H22545   8.064   8.250   7.900 -0.7822 -1.3156 -1.1185
  171MOL0     H22546   8.082   8.251   8.196 -0.0288 -1.2324 -0.1212
  171MOL0     H22547   8.068   8.388   8.090  0.9767 -0.0511 -1.9706
  171MOL0     H22548   8.297   8.307   7.985  1.6340 -0.5269  0.4037
  171MOL0     H22549   8.300   8.182   8.111 -1.4490 -0.4596  1.1662
  171MOL0     H22550   8.451   8.382   8.168 -0.6385  1.2628 -0.4248
  171MOL0     H22551   8.304   8.474   8.196 -1.0979 -0.7157  0.9124
  171MOL0     H22552   8.226   8.322   8.363  0.3529  1.9714  0.7063
  171MOL0     H22553   8.394   8.369   8.407 -0.1686  0.8569 -0.9327
  171MOL0     H22554   7.609   7.920   8.287 -1.3937  0.8536  1.4616
  171MOL0     H22555   7.396   7.871   8.396 -1.5733  2.6446  1.0891
  171MOL0     H22556   6.928   7.685   8.312  0.8720  1.0792 -2.0421
  171MOL0     H22557   6.732   7.648   8.455  0.4531  0.4271  1.4577
  171MOL0     H22558   6.012   8.017   9.430 -0.2986 -0.7455 -0.7809
  171MOL0     H22559   5.822   7.879   9.416  0.2738  0.5652  1.3823
  171MOL0     H22560   5.652   7.414   9.135 -2.8627 -3.0742 -0.0788
  171MOL0     H22561   5.433   7.321   9.138  0.0676  0.3894  0.0767
  171MOL0     H22562   5.290   7.161   9.212 -1.6969 -1.0892  0.8887
  171MOL0     H22563   5.211   7.308   9.147  0.3900 -2.7347 -2.0479
  171MOL0     H22564   5.013   7.269   9.248  0.6008 -0.0256 -1.1656
  171MOL0     H22565   5.063   7.122   9.173 -0.8286 -0.4226 -1.0762
  171MOL0     H22566   5.101   7.192   9.461  1.5885  0.2783 -1.9438
  171MOL0     H22567   5.151   7.043   9.406  0.3050 -0.8563  1.1873
  171MOL0     H22568   4.856   7.113   9.422  2.0198  3.0913 -0.1552
  171MOL0     H22569   4.909   6.984   9.321 -2.3164 -3.7634  2.5372
  171MOL0     H22570   5.013   6.861   9.732  1.5135  0.6768 -0.4417
  171MOL0     H22571   5.355   7.471   9.516  0.6923  1.6473  1.3260
  171MOL0     H22572   5.555   7.628   9.490 -1.6054 -0.9306  0.7637
  172MOL0     O22573   8.174   3.007   1.084 -0.0386  0.7496 -0.7294
  172MOL0     C22574   8.119   3.057   1.181  0.9335  0.5692  0.0719
  172MOL0     O22575   8.037   2.992   1.271  0.4472  0.1553 -0.5672
  172MOL0     C22576   7.997   2.858   1.247  0.8124 -0.1500  0.3048
  172MOL0     C22577   7.966   2.799   1.122 -0.3850  0.0005 -0.0979
  172MOL0     C22578   7.905   2.673   1.102 -0.0222  0.0358 -0.8476
  172MOL0     C22579   7.869   2.600   1.217  0.0135  0.5552  0.2278
  172MOL0     O22580   7.803   2.485   1.205 -0.6628  0.4769  0.4387
  172MOL0     C22581   7.668   2.497   1.252 -0.5518  0.3270 -0.3561
  172MOL0     C22582   7.604   2.364   1.312 -0.1717  0.3651  1.0468
  172MOL0     C22583   7.696   2.276   1.407  0.0517 -0.4572 -0.5197
  172MOL0     C22584   7.690   2.313   1.550  0.6183 -0.2400 -0.1072
  172MOL0     C22585   7.741   2.201   1.649  0.9341 -0.1166  0.5360
  172MOL0     C22586   7.745   2.226   1.795 -0.0965  1.0112  0.1414
  172MOL0     C22587   7.754   2.095   1.874 -0.4332  0.2204 -0.2193
  172MOL0     C22588   7.724   2.136   2.019 -0.0968  0.8894 -0.4172
  172MOL0     N22589   7.751   2.034   2.118 -0.1020 -0.5188  0.5074
  172MOL0     C22590   7.732   1.904   2.105  0.9566 -0.2409  0.2332
  172MOL0     C22591   7.771   1.853   2.216 -0.4270  0.8028 -0.1151
  172MOL0     C22592   7.798   1.710   2.229 -0.2564  0.4854 -0.2177
  172MOL0     C22593   7.805   1.665   2.379  0.0880  0.4729  0.1938
  172MOL0     C22594   7.879   1.532   2.390 -0.3411 -0.5529  0.5685
  172MOL0     C22595   7.845   1.432   2.504  0.5302  0.4027 -0.3350
  172MOL0     O22596   7.939   1.324   2.518 -0.8171 -0.1309 -0.0063
  172MOL0     C22597   7.954   1.215   2.437 -0.1538  0.1621 -0.6924
  172MOL0     C22598   8.062   1.133   2.464 -0.0946 -0.6812 -0.5499
  172MOL0     C22599   8.108   1.034   2.381 -0.3031  0.0768  0.4109
  172MOL0     C22600   8.020   1.005   2.279 -0.3293 -0.0559  0.0059
  172MOL0     C22601   8.069   0.904   2.179 -0.6624 -0.5615 -0.6733
  172MOL0     O22602   7.969   0.811   2.137 -0.0536  0.4867  0.7625
  172MOL0     C22603   8.008   0.714   2.046  0.0362 -0.1746  0.3054
  172MOL0     C22604   7.964   0.585   2.062 -0.2178  0.0443 -0.4937
  172MOL0     C22605   8.002   0.473   1.979  0.5945  0.3977 -0.1739
  172MOL0     C22606   8.082   0.493   1.866  0.6351  0.2241  0.1442
  172MOL0     O22607   8.112   0.386   1.784  0.3170  0.0642  0.5709
  172MOL0     C22608   8.234   0.392   1.709 -0.5970  0.8668  0.5728
  172MOL0     C22609   8.265   0.270   1.640 -0.2583  0.5105  0.0277
  172MOL0     C22610   8.249   0.135   1.717 -0.5120 -0.4625  1.1482
  172MOL0     C22611   8.304   0.014   1.641  0.3661  0.5495  0.2492
  172MOL0     C22612   8.451  -0.000   1.614 -0.1383 -0.2307 -0.3734
  172MOL0     C22613   8.492  -0.087   1.486  0.4763 -0.9006  0.5601
  172MOL0     C22614   8.407  -0.054   1.354 -0.6160 -0.3118 -0.4038
  172MOL0     C22615   8.511  -0.082   1.236 -0.0021 -0.6620 -1.2009
  172MOL0    Cl22616   8.590  -0.242   1.250 -0.1836  0.2230 -0.2299
  172MOL0     C22617   8.132   0.621   1.849 -0.3132  0.8023  0.1235
  172MOL0     C22618   8.084   0.732   1.925 -0.7578 -0.1300 -0.1933
  172MOL0     O22619   8.191   0.912   2.153  0.2913  0.4242 -0.0122
  172MOL0     C22620   7.893   1.074   2.266 -0.5043  0.1816 -1.3994
  172MOL0     C22621   7.854   1.182   2.351  0.3124 -0.6741  0.0244
  172MOL0     N22622   7.820   1.949   2.305  0.2529  0.0488 -0.0732
  172MOL0     N22623   7.801   2.053   2.238  0.2563 -0.1770  0.2613
  172MOL0     C22624   7.905   2.650   1.339  0.6516  0.0825  0.1927
  172MOL0     C22625   7.974   2.773   1.352 -0.6081  0.3604 -0.6211
  172MOL0     C22626   8.150   3.198   1.210  1.0337 -0.1849 -0.0769
  172MOL0     C22627   8.096   3.276   1.312 -0.5960  0.4714 -0.2259
  172MOL0     C22628   8.155   3.391   1.360  0.2800 -0.5701  0.3576
  172MOL0     C22629   8.246   3.457   1.284  0.0268  0.7092  0.0577
  172MOL0     O22630   8.306   3.575   1.315  0.0266 -0.0687  0.7983
  172MOL0     C22631   8.336   3.607   1.457  0.4615  1.0911  0.1311
  172MOL0     C22632   8.441   3.506   1.523  0.5527  0.2265 -0.1424
  172MOL0     C22633   8.486   3.549   1.671  0.1909 -0.3437  0.6175
  172MOL0     C22634   8.636   3.560   1.691 -0.7601 -0.8176 -0.3242
  172MOL0     C22635   8.665   3.571   1.836 -0.1425  0.1119 -0.8243
  172MOL0     C22636   8.687   3.576   1.955  0.0578  0.9975 -0.3896
  172MOL0     C22637   8.299   3.391   1.172 -1.1460  0.5617 -0.6565
  172MOL0     C22638   8.265   3.265   1.136  1.0247 -0.0489  0.8112
  172MOL0     H22639   7.983   2.846   1.025 -1.5046  0.4501 -0.0919
  172MOL0     H22640   7.871   2.634   1.007  3.1520 -1.6052 -1.4138
  172MOL0     H22641   7.602   2.541   1.178 -1.8631  2.1495  1.7843
  172MOL0     H22642   7.660   2.560   1.341 -1.7620  0.7457 -0.7494
  172MOL0     H22643   7.564   2.309   1.226 -0.0985  2.2743 -0.2669
  172MOL0     H22644   7.519   2.393   1.374 -2.7563 -1.8226 -1.2035
  172MOL0     H22645   7.801   2.284   1.375 -0.5360  2.0378 -2.1479
  172MOL0     H22646   7.652   2.177   1.393  0.1937 -0.7850  1.1571
  172MOL0     H22647   7.751   2.401   1.570  2.4258 -1.5246  0.3045
  172MOL0     H22648   7.585   2.338   1.566  1.6497  4.2782  1.0108
  172MOL0     H22649   7.842   2.172   1.619  0.3261 -0.3788 -1.3734
  172MOL0     H22650   7.665   2.127   1.623  0.0002  0.7417  0.7355
  172MOL0     H22651   7.643   2.260   1.815 -0.8172 -0.4481 -0.9033
  172MOL0     H22652   7.816   2.303   1.824 -0.4447  0.7335  1.8221
  172MOL0     H22653   7.681   2.021   1.841 -0.0558 -0.8450  1.2243
  172MOL0     H22654   7.857   2.066   1.852 -0.0256  0.1633  1.5857
  172MOL0     H22655   7.622   2.175   2.030  0.7876  2.6389  2.7182
  172MOL0     H22656   7.788   2.220   2.046  3.0087 -2.0862  2.3514
  172MOL0     H22657   7.693   1.848   2.021 -0.0588 -0.4553  0.8337
  172MOL0     H22658   7.895   1.706   2.179  1.3722 -1.9957  2.8072
  172MOL0     H22659   7.723   1.646   2.181 -0.9709 -0.9414  2.5932
  172MOL0     H22660   7.706   1.646   2.419  0.9874  2.4217  3.7811
  172MOL0     H22661   7.837   1.745   2.446 -0.6052 -0.3509  1.5534
  172MOL0     H22662   7.877   1.468   2.301  0.1697 -2.6363  1.9710
  172MOL0     H22663   7.980   1.573   2.400 -1.4397  2.4640  0.3159
  172MOL0     H22664   7.741   1.400   2.498 -0.2947  3.0878 -2.0370
  172MOL0     H22665   7.855   1.484   2.599  0.0866 -1.6422  0.8812
  172MOL0     H22666   8.110   1.163   2.557 -2.0130  0.3039  0.1567
  172MOL0     H22667   8.206   0.990   2.391 -1.4057 -2.4222  0.8142
  172MOL0     H22668   7.910   0.553   2.151  0.7427  2.2065  0.9778
  172MOL0     H22669   7.978   0.369   1.999 -0.0596  0.4712 -0.5234
  172MOL0     H22670   8.320   0.425   1.769  0.9925 -1.2671 -0.3996
  172MOL0     H22671   8.234   0.458   1.622  2.5956 -0.8308 -0.8727
  172MOL0     H22672   8.365   0.266   1.597  0.3880 -3.3385  1.5686
  172MOL0     H22673   8.194   0.269   1.556  1.6998 -2.0600 -1.7508
  172MOL0     H22674   8.144   0.110   1.734 -1.4596  0.7338 -2.2536
  172MOL0     H22675   8.301   0.143   1.813  0.1341  1.5201  0.6772
  172MOL0     H22676   8.260  -0.080   1.676 -3.3956  1.9901 -0.2341
  172MOL0     H22677   8.245   0.023   1.549  1.1346 -1.2923 -0.4824
  172MOL0     H22678   8.488  -0.051   1.703 -2.4792 -0.9312  0.2637
  172MOL0     H22679   8.489   0.101   1.593 -1.1113 -0.0869 -1.5833
  172MOL0     H22680   8.482  -0.192   1.515  0.4190 -0.7989  0.9187
  172MOL0     H22681   8.599  -0.083   1.468  0.4988  1.7250  0.9014
  172MOL0     H22682   8.313  -0.110   1.353 -0.1690 -1.0895 -1.5525
  172MOL0     H22683   8.376   0.051   1.353  0.5162  0.0515  0.5668
  172MOL0     H22684   8.593  -0.011   1.248  1.4008 -2.2582 -1.0759
  172MOL0     H22685   8.456  -0.075   1.142 -1.7057 -0.3892 -0.2266
  172MOL0     H22686   8.202   0.639   1.768 -1.4807  0.2184 -1.0475
  172MOL0     H22687   8.110   0.830   1.884  1.4268 -1.6638 -2.8216
  172MOL0     H22688   7.830   1.046   2.182  1.3321 -0.1133 -2.7309
  172MOL0     H22689   7.765   1.243   2.337  1.3555  1.7143  2.6606
  172MOL0     H22690   7.885   2.592   1.428  2.8725  1.6722  1.8529
  172MOL0     H22691   7.990   2.810   1.453  0.0814 -1.8746  0.1531
  172MOL0     H22692   8.020   3.221   1.367  0.6349 -1.5799 -0.4785
  172MOL0     H22693   8.126   3.442   1.451  2.6925  1.9236 -0.1398
  172MOL0     H22694   8.245   3.607   1.518  1.8401 -1.7561  2.4090
  172MOL0     H22695   8.382   3.706   1.471  2.9771 -0.3252  2.9971
  172MOL0     H22696   8.394   3.408   1.513 -0.7134  0.7691  0.3382
  172MOL0     H22697   8.531   3.494   1.462 -0.4258 -1.3745 -1.3487
  172MOL0     H22698   8.457   3.462   1.731  2.4787 -2.0532 -0.5817
  172MOL0     H22699   8.445   3.646   1.701 -1.1351 -1.1510  1.5138
  172MOL0     H22700   8.682   3.469   1.652 -0.1342 -0.7681  0.3017
  172MOL0     H22701   8.669   3.638   1.622 -0.1768 -0.3530  0.4665
  172MOL0     H22702   8.704   3.594   2.059  0.6839 -3.3490  0.4248
  172MOL0     H22703   8.381   3.450   1.133 -1.0005  1.7131  1.2615
  172MOL0     H22704   8.315   3.218   1.052  3.0279  0.5375  1.6133
  173MOL0     O22705   5.453  10.151   2.228  0.0853 -0.5978 -0.6888
  173MOL0     C22706   5.518  10.135   2.129 -0.2009 -0.0376 -0.3964
  173MOL0     O22707   5.645  10.198   2.099  1.0671 -0.7569  0.2347
  173MOL0     C22708   5.680  10.292   2.186 -0.6346 -0.2523 -0.2829
  173MOL0     C22709   5.713  10.248   2.325  0.2006  0.2413  0.3636
  173MOL0     C22710   5.734  10.351   2.416 -0.7351 -0.1045 -0.2666
  173MOL0     C22711   5.728  10.487   2.383  0.3869 -0.2193  0.8132
  173MOL0     O22712   5.750  10.583   2.486 -0.1414 -0.0397 -0.3912
  173MOL0     C22713   5.783  10.718   2.440  0.4900  0.7007 -0.7445
  173MOL0     C22714   5.813  10.809   2.565 -1.3508 -0.9108 -0.0740
  173MOL0     C22715   5.695  10.853   2.646 -0.2529 -0.9093  0.2609
  173MOL0     C22716   5.737  10.940   2.768  0.3219  0.3677  0.4060
  173MOL0     C22717   5.621  10.961   2.868 -0.0103  0.3229 -0.5173
  173MOL0     C22718   5.645  11.057   2.989  0.1205 -1.0876  0.8797
  173MOL0     C22719   5.512  11.091   3.060  0.2449 -0.2057  0.3054
  173MOL0     C22720   5.428  11.204   2.987 -0.2653  0.2430 -0.8576
  173MOL0     N22721   5.310  11.211   3.068 -1.1677 -0.1981  0.0990
  173MOL0     C22722   5.303  11.286   3.191  0.1232 -0.0488  0.0783
  173MOL0     C22723   5.169  11.309   3.207  0.8615 -0.1095 -0.0331
  173MOL0     C22724   5.085  11.375   3.319 -0.6059 -0.5187  0.6879
  173MOL0     C22725   5.130  11.513   3.339 -0.3880 -0.0156 -0.5928
  173MOL0     C22726   5.018  11.614   3.409  0.2206 -0.1426 -0.6460
  173MOL0     C22727   4.975  11.578   3.550  0.0972  0.7313 -0.0764
  173MOL0     O22728   5.062  11.627   3.652  0.6348  0.3451  0.6965
  173MOL0     C22729   5.046  11.563   3.770 -0.2937  0.9615 -0.1026
  173MOL0     C22730   4.926  11.528   3.829  0.3434  0.3219 -0.7169
  173MOL0     C22731   4.915  11.473   3.955  0.7204 -0.9945 -0.7202
  173MOL0     C22732   5.026  11.445   4.033 -0.6702  0.4992  0.8018
  173MOL0     C22733   5.020  11.394   4.167  0.2584  0.4771 -0.5246
  173MOL0     O22734   4.891  11.391   4.224 -0.0692 -0.5337 -0.6504
  173MOL0     C22735   4.876  11.348   4.354 -0.1111  0.2075  0.0743
  173MOL0     C22736   4.959  11.264   4.432 -0.0705  0.2026 -0.1370
  173MOL0     C22737   4.929  11.229   4.562  0.0933  1.2677  0.0253
  173MOL0     C22738   4.805  11.262   4.620 -0.6169 -0.2890  0.0461
  173MOL0     O22739   4.779  11.228   4.755 -0.2764  0.2359  0.5717
  173MOL0     C22740   4.689  11.313   4.818  0.2652 -0.4143  1.0995
  173MOL0     C22741   4.692  11.271   4.959  0.7800 -0.2659 -0.4644
  173MOL0     C22742   4.664  11.114   4.974 -0.0249 -0.0079  0.0857
  173MOL0     C22743   4.669  11.081   5.125  0.4017 -1.0041  0.0297
  173MOL0     C22744   4.759  10.957   5.156 -0.2454  0.4096  0.7199
  173MOL0     C22745   4.764  10.917   5.305  0.1095  0.6392  0.6537
  173MOL0     C22746   4.626  10.869   5.360  0.4730  0.4131 -0.6756
  173MOL0     C22747   4.638  10.781   5.484  0.3911  0.7572 -0.4431
  173MOL0    Cl22748   4.645  10.617   5.426  0.3224  0.6124  0.0421
  173MOL0     C22749   4.725  11.345   4.537 -0.1445 -0.3893  0.1808
  173MOL0     C22750   4.761  11.387   4.414  0.8609 -0.6394 -0.3241
  173MOL0     O22751   5.123  11.372   4.228  0.3006 -0.0589 -0.9972
  173MOL0     C22752   5.151  11.488   3.977 -0.5775 -0.2304  0.3801
  173MOL0     C22753   5.164  11.552   3.853 -0.1957  0.9440  0.4443
  173MOL0     N22754   5.092  11.250   3.101 -1.0446  0.7932  0.2777
  173MOL0     N22755   5.187  11.218   3.014  0.4876  0.4413  0.1917
  173MOL0     C22756   5.715  10.531   2.250  0.1328 -0.4366 -0.8810
  173MOL0     C22757   5.689  10.429   2.154  0.2788  0.0022 -0.0234
  173MOL0     C22758   5.467  10.032   2.034 -0.3542  0.4076  0.1649
  173MOL0     C22759   5.546   9.999   1.920 -0.5325 -0.2725  0.7163
  173MOL0     C22760   5.518   9.894   1.836  0.0481 -0.0702 -0.1964
  173MOL0     C22761   5.405   9.812   1.863  0.8224  0.2295 -0.8403
  173MOL0     O22762   5.376   9.694   1.803 -0.2286  0.1872  0.2291
  173MOL0     C22763   5.465   9.645   1.702 -0.6113  0.4140  0.2272
  173MOL0     C22764   5.411   9.521   1.630  0.0827  0.3742  0.8673
  173MOL0     C22765   5.362   9.412   1.725 -0.7750  0.0215 -0.4205
  173MOL0     C22766   5.462   9.384   1.832 -0.2879 -0.3279 -0.1520
  173MOL0     C22767   5.425   9.295   1.937 -0.0741 -0.2475  0.0398
  173MOL0     C22768   5.405   9.237   2.039 -0.0120 -0.4161 -0.1117
  173MOL0     C22769   5.318   9.850   1.969  0.1362 -0.1259  0.7807
  173MOL0     C22770   5.352   9.964   2.049  0.3963  1.1957  0.2456
  173MOL0     H22771   5.715  10.143   2.351  1.7138  0.2366  0.3138
  173MOL0     H22772   5.761  10.325   2.518  1.3933 -0.4777 -0.8799
  173MOL0     H22773   5.703  10.772   2.389  0.8638  0.5757 -1.4781
  173MOL0     H22774   5.874  10.722   2.380  3.0499 -2.1884  2.4846
  173MOL0     H22775   5.861  10.901   2.529 -1.1336 -0.4654  1.3010
  173MOL0     H22776   5.889  10.764   2.629 -2.9900 -3.5822  0.1521
  173MOL0     H22777   5.634  10.771   2.686 -0.6376 -0.5891  0.3356
  173MOL0     H22778   5.634  10.905   2.572  3.6821  1.1620 -1.8320
  173MOL0     H22779   5.825  10.899   2.817  1.6490  0.3333 -1.9048
  173MOL0     H22780   5.767  11.039   2.733  0.7815 -0.1610 -0.7252
  173MOL0     H22781   5.599  10.862   2.909  3.6641 -2.0101 -3.5418
  173MOL0     H22782   5.533  10.990   2.811 -0.8515  0.1511  0.6615
  173MOL0     H22783   5.703  11.140   2.948  1.5545 -0.0983  4.4953
  173MOL0     H22784   5.703  11.005   3.066  0.4602 -1.8009  0.1423
  173MOL0     H22785   5.457  10.997   3.057  2.0665 -1.3349  0.7133
  173MOL0     H22786   5.531  11.135   3.159  1.1598  1.3028 -0.5047
  173MOL0     H22787   5.407  11.171   2.885  1.0554 -3.6625 -0.0390
  173MOL0     H22788   5.481  11.298   3.001 -0.9989  0.2299  3.5075
  173MOL0     H22789   5.391  11.317   3.246  2.9198  0.2601 -4.0680
  173MOL0     H22790   5.097  11.303   3.401 -0.9567 -3.1089 -1.4027
  173MOL0     H22791   4.978  11.384   3.297  0.3211  2.7791 -3.7530
  173MOL0     H22792   5.150  11.568   3.247 -1.1157  2.0701  0.4277
  173MOL0     H22793   5.218  11.508   3.404 -1.8454 -3.3704  1.3428
  173MOL0     H22794   5.054  11.717   3.396  3.6845 -1.4314 -2.4861
  173MOL0     H22795   4.927  11.606   3.348 -0.7888 -1.3326  0.9287
  173MOL0     H22796   4.983  11.469   3.551 -0.3385  0.6856 -0.9273
  173MOL0     H22797   4.871  11.608   3.564  0.0912  0.1124  1.3983
  173MOL0     H22798   4.828  11.542   3.785 -0.0903 -0.4077  0.0073
  173MOL0     H22799   4.821  11.448   4.003  0.3009  1.3471 -0.2235
  173MOL0     H22800   5.053  11.222   4.400  1.6768  2.5819  1.5208
  173MOL0     H22801   4.989  11.170   4.630 -1.6977  0.2841  0.7982
  173MOL0     H22802   4.592  11.289   4.773  0.8038 -3.7757  1.5200
  173MOL0     H22803   4.708  11.421   4.812 -0.4617 -0.3377 -0.5293
  173MOL0     H22804   4.608  11.328   4.999 -2.7564 -2.9332 -3.2924
  173MOL0     H22805   4.791  11.300   4.994  1.2366 -0.9313 -1.1838
  173MOL0     H22806   4.744  11.057   4.925 -0.2473 -0.4794  0.2643
  173MOL0     H22807   4.568  11.079   4.936  0.0991  0.5306 -0.7525
  173MOL0     H22808   4.730  11.159   5.171 -1.3762  2.6840 -3.3188
  173MOL0     H22809   4.569  11.069   5.169 -0.4372  2.9914 -0.4847
  173MOL0     H22810   4.864  10.976   5.133  0.5757 -2.6891  1.3451
  173MOL0     H22811   4.726  10.869   5.101 -2.9671  2.1750 -0.6949
  173MOL0     H22812   4.793  11.002   5.368  0.7247  1.3710 -0.5636
  173MOL0     H22813   4.847  10.846   5.309 -1.1820 -1.1771 -1.7883
  173MOL0     H22814   4.562  10.944   5.409 -0.6760 -2.5652  2.8942
  173MOL0     H22815   4.569  10.817   5.283 -0.4177  1.4340 -0.7241
  173MOL0     H22816   4.548  10.789   5.545 -1.3923 -2.0485 -2.4219
  173MOL0     H22817   4.727  10.800   5.544  2.0839 -0.4563 -2.4021
  173MOL0     H22818   4.632  11.386   4.575  0.4595  2.3991 -1.1231
  173MOL0     H22819   4.705  11.458   4.353  0.8881 -1.5081 -1.4108
  173MOL0     H22820   5.239  11.474   4.038 -0.5177 -2.0075 -0.0430
  173MOL0     H22821   5.256  11.591   3.811 -1.5686  2.0092 -1.7409
  173MOL0     H22822   5.722  10.636   2.224 -3.2155  0.1855  0.2204
  173MOL0     H22823   5.682  10.460   2.050  2.4109  2.1412  0.3629
  173MOL0     H22824   5.635  10.059   1.902 -0.8610  0.4607  1.5118
  173MOL0     H22825   5.591   9.865   1.761  1.8966  0.7524  1.2158
  173MOL0     H22826   5.568   9.626   1.735 -1.7580 -2.7232  2.5152
  173MOL0     H22827   5.479   9.716   1.620  1.7363 -1.3104 -1.0152
  173MOL0     H22828   5.321   9.538   1.570 -1.7204 -1.3258  2.9112
  173MOL0     H22829   5.496   9.490   1.569  0.7856  0.7854  1.6227
  173MOL0     H22830   5.318   9.325   1.676 -0.2655  0.8781 -2.4792
  173MOL0     H22831   5.274   9.458   1.771  1.1020  2.6759  0.7863
  173MOL0     H22832   5.547   9.354   1.770 -1.4115  1.1715 -2.6079
  173MOL0     H22833   5.487   9.474   1.888 -1.4571  0.2086 -0.4453
  173MOL0     H22834   5.363   9.187   2.125 -0.5086 -3.8554 -2.1771
  173MOL0     H22835   5.219   9.807   1.980 -0.5801  1.1889 -0.3146
  173MOL0     H22836   5.283   9.992   2.128 -0.9779 -0.3735 -0.3448
  174MOL0     O22837   1.499  10.263   2.256  0.0918  0.0604 -0.6986
  174MOL0     C22838   1.393  10.323   2.278  0.3130  0.0694 -0.2932
  174MOL0     O22839   1.298  10.308   2.387 -0.0656 -0.1273  0.0320
  174MOL0     C22840   1.294  10.203   2.475 -0.2802 -0.3991 -0.5835
  174MOL0     C22841   1.194  10.229   2.568 -0.0755  0.0309  0.8189
  174MOL0     C22842   1.164  10.121   2.655 -0.3200 -0.5248  0.0535
  174MOL0     C22843   1.239  10.005   2.656  0.0263 -0.6193  0.4919
  174MOL0     O22844   1.191   9.926   2.760 -0.3963  0.1863  1.1128
  174MOL0     C22845   1.264   9.804   2.770  0.5206  0.3506 -1.1562
  174MOL0     C22846   1.176   9.703   2.700 -0.2742  0.0807 -0.4722
  174MOL0     C22847   1.046   9.665   2.769  0.0476 -0.6218  0.5230
  174MOL0     C22848   0.951   9.564   2.699 -0.7497 -0.2396 -0.1739
  174MOL0     C22849   0.840   9.515   2.796 -0.4985 -1.3630  0.2186
  174MOL0     C22850   0.766   9.399   2.748 -0.0554 -0.6326  0.6403
  174MOL0     C22851   0.680   9.421   2.625 -1.1116 -0.4494 -0.6042
  174MOL0     C22852   0.643   9.280   2.580 -0.1207  0.1918  0.0054
  174MOL0     N22853   0.525   9.258   2.493 -0.1126  0.1572  0.0849
  174MOL0     C22854   0.435   9.355   2.458 -0.2021  0.2001  0.1120
  174MOL0     C22855   0.361   9.308   2.351  0.4245  0.2277  0.3411
  174MOL0     C22856   0.238   9.375   2.293  0.8522 -0.4246 -0.3212
  174MOL0     C22857   0.108   9.311   2.347 -0.6182  0.0037 -0.1514
  174MOL0     C22858   0.111   9.153   2.312 -0.7496 -0.9580 -0.5659
  174MOL0     C22859  -0.016   9.074   2.333  0.9078 -0.2431  0.2411
  174MOL0     O22860  -0.050   9.069   2.469 -0.1285 -0.2497  1.0130
  174MOL0     C22861  -0.163   9.000   2.492  0.4221 -0.4855  0.3216
  174MOL0     C22862  -0.188   8.966   2.621 -0.1169  0.1384  0.4045
  174MOL0     C22863  -0.297   8.884   2.648 -0.7817  0.6588 -0.0783
  174MOL0     C22864  -0.393   8.836   2.562  0.7257 -1.4674  1.2183
  174MOL0     C22865  -0.508   8.752   2.602  0.1146 -0.8748  0.8305
  174MOL0     O22866  -0.581   8.695   2.498 -1.0218  0.2699  0.0661
  174MOL0     C22867  -0.696   8.627   2.525  0.2381  0.0754 -0.3202
  174MOL0     C22868  -0.786   8.665   2.632  0.9672  0.6441 -1.0319
  174MOL0     C22869  -0.917   8.612   2.628 -0.7609  0.4221 -0.3011
  174MOL0     C22870  -0.952   8.515   2.533  0.1633 -0.3107  0.2734
  174MOL0     O22871  -1.070   8.448   2.526 -0.6058  0.0630 -0.2554
  174MOL0     C22872  -1.141   8.438   2.652 -1.0578 -0.4884 -0.6121
  174MOL0     C22873  -1.261   8.348   2.637 -0.5191 -0.3043 -0.0596
  174MOL0     C22874  -1.339   8.337   2.771 -0.4952  0.5664  0.4290
  174MOL0     C22875  -1.267   8.287   2.898 -1.2407  1.3832  0.1342
  174MOL0     C22876  -1.265   8.131   2.891  0.9509 -1.1726  0.2556
  174MOL0     C22877  -1.240   8.080   3.040  0.7236  0.4604  0.5108
  174MOL0     C22878  -1.114   8.110   3.121  0.6669  1.0148  0.5165
  174MOL0     C22879  -1.147   8.191   3.247  0.6271 -0.1318 -0.0041
  174MOL0    Cl22880  -1.248   8.098   3.352  0.0451  0.2471 -0.4029
  174MOL0     C22881  -0.868   8.488   2.429 -0.6298  0.0098 -0.0623
  174MOL0     C22882  -0.740   8.538   2.423  0.3766 -0.6493  0.5309
  174MOL0     O22883  -0.507   8.720   2.719  0.5082 -0.4845 -0.5463
  174MOL0     C22884  -0.376   8.891   2.432 -0.5854  0.3603  0.7388
  174MOL0     C22885  -0.266   8.971   2.396 -1.1987  0.1985  0.3886
  174MOL0     N22886   0.411   9.184   2.320 -0.2072 -1.5087  0.0709
  174MOL0     N22887   0.507   9.154   2.397 -1.0898 -0.5825  0.4423
  174MOL0     C22888   1.351   9.987   2.571 -0.2506 -0.8783  1.0841
  174MOL0     C22889   1.382  10.091   2.480 -0.0779  0.2116  0.2247
  174MOL0     C22890   1.367  10.434   2.185  0.5567 -0.1917  0.3938
  174MOL0     C22891   1.470  10.481   2.100 -0.4577  0.7001 -1.1213
  174MOL0     C22892   1.462  10.604   2.021  0.0987 -0.5748 -0.5931
  174MOL0     C22893   1.340  10.673   2.027  0.4193 -0.6993  0.3474
  174MOL0     O22894   1.338  10.796   1.977 -0.3208 -0.8925  0.0864
  174MOL0     C22895   1.281  10.808   1.848  0.2745  0.3155 -0.2919
  174MOL0     C22896   1.328  10.943   1.778  0.1724  0.2352  0.4603
  174MOL0     C22897   1.471  10.950   1.754 -0.2030  0.3776 -1.9218
  174MOL0     C22898   1.508  11.041   1.641  1.0324 -0.8616 -0.1429
  174MOL0     C22899   1.470  11.177   1.672 -0.2990  0.2635  0.5479
  174MOL0     C22900   1.452  11.280   1.726 -0.3809 -0.3370  0.2221
  174MOL0     C22901   1.239  10.630   2.102 -0.3123 -0.4176 -0.2476
  174MOL0     C22902   1.249  10.512   2.182 -1.4664 -0.3396 -0.4944
  174MOL0     H22903   1.152  10.327   2.586  0.5831  0.8183 -1.5498
  174MOL0     H22904   1.092  10.137   2.735  2.2629 -3.3933  3.2604
  174MOL0     H22905   1.278   9.786   2.877  0.6243  4.5049 -0.2913
  174MOL0     H22906   1.364   9.804   2.728  0.9751  3.1747 -0.2699
  174MOL0     H22907   1.226   9.606   2.694  0.7056  0.5306  0.0455
  174MOL0     H22908   1.153   9.729   2.596 -3.6662 -0.5647  0.0081
  174MOL0     H22909   0.986   9.753   2.793  0.6709  0.1316 -0.5684
  174MOL0     H22910   1.079   9.625   2.866  0.8607  1.5923  1.2195
  174MOL0     H22911   0.911   9.619   2.614 -2.1782  3.5575  2.6500
  174MOL0     H22912   1.027   9.491   2.668 -0.9781  0.0246 -1.3986
  174MOL0     H22913   0.784   9.603   2.829  0.5057 -0.6937  0.1941
  174MOL0     H22914   0.883   9.482   2.891 -1.9904 -2.8932  0.3993
  174MOL0     H22915   0.695   9.360   2.821  1.7530 -2.9992  1.2568
  174MOL0     H22916   0.852   9.336   2.724  1.1426 -0.1256  3.2747
  174MOL0     H22917   0.601   9.488   2.661  0.4918  0.4281  1.5476
  174MOL0     H22918   0.750   9.457   2.549  0.4040 -1.3656  0.2866
  174MOL0     H22919   0.609   9.218   2.663 -4.4114  0.3269 -1.4185
  174MOL0     H22920   0.723   9.241   2.515 -1.8775  0.5526 -2.5269
  174MOL0     H22921   0.399   9.434   2.524 -2.4374 -1.3351  0.8588
  174MOL0     H22922   0.235   9.362   2.184 -2.8041 -0.2189 -0.3812
  174MOL0     H22923   0.239   9.482   2.312 -3.6749 -0.7934  4.1129
  174MOL0     H22924   0.024   9.360   2.298  0.3150  1.1393 -0.6313
  174MOL0     H22925   0.094   9.310   2.456 -0.3257 -2.2657 -0.0797
  174MOL0     H22926   0.146   9.137   2.209 -0.4811 -1.4757 -0.3958
  174MOL0     H22927   0.180   9.100   2.377 -0.7706 -0.4669 -0.1364
  174MOL0     H22928  -0.006   8.970   2.302  2.4031  0.4867 -1.9566
  174MOL0     H22929  -0.092   9.129   2.277 -0.1201  0.0372  1.8256
  174MOL0     H22930  -0.124   9.000   2.702  0.0756  1.0016 -0.1011
  174MOL0     H22931  -0.303   8.860   2.753  1.1186 -1.9650 -0.4797
  174MOL0     H22932  -0.765   8.743   2.705  2.9189  0.9047 -1.8125
  174MOL0     H22933  -0.983   8.652   2.705  2.9991  3.6515  1.6251
  174MOL0     H22934  -1.172   8.532   2.699 -1.3466 -1.8326  2.0797
  174MOL0     H22935  -1.076   8.393   2.728 -1.5565  0.2466  0.2624
  174MOL0     H22936  -1.223   8.254   2.596  2.3035  1.2842 -1.3127
  174MOL0     H22937  -1.329   8.389   2.562  2.2254  0.1481 -2.4493
  174MOL0     H22938  -1.427   8.274   2.759 -1.7267  2.0353  1.4332
  174MOL0     H22939  -1.367   8.441   2.792 -0.8063  0.8802 -1.3278
  174MOL0     H22940  -1.163   8.322   2.909 -0.5546 -0.3748 -0.4481
  174MOL0     H22941  -1.321   8.325   2.986  1.5675  3.8385  0.9785
  174MOL0     H22942  -1.187   8.087   2.828 -0.0344 -0.9061 -1.1886
  174MOL0     H22943  -1.358   8.094   2.847 -0.1595  1.2292  0.4490
  174MOL0     H22944  -1.234   7.971   3.037 -0.0525  0.4385 -1.0628
  174MOL0     H22945  -1.330   8.093   3.102 -0.1916 -1.9721 -0.1636
  174MOL0     H22946  -1.077   8.019   3.169 -0.6868 -0.7517 -1.5816
  174MOL0     H22947  -1.037   8.160   3.063  1.3792  0.3087  0.8459
  174MOL0     H22948  -1.198   8.283   3.220 -2.5498 -1.5301  0.7555
  174MOL0     H22949  -1.054   8.206   3.303  0.2992  1.4094  0.1632
  174MOL0     H22950  -0.889   8.432   2.338 -0.9437 -1.8118  1.0855
  174MOL0     H22951  -0.667   8.531   2.343  0.9498  1.8259  0.7620
  174MOL0     H22952  -0.462   8.884   2.366 -0.5569 -2.2636  0.8760
  174MOL0     H22953  -0.249   8.985   2.290  2.1167 -1.6716  0.5348
  174MOL0     H22954   1.425   9.908   2.571 -0.5293 -1.1687 -0.0694
  174MOL0     H22955   1.446  10.085   2.393  0.5786  0.2721  0.6969
  174MOL0     H22956   1.564  10.426   2.098 -0.5127  0.5672 -0.3715
  174MOL0     H22957   1.537  10.647   1.955  2.1408  0.1595  2.0396
  174MOL0     H22958   1.173  10.807   1.863  0.3558  2.8802  0.9990
  174MOL0     H22959   1.309  10.720   1.789 -2.6614 -1.9843  1.4747
  174MOL0     H22960   1.278  10.933   1.681 -3.6903 -1.2756  2.3824
  174MOL0     H22961   1.292  11.029   1.836 -0.7209 -1.3943  2.4461
  174MOL0     H22962   1.499  10.849   1.723  1.8381  0.6333 -1.0951
  174MOL0     H22963   1.534  10.976   1.839 -1.8131  1.3990 -0.9804
  174MOL0     H22964   1.616  11.036   1.628  0.8782 -0.2141 -1.9492
  174MOL0     H22965   1.445  11.015   1.555  1.5119 -2.0805 -0.1331
  174MOL0     H22966   1.419  11.369   1.774  1.7544 -0.6470  2.4247
  174MOL0     H22967   1.144  10.683   2.108  1.4120  2.7345  1.0146
  174MOL0     H22968   1.171  10.468   2.243  1.1282 -1.4073  2.3300
  175MOL0     O22969   2.598   2.066   9.000  0.3308  0.1219  0.0532
  175MOL0     C22970   2.609   1.951   8.960 -1.0065  0.0178  0.7583
  175MOL0     O22971   2.733   1.893   8.929  0.9873  0.1111  0.6352
  175MOL0     C22972   2.845   1.968   8.942 -0.0582  0.1273  0.8708
  175MOL0     C22973   2.886   2.031   9.058 -0.1461  1.0101 -0.0806
  175MOL0     C22974   2.980   2.135   9.073  0.1521  0.2488  0.5096
  175MOL0     C22975   3.060   2.164   8.962 -0.0998 -0.3663 -0.0736
  175MOL0     O22976   3.147   2.267   8.978 -0.5865 -1.0488  0.0384
  175MOL0     C22977   3.205   2.312   8.858 -0.5109 -0.2170 -0.1298
  175MOL0     C22978   3.269   2.435   8.923  1.1219  0.2664  0.3057
  175MOL0     C22979   3.316   2.536   8.822  0.5920 -0.2853 -1.3952
  175MOL0     C22980   3.412   2.640   8.890 -0.4616 -1.2054  0.1123
  175MOL0     C22981   3.351   2.690   9.020  0.1607 -0.2830 -0.1837
  175MOL0     C22982   3.421   2.820   9.069 -0.2167 -0.1104  0.3985
  175MOL0     C22983   3.363   2.858   9.206  0.1116  0.4244  0.7335
  175MOL0     C22984   3.419   2.761   9.312  0.2703 -0.2491 -0.5420
  175MOL0     N22985   3.383   2.823   9.442 -0.8833 -0.4151 -0.1399
  175MOL0     C22986   3.263   2.828   9.512  0.3762  0.3348 -0.6800
  175MOL0     C22987   3.275   2.927   9.604 -0.2088 -0.5755  0.0351
  175MOL0     C22988   3.181   2.991   9.707  0.7836  0.4815  0.8354
  175MOL0     C22989   3.262   3.091   9.794  0.4618  0.6424 -0.7845
  175MOL0     C22990   3.177   3.141   9.916 -0.1037 -1.4579 -1.1763
  175MOL0     C22991   3.054   3.224   9.866 -0.3462  0.3166 -0.6774
  175MOL0     O22992   2.999   3.303   9.977  0.3130 -0.2624 -0.6526
  175MOL0     C22993   2.868   3.287  10.018 -0.5735 -1.3851 -0.2663
  175MOL0     C22994   2.835   3.338  10.146  0.1235 -0.3358  0.4633
  175MOL0     C22995   2.704   3.331  10.193 -0.3057 -1.1560 -0.5545
  175MOL0     C22996   2.595   3.290  10.111 -0.8919 -0.1627 -1.0483
  175MOL0     C22997   2.463   3.297  10.160 -0.3558 -0.0919  0.0505
  175MOL0     O22998   2.450   3.324  10.296 -0.0081  0.0199  0.5127
  175MOL0     C22999   2.321   3.317  10.351  0.2754 -0.6347 -0.6448
  175MOL0     C23000   2.200   3.250  10.305  0.2638 -0.4047  1.0048
  175MOL0     C23001   2.096   3.231  10.396  1.2646  0.3120 -0.3814
  175MOL0     C23002   2.093   3.276  10.523  0.2040 -0.0673  0.7753
  175MOL0     O23003   1.985   3.239  10.596  0.0623  0.4326 -0.1398
  175MOL0     C23004   1.934   3.337  10.684  0.8852 -0.1597 -1.1596
  175MOL0     C23005   1.791   3.295  10.718  0.6584  0.2812  0.8403
  175MOL0     C23006   1.708   3.225  10.603  0.5879  0.7915  0.3521
  175MOL0     C23007   1.568   3.194  10.639 -0.0039  1.0626  0.0544
  175MOL0     C23008   1.472   3.143  10.522  0.4316 -0.7675 -0.1022
  175MOL0     C23009   1.332   3.098  10.562  0.5617 -0.5337 -0.4514
  175MOL0     C23010   1.244   3.057  10.443  0.4185 -0.4328  0.2582
  175MOL0     C23011   1.267   2.921  10.382  0.6395 -0.5754  0.1048
  175MOL0    Cl23012   1.125   2.889  10.276 -0.0326  0.0131  0.0963
  175MOL0     C23013   2.205   3.344  10.567 -0.0912 -0.4708 -0.3043
  175MOL0     C23014   2.319   3.368  10.483  0.8043 -0.3310  0.8057
  175MOL0     O23015   2.372   3.297  10.076 -0.2607 -0.0104 -0.6361
  175MOL0     C23016   2.634   3.231   9.992  0.0461  0.5764 -0.1072
  175MOL0     C23017   2.767   3.235   9.948 -0.9775  0.2903  0.4579
  175MOL0     N23018   3.398   2.982   9.586 -0.6172 -0.0007  0.0904
  175MOL0     N23019   3.462   2.920   9.501 -0.1682  0.2093  0.5346
  175MOL0     C23020   3.034   2.083   8.839  0.4682  0.9071  0.3508
  175MOL0     C23021   2.920   1.999   8.828  0.3524 -0.2777 -0.0727
  175MOL0     C23022   2.488   1.867   8.934  0.3906  0.4999  0.7238
  175MOL0     C23023   2.500   1.734   8.910  0.7345  0.1189  0.2604
  175MOL0     C23024   2.383   1.662   8.887 -0.0031  0.1606  0.1766
  175MOL0     C23025   2.259   1.717   8.875 -0.4954  0.4543  0.1648
  175MOL0     O23026   2.139   1.662   8.833 -0.3068  0.9783  0.0879
  175MOL0     C23027   2.115   1.524   8.881 -0.7777  0.1077  0.1289
  175MOL0     C23028   1.964   1.510   8.925  0.8236 -0.0774  0.3709
  175MOL0     C23029   1.871   1.546   8.812  1.2294  0.3663  0.1780
  175MOL0     C23030   1.850   1.445   8.707 -0.7889 -0.2471  0.2081
  175MOL0     C23031   1.768   1.327   8.745  0.3055 -0.4671  0.1668
  175MOL0     C23032   1.685   1.237   8.738 -0.6296  0.6174  0.3368
  175MOL0     C23033   2.249   1.856   8.899  0.4379  0.2623 -0.9049
  175MOL0     C23034   2.366   1.933   8.924 -0.2232 -0.3293  0.1827
  175MOL0     H23035   2.812   2.019   9.137 -0.2062 -0.3484 -0.3226
  175MOL0     H23036   2.988   2.200   9.160  0.1381  0.9251  0.0181
  175MOL0     H23037   3.131   2.348   8.786 -1.6518 -3.6843 -0.8627
  175MOL0     H23038   3.282   2.245   8.817 -2.2756 -3.0663  0.9112
  175MOL0     H23039   3.353   2.410   8.988  2.8986 -1.6878 -2.4847
  175MOL0     H23040   3.196   2.486   8.986  0.3178 -0.5526  0.0718
  175MOL0     H23041   3.226   2.584   8.783  0.1848  0.3343  0.2317
  175MOL0     H23042   3.381   2.495   8.745  0.3979  1.3967 -2.5158
  175MOL0     H23043   3.506   2.591   8.914 -0.3692  0.3686  3.5802
  175MOL0     H23044   3.437   2.725   8.825 -0.8939  1.7631  3.5128
  175MOL0     H23045   3.373   2.613   9.094  3.7756  1.4075  0.6909
  175MOL0     H23046   3.243   2.701   9.004  0.3877 -0.9722 -2.5769
  175MOL0     H23047   3.400   2.884   8.983 -1.7405 -2.5475 -1.1677
  175MOL0     H23048   3.528   2.800   9.074  0.4316  3.1037  1.6159
  175MOL0     H23049   3.398   2.961   9.219  3.6202 -0.7526  1.7093
  175MOL0     H23050   3.255   2.857   9.185  0.7208 -1.5849 -3.2920
  175MOL0     H23051   3.526   2.754   9.292  0.4894 -0.0557  0.5123
  175MOL0     H23052   3.376   2.661   9.306 -1.1143  0.0291  2.5055
  175MOL0     H23053   3.169   2.782   9.483  0.4908  1.8956 -4.0909
  175MOL0     H23054   3.126   2.917   9.765 -1.3257 -0.8830 -2.5920
  175MOL0     H23055   3.108   3.041   9.643  0.9522  0.5260  0.6759
  175MOL0     H23056   3.281   3.181   9.735  0.8734  1.7205  0.9080
  175MOL0     H23057   3.353   3.044   9.833  0.5991  0.6377 -1.1088
  175MOL0     H23058   3.160   3.074  10.000  0.7618  0.5371  0.6802
  175MOL0     H23059   3.248   3.209   9.964 -4.1929  3.2968 -1.0458
  175MOL0     H23060   2.991   3.140   9.835 -1.3796  0.2019  1.4725
  175MOL0     H23061   3.078   3.293   9.785  4.7656  0.3149  0.5346
  175MOL0     H23062   2.921   3.364  10.206  3.0878 -3.1346 -2.1184
  175MOL0     H23063   2.698   3.368  10.295  1.2136 -0.5926 -0.6522
  175MOL0     H23064   2.192   3.201  10.209 -0.9293 -2.4036  2.0493
  175MOL0     H23065   2.005   3.184  10.362  1.2039  1.4953 -1.9873
  175MOL0     H23066   1.936   3.431  10.629 -0.1069  0.2981 -0.4398
  175MOL0     H23067   1.984   3.345  10.782 -2.2113 -0.1412  0.5481
  175MOL0     H23068   1.741   3.386  10.749  0.4132 -0.2072  1.9588
  175MOL0     H23069   1.789   3.226  10.803 -2.1798  0.8212  1.2973
  175MOL0     H23070   1.752   3.127  10.582 -1.6753 -0.0733 -0.6074
  175MOL0     H23071   1.710   3.292  10.516 -0.0653  1.5901  0.9428
  175MOL0     H23072   1.580   3.116  10.715 -0.9858 -1.0690 -1.8654
  175MOL0     H23073   1.530   3.282  10.692 -0.9089 -0.8444  2.7870
  175MOL0     H23074   1.519   3.055  10.478  1.8806 -1.1770  2.1235
  175MOL0     H23075   1.474   3.222  10.447 -0.1942  0.9548  1.5962
  175MOL0     H23076   1.281   3.181  10.613  0.7290 -0.5578 -0.2415
  175MOL0     H23077   1.332   3.019  10.637  1.9114 -0.6064 -0.5041
  175MOL0     H23078   1.137   3.064  10.462 -0.1881 -2.2045 -2.0984
  175MOL0     H23079   1.260   3.127  10.361 -1.2669 -1.5371 -1.0888
  175MOL0     H23080   1.270   2.843  10.458 -2.8430 -1.1132 -0.1910
  175MOL0     H23081   1.360   2.925  10.324  0.1867  4.4984 -0.7329
  175MOL0     H23082   2.187   3.401  10.657 -2.6292 -1.2242 -0.2567
  175MOL0     H23083   2.396   3.438  10.515 -0.9248  3.8933 -3.0401
  175MOL0     H23084   2.559   3.189   9.925  0.9966 -0.6875 -0.4313
  175MOL0     H23085   2.783   3.195   9.848  0.1719  0.8649  0.3986
  175MOL0     H23086   3.097   2.098   8.752 -1.7541  3.4714 -0.9793
  175MOL0     H23087   2.896   1.941   8.740 -3.1764 -3.2332  2.5578
  175MOL0     H23088   2.595   1.683   8.920  0.2120 -0.3326  5.9521
  175MOL0     H23089   2.402   1.557   8.866  0.3444  0.1833  0.3722
  175MOL0     H23090   2.185   1.507   8.963 -1.8714  3.4629  1.9440
  175MOL0     H23091   2.141   1.458   8.797  3.0106  0.0993  1.1170
  175MOL0     H23092   1.950   1.408   8.963  2.4655 -0.5898 -0.3184
  175MOL0     H23093   1.938   1.573   9.011  0.8265 -0.4373  0.6367
  175MOL0     H23094   1.908   1.632   8.756  1.8075 -0.7475 -1.2181
  175MOL0     H23095   1.776   1.577   8.857  0.7198 -3.0426  1.7954
  175MOL0     H23096   1.806   1.485   8.615 -0.0168  0.3853  0.1031
  175MOL0     H23097   1.945   1.395   8.684 -0.4004 -0.8030  2.8008
  175MOL0     H23098   1.614   1.158   8.748 -0.4726  0.1429 -1.8035
  175MOL0     H23099   2.151   1.902   8.894  0.8433  1.0545 -2.4362
  175MOL0     H23100   2.357   2.040   8.939  0.1361  0.7210 -5.1969
  176MOL0     O23101   9.612   1.756   2.566 -0.3210  0.1284  0.7504
  176MOL0     C23102   9.504   1.760   2.627  0.4934  0.2398 -0.0511
  176MOL0     O23103   9.381   1.758   2.573  0.7532 -1.3301 -0.5651
  176MOL0     C23104   9.354   1.752   2.445 -0.4253 -0.2791  0.6109
  176MOL0     C23105   9.445   1.782   2.335  0.4101  1.4486 -0.6155
  176MOL0     C23106   9.415   1.788   2.194 -0.2291  0.8348  0.5187
  176MOL0     C23107   9.288   1.747   2.161  0.7292 -0.5138  0.3370
  176MOL0     O23108   9.248   1.762   2.033 -0.4233  0.1069  0.2290
  176MOL0     C23109   9.310   1.674   1.943  0.2040  0.8640  0.2661
  176MOL0     C23110   9.228   1.547   1.908  0.8160  0.8124  0.3456
  176MOL0     C23111   9.074   1.562   1.886 -0.2348  0.3433 -0.1526
  176MOL0     C23112   9.038   1.560   1.746 -0.4275  0.1273  0.3874
  176MOL0     C23113   8.893   1.586   1.713 -0.5607 -0.9818 -0.1657
  176MOL0     C23114   8.860   1.595   1.567  1.0456  0.7537 -0.0984
  176MOL0     C23115   8.911   1.708   1.489 -0.4438 -1.1166 -0.9926
  176MOL0     C23116   8.837   1.842   1.529 -0.4358 -0.1251  0.1622
  176MOL0     N23117   8.696   1.836   1.488  0.3236 -0.9949  0.7634
  176MOL0     C23118   8.655   1.895   1.374  0.3782 -0.4250  1.7524
  176MOL0     C23119   8.518   1.875   1.381  0.3966  0.8330  0.0159
  176MOL0     C23120   8.426   1.913   1.269 -0.8525  0.5102  0.4862
  176MOL0     C23121   8.352   1.794   1.218  0.8084 -0.5365  0.3969
  176MOL0     C23122   8.226   1.840   1.137  0.4802 -0.4892 -0.0920
  176MOL0     C23123   8.113   1.733   1.138  0.1315 -0.1475  0.0701
  176MOL0     O23124   8.055   1.744   1.276 -1.1494 -0.1028 -0.0680
  176MOL0     C23125   7.925   1.750   1.307 -0.4532 -0.3858  0.6289
  176MOL0     C23126   7.895   1.787   1.436  0.7314  0.6236 -0.0188
  176MOL0     C23127   7.764   1.830   1.479 -0.4162 -1.1328 -0.2708
  176MOL0     C23128   7.662   1.818   1.392 -0.3098 -0.0044  0.3112
  176MOL0     C23129   7.527   1.858   1.430  0.5802 -0.1412 -0.3710
  176MOL0     O23130   7.490   1.853   1.552  0.6832  0.1861  0.2492
  176MOL0     C23131   7.351   1.850   1.576  0.7253  0.7663 -0.6788
  176MOL0     C23132   7.299   1.930   1.673 -1.1479  0.5683 -0.3911
  176MOL0     C23133   7.163   1.952   1.700 -0.0144  0.6814  0.2177
  176MOL0     C23134   7.066   1.882   1.628 -0.0163  0.3584  1.1577
  176MOL0     O23135   6.929   1.905   1.643 -0.0143  0.0946 -0.3389
  176MOL0     C23136   6.881   1.927   1.780  0.4188 -0.5298 -0.0798
  176MOL0     C23137   6.821   2.072   1.768 -0.0859  0.5867  0.2930
  176MOL0     C23138   6.829   2.146   1.903  0.2411  0.0929 -0.3887
  176MOL0     C23139   6.789   2.289   1.929 -0.5035  0.2522  0.5764
  176MOL0     C23140   6.794   2.331   2.080  1.0613 -0.7682  0.2763
  176MOL0     C23141   6.699   2.445   2.110  0.2712 -0.1648 -0.8344
  176MOL0     C23142   6.673   2.573   2.026 -1.1591  0.2730 -0.5217
  176MOL0     C23143   6.801   2.647   1.980 -0.2053  0.2646 -0.1430
  176MOL0    Cl23144   6.904   2.693   2.113 -0.1508  0.3550  0.2029
  176MOL0     C23145   7.117   1.786   1.536  0.4903  0.0108 -0.2724
  176MOL0     C23146   7.253   1.762   1.506 -0.7195 -0.5593  0.4015
  176MOL0     O23147   7.449   1.879   1.338  0.2968 -0.9251 -0.5475
  176MOL0     C23148   7.689   1.752   1.264 -0.6754 -0.6700  0.3770
  176MOL0     C23149   7.821   1.728   1.216  1.5239  0.5002  0.2339
  176MOL0     N23150   8.481   1.816   1.502  0.2849  0.6436  0.9168
  176MOL0     N23151   8.592   1.796   1.561  0.2085 -0.6364 -0.2088
  176MOL0     C23152   9.191   1.707   2.259  0.1215 -0.6781 -0.2433
  176MOL0     C23153   9.231   1.713   2.404 -0.0283  0.4204  0.3113
  176MOL0     C23154   9.508   1.798   2.766  0.1106  0.0035  0.0425
  176MOL0     C23155   9.389   1.807   2.844  0.9345 -0.3205 -0.6854
  176MOL0     C23156   9.392   1.841   2.979 -0.8231  0.0166  0.2935
  176MOL0     C23157   9.522   1.855   3.047  0.2795 -0.2871 -0.1513
  176MOL0     O23158   9.536   1.877   3.182 -0.1726 -0.3481  0.1196
  176MOL0     C23159   9.429   1.843   3.271  0.1927 -0.1658 -0.1320
  176MOL0     C23160   9.428   1.694   3.282  0.1958  0.3277 -0.4102
  176MOL0     C23161   9.575   1.632   3.282  0.6058 -0.1887  0.8281
  176MOL0     C23162   9.616   1.537   3.172  0.1965 -0.3501  0.2739
  176MOL0     C23163   9.759   1.500   3.179  0.5539  0.5162 -1.2987
  176MOL0     C23164   9.876   1.480   3.177 -0.3495 -0.4542  0.4039
  176MOL0     C23165   9.630   1.835   2.968 -1.0115  0.5348 -1.0108
  176MOL0     C23166   9.629   1.815   2.835 -0.5113  0.5200  1.1160
  176MOL0     H23167   9.546   1.813   2.359  0.2076  1.8865 -0.3285
  176MOL0     H23168   9.503   1.811   2.135  0.2892  1.1552  1.3927
  176MOL0     H23169   9.410   1.642   1.974 -0.3521 -0.0670  1.1842
  176MOL0     H23170   9.319   1.727   1.848 -2.2841  1.4059  0.2720
  176MOL0     H23171   9.239   1.464   1.978 -0.6397  0.8258  0.6055
  176MOL0     H23172   9.266   1.508   1.813  1.7525 -1.3155  1.5242
  176MOL0     H23173   9.037   1.652   1.935  0.0460  1.0776 -1.2622
  176MOL0     H23174   9.040   1.473   1.940  2.7325 -2.1769 -2.0516
  176MOL0     H23175   9.091   1.643   1.697 -1.4186  0.0935 -0.7961
  176MOL0     H23176   9.069   1.463   1.706 -1.8156 -1.0554  2.0466
  176MOL0     H23177   8.853   1.671   1.769  1.2531  0.7950 -1.3746
  176MOL0     H23178   8.840   1.499   1.751 -0.1932 -1.3109 -0.3978
  176MOL0     H23179   8.752   1.579   1.554  0.8418 -0.6452  2.6212
  176MOL0     H23180   8.908   1.507   1.522 -1.0096  0.5123 -1.9884
  176MOL0     H23181   9.015   1.728   1.516 -0.9571  2.8964 -1.3924
  176MOL0     H23182   8.900   1.696   1.381 -0.9472  1.6833 -1.3479
  176MOL0     H23183   8.880   1.932   1.484 -4.1255  0.7478 -2.0088
  176MOL0     H23184   8.834   1.846   1.639 -1.8367 -0.8738  0.1761
  176MOL0     H23185   8.703   1.930   1.283 -2.9343 -2.1538 -0.9052
  176MOL0     H23186   8.487   1.955   1.189  1.2292 -1.4521  0.9213
  176MOL0     H23187   8.368   1.996   1.309 -0.0072  1.9170 -1.0919
  176MOL0     H23188   8.305   1.757   1.311 -0.3166  4.1981  1.9927
  176MOL0     H23189   8.401   1.717   1.158 -0.4317 -0.3050 -0.9557
  176MOL0     H23190   8.186   1.938   1.166 -1.4777 -0.5154 -2.4200
  176MOL0     H23191   8.255   1.858   1.033 -2.4729  2.8104 -0.5205
  176MOL0     H23192   8.155   1.632   1.133  1.3548  0.3743 -0.5189
  176MOL0     H23193   8.052   1.750   1.049  2.6387 -3.1795 -2.5036
  176MOL0     H23194   7.977   1.783   1.506 -1.1005 -0.1855  2.2007
  176MOL0     H23195   7.765   1.863   1.583  0.7244  2.6259 -1.3221
  176MOL0     H23196   7.372   2.000   1.713  2.1458 -3.3274  1.1145
  176MOL0     H23197   7.139   2.032   1.769 -4.6347 -0.7938  0.6604
  176MOL0     H23198   6.953   1.930   1.862 -1.7113 -1.6789  1.9434
  176MOL0     H23199   6.807   1.858   1.819  2.8535 -2.9882  0.5183
  176MOL0     H23200   6.719   2.062   1.729 -0.0427 -1.2875  0.5764
  176MOL0     H23201   6.879   2.135   1.700 -0.7407 -0.4576 -1.2810
  176MOL0     H23202   6.929   2.128   1.943 -0.1932  0.2044  0.7957
  176MOL0     H23203   6.756   2.087   1.959  1.8249 -2.2378 -0.6536
  176MOL0     H23204   6.856   2.360   1.879  2.0379 -1.5392  1.2490
  176MOL0     H23205   6.690   2.292   1.882  0.2870 -2.9533 -1.5923
  176MOL0     H23206   6.888   2.380   2.108  1.2636 -0.9011 -0.1589
  176MOL0     H23207   6.778   2.249   2.151  0.1121  0.9363  2.1133
  176MOL0     H23208   6.734   2.486   2.205  1.3358  3.2375 -2.5584
  176MOL0     H23209   6.601   2.405   2.137  1.1565 -2.6313 -1.0027
  176MOL0     H23210   6.615   2.535   1.942 -1.9311 -0.4620  0.3158
  176MOL0     H23211   6.617   2.642   2.090 -0.9737  0.6266 -0.7381
  176MOL0     H23212   6.778   2.720   1.902  1.0914  1.0501  0.1630
  176MOL0     H23213   6.853   2.572   1.920 -2.0626 -1.0246 -0.2379
  176MOL0     H23214   7.047   1.720   1.485 -1.7304  0.2768  2.1954
  176MOL0     H23215   7.297   1.690   1.437  2.8480  1.3575  0.4414
  176MOL0     H23216   7.612   1.734   1.190 -0.1270 -0.8564 -0.1490
  176MOL0     H23217   7.835   1.691   1.115 -2.8397 -1.7902  0.2267
  176MOL0     H23218   9.095   1.665   2.230  0.4818 -2.7551  1.3055
  176MOL0     H23219   9.151   1.684   2.471  1.4379 -0.4287  1.7581
  176MOL0     H23220   9.290   1.797   2.801 -0.0860  4.4461  0.0397
  176MOL0     H23221   9.303   1.860   3.038 -0.7544 -1.1093  0.7772
  176MOL0     H23222   9.333   1.878   3.231 -0.6058  1.1278  2.5863
  176MOL0     H23223   9.454   1.887   3.368  3.0799 -0.9282 -0.4351
  176MOL0     H23224   9.388   1.668   3.380  4.2999  2.6724  2.1350
  176MOL0     H23225   9.361   1.651   3.206 -1.2423  2.7101 -0.6058
  176MOL0     H23226   9.576   1.584   3.380  1.8869 -0.8761  0.5057
  176MOL0     H23227   9.650   1.712   3.287  0.2939  0.0524  1.8531
  176MOL0     H23228   9.557   1.446   3.179  0.6575 -0.6672  0.1332
  176MOL0     H23229   9.609   1.572   3.068  1.3449 -0.9277 -0.0207
  176MOL0     H23230   9.974   1.438   3.171  0.7706  2.1678 -1.1030
  176MOL0     H23231   9.725   1.833   3.020  0.3860 -3.8281 -3.2399
  176MOL0     H23232   9.723   1.814   2.781 -0.8408  2.0703  0.4789
  177MOL0     O23233   0.729   8.151  10.690  0.2303  0.1366 -0.2423
  177MOL0     C23234   0.622   8.191  10.731 -0.5925 -0.0198  0.5330
  177MOL0     O23235   0.561   8.293  10.672  0.3747 -0.1766 -0.2028
  177MOL0     C23236   0.632   8.400  10.602 -0.0756 -0.2687 -0.2547
  177MOL0     C23237   0.564   8.469  10.506  0.1008 -0.4878  0.6103
  177MOL0     C23238   0.611   8.589  10.459  0.2073  0.4794 -0.5526
  177MOL0     C23239   0.742   8.634  10.493  0.4406 -0.1403  0.4411
  177MOL0     O23240   0.795   8.753  10.445  0.2302  0.2935  0.1464
  177MOL0     C23241   0.711   8.856  10.382 -0.1796 -0.2242 -0.5088
  177MOL0     C23242   0.621   8.920  10.493  0.3408  1.2381 -0.3538
  177MOL0     C23243   0.537   9.027  10.428 -0.1551  1.0659 -0.7800
  177MOL0     C23244   0.432   9.077  10.527  0.0587  0.5075 -0.1080
  177MOL0     C23245   0.350   9.195  10.471  0.1429 -0.2114  0.6248
  177MOL0     C23246   0.400   9.329  10.520  0.2449  0.3797 -0.4061
  177MOL0     C23247   0.295   9.442  10.493  0.0882  0.3429 -0.5635
  177MOL0     C23248   0.206   9.432  10.613  0.6451 -0.0605  0.6050
  177MOL0     N23249   0.081   9.507  10.587 -0.5705 -0.2326 -0.2628
  177MOL0     C23250   0.036   9.640  10.619 -0.3321  0.2323  0.2641
  177MOL0     C23251  -0.085   9.661  10.567 -0.3642 -0.4156  0.5196
  177MOL0     C23252  -0.168   9.786  10.545  0.2047 -1.5293  0.1844
  177MOL0     C23253  -0.085   9.925  10.543 -0.9306  0.5415 -0.1986
  177MOL0     C23254  -0.183  10.040  10.528  0.5797 -0.9629  0.4170
  177MOL0     C23255  -0.124  10.179  10.501  0.2587  0.1174 -0.2654
  177MOL0     O23256  -0.066  10.179  10.374  0.0714  0.1666  0.4869
  177MOL0     C23257  -0.052  10.303  10.317 -0.0593 -0.6053  0.5644
  177MOL0     C23258   0.013  10.307  10.190 -0.7408 -0.6805  0.0599
  177MOL0     C23259   0.058  10.427  10.138  0.4979  0.8868  0.7385
  177MOL0     C23260   0.026  10.548  10.196 -0.7384 -0.0333 -0.2310
  177MOL0     C23261   0.070  10.668  10.128  0.9073 -0.5859  0.7693
  177MOL0     O23262   0.035  10.794  10.171 -0.0300 -0.3834 -0.4517
  177MOL0     C23263   0.090  10.914  10.130  1.0945 -0.6423 -0.3266
  177MOL0     C23264   0.221  10.925  10.103 -0.4242  0.1898  1.0212
  177MOL0     C23265   0.270  11.045  10.054 -0.2415  0.3842  0.5014
  177MOL0     C23266   0.196  11.153  10.061 -0.3557  1.3865  0.3238
  177MOL0     O23267   0.249  11.266   9.999 -0.4109 -0.1364  0.3248
  177MOL0     C23268   0.204  11.392  10.036 -0.2778 -0.7156 -0.1206
  177MOL0     C23269   0.261  11.499   9.932  0.3185 -0.3183  0.0327
  177MOL0     C23270   0.415  11.466   9.910  1.3775 -0.9652 -0.8378
  177MOL0     C23271   0.485  11.464  10.040  1.0704  0.1564  0.3181
  177MOL0     C23272   0.640  11.449  10.013  0.3766  0.7279 -0.5599
  177MOL0     C23273   0.711  11.436  10.147  0.2332 -0.0828 -0.4220
  177MOL0     C23274   0.861  11.435  10.120 -0.4687  0.9957  0.8174
  177MOL0     C23275   0.944  11.430  10.256  0.1168  0.3994 -0.0364
  177MOL0    Cl23276   0.940  11.248  10.303 -0.5716  0.0887 -0.2121
  177MOL0     C23277   0.060  11.149  10.111 -0.0695 -0.0596 -0.6060
  177MOL0     C23278   0.001  11.029  10.143  0.1030  1.0427 -1.0408
  177MOL0     O23279   0.142  10.660  10.026 -0.3315  0.1944  0.3379
  177MOL0     C23280  -0.046  10.552  10.313  1.1657 -0.1979  0.0593
  177MOL0     C23281  -0.079  10.428  10.377  1.3889 -0.5203 -0.7407
  177MOL0     N23282  -0.120   9.542  10.510 -0.7591 -1.1380  0.3208
  177MOL0     N23283  -0.024   9.460  10.512  0.0197 -0.1472 -0.2930
  177MOL0     C23284   0.823   8.548  10.571  0.2014 -0.0141 -0.8310
  177MOL0     C23285   0.761   8.444  10.631 -0.5841 -0.4916 -0.8347
  177MOL0     C23286   0.555   8.113  10.841 -0.5444  0.6313 -0.2541
  177MOL0     C23287   0.635   8.045  10.941 -0.2371  0.3307 -0.0909
  177MOL0     C23288   0.568   7.978  11.040 -0.7372  0.0418 -0.6012
  177MOL0     C23289   0.427   7.971  11.042  0.4424  1.1897 -0.9572
  177MOL0     O23290   0.374   7.905  11.151 -0.0370  0.1402  0.9278
  177MOL0     C23291   0.243   7.855  11.138 -0.8291  0.7490  0.3721
  177MOL0     C23292   0.243   7.731  11.220 -1.1907 -0.0095 -0.0144
  177MOL0     C23293   0.100   7.695  11.266  0.0506 -0.4254  0.0780
  177MOL0     C23294   0.080   7.608  11.387  0.5428  0.0275  0.5573
  177MOL0     C23295   0.102   7.666  11.520 -0.5159  0.7974  0.0894
  177MOL0     C23296   0.116   7.720  11.627 -0.3106  0.2258  0.0944
  177MOL0     C23297   0.350   8.030  10.949 -0.3102 -1.1378  0.0771
  177MOL0     C23298   0.412   8.107  10.858  0.7708 -0.7349  0.8692
  177MOL0     H23299   0.470   8.429  10.470  0.5840  1.3331 -3.1007
  177MOL0     H23300   0.551   8.649  10.391  1.4232  1.0785 -1.1143
  177MOL0     H23301   0.648   8.818  10.301 -0.9030  0.9073 -0.5143
  177MOL0     H23302   0.790   8.927  10.354 -0.9661  0.4529 -1.0598
  177MOL0     H23303   0.684   8.958  10.574  1.2195  1.3183 -1.0554
  177MOL0     H23304   0.553   8.840  10.524 -1.1798  2.1926 -1.1344
  177MOL0     H23305   0.483   8.984  10.343  1.3848  1.0327 -1.7740
  177MOL0     H23306   0.596   9.108  10.383 -2.3525  1.7629 -2.6163
  177MOL0     H23307   0.361   8.994  10.536 -0.3164  0.5943 -1.8711
  177MOL0     H23308   0.483   9.101  10.621  1.0958 -3.8392  0.6581
  177MOL0     H23309   0.249   9.176  10.508  0.3607 -0.2717  1.2081
  177MOL0     H23310   0.341   9.194  10.362  2.0265  0.8798  0.4104
  177MOL0     H23311   0.495   9.357  10.473 -1.6960  2.4002 -3.5053
  177MOL0     H23312   0.410   9.315  10.628 -1.8022 -2.0754 -0.4584
  177MOL0     H23313   0.342   9.541  10.502  1.2823 -0.3210  1.0754
  177MOL0     H23314   0.248   9.420  10.397 -0.3170  1.5684 -0.6624
  177MOL0     H23315   0.250   9.485  10.698  1.8583  2.3929 -1.3869
  177MOL0     H23316   0.179   9.331  10.644 -0.2876  0.0358  0.1527
  177MOL0     H23317   0.095   9.709  10.679 -0.5595  0.2705  0.4450
  177MOL0     H23318  -0.245   9.796  10.621  1.4576  0.1770  1.3114
  177MOL0     H23319  -0.213   9.786  10.445 -1.7856 -0.1241  1.0128
  177MOL0     H23320  -0.010   9.909  10.465  0.4817  0.7236  1.0769
  177MOL0     H23321  -0.029   9.938  10.635 -0.6440 -3.0204  0.2980
  177MOL0     H23322  -0.240  10.036  10.435 -0.2041  0.7097  0.7880
  177MOL0     H23323  -0.260  10.047  10.605 -2.3695  0.0599 -2.4275
  177MOL0     H23324  -0.066  10.221  10.584 -1.5857 -0.3171  1.3088
  177MOL0     H23325  -0.209  10.247  10.497  0.6869  0.7717  0.9726
  177MOL0     H23326   0.031  10.213  10.138  1.7892  0.1011 -0.5703
  177MOL0     H23327   0.111  10.418  10.044 -3.3831 -1.2240 -1.5312
  177MOL0     H23328   0.288  10.840  10.093 -1.9959 -0.8550 -1.6495
  177MOL0     H23329   0.374  11.054  10.023 -0.6887  0.1286 -1.1279
  177MOL0     H23330   0.234  11.419  10.138 -1.2807 -0.4650  0.1226
  177MOL0     H23331   0.096  11.406  10.047 -0.5490 -0.3733 -2.6912
  177MOL0     H23332   0.264  11.601   9.971  0.1227 -0.1899 -0.2796
  177MOL0     H23333   0.216  11.495   9.832  4.0390 -1.1201 -1.8065
  177MOL0     H23334   0.448  11.544   9.842 -2.4711 -0.3863 -2.3183
  177MOL0     H23335   0.428  11.366   9.867 -0.7366 -2.7841  2.3258
  177MOL0     H23336   0.460  11.552  10.100  1.5707  0.9984 -0.6670
  177MOL0     H23337   0.446  11.381  10.099 -1.7398  1.9296  1.2091
  177MOL0     H23338   0.669  11.542   9.963 -2.1111  2.6432  1.2410
  177MOL0     H23339   0.663  11.369   9.942  1.5365 -1.0365  1.6762
  177MOL0     H23340   0.663  11.347  10.189 -2.5359  2.0195  1.2039
  177MOL0     H23341   0.687  11.526  10.205  2.0247  1.2724 -1.6573
  177MOL0     H23342   0.887  11.349  10.058 -2.0889  0.5529  0.7073
  177MOL0     H23343   0.890  11.530  10.074 -2.5519  0.5387 -1.6427
  177MOL0     H23344   0.886  11.496  10.321  1.2087  2.6440 -1.2273
  177MOL0     H23345   1.043  11.474  10.262 -0.1686  0.8465  2.1015
  177MOL0     H23346  -0.003  11.236  10.127  0.5916  0.5120 -1.0273
  177MOL0     H23347  -0.102  11.015  10.173  0.5633 -0.8396 -0.1910
  177MOL0     H23348  -0.080  10.647  10.352  0.6489  0.3945 -1.7145
  177MOL0     H23349  -0.134  10.425  10.471  0.5732 -1.8088 -1.2453
  177MOL0     H23350   0.927   8.574  10.584  1.0052 -3.4597  0.5512
  177MOL0     H23351   0.809   8.400  10.717 -0.9005  2.6973  1.1439
  177MOL0     H23352   0.743   8.045  10.938 -0.2063 -2.1638 -1.2207
  177MOL0     H23353   0.621   7.932  11.123 -0.6351 -3.4823 -2.4278
  177MOL0     H23354   0.205   7.840  11.037 -1.1293 -0.0574  0.5995
  177MOL0     H23355   0.175   7.927  11.185 -1.3512  0.4723  0.0403
  177MOL0     H23356   0.284   7.651  11.157  0.0908  1.3256 -0.9377
  177MOL0     H23357   0.309   7.746  11.306  1.7344  1.6842 -2.3575
  177MOL0     H23358   0.040   7.644  11.191 -0.9416 -2.0830  1.9210
  177MOL0     H23359   0.050   7.791  11.282 -0.4614 -0.2951 -2.0677
  177MOL0     H23360  -0.028   7.595  11.389  0.5102  0.2675  0.4487
  177MOL0     H23361   0.134   7.513  11.377 -1.1850 -0.8899 -0.4901
  177MOL0     H23362   0.127   7.776  11.717 -2.7866  0.4354  0.3582
  177MOL0     H23363   0.242   8.023  10.952 -0.3245 -1.6686 -1.1429
  177MOL0     H23364   0.358   8.160  10.781  1.8196 -3.8165 -2.2198
  178MOL0     O23365   7.379   1.454   9.745 -0.3407  0.0046 -0.0716
  178MOL0     C23366   7.446   1.357   9.715  0.1569 -0.8715 -0.6191
  178MOL0     O23367   7.555   1.361   9.632  0.3445  0.6406 -0.1253
  178MOL0     C23368   7.573   1.466   9.548  0.6860  0.7208 -0.4979
  178MOL0     C23369   7.609   1.441   9.416 -0.1842 -0.1368 -0.1790
  178MOL0     C23370   7.648   1.536   9.322  0.2436  0.3358  0.0444
  178MOL0     C23371   7.639   1.669   9.357  0.4994 -0.2106 -0.1122
  178MOL0     O23372   7.681   1.756   9.262  0.2953 -0.2560  0.5144
  178MOL0     C23373   7.682   1.895   9.282  0.5733 -0.1460  0.3453
  178MOL0     C23374   7.734   1.963   9.148  0.0854 -0.8466 -1.2466
  178MOL0     C23375   7.703   2.105   9.135 -0.2529  0.9196 -0.0932
  178MOL0     C23376   7.778   2.166   9.014 -0.9868 -0.2092  0.0084
  178MOL0     C23377   7.758   2.324   8.988 -0.1766  0.4056  0.0408
  178MOL0     C23378   7.877   2.372   8.893  0.0648 -0.0688  0.1413
  178MOL0     C23379   7.839   2.517   8.855  0.3965 -0.9519 -0.3611
  178MOL0     C23380   7.899   2.569   8.724  0.7298  0.5474 -0.1461
  178MOL0     N23381   7.996   2.669   8.749  0.3849 -0.3101 -0.4814
  178MOL0     C23382   7.986   2.797   8.804 -0.3832  0.6000 -0.0178
  178MOL0     C23383   8.115   2.830   8.829  1.1930  0.0549 -0.1192
  178MOL0     C23384   8.170   2.937   8.914  0.1497  0.0757  0.1190
  178MOL0     C23385   8.234   2.902   9.055  0.7933 -0.0236  0.0630
  178MOL0     C23386   8.351   2.999   9.095 -0.2310 -0.0106  1.0048
  178MOL0     C23387   8.407   2.949   9.223  0.0470  0.0742 -0.6142
  178MOL0     O23388   8.292   2.951   9.312  0.3206 -0.0107 -0.1061
  178MOL0     C23389   8.262   3.075   9.373 -0.3804 -0.5786 -0.6701
  178MOL0     C23390   8.339   3.194   9.371  0.3711 -0.5221  0.4169
  178MOL0     C23391   8.300   3.302   9.441 -0.0040  0.2140  0.2724
  178MOL0     C23392   8.189   3.304   9.528  0.0788  0.8858  0.2005
  178MOL0     C23393   8.166   3.427   9.609  0.3583  0.0248 -0.1525
  178MOL0     O23394   8.257   3.527   9.601  0.1061 -0.4159  0.5268
  178MOL0     C23395   8.227   3.644   9.667  0.5939  0.6617  0.4975
  178MOL0     C23396   8.249   3.768   9.603  0.5042 -0.1032  0.3644
  178MOL0     C23397   8.249   3.887   9.666 -0.0136  0.1454 -0.4340
  178MOL0     C23398   8.205   3.881   9.799  0.8931  0.5943  0.2073
  178MOL0     O23399   8.193   3.999   9.865 -0.1720  0.3348  0.3457
  178MOL0     C23400   8.089   4.024   9.960  0.9367  0.3791 -0.5462
  178MOL0     C23401   8.135   4.148  10.043 -0.3165  0.6393 -0.5036
  178MOL0     C23402   8.014   4.208  10.127 -0.7532 -0.8698  1.1580
  178MOL0     C23403   8.073   4.341  10.182  1.3679  1.1028 -0.9504
  178MOL0     C23404   7.954   4.431  10.244  0.2541  0.9626  0.5154
  178MOL0     C23405   8.003   4.591  10.234  1.6520  0.1541  0.8433
  178MOL0     C23406   7.993   4.658  10.098  0.3463  0.7271  0.3459
  178MOL0     C23407   7.864   4.740  10.062 -0.7296  0.2243  0.1382
  178MOL0    Cl23408   7.751   4.639   9.971 -0.1954  0.1766  0.1087
  178MOL0     C23409   8.165   3.764   9.867 -0.3230 -0.4644 -0.1256
  178MOL0     C23410   8.185   3.644   9.800 -0.6704  0.7559 -0.6537
  178MOL0     O23411   8.055   3.436   9.664 -0.1292 -0.9660 -0.6562
  178MOL0     C23412   8.096   3.189   9.517  0.0965 -1.3768 -0.1921
  178MOL0     C23413   8.139   3.077   9.439 -1.2675 -0.6398  0.2622
  178MOL0     N23414   8.195   2.732   8.792 -0.2635 -0.3009  0.8570
  178MOL0     N23415   8.125   2.637   8.757  0.3458  0.1814 -0.2854
  178MOL0     C23416   7.592   1.699   9.485  0.6907  0.4008 -0.7800
  178MOL0     C23417   7.567   1.602   9.577  0.3280  1.1249 -0.3169
  178MOL0     C23418   7.412   1.234   9.776 -0.6020  0.7372  1.4028
  178MOL0     C23419   7.300   1.218   9.850  0.0456  0.5629  1.0048
  178MOL0     C23420   7.273   1.089   9.910  0.2886  0.3581  0.3825
  178MOL0     C23421   7.352   0.975   9.883 -0.3114  0.3818 -0.3284
  178MOL0     O23422   7.304   0.855   9.931 -0.1987  0.0699 -0.1574
  178MOL0     C23423   7.394   0.772   9.999  0.4774  0.3561 -0.0788
  178MOL0     C23424   7.319   0.697  10.108  0.4513  0.6116 -0.3119
  178MOL0     C23425   7.408   0.623  10.200  0.6021  0.2653  0.8448
  178MOL0     C23426   7.339   0.567  10.332 -0.0265  0.2869  0.5813
  178MOL0     C23427   7.429   0.480  10.404  0.0188 -0.0210  0.3691
  178MOL0     C23428   7.484   0.421  10.494  0.1113  0.5233 -0.6036
  178MOL0     C23429   7.472   0.989   9.816  0.6109  0.2158  0.5932
  178MOL0     C23430   7.502   1.116   9.754  1.0684 -0.3011 -0.5736
  178MOL0     H23431   7.609   1.337   9.383  0.4679 -0.7282  1.5775
  178MOL0     H23432   7.680   1.505   9.222 -0.1583  0.0804 -0.0063
  178MOL0     H23433   7.747   1.912   9.369 -2.0932 -0.0645  2.4633
  178MOL0     H23434   7.581   1.931   9.307  0.3398 -0.6636  0.1644
  178MOL0     H23435   7.693   1.911   9.061  0.1365 -0.5284 -1.4666
  178MOL0     H23436   7.838   1.929   9.146 -0.6505 -3.3673 -0.6620
  178MOL0     H23437   7.720   2.169   9.223 -1.1129  4.0460 -2.0312
  178MOL0     H23438   7.598   2.119   9.108 -0.4404 -2.7426 -1.8269
  178MOL0     H23439   7.885   2.143   9.026 -1.8411 -5.2770 -0.1240
  178MOL0     H23440   7.764   2.127   8.913 -0.0810  1.1389 -0.6748
  178MOL0     H23441   7.768   2.372   9.085  1.8253  2.5516 -1.1417
  178MOL0     H23442   7.659   2.338   8.943  0.8680  3.7070 -1.5418
  178MOL0     H23443   7.886   2.303   8.808 -0.5083  0.2556 -0.1810
  178MOL0     H23444   7.968   2.370   8.955  0.7383 -1.9964 -0.8313
  178MOL0     H23445   7.730   2.529   8.854  0.2461 -0.3776  3.6651
  178MOL0     H23446   7.873   2.583   8.935  4.5014 -4.1770  0.9040
  178MOL0     H23447   7.819   2.611   8.662 -1.9139 -1.5236  1.6426
  178MOL0     H23448   7.955   2.493   8.668  1.1622 -0.4554  1.5693
  178MOL0     H23449   7.907   2.871   8.812 -0.5136  0.6364 -1.4399
  178MOL0     H23450   8.088   3.010   8.917 -0.8449 -0.7366 -3.1553
  178MOL0     H23451   8.247   2.982   8.851  1.0134 -0.9524  0.4244
  178MOL0     H23452   8.264   2.796   9.063 -0.5443 -0.6019 -1.8892
  178MOL0     H23453   8.152   2.890   9.127  0.8484 -2.4739 -0.1814
  178MOL0     H23454   8.438   2.984   9.031 -2.4665 -3.7771 -1.5729
  178MOL0     H23455   8.317   3.103   9.092  0.4057  0.2515  2.2851
  178MOL0     H23456   8.479   3.020   9.266 -0.5704 -1.1759  2.8682
  178MOL0     H23457   8.442   2.846   9.226 -1.2852 -0.4647  3.7213
  178MOL0     H23458   8.426   3.207   9.308 -0.8526  1.7724 -0.9213
  178MOL0     H23459   8.359   3.390   9.418  0.0111 -0.6151 -3.4211
  178MOL0     H23460   8.255   3.765   9.494 -0.4839 -0.3119  0.3082
  178MOL0     H23461   8.289   3.977   9.620  3.2345 -0.4322  0.9877
  178MOL0     H23462   8.077   3.943  10.032 -0.2919  1.0656  0.0473
  178MOL0     H23463   7.988   4.033   9.920 -0.0477 -0.4978  1.5978
  178MOL0     H23464   8.165   4.217   9.963  3.4067 -1.0270 -0.7633
  178MOL0     H23465   8.221   4.128  10.108 -0.7832  1.0366  0.2516
  178MOL0     H23466   7.985   4.147  10.213  1.0942 -1.3025  1.5352
  178MOL0     H23467   7.931   4.232  10.061 -0.0199 -0.0408  0.5071
  178MOL0     H23468   8.160   4.332  10.247  0.9780 -2.0666 -0.6948
  178MOL0     H23469   8.120   4.396  10.100  4.8848  0.7093  0.6387
  178MOL0     H23470   7.934   4.399  10.346  3.0186 -1.3449  0.4310
  178MOL0     H23471   7.861   4.414  10.189  0.6740  0.3510 -0.0228
  178MOL0     H23472   8.107   4.595  10.267  1.4836  0.2270  1.3630
  178MOL0     H23473   7.956   4.653  10.310 -1.1187  0.4231 -0.9723
  178MOL0     H23474   8.079   4.726  10.099  0.8304  0.2931 -2.3406
  178MOL0     H23475   8.013   4.589  10.015  2.6867  0.4047  1.1159
  178MOL0     H23476   7.893   4.825   9.999  2.6568 -0.5854  0.3795
  178MOL0     H23477   7.820   4.776  10.155 -0.8757  1.4823 -0.4038
  178MOL0     H23478   8.115   3.762   9.963 -0.2338 -0.4515 -0.0784
  178MOL0     H23479   8.157   3.547   9.840  0.4533  0.2309 -1.1057
  178MOL0     H23480   8.006   3.182   9.578  1.5050 -0.7262  2.0604
  178MOL0     H23481   8.063   3.004   9.415 -3.8926  2.0605 -0.2300
  178MOL0     H23482   7.581   1.800   9.523  3.0175 -0.3913  2.4042
  178MOL0     H23483   7.544   1.619   9.682 -1.0763  0.3126 -0.4770
  178MOL0     H23484   7.230   1.298   9.870 -2.7972 -1.3336 -0.7325
  178MOL0     H23485   7.177   1.081   9.960 -0.7971 -1.9636 -1.8356
  178MOL0     H23486   7.471   0.835  10.045 -0.5226 -0.1042  2.3345
  178MOL0     H23487   7.439   0.703   9.927  1.0134 -0.6824  1.2058
  178MOL0     H23488   7.249   0.762  10.160  2.6408  3.6187 -0.8939
  178MOL0     H23489   7.261   0.615  10.063 -1.9539  2.1632 -0.2029
  178MOL0     H23490   7.489   0.690  10.232 -0.2279 -0.1035  4.1498
  178MOL0     H23491   7.456   0.547  10.139  0.4892 -0.0991  1.2068
  178MOL0     H23492   7.329   0.663  10.382  1.6360  2.1305 -2.3500
  178MOL0     H23493   7.236   0.530  10.328  0.2942 -0.8788  1.8415
  178MOL0     H23494   7.536   0.379  10.578  5.5310  4.3316 -1.5195
  178MOL0     H23495   7.527   0.896   9.802  0.2740  0.2349 -0.9967
  178MOL0     H23496   7.594   1.139   9.702  0.8089  0.9660 -0.5174
  179MOL0     O23497   6.339   0.437   8.422 -0.2811  0.5114  0.3164
  179MOL0     C23498   6.288   0.537   8.363 -0.2108  0.3664 -0.1957
  179MOL0     O23499   6.179   0.605   8.408 -0.0393  0.3099  0.3861
  179MOL0     C23500   6.123   0.564   8.527  0.3635  0.1969 -0.7618
  179MOL0     C23501   6.186   0.530   8.651 -0.4611  0.7991 -0.6563
  179MOL0     C23502   6.124   0.518   8.771  0.3463 -0.4462 -0.0158
  179MOL0     C23503   5.987   0.555   8.777 -0.4677  0.2303  0.0391
  179MOL0     O23504   5.913   0.559   8.894  0.1081  0.0347 -0.2130
  179MOL0     C23505   5.949   0.481   9.004 -0.5738  1.1517 -0.6852
  179MOL0     C23506   5.845   0.463   9.108 -0.0667 -0.1188  0.6610
  179MOL0     C23507   5.900   0.440   9.245 -0.4867  0.0592 -0.5840
  179MOL0     C23508   5.943   0.292   9.253 -0.0913 -0.0076  0.1790
  179MOL0     C23509   5.985   0.254   9.394  0.1128  1.2691 -0.2952
  179MOL0     C23510   5.998   0.097   9.413  0.5215  0.3183 -0.8840
  179MOL0     C23511   6.002   0.034   9.553  1.7082 -0.7219  0.9238
  179MOL0     C23512   6.133   0.066   9.612  0.4884  0.2281 -0.6495
  179MOL0     N23513   6.145   0.006   9.748  0.3771 -0.4258 -0.4603
  179MOL0     C23514   6.183   0.078   9.859 -0.2317 -0.1901 -0.0476
  179MOL0     C23515   6.157  -0.003   9.965 -0.7050  1.0493 -1.1287
  179MOL0     C23516   6.191   0.006  10.122  0.5769  0.0725 -0.0669
  179MOL0     C23517   6.322   0.092  10.135  0.4745  0.7344  0.4916
  179MOL0     C23518   6.372   0.088  10.278  0.6311  1.2654  0.6882
  179MOL0     C23519   6.465   0.190  10.323  0.6628 -0.4286 -0.4512
  179MOL0     O23520   6.384   0.308  10.346  0.4601 -0.8321  0.0366
  179MOL0     C23521   6.419   0.360  10.473  0.3008  0.3501  0.5599
  179MOL0     C23522   6.490   0.484  10.481  0.5556 -0.4103  0.2108
  179MOL0     C23523   6.526   0.536  10.605  0.1076  0.0100  0.3089
  179MOL0     C23524   6.482   0.475  10.720  0.0688  0.5153 -0.4628
  179MOL0     C23525   6.508   0.539  10.852 -0.0752 -0.1642 -0.3992
  179MOL0     O23526   6.496   0.466  10.963 -0.5354  0.8782 -0.3166
  179MOL0     C23527   6.479   0.536  11.083  0.2400 -0.6539  0.0170
  179MOL0     C23528   6.584   0.557  11.163 -0.0059  0.6299 -0.7161
  179MOL0     C23529   6.565   0.644  11.273  0.1598 -0.1518  0.2575
  179MOL0     C23530   6.438   0.683  11.317 -0.2066 -1.0106  0.1734
  179MOL0     O23531   6.421   0.754  11.437 -0.1319  0.0260  0.4672
  179MOL0     C23532   6.501   0.876  11.464  0.4619  0.4411 -0.2550
  179MOL0     C23533   6.452   0.991  11.370 -1.1971 -0.0714 -0.9280
  179MOL0     C23534   6.554   1.018  11.256 -0.1454 -1.3930 -0.5792
  179MOL0     C23535   6.481   1.095  11.136 -0.2178 -0.1308 -0.3227
  179MOL0     C23536   6.481   1.248  11.166  0.4677 -0.5385 -0.3283
  179MOL0     C23537   6.386   1.317  11.065 -0.6121 -1.1536 -0.0179
  179MOL0     C23538   6.412   1.473  11.071  0.0319 -0.8430  0.4812
  179MOL0     C23539   6.343   1.550  10.951 -0.1430  0.3669  0.1671
  179MOL0    Cl23540   6.278   1.714  10.999  0.3644 -0.2364  0.5639
  179MOL0     C23541   6.332   0.650  11.240 -0.3572  0.2608 -0.0429
  179MOL0     C23542   6.353   0.587  11.116 -0.7139  0.3527 -0.0974
  179MOL0     O23543   6.538   0.661  10.851 -0.2177  0.4250  0.4983
  179MOL0     C23544   6.404   0.360  10.713 -0.7955 -0.3335 -0.2861
  179MOL0     C23545   6.368   0.304  10.589 -0.9624 -0.7734  0.6794
  179MOL0     N23546   6.125  -0.129   9.918  0.6359 -0.2798  0.0828
  179MOL0     N23547   6.115  -0.119   9.789 -0.4044  0.6674  0.3214
  179MOL0     C23548   5.921   0.591   8.655  0.2905  0.3466  0.0163
  179MOL0     C23549   5.987   0.594   8.534  0.5879 -0.3189 -0.3036
  179MOL0     C23550   6.337   0.565   8.236  0.2356 -0.3563 -0.4354
  179MOL0     C23551   6.464   0.517   8.190 -0.7634 -0.8806 -0.4096
  179MOL0     C23552   6.505   0.538   8.058  0.1568 -0.0680 -0.0466
  179MOL0     C23553   6.414   0.588   7.959 -0.2483  0.3609 -0.4141
  179MOL0     O23554   6.449   0.606   7.826 -0.0609  0.0174  0.1371
  179MOL0     C23555   6.360   0.548   7.736 -0.5878 -0.0978  0.8302
  179MOL0     C23556   6.426   0.538   7.598 -0.0722  0.2825 -0.4236
  179MOL0     C23557   6.334   0.535   7.471 -0.7694  0.1962  1.5851
  179MOL0     C23558   6.408   0.567   7.337 -0.1848 -0.5895 -0.2946
  179MOL0     C23559   6.483   0.697   7.341  0.2755 -0.2461  0.3444
  179MOL0     C23560   6.545   0.794   7.354 -0.6080  0.0720 -0.0295
  179MOL0     C23561   6.296   0.633   8.000  0.8322 -0.8454  0.1830
  179MOL0     C23562   6.259   0.634   8.134 -0.4484 -0.0247  0.1292
  179MOL0     H23563   6.292   0.509   8.664 -0.5409  1.7514  2.3440
  179MOL0     H23564   6.176   0.484   8.860  0.7015  2.3957  0.9698
  179MOL0     H23565   6.037   0.530   9.044 -0.5284 -0.7634  1.7830
  179MOL0     H23566   5.977   0.377   8.981  0.7157  1.3893 -0.2274
  179MOL0     H23567   5.774   0.385   9.077  0.1186  0.3577 -1.1140
  179MOL0     H23568   5.795   0.560   9.111 -0.3001  0.0176 -2.8078
  179MOL0     H23569   5.836   0.483   9.323  0.3692  2.9600 -1.3690
  179MOL0     H23570   5.987   0.501   9.271  0.5277 -1.2208 -0.8891
  179MOL0     H23571   5.858   0.229   9.224  0.8955 -0.3881 -2.0306
  179MOL0     H23572   6.019   0.275   9.177  0.2383 -0.0968  0.5281
  179MOL0     H23573   5.912   0.283   9.470  0.4311  0.7761  0.2117
  179MOL0     H23574   6.084   0.298   9.413  1.2737 -1.6036  0.9044
  179MOL0     H23575   6.090   0.064   9.363  2.7822  2.4118  1.5874
  179MOL0     H23576   5.913   0.050   9.363 -0.6107  1.0403  0.2975
  179MOL0     H23577   5.921   0.090   9.600 -0.2690 -1.5110 -1.3523
  179MOL0     H23578   5.987  -0.074   9.548 -0.8531 -0.3827 -1.0741
  179MOL0     H23579   6.134   0.175   9.626 -0.6139  0.3332 -1.2283
  179MOL0     H23580   6.224   0.043   9.555  0.5941 -0.2703 -0.2823
  179MOL0     H23581   6.238   0.172   9.863  1.8200 -1.3067  4.3471
  179MOL0     H23582   6.203  -0.097  10.157 -0.5461  0.5933  1.9802
  179MOL0     H23583   6.110   0.056  10.176  1.1955 -0.2916  1.2341
  179MOL0     H23584   6.303   0.192  10.095  0.9044  1.2561  1.5452
  179MOL0     H23585   6.395   0.047  10.067 -0.7966 -0.7491  0.0285
  179MOL0     H23586   6.283   0.081  10.342  1.3856 -0.4539  1.6418
  179MOL0     H23587   6.420  -0.010  10.290  0.5270  1.1841  0.4378
  179MOL0     H23588   6.553   0.214  10.263  0.4930  2.4189  0.2944
  179MOL0     H23589   6.498   0.149  10.419 -2.3232 -0.4090  0.6900
  179MOL0     H23590   6.524   0.537  10.392 -5.0077 -0.5345 -2.4198
  179MOL0     H23591   6.577   0.630  10.617 -2.6053  1.7295 -0.6211
  179MOL0     H23592   6.686   0.527  11.142 -0.1495 -1.9122  1.7483
  179MOL0     H23593   6.649   0.668  11.338  1.5102 -1.3128 -0.9809
  179MOL0     H23594   6.609   0.864  11.448  0.2995 -0.0191 -1.0751
  179MOL0     H23595   6.493   0.896  11.571 -2.6174 -2.9453  0.3500
  179MOL0     H23596   6.451   1.085  11.426 -0.2990 -0.4499 -0.2530
  179MOL0     H23597   6.350   0.975  11.333 -1.8416  1.2033  0.2051
  179MOL0     H23598   6.613   0.935  11.217  1.4989 -0.6667  0.2556
  179MOL0     H23599   6.623   1.088  11.303 -0.6358 -2.3660  1.7116
  179MOL0     H23600   6.539   1.084  11.044  0.7991 -1.3373  0.4253
  179MOL0     H23601   6.384   1.048  11.117  0.5067 -2.7189  1.7157
  179MOL0     H23602   6.567   1.315  11.177 -2.2885  3.3950 -0.6752
  179MOL0     H23603   6.436   1.256  11.266  0.1185 -1.8777 -0.3646
  179MOL0     H23604   6.285   1.279  11.079 -0.5394 -1.4052 -0.1749
  179MOL0     H23605   6.432   1.294  10.969 -1.5115 -1.1513 -0.4553
  179MOL0     H23606   6.371   1.510  11.165 -1.2896 -2.3826  0.5372
  179MOL0     H23607   6.521   1.482  11.066 -0.1503  1.6986 -0.2838
  179MOL0     H23608   6.268   1.493  10.894  0.2132 -0.1467  0.2051
  179MOL0     H23609   6.419   1.561  10.873 -0.0631 -1.2961 -0.0201
  179MOL0     H23610   6.230   0.680  11.261 -0.4686 -0.0792 -0.0847
  179MOL0     H23611   6.261   0.564  11.063 -0.9006 -1.2392  0.8506
  179MOL0     H23612   6.369   0.332  10.811 -2.9408  0.3844 -0.8065
  179MOL0     H23613   6.315   0.209  10.584 -1.5117 -0.3943 -1.6757
  179MOL0     H23614   5.817   0.624   8.662  0.4379  0.8845 -0.3006
  179MOL0     H23615   5.947   0.624   8.437  2.2721 -1.3632 -1.3657
  179MOL0     H23616   6.530   0.471   8.262 -0.0311 -1.6701 -1.5386
  179MOL0     H23617   6.601   0.508   8.019 -1.2230 -2.4016 -1.9502
  179MOL0     H23618   6.268   0.606   7.721 -0.8552 -0.7027  0.0861
  179MOL0     H23619   6.321   0.453   7.773 -1.4759  0.1693  0.5871
  179MOL0     H23620   6.504   0.615   7.595 -1.8907  2.2370  0.4932
  179MOL0     H23621   6.487   0.446   7.602  1.2523  1.1596  0.3429
  179MOL0     H23622   6.250   0.604   7.474  0.3286  1.6082  0.9155
  179MOL0     H23623   6.284   0.439   7.454 -3.0515  1.3599  1.4087
  179MOL0     H23624   6.475   0.481   7.327  1.5914  0.9656 -4.3874
  179MOL0     H23625   6.337   0.572   7.253  0.3340  2.1015 -0.6599
  179MOL0     H23626   6.605   0.882   7.369 -0.4394  0.7345 -3.6145
  179MOL0     H23627   6.232   0.677   7.925 -1.7935 -3.9465  0.3987
  179MOL0     H23628   6.166   0.679   8.167 -0.4358 -0.3158  0.5743
  180MOL0     O23629   5.965   4.845   2.051 -0.5009 -0.3033  0.0409
  180MOL0     C23630   6.090   4.858   2.051  0.4853  0.2542  0.0196
  180MOL0     O23631   6.176   4.845   1.947 -0.5261 -0.8681  0.1601
  180MOL0     C23632   6.130   4.788   1.833 -0.3440 -0.1256  0.1458
  180MOL0     C23633   6.061   4.867   1.740  0.2220 -0.1462 -0.0935
  180MOL0     C23634   6.010   4.805   1.627  0.8459  0.1429  0.2586
  180MOL0     C23635   6.008   4.667   1.624  0.3595 -0.1130 -0.0732
  180MOL0     O23636   5.924   4.613   1.523  0.2935 -0.0442 -0.3009
  180MOL0     C23637   5.789   4.573   1.551  0.7570 -0.1619  0.1311
  180MOL0     C23638   5.738   4.633   1.690 -0.1763  0.5229 -0.1024
  180MOL0     C23639   5.582   4.649   1.668 -0.0397  0.4145 -0.5377
  180MOL0     C23640   5.525   4.654   1.813  0.0525  0.8583 -0.5069
  180MOL0     C23641   5.395   4.734   1.827  0.4575  1.3811  0.0981
  180MOL0     C23642   5.292   4.662   1.920 -0.0261 -0.0735 -0.9004
  180MOL0     C23643   5.167   4.749   1.957 -0.3905  0.1246 -0.2474
  180MOL0     C23644   5.122   4.741   2.101  0.3927  0.7384 -1.0038
  180MOL0     N23645   5.199   4.818   2.196  0.5468  0.0239  0.5735
  180MOL0     C23646   5.297   4.769   2.271 -0.7118  0.3851 -0.5104
  180MOL0     C23647   5.352   4.879   2.329  1.1617  0.3658  0.0419
  180MOL0     C23648   5.471   4.875   2.431 -0.2096 -0.1070  0.2705
  180MOL0     C23649   5.599   4.937   2.371 -0.6966  0.2811  0.4350
  180MOL0     C23650   5.605   5.093   2.371  0.9619 -0.4940 -0.5199
  180MOL0     C23651   5.745   5.149   2.329  0.4172 -0.0270 -0.0096
  180MOL0     O23652   5.825   5.175   2.450  0.9493 -0.1993  0.5276
  180MOL0     C23653   5.955   5.220   2.433  0.1073  0.5469 -0.1776
  180MOL0     C23654   6.016   5.247   2.547 -0.5210 -1.4128  0.5323
  180MOL0     C23655   6.149   5.303   2.534  0.9335  0.7979  0.3871
  180MOL0     C23656   6.212   5.331   2.409  0.5929 -0.4426 -0.1044
  180MOL0     C23657   6.341   5.401   2.420 -0.1168  0.8489  0.4750
  180MOL0     O23658   6.390   5.430   2.550 -0.6099  0.6296  0.6193
  180MOL0     C23659   6.501   5.515   2.566 -0.3054 -0.1834  0.3619
  180MOL0     C23660   6.504   5.543   2.694 -0.5807 -0.2601 -0.3153
  180MOL0     C23661   6.598   5.636   2.753  0.4130  1.1568  1.3234
  180MOL0     C23662   6.700   5.688   2.678  0.5490  0.7715  0.0488
  180MOL0     O23663   6.808   5.763   2.723  0.3489  0.5451 -0.6054
  180MOL0     C23664   6.829   5.765   2.864  0.0746  0.5005 -0.5668
  180MOL0     C23665   6.963   5.823   2.901 -0.2960  0.5215  0.7487
  180MOL0     C23666   7.002   5.961   2.831  0.2115  0.0104 -0.1359
  180MOL0     C23667   6.958   6.075   2.919  0.3788  0.6293 -0.2061
  180MOL0     C23668   6.991   6.214   2.867  0.2761  0.2795  0.3092
  180MOL0     C23669   6.914   6.243   2.738  1.6129  0.5380 -0.4519
  180MOL0     C23670   6.963   6.374   2.665  0.1856 -0.3520 -0.1336
  180MOL0     C23671   6.987   6.504   2.751 -0.1403 -0.0478 -0.5382
  180MOL0    Cl23672   7.034   6.628   2.647  0.1446  0.2706 -0.1882
  180MOL0     C23673   6.691   5.663   2.542 -0.1972 -0.2882 -0.7672
  180MOL0     C23674   6.596   5.570   2.480 -0.1557 -0.1811 -0.3205
  180MOL0     O23675   6.403   5.427   2.313  0.5669 -0.5196 -0.1687
  180MOL0     C23676   6.151   5.275   2.295  0.0181 -0.8940 -0.6455
  180MOL0     C23677   6.019   5.225   2.304 -0.3006  0.2277  0.2075
  180MOL0     N23678   5.283   4.995   2.278 -0.2519  0.3926 -0.4503
  180MOL0     N23679   5.198   4.951   2.195  0.8726 -0.5921  0.0126
  180MOL0     C23680   6.066   4.587   1.725 -0.4657  0.0070  1.1656
  180MOL0     C23681   6.133   4.652   1.827 -0.8479 -0.1952  0.0517
  180MOL0     C23682   6.147   4.879   2.188 -0.0834  0.4697 -0.3664
  180MOL0     C23683   6.072   4.860   2.306  0.1080  0.6443 -0.2740
  180MOL0     C23684   6.124   4.886   2.433  0.3525  0.6676  0.3466
  180MOL0     C23685   6.245   4.942   2.444 -0.2745  1.2645  1.1791
  180MOL0     O23686   6.281   4.960   2.575 -0.3474  0.8456 -0.3872
  180MOL0     C23687   6.399   5.037   2.604 -0.4304 -0.8443  0.1113
  180MOL0     C23688   6.394   5.094   2.750  0.7594  0.2074 -0.3310
  180MOL0     C23689   6.420   4.988   2.844  0.0714  1.1064 -0.0658
  180MOL0     C23690   6.437   5.044   2.983  0.9278 -0.3631 -0.3067
  180MOL0     C23691   6.464   4.931   3.080 -0.4106  0.3624  0.1531
  180MOL0     C23692   6.490   4.835   3.148 -0.1298  0.2207  0.9779
  180MOL0     C23693   6.327   4.957   2.333 -0.1801 -0.4943  0.2041
  180MOL0     C23694   6.276   4.921   2.205  0.4677 -0.2218  0.0923
  180MOL0     H23695   6.043   4.974   1.749  2.5582  0.5384 -2.1613
  180MOL0     H23696   5.949   4.860   1.556  0.3951  2.1192  2.0932
  180MOL0     H23697   5.785   4.464   1.544  2.3615 -0.2324  0.0663
  180MOL0     H23698   5.714   4.607   1.480 -0.6928  1.4528  2.2912
  180MOL0     H23699   5.777   4.730   1.722  0.6283 -0.0782  0.8383
  180MOL0     H23700   5.772   4.554   1.759 -0.3702 -0.7719 -1.4515
  180MOL0     H23701   5.528   4.577   1.605  0.9327 -0.0673 -0.8455
  180MOL0     H23702   5.566   4.747   1.623 -0.0528  0.3522 -0.6697
  180MOL0     H23703   5.517   4.549   1.845 -2.1145  0.1720 -2.9378
  180MOL0     H23704   5.593   4.709   1.878  0.5407 -1.6599  1.2817
  180MOL0     H23705   5.350   4.746   1.728 -0.2376  1.4325  0.4137
  180MOL0     H23706   5.419   4.836   1.859 -1.0798  1.3067  1.6426
  180MOL0     H23707   5.337   4.627   2.013  1.2336  1.2374 -0.9936
  180MOL0     H23708   5.261   4.566   1.879  2.1224 -1.1434 -0.1697
  180MOL0     H23709   5.174   4.853   1.926 -1.2795 -0.3409 -2.1466
  180MOL0     H23710   5.086   4.718   1.891  1.2245 -0.3279 -2.1189
  180MOL0     H23711   5.120   4.635   2.127 -0.3092  0.8842 -0.4394
  180MOL0     H23712   5.020   4.783   2.106 -0.0807 -0.4476 -0.4771
  180MOL0     H23713   5.320   4.665   2.290 -0.4766  0.5370  0.0684
  180MOL0     H23714   5.486   4.775   2.471 -0.6239  0.4748  1.9473
  180MOL0     H23715   5.426   4.944   2.503  0.8292  3.3368 -2.1337
  180MOL0     H23716   5.611   4.903   2.268 -2.2345  0.2756  0.2352
  180MOL0     H23717   5.676   4.912   2.445 -1.6149  0.1827  1.3768
  180MOL0     H23718   5.529   5.143   2.309 -3.1354 -0.9849  3.5737
  180MOL0     H23719   5.578   5.130   2.470  2.4182  0.9115 -0.6105
  180MOL0     H23720   5.740   5.245   2.276 -0.3673  1.1461  2.0734
  180MOL0     H23721   5.788   5.066   2.273 -2.6559 -2.5441  1.0354
  180MOL0     H23722   5.952   5.242   2.635 -0.0165 -1.1875  0.9169
  180MOL0     H23723   6.201   5.334   2.625  1.1105  1.4141  0.0806
  180MOL0     H23724   6.436   5.493   2.762 -0.7910 -1.6334 -1.4690
  180MOL0     H23725   6.611   5.650   2.859 -0.1194 -0.2414  1.5977
  180MOL0     H23726   6.828   5.664   2.907 -0.7907 -0.4732 -2.7163
  180MOL0     H23727   6.742   5.814   2.908 -0.9576 -1.4029 -0.3719
  180MOL0     H23728   7.043   5.752   2.876  1.0683  1.6401  1.7543
  180MOL0     H23729   6.975   5.840   3.008 -0.5138 -0.7064  0.9881
  180MOL0     H23730   6.951   5.963   2.734 -2.6898  1.4451  1.2940
  180MOL0     H23731   7.109   5.976   2.815 -0.0426  0.6582 -1.3430
  180MOL0     H23732   6.850   6.079   2.937 -0.0747 -2.2398 -1.7650
  180MOL0     H23733   7.015   6.063   3.012  3.3311  1.2823 -1.8081
  180MOL0     H23734   7.100   6.228   2.866  0.5977 -1.5951  2.0031
  180MOL0     H23735   6.948   6.285   2.937  1.2326  0.2528  0.9395
  180MOL0     H23736   6.807   6.256   2.758  1.8176  1.0854  0.3394
  180MOL0     H23737   6.931   6.161   2.667  2.3278 -0.4564  0.8393
  180MOL0     H23738   7.060   6.342   2.628  1.7866  1.2396  2.3772
  180MOL0     H23739   6.895   6.394   2.582  1.6321  1.7696 -0.8682
  180MOL0     H23740   7.075   6.494   2.816  1.4397  1.0356 -2.4330
  180MOL0     H23741   6.899   6.541   2.805  3.4340  6.0998  2.1301
  180MOL0     H23742   6.764   5.708   2.476 -0.2112 -0.1251 -0.6699
  180MOL0     H23743   6.584   5.569   2.372 -0.2061  1.5456 -0.3488
  180MOL0     H23744   6.198   5.289   2.198  2.1544  0.5255  0.5250
  180MOL0     H23745   5.974   5.192   2.211  0.9299 -1.9698  0.3190
  180MOL0     H23746   6.050   4.480   1.724 -2.7980  0.2147 -2.7217
  180MOL0     H23747   6.190   4.588   1.894  2.7687 -0.5406 -3.0386
  180MOL0     H23748   5.965   4.846   2.299 -0.1532  2.2955 -0.0265
  180MOL0     H23749   6.066   4.873   2.523 -1.9329  1.7223 -0.8904
  180MOL0     H23750   6.409   5.123   2.537  0.9409 -0.5200  0.6883
  180MOL0     H23751   6.484   4.973   2.579 -0.4269 -0.6935 -0.2709
  180MOL0     H23752   6.469   5.171   2.772  2.1196 -0.9021 -0.8931
  180MOL0     H23753   6.295   5.137   2.771 -0.6089 -2.9046  0.0632
  180MOL0     H23754   6.520   4.949   2.824  0.7593  1.5973  2.0678
  180MOL0     H23755   6.354   4.901   2.858  2.5757 -0.4487  3.5297
  180MOL0     H23756   6.512   5.123   2.990  1.6732 -0.7929 -2.7944
  180MOL0     H23757   6.340   5.092   3.002  1.9978  1.7736  0.0273
  180MOL0     H23758   6.508   4.749   3.209 -0.9883 -0.3799  0.3977
  180MOL0     H23759   6.431   4.976   2.359 -0.9010 -0.6747  3.5969
  180MOL0     H23760   6.337   4.930   2.116  1.0802 -1.8197  0.3215
  181MOL0     O23761   7.408   3.364   0.751  1.2011 -0.1478 -0.0005
  181MOL0     C23762   7.347   3.261   0.764  0.3553  0.5796 -0.5599
  181MOL0     O23763   7.333   3.162   0.670  0.1127 -0.1636  0.5384
  181MOL0     C23764   7.408   3.133   0.566 -0.7878  0.3733  0.5078
  181MOL0     C23765   7.531   3.190   0.544 -0.3791  0.6822 -0.4858
  181MOL0     C23766   7.619   3.154   0.442  0.8327  0.0802 -0.1382
  181MOL0     C23767   7.592   3.050   0.355  0.7661  0.7700  0.3189
  181MOL0     O23768   7.688   3.020   0.262 -0.2029 -0.8586 -0.2933
  181MOL0     C23769   7.689   2.895   0.192 -0.4535 -1.2756  0.1292
  181MOL0     C23770   7.821   2.867   0.119  0.4639  0.0877  0.5051
  181MOL0     C23771   7.948   2.849   0.218 -0.0801 -0.4259  1.2909
  181MOL0     C23772   8.078   2.863   0.129  0.0706  0.6649  0.4348
  181MOL0     C23773   8.203   2.897   0.217 -0.1489 -0.3981 -0.6248
  181MOL0     C23774   8.225   2.812   0.341 -0.5740  0.2233  0.2306
  181MOL0     C23775   8.325   2.865   0.437  0.7466 -0.7067  0.6935
  181MOL0     C23776   8.267   2.973   0.538 -0.0751  0.5827 -0.4291
  181MOL0     N23777   8.165   2.938   0.625  0.7652  0.6828  1.1494
  181MOL0     C23778   8.040   2.996   0.631  0.2183 -0.4185  0.3588
  181MOL0     C23779   7.962   2.924   0.713 -0.3354 -0.3395 -0.2866
  181MOL0     C23780   7.822   2.963   0.771 -0.6063  0.8443 -0.0270
  181MOL0     C23781   7.727   2.850   0.786  0.1240 -0.0366  0.1402
  181MOL0     C23782   7.582   2.884   0.835 -0.4437 -0.1624 -0.3075
  181MOL0     C23783   7.585   2.916   0.986  0.8213 -0.5002  0.4125
  181MOL0     O23784   7.528   2.810   1.066  0.2264  0.3381 -0.5910
  181MOL0     C23785   7.411   2.836   1.129 -0.0503 -0.1751  1.2419
  181MOL0     C23786   7.293   2.865   1.060  0.1146 -0.0630 -0.5151
  181MOL0     C23787   7.166   2.861   1.127 -0.8851 -0.2147  0.0126
  181MOL0     C23788   7.158   2.835   1.267  0.1761 -0.3413  0.1064
  181MOL0     C23789   7.031   2.857   1.340  0.2211 -0.8395  0.9051
  181MOL0     O23790   6.917   2.874   1.257 -0.5254 -0.2067  0.0437
  181MOL0     C23791   6.793   2.892   1.317  0.1722  0.0147 -0.2810
  181MOL0     C23792   6.733   3.017   1.318 -0.2000 -0.0183  0.4979
  181MOL0     C23793   6.602   3.030   1.372 -0.6468 -0.5017 -0.3966
  181MOL0     C23794   6.532   2.921   1.421  0.8252 -1.0097  0.5897
  181MOL0     O23795   6.409   2.929   1.476 -0.4625 -0.4403  0.0236
  181MOL0     C23796   6.293   2.974   1.408 -0.7472 -0.5156  0.5013
  181MOL0     C23797   6.178   2.982   1.501  0.8457  0.5138 -0.0212
  181MOL0     C23798   6.119   2.841   1.533 -0.9772  0.3135  0.0109
  181MOL0     C23799   6.037   2.797   1.411 -0.5328  0.5283  0.7279
  181MOL0     C23800   5.894   2.845   1.395 -0.0684 -0.9106  0.0523
  181MOL0     C23801   5.802   2.806   1.511  1.0810  0.4444  0.9382
  181MOL0     C23802   5.651   2.805   1.485 -0.0456 -1.5891 -0.2952
  181MOL0     C23803   5.594   2.945   1.440 -0.4034 -0.0153  0.2869
  181MOL0    Cl23804   5.646   3.096   1.528  0.1652  0.6865 -0.1054
  181MOL0     C23805   6.587   2.799   1.393 -0.1774  0.2933 -0.2590
  181MOL0     C23806   6.725   2.777   1.352  1.3763 -1.0788 -0.6697
  181MOL0     O23807   7.037   2.870   1.466  0.1353  0.5205  0.2800
  181MOL0     C23808   7.281   2.807   1.329  0.3300  0.1669  0.1623
  181MOL0     C23809   7.405   2.805   1.267 -0.4871 -0.0203  0.0176
  181MOL0     N23810   8.047   2.817   0.755  0.7069  0.6287 -0.7940
  181MOL0     N23811   8.165   2.832   0.709 -0.1695 -0.4125  0.1200
  181MOL0     C23812   7.471   2.992   0.379 -0.6388  0.0309  0.1366
  181MOL0     C23813   7.378   3.029   0.477 -0.2244  0.5750  0.3226
  181MOL0     C23814   7.265   3.252   0.891  0.3476  0.6240 -0.4586
  181MOL0     C23815   7.148   3.176   0.899  0.2487  0.2073  0.6818
  181MOL0     C23816   7.075   3.198   1.024  1.5737  1.3247 -0.3840
  181MOL0     C23817   7.118   3.271   1.137  0.2120  0.2624 -0.0647
  181MOL0     O23818   7.047   3.254   1.261 -0.0968 -1.5249  0.7631
  181MOL0     C23819   7.122   3.291   1.373 -0.3902 -0.5972 -0.2178
  181MOL0     C23820   7.058   3.260   1.506  0.7649  0.2265 -0.7720
  181MOL0     C23821   7.157   3.280   1.617 -0.5289 -0.8038 -1.0956
  181MOL0     C23822   7.220   3.428   1.619 -0.4989  0.1573  0.7857
  181MOL0     C23823   7.275   3.453   1.750  0.8743 -0.4986 -0.2381
  181MOL0     C23824   7.307   3.482   1.865  0.3424 -0.3026  0.4024
  181MOL0     C23825   7.244   3.341   1.124 -0.0448 -0.1972 -0.1435
  181MOL0     C23826   7.304   3.341   0.995 -0.7141  0.1963 -0.1943
  181MOL0     H23827   7.571   3.276   0.597  0.6814 -0.2476  0.2825
  181MOL0     H23828   7.714   3.207   0.436  0.9835  0.1435  2.0559
  181MOL0     H23829   7.604   2.899   0.123  1.7080  0.5832 -2.6433
  181MOL0     H23830   7.674   2.815   0.265  2.2312  0.4239  2.7493
  181MOL0     H23831   7.846   2.934   0.037  1.0067  0.2884  0.8260
  181MOL0     H23832   7.804   2.770   0.073 -2.2674 -0.7744  3.0181
  181MOL0     H23833   7.947   2.753   0.270  1.1088 -1.1613  0.0355
  181MOL0     H23834   7.940   2.925   0.296 -0.7713 -2.6789  3.5500
  181MOL0     H23835   8.105   2.775   0.070  2.0689 -1.2661  3.9434
  181MOL0     H23836   8.063   2.939   0.051  2.0315 -0.0327 -0.6874
  181MOL0     H23837   8.196   2.995   0.266  1.7059 -2.1784  3.7699
  181MOL0     H23838   8.293   2.896   0.156 -0.6114  2.0724 -1.4685
  181MOL0     H23839   8.255   2.713   0.308  0.3455  0.0774  1.4346
  181MOL0     H23840   8.134   2.797   0.400  0.6179 -1.7828  1.6911
  181MOL0     H23841   8.368   2.793   0.507  1.5932  0.2963  1.2197
  181MOL0     H23842   8.413   2.905   0.386 -0.0091 -0.7365 -0.6934
  181MOL0     H23843   8.237   3.062   0.481  0.7876  1.1557 -0.0212
  181MOL0     H23844   8.353   2.994   0.602 -0.8053  2.3481  0.0297
  181MOL0     H23845   8.009   3.083   0.573 -1.7904 -0.2866  1.5246
  181MOL0     H23846   7.768   3.036   0.710  0.8797  2.2618  0.2779
  181MOL0     H23847   7.836   3.022   0.862  0.3419 -2.1616  1.9195
  181MOL0     H23848   7.763   2.780   0.862 -1.6079  1.7943  2.8073
  181MOL0     H23849   7.719   2.802   0.688  2.2123  1.7743 -1.0127
  181MOL0     H23850   7.535   2.977   0.804 -2.7580 -0.9767  0.5870
  181MOL0     H23851   7.518   2.806   0.794  0.0377 -1.9782  2.1784
  181MOL0     H23852   7.517   3.001   0.992  2.0766  0.7975 -2.3384
  181MOL0     H23853   7.678   2.958   1.026  0.8688  1.3470 -1.4860
  181MOL0     H23854   7.296   2.906   0.959 -0.2598  1.0229 -0.0896
  181MOL0     H23855   7.078   2.904   1.080  0.6495  1.0064 -1.8822
  181MOL0     H23856   6.786   3.102   1.276 -0.6053 -0.3337 -0.6864
  181MOL0     H23857   6.562   3.128   1.395  0.1148 -0.5541  1.2864
  181MOL0     H23858   6.275   2.895   1.334 -4.1656  2.0018 -1.6525
  181MOL0     H23859   6.315   3.070   1.362  3.4802 -2.2034 -1.4989
  181MOL0     H23860   6.099   3.034   1.446  1.8755  3.6698  1.2621
  181MOL0     H23861   6.214   3.045   1.582 -0.1676  1.0793  0.0111
  181MOL0     H23862   6.064   2.834   1.627 -2.4697 -3.0172 -0.9459
  181MOL0     H23863   6.208   2.783   1.556 -1.4579  0.3024  2.0920
  181MOL0     H23864   6.098   2.817   1.323 -1.4085  0.6098  0.1323
  181MOL0     H23865   6.017   2.689   1.411 -0.2592  0.3965 -2.3417
  181MOL0     H23866   5.852   2.796   1.306  1.5964 -2.7940  0.2599
  181MOL0     H23867   5.901   2.955   1.393 -2.5665 -0.6785 -1.5049
  181MOL0     H23868   5.818   2.873   1.597 -1.8314  2.4708  0.0428
  181MOL0     H23869   5.829   2.705   1.544 -1.0076  0.0273  1.4947
  181MOL0     H23870   5.632   2.726   1.411  1.0304 -1.1784 -1.0408
  181MOL0     H23871   5.609   2.779   1.582  1.1376 -1.7817  0.1691
  181MOL0     H23872   5.485   2.953   1.451 -0.1786  0.7544  2.4419
  181MOL0     H23873   5.614   2.969   1.335  0.5191  3.2700  1.1018
  181MOL0     H23874   6.542   2.708   1.430  1.0887  0.1324  0.9324
  181MOL0     H23875   6.754   2.676   1.325 -0.2108 -1.1002 -2.5498
  181MOL0     H23876   7.287   2.807   1.437  0.6003  2.5905  0.2089
  181MOL0     H23877   7.489   2.785   1.333 -2.7629 -2.6195  2.4157
  181MOL0     H23878   7.431   2.914   0.315 -1.1345 -2.3629  3.1319
  181MOL0     H23879   7.289   2.967   0.480 -0.6958  0.8672 -3.4030
  181MOL0     H23880   7.132   3.120   0.808  0.4145 -0.4029  1.0186
  181MOL0     H23881   6.972   3.168   1.037  0.6693  4.0066 -0.6066
  181MOL0     H23882   7.134   3.399   1.360 -3.9344 -0.1014 -0.3391
  181MOL0     H23883   7.217   3.237   1.373  0.0291  0.1306 -1.1149
  181MOL0     H23884   6.975   3.331   1.510  0.8027  0.4257 -2.7279
  181MOL0     H23885   7.011   3.161   1.511  1.4945 -0.2363 -2.3738
  181MOL0     H23886   7.238   3.206   1.613 -0.7966 -1.0633 -2.7055
  181MOL0     H23887   7.104   3.262   1.711  1.4058  0.8121  0.4034
  181MOL0     H23888   7.289   3.446   1.535 -2.7416  0.2996 -1.1167
  181MOL0     H23889   7.134   3.494   1.604 -1.8403 -1.3031  1.7358
  181MOL0     H23890   7.352   3.507   1.959 -1.7321  0.7778  1.1776
  181MOL0     H23891   7.283   3.399   1.207  0.2447 -1.8136  0.8956
  181MOL0     H23892   7.396   3.397   0.987 -0.8458  0.2144 -1.8907
  182MOL0     O23893   9.979   4.795   4.778 -0.0888  0.7888  0.2405
  182MOL0     C23894   9.988   4.897   4.844 -0.4071 -0.7500 -0.1559
  182MOL0     O23895   9.970   5.026   4.792 -0.1595 -0.1712  0.2988
  182MOL0     C23896   9.942   5.035   4.655 -0.1594  0.3974 -0.0225
  182MOL0     C23897   9.828   4.966   4.602  0.2889 -0.0593 -0.0225
  182MOL0     C23898   9.793   4.970   4.467  0.3449 -0.7377  0.3306
  182MOL0     C23899   9.867   5.049   4.381  0.5341 -0.6637 -0.1519
  182MOL0     O23900   9.851   5.047   4.243  0.3066 -1.1571  0.1425
  182MOL0     C23901   9.741   4.964   4.186  0.7953 -0.0172  0.2653
  182MOL0     C23902   9.767   4.963   4.041 -0.7141  0.1447  0.1886
  182MOL0     C23903   9.664   4.902   3.958  0.2434  0.5540  0.8639
  182MOL0     C23904   9.694   4.907   3.811  0.2312  0.2087  0.1379
  182MOL0     C23905   9.582   4.847   3.719  0.4310  0.3346  0.1973
  182MOL0     C23906   9.595   4.698   3.694  1.0282 -0.9220 -0.0495
  182MOL0     C23907   9.519   4.665   3.560 -0.1914  0.6459  0.3412
  182MOL0     C23908   9.486   4.523   3.580  0.3875 -0.7862  0.1972
  182MOL0     N23909   9.408   4.467   3.462  1.0437 -0.0332 -0.8035
  182MOL0     C23910   9.437   4.373   3.368  0.3127 -1.3207 -1.7019
  182MOL0     C23911   9.315   4.347   3.311 -0.2620 -0.3253 -0.2089
  182MOL0     C23912   9.296   4.236   3.213  0.0134 -0.3082  0.0665
  182MOL0     C23913   9.362   4.248   3.080 -0.2913  0.3276 -0.6861
  182MOL0     C23914   9.512   4.203   3.066 -0.2918 -0.1909 -0.6698
  182MOL0     C23915   9.534   4.051   3.091  0.1947  1.1391  0.6566
  182MOL0     O23916   9.517   4.000   3.224 -0.0133 -0.0923 -0.1689
  182MOL0     C23917   9.594   4.041   3.335  0.5181  0.0931 -0.6914
  182MOL0     C23918   9.715   4.119   3.329 -0.3264 -0.5984 -0.5185
  182MOL0     C23919   9.787   4.153   3.446 -0.5526  0.5355 -0.8114
  182MOL0     C23920   9.747   4.109   3.574  0.6610 -0.2151 -0.1668
  182MOL0     C23921   9.827   4.131   3.691  0.5606  0.1629 -0.6539
  182MOL0     O23922   9.934   4.219   3.686 -0.4332 -0.0563 -0.4383
  182MOL0     C23923   9.967   4.275   3.807 -0.2618  0.3094 -0.2901
  182MOL0     C23924  10.094   4.257   3.871  0.1261 -0.2033 -0.3650
  182MOL0     C23925  10.123   4.309   4.002 -0.2132 -0.2605 -0.0606
  182MOL0     C23926  10.031   4.391   4.074  0.6327  0.0081  0.1121
  182MOL0     O23927  10.075   4.434   4.195  0.2783 -0.2804  0.0197
  182MOL0     C23928   9.976   4.505   4.266  0.1194  0.3022 -0.1601
  182MOL0     C23929  10.043   4.596   4.368 -0.0955  0.3870  0.1276
  182MOL0     C23930  10.071   4.743   4.327  0.7557  0.3608 -0.4913
  182MOL0     C23931  10.169   4.745   4.207 -0.2556  0.3106  0.0151
  182MOL0     C23932  10.187   4.890   4.174 -1.1892 -0.3975  0.7708
  182MOL0     C23933  10.327   4.949   4.206  0.7973  0.0593  0.2585
  182MOL0     C23934  10.332   5.099   4.179 -0.0678 -0.8313  0.0876
  182MOL0     C23935  10.466   5.165   4.195 -0.0781  0.2991  0.6586
  182MOL0    Cl23936  10.510   5.177   4.370  0.3009 -0.0398 -0.0794
  182MOL0     C23937   9.916   4.417   3.996  0.0417 -0.0235  0.1042
  182MOL0     C23938   9.882   4.364   3.870  0.0980 -0.0259  0.3885
  182MOL0     O23939   9.792   4.065   3.786 -0.5134  0.7649  0.1820
  182MOL0     C23940   9.620   4.045   3.582 -0.4371  0.8902  0.3946
  182MOL0     C23941   9.550   4.013   3.473  0.5698  0.6954  0.3162
  182MOL0     N23942   9.220   4.438   3.363 -0.7960  0.3931  0.9082
  182MOL0     N23943   9.282   4.503   3.454 -0.2484  0.5340  0.3857
  182MOL0     C23944   9.989   5.110   4.427 -0.9981 -0.7020  0.1782
  182MOL0     C23945  10.022   5.110   4.560  0.5047  0.4327 -0.5903
  182MOL0     C23946  10.008   4.879   4.998 -0.6589  0.4839 -0.4087
  182MOL0     C23947   9.991   4.986   5.091  0.6330 -0.1372 -0.8967
  182MOL0     C23948  10.022   4.971   5.230 -0.6062  0.7418  0.1005
  182MOL0     C23949  10.050   4.839   5.278  0.0244  0.3927 -1.0829
  182MOL0     O23950  10.085   4.805   5.404  0.3308  0.0820 -0.1253
  182MOL0     C23951  10.123   4.917   5.493  0.3802  0.0298 -0.2620
  182MOL0     C23952  10.270   4.961   5.478 -0.3436  0.4045  0.3531
  182MOL0     C23953  10.366   4.856   5.443 -0.6630 -0.4644  0.5929
  182MOL0     C23954  10.363   4.743   5.546  0.8594  0.2601 -0.5460
  182MOL0     C23955  10.498   4.686   5.543  0.1805  0.2526  1.9332
  182MOL0     C23956  10.594   4.617   5.560 -0.3008  0.2071  1.1211
  182MOL0     C23957  10.051   4.734   5.188 -1.2267 -0.1017  0.4320
  182MOL0     C23958  10.035   4.748   5.051  0.2740  0.2732  0.1645
  182MOL0     H23959   9.774   4.919   4.684  1.6920 -1.0310  0.3830
  182MOL0     H23960   9.700   4.924   4.437 -0.6270  1.5534 -0.3880
  182MOL0     H23961   9.642   4.998   4.217 -0.1717 -1.5649 -0.9489
  182MOL0     H23962   9.754   4.864   4.230 -1.8160  0.2182  1.7473
  182MOL0     H23963   9.859   4.911   4.015 -0.6378  1.2645 -2.0702
  182MOL0     H23964   9.779   5.070   4.020  0.8790 -0.5579 -3.0498
  182MOL0     H23965   9.572   4.961   3.972  1.1075  1.8315  1.4095
  182MOL0     H23966   9.654   4.798   3.988  1.0943 -0.1658 -1.1834
  182MOL0     H23967   9.718   5.011   3.785 -2.2161  0.7677 -0.2106
  182MOL0     H23968   9.787   4.857   3.785 -0.2986 -0.8967  0.2949
  182MOL0     H23969   9.591   4.896   3.622 -2.3498  0.3817 -0.1054
  182MOL0     H23970   9.485   4.871   3.762 -0.6690  0.3384 -2.1183
  182MOL0     H23971   9.546   4.644   3.776 -1.5214  2.5956  0.9861
  182MOL0     H23972   9.702   4.678   3.688  0.9997 -1.0994  0.0107
  182MOL0     H23973   9.433   4.731   3.547  0.5039  1.0537 -2.9202
  182MOL0     H23974   9.584   4.672   3.473  0.3630 -0.4700  0.6498
  182MOL0     H23975   9.426   4.502   3.669  3.3244 -3.2644  1.7882
  182MOL0     H23976   9.565   4.451   3.602 -2.0476 -3.0230  2.3000
  182MOL0     H23977   9.534   4.327   3.350  0.9201 -2.2115  2.7604
  182MOL0     H23978   9.188   4.227   3.198 -0.0314 -0.8067  0.6567
  182MOL0     H23979   9.330   4.145   3.264 -0.4630 -1.1996 -1.1480
  182MOL0     H23980   9.351   4.350   3.040 -0.4237 -0.8322 -3.9425
  182MOL0     H23981   9.296   4.187   3.018 -0.0001  0.4038 -1.0801
  182MOL0     H23982   9.531   4.229   2.962 -0.1131  0.7282 -0.4184
  182MOL0     H23983   9.578   4.272   3.119 -1.0004 -0.2872  0.3698
  182MOL0     H23984   9.629   4.015   3.051 -1.5532 -2.3954 -0.7719
  182MOL0     H23985   9.458   3.999   3.032  0.9251 -0.1787  0.8431
  182MOL0     H23986   9.759   4.146   3.233  1.2461  0.0568  0.3490
  182MOL0     H23987   9.872   4.219   3.458 -0.4472  0.7656 -2.5864
  182MOL0     H23988  10.162   4.189   3.821  1.8292 -0.9054  2.6736
  182MOL0     H23989  10.221   4.281   4.039 -0.6717 -3.9911 -1.2576
  182MOL0     H23990   9.904   4.442   4.318  0.5284  0.1126  0.1845
  182MOL0     H23991   9.910   4.554   4.194  1.7960 -4.6303 -5.9910
  182MOL0     H23992  10.132   4.552   4.413 -2.2202  0.7247  5.4813
  182MOL0     H23993   9.976   4.597   4.455  1.7367 -2.1293  1.6816
  182MOL0     H23994  10.117   4.790   4.414  5.3614  0.0110 -2.4334
  182MOL0     H23995   9.977   4.794   4.305  1.0009 -0.6863 -5.2208
  182MOL0     H23996  10.257   4.683   4.226 -0.7587 -0.2124  0.6629
  182MOL0     H23997  10.116   4.689   4.129  0.4007  0.1878 -0.3506
  182MOL0     H23998  10.111   4.947   4.228  0.6128  0.5623  2.3848
  182MOL0     H23999  10.159   4.901   4.069  1.4176  1.5728  0.1897
  182MOL0     H24000  10.419   4.909   4.161  1.4260  1.5996  0.1137
  182MOL0     H24001  10.339   4.934   4.313 -1.1687 -0.7235  0.4122
  182MOL0     H24002  10.296   5.122   4.078  4.3712  0.7476 -1.3491
  182MOL0     H24003  10.266   5.155   4.246 -0.9922 -1.6401 -0.1181
  182MOL0     H24004  10.468   5.260   4.142 -2.4805  1.0995  1.8419
  182MOL0     H24005  10.556   5.118   4.156  2.0905  2.9792  2.1208
  182MOL0     H24006   9.840   4.487   4.031  0.3091 -0.6497  2.0519
  182MOL0     H24007   9.787   4.377   3.818 -0.1029  0.2649  0.8192
  182MOL0     H24008   9.575   4.007   3.673  1.5661  1.0322  1.4937
  182MOL0     H24009   9.454   3.965   3.493  0.2248  0.5226 -1.5605
  182MOL0     H24010  10.062   5.153   4.360 -0.9481  0.1470  0.7725
  182MOL0     H24011  10.110   5.162   4.597 -0.5158  0.5202  1.9700
  182MOL0     H24012   9.962   5.082   5.050  1.0090 -0.0796 -1.0274
  182MOL0     H24013  10.008   5.051   5.301  2.0693 -0.2664  1.8974
  182MOL0     H24014  10.105   4.881   5.595  0.1879 -3.1199 -1.3056
  182MOL0     H24015  10.071   5.013   5.481 -0.6526 -0.8091 -3.2818
  182MOL0     H24016  10.291   5.031   5.398  5.5047 -1.1823  0.0600
  182MOL0     H24017  10.294   5.011   5.573 -1.4101 -0.6115  1.2021
  182MOL0     H24018  10.458   4.914   5.436 -0.1639 -1.4147 -1.6960
  182MOL0     H24019  10.337   4.829   5.340 -0.6022 -1.1728  0.7591
  182MOL0     H24020  10.322   4.771   5.644 -1.1876  1.1269 -1.5826
  182MOL0     H24021  10.300   4.660   5.513 -2.7606  2.9150 -0.9893
  182MOL0     H24022  10.673   4.548   5.583 -0.9405 -0.4019  1.5207
  182MOL0     H24023  10.068   4.633   5.223  2.6492 -0.2983 -1.4266
  182MOL0     H24024  10.054   4.662   4.987 -2.7998 -1.2187  1.0437
  183MOL0     O24025   1.369  10.515   0.868  0.3340 -0.3219 -0.5030
  183MOL0     C24026   1.439  10.591   0.930 -0.1367 -0.3029  0.6888
  183MOL0     O24027   1.569  10.565   0.976 -0.0455 -0.0660  0.3820
  183MOL0     C24028   1.630  10.449   0.931  0.1733  0.1024 -0.2370
  183MOL0     C24029   1.694  10.373   1.038 -1.1138 -0.3988  0.0218
  183MOL0     C24030   1.753  10.256   1.014 -0.3225 -0.0646  0.1117
  183MOL0     C24031   1.770  10.215   0.885 -0.7814 -0.1185  0.5298
  183MOL0     O24032   1.845  10.104   0.870  0.1030  0.0924  0.0082
  183MOL0     C24033   1.914  10.093   0.740  0.3660  0.3837 -0.7470
  183MOL0     C24034   2.019   9.984   0.749 -0.6836 -0.3199 -1.2961
  183MOL0     C24035   2.087   9.958   0.604  0.3972 -0.2851 -0.0406
  183MOL0     C24036   2.209   9.866   0.611  0.0717 -0.2277  0.1457
  183MOL0     C24037   2.280   9.835   0.474  0.3803  1.1448 -0.4973
  183MOL0     C24038   2.323   9.962   0.395 -0.1398 -0.8226 -0.5614
  183MOL0     C24039   2.433  10.048   0.464  0.5569 -0.1303 -0.4530
  183MOL0     C24040   2.525  10.139   0.380  0.3522 -0.4707  0.2913
  183MOL0     N24041   2.447  10.208   0.274  0.6907 -0.1635  0.3602
  183MOL0     C24042   2.347  10.306   0.293  0.0866 -0.2757 -0.1821
  183MOL0     C24043   2.305  10.318   0.167 -0.1294 -0.4184 -1.0773
  183MOL0     C24044   2.184  10.393   0.113  0.1931  0.2671  0.6069
  183MOL0     C24045   2.203  10.531   0.147  0.6187  0.0773 -0.1096
  183MOL0     C24046   2.096  10.614   0.072 -0.7737 -0.0149 -0.6469
  183MOL0     C24047   2.126  10.765   0.097 -0.2634  0.4503 -0.8178
  183MOL0     O24048   2.012  10.846   0.072  0.4332  0.1690 -0.1338
  183MOL0     C24049   2.036  10.982   0.103 -0.4724  0.1288 -0.6799
  183MOL0     C24050   2.097  11.076   0.006  0.6536  0.5958 -0.9579
  183MOL0     C24051   2.122  11.208   0.037  0.0811 -0.3985 -0.3548
  183MOL0     C24052   2.080  11.256   0.167 -0.6307 -0.2940  0.2054
  183MOL0     C24053   2.109  11.400   0.203  0.4081 -0.0832 -0.2888
  183MOL0     O24054   2.208  11.467   0.139 -0.5464 -0.1436 -0.5612
  183MOL0     C24055   2.237  11.600   0.179 -0.4573  0.2806 -0.7055
  183MOL0     C24056   2.194  11.702   0.086  0.2598  0.5795 -0.4325
  183MOL0     C24057   2.219  11.838   0.123 -0.6992  0.6752  1.3027
  183MOL0     C24058   2.273  11.869   0.249 -1.7652 -1.2475  0.0030
  183MOL0     O24059   2.311  11.998   0.278  0.1608  0.5444 -0.7261
  183MOL0     C24060   2.246  12.097   0.189 -0.0481 -1.0473 -0.5296
  183MOL0     C24061   2.248  12.231   0.256  0.1120 -0.5235 -0.1676
  183MOL0     C24062   2.116  12.249   0.339 -0.0578 -0.4864  0.9194
  183MOL0     C24063   2.126  12.369   0.430 -0.0876 -0.0735  0.3333
  183MOL0     C24064   2.151  12.503   0.363 -1.3001 -0.0025 -0.8525
  183MOL0     C24065   2.138  12.603   0.474  0.2206 -0.1655  0.0225
  183MOL0     C24066   2.162  12.749   0.444  0.2674  0.7199 -0.0328
  183MOL0     C24067   2.044  12.825   0.384 -0.8657 -0.6163 -0.2084
  183MOL0    Cl24068   1.899  12.805   0.486 -0.4544 -0.4159 -0.3342
  183MOL0     C24069   2.317  11.769   0.338  1.0878 -0.5817 -0.6773
  183MOL0     C24070   2.289  11.641   0.305  0.9222  0.6437  0.4198
  183MOL0     O24071   2.056  11.444   0.306  1.2752  0.4017 -0.4920
  183MOL0     C24072   2.011  11.170   0.254 -1.5503  0.5115 -0.3684
  183MOL0     C24073   1.987  11.033   0.220  0.0003 -0.4321 -0.2415
  183MOL0     N24074   2.386  10.255   0.073 -0.7673  0.5604  0.1608
  183MOL0     N24075   2.468  10.184   0.141  0.2706  0.2322 -0.5788
  183MOL0     C24076   1.702  10.282   0.780 -0.5523  0.4794 -0.4726
  183MOL0     C24077   1.625  10.388   0.806 -1.1647 -0.3362  0.0141
  183MOL0     C24078   1.395  10.730   0.950 -0.8961  0.8632 -0.4374
  183MOL0     C24079   1.277  10.778   0.892  0.2321 -0.2295 -0.0643
  183MOL0     C24080   1.245  10.914   0.915 -0.2552 -0.0951 -1.2682
  183MOL0     C24081   1.331  11.000   0.982 -1.2956  0.9740 -0.1527
  183MOL0     O24082   1.313  11.133   1.011 -0.1252 -0.4523  0.1286
  183MOL0     C24083   1.192  11.191   0.956 -0.6039  0.0364  0.2033
  183MOL0     C24084   1.228  11.213   0.805 -0.2352  0.4519 -0.8181
  183MOL0     C24085   1.103  11.279   0.742 -0.1933  0.1266  0.8949
  183MOL0     C24086   1.101  11.299   0.593  0.4278 -0.3175 -0.4738
  183MOL0     C24087   1.221  11.374   0.553 -0.5991  1.3117  0.0550
  183MOL0     C24088   1.323  11.440   0.543  0.2474 -0.2646  0.9904
  183MOL0     C24089   1.446  10.953   1.040  0.2145 -0.9272  0.4350
  183MOL0     C24090   1.484  10.820   1.019  1.1109 -0.5605  0.1641
  183MOL0     H24091   1.690  10.414   1.138  0.7830  3.5912 -1.3131
  183MOL0     H24092   1.809  10.204   1.091  1.0135  1.2850  0.0989
  183MOL0     H24093   1.969  10.180   0.704  0.9725  1.6224  2.7923
  183MOL0     H24094   1.835  10.058   0.673 -1.1904 -1.4743  1.8853
  183MOL0     H24095   1.986   9.886   0.786  0.1769 -0.2458 -0.2843
  183MOL0     H24096   2.090  10.026   0.821 -1.2550 -0.8522 -0.4073
  183MOL0     H24097   2.111  10.055   0.560 -0.7966 -0.0809 -0.2676
  183MOL0     H24098   2.012   9.926   0.532 -0.3821  0.8555  0.2434
  183MOL0     H24099   2.281   9.905   0.683  2.7669 -0.7113 -2.1055
  183MOL0     H24100   2.178   9.770   0.654  1.1740  0.2286  2.0657
  183MOL0     H24101   2.218   9.777   0.405  1.6367  0.9081 -1.4696
  183MOL0     H24102   2.372   9.780   0.490 -0.4116  0.1404  0.7751
  183MOL0     H24103   2.234  10.017   0.364 -1.0886 -1.2493  1.2184
  183MOL0     H24104   2.357   9.915   0.302 -1.5286  0.3404 -1.7008
  183MOL0     H24105   2.385  10.098   0.549 -1.2009 -2.5083  0.0498
  183MOL0     H24106   2.505   9.985   0.515  1.6735  0.6102 -1.0628
  183MOL0     H24107   2.596  10.068   0.337  0.0685 -2.1560  2.4711
  183MOL0     H24108   2.570  10.208   0.452 -1.2838  2.0808 -0.9642
  183MOL0     H24109   2.305  10.331   0.390  1.8246  0.1859  0.4924
  183MOL0     H24110   2.088  10.353   0.149  0.7226  0.2334  2.0548
  183MOL0     H24111   2.190  10.380   0.005 -0.1617  0.0316  0.6136
  183MOL0     H24112   2.310  10.548   0.133  1.6751 -4.0139  1.5396
  183MOL0     H24113   2.176  10.549   0.252  1.6182 -0.2462  0.2168
  183MOL0     H24114   2.092  10.594  -0.036 -0.5404 -0.4530 -0.5768
  183MOL0     H24115   2.000  10.594   0.119  0.3115  0.6854  2.0310
  183MOL0     H24116   2.198  10.805   0.025 -1.5128  0.6351 -2.0050
  183MOL0     H24117   2.168  10.788   0.196  3.4044 -1.0400 -1.8400
  183MOL0     H24118   2.114  11.033  -0.093 -1.7183  0.1776 -1.2452
  183MOL0     H24119   2.168  11.265  -0.043  1.0708 -3.9401 -2.5477
  183MOL0     H24120   2.149  11.691  -0.012 -0.7568  2.1582 -0.1733
  183MOL0     H24121   2.186  11.917   0.056  0.2379 -0.5808 -0.7564
  183MOL0     H24122   2.140  12.072   0.190 -0.3241  0.0952  0.1603
  183MOL0     H24123   2.290  12.108   0.089  1.6392  1.0999  0.3543
  183MOL0     H24124   2.255  12.321   0.193 -0.9786 -0.5331 -0.3379
  183MOL0     H24125   2.335  12.242   0.321  0.3480  2.7178 -0.8277
  183MOL0     H24126   2.106  12.160   0.402 -1.5977 -0.7877  0.2932
  183MOL0     H24127   2.029  12.257   0.273  2.4453  1.0938 -2.4576
  183MOL0     H24128   2.036  12.365   0.491 -0.8533 -4.8642 -0.7451
  183MOL0     H24129   2.216  12.357   0.492  1.6032  2.1084 -1.4830
  183MOL0     H24130   2.085  12.518   0.276  0.1298 -2.7684 -2.5264
  183MOL0     H24131   2.248  12.499   0.314 -0.7427 -1.0300  0.3055
  183MOL0     H24132   2.208  12.575   0.553 -0.2077  0.5939  0.6821
  183MOL0     H24133   2.037  12.591   0.513  1.5852 -1.6950  3.4779
  183MOL0     H24134   2.193  12.789   0.540 -0.9729 -2.1945  1.7049
  183MOL0     H24135   2.250  12.746   0.379  1.3185 -2.0297  1.3648
  183MOL0     H24136   2.016  12.791   0.283 -3.2331  1.3042 -0.3083
  183MOL0     H24137   2.073  12.931   0.383 -0.9583 -0.5812  0.5240
  183MOL0     H24138   2.346  11.795   0.439 -4.1470 -0.3688  1.0596
  183MOL0     H24139   2.313  11.560   0.373  1.9580 -1.4472 -2.2235
  183MOL0     H24140   1.977  11.192   0.355  1.1553 -1.1794  1.0182
  183MOL0     H24141   1.931  10.963   0.282 -0.7039 -0.9703 -1.4677
  183MOL0     H24142   1.701  10.256   0.674  0.8726  0.1112 -0.4168
  183MOL0     H24143   1.562  10.430   0.728 -3.0269  0.5135  1.8724
  183MOL0     H24144   1.210  10.724   0.827 -1.5168  0.0297  1.4303
  183MOL0     H24145   1.157  10.950   0.862 -0.5480  0.6312 -0.3149
  183MOL0     H24146   1.163  11.284   1.006 -0.3077 -1.0335  2.5079
  183MOL0     H24147   1.108  11.122   0.969 -0.1260 -0.9348 -1.5398
  183MOL0     H24148   1.313  11.281   0.795 -0.4686  1.6639  3.4946
  183MOL0     H24149   1.274  11.125   0.758 -0.6258 -0.4848  0.4913
  183MOL0     H24150   1.107  11.380   0.782  2.3057  1.6688 -2.7120
  183MOL0     H24151   1.014  11.220   0.766  0.3010 -2.5322 -2.8505
  183MOL0     H24152   1.099  11.202   0.542  1.4832 -1.2517  1.1589
  183MOL0     H24153   1.006  11.353   0.586 -0.7621 -1.6414  3.1557
  183MOL0     H24154   1.417  11.490   0.530  0.2981 -0.0014  2.1939
  183MOL0     H24155   1.514  11.014   1.098 -1.7157  0.0370  1.7813
  183MOL0     H24156   1.578  10.783   1.060  1.8956  2.1295  1.0220
  184MOL0     O24157   6.692   5.974   6.973 -0.2072 -0.6994 -0.2492
  184MOL0     C24158   6.667   5.916   7.074 -0.0216  0.5476 -0.4343
  184MOL0     O24159   6.626   5.973   7.183 -0.1313 -0.5093 -0.1155
  184MOL0     C24160   6.635   6.111   7.202 -0.4172 -0.7236  0.3980
  184MOL0     C24161   6.754   6.186   7.164  1.2428 -0.7433  0.9664
  184MOL0     C24162   6.763   6.319   7.221  0.5631  0.9019 -0.5038
  184MOL0     C24163   6.661   6.386   7.296  0.1679 -0.5511  0.5273
  184MOL0     O24164   6.653   6.516   7.343 -0.3790 -0.3432 -0.3119
  184MOL0     C24165   6.766   6.608   7.334  0.6179  0.4261  0.4950
  184MOL0     C24166   6.801   6.647   7.197 -0.3751  0.5058  0.6371
  184MOL0     C24167   6.880   6.774   7.208 -0.0967  1.0986 -0.2100
  184MOL0     C24168   6.779   6.894   7.196 -0.6309 -0.1952 -0.5965
  184MOL0     C24169   6.856   7.020   7.185 -0.3995 -0.1621 -0.3101
  184MOL0     C24170   6.759   7.143   7.156 -0.2119  0.0611  0.1783
  184MOL0     C24171   6.837   7.281   7.144  0.5742  0.3052  0.8774
  184MOL0     C24172   6.917   7.324   7.278 -0.1604  0.2297 -0.1293
  184MOL0     N24173   6.840   7.332   7.404  0.6318  0.1637  1.1294
  184MOL0     C24174   6.721   7.396   7.419  0.1285 -0.7064 -0.9850
  184MOL0     C24175   6.684   7.347   7.543 -0.1225  0.4579  0.6305
  184MOL0     C24176   6.541   7.354   7.597 -0.1953 -0.4143  0.1978
  184MOL0     C24177   6.451   7.474   7.557 -0.2175  0.2752 -1.6679
  184MOL0     C24178   6.309   7.456   7.601 -0.3900 -0.2882 -0.2515
  184MOL0     C24179   6.297   7.417   7.742 -0.0290  0.5410 -1.0694
  184MOL0     O24180   6.354   7.520   7.822  0.2421 -0.3654  0.3020
  184MOL0     C24181   6.271   7.625   7.867  0.0086 -0.4721 -0.0032
  184MOL0     C24182   6.133   7.627   7.886  0.1533 -0.2140 -0.4828
  184MOL0     C24183   6.069   7.734   7.950  0.3866 -0.1626  1.4633
  184MOL0     C24184   6.144   7.843   7.996 -0.2775 -0.3756  0.0207
  184MOL0     C24185   6.061   7.954   8.058 -0.1201  0.2561 -0.5914
  184MOL0     O24186   6.142   8.044   8.125 -0.4268  0.2461 -0.5607
  184MOL0     C24187   6.087   8.137   8.210  0.3444 -0.2321  0.2239
  184MOL0     C24188   6.174   8.242   8.233 -0.1870  0.6419 -0.6465
  184MOL0     C24189   6.143   8.359   8.306 -0.3756 -0.5165  0.0840
  184MOL0     C24190   6.023   8.357   8.366  0.0439  0.2108 -1.1824
  184MOL0     O24191   5.986   8.456   8.462  0.2990 -0.0018 -0.4073
  184MOL0     C24192   6.068   8.577   8.457  0.7294 -0.0636  0.6857
  184MOL0     C24193   6.036   8.671   8.338  1.1987 -0.4764 -0.0066
  184MOL0     C24194   5.936   8.787   8.378 -0.1515  0.2069 -1.2825
  184MOL0     C24195   5.916   8.888   8.267 -0.2983 -1.0723  0.6834
  184MOL0     C24196   5.828   9.007   8.315 -0.0571  0.0479  1.1135
  184MOL0     C24197   5.792   9.101   8.198 -0.7217 -0.2553 -1.2318
  184MOL0     C24198   5.669   9.193   8.225 -0.1380 -0.1237 -0.1968
  184MOL0     C24199   5.648   9.277   8.103  0.2014  0.3274  0.2604
  184MOL0    Cl24200   5.740   9.431   8.133  0.1957  0.2596  0.0329
  184MOL0     C24201   5.937   8.251   8.347  0.1733  0.1617  0.8866
  184MOL0     C24202   5.967   8.143   8.265 -0.6192  0.1585 -0.2503
  184MOL0     O24203   5.940   7.967   8.040  0.1551  0.0833  0.9894
  184MOL0     C24204   6.280   7.840   7.978  0.4832  0.6159 -1.0204
  184MOL0     C24205   6.347   7.737   7.916 -0.1519 -0.7610  0.7262
  184MOL0     N24206   6.790   7.280   7.607 -0.7076 -0.7943  0.6497
  184MOL0     N24207   6.880   7.265   7.521 -0.5458  0.2319 -0.1393
  184MOL0     C24208   6.541   6.320   7.314  0.0753  0.8329  0.9397
  184MOL0     C24209   6.531   6.178   7.271  0.5040 -0.8470  0.0545
  184MOL0     C24210   6.681   5.774   7.089  0.6753 -0.1510 -0.6457
  184MOL0     C24211   6.731   5.722   7.208  0.2963  0.9319  0.9979
  184MOL0     C24212   6.762   5.586   7.225 -1.2024  0.5362 -0.8390
  184MOL0     C24213   6.749   5.500   7.118 -0.1409 -0.4509  0.4284
  184MOL0     O24214   6.758   5.361   7.128  0.7945  0.2293  0.0801
  184MOL0     C24215   6.792   5.292   7.250  0.7828  0.1588  0.0106
  184MOL0     C24216   6.819   5.143   7.227 -0.5793  0.4448 -0.0232
  184MOL0     C24217   6.805   5.036   7.346  0.4121 -0.1580  0.6513
  184MOL0     C24218   6.933   5.047   7.431 -0.1470 -0.0723 -0.0301
  184MOL0     C24219   6.932   5.155   7.527 -0.0082  0.9048  0.4260
  184MOL0     C24220   6.939   5.248   7.595  1.2367 -0.0958 -0.9236
  184MOL0     C24221   6.713   5.552   6.997 -0.1533 -1.4248 -0.0884
  184MOL0     C24222   6.674   5.684   6.985 -1.0825 -0.5340  0.3403
  184MOL0     H24223   6.825   6.130   7.103 -1.3190 -2.3941 -0.6965
  184MOL0     H24224   6.859   6.366   7.206  1.1659  0.2634  1.0811
  184MOL0     H24225   6.855   6.572   7.386 -0.0862 -0.0698  1.3954
  184MOL0     H24226   6.730   6.691   7.394  0.1568  0.9089 -0.4260
  184MOL0     H24227   6.707   6.657   7.142  0.3195  0.5388 -0.5842
  184MOL0     H24228   6.868   6.571   7.155 -1.1371  0.3294 -0.2990
  184MOL0     H24229   6.951   6.787   7.126  0.5915  2.1769  0.5269
  184MOL0     H24230   6.933   6.790   7.303 -2.1960 -1.3784  1.5524
  184MOL0     H24231   6.726   6.880   7.102 -0.4127  0.4312 -0.8170
  184MOL0     H24232   6.716   6.914   7.283  0.1769 -0.2316  0.0138
  184MOL0     H24233   6.922   7.010   7.099  1.7516 -0.4916  1.3132
  184MOL0     H24234   6.922   7.031   7.271  1.7513 -1.4216 -1.7309
  184MOL0     H24235   6.686   7.152   7.237 -3.4496 -0.8749 -2.4005
  184MOL0     H24236   6.692   7.127   7.071 -1.0724  1.0190  0.6584
  184MOL0     H24237   6.906   7.253   7.062 -3.2729 -3.2480 -1.5661
  184MOL0     H24238   6.776   7.365   7.110 -0.9656 -0.9382  0.4549
  184MOL0     H24239   6.979   7.413   7.262  2.3730 -1.2457  0.8379
  184MOL0     H24240   6.998   7.251   7.287  0.0531  0.6349  1.6838
  184MOL0     H24241   6.671   7.461   7.348 -1.4646 -0.6602  0.1211
  184MOL0     H24242   6.554   7.364   7.705  2.7061  1.1163 -0.2114
  184MOL0     H24243   6.496   7.254   7.586 -1.1503 -0.4167  3.1407
  184MOL0     H24244   6.450   7.490   7.449 -2.4456 -0.5311 -1.8138
  184MOL0     H24245   6.498   7.563   7.601 -1.0709  0.5736 -1.3445
  184MOL0     H24246   6.258   7.551   7.585  0.2941  0.0924 -0.2401
  184MOL0     H24247   6.268   7.384   7.530  3.4493 -0.8001 -2.2050
  184MOL0     H24248   6.352   7.329   7.778 -2.9234 -0.2142  1.9788
  184MOL0     H24249   6.195   7.388   7.768  0.6084  0.0115  1.0199
  184MOL0     H24250   6.061   7.552   7.855  0.9567 -0.5140 -1.6977
  184MOL0     H24251   5.961   7.731   7.966  0.2704 -2.1437  0.6504
  184MOL0     H24252   6.276   8.226   8.198  0.1952  0.0506  0.6633
  184MOL0     H24253   6.227   8.428   8.307  0.8455 -1.9209 -0.5914
  184MOL0     H24254   6.174   8.552   8.462  0.2120 -2.2095  2.4959
  184MOL0     H24255   6.042   8.633   8.547 -0.4187 -1.3536  1.1982
  184MOL0     H24256   5.977   8.617   8.262  0.0530  1.9476 -0.9335
  184MOL0     H24257   6.136   8.710   8.318  1.4759 -1.7558 -1.2782
  184MOL0     H24258   5.972   8.851   8.459 -1.5069  0.1261 -0.5941
  184MOL0     H24259   5.843   8.740   8.412  0.5778 -0.3232  0.0844
  184MOL0     H24260   6.017   8.921   8.243 -0.6880  0.0713  0.5809
  184MOL0     H24261   5.873   8.850   8.173 -1.4682  3.7265 -1.0102
  184MOL0     H24262   5.876   9.061   8.397 -0.4388  0.4453  1.0748
  184MOL0     H24263   5.731   8.968   8.346 -1.0052 -0.7667 -2.4124
  184MOL0     H24264   5.783   9.048   8.102  0.1400  1.3702 -2.2542
  184MOL0     H24265   5.879   9.166   8.187 -0.1018 -0.6011  1.1331
  184MOL0     H24266   5.584   9.126   8.240  0.3005 -0.4368  1.0426
  184MOL0     H24267   5.690   9.252   8.315  2.8702 -2.0608  0.4927
  184MOL0     H24268   5.540   9.294   8.098  0.3070  1.8247  2.0582
  184MOL0     H24269   5.678   9.229   8.009 -0.5217 -0.7780  0.5760
  184MOL0     H24270   5.848   8.251   8.408 -0.5978 -3.7864  0.0468
  184MOL0     H24271   5.906   8.055   8.278  0.5623 -0.6704 -0.1678
  184MOL0     H24272   6.333   7.926   8.017 -1.0052  1.4456 -0.7673
  184MOL0     H24273   6.456   7.731   7.913 -0.0741 -3.1041  3.4540
  184MOL0     H24274   6.462   6.372   7.367 -0.5970  2.8170 -1.7379
  184MOL0     H24275   6.443   6.126   7.307  0.7645  1.2784  4.4945
  184MOL0     H24276   6.748   5.790   7.290 -0.5432  3.1022 -0.5523
  184MOL0     H24277   6.781   5.540   7.322  0.5457  1.4252 -0.7169
  184MOL0     H24278   6.715   5.283   7.327 -0.5644  0.3974 -1.2610
  184MOL0     H24279   6.882   5.338   7.293  1.0196 -0.1186 -0.1805
  184MOL0     H24280   6.742   5.110   7.157 -0.6812  0.3114  0.1500
  184MOL0     H24281   6.910   5.136   7.166  1.4784  0.7467  2.8271
  184MOL0     H24282   6.810   4.937   7.300  0.5344 -0.1418  0.6306
  184MOL0     H24283   6.720   5.052   7.413 -1.6035  0.5133 -1.8840
  184MOL0     H24284   6.952   4.954   7.486  0.4754  0.4747  0.7057
  184MOL0     H24285   7.019   5.066   7.365 -0.1477 -0.2638 -0.0881
  184MOL0     H24286   6.940   5.343   7.643 -1.1559 -0.1225 -0.7221
  184MOL0     H24287   6.702   5.488   6.910  0.1676  0.2008 -1.3707
  184MOL0     H24288   6.650   5.712   6.883 -3.8084 -1.8423  0.5528
  185MOL0     O24289   5.440  10.970   7.811  0.8371  0.2069  0.8741
  185MOL0     C24290   5.459  10.900   7.712  0.5064 -0.2395 -0.6720
  185MOL0     O24291   5.385  10.794   7.677 -0.3750  0.6503  0.4392
  185MOL0     C24292   5.297  10.730   7.763  0.2355 -0.0475  0.3637
  185MOL0     C24293   5.189  10.668   7.699  0.0756  0.0419  0.2598
  185MOL0     C24294   5.087  10.615   7.774  0.2806  0.1156 -0.0234
  185MOL0     C24295   5.079  10.618   7.910  0.2203  1.1956 -0.8872
  185MOL0     O24296   4.968  10.566   7.972  0.6947  0.6079 -0.9661
  185MOL0     C24297   4.969  10.529   8.111 -0.8700  0.1832 -0.0690
  185MOL0     C24298   4.863  10.420   8.163  0.1351 -0.1531 -1.3166
  185MOL0     C24299   4.887  10.382   8.310 -0.0824 -1.0850  0.3040
  185MOL0     C24300   4.783  10.304   8.379  0.8380  0.0150 -0.6350
  185MOL0     C24301   4.666  10.398   8.430  0.4762  0.3653 -0.5050
  185MOL0     C24302   4.695  10.454   8.570 -0.0046 -0.3070 -0.5576
  185MOL0     C24303   4.571  10.526   8.625  0.6380 -0.7221 -0.1896
  185MOL0     C24304   4.518  10.645   8.550 -0.6009  0.2071  0.8986
  185MOL0     N24305   4.623  10.746   8.539 -0.4217  0.6002 -0.3956
  185MOL0     C24306   4.599  10.871   8.585 -0.2750  0.1162 -0.1512
  185MOL0     C24307   4.699  10.945   8.530  0.1510 -0.2844  0.6566
  185MOL0     C24308   4.724  11.092   8.545 -0.6328  0.2874  0.3420
  185MOL0     C24309   4.778  11.127   8.678  0.0828 -0.1265  0.1558
  185MOL0     C24310   4.899  11.043   8.720  0.6457  0.1560 -0.3272
  185MOL0     C24311   5.020  11.075   8.633  0.2954  0.4182 -0.4728
  185MOL0     O24312   5.115  10.974   8.678  0.0545 -0.8486  0.5019
  185MOL0     C24313   5.251  11.013   8.666 -0.4313 -0.1995  0.7496
  185MOL0     C24314   5.315  11.054   8.545  0.1312  0.2501 -0.2279
  185MOL0     C24315   5.446  11.111   8.550 -0.5272 -0.0487 -0.2186
  185MOL0     C24316   5.514  11.127   8.673 -0.1458  0.1325  0.5588
  185MOL0     C24317   5.643  11.187   8.681 -0.4854  0.3144  0.6213
  185MOL0     O24318   5.710  11.213   8.562 -0.6747 -0.7497  0.3692
  185MOL0     C24319   5.844  11.243   8.569  0.6699  0.4385 -0.6227
  185MOL0     C24320   5.931  11.141   8.596  0.3340 -0.3770  0.3395
  185MOL0     C24321   6.067  11.158   8.595 -0.7721 -0.6400  0.2704
  185MOL0     C24322   6.122  11.279   8.575  0.0259 -0.6650 -0.0262
  185MOL0     O24323   6.265  11.307   8.588 -0.7836  0.2727  0.9296
  185MOL0     C24324   6.355  11.219   8.512  0.1338 -0.3295 -0.2782
  185MOL0     C24325   6.425  11.115   8.601  0.2705 -0.2969 -0.9323
  185MOL0     C24326   6.533  11.057   8.523  0.1910 -0.3143  0.3318
  185MOL0     C24327   6.657  11.149   8.542  0.1292  0.6202  0.3625
  185MOL0     C24328   6.747  11.143   8.427 -0.2852 -0.2982 -0.5740
  185MOL0     C24329   6.865  11.242   8.452 -0.6665 -0.1900 -0.5056
  185MOL0     C24330   6.933  11.291   8.327  0.6291  0.7252  0.0388
  185MOL0     C24331   6.859  11.359   8.221  0.4353 -0.3271 -0.4318
  185MOL0    Cl24332   6.980  11.417   8.093  0.0041  0.1059  0.1531
  185MOL0     C24333   6.038  11.386   8.540 -0.8704 -0.2743  0.3644
  185MOL0     C24334   5.896  11.369   8.532 -0.0371  0.7932 -0.6004
  185MOL0     O24335   5.691  11.209   8.793  0.4176 -0.0345 -0.4360
  185MOL0     C24336   5.442  11.097   8.791  0.1807 -0.1189  1.0316
  185MOL0     C24337   5.317  11.034   8.789 -0.6154 -0.4854 -0.1135
  185MOL0     N24338   4.777  10.858   8.452 -0.7355 -0.0209  0.0759
  185MOL0     N24339   4.734  10.739   8.458 -0.0310 -0.5943  0.3284
  185MOL0     C24340   5.189  10.671   7.980  0.3367  0.3924 -0.3040
  185MOL0     C24341   5.292  10.730   7.905 -0.2681 -0.0144 -0.3109
  185MOL0     C24342   5.584  10.929   7.644 -0.0166 -0.1001 -1.1389
  185MOL0     C24343   5.592  10.892   7.510  0.1233  0.1398 -0.1150
  185MOL0     C24344   5.712  10.894   7.448  0.5286  1.4569  0.0918
  185MOL0     C24345   5.828  10.965   7.495 -0.1705 -0.0959 -0.4488
  185MOL0     O24346   5.936  10.981   7.412  0.0674 -0.0853 -0.3330
  185MOL0     C24347   6.028  11.080   7.461 -0.1884  0.0287 -0.6988
  185MOL0     C24348   6.108  11.121   7.341  0.5412 -0.4701  0.8266
  185MOL0     C24349   6.237  11.198   7.389 -0.1227  0.6741 -0.1980
  185MOL0     C24350   6.344  11.230   7.285  0.3518 -0.1086  0.8750
  185MOL0     C24351   6.453  11.316   7.337  0.3854  0.1264  0.2373
  185MOL0     C24352   6.537  11.394   7.372  0.0112 -0.6566 -0.9986
  185MOL0     C24353   5.811  11.005   7.628 -1.1402 -0.3304 -0.3139
  185MOL0     C24354   5.697  10.985   7.706  0.4902  0.7522  0.4560
  185MOL0     H24355   5.177  10.661   7.592  1.7052 -1.1600  0.1137
  185MOL0     H24356   5.003  10.578   7.715  0.4388 -2.4512  1.2326
  185MOL0     H24357   4.966  10.621   8.170 -4.3460 -0.1247  0.4574
  185MOL0     H24358   5.063  10.477   8.131 -1.0921  0.2796  1.3580
  185MOL0     H24359   4.873  10.327   8.107 -4.1390 -1.2250 -0.6536
  185MOL0     H24360   4.759  10.444   8.137  0.0275 -0.4539 -1.1682
  185MOL0     H24361   4.911  10.472   8.366 -3.5049 -0.8449  1.6801
  185MOL0     H24362   4.977  10.323   8.326  0.8341  0.5487  1.4461
  185MOL0     H24363   4.745  10.237   8.301 -0.1226 -1.3557  0.9526
  185MOL0     H24364   4.819  10.241   8.460 -1.1212  1.0079  1.0995
  185MOL0     H24365   4.583  10.330   8.452  1.3258 -0.4136  0.3701
  185MOL0     H24366   4.635  10.472   8.356 -0.2553  0.6511  0.0790
  185MOL0     H24367   4.793  10.502   8.578  1.7659 -3.7637  0.3837
  185MOL0     H24368   4.709  10.366   8.633 -2.5490  0.0606  0.6497
  185MOL0     H24369   4.489  10.454   8.632  0.1617 -0.3061 -1.3149
  185MOL0     H24370   4.593  10.566   8.725 -0.4826  2.3269 -1.0487
  185MOL0     H24371   4.443  10.693   8.613 -1.2869  1.9806 -1.1623
  185MOL0     H24372   4.456  10.615   8.465 -3.8025 -1.1132  3.5077
  185MOL0     H24373   4.513  10.906   8.640 -1.6591 -2.7819 -0.2592
  185MOL0     H24374   4.628  11.142   8.528 -0.0566  1.1685 -0.4202
  185MOL0     H24375   4.797  11.134   8.475  0.0452 -1.1504  0.1631
  185MOL0     H24376   4.697  11.105   8.748 -1.2280  0.5620 -1.0906
  185MOL0     H24377   4.804  11.233   8.688  0.1301  0.0967 -1.9500
  185MOL0     H24378   4.909  11.073   8.825  1.6628  3.7685 -1.3196
  185MOL0     H24379   4.868  10.938   8.712 -4.8735  1.4891 -0.0240
  185MOL0     H24380   5.036  11.182   8.646 -0.7780  0.6455 -0.9072
  185MOL0     H24381   5.008  11.059   8.526  1.9190  0.7008 -0.7270
  185MOL0     H24382   5.259  11.048   8.452  0.2963 -1.6433 -0.2390
  185MOL0     H24383   5.481  11.147   8.454 -0.8221 -0.6038 -0.5313
  185MOL0     H24384   5.910  11.037   8.620  0.9759 -0.9781 -1.5462
  185MOL0     H24385   6.134  11.072   8.606  1.1831  0.0063 -4.2144
  185MOL0     H24386   6.423  11.287   8.460 -1.3457  1.5115  0.0694
  185MOL0     H24387   6.300  11.164   8.435  0.1795 -2.3431  1.0583
  185MOL0     H24388   6.355  11.038   8.633  0.0607  0.9968  2.1118
  185MOL0     H24389   6.468  11.161   8.691 -1.1315  0.3888 -0.5662
  185MOL0     H24390   6.500  11.045   8.420  0.8335  1.1499 -0.0774
  185MOL0     H24391   6.567  10.957   8.549  1.6571 -0.6548 -2.4967
  185MOL0     H24392   6.616  11.250   8.549  0.2894  0.8033 -1.0899
  185MOL0     H24393   6.710  11.116   8.632  0.9734 -0.2024 -0.4084
  185MOL0     H24394   6.675  11.181   8.354  3.0578  1.1885 -3.3996
  185MOL0     H24395   6.794  11.046   8.408  1.9633  0.3709  1.0847
  185MOL0     H24396   6.932  11.199   8.527 -3.0183  1.3172  2.7089
  185MOL0     H24397   6.832  11.335   8.499 -2.2658 -1.4037  0.9091
  185MOL0     H24398   7.023  11.351   8.349 -1.2736  3.5331  0.7076
  185MOL0     H24399   6.968  11.201   8.277 -0.1532  0.5814 -0.2484
  185MOL0     H24400   6.807  11.445   8.266 -0.8955 -0.4603 -1.6622
  185MOL0     H24401   6.794  11.284   8.177  1.7523 -4.6006  4.0225
  185MOL0     H24402   6.087  11.480   8.517 -0.1422 -0.6156  0.4914
  185MOL0     H24403   5.845  11.457   8.494 -1.2032  0.6703  0.6388
  185MOL0     H24404   5.483  11.111   8.890  0.5783  0.1027  0.8388
  185MOL0     H24405   5.264  11.010   8.880  0.8274 -2.5317  0.2455
  185MOL0     H24406   5.194  10.684   8.087 -0.0524 -0.5380 -0.1601
  185MOL0     H24407   5.370  10.788   7.953 -2.5964  3.1612  0.0077
  185MOL0     H24408   5.503  10.854   7.461 -0.4893  2.0232 -0.5347
  185MOL0     H24409   5.710  10.852   7.348 -0.6228  0.1580  0.6269
  185MOL0     H24410   6.088  11.037   7.542 -0.7504 -0.3469 -0.4731
  185MOL0     H24411   5.970  11.164   7.501  1.1095  1.2898 -1.4008
  185MOL0     H24412   6.140  11.024   7.302 -0.0783 -0.2720 -0.2033
  185MOL0     H24413   6.054  11.168   7.259  1.9919 -1.8922 -1.0348
  185MOL0     H24414   6.284  11.149   7.475 -0.7691 -1.6895 -1.1094
  185MOL0     H24415   6.188  11.283   7.438 -1.2059 -0.1395  0.1460
  185MOL0     H24416   6.395  11.139   7.254  2.1951  1.0916  0.2015
  185MOL0     H24417   6.306  11.274   7.193  2.1802 -1.7696 -0.7577
  185MOL0     H24418   6.624  11.455   7.382 -0.6942  0.3460 -0.8696
  185MOL0     H24419   5.892  11.050   7.684 -1.2647 -0.9726  0.3972
  185MOL0     H24420   5.698  11.009   7.812 -0.5093  1.0750  0.4048
  186MOL0     O24421   6.037   7.753  10.367 -0.0934 -0.1027 -0.5142
  186MOL0     C24422   6.085   7.742  10.252 -1.3912  0.5770  0.1540
  186MOL0     O24423   6.048   7.638  10.165 -0.2487 -0.4755 -0.6762
  186MOL0     C24424   5.937   7.568  10.209  0.5765  0.1135  0.2612
  186MOL0     C24425   5.924   7.491  10.319 -0.5429  0.9919  0.0490
  186MOL0     C24426   5.807   7.432  10.358  0.2173  0.2326  0.4832
  186MOL0     C24427   5.687   7.460  10.293 -0.1500 -0.1249 -0.1549
  186MOL0     O24428   5.563   7.427  10.336 -0.5165 -0.0081  1.1192
  186MOL0     C24429   5.552   7.282  10.375 -0.4497 -0.5300 -0.1168
  186MOL0     C24430   5.479   7.207  10.271  0.1912  0.5782 -0.3186
  186MOL0     C24431   5.425   7.076  10.325 -0.5140  0.4608 -0.5517
  186MOL0     C24432   5.359   7.001  10.212 -0.0061 -0.5857 -0.2351
  186MOL0     C24433   5.334   6.855  10.253 -0.3433  0.8276 -0.7304
  186MOL0     C24434   5.309   6.765  10.127 -0.7038 -0.0437 -0.6150
  186MOL0     C24435   5.314   6.618  10.177  0.0837  0.2922  0.3354
  186MOL0     C24436   5.190   6.565  10.235 -0.9490  1.3692 -0.2135
  186MOL0     N24437   5.197   6.430  10.288  0.6579 -0.0211  0.0176
  186MOL0     C24438   5.209   6.312  10.219  0.4218  0.8598 -0.1495
  186MOL0     C24439   5.205   6.211  10.308 -0.1990  0.4088  0.2285
  186MOL0     C24440   5.180   6.069  10.288 -0.1452  0.0840  0.4337
  186MOL0     C24441   5.278   5.970  10.360  0.0486 -0.9131 -0.4955
  186MOL0     C24442   5.217   5.896  10.482  0.2431  0.4601 -0.5330
  186MOL0     C24443   5.319   5.804  10.552 -0.5312  0.0032 -0.4056
  186MOL0     O24444   5.285   5.769  10.692  0.8347  0.7348  0.4420
  186MOL0     C24445   5.197   5.663  10.719 -0.0356 -0.7808 -0.9724
  186MOL0     C24446   5.201   5.537  10.664 -0.0100  1.3220  0.8171
  186MOL0     C24447   5.111   5.434  10.714 -1.0845 -0.1766 -0.5100
  186MOL0     C24448   5.015   5.456  10.813 -0.4503 -0.3577 -0.7274
  186MOL0     C24449   4.917   5.363  10.870  0.8730  1.2038  0.0087
  186MOL0     O24450   4.964   5.232  10.863  0.1954  0.1897 -0.3345
  186MOL0     C24451   4.880   5.137  10.904  0.1094 -0.7975 -0.0370
  186MOL0     C24452   4.825   5.117  11.029 -0.1302  0.2260 -0.1222
  186MOL0     C24453   4.742   5.005  11.057 -0.1255  0.4976 -0.2325
  186MOL0     C24454   4.700   4.915  10.963 -0.0999 -0.5298  0.1842
  186MOL0     O24455   4.609   4.812  10.981 -0.0352 -0.2646  0.6326
  186MOL0     C24456   4.488   4.808  10.892 -0.1490  0.2440 -0.2798
  186MOL0     C24457   4.440   4.656  10.884 -0.8079  0.0098  0.9259
  186MOL0     C24458   4.298   4.646  10.821  0.0014  0.3891 -0.2939
  186MOL0     C24459   4.278   4.510  10.757  1.0245 -0.5192  0.0552
  186MOL0     C24460   4.163   4.526  10.661  0.2424 -0.0882  0.6317
  186MOL0     C24461   4.122   4.378  10.626 -0.2317 -0.4698 -0.4623
  186MOL0     C24462   3.990   4.388  10.545 -0.8797  0.2849  1.0249
  186MOL0     C24463   3.953   4.244  10.527  1.1267  0.4957  0.2877
  186MOL0    Cl24464   3.876   4.181  10.674 -0.0854 -0.2102 -0.1123
  186MOL0     C24465   4.762   4.937  10.837  2.2899 -0.9332  0.6423
  186MOL0     C24466   4.850   5.043  10.809 -0.3418 -0.0295 -0.1695
  186MOL0     O24467   4.804   5.403  10.898 -0.1937 -0.3942 -0.6949
  186MOL0     C24468   5.016   5.583  10.869 -0.3653  0.1448  0.3217
  186MOL0     C24469   5.099   5.688  10.817  0.5970  0.5553  0.4591
  186MOL0     N24470   5.191   6.280  10.429 -0.3664 -0.6232  0.8094
  186MOL0     N24471   5.200   6.413  10.418  0.5649  0.0736  0.0636
  186MOL0     C24472   5.692   7.540  10.185 -0.1139  0.5987  0.8110
  186MOL0     C24473   5.812   7.590  10.143 -0.6079 -0.5663 -0.4800
  186MOL0     C24474   6.213   7.807  10.227  0.3986 -0.0367 -0.0653
  186MOL0     C24475   6.292   7.860  10.329 -0.5416  0.5165 -0.5248
  186MOL0     C24476   6.410   7.931  10.288  0.2394 -0.0757 -0.8852
  186MOL0     C24477   6.464   7.929  10.163 -0.1438  0.0260 -0.1892
  186MOL0     O24478   6.594   7.983  10.155 -0.3928 -0.4137 -0.0250
  186MOL0     C24479   6.657   7.957  10.032  0.6626  0.3239 -0.3546
  186MOL0     C24480   6.804   7.993  10.056 -0.0006 -0.4011  0.5540
  186MOL0     C24481   6.872   7.954  10.190 -0.3818  0.3361  0.4839
  186MOL0     C24482   6.881   7.805  10.212 -0.4780  0.5636 -0.5454
  186MOL0     C24483   6.929   7.797  10.352 -0.4349 -0.1589  0.5752
  186MOL0     C24484   6.989   7.805  10.450 -0.2139  0.6759 -0.7938
  186MOL0     C24485   6.398   7.850  10.080 -0.1924 -0.2986 -0.1444
  186MOL0     C24486   6.283   7.794  10.106  0.1306  1.3609 -0.6999
  186MOL0     H24487   6.013   7.468  10.377  0.1989 -1.1704 -1.8156
  186MOL0     H24488   5.790   7.370  10.445 -2.2142  0.5025  0.2759
  186MOL0     H24489   5.490   7.290  10.465  0.9524 -2.0940  1.0477
  186MOL0     H24490   5.643   7.224  10.395 -0.5695 -0.7194 -0.1225
  186MOL0     H24491   5.545   7.192  10.185  1.7599  2.5593  0.4638
  186MOL0     H24492   5.391   7.263  10.240 -2.9786 -3.9704 -0.4683
  186MOL0     H24493   5.365   7.092  10.415  2.0335 -0.5272  1.4185
  186MOL0     H24494   5.509   7.023  10.371  0.0596  2.7156  1.2125
  186MOL0     H24495   5.270   7.055  10.178  0.5593 -0.0382 -0.8554
  186MOL0     H24496   5.429   6.991  10.129  0.6080  0.3290  0.1576
  186MOL0     H24497   5.247   6.857  10.319  0.5981  2.9748  0.5324
  186MOL0     H24498   5.419   6.813  10.307 -1.6654  0.0733  0.8125
  186MOL0     H24499   5.387   6.780  10.052  0.2088 -0.8920  0.1411
  186MOL0     H24500   5.215   6.806  10.090 -0.1332  1.6976 -0.2488
  186MOL0     H24501   5.333   6.551  10.093 -0.6271  1.2016 -0.5904
  186MOL0     H24502   5.403   6.605  10.239  0.6713  0.2712 -0.5015
  186MOL0     H24503   5.119   6.566  10.152 -2.3392 -2.5448  0.7261
  186MOL0     H24504   5.146   6.636  10.306 -3.2126  3.0460 -3.0422
  186MOL0     H24505   5.212   6.307  10.111 -3.3398 -1.7556 -0.3273
  186MOL0     H24506   5.193   6.061  10.179  2.8084 -0.6913  0.7583
  186MOL0     H24507   5.078   6.034  10.308 -0.6096  0.2959 -1.3512
  186MOL0     H24508   5.364   6.027  10.396 -0.5543 -1.9955  3.0724
  186MOL0     H24509   5.308   5.891  10.291  1.3579 -1.3246  0.4984
  186MOL0     H24510   5.187   5.972  10.554 -4.2649  0.5122 -2.1710
  186MOL0     H24511   5.126   5.841  10.455 -1.1376  1.9868  0.8202
  186MOL0     H24512   5.415   5.856  10.556 -0.7026  0.2499  0.9217
  186MOL0     H24513   5.330   5.707  10.503  1.4481 -1.9126  3.4189
  186MOL0     H24514   5.278   5.517  10.591 -1.1102  2.5122 -0.7515
  186MOL0     H24515   5.118   5.331  10.682  1.0142 -0.3907  0.4958
  186MOL0     H24516   4.850   5.197  11.098 -2.5460  0.9669 -0.0480
  186MOL0     H24517   4.694   4.989  11.153 -0.8281 -2.1153 -0.9584
  186MOL0     H24518   4.504   4.848  10.792 -2.9383  0.5332 -0.6868
  186MOL0     H24519   4.406   4.866  10.936  1.9892  1.5973  2.2662
  186MOL0     H24520   4.436   4.596  10.975 -0.5641 -1.9168 -0.2703
  186MOL0     H24521   4.500   4.607  10.807 -4.4933  1.9980 -3.7495
  186MOL0     H24522   4.291   4.721  10.742  2.1389 -1.8313 -2.7813
  186MOL0     H24523   4.218   4.655  10.896 -0.6512 -1.6247 -0.6958
  186MOL0     H24524   4.357   4.472  10.692 -0.0499 -2.4706 -0.1744
  186MOL0     H24525   4.251   4.432  10.829 -2.5760 -0.9340 -1.5444
  186MOL0     H24526   4.188   4.585  10.573  1.4499 -2.0825 -0.4332
  186MOL0     H24527   4.078   4.584  10.698  0.1198  0.6572 -0.7564
  186MOL0     H24528   4.096   4.320  10.715 -3.5569  1.9756  0.3598
  186MOL0     H24529   4.201   4.323  10.575  0.4148 -0.4842  0.5300
  186MOL0     H24530   3.919   4.448  10.602 -0.5277 -2.6376  4.9645
  186MOL0     H24531   4.006   4.444  10.452  2.0004  1.2053  1.9659
  186MOL0     H24532   4.036   4.184  10.487 -0.0272  0.2989 -1.9613
  186MOL0     H24533   3.880   4.237  10.445  2.1630 -2.7255 -0.5082
  186MOL0     H24534   4.754   4.860  10.761  1.5578  0.8990 -1.2398
  186MOL0     H24535   4.888   5.057  10.708 -0.1231  0.2162 -0.0544
  186MOL0     H24536   4.940   5.610  10.941 -1.8889  1.2394 -1.6171
  186MOL0     H24537   5.084   5.790  10.851 -4.3736 -0.0420  0.7990
  186MOL0     H24538   5.601   7.554  10.128 -0.1449  2.9245  1.3311
  186MOL0     H24539   5.818   7.666  10.065  0.0519 -0.0325  0.0694
  186MOL0     H24540   6.259   7.892  10.427  2.1823  0.2521  0.5563
  186MOL0     H24541   6.458   7.978  10.373 -0.6557  0.5978 -0.7482
  186MOL0     H24542   6.613   8.022   9.956  0.9308  0.2660 -0.5633
  186MOL0     H24543   6.653   7.851  10.006 -0.8080  0.6184 -1.4237
  186MOL0     H24544   6.858   7.945   9.974  0.5329 -2.6877  2.1318
  186MOL0     H24545   6.806   8.102  10.046  0.7255 -0.4722 -0.1545
  186MOL0     H24546   6.818   7.992  10.277 -0.8442 -2.8435  1.7490
  186MOL0     H24547   6.970   8.002  10.186 -0.3260  0.4211  2.1536
  186MOL0     H24548   6.786   7.751  10.219  0.7959 -1.6784  0.4785
  186MOL0     H24549   6.947   7.757  10.139 -0.2029 -0.7849  0.5485
  186MOL0     H24550   7.045   7.802  10.541  1.1365  0.9074 -1.5885
  186MOL0     H24551   6.428   7.836   9.976 -0.4579  1.4820 -0.4801
  186MOL0     H24552   6.233   7.736  10.028 -0.1867 -2.7233  2.1710
  187MOL0     O24553   6.292   7.068   7.723  0.4877 -0.4331  0.0300
  187MOL0     C24554   6.249   6.954   7.695 -0.5830 -0.8650  0.1295
  187MOL0     O24555   6.174   6.869   7.774 -0.1770 -0.1351  1.4997
  187MOL0     C24556   6.149   6.916   7.902  0.8018  1.2421  0.0102
  187MOL0     C24557   6.012   6.928   7.935  0.4772  0.1432  0.3140
  187MOL0     C24558   5.970   6.970   8.061 -0.0450  0.1251  0.4530
  187MOL0     C24559   6.067   7.004   8.165  0.0408  0.0269  0.1843
  187MOL0     O24560   6.022   7.027   8.293 -0.1346  0.1562  0.5880
  187MOL0     C24561   6.064   7.153   8.351 -0.5591 -0.8412  0.1589
  187MOL0     C24562   6.116   7.120   8.495 -0.2084 -0.8926 -0.2658
  187MOL0     C24563   6.171   7.242   8.569 -0.2918 -0.0599 -0.0937
  187MOL0     C24564   6.054   7.326   8.636  0.1865  0.3106  0.2001
  187MOL0     C24565   6.098   7.421   8.745  1.0177  0.0623  0.5238
  187MOL0     C24566   5.977   7.500   8.803 -0.2257 -1.0539 -0.2580
  187MOL0     C24567   5.995   7.570   8.939  0.4399  0.5983  0.5443
  187MOL0     C24568   6.117   7.658   8.948 -0.4771  0.0703 -0.6776
  187MOL0     N24569   6.079   7.806   8.933  0.9002  0.3030  0.5978
  187MOL0     C24570   6.018   7.884   9.033  0.5179 -0.7570  0.2835
  187MOL0     C24571   5.982   8.006   8.983  0.7328 -0.2985  0.6832
  187MOL0     C24572   5.903   8.109   9.063 -0.0409  0.1201  0.3927
  187MOL0     C24573   5.770   8.045   9.109  0.2045 -0.4004 -0.1243
  187MOL0     C24574   5.688   8.002   8.987  0.4776  0.7868  0.5752
  187MOL0     C24575   5.549   7.954   9.024  0.8814 -0.9205 -0.6151
  187MOL0     O24576   5.483   7.933   8.900 -0.1942  0.2545 -0.4304
  187MOL0     C24577   5.489   7.808   8.841 -0.1041  0.3931  0.6534
  187MOL0     C24578   5.441   7.814   8.710 -0.4864  1.3761 -0.5923
  187MOL0     C24579   5.447   7.691   8.636 -0.0322 -0.7568  0.5958
  187MOL0     C24580   5.498   7.566   8.692  0.8029  0.4354 -1.1476
  187MOL0     C24581   5.494   7.444   8.614  0.9738  0.0213  0.3627
  187MOL0     O24582   5.546   7.330   8.671  0.5274 -0.2606 -0.3246
  187MOL0     C24583   5.550   7.216   8.597 -0.1227  0.8229 -0.5026
  187MOL0     C24584   5.651   7.165   8.519  0.1204  0.4533 -0.5861
  187MOL0     C24585   5.646   7.044   8.457 -0.4425  0.1935 -0.3388
  187MOL0     C24586   5.527   6.967   8.459  0.2805 -0.8707  0.0127
  187MOL0     O24587   5.515   6.854   8.395  0.4808  0.4117 -0.6376
  187MOL0     C24588   5.518   6.734   8.472  0.6018 -0.4259 -0.8703
  187MOL0     C24589   5.567   6.627   8.376  0.3581  0.1578  0.4876
  187MOL0     C24590   5.712   6.633   8.356  0.1832  0.5355 -0.2737
  187MOL0     C24591   5.759   6.538   8.245  0.6027  0.2105  0.4263
  187MOL0     C24592   5.718   6.597   8.104  0.2151 -0.2247  0.3986
  187MOL0     C24593   5.765   6.520   7.977 -0.7277  0.1846 -1.0434
  187MOL0     C24594   5.903   6.552   7.930 -0.2312  0.5569  0.3197
  187MOL0     C24595   5.942   6.487   7.797 -0.0711  0.0534 -0.1816
  187MOL0    Cl24596   5.846   6.536   7.651 -0.2851  0.1875  0.2136
  187MOL0     C24597   5.418   7.021   8.531 -0.2812  0.6553 -0.5604
  187MOL0     C24598   5.439   7.136   8.604  0.2497 -0.8057 -0.7581
  187MOL0     O24599   5.461   7.448   8.493 -0.2822  0.8179  0.2048
  187MOL0     C24600   5.540   7.572   8.828  0.7839 -0.3625 -0.7466
  187MOL0     C24601   5.543   7.693   8.901  0.9304  0.6150  0.0155
  187MOL0     N24602   6.026   8.012   8.853  0.9566 -0.7846 -0.8756
  187MOL0     N24603   6.077   7.893   8.823  1.4666  0.2670  0.1387
  187MOL0     C24604   6.210   6.995   8.129  0.3577 -0.0927 -0.0113
  187MOL0     C24605   6.234   6.939   8.004 -0.6047 -1.2676 -0.5506
  187MOL0     C24606   6.298   6.891   7.573  0.0416  0.6126 -0.3958
  187MOL0     C24607   6.239   6.768   7.533 -0.3689  0.1796 -0.1182
  187MOL0     C24608   6.283   6.706   7.417  0.3163 -0.2104 -0.6222
  187MOL0     C24609   6.373   6.772   7.326  0.5892  1.2029  0.0621
  187MOL0     O24610   6.417   6.713   7.207 -0.4430  0.2829  0.1172
  187MOL0     C24611   6.319   6.644   7.128  0.2889 -0.2695 -0.6007
  187MOL0     C24612   6.385   6.613   6.987  0.3261 -0.1692  0.1029
  187MOL0     C24613   6.427   6.748   6.918 -0.0184  0.1497 -0.7906
  187MOL0     C24614   6.567   6.730   6.853  0.0515  0.3991  0.0548
  187MOL0     C24615   6.594   6.836   6.754  0.7286 -0.6685 -0.3047
  187MOL0     C24616   6.602   6.921   6.669 -0.9760  0.6808  0.0938
  187MOL0     C24617   6.414   6.898   7.363  0.7184 -0.0854 -0.8767
  187MOL0     C24618   6.398   6.949   7.494  0.1812  0.2844 -0.5697
  187MOL0     H24619   5.940   6.900   7.859  2.0541  0.1560 -1.2477
  187MOL0     H24620   5.866   6.975   8.091 -0.5046  0.6211 -1.1535
  187MOL0     H24621   5.980   7.224   8.346 -0.5470 -0.9176 -1.7652
  187MOL0     H24622   6.141   7.203   8.292  0.9420 -2.7351  0.4184
  187MOL0     H24623   6.209   7.063   8.485  0.0464 -0.8795  1.6408
  187MOL0     H24624   6.033   7.069   8.547  0.2693 -0.7019  0.6931
  187MOL0     H24625   6.221   7.313   8.502 -1.4810  0.0507 -0.9033
  187MOL0     H24626   6.249   7.215   8.640 -1.6198  0.0974  1.4881
  187MOL0     H24627   6.002   7.382   8.557  0.0584 -0.4536 -0.2708
  187MOL0     H24628   5.977   7.256   8.671  0.6234 -0.7636 -0.8853
  187MOL0     H24629   6.185   7.483   8.721  0.2282  0.7734 -0.6367
  187MOL0     H24630   6.155   7.373   8.825  3.6004 -0.2482 -1.3997
  187MOL0     H24631   5.895   7.428   8.816 -0.3834 -0.4727  2.5352
  187MOL0     H24632   5.950   7.581   8.734  0.5467 -0.3755  0.2216
  187MOL0     H24633   5.906   7.631   8.957 -0.3809  0.8075 -3.4500
  187MOL0     H24634   6.006   7.495   9.019 -1.9753 -0.8590 -0.3889
  187MOL0     H24635   6.197   7.634   8.877  0.4257 -3.8573  1.3945
  187MOL0     H24636   6.155   7.649   9.050 -0.2259  0.7018 -0.7096
  187MOL0     H24637   6.006   7.846   9.134  3.9753 -0.3429  0.9889
  187MOL0     H24638   5.883   8.198   9.001 -1.8682 -0.1704  0.4994
  187MOL0     H24639   5.959   8.143   9.150  0.4852  3.1238 -0.9716
  187MOL0     H24640   5.706   8.119   9.159 -0.0632  1.2297 -2.6468
  187MOL0     H24641   5.782   7.962   9.179 -2.3555 -0.5839  0.2210
  187MOL0     H24642   5.681   8.087   8.919 -0.2732  3.3632  3.6027
  187MOL0     H24643   5.739   7.918   8.939  1.3418  1.5223  0.1879
  187MOL0     H24644   5.497   8.034   9.077 -1.7997 -0.6495 -3.3803
  187MOL0     H24645   5.547   7.858   9.078  1.3481 -1.9319 -2.3144
  187MOL0     H24646   5.404   7.908   8.671 -1.4118  1.8989  1.4014
  187MOL0     H24647   5.400   7.693   8.538  3.3564 -0.1472 -1.1635
  187MOL0     H24648   5.744   7.220   8.517  0.3386  0.1573  0.7022
  187MOL0     H24649   5.740   7.009   8.417 -0.0992  1.6052 -0.7988
  187MOL0     H24650   5.417   6.709   8.507  1.4072 -0.7645  1.3880
  187MOL0     H24651   5.575   6.739   8.566 -1.9555 -1.4747  0.8530
  187MOL0     H24652   5.507   6.645   8.286  0.8903  0.5276  0.1997
  187MOL0     H24653   5.543   6.528   8.417  3.5563 -1.1999 -0.5764
  187MOL0     H24654   5.753   6.610   8.455 -3.0886 -2.7978  0.5190
  187MOL0     H24655   5.735   6.735   8.322  2.2597 -0.1741 -1.1190
  187MOL0     H24656   5.863   6.507   8.252  0.3102 -1.1637 -0.7725
  187MOL0     H24657   5.693   6.451   8.253 -1.3216  1.3375 -1.6972
  187MOL0     H24658   5.753   6.699   8.086  2.2482 -0.9305  0.1292
  187MOL0     H24659   5.609   6.603   8.101  0.0109 -3.0576 -0.5267
  187MOL0     H24660   5.697   6.531   7.892 -2.7308 -3.7013 -0.2280
  187MOL0     H24661   5.773   6.414   8.006 -0.7990  0.9095  1.9192
  187MOL0     H24662   5.922   6.659   7.925  1.2881  0.2755 -1.2722
  187MOL0     H24663   5.973   6.516   8.006 -1.3441 -2.7519 -0.0641
  187MOL0     H24664   5.905   6.384   7.803  1.2181 -0.3647  0.9978
  187MOL0     H24665   6.048   6.495   7.771  0.1363  3.4957  1.2472
  187MOL0     H24666   5.321   6.973   8.531  0.6664 -1.3860 -0.3288
  187MOL0     H24667   5.373   7.182   8.677 -0.0849 -0.4041 -1.3073
  187MOL0     H24668   5.587   7.480   8.860  0.0817 -1.5020 -2.7922
  187MOL0     H24669   5.569   7.679   9.006 -0.1400  2.9091  0.6525
  187MOL0     H24670   6.291   7.030   8.192  0.2282  1.2549 -0.5566
  187MOL0     H24671   6.340   6.942   7.982  0.2797  1.5076  3.1253
  187MOL0     H24672   6.173   6.709   7.596 -3.8232  1.5087 -2.2063
  187MOL0     H24673   6.255   6.604   7.394 -2.5994 -0.7108  3.7850
  187MOL0     H24674   6.228   6.703   7.119 -0.2744 -1.2223 -1.3538
  187MOL0     H24675   6.301   6.551   7.183  3.2114 -0.8790 -0.4989
  187MOL0     H24676   6.468   6.542   6.998 -0.6469 -1.3947 -0.2406
  187MOL0     H24677   6.313   6.564   6.921 -0.1924  0.8375 -0.0965
  187MOL0     H24678   6.440   6.818   7.001  1.5012 -2.7247  1.5907
  187MOL0     H24679   6.361   6.776   6.835 -0.3454 -1.8204 -1.2340
  187MOL0     H24680   6.647   6.714   6.925  0.7021  1.2829 -0.4565
  187MOL0     H24681   6.577   6.638   6.794  1.3405 -0.7728  2.0018
  187MOL0     H24682   6.593   6.977   6.578 -3.5540 -2.4388 -1.8155
  187MOL0     H24683   6.486   6.957   7.306  1.5558  0.7382  0.9580
  187MOL0     H24684   6.453   7.032   7.537 -0.5795  0.6963 -0.3766
  188MOL0     O24685   2.306   6.831   8.390  0.7979  1.0002  0.0322
  188MOL0     C24686   2.368   6.756   8.463  0.3608  0.2275  1.0703
  188MOL0     O24687   2.396   6.623   8.429  0.1915  0.5075  0.4090
  188MOL0     C24688   2.339   6.579   8.314  0.1202  0.0729  0.0801
  188MOL0     C24689   2.400   6.597   8.192 -0.9717  0.4053 -1.0567
  188MOL0     C24690   2.343   6.549   8.076  0.1294 -0.4566 -0.1005
  188MOL0     C24691   2.207   6.501   8.074 -1.0242 -0.7474  1.4246
  188MOL0     O24692   2.153   6.457   7.952  0.8461 -0.3400  0.2060
  188MOL0     C24693   2.018   6.497   7.927  0.3723 -0.3474  0.5086
  188MOL0     C24694   1.990   6.542   7.783  0.7506 -0.6874 -0.4131
  188MOL0     C24695   1.852   6.597   7.769 -0.0953 -0.1510 -0.1969
  188MOL0     C24696   1.831   6.648   7.629  1.1319 -0.0821 -0.3388
  188MOL0     C24697   1.826   6.549   7.514  0.9847  0.3935  0.4275
  188MOL0     C24698   1.755   6.602   7.389  0.9235  0.4562  0.1271
  188MOL0     C24699   1.603   6.593   7.430 -0.5820 -0.6332 -0.5431
  188MOL0     C24700   1.519   6.647   7.316 -0.1689 -0.1068  0.1328
  188MOL0     N24701   1.378   6.681   7.343 -0.3577 -0.6483 -0.9389
  188MOL0     C24702   1.290   6.686   7.236  0.0808  0.0238  0.2627
  188MOL0     C24703   1.165   6.672   7.290 -0.4151 -0.1131  0.7026
  188MOL0     C24704   1.035   6.678   7.210 -0.4420  0.5256 -0.1491
  188MOL0     C24705   1.048   6.626   7.063  0.4774  0.5208  0.4001
  188MOL0     C24706   1.092   6.732   6.969 -0.6178 -0.9326  0.5767
  188MOL0     C24707   1.092   6.675   6.835 -0.6047  0.7464  0.4323
  188MOL0     O24708   1.141   6.773   6.745  0.0617  0.4996 -0.3712
  188MOL0     C24709   1.222   6.740   6.635 -0.4443  0.8526 -0.4940
  188MOL0     C24710   1.306   6.840   6.601  0.4935  0.4033  0.4717
  188MOL0     C24711   1.379   6.835   6.475 -0.7947 -0.6855 -0.1601
  188MOL0     C24712   1.373   6.713   6.398  0.9256 -0.4046  0.2891
  188MOL0     C24713   1.447   6.694   6.278 -0.4705 -0.4326  0.9136
  188MOL0     O24714   1.469   6.565   6.233  1.1036 -0.2083  0.2449
  188MOL0     C24715   1.574   6.546   6.150  0.1602  1.0436 -0.5164
  188MOL0     C24716   1.552   6.502   6.025  0.4831 -0.0145  0.2039
  188MOL0     C24717   1.657   6.488   5.937 -0.3181 -0.0762  0.7020
  188MOL0     C24718   1.790   6.516   5.976  0.0126 -0.0553  0.8149
  188MOL0     O24719   1.899   6.511   5.894 -0.2462 -0.1671  0.0393
  188MOL0     C24720   2.037   6.509   5.945 -0.1414  0.4992  0.0505
  188MOL0     C24721   2.120   6.418   5.853 -0.6867 -0.0325 -0.9306
  188MOL0     C24722   2.159   6.467   5.712 -0.2536 -0.5520 -0.1027
  188MOL0     C24723   2.286   6.401   5.668 -0.5200  0.0299  0.9002
  188MOL0     C24724   2.288   6.385   5.506  0.0197  0.0767 -0.1449
  188MOL0     C24725   2.397   6.270   5.473  0.4081 -0.8977 -0.4134
  188MOL0     C24726   2.421   6.241   5.328 -0.1589  0.1097  0.0330
  188MOL0     C24727   2.536   6.145   5.302 -0.8422  0.0176  0.7406
  188MOL0    Cl24728   2.516   5.970   5.334  0.0933  0.1042 -0.0647
  188MOL0     C24729   1.809   6.563   6.102  0.0020 -0.9018 -0.6605
  188MOL0     C24730   1.707   6.579   6.196  0.6654 -0.5187  0.4260
  188MOL0     O24731   1.496   6.794   6.221  0.2742 -0.4121 -0.0834
  188MOL0     C24732   1.294   6.606   6.447 -0.2476  0.8171 -0.9515
  188MOL0     C24733   1.216   6.624   6.563 -0.0717  1.1054  0.2020
  188MOL0     N24734   1.182   6.670   7.429 -0.2365 -0.7609  0.5088
  188MOL0     N24735   1.306   6.669   7.457 -1.0097 -0.5245  0.1003
  188MOL0     C24736   2.145   6.492   8.196  0.8875  1.1602  0.1006
  188MOL0     C24737   2.215   6.538   8.317  0.4373  0.9019 -0.3534
  188MOL0     C24738   2.408   6.804   8.595  0.0426 -0.0801  0.3106
  188MOL0     C24739   2.336   6.906   8.658 -0.3849  0.1462 -0.8140
  188MOL0     C24740   2.383   6.953   8.781  0.3184 -0.4032  0.1814
  188MOL0     C24741   2.502   6.905   8.839 -0.1561 -0.2173  0.4231
  188MOL0     O24742   2.567   6.972   8.938  0.6780  0.2822  0.6077
  188MOL0     C24743   2.561   7.107   8.950  0.5103 -0.8985 -0.3872
  188MOL0     C24744   2.649   7.153   9.059  0.0302 -0.5274 -0.8362
  188MOL0     C24745   2.672   7.299   9.064 -0.0524 -0.6387  0.5497
  188MOL0     C24746   2.802   7.328   9.137 -0.5890 -1.5508 -0.5908
  188MOL0     C24747   2.848   7.475   9.119 -0.3609  0.8756 -0.7288
  188MOL0     C24748   2.891   7.577   9.072  0.0581 -0.6056  0.9619
  188MOL0     C24749   2.565   6.798   8.779 -0.2024  0.5608  0.9366
  188MOL0     C24750   2.521   6.747   8.655 -0.2396 -0.6119  0.1188
  188MOL0     H24751   2.503   6.632   8.194 -1.4956  1.9736  0.3513
  188MOL0     H24752   2.401   6.569   7.987  0.3796  3.9355  0.8211
  188MOL0     H24753   2.004   6.586   7.989  1.4114 -2.6473  4.3757
  188MOL0     H24754   1.939   6.424   7.944 -1.7538  1.5063 -0.7766
  188MOL0     H24755   1.998   6.463   7.708 -1.0189  0.8454 -2.3675
  188MOL0     H24756   2.062   6.614   7.743  1.4159 -0.4603  1.1220
  188MOL0     H24757   1.835   6.682   7.835  1.5937 -0.7409  1.0784
  188MOL0     H24758   1.778   6.519   7.786  1.9103 -2.3943 -1.1439
  188MOL0     H24759   1.743   6.713   7.634 -1.1764 -3.0753  2.3675
  188MOL0     H24760   1.914   6.716   7.606  1.8371 -0.2047  1.6625
  188MOL0     H24761   1.792   6.453   7.552  2.7504  0.3946  2.1679
  188MOL0     H24762   1.931   6.531   7.493  1.0386  0.0034  1.0251
  188MOL0     H24763   1.778   6.527   7.313  4.0563  0.6445  0.7529
  188MOL0     H24764   1.795   6.700   7.360 -0.3348  0.3469 -2.1836
  188MOL0     H24765   1.564   6.492   7.444 -0.0854 -0.5467  2.0220
  188MOL0     H24766   1.583   6.645   7.525 -3.2183  0.1577 -1.4273
  188MOL0     H24767   1.520   6.565   7.244 -0.9397 -0.5283  0.5928
  188MOL0     H24768   1.565   6.729   7.259  0.1134 -1.1327 -1.1640
  188MOL0     H24769   1.321   6.697   7.133 -2.3822  0.2204 -0.5257
  188MOL0     H24770   0.990   6.777   7.211  2.1892  1.7969 -0.3853
  188MOL0     H24771   0.965   6.610   7.260 -2.6255  2.6503 -0.1800
  188MOL0     H24772   0.956   6.572   7.035  1.5646 -1.6474  0.7803
  188MOL0     H24773   1.113   6.539   7.052  0.2756  0.4078  0.0501
  188MOL0     H24774   1.033   6.823   6.981 -1.9540 -1.6712 -0.3026
  188MOL0     H24775   1.193   6.772   6.987 -0.6654 -1.1718  1.4385
  188MOL0     H24776   0.994   6.632   6.809  1.0158 -2.8016 -0.3909
  188MOL0     H24777   1.167   6.596   6.843 -1.8984 -0.4425  1.2930
  188MOL0     H24778   1.308   6.933   6.658 -2.4830  1.6143 -1.1422
  188MOL0     H24779   1.434   6.926   6.454  0.2402 -1.4395 -0.8147
  188MOL0     H24780   1.449   6.480   5.999  0.8446 -0.1087 -1.2359
  188MOL0     H24781   1.642   6.468   5.831  0.1632  1.8321  0.2345
  188MOL0     H24782   2.046   6.456   6.041  1.8108  3.7537  1.8354
  188MOL0     H24783   2.071   6.612   5.954 -1.3170  0.8567  0.5743
  188MOL0     H24784   2.074   6.318   5.848 -0.6430 -0.1202  0.1676
  188MOL0     H24785   2.216   6.399   5.902 -0.4215  1.9061 -0.6425
  188MOL0     H24786   2.170   6.576   5.714  1.1412 -0.6883  0.3180
  188MOL0     H24787   2.088   6.430   5.637  0.1425 -3.3264  0.8059
  188MOL0     H24788   2.365   6.461   5.714  1.4792 -3.2305  2.0370
  188MOL0     H24789   2.277   6.300   5.709 -4.7893 -0.9395 -1.8087
  188MOL0     H24790   2.334   6.475   5.464  2.0907  0.6796  3.0829
  188MOL0     H24791   2.187   6.365   5.468 -1.3671  3.4802  1.3768
  188MOL0     H24792   2.364   6.177   5.521  0.1009  0.0948  1.3685
  188MOL0     H24793   2.490   6.296   5.524 -0.0910 -3.8788  2.2997
  188MOL0     H24794   2.339   6.185   5.283 -0.3290  0.2030  0.2254
  188MOL0     H24795   2.428   6.334   5.270  1.8182  0.7132  1.1603
  188MOL0     H24796   2.624   6.187   5.350 -0.8027  1.5647 -0.5912
  188MOL0     H24797   2.565   6.154   5.196 -0.6990  1.2861  0.8738
  188MOL0     H24798   1.911   6.583   6.135  0.2834 -3.1953  0.0406
  188MOL0     H24799   1.704   6.628   6.293 -2.1019 -0.1552  0.2166
  188MOL0     H24800   1.289   6.508   6.401  0.5817  0.4644 -0.3123
  188MOL0     H24801   1.149   6.542   6.586 -0.7477  1.5694 -0.0651
  188MOL0     H24802   2.044   6.452   8.207  1.5293 -0.4116  0.6245
  188MOL0     H24803   2.166   6.539   8.414  2.4055 -1.0356  0.7391
  188MOL0     H24804   2.248   6.950   8.612 -0.2257  0.1740 -1.0940
  188MOL0     H24805   2.341   7.041   8.829 -1.3852 -0.6911 -0.7000
  188MOL0     H24806   2.457   7.134   8.970  0.3969 -0.2294 -1.7675
  188MOL0     H24807   2.590   7.141   8.850  0.3838 -1.7970 -0.7406
  188MOL0     H24808   2.611   7.128   9.159  3.1781 -1.7614  0.1461
  188MOL0     H24809   2.748   7.110   9.047  1.6074  2.8385 -1.1158
  188MOL0     H24810   2.592   7.362   9.105 -0.5313 -0.2118 -0.9708
  188MOL0     H24811   2.687   7.325   8.958  0.0192 -3.3645 -0.1838
  188MOL0     H24812   2.787   7.320   9.245 -2.8993 -0.3993 -0.7557
  188MOL0     H24813   2.892   7.271   9.114  1.5695  0.5991  1.8551
  188MOL0     H24814   2.919   7.662   9.014 -3.3782  0.2821  0.3339
  188MOL0     H24815   2.658   6.766   8.825  0.7535 -1.6941 -2.2209
  188MOL0     H24816   2.574   6.667   8.604 -0.2242  0.1739 -1.1457
  189MOL0     O24817   5.295   0.199   9.813  0.1864  0.0222  0.1414
  189MOL0     C24818   5.306   0.184   9.686  0.7973 -0.2675  0.1712
  189MOL0     O24819   5.371   0.083   9.615 -0.8875  0.0936 -0.5377
  189MOL0     C24820   5.443  -0.000   9.699  0.8488 -0.3087 -0.0270
  189MOL0     C24821   5.574  -0.033   9.675 -0.0730  0.2890 -0.4751
  189MOL0     C24822   5.630  -0.141   9.747  0.3907  0.5225  0.5476
  189MOL0     C24823   5.563  -0.209   9.850  0.4546 -0.1773  0.3879
  189MOL0     O24824   5.626  -0.306   9.912 -0.2857  0.4107  0.4051
  189MOL0     C24825   5.627  -0.307  10.053  0.7516  0.0363  0.2096
  189MOL0     C24826   5.722  -0.189  10.091 -0.4395  0.3423  1.4065
  189MOL0     C24827   5.790  -0.218  10.219 -0.1361 -0.0352 -0.4146
  189MOL0     C24828   5.885  -0.118  10.272 -0.5217  0.8050  0.1488
  189MOL0     C24829   5.927  -0.163  10.417  0.7477 -0.4740 -0.5514
  189MOL0     C24830   5.956  -0.041  10.504 -0.7639 -0.0892 -0.8304
  189MOL0     C24831   5.839   0.042  10.556  0.8291  0.3143  0.4468
  189MOL0     C24832   5.870   0.168  10.639  0.4648 -0.2296  0.0304
  189MOL0     N24833   5.976   0.157  10.737  0.9212 -0.2213 -0.5975
  189MOL0     C24834   5.964   0.101  10.861 -0.4290  0.0001 -0.2733
  189MOL0     C24835   6.084   0.121  10.908 -0.3323  0.4320  0.5694
  189MOL0     C24836   6.117   0.063  11.040  0.1187 -0.3022 -0.3159
  189MOL0     C24837   6.054   0.144  11.155 -0.0116 -0.1987 -0.0073
  189MOL0     C24838   6.132   0.264  11.192 -0.1231 -0.0469  0.1128
  189MOL0     C24839   6.044   0.365  11.263 -0.8259  0.2499 -0.6789
  189MOL0     O24840   5.991   0.312  11.388 -0.0484  0.9383  0.7246
  189MOL0     C24841   5.879   0.378  11.428  0.1093 -0.4904  0.1176
  189MOL0     C24842   5.759   0.316  11.455  0.6513 -0.1951  0.4978
  189MOL0     C24843   5.650   0.389  11.502  0.3036 -0.0028 -0.9490
  189MOL0     C24844   5.670   0.529  11.518 -0.3970  0.8821 -1.2191
  189MOL0     C24845   5.544   0.604  11.559  0.2907  0.3130 -0.1796
  189MOL0     O24846   5.563   0.738  11.575  0.2809 -0.5758 -0.1627
  189MOL0     C24847   5.464   0.833  11.582  0.2288  1.0273 -0.0210
  189MOL0     C24848   5.322   0.819  11.555  0.6453  0.3417  0.9046
  189MOL0     C24849   5.241   0.932  11.587 -0.3492 -0.1820 -0.4432
  189MOL0     C24850   5.298   1.053  11.633  1.0303 -0.1370  0.9442
  189MOL0     O24851   5.215   1.163  11.668 -0.7308  0.0086 -0.5999
  189MOL0     C24852   5.094   1.182  11.585 -0.0128 -0.5401  0.3167
  189MOL0     C24853   5.020   1.314  11.615 -1.7406 -0.1342  1.2051
  189MOL0     C24854   5.049   1.431  11.522  0.3827  0.0582 -0.0858
  189MOL0     C24855   4.987   1.563  11.553 -0.1683 -0.4653  0.8338
  189MOL0     C24856   5.001   1.660  11.431  0.0615 -0.1959 -0.9100
  189MOL0     C24857   4.881   1.646  11.347 -0.3738 -0.0271  0.2101
  189MOL0     C24858   4.758   1.714  11.414 -0.4907 -0.2486 -0.6630
  189MOL0     C24859   4.630   1.709  11.330 -0.3879  0.6692 -0.2262
  189MOL0    Cl24860   4.503   1.781  11.454 -0.2565  0.1483 -0.1114
  189MOL0     C24861   5.437   1.068  11.629  0.2940  0.7837  0.0746
  189MOL0     C24862   5.520   0.958  11.608  0.0546  1.0730  0.3732
  189MOL0     O24863   5.437   0.546  11.589  0.3553 -0.3312  0.9823
  189MOL0     C24864   5.788   0.599  11.491  0.7911 -1.3538 -0.0895
  189MOL0     C24865   5.893   0.524  11.438  0.5397  0.6161  0.3193
  189MOL0     N24866   6.167   0.189  10.825  0.7130 -0.4217  0.0862
  189MOL0     N24867   6.099   0.206  10.724 -0.2259  0.6359  0.2013
  189MOL0     C24868   5.426  -0.182   9.869  0.9635 -0.4893 -0.1782
  189MOL0     C24869   5.370  -0.087   9.791  0.8899 -0.1065  0.4948
  189MOL0     C24870   5.221   0.270   9.595  0.1359 -0.0341 -0.1304
  189MOL0     C24871   5.279   0.318   9.476  0.0063  0.3698 -0.0937
  189MOL0     C24872   5.203   0.420   9.404 -0.6820 -0.3104  0.4203
  189MOL0     C24873   5.084   0.469   9.447  0.4263 -0.3370  0.7265
  189MOL0     O24874   5.003   0.552   9.370  0.3082  0.2691  0.8029
  189MOL0     C24875   4.967   0.682   9.420  0.0666 -1.0558 -0.1517
  189MOL0     C24876   4.990   0.775   9.303 -0.4896  0.5426 -0.5301
  189MOL0     C24877   4.914   0.902   9.314 -0.0616  0.1290  0.3562
  189MOL0     C24878   4.961   0.994   9.195  0.1485 -0.3655 -0.0915
  189MOL0     C24879   4.934   0.926   9.064  0.2363  0.4279 -0.0905
  189MOL0     C24880   4.916   0.889   8.943 -0.5249 -0.0043 -0.2343
  189MOL0     C24881   5.026   0.418   9.561 -0.3224  0.4467  0.4697
  189MOL0     C24882   5.097   0.317   9.632  0.4487  0.5129  0.4585
  189MOL0     H24883   5.634   0.039   9.619 -1.0551  0.5905 -1.1611
  189MOL0     H24884   5.734  -0.170   9.741  0.0828 -0.4958  0.0402
  189MOL0     H24885   5.657  -0.401  10.098  1.6971  1.7948  3.5850
  189MOL0     H24886   5.526  -0.285  10.090  1.0424  0.4220  0.7853
  189MOL0     H24887   5.670  -0.093  10.099  2.1206  1.6837  3.2621
  189MOL0     H24888   5.799  -0.187  10.013 -1.3025 -3.0144  0.3267
  189MOL0     H24889   5.841  -0.315  10.208  0.6978 -0.2840  3.9552
  189MOL0     H24890   5.708  -0.224  10.291 -0.7505  1.6679 -0.9347
  189MOL0     H24891   5.980  -0.128  10.218 -1.7516  1.0875 -2.2239
  189MOL0     H24892   5.833  -0.022  10.265 -2.6099 -0.3174 -0.3897
  189MOL0     H24893   6.012  -0.231  10.424  1.1445 -0.3757 -3.2897
  189MOL0     H24894   5.840  -0.208  10.467  1.1632 -0.2029  0.4375
  189MOL0     H24895   6.024   0.032  10.459 -0.0035 -0.2267  0.0731
  189MOL0     H24896   6.007  -0.071  10.596 -0.9218  1.9738 -0.0162
  189MOL0     H24897   5.782   0.081  10.471  0.2543  4.3132  2.4297
  189MOL0     H24898   5.774  -0.018  10.620 -2.5825  2.3218 -0.8842
  189MOL0     H24899   5.778   0.189  10.695  2.1339  0.4957  2.6567
  189MOL0     H24900   5.897   0.257  10.581 -2.7059  2.1987  1.9537
  189MOL0     H24901   5.878   0.049  10.903  0.3964 -0.8325  0.4459
  189MOL0     H24902   6.225   0.077  11.053  0.4964 -1.4602 -1.9285
  189MOL0     H24903   6.101  -0.045  11.050  0.3508 -0.5886 -2.4903
  189MOL0     H24904   6.042   0.084  11.246 -0.1778  0.1769  0.2227
  189MOL0     H24905   5.956   0.174  11.119 -1.6716 -4.3535  0.4647
  189MOL0     H24906   6.221   0.233  11.247  2.4948 -2.6360 -4.8813
  189MOL0     H24907   6.162   0.316  11.101 -2.5041  0.7991 -0.2727
  189MOL0     H24908   5.963   0.404  11.200  0.8218  0.9092 -2.4875
  189MOL0     H24909   6.106   0.453  11.285 -2.4822  1.1625  0.6106
  189MOL0     H24910   5.743   0.209  11.445 -0.3326  0.0575 -0.8941
  189MOL0     H24911   5.560   0.330  11.514 -0.0221  0.5925 -0.4034
  189MOL0     H24912   5.283   0.728  11.513  0.4727  2.5904 -4.6560
  189MOL0     H24913   5.134   0.917  11.583 -0.5426  0.1573  1.8660
  189MOL0     H24914   5.029   1.095  11.600 -0.3164 -0.6832 -1.6006
  189MOL0     H24915   5.114   1.180  11.478 -2.3805  0.8524 -0.2114
  189MOL0     H24916   5.046   1.350  11.715  4.2978  2.7650 -0.9192
  189MOL0     H24917   4.912   1.295  11.604 -1.8617  0.1017  1.9542
  189MOL0     H24918   5.024   1.404  11.419 -0.9277  1.6313 -0.2123
  189MOL0     H24919   5.157   1.452  11.522 -0.2614  4.2200 -0.1151
  189MOL0     H24920   4.885   1.546  11.588 -1.2636  1.9183 -0.9287
  189MOL0     H24921   5.049   1.606  11.633  0.4298  0.7723 -0.2401
  189MOL0     H24922   5.086   1.632  11.368  0.4158 -1.6869  0.2098
  189MOL0     H24923   5.013   1.764  11.465  1.2183 -0.8620  0.8381
  189MOL0     H24924   4.863   1.538  11.350  3.1243 -0.6993  0.7902
  189MOL0     H24925   4.911   1.698  11.256  3.9023  1.2709  2.0933
  189MOL0     H24926   4.735   1.678  11.515 -0.4383  1.9096  0.1815
  189MOL0     H24927   4.793   1.815  11.438 -1.2824 -0.5648  2.2585
  189MOL0     H24928   4.611   1.602  11.315  0.3330  0.5632 -0.4368
  189MOL0     H24929   4.643   1.771  11.240  1.2582 -0.5821 -0.9029
  189MOL0     H24930   5.479   1.168  11.621  1.0884  0.4939  0.4867
  189MOL0     H24931   5.629   0.956  11.610  0.1075 -1.8620  3.1253
  189MOL0     H24932   5.807   0.706  11.492  1.3683 -1.3617 -2.4755
  189MOL0     H24933   5.985   0.565  11.398 -0.5540  0.4738 -2.5654
  189MOL0     H24934   5.364  -0.232   9.942  2.6338 -0.5915  1.2387
  189MOL0     H24935   5.262  -0.080   9.794  0.7306 -0.4436 -2.1517
  189MOL0     H24936   5.383   0.300   9.449  0.2375 -1.1944  1.6666
  189MOL0     H24937   5.246   0.459   9.313  0.0050 -0.9056  0.4804
  189MOL0     H24938   5.012   0.707   9.517 -2.8720 -0.7297  1.2403
  189MOL0     H24939   4.858   0.675   9.425  0.1889 -2.3036  1.4994
  189MOL0     H24940   5.098   0.794   9.300 -0.2200 -0.9379 -0.8954
  189MOL0     H24941   4.940   0.725   9.220 -1.9661  0.7826  0.1919
  189MOL0     H24942   4.936   0.961   9.403 -0.7886  2.9469 -1.2198
  189MOL0     H24943   4.807   0.878   9.310 -0.6041  1.7785  2.8366
  189MOL0     H24944   4.910   1.091   9.188  1.6932  0.3889 -1.5726
  189MOL0     H24945   5.062   1.034   9.200 -0.4313  1.9988 -3.3701
  189MOL0     H24946   4.907   0.852   8.842  1.5922 -4.8224  1.0633
  189MOL0     H24947   4.929   0.454   9.595 -0.2351 -1.6040  3.2318
  189MOL0     H24948   5.055   0.278   9.724 -0.4575  0.2080 -0.0763
  190MOL0     O24949   8.167   9.399   7.742 -0.5213  0.0854 -0.3170
  190MOL0     C24950   8.197   9.462   7.846 -0.4149  1.4451  0.4343
  190MOL0     O24951   8.314   9.429   7.919 -0.6508  0.3031  0.0393
  190MOL0     C24952   8.384   9.313   7.869 -0.2642 -0.9445  0.3945
  190MOL0     C24953   8.376   9.184   7.923  0.0705 -0.5565 -0.0857
  190MOL0     C24954   8.467   9.083   7.889 -0.1191 -0.4601  0.2023
  190MOL0     C24955   8.555   9.105   7.786 -1.3128  0.7513 -0.5119
  190MOL0     O24956   8.634   8.990   7.744  0.3768  0.6733  0.0901
  190MOL0     C24957   8.744   8.992   7.643  0.1165 -0.4226 -0.4582
  190MOL0     C24958   8.729   8.879   7.533  0.1963  1.0771  1.1586
  190MOL0     C24959   8.846   8.898   7.431  0.3989  0.6140  0.8116
  190MOL0     C24960   8.950   8.788   7.447  0.9425  0.2208 -0.0009
  190MOL0     C24961   9.042   8.824   7.563 -0.2083 -0.2725 -0.0113
  190MOL0     C24962   9.191   8.763   7.538  0.3295  0.4231  0.1334
  190MOL0     C24963   9.274   8.816   7.662 -0.8731 -0.2577  0.0475
  190MOL0     C24964   9.346   8.954   7.626 -0.7932  0.3736  0.1750
  190MOL0     N24965   9.429   8.984   7.738 -0.2508  1.2045 -1.2417
  190MOL0     C24966   9.529   8.908   7.803  0.4756 -0.2224 -0.2101
  190MOL0     C24967   9.578   8.981   7.904 -0.2682 -0.0781 -0.5893
  190MOL0     C24968   9.702   8.949   7.985 -0.6354 -0.5802 -0.5730
  190MOL0     C24969   9.693   8.994   8.138 -0.0255 -1.1160  0.5711
  190MOL0     C24970   9.834   9.025   8.195  1.0471 -0.1177 -0.1924
  190MOL0     C24971   9.882   8.909   8.281  0.2281 -0.5085  0.2509
  190MOL0     O24972   9.919   8.798   8.209  0.2591  0.4693 -0.1973
  190MOL0     C24973   9.990   8.695   8.273  1.3647 -0.0748 -0.5056
  190MOL0     C24974  10.023   8.587   8.201  0.3933  0.7958 -0.3875
  190MOL0     C24975  10.067   8.471   8.262  1.0626 -0.2218  0.3903
  190MOL0     C24976  10.087   8.473   8.405 -0.4880  0.1652  0.9201
  190MOL0     C24977  10.140   8.355   8.469  0.2506 -0.4495  0.1040
  190MOL0     O24978  10.118   8.353   8.605  0.4837  0.5342 -0.2689
  190MOL0     C24979  10.161   8.245   8.676 -0.2829  0.5339 -0.2228
  190MOL0     C24980  10.248   8.256   8.788  1.3052  0.0795 -0.0467
  190MOL0     C24981  10.286   8.143   8.862  0.9076 -0.3661 -0.0571
  190MOL0     C24982  10.253   8.016   8.832 -0.1202  0.5322  0.6269
  190MOL0     O24983  10.307   7.900   8.877 -0.7618  0.3342  0.3000
  190MOL0     C24984  10.298   7.894   9.015  0.0366  0.2013 -0.1878
  190MOL0     C24985  10.355   7.759   9.048 -0.1541 -0.1016  0.7310
  190MOL0     C24986  10.363   7.747   9.201  0.7161  0.7434  0.0128
  190MOL0     C24987  10.225   7.687   9.240 -0.5036  1.0213 -1.0514
  190MOL0     C24988  10.199   7.699   9.389 -0.9897  0.0592 -0.0917
  190MOL0     C24989  10.058   7.677   9.438  0.1585  0.6178 -0.0783
  190MOL0     C24990  10.022   7.534   9.459  0.0154 -0.0503  0.4691
  190MOL0     C24991   9.866   7.504   9.480  0.5911 -0.2902 -0.8532
  190MOL0    Cl24992   9.767   7.552   9.342 -0.0069  0.6112  0.0765
  190MOL0     C24993  10.166   8.005   8.715  0.3198  0.1527 -0.6304
  190MOL0     C24994  10.127   8.114   8.639  0.3787  0.5121 -0.6743
  190MOL0     O24995  10.180   8.258   8.402  0.0191 -0.4562 -0.1565
  190MOL0     C24996  10.071   8.592   8.471 -1.1460  0.4469 -1.1678
  190MOL0     C24997  10.009   8.701   8.417 -0.6130  0.8747  0.1739
  190MOL0     N24998   9.497   9.095   7.913  0.9994  0.4807 -0.1532
  190MOL0     N24999   9.405   9.095   7.821 -0.7420 -0.3537 -0.5372
  190MOL0     C25000   8.563   9.238   7.737 -0.3046 -0.4717  0.4664
  190MOL0     C25001   8.486   9.341   7.781 -0.3133 -0.1829  1.3848
  190MOL0     C25002   8.094   9.549   7.904  0.1095 -0.7463  0.6593
  190MOL0     C25003   8.117   9.615   8.029 -0.5635  0.5692 -0.7482
  190MOL0     C25004   8.014   9.678   8.086  0.8123 -0.7326 -0.1347
  190MOL0     C25005   7.881   9.684   8.041  0.2465  0.3808 -0.6216
  190MOL0     O25006   7.785   9.751   8.116  0.4282  0.1328  0.2717
  190MOL0     C25007   7.641   9.741   8.080 -1.0036 -0.8261 -0.8887
  190MOL0     C25008   7.632   9.866   7.979 -0.9901  0.7843 -0.8172
  190MOL0     C25009   7.626  10.002   8.042 -0.4764 -0.5156 -0.2347
  190MOL0     C25010   7.502  10.015   8.135  0.4619 -0.6691 -0.2754
  190MOL0     C25011   7.482  10.165   8.142  0.2594 -0.3236 -2.0319
  190MOL0     C25012   7.481  10.289   8.147 -0.0480 -0.3206 -0.6058
  190MOL0     C25013   7.860   9.636   7.912  1.1766  0.3779  0.4386
  190MOL0     C25014   7.961   9.563   7.852 -0.6392  0.3964  0.2185
  190MOL0     H25015   8.310   9.154   8.003  0.5120 -0.9426  0.1402
  190MOL0     H25016   8.454   8.985   7.934 -0.8245 -1.2520 -1.6589
  190MOL0     H25017   8.838   8.989   7.700 -1.5781  0.2820  2.6222
  190MOL0     H25018   8.746   9.088   7.591 -1.1575  1.2899  2.4158
  190MOL0     H25019   8.631   8.891   7.486 -0.1353 -0.6045  1.3653
  190MOL0     H25020   8.715   8.777   7.570 -1.4354  0.2033 -1.5802
  190MOL0     H25021   8.891   8.997   7.429  1.8120  0.0477  2.4813
  190MOL0     H25022   8.797   8.890   7.334 -0.4364 -2.9027  1.3608
  190MOL0     H25023   8.903   8.690   7.454  0.3118  0.5296  0.0749
  190MOL0     H25024   9.011   8.774   7.356 -1.8277 -2.8718 -1.6221
  190MOL0     H25025   9.016   8.802   7.667  0.4260 -0.7825  0.0484
  190MOL0     H25026   9.041   8.933   7.569 -0.6982 -0.3148  0.9900
  190MOL0     H25027   9.229   8.816   7.451 -1.0177  3.4537  1.2328
  190MOL0     H25028   9.190   8.654   7.529  1.1219  0.3892  0.4231
  190MOL0     H25029   9.229   8.827   7.761  1.2877  0.1409  1.0565
  190MOL0     H25030   9.354   8.742   7.673  2.0946  2.7837  0.7105
  190MOL0     H25031   9.276   9.031   7.592 -3.0314 -1.1942  1.0129
  190MOL0     H25032   9.411   8.940   7.539 -1.2399 -1.7727  0.1301
  190MOL0     H25033   9.557   8.812   7.762 -1.8776 -2.3464  2.7142
  190MOL0     H25034   9.772   9.025   7.948 -1.0946  1.4948  2.4694
  190MOL0     H25035   9.730   8.844   7.974  0.9905 -0.1967 -0.3354
  190MOL0     H25036   9.659   8.905   8.192  1.9474 -1.2032  1.7995
  190MOL0     H25037   9.617   9.068   8.162 -0.2583 -1.8642  2.3345
  190MOL0     H25038   9.906   9.043   8.114  0.5623  2.2649 -0.1688
  190MOL0     H25039   9.824   9.120   8.248  0.9220  1.3706 -2.6896
  190MOL0     H25040   9.808   8.878   8.355  0.0263 -0.8169 -0.0783
  190MOL0     H25041   9.968   8.946   8.338  2.2578 -1.7285 -1.8474
  190MOL0     H25042  10.011   8.604   8.094  2.7860 -0.8605 -1.0222
  190MOL0     H25043  10.073   8.378   8.206 -1.8387 -0.3198  0.0633
  190MOL0     H25044  10.286   8.353   8.817 -0.6111  0.2605  2.2553
  190MOL0     H25045  10.379   8.168   8.912  3.0146 -3.9074 -1.7626
  190MOL0     H25046  10.197   7.902   9.054  0.4344  0.2799  0.8418
  190MOL0     H25047  10.353   7.976   9.061 -1.3118  1.0034  0.0384
  190MOL0     H25048  10.455   7.737   9.008  1.1820 -1.5290  4.4233
  190MOL0     H25049  10.284   7.683   9.015  1.6080 -2.0839  1.2867
  190MOL0     H25050  10.392   7.835   9.259  0.7982  0.5370  0.2833
  190MOL0     H25051  10.448   7.683   9.227 -0.2363 -0.2679  0.6831
  190MOL0     H25052  10.148   7.749   9.194 -0.2229  0.4837 -2.2889
  190MOL0     H25053  10.209   7.588   9.196 -0.7393  0.1135  0.9837
  190MOL0     H25054  10.207   7.805   9.416 -1.1326  0.2173 -0.6669
  190MOL0     H25055  10.283   7.653   9.441  0.9420  3.1921 -0.1879
  190MOL0     H25056   9.973   7.728   9.394  0.7187 -0.9122 -3.1867
  190MOL0     H25057  10.080   7.705   9.542  1.6380 -3.7491  1.0222
  190MOL0     H25058  10.053   7.476   9.371  3.3417 -0.3070  1.6858
  190MOL0     H25059  10.075   7.510   9.551 -0.2362  2.4496  1.3315
  190MOL0     H25060   9.840   7.561   9.570  2.4133 -1.1975  0.3223
  190MOL0     H25061   9.851   7.399   9.507  2.0049 -0.2620  0.1610
  190MOL0     H25062  10.126   7.916   8.668  0.4144  0.3932 -1.1803
  190MOL0     H25063  10.071   8.100   8.547  0.0714  1.1323 -0.5875
  190MOL0     H25064  10.092   8.598   8.577 -4.7657  0.9694 -0.3360
  190MOL0     H25065   9.967   8.788   8.467 -0.4007  2.5679 -2.3919
  190MOL0     H25066   8.630   9.260   7.655 -0.5070 -0.7325  0.2288
  190MOL0     H25067   8.516   9.440   7.749 -1.4671  0.2364  1.5430
  190MOL0     H25068   8.223   9.622   8.053 -0.1276  1.6082 -2.7452
  190MOL0     H25069   8.041   9.717   8.184  0.7785  0.5999 -0.6401
  190MOL0     H25070   7.582   9.752   8.171 -1.0885 -3.5292 -0.5398
  190MOL0     H25071   7.618   9.643   8.038 -0.8499 -1.7565  1.0922
  190MOL0     H25072   7.714   9.876   7.907  0.7282 -3.3478  0.3347
  190MOL0     H25073   7.535   9.851   7.930 -2.0332 -1.6764  1.7751
  190MOL0     H25074   7.645  10.086   7.975  3.4182  2.4904  4.0195
  190MOL0     H25075   7.716  10.015   8.103  0.7077 -1.5321 -1.6979
  190MOL0     H25076   7.418   9.968   8.084  0.9358 -0.5015 -1.2461
  190MOL0     H25077   7.511   9.975   8.236  2.7767 -2.6892 -1.1657
  190MOL0     H25078   7.485  10.396   8.145  1.1282 -0.3239  0.2735
  190MOL0     H25079   7.760   9.639   7.869  1.2781  1.2805  0.2406
  190MOL0     H25080   7.941   9.508   7.761  2.4459 -1.4644  0.5107
  191MOL0     O25081  11.094   7.593   0.394  0.6067 -0.3075 -0.0298
  191MOL0     C25082  11.188   7.512   0.396  0.8531  0.2421 -0.7706
  191MOL0     O25083  11.276   7.505   0.497 -0.5853  0.1535  0.0045
  191MOL0     C25084  11.273   7.606   0.587 -0.1839  0.1055 -0.3669
  191MOL0     C25085  11.198   7.608   0.704 -0.6843 -0.6328 -0.6110
  191MOL0     C25086  11.188   7.710   0.787 -0.3951  0.2642  0.8131
  191MOL0     C25087  11.242   7.823   0.746  0.2370 -0.2205  0.7437
  191MOL0     O25088  11.211   7.936   0.814 -0.8876 -0.0369  0.2297
  191MOL0     C25089  11.173   8.053   0.742  0.0227  0.4495 -0.0949
  191MOL0     C25090  11.052   8.110   0.806 -1.0686 -1.2163 -0.8989
  191MOL0     C25091  10.930   8.024   0.826  1.1255 -0.6803 -0.1719
  191MOL0     C25092  10.859   7.988   0.694 -0.2495 -0.0264  0.1218
  191MOL0     C25093  10.740   7.887   0.705  0.3082 -0.1322  0.5304
  191MOL0     C25094  10.787   7.733   0.690 -0.3492 -0.2102 -0.0214
  191MOL0     C25095  10.815   7.702   0.543 -0.0605  0.6294  0.3605
  191MOL0     C25096  10.792   7.552   0.512  0.1001  0.2033 -0.1796
  191MOL0     N25097  10.650   7.508   0.510 -0.5293  0.1189 -0.0059
  191MOL0     C25098  10.574   7.470   0.620 -0.4117 -0.3388 -0.2371
  191MOL0     C25099  10.456   7.427   0.568  0.0395 -0.0283 -0.4150
  191MOL0     C25100  10.340   7.357   0.641 -0.3206  0.6971 -0.0486
  191MOL0     C25101  10.276   7.242   0.558  0.3584 -0.6151 -0.7053
  191MOL0     C25102  10.374   7.118   0.564 -0.3383  0.4564  0.3950
  191MOL0     C25103  10.337   7.009   0.466  0.3826 -0.1700 -0.6164
  191MOL0     O25104  10.431   6.908   0.473  0.4793  0.5913  0.2306
  191MOL0     C25105  10.445   6.835   0.358 -0.2305  0.3695 -1.4131
  191MOL0     C25106  10.352   6.811   0.254  0.6790 -0.6333 -0.3133
  191MOL0     C25107  10.390   6.725   0.156 -0.2790  0.3210 -0.5144
  191MOL0     C25108  10.523   6.671   0.153 -0.0779 -1.0337 -0.2947
  191MOL0     C25109  10.558   6.584   0.032 -0.0390 -0.0867  0.0014
  191MOL0     O25110  10.474   6.591  -0.077  0.2547  0.6236 -0.8137
  191MOL0     C25111  10.490   6.498  -0.181 -0.1706 -0.1657 -0.1036
  191MOL0     C25112  10.489   6.356  -0.154 -0.0791  0.1225 -0.5681
  191MOL0     C25113  10.509   6.277  -0.263  0.0808 -0.4331  0.1476
  191MOL0     C25114  10.505   6.316  -0.394  0.3842  0.2318 -0.3207
  191MOL0     O25115  10.505   6.214  -0.485 -0.0455  0.0908  0.1660
  191MOL0     C25116  10.451   6.237  -0.610 -0.0813 -0.2622  1.3461
  191MOL0     C25117  10.462   6.111  -0.702  0.4899  0.8903 -0.5020
  191MOL0     C25118  10.355   6.004  -0.678 -0.6489 -0.4255  0.4084
  191MOL0     C25119  10.218   6.037  -0.740 -0.2633 -0.8432  0.6682
  191MOL0     C25120  10.128   5.908  -0.726  0.6436  0.2642  0.9959
  191MOL0     C25121  10.091   5.862  -0.588  1.0672  0.1472 -0.0644
  191MOL0     C25122   9.978   5.951  -0.519 -0.3278  0.1234  0.2560
  191MOL0     C25123   9.844   5.870  -0.491 -0.4942 -0.3643  0.6768
  191MOL0    Cl25124   9.860   5.731  -0.373  0.3053 -0.3788 -0.3023
  191MOL0     C25125  10.497   6.457  -0.423 -0.9693 -0.3637  0.3450
  191MOL0     C25126  10.500   6.539  -0.310 -0.7310 -1.1788 -0.0851
  191MOL0     O25127  10.658   6.512   0.047 -0.3507 -0.5236  0.2421
  191MOL0     C25128  10.614   6.701   0.262 -0.4046  0.1547 -0.2113
  191MOL0     C25129  10.567   6.777   0.363 -0.6377  0.1416 -0.1852
  191MOL0     N25130  10.446   7.466   0.436  0.5829 -0.4740 -0.3624
  191MOL0     N25131  10.564   7.509   0.402 -1.0215  0.3670 -0.3016
  191MOL0     C25132  11.324   7.843   0.630 -0.9089 -0.7751 -0.6269
  191MOL0     C25133  11.330   7.728   0.546 -0.4587  0.1297  0.2020
  191MOL0     C25134  11.200   7.424   0.280  0.3045 -0.5541 -0.8817
  191MOL0     C25135  11.286   7.311   0.291 -0.6593  0.9552 -0.6808
  191MOL0     C25136  11.288   7.219   0.181 -0.6518  0.3873 -0.7223
  191MOL0     C25137  11.215   7.241   0.063 -0.5923 -0.1830 -0.3321
  191MOL0     O25138  11.260   7.170  -0.044  0.7102  0.6923 -0.9619
  191MOL0     C25139  11.181   7.155  -0.159 -0.3112 -0.7115  0.7147
  191MOL0     C25140  11.223   7.244  -0.278 -0.2250 -0.7475  0.6978
  191MOL0     C25141  11.132   7.241  -0.403  0.2345  0.3112 -1.3044
  191MOL0     C25142  11.142   7.102  -0.472 -0.7413  0.4637 -0.4340
  191MOL0     C25143  11.056   7.106  -0.584 -0.2368 -1.2255 -0.4257
  191MOL0     C25144  10.978   7.120  -0.678  0.2937  0.2912 -0.9021
  191MOL0     C25145  11.125   7.351   0.063  0.6076  0.2620  0.1376
  191MOL0     C25146  11.116   7.443   0.165  0.0910  1.2783 -0.8261
  191MOL0     H25147  11.144   7.516   0.723  2.3863 -2.4990 -0.2170
  191MOL0     H25148  11.124   7.719   0.875 -0.3042  4.3231  0.6820
  191MOL0     H25149  11.135   8.019   0.645 -2.7376 -5.9212  2.6054
  191MOL0     H25150  11.249   8.130   0.730  1.2926 -0.5040  1.3353
  191MOL0     H25151  11.010   8.201   0.761 -2.1358  0.1503  2.5915
  191MOL0     H25152  11.083   8.141   0.906  0.9186 -2.1733 -1.1928
  191MOL0     H25153  10.867   8.079   0.896 -0.4623 -3.2085  0.5182
  191MOL0     H25154  10.957   7.935   0.882 -0.6914  0.4752  2.7695
  191MOL0     H25155  10.824   8.085   0.656  2.9618  1.4975  0.7683
  191MOL0     H25156  10.929   7.941   0.624 -2.6743 -3.2939 -0.3526
  191MOL0     H25157  10.665   7.900   0.627  1.1834 -2.6445 -0.8492
  191MOL0     H25158  10.690   7.905   0.801  2.8288  3.2777  1.3862
  191MOL0     H25159  10.716   7.659   0.726 -0.1454 -0.7142 -0.6445
  191MOL0     H25160  10.884   7.725   0.741 -0.8281  1.0494  1.1874
  191MOL0     H25161  10.758   7.774   0.484 -0.4696  0.7508  0.8949
  191MOL0     H25162  10.922   7.720   0.525  0.5516 -2.5455  0.1502
  191MOL0     H25163  10.850   7.492   0.583  0.4878 -0.2384 -0.8562
  191MOL0     H25164  10.832   7.532   0.413  1.6232  0.4696  0.3647
  191MOL0     H25165  10.596   7.483   0.726  0.1699  3.0482 -0.6706
  191MOL0     H25166  10.267   7.429   0.679 -0.5310 -1.5698  4.5441
  191MOL0     H25167  10.378   7.309   0.732  2.5890 -0.7098 -1.8549
  191MOL0     H25168  10.264   7.279   0.456 -3.0537 -1.5676 -0.7670
  191MOL0     H25169  10.182   7.206   0.601  0.7779  0.3116  1.0535
  191MOL0     H25170  10.478   7.152   0.560 -0.1382  0.1918  2.3239
  191MOL0     H25171  10.370   7.063   0.659 -1.0959 -0.6618 -0.2571
  191MOL0     H25172  10.327   7.064   0.372  0.6751  0.8786 -0.0502
  191MOL0     H25173  10.240   6.970   0.497  0.3115 -1.1183 -1.9514
  191MOL0     H25174  10.255   6.858   0.261  0.3297 -1.5081  1.1038
  191MOL0     H25175  10.315   6.704   0.080 -1.0734  2.4025 -0.3759
  191MOL0     H25176  10.471   6.315  -0.056  0.3261 -0.7636 -0.8550
  191MOL0     H25177  10.482   6.173  -0.243  0.5506 -0.7686 -0.8861
  191MOL0     H25178  10.519   6.311  -0.652 -1.5457  0.6842  0.5761
  191MOL0     H25179  10.350   6.278  -0.602  1.1101  3.0486  0.9205
  191MOL0     H25180  10.560   6.062  -0.693  0.9658  2.0496  0.8791
  191MOL0     H25181  10.444   6.146  -0.804 -2.5210  0.3607 -0.2444
  191MOL0     H25182  10.344   5.986  -0.571 -2.0392  0.0437  0.3653
  191MOL0     H25183  10.377   5.902  -0.713  1.5137  0.2702 -0.3854
  191MOL0     H25184  10.180   6.118  -0.678 -1.7940 -0.7046 -0.3785
  191MOL0     H25185  10.230   6.090  -0.835  1.3649  1.4986  2.0824
  191MOL0     H25186  10.191   5.839  -0.783  2.4198  2.1627  0.5578
  191MOL0     H25187  10.037   5.928  -0.783  0.5469 -1.9548  0.2820
  191MOL0     H25188  10.175   5.845  -0.520 -0.5734 -0.2167  1.9494
  191MOL0     H25189  10.053   5.761  -0.603  0.6033  0.3304 -0.1529
  191MOL0     H25190  10.016   5.992  -0.425  1.4792  0.4840 -0.5849
  191MOL0     H25191   9.958   6.039  -0.581  0.9127  0.7861  0.7584
  191MOL0     H25192   9.810   5.832  -0.588  0.4586  0.3916  0.0168
  191MOL0     H25193   9.765   5.930  -0.446 -1.5833 -1.0224 -0.3210
  191MOL0     H25194  10.511   6.490  -0.525  3.8284  0.6935  1.0910
  191MOL0     H25195  10.521   6.645  -0.319  0.9524 -1.4889 -0.2003
  191MOL0     H25196  10.716   6.664   0.258 -0.3744  0.2914 -0.8286
  191MOL0     H25197  10.631   6.796   0.449  0.9112 -4.4588 -0.0545
  191MOL0     H25198  11.376   7.935   0.605 -0.6053 -0.5641  0.7179
  191MOL0     H25199  11.379   7.736   0.450  0.4093 -1.0953  0.5201
  191MOL0     H25200  11.338   7.285   0.382 -2.9115  2.1391  1.0389
  191MOL0     H25201  11.353   7.133   0.194 -1.7873 -0.2160  1.3858
  191MOL0     H25202  11.077   7.183  -0.145 -0.6452 -0.8823 -1.1076
  191MOL0     H25203  11.159   7.048  -0.163 -1.5590 -0.6785  4.0176
  191MOL0     H25204  11.238   7.346  -0.242 -0.5228 -0.5198  0.1889
  191MOL0     H25205  11.320   7.206  -0.312 -0.6533 -2.0830  0.9045
  191MOL0     H25206  11.155   7.321  -0.474 -0.4666 -0.3534 -2.3277
  191MOL0     H25207  11.033   7.258  -0.361  0.4535 -1.6628  0.1627
  191MOL0     H25208  11.243   7.083  -0.509 -1.0723 -0.3876 -0.9086
  191MOL0     H25209  11.123   7.016  -0.407 -2.6943 -0.5586 -2.2771
  191MOL0     H25210  10.901   7.105  -0.750 -1.5605 -5.0603  1.7159
  191MOL0     H25211  11.086   7.390  -0.031 -0.0014  1.3620  0.8288
  191MOL0     H25212  11.050   7.529   0.170 -1.6526 -0.0636  0.4663
  192MOL0     O25213   5.233   1.350   3.280 -0.8862 -0.1212  0.3097
  192MOL0     C25214   5.339   1.300   3.261  0.2844  0.7260 -0.7025
  192MOL0     O25215   5.455   1.364   3.274  0.4303  0.4326  0.3661
  192MOL0     C25216   5.480   1.491   3.325  0.1275  0.3175  0.1630
  192MOL0     C25217   5.388   1.579   3.368  0.2440 -0.1494 -0.5835
  192MOL0     C25218   5.415   1.705   3.428 -0.9862  0.2129 -0.3040
  192MOL0     C25219   5.551   1.739   3.448  0.0113  0.3834 -0.1812
  192MOL0     O25220   5.604   1.860   3.502 -1.0711  0.6049  0.6475
  192MOL0     C25221   5.509   1.968   3.530 -0.0521  0.1553  0.7253
  192MOL0     C25222   5.589   2.094   3.531 -0.8341 -0.6490 -0.4800
  192MOL0     C25223   5.498   2.214   3.558  0.9303 -0.9524  0.1248
  192MOL0     C25224   5.572   2.343   3.527 -0.2597  0.3300 -0.8236
  192MOL0     C25225   5.679   2.381   3.630  0.3469 -1.4245  0.5212
  192MOL0     C25226   5.682   2.541   3.661  0.1929  1.0191 -0.2385
  192MOL0     C25227   5.582   2.587   3.770 -0.0415  0.3464 -0.7977
  192MOL0     C25228   5.629   2.704   3.858  0.2102 -0.0628  0.1349
  192MOL0     N25229   5.524   2.768   3.944  0.5311  0.8202 -0.5418
  192MOL0     C25230   5.399   2.770   3.907  0.7448  0.1685  0.0732
  192MOL0     C25231   5.328   2.807   4.020 -0.2251 -0.9065  0.9575
  192MOL0     C25232   5.175   2.828   4.026  0.3816  0.4542 -0.8419
  192MOL0     C25233   5.145   2.969   4.046 -0.0959  0.2372  0.2664
  192MOL0     C25234   4.986   2.991   4.030 -0.6213  0.2356 -0.5569
  192MOL0     C25235   4.950   3.000   3.882  0.1679 -0.6644  0.2695
  192MOL0     O25236   4.985   3.132   3.843  0.3395 -0.1470 -0.3790
  192MOL0     C25237   4.908   3.243   3.885  0.7501 -0.1197  0.4733
  192MOL0     C25238   4.776   3.243   3.924 -0.0946 -0.3987 -0.1494
  192MOL0     C25239   4.710   3.364   3.957  0.0273  0.3815 -0.6247
  192MOL0     C25240   4.784   3.480   3.967  0.5418 -0.8141 -0.3345
  192MOL0     C25241   4.714   3.595   4.029 -0.5807 -0.1920  0.0305
  192MOL0     O25242   4.596   3.564   4.088 -0.4380 -0.5921 -0.1030
  192MOL0     C25243   4.516   3.677   4.115  0.0572  0.3419  1.3040
  192MOL0     C25244   4.547   3.748   4.227 -0.3855  0.0141  0.3935
  192MOL0     C25245   4.496   3.873   4.254  0.2552  0.4745 -0.0654
  192MOL0     C25246   4.395   3.923   4.164  0.9356 -0.3584 -0.4834
  192MOL0     O25247   4.326   4.038   4.179  0.2985 -0.4430  0.3610
  192MOL0     C25248   4.395   4.141   4.254  0.5376 -0.0166 -0.3690
  192MOL0     C25249   4.534   4.194   4.194  0.5930  0.0031  0.1060
  192MOL0     C25250   4.539   4.192   4.041  0.8053 -0.2139  0.0011
  192MOL0     C25251   4.675   4.234   3.979 -0.8980 -0.2322  0.3103
  192MOL0     C25252   4.756   4.106   3.966  0.6378 -0.1900 -0.1731
  192MOL0     C25253   4.905   4.131   3.916  0.3466  0.0632  1.2347
  192MOL0     C25254   4.988   4.009   3.938  0.3227  0.9853 -0.5732
  192MOL0     C25255   5.017   3.930   3.804 -0.4942 -0.0297 -0.6924
  192MOL0    Cl25256   5.169   3.829   3.812 -0.0433 -0.1714 -0.2840
  192MOL0     C25257   4.364   3.845   4.047 -0.2561  0.5515 -0.3242
  192MOL0     C25258   4.425   3.721   4.021  0.0155 -1.0583  0.2859
  192MOL0     O25259   4.767   3.710   4.026  0.7496  0.1924  0.1225
  192MOL0     C25260   4.919   3.480   3.924 -0.5811 -0.3721  0.2635
  192MOL0     C25261   4.976   3.363   3.877  0.7633 -0.4183  0.4224
  192MOL0     N25262   5.419   2.841   4.131 -0.1752 -0.3858  0.7756
  192MOL0     N25263   5.536   2.791   4.081  0.9125  0.2069 -0.6317
  192MOL0     C25264   5.646   1.655   3.389 -0.2199  0.0232  0.8747
  192MOL0     C25265   5.616   1.529   3.330 -1.2345 -0.8342 -1.0097
  192MOL0     C25266   5.352   1.159   3.219 -0.4675  0.2095 -0.6956
  192MOL0     C25267   5.240   1.074   3.238  0.0555  0.4890  0.5742
  192MOL0     C25268   5.246   0.942   3.190  0.0581  0.5724  0.1569
  192MOL0     C25269   5.347   0.894   3.111 -0.1536 -0.2088  0.2243
  192MOL0     O25270   5.346   0.762   3.072 -0.2435  1.0242  0.2477
  192MOL0     C25271   5.456   0.698   3.005  0.2204 -0.1861  0.6198
  192MOL0     C25272   5.465   0.557   3.072 -0.7918  0.3583  0.9484
  192MOL0     C25273   5.340   0.469   3.036 -0.6643 -0.1192 -0.0314
  192MOL0     C25274   5.213   0.480   3.122  1.0509 -0.7870 -1.3778
  192MOL0     C25275   5.115   0.374   3.084  0.4423  0.3238  0.1476
  192MOL0     C25276   5.032   0.289   3.059  1.0049  0.5345  0.1997
  192MOL0     C25277   5.460   0.982   3.092  0.0221 -0.1868  0.1595
  192MOL0     C25278   5.468   1.115   3.146 -0.2186 -0.5180  0.3843
  192MOL0     H25279   5.280   1.565   3.360 -0.2344  2.8117 -0.5132
  192MOL0     H25280   5.322   1.748   3.465 -1.9014 -2.3002  0.5170
  192MOL0     H25281   5.457   1.953   3.625 -1.9511  1.8814  0.0239
  192MOL0     H25282   5.435   1.982   3.452 -0.0954 -0.4011  0.6584
  192MOL0     H25283   5.627   2.092   3.428 -1.9088  0.5103 -0.9233
  192MOL0     H25284   5.675   2.101   3.599  0.5413  0.2653 -2.2145
  192MOL0     H25285   5.446   2.219   3.654 -1.8982 -2.2595 -1.2152
  192MOL0     H25286   5.412   2.217   3.491 -0.5233  0.3958  1.9273
  192MOL0     H25287   5.624   2.339   3.431  0.1093 -2.3678 -0.6158
  192MOL0     H25288   5.490   2.415   3.537 -0.0805  0.5908 -1.2449
  192MOL0     H25289   5.783   2.363   3.598  0.8911 -1.2666  2.1185
  192MOL0     H25290   5.639   2.329   3.717 -2.7505 -0.7019 -0.3728
  192MOL0     H25291   5.660   2.599   3.570 -0.9158 -1.8933 -1.9861
  192MOL0     H25292   5.784   2.569   3.688  0.5134  2.5963 -2.7036
  192MOL0     H25293   5.499   2.633   3.715 -0.1240  2.3062  0.8742
  192MOL0     H25294   5.542   2.506   3.833  0.6458  0.4789 -0.1836
  192MOL0     H25295   5.683   2.774   3.793  2.0574 -2.0898 -0.6501
  192MOL0     H25296   5.706   2.662   3.923 -1.5069 -3.5971  0.1340
  192MOL0     H25297   5.359   2.764   3.806 -0.9554 -0.3541  0.7477
  192MOL0     H25298   5.146   2.781   4.121  0.6115  0.7668 -0.6155
  192MOL0     H25299   5.132   2.774   3.942  1.0365 -2.0756  0.3387
  192MOL0     H25300   5.205   3.018   3.969  2.6737 -1.8061  0.9915
  192MOL0     H25301   5.186   2.985   4.146  2.0906  3.1826 -0.9428
  192MOL0     H25302   4.925   2.922   4.089 -0.7976  1.4706  0.7574
  192MOL0     H25303   4.967   3.091   4.071  1.4724  1.3798 -2.1175
  192MOL0     H25304   4.845   2.975   3.864 -0.3099 -1.5825  3.6583
  192MOL0     H25305   5.014   2.936   3.820  2.5188 -0.9568  2.8148
  192MOL0     H25306   4.708   3.159   3.919 -3.7729  2.0974  2.5820
  192MOL0     H25307   4.607   3.360   3.991 -0.0494  1.0853 -0.7406
  192MOL0     H25308   4.626   3.703   4.286  1.5173  0.8970 -1.3211
  192MOL0     H25309   4.525   3.912   4.351  0.4708  3.2485 -1.1526
  192MOL0     H25310   4.410   4.105   4.357 -0.9608 -1.7497 -0.7082
  192MOL0     H25311   4.328   4.227   4.252  1.0886  0.6795  3.1637
  192MOL0     H25312   4.611   4.127   4.233 -0.7746 -2.1465 -0.6754
  192MOL0     H25313   4.552   4.296   4.229  0.2327 -0.4684  1.7829
  192MOL0     H25314   4.467   4.269   4.012  1.3807 -0.0788 -1.1206
  192MOL0     H25315   4.519   4.095   3.996  2.2648 -0.4840 -0.1227
  192MOL0     H25316   4.657   4.279   3.881 -2.1401 -1.4136 -0.0421
  192MOL0     H25317   4.725   4.307   4.044 -1.5698  1.6863 -1.2321
  192MOL0     H25318   4.705   4.030   3.906  0.1997 -0.4811  0.5579
  192MOL0     H25319   4.748   4.068   4.068 -5.6022 -0.9350 -0.5790
  192MOL0     H25320   4.941   4.215   3.977 -1.4488  0.7703  1.3827
  192MOL0     H25321   4.890   4.151   3.810 -0.5547 -1.6440  0.9951
  192MOL0     H25322   5.077   4.038   3.994 -0.6893 -0.9221  2.1871
  192MOL0     H25323   4.928   3.955   4.011  0.6248 -0.1202 -1.1188
  192MOL0     H25324   5.032   3.986   3.711 -1.2575 -3.0930 -2.8368
  192MOL0     H25325   4.928   3.871   3.780 -0.3170 -1.1207  1.0962
  192MOL0     H25326   4.309   3.888   3.964 -1.6969  1.6851  1.1455
  192MOL0     H25327   4.402   3.665   3.931  1.3955 -2.4433  0.7597
  192MOL0     H25328   4.983   3.565   3.940 -2.8580  1.9270 -1.8715
  192MOL0     H25329   5.077   3.337   3.847 -0.0775 -2.2803 -1.0045
  192MOL0     H25330   5.749   1.688   3.402 -0.3229  1.8113 -2.0766
  192MOL0     H25331   5.691   1.454   3.306 -1.2473 -0.5752 -1.8870
  192MOL0     H25332   5.159   1.111   3.301  2.2579  1.6744  2.9213
  192MOL0     H25333   5.170   0.868   3.213 -0.4281  0.5213 -1.4896
  192MOL0     H25334   5.552   0.747   3.028  1.8363 -2.0355 -1.6766
  192MOL0     H25335   5.455   0.680   2.897  2.9221  2.0319  0.1149
  192MOL0     H25336   5.554   0.506   3.036 -0.1170  1.7041  0.6700
  192MOL0     H25337   5.490   0.571   3.178  2.1478 -2.8309  0.8473
  192MOL0     H25338   5.386   0.371   3.025 -1.2973 -0.4204 -0.0410
  192MOL0     H25339   5.310   0.501   2.935 -0.6002  0.0572  0.0048
  192MOL0     H25340   5.235   0.466   3.228  0.4082  0.7245 -1.0196
  192MOL0     H25341   5.162   0.576   3.122 -0.9513 -1.7568  0.6695
  192MOL0     H25342   4.967   0.204   3.052 -0.3431  1.6286 -1.4002
  192MOL0     H25343   5.550   0.949   3.041  0.3616  1.1003 -0.1162
  192MOL0     H25344   5.555   1.178   3.129 -1.2361 -0.0261 -4.5387
  193MOL0     O25345   9.031   0.750   4.867 -0.3404 -0.2131  0.8541
  193MOL0     C25346   9.055   0.854   4.924 -0.1071 -0.4450 -0.5853
  193MOL0     O25347   9.019   0.874   5.060 -0.0066  0.6378 -0.1716
  193MOL0     C25348   9.049   0.775   5.142  0.0641  0.4681  0.0832
  193MOL0     C25349   9.123   0.650   5.123  0.0996  0.7654  1.2784
  193MOL0     C25350   9.132   0.558   5.223  1.5204 -0.2256 -0.0867
  193MOL0     C25351   9.058   0.575   5.345 -0.4423 -0.2688 -0.1236
  193MOL0     O25352   9.074   0.487   5.447 -0.2269  0.1868  0.1586
  193MOL0     C25353   9.125   0.532   5.571  0.2002 -0.4447 -0.2713
  193MOL0     C25354   9.064   0.439   5.676 -0.2373 -0.7605 -0.0547
  193MOL0     C25355   8.911   0.439   5.676  0.2380 -0.0434 -0.4206
  193MOL0     C25356   8.841   0.347   5.777  0.5317 -0.7169 -0.2557
  193MOL0     C25357   8.860   0.202   5.732 -0.9599 -0.7029 -0.0404
  193MOL0     C25358   8.898   0.120   5.860  0.5994 -0.0968  0.3270
  193MOL0     C25359   8.911  -0.033   5.830 -0.2059  0.1250  0.5094
  193MOL0     C25360   8.776  -0.096   5.785  0.2176 -0.6786  0.0250
  193MOL0     N25361   8.785  -0.245   5.790 -0.3001  0.6506 -0.3968
  193MOL0     C25362   8.810  -0.327   5.687  0.7800 -0.5869  0.4450
  193MOL0     C25363   8.766  -0.448   5.728  0.5027  1.4473  0.4539
  193MOL0     C25364   8.763  -0.577   5.642  0.2925  0.7749 -0.4102
  193MOL0     C25365   8.830  -0.706   5.694  0.4458 -0.1501  0.5917
  193MOL0     C25366   8.737  -0.819   5.668  0.2422  0.4107  0.2217
  193MOL0     C25367   8.730  -0.838   5.512  1.2823  0.4614 -0.8093
  193MOL0     O25368   8.676  -0.967   5.478 -0.1309 -0.4565  0.4535
  193MOL0     C25369   8.767  -1.076   5.488 -0.4811 -0.2978 -0.4309
  193MOL0     C25370   8.715  -1.205   5.506  1.2973  1.1857  0.3793
  193MOL0     C25371   8.800  -1.313   5.494  0.6096  0.5199  0.1555
  193MOL0     C25372   8.942  -1.302   5.463 -0.3968 -0.2077 -0.1525
  193MOL0     C25373   9.024  -1.418   5.435 -0.2027 -0.3129  0.1932
  193MOL0     O25374   9.159  -1.402   5.457 -0.2990 -0.4475  0.0821
  193MOL0     C25375   9.232  -1.512   5.447 -0.3695 -0.8217  0.3570
  193MOL0     C25376   9.312  -1.562   5.549 -0.6362  0.3110 -0.5309
  193MOL0     C25377   9.405  -1.669   5.531  0.4890  0.3759 -0.1068
  193MOL0     C25378   9.429  -1.730   5.403  0.1854  0.2812 -0.6357
  193MOL0     O25379   9.492  -1.849   5.384  0.3259 -0.0837  0.2713
  193MOL0     C25380   9.533  -1.936   5.489 -0.3728 -0.9323 -0.7629
  193MOL0     C25381   9.610  -2.044   5.418 -0.6228  0.4302 -0.8352
  193MOL0     C25382   9.632  -2.158   5.514 -0.3262  0.0831  0.1619
  193MOL0     C25383   9.725  -2.281   5.481 -0.1969  0.3915  0.2821
  193MOL0     C25384   9.713  -2.334   5.338  0.3626  0.1603  0.0707
  193MOL0     C25385   9.581  -2.396   5.304 -0.3542 -0.1002  0.0810
  193MOL0     C25386   9.591  -2.505   5.200  0.1648 -0.2190  0.4010
  193MOL0     C25387   9.470  -2.588   5.193  0.3443  1.0328 -0.0189
  193MOL0    Cl25388   9.320  -2.502   5.190 -0.2248  0.5712  0.3309
  193MOL0     C25389   9.354  -1.675   5.305 -0.2427 -1.1738  0.2520
  193MOL0     C25390   9.248  -1.578   5.321 -0.2082  0.5485 -0.5064
  193MOL0     O25391   8.975  -1.522   5.401 -1.1301 -0.3141  0.3467
  193MOL0     C25392   8.996  -1.168   5.482 -0.0722 -0.2457 -0.0895
  193MOL0     C25393   8.910  -1.065   5.491 -0.8684 -0.9895  0.6191
  193MOL0     N25394   8.726  -0.447   5.852  0.0762 -0.1377  0.0957
  193MOL0     N25395   8.723  -0.326   5.891 -0.5298 -0.6859 -0.6127
  193MOL0     C25396   8.980   0.690   5.364 -0.2047  0.5352 -0.0305
  193MOL0     C25397   8.974   0.788   5.257 -0.7534  0.3821 -0.7894
  193MOL0     C25398   9.073   0.974   4.841  0.6842 -0.9064  0.9069
  193MOL0     C25399   9.116   0.962   4.706  0.3009 -0.1385 -0.3074
  193MOL0     C25400   9.124   1.068   4.624  0.4049 -0.3971 -0.0460
  193MOL0     C25401   9.104   1.199   4.665  0.7938 -0.1495  0.0428
  193MOL0     O25402   9.107   1.305   4.579 -1.0623  0.8811  0.3331
  193MOL0     C25403   9.129   1.286   4.440  0.5855 -0.0877 -0.6058
  193MOL0     C25404   9.135   1.427   4.366  0.0752 -0.4194 -0.4645
  193MOL0     C25405   9.183   1.433   4.225 -0.1124  0.2105 -0.9469
  193MOL0     C25406   9.078   1.392   4.130  0.2427 -0.0343  0.0831
  193MOL0     C25407   9.105   1.426   3.990 -1.4996 -0.4389 -0.2940
  193MOL0     C25408   9.138   1.423   3.872 -0.4079 -0.2707  0.7429
  193MOL0     C25409   9.063   1.224   4.792  0.3235 -0.5343 -1.1313
  193MOL0     C25410   9.047   1.112   4.883 -0.2974 -0.0573  0.0594
  193MOL0     H25411   9.167   0.630   5.026 -0.6912  3.8000  0.2072
  193MOL0     H25412   9.178   0.460   5.214 -2.3345 -2.3767  1.4851
  193MOL0     H25413   9.087   0.630   5.600  2.6836 -0.2133  2.6642
  193MOL0     H25414   9.234   0.538   5.571  0.1395  1.0258 -0.6903
  193MOL0     H25415   9.081   0.472   5.779 -0.8901  1.1344 -0.5020
  193MOL0     H25416   9.101   0.337   5.674 -2.9939 -1.9071  1.6563
  193MOL0     H25417   8.875   0.407   5.578  2.1465  4.8171 -3.0575
  193MOL0     H25418   8.873   0.540   5.698 -1.9363 -0.7394 -0.7325
  193MOL0     H25419   8.877   0.373   5.877  0.3820  0.6365 -0.5291
  193MOL0     H25420   8.735   0.374   5.770  1.3236  2.5374 -2.2066
  193MOL0     H25421   8.939   0.198   5.657 -0.0211 -0.3571  0.9118
  193MOL0     H25422   8.764   0.172   5.689 -1.9128 -1.2483  2.3115
  193MOL0     H25423   8.822   0.145   5.936  0.7401  0.5169  0.2689
  193MOL0     H25424   8.996   0.151   5.896  1.0489 -0.0391 -0.9197
  193MOL0     H25425   8.987  -0.062   5.757 -0.9319 -1.3299  0.3037
  193MOL0     H25426   8.947  -0.080   5.923  0.8659  0.7079  0.4080
  193MOL0     H25427   8.737  -0.057   5.690 -0.6745 -1.1222  0.2032
  193MOL0     H25428   8.706  -0.067   5.864  0.9338 -1.4672  0.9612
  193MOL0     H25429   8.829  -0.310   5.582 -2.5854 -0.2842 -0.2245
  193MOL0     H25430   8.820  -0.554   5.551  2.8856 -0.4686  0.7916
  193MOL0     H25431   8.662  -0.595   5.605 -0.7342  3.8270  0.5942
  193MOL0     H25432   8.829  -0.703   5.803  3.0859  1.4334  0.6576
  193MOL0     H25433   8.917  -0.721   5.629 -0.4863  0.9267 -0.9698
  193MOL0     H25434   8.786  -0.911   5.700 -1.5731 -0.0246  1.9577
  193MOL0     H25435   8.638  -0.820   5.715 -1.2967 -0.5855 -2.7477
  193MOL0     H25436   8.826  -0.808   5.470  1.6259  1.9498  0.9023
  193MOL0     H25437   8.657  -0.763   5.483 -0.4225 -0.3875  1.0524
  193MOL0     H25438   8.608  -1.215   5.492  1.5139  2.7614 -5.0514
  193MOL0     H25439   8.761  -1.413   5.507  1.6629 -0.1608 -1.6224
  193MOL0     H25440   9.305  -1.517   5.648  1.0197  1.4933 -0.9089
  193MOL0     H25441   9.437  -1.717   5.623  0.4200 -1.8386 -1.1861
  193MOL0     H25442   9.452  -1.966   5.555 -0.7756  0.4039 -0.6258
  193MOL0     H25443   9.611  -1.885   5.546 -2.0534  2.8383 -1.5477
  193MOL0     H25444   9.706  -2.004   5.382  0.5703 -1.1792  0.4147
  193MOL0     H25445   9.556  -2.086   5.332 -0.9440  4.1872 -2.6585
  193MOL0     H25446   9.541  -2.203   5.554  2.3377 -1.9727  4.5977
  193MOL0     H25447   9.675  -2.114   5.604  2.6646  0.1848 -1.1818
  193MOL0     H25448   9.834  -2.270   5.490 -0.0170  1.0966 -1.9683
  193MOL0     H25449   9.688  -2.367   5.538 -2.1112 -0.3285 -1.8749
  193MOL0     H25450   9.795  -2.403   5.317 -0.8251 -1.9820  1.9937
  193MOL0     H25451   9.711  -2.250   5.269 -0.2909  1.2996  1.4340
  193MOL0     H25452   9.502  -2.326   5.280  0.3543  1.3430  1.6890
  193MOL0     H25453   9.541  -2.442   5.395  2.6233 -1.8370  0.6550
  193MOL0     H25454   9.598  -2.471   5.097 -1.7050 -0.8865  0.0019
  193MOL0     H25455   9.679  -2.567   5.220  0.9524  0.3284 -1.2740
  193MOL0     H25456   9.467  -2.665   5.271  0.0396  1.3013  0.2331
  193MOL0     H25457   9.481  -2.648   5.101  2.1064  1.4306 -0.1063
  193MOL0     H25458   9.366  -1.704   5.201 -0.9406  3.5985 -1.4183
  193MOL0     H25459   9.193  -1.539   5.236  0.2227 -1.0531 -1.5610
  193MOL0     H25460   9.102  -1.147   5.476 -0.2489  0.6983 -0.0395
  193MOL0     H25461   8.960  -0.970   5.502 -2.2305 -0.1401 -0.2321
  193MOL0     H25462   8.924   0.704   5.456  2.8974 -2.3318  2.6107
  193MOL0     H25463   8.926   0.883   5.278 -0.4154  0.0991  1.5975
  193MOL0     H25464   9.151   0.868   4.665  1.1925  0.1953 -0.3181
  193MOL0     H25465   9.155   1.046   4.522  1.3763 -0.1035  0.1690
  193MOL0     H25466   9.067   1.208   4.397  0.6337 -0.5409  0.1336
  193MOL0     H25467   9.230   1.247   4.424  0.6819 -0.1761  0.1971
  193MOL0     H25468   9.032   1.464   4.376  0.4600  1.6376 -2.9070
  193MOL0     H25469   9.205   1.489   4.423 -1.2122  0.8320 -0.1646
  193MOL0     H25470   9.274   1.372   4.227  0.8692  1.6205 -0.8915
  193MOL0     H25471   9.221   1.530   4.190  0.9700 -1.1162 -3.6798
  193MOL0     H25472   9.058   1.285   4.147  2.4317 -0.4050  0.6719
  193MOL0     H25473   8.986   1.446   4.155 -0.0843 -0.3820 -0.3576
  193MOL0     H25474   9.177   1.422   3.772 -2.2876 -3.3895 -0.0968
  193MOL0     H25475   9.042   1.321   4.838  0.1005 -1.8091  1.6889
  193MOL0     H25476   9.016   1.122   4.986  3.0736  0.3116  1.1449
  194MOL0     O25477   4.454   5.646   0.817 -0.1553 -0.3402  0.7039
  194MOL0     C25478   4.438   5.527   0.844  0.0551  0.1621  0.1936
  194MOL0     O25479   4.472   5.481   0.973  1.2711 -0.5492  1.1178
  194MOL0     C25480   4.522   5.562   1.068 -0.8733 -1.2880  0.2060
  194MOL0     C25481   4.664   5.577   1.085 -0.3152  0.2470  0.7219
  194MOL0     C25482   4.708   5.649   1.205  0.0733  0.0241 -0.0367
  194MOL0     C25483   4.615   5.716   1.295 -0.9097  0.7330  0.4543
  194MOL0     O25484   4.659   5.805   1.391  1.0950  0.2292  0.0365
  194MOL0     C25485   4.787   5.787   1.452  0.3879 -0.3698  1.0518
  194MOL0     C25486   4.796   5.886   1.565 -0.1272  1.1196  0.1245
  194MOL0     C25487   4.683   5.850   1.673  0.0097  0.2837 -0.1895
  194MOL0     C25488   4.654   5.949   1.787  0.4840 -0.4124  1.0384
  194MOL0     C25489   4.777   5.941   1.879  0.7288  0.1146  0.8929
  194MOL0     C25490   4.790   5.806   1.950 -0.2177 -0.9249  0.6486
  194MOL0     C25491   4.671   5.765   2.022 -0.0297 -0.6284 -1.3287
  194MOL0     C25492   4.642   5.860   2.130  1.2124 -0.5121 -0.1359
  194MOL0     N25493   4.538   5.818   2.226 -0.8576 -0.4531  0.6364
  194MOL0     C25494   4.407   5.865   2.229 -0.5852  0.2717 -0.5694
  194MOL0     C25495   4.357   5.817   2.351  1.5505  0.0159 -0.0805
  194MOL0     C25496   4.217   5.826   2.404  0.2410 -0.0406 -0.2282
  194MOL0     C25497   4.214   5.866   2.552 -0.1160 -1.2739  0.7987
  194MOL0     C25498   4.282   5.995   2.575  0.0125 -0.6636  0.2115
  194MOL0     C25499   4.246   6.042   2.716 -0.4185 -1.0827 -0.0448
  194MOL0     O25500   4.295   6.182   2.741  0.1125  0.0237  0.1776
  194MOL0     C25501   4.256   6.243   2.860 -0.5406  0.1738  1.0549
  194MOL0     C25502   4.323   6.365   2.887 -0.4858 -0.3059 -0.7723
  194MOL0     C25503   4.276   6.437   2.997  0.4999  0.6884 -0.0440
  194MOL0     C25504   4.175   6.385   3.090  0.0072 -0.6695  0.5114
  194MOL0     C25505   4.136   6.453   3.212 -0.8333 -0.2350  0.2527
  194MOL0     O25506   4.203   6.572   3.234  0.0835  0.1601  0.1725
  194MOL0     C25507   4.170   6.646   3.340  0.3920  0.0424  0.3959
  194MOL0     C25508   4.250   6.627   3.450 -0.5306  0.2639  0.2262
  194MOL0     C25509   4.249   6.722   3.549  1.0200  0.0142 -0.4124
  194MOL0     C25510   4.166   6.827   3.547  0.8422  1.0344 -0.5512
  194MOL0     O25511   4.164   6.895   3.665 -0.1756 -0.5443 -0.4954
  194MOL0     C25512   4.089   7.013   3.675  0.3205 -0.1466  0.3020
  194MOL0     C25513   4.109   7.093   3.805 -0.5592 -0.6577  0.8036
  194MOL0     C25514   4.239   7.172   3.813 -0.1159 -0.5260 -0.5478
  194MOL0     C25515   4.237   7.300   3.724  0.0174 -0.0864  0.1139
  194MOL0     C25516   4.353   7.386   3.774  0.1909  0.3321 -0.0536
  194MOL0     C25517   4.340   7.534   3.727 -0.6334 -0.7423  0.5217
  194MOL0     C25518   4.472   7.608   3.750  0.5512  0.1803  0.4721
  194MOL0     C25519   4.483   7.742   3.681 -0.1606  0.7027 -0.5697
  194MOL0    Cl25520   4.636   7.828   3.737  0.0912  0.6751  0.2698
  194MOL0     C25521   4.078   6.850   3.432  0.1730 -0.4621 -0.1186
  194MOL0     C25522   4.080   6.759   3.325 -0.5195 -0.6960  0.2452
  194MOL0     O25523   4.072   6.398   3.299  0.1472  0.1577 -0.7491
  194MOL0     C25524   4.111   6.266   3.056  0.4507 -0.7353 -0.7912
  194MOL0     C25525   4.151   6.199   2.939  0.1439  0.0708  0.2540
  194MOL0     N25526   4.454   5.728   2.397 -0.7120 -0.1528  0.4960
  194MOL0     N25527   4.566   5.736   2.334 -0.1249 -0.7184 -0.3116
  194MOL0     C25528   4.476   5.692   1.272 -0.1850  0.4734 -0.8478
  194MOL0     C25529   4.435   5.604   1.168 -0.6046  0.9678  0.6306
  194MOL0     C25530   4.377   5.438   0.756  0.6651  0.7334  0.5989
  194MOL0     C25531   4.389   5.291   0.776  0.1220  1.0265 -0.3107
  194MOL0     C25532   4.328   5.201   0.687  1.1590  1.3204  0.1495
  194MOL0     C25533   4.268   5.253   0.570  0.7098 -0.2053 -0.5838
  194MOL0     O25534   4.220   5.149   0.491  0.3723  0.1434 -0.2426
  194MOL0     C25535   4.115   5.186   0.399 -0.3682 -0.1422  1.0318
  194MOL0     C25536   4.072   5.063   0.330 -0.0103 -0.4177 -0.7735
  194MOL0     C25537   3.940   5.088   0.259  0.0886 -1.5397 -0.1165
  194MOL0     C25538   3.905   4.979   0.166  0.8142 -0.2785 -0.2251
  194MOL0     C25539   3.770   4.964   0.112 -0.5246 -0.8439 -0.4359
  194MOL0     C25540   3.659   4.972   0.061 -0.5106  0.7339 -0.7809
  194MOL0     C25541   4.269   5.390   0.542 -0.1532 -0.1148 -0.8557
  194MOL0     C25542   4.311   5.478   0.644 -0.3555  0.7069 -0.0799
  194MOL0     H25543   4.728   5.514   1.024  1.4082  1.8835  0.7243
  194MOL0     H25544   4.813   5.675   1.207  0.2382 -0.4766 -1.4256
  194MOL0     H25545   4.862   5.814   1.377 -0.6367 -2.2246 -0.7644
  194MOL0     H25546   4.798   5.686   1.494 -0.5198 -0.7920  0.3198
  194MOL0     H25547   4.788   5.982   1.513 -1.1154 -0.8863 -3.8252
  194MOL0     H25548   4.893   5.872   1.614 -1.3382 -0.2309  2.2903
  194MOL0     H25549   4.699   5.748   1.711  2.3927  1.2223  1.5216
  194MOL0     H25550   4.588   5.848   1.618  1.4950 -1.1366 -2.9360
  194MOL0     H25551   4.642   6.048   1.742 -0.7408 -1.0396 -0.0780
  194MOL0     H25552   4.555   5.925   1.827 -0.1175 -0.4623 -0.4215
  194MOL0     H25553   4.764   6.008   1.965  0.6434  0.7379  0.3985
  194MOL0     H25554   4.869   5.967   1.825 -0.4723  0.4159 -1.1019
  194MOL0     H25555   4.875   5.818   2.018 -1.5058  2.2837  1.8800
  194MOL0     H25556   4.826   5.735   1.874  1.0872  0.0825  0.2803
  194MOL0     H25557   4.581   5.760   1.961 -0.9128 -0.4110 -0.0818
  194MOL0     H25558   4.696   5.662   2.049  0.3273 -0.4896 -1.1236
  194MOL0     H25559   4.610   5.957   2.089 -1.2575 -0.4307  1.7431
  194MOL0     H25560   4.739   5.887   2.174  1.6575 -0.2628 -1.2200
  194MOL0     H25561   4.348   5.928   2.162 -2.0991  0.8252  1.1778
  194MOL0     H25562   4.155   5.741   2.376 -0.3878  0.6948 -1.1307
  194MOL0     H25563   4.173   5.915   2.359  0.2507  1.6237  2.8043
  194MOL0     H25564   4.247   5.784   2.616  0.1772 -0.8406  1.2085
  194MOL0     H25565   4.109   5.895   2.567  1.2114  4.9622  0.6741
  194MOL0     H25566   4.391   5.994   2.565 -0.0633  2.1431 -2.2574
  194MOL0     H25567   4.232   6.063   2.506 -1.5167 -0.3177  1.5762
  194MOL0     H25568   4.278   5.984   2.802  1.2714 -3.3179 -2.0560
  194MOL0     H25569   4.137   6.044   2.721 -0.5995  1.0768 -2.5404
  194MOL0     H25570   4.390   6.405   2.812  0.2339 -3.1758 -1.7622
  194MOL0     H25571   4.298   6.542   3.015 -1.0585  0.9475  0.5336
  194MOL0     H25572   4.340   6.566   3.457  1.4846  2.9948 -0.2216
  194MOL0     H25573   4.311   6.714   3.637 -1.3690 -1.1635  1.2964
  194MOL0     H25574   3.983   6.985   3.674 -0.3294  2.1197 -0.0687
  194MOL0     H25575   4.102   7.077   3.587 -0.6278  0.2028  0.4083
  194MOL0     H25576   4.111   7.008   3.874  2.0796 -0.0475  1.5808
  194MOL0     H25577   4.033   7.163   3.840  0.4401  0.8158  0.1593
  194MOL0     H25578   4.316   7.100   3.785 -1.8056 -2.0470 -1.5222
  194MOL0     H25579   4.265   7.192   3.918 -1.4461 -4.0293  0.5879
  194MOL0     H25580   4.238   7.281   3.616 -0.7365 -0.9863  0.2478
  194MOL0     H25581   4.142   7.349   3.742  1.3914  2.6737  0.3447
  194MOL0     H25582   4.451   7.344   3.751  0.4435  1.1302 -0.4626
  194MOL0     H25583   4.346   7.388   3.883  0.5195 -2.2365  0.0847
  194MOL0     H25584   4.249   7.576   3.771 -1.5153 -1.6909 -0.3275
  194MOL0     H25585   4.326   7.537   3.618 -0.1493  1.3070  0.4720
  194MOL0     H25586   4.494   7.635   3.854  2.6452  4.6756 -0.8767
  194MOL0     H25587   4.553   7.543   3.715 -0.8566 -1.0203 -0.6915
  194MOL0     H25588   4.395   7.806   3.698  0.0955  0.7358  0.7520
  194MOL0     H25589   4.499   7.727   3.574  2.2529 -1.3483  0.0032
  194MOL0     H25590   4.015   6.938   3.438 -0.0390 -0.6941  1.4175
  194MOL0     H25591   3.998   6.774   3.255 -1.3924 -0.3156  1.3127
  194MOL0     H25592   4.035   6.223   3.119 -0.8918  1.1886 -1.0207
  194MOL0     H25593   4.105   6.102   2.924 -0.3766  0.5882 -1.9067
  194MOL0     H25594   4.408   5.741   1.341  1.8324  4.3164 -1.2673
  194MOL0     H25595   4.334   5.567   1.156  0.4038 -1.3078 -2.1215
  194MOL0     H25596   4.433   5.267   0.872 -1.9045  0.3652  0.5000
  194MOL0     H25597   4.349   5.098   0.717  3.2668  1.6497 -0.0069
  194MOL0     H25598   4.143   5.268   0.333  0.7808 -0.8301  0.6503
  194MOL0     H25599   4.022   5.220   0.447 -1.1477 -3.1285  1.8398
  194MOL0     H25600   4.151   5.031   0.261  1.7805 -1.7901  1.7438
  194MOL0     H25601   4.056   4.988   0.408  0.0493 -0.3238 -0.6699
  194MOL0     H25602   3.937   5.186   0.211 -4.3868 -1.2988  0.2366
  194MOL0     H25603   3.863   5.081   0.336 -0.7454 -0.9999 -0.8902
  194MOL0     H25604   3.965   5.002   0.077  2.3584 -1.8489  0.3348
  194MOL0     H25605   3.947   4.883   0.196  1.4318  0.2438  0.6307
  194MOL0     H25606   3.572   5.003   0.007  0.8924 -0.8539 -4.2516
  194MOL0     H25607   4.229   5.429   0.449  0.6906  5.0619  0.6518
  194MOL0     H25608   4.286   5.583   0.633 -0.4457  0.9264  1.8979
  195MOL0     O25609   5.463   8.068   7.290  0.3497 -0.2051 -0.6020
  195MOL0     C25610   5.346   8.102   7.316 -0.5151  0.6578 -0.0319
  195MOL0     O25611   5.270   8.194   7.249 -0.5397 -0.0097 -0.5206
  195MOL0     C25612   5.316   8.245   7.131 -0.3650  0.0987  1.1356
  195MOL0     C25613   5.234   8.225   7.012 -0.5810 -0.6015 -0.2736
  195MOL0     C25614   5.289   8.243   6.889  0.5652 -0.8122 -0.1492
  195MOL0     C25615   5.413   8.303   6.871  0.1247 -0.6459  1.2006
  195MOL0     O25616   5.455   8.306   6.740 -0.2929 -0.6173  0.1024
  195MOL0     C25617   5.591   8.274   6.711 -0.3153  0.5178  0.0107
  195MOL0     C25618   5.617   8.296   6.557 -0.7806 -1.4898 -0.9422
  195MOL0     C25619   5.550   8.205   6.451  0.6977 -0.0580 -0.6986
  195MOL0     C25620   5.574   8.050   6.464  0.2979 -0.3788  0.8273
  195MOL0     C25621   5.471   7.974   6.370  0.2376  0.0339 -0.3997
  195MOL0     C25622   5.333   7.977   6.443  0.1069 -0.2116  0.1599
  195MOL0     C25623   5.212   7.966   6.352  0.4652 -0.3645  0.3805
  195MOL0     C25624   5.082   7.974   6.428  0.6749  0.1866 -0.5887
  195MOL0     N25625   5.067   8.092   6.511  0.3170  0.6088  0.1821
  195MOL0     C25626   5.032   8.214   6.464 -0.3470  0.0199  0.6172
  195MOL0     C25627   4.962   8.274   6.559 -0.1834  0.9058 -0.3540
  195MOL0     C25628   4.873   8.400   6.560 -0.2441  0.4827 -0.1397
  195MOL0     C25629   4.939   8.520   6.487 -0.3399  0.1380 -0.3216
  195MOL0     C25630   5.046   8.565   6.579 -1.3989 -0.9219  1.3940
  195MOL0     C25631   5.135   8.673   6.500 -0.1994  0.2369 -0.6367
  195MOL0     O25632   5.209   8.605   6.395  0.0565 -0.2015  0.4752
  195MOL0     C25633   5.256   8.678   6.290 -0.0191 -0.3600 -0.0438
  195MOL0     C25634   5.347   8.613   6.205 -0.7672  0.9728 -0.1116
  195MOL0     C25635   5.409   8.682   6.105 -0.0125 -0.3977  0.6788
  195MOL0     C25636   5.372   8.816   6.067 -0.5344 -0.4053  0.4858
  195MOL0     C25637   5.423   8.889   5.950 -0.2883 -0.4407 -0.0083
  195MOL0     O25638   5.385   9.024   5.950  0.1194  0.1016 -0.1978
  195MOL0     C25639   5.412   9.117   5.854 -0.4007  0.1795  0.4039
  195MOL0     C25640   5.444   9.246   5.889 -0.8967  0.5439  0.8942
  195MOL0     C25641   5.481   9.335   5.794  0.0040 -0.1044  0.0476
  195MOL0     C25642   5.488   9.312   5.660  0.0025 -0.0028 -1.3569
  195MOL0     O25643   5.518   9.415   5.578  0.1362 -0.0341 -0.0614
  195MOL0     C25644   5.599   9.382   5.468 -0.3487  0.0033  0.2763
  195MOL0     C25645   5.539   9.423   5.343  0.7352  0.4683  0.6816
  195MOL0     C25646   5.569   9.335   5.221  0.2775 -0.2490  0.9303
  195MOL0     C25647   5.487   9.384   5.090  0.3612  0.9154 -0.4482
  195MOL0     C25648   5.347   9.346   5.092  0.1276 -0.5725  0.9198
  195MOL0     C25649   5.310   9.318   4.950  0.1910  0.7482  0.1575
  195MOL0     C25650   5.285   9.438   4.868  0.2771  0.6798  0.0400
  195MOL0     C25651   5.267   9.411   4.717 -0.4088 -0.3708  0.8680
  195MOL0    Cl25652   5.206   9.562   4.618  0.4769 -0.1083  0.6864
  195MOL0     C25653   5.466   9.179   5.622  0.0174  0.4946  0.3335
  195MOL0     C25654   5.428   9.082   5.719  0.5157 -0.4672 -0.9988
  195MOL0     O25655   5.503   8.836   5.871 -0.1215 -0.2337 -0.3462
  195MOL0     C25656   5.285   8.881   6.153  0.3321  0.0649 -0.2910
  195MOL0     C25657   5.224   8.810   6.266  0.4244 -0.7415 -1.0437
  195MOL0     N25658   4.965   8.187   6.676  0.6181 -0.2242 -0.1036
  195MOL0     N25659   5.046   8.092   6.648  0.2099  0.3428  0.1667
  195MOL0     C25660   5.495   8.335   6.981  0.0929 -1.2659 -1.1875
  195MOL0     C25661   5.443   8.308   7.115 -0.0099  0.0938  1.2151
  195MOL0     C25662   5.283   8.042   7.438 -0.1272  0.2573 -0.7434
  195MOL0     C25663   5.314   7.914   7.478 -0.3541  0.6477  0.7106
  195MOL0     C25664   5.247   7.862   7.588 -0.5940 -0.0716  0.4262
  195MOL0     C25665   5.151   7.927   7.657  0.8799  0.9919 -0.4976
  195MOL0     O25666   5.096   7.866   7.765  0.6982 -1.0294  0.3072
  195MOL0     C25667   5.061   7.951   7.877  0.3482  0.1121  0.3348
  195MOL0     C25668   4.921   7.926   7.939  0.3624 -0.2407 -1.0717
  195MOL0     C25669   4.803   7.978   7.852 -0.6167 -0.5990  0.0907
  195MOL0     C25670   4.664   7.948   7.909  0.3666  0.6264  0.0720
  195MOL0     C25671   4.658   7.805   7.948 -0.4400  0.3798 -0.3996
  195MOL0     C25672   4.656   7.699   7.998  0.0439 -0.9711 -0.1968
  195MOL0     C25673   5.110   8.047   7.609 -0.3107  0.2739 -0.5065
  195MOL0     C25674   5.167   8.103   7.496  0.1599  0.5894  0.5927
  195MOL0     H25675   5.138   8.180   6.992 -0.2639 -0.7597 -1.4612
  195MOL0     H25676   5.228   8.231   6.800 -0.6687 -3.5131  0.9695
  195MOL0     H25677   5.580   8.165   6.714 -2.2187  0.6672  0.0403
  195MOL0     H25678   5.663   8.320   6.779  0.9796 -2.5124  0.8661
  195MOL0     H25679   5.726   8.293   6.552 -0.2871 -2.0846  4.2190
  195MOL0     H25680   5.584   8.399   6.540  1.2039 -0.6956 -0.3014
  195MOL0     H25681   5.596   8.242   6.359  0.7030 -0.1255 -0.7228
  195MOL0     H25682   5.443   8.228   6.457  0.2727 -0.4930 -4.2590
  195MOL0     H25683   5.677   8.029   6.433  0.1191 -0.4473  0.2517
  195MOL0     H25684   5.565   8.013   6.566 -2.2846 -1.3098  0.3535
  195MOL0     H25685   5.501   7.869   6.366 -0.1832 -0.0800 -0.6357
  195MOL0     H25686   5.468   8.004   6.265  1.3002 -1.2049 -0.8116
  195MOL0     H25687   5.325   8.065   6.507  1.4418  0.0849 -0.0568
  195MOL0     H25688   5.324   7.889   6.508  1.4370  0.4255  1.2621
  195MOL0     H25689   5.212   8.046   6.277 -5.0313  2.5661  2.8244
  195MOL0     H25690   5.222   7.872   6.298  1.7778 -0.7855  1.3087
  195MOL0     H25691   5.073   7.887   6.494 -1.2706  1.6774  1.2332
  195MOL0     H25692   4.993   7.988   6.367  1.5133  1.2815 -1.6153
  195MOL0     H25693   5.047   8.254   6.364  0.0505 -1.6613 -0.0301
  195MOL0     H25694   4.850   8.421   6.665  0.4300 -0.7040  0.2657
  195MOL0     H25695   4.772   8.387   6.520  0.5291  1.6478 -2.6506
  195MOL0     H25696   4.855   8.587   6.468 -0.1993  0.3874 -0.0721
  195MOL0     H25697   4.985   8.489   6.392 -1.2642  2.3689 -1.5639
  195MOL0     H25698   5.003   8.600   6.674  0.2193  2.5544  1.0034
  195MOL0     H25699   5.110   8.483   6.614 -3.3571 -2.3873  1.6857
  195MOL0     H25700   5.200   8.737   6.561 -3.9372  3.0806  0.7503
  195MOL0     H25701   5.064   8.750   6.470 -0.1219  0.7756  0.4873
  195MOL0     H25702   5.371   8.514   6.240 -0.8512  0.9788 -0.0384
  195MOL0     H25703   5.500   8.654   6.052  1.9346  4.2742  1.0806
  195MOL0     H25704   5.457   9.279   5.992 -0.8858  2.4327  0.3069
  195MOL0     H25705   5.506   9.430   5.840 -2.5192  0.9265 -0.5525
  195MOL0     H25706   5.622   9.276   5.466 -2.6851 -0.5835  0.9653
  195MOL0     H25707   5.695   9.435   5.470 -1.4042  2.0512  0.1493
  195MOL0     H25708   5.569   9.526   5.320 -0.8230  1.0095  0.9470
  195MOL0     H25709   5.431   9.421   5.356  0.5559 -0.8304 -0.6730
  195MOL0     H25710   5.556   9.228   5.236 -1.2720 -0.6367 -2.2706
  195MOL0     H25711   5.677   9.341   5.207  0.0318 -0.4039 -1.4601
  195MOL0     H25712   5.497   9.492   5.074 -2.2781  1.0293 -1.9865
  195MOL0     H25713   5.542   9.342   5.005  0.3313 -1.0640  0.4587
  195MOL0     H25714   5.284   9.427   5.133 -0.4405  1.7618 -3.9056
  195MOL0     H25715   5.326   9.253   5.145 -2.8890  0.8191  2.4702
  195MOL0     H25716   5.220   9.256   4.954  1.5546 -1.3210  0.1331
  195MOL0     H25717   5.376   9.244   4.904  1.3121 -0.8676  3.9964
  195MOL0     H25718   5.193   9.486   4.901  0.6458  0.7355  1.0381
  195MOL0     H25719   5.361   9.514   4.890 -0.6513  1.3266  1.1178
  195MOL0     H25720   5.202   9.324   4.700 -1.3388  0.6389 -1.0669
  195MOL0     H25721   5.358   9.370   4.673 -0.4250  0.8963 -0.4384
  195MOL0     H25722   5.493   9.150   5.521 -0.3972 -1.5374  0.7621
  195MOL0     H25723   5.424   8.978   5.689 -1.5057 -1.0661  1.0430
  195MOL0     H25724   5.260   8.985   6.137 -0.3893 -0.0625 -0.0510
  195MOL0     H25725   5.169   8.866   6.341  0.5369 -1.5522 -0.3300
  195MOL0     H25726   5.595   8.371   6.964 -0.0834 -0.6398 -0.9124
  195MOL0     H25727   5.493   8.312   7.211 -0.9556 -1.6449  1.8193
  195MOL0     H25728   5.389   7.857   7.424 -1.2207  0.1756 -0.0249
  195MOL0     H25729   5.283   7.765   7.620 -1.8541  0.0983  2.5870
  195MOL0     H25730   5.086   8.056   7.862 -2.8378  1.0957  1.1604
  195MOL0     H25731   5.128   7.915   7.956  0.2084 -2.3484 -0.5718
  195MOL0     H25732   4.917   7.823   7.977  2.8364  0.2294  0.7538
  195MOL0     H25733   4.927   7.973   8.038 -1.2241  2.3795 -2.1367
  195MOL0     H25734   4.816   7.927   7.757  3.0686  1.3127 -0.5875
  195MOL0     H25735   4.822   8.084   7.835  3.6253 -1.1042  0.5756
  195MOL0     H25736   4.635   8.004   7.999  0.9548 -1.0164  1.3313
  195MOL0     H25737   4.591   7.958   7.829 -0.0497  1.2680  0.5194
  195MOL0     H25738   4.669   7.602   8.042 -0.8222 -1.5026 -1.0718
  195MOL0     H25739   5.022   8.100   7.646  1.5025  3.8181 -0.7962
  195MOL0     H25740   5.132   8.194   7.448 -1.0226 -0.3465 -0.4095
  196MOL0     O25741   6.651   4.924   4.212  0.8574  0.2738 -0.2011
  196MOL0     C25742   6.670   5.039   4.178 -0.0614  0.0821  0.0970
  196MOL0     O25743   6.750   5.125   4.236 -0.6536  0.2688 -0.7976
  196MOL0     C25744   6.848   5.087   4.327  0.0899  0.4992 -1.4751
  196MOL0     C25745   6.901   5.203   4.396 -0.1942  0.2794  0.8358
  196MOL0     C25746   7.004   5.189   4.495 -0.4721 -1.3937  0.1920
  196MOL0     C25747   7.048   5.060   4.526 -0.8194  0.9321  0.4636
  196MOL0     O25748   7.134   5.027   4.624 -0.6077  0.1971 -0.0015
  196MOL0     C25749   7.234   5.128   4.653  0.1639 -0.1745 -0.2842
  196MOL0     C25750   7.322   5.065   4.764  0.3556 -0.5917  0.2480
  196MOL0     C25751   7.264   5.085   4.907 -0.5453 -0.2683 -0.4876
  196MOL0     C25752   7.337   5.000   5.004  0.0294 -0.6359 -0.0762
  196MOL0     C25753   7.465   5.068   5.046  0.7219  0.0543  0.8728
  196MOL0     C25754   7.530   4.994   5.168  0.1480 -0.2100  0.5323
  196MOL0     C25755   7.673   5.061   5.205 -0.3480  0.3037 -0.3084
  196MOL0     C25756   7.761   4.984   5.307 -0.5871 -0.4880  0.6750
  196MOL0     N25757   7.845   5.085   5.378  0.6474  0.3015 -0.6063
  196MOL0     C25758   7.913   5.194   5.323 -0.3069 -0.2354 -0.0933
  196MOL0     C25759   7.992   5.223   5.432  0.2185 -0.3006  0.7036
  196MOL0     C25760   8.083   5.337   5.423  0.3467 -0.5380 -0.2123
  196MOL0     C25761   8.210   5.305   5.333  0.3001  0.1775 -0.6422
  196MOL0     C25762   8.337   5.297   5.413  0.1696 -0.4151  0.0067
  196MOL0     C25763   8.454   5.251   5.320 -0.8437 -0.7072  0.0242
  196MOL0     O25764   8.466   5.336   5.194  0.8293  0.4370  0.0627
  196MOL0     C25765   8.475   5.473   5.202 -0.0189  0.1291 -1.0992
  196MOL0     C25766   8.525   5.550   5.306 -0.1240 -1.4029 -0.8649
  196MOL0     C25767   8.522   5.695   5.315 -0.3837 -0.8032  0.6946
  196MOL0     C25768   8.461   5.758   5.206 -0.7147 -0.8013  0.6714
  196MOL0     C25769   8.447   5.906   5.201 -0.5864 -0.2172  1.0355
  196MOL0     O25770   8.352   5.960   5.117  0.5143 -0.3717 -0.4622
  196MOL0     C25771   8.342   6.096   5.107  0.0060  0.3702 -0.1088
  196MOL0     C25772   8.358   6.147   4.979 -0.2452 -0.8012  0.1278
  196MOL0     C25773   8.340   6.283   4.966  0.4401  0.2853 -0.0655
  196MOL0     C25774   8.311   6.373   5.073 -0.3146 -0.5200  0.2862
  196MOL0     O25775   8.303   6.506   5.050 -0.3358 -0.4723 -0.4201
  196MOL0     C25776   8.166   6.528   5.015  0.4505 -0.0162  0.2728
  196MOL0     C25777   8.114   6.669   5.066 -0.6143  0.8437 -0.5865
  196MOL0     C25778   8.144   6.795   4.971  0.4756  0.3538 -0.1058
  196MOL0     C25779   8.066   6.910   5.017  0.3677 -0.7133 -0.3739
  196MOL0     C25780   8.082   7.040   4.962 -0.1216 -0.0925  0.4486
  196MOL0     C25781   7.969   7.131   5.007  0.0931  0.3289 -0.6111
  196MOL0     C25782   7.819   7.084   4.994  1.0997 -0.7907 -0.5703
  196MOL0     C25783   7.720   7.206   5.022  0.2549  0.7399  0.4378
  196MOL0    Cl25784   7.730   7.252   5.198 -0.0370  0.1414 -0.8577
  196MOL0     C25785   8.321   6.319   5.201 -0.7739 -0.7279 -0.4899
  196MOL0     C25786   8.331   6.183   5.218  0.3545 -0.8344 -0.2791
  196MOL0     O25787   8.528   5.980   5.261 -0.2206  0.9404 -0.1676
  196MOL0     C25788   8.418   5.681   5.092  0.1647 -0.0213  0.2453
  196MOL0     C25789   8.428   5.541   5.093 -0.4972 -0.5737 -0.2727
  196MOL0     N25790   7.969   5.145   5.543  0.2045  0.0950 -0.0092
  196MOL0     N25791   7.885   5.056   5.500  0.5731 -0.6381  0.6838
  196MOL0     C25792   6.993   4.945   4.460  0.3758 -0.1855 -0.8079
  196MOL0     C25793   6.880   4.961   4.371 -0.9595 -0.5656 -0.1422
  196MOL0     C25794   6.594   5.092   4.058  0.0910 -0.0627  0.3068
  196MOL0     C25795   6.593   5.223   4.026 -1.0816 -0.1856 -0.3425
  196MOL0     C25796   6.524   5.280   3.919  0.3270  0.1865 -0.4624
  196MOL0     C25797   6.450   5.192   3.836 -0.3538 -0.3573 -1.0062
  196MOL0     O25798   6.368   5.228   3.737  0.4252  1.1211 -0.4572
  196MOL0     C25799   6.406   5.332   3.647 -0.9309 -0.3638 -0.5074
  196MOL0     C25800   6.520   5.284   3.564 -0.3364 -0.4471 -1.0038
  196MOL0     C25801   6.557   5.403   3.464  0.4351 -0.3823  0.9211
  196MOL0     C25802   6.693   5.395   3.385  0.0013  0.1637  0.7162
  196MOL0     C25803   6.668   5.407   3.235 -1.1714  1.1819  0.1926
  196MOL0     C25804   6.664   5.422   3.111 -0.2392 -1.1572  0.3742
  196MOL0     C25805   6.450   5.057   3.868 -0.0758 -0.2495 -0.2458
  196MOL0     C25806   6.524   5.004   3.972  0.3461 -0.0705  0.3639
  196MOL0     H25807   6.872   5.305   4.371 -0.4715  0.4823  1.9367
  196MOL0     H25808   7.064   5.268   4.539 -1.7982 -0.2463  0.0484
  196MOL0     H25809   7.196   5.223   4.694  0.2228  0.4285 -1.5741
  196MOL0     H25810   7.287   5.159   4.563 -0.4919 -1.1104 -1.0086
  196MOL0     H25811   7.416   5.121   4.762 -1.2079  2.2676  0.2891
  196MOL0     H25812   7.334   4.959   4.744 -1.1697 -0.6239 -0.6496
  196MOL0     H25813   7.159   5.054   4.908 -0.3952 -0.8078 -0.8201
  196MOL0     H25814   7.269   5.191   4.933 -1.6342 -0.5096  0.8313
  196MOL0     H25815   7.276   4.966   5.088 -0.5472 -1.5281 -0.8394
  196MOL0     H25816   7.364   4.901   4.965 -0.7897 -1.4036  1.2500
  196MOL0     H25817   7.442   5.169   5.081 -1.8656  0.0712 -0.6032
  196MOL0     H25818   7.528   5.075   4.956  2.2828 -3.1142  1.5527
  196MOL0     H25819   7.543   4.887   5.149  3.0654  0.3414 -1.0776
  196MOL0     H25820   7.473   5.010   5.260  0.2255  1.5096  0.2993
  196MOL0     H25821   7.736   5.079   5.118  0.7801  0.6719  0.5608
  196MOL0     H25822   7.652   5.161   5.245 -0.3291  0.4631 -0.6925
  196MOL0     H25823   7.830   4.920   5.251  3.1104  2.3466  1.5607
  196MOL0     H25824   7.705   4.928   5.382 -1.6853 -2.1019 -1.2315
  196MOL0     H25825   7.896   5.241   5.227 -2.4357  2.0118  1.2743
  196MOL0     H25826   8.112   5.356   5.526  1.9908 -2.6119 -0.2209
  196MOL0     H25827   8.026   5.418   5.377 -0.3452 -0.9128 -0.0306
  196MOL0     H25828   8.231   5.380   5.256  0.8879 -2.2679 -3.0602
  196MOL0     H25829   8.189   5.212   5.278 -2.2093  2.8143 -4.7100
  196MOL0     H25830   8.362   5.398   5.446 -1.0559  0.2543 -1.0188
  196MOL0     H25831   8.329   5.235   5.503  1.9075 -1.8025 -0.7342
  196MOL0     H25832   8.440   5.145   5.298  1.0478 -1.0629  0.3915
  196MOL0     H25833   8.545   5.260   5.379 -2.2830  1.7892  2.0733
  196MOL0     H25834   8.584   5.511   5.388 -0.9079 -0.6256  0.0875
  196MOL0     H25835   8.564   5.753   5.397  1.3555  0.8644 -1.2493
  196MOL0     H25836   8.364   6.077   4.897  4.1713 -3.0479  2.0653
  196MOL0     H25837   8.324   6.305   4.861 -0.8350 -6.3274 -1.6830
  196MOL0     H25838   8.098   6.460   5.068  2.8558 -0.7248  2.6884
  196MOL0     H25839   8.163   6.523   4.906  2.8943  3.1395 -0.0916
  196MOL0     H25840   8.151   6.690   5.167 -3.6371  3.4913  0.1467
  196MOL0     H25841   8.006   6.668   5.083 -0.2849  1.1944  1.9895
  196MOL0     H25842   8.116   6.768   4.869 -0.5599  1.9546 -0.2823
  196MOL0     H25843   8.245   6.833   4.990  1.7827 -2.3156 -1.2416
  196MOL0     H25844   7.959   6.887   5.014  0.3871 -0.7406 -2.3031
  196MOL0     H25845   8.091   6.933   5.121  0.1458  1.5886 -0.7710
  196MOL0     H25846   8.074   7.038   4.853 -0.2882 -2.0900  0.4557
  196MOL0     H25847   8.182   7.078   4.984  0.0969  0.1922 -0.9467
  196MOL0     H25848   7.987   7.228   4.960  1.0354  1.1654  1.3415
  196MOL0     H25849   7.991   7.157   5.111  2.0164 -0.3134 -0.8225
  196MOL0     H25850   7.803   7.057   4.890 -1.9749 -1.3642 -0.0661
  196MOL0     H25851   7.799   6.999   5.060 -1.6447  0.4867  0.4160
  196MOL0     H25852   7.615   7.181   5.005 -0.1624  1.6000  1.6368
  196MOL0     H25853   7.756   7.285   4.956  0.3472 -0.1521 -0.6124
  196MOL0     H25854   8.315   6.389   5.283  1.2669 -1.3836  0.2907
  196MOL0     H25855   8.329   6.124   5.309  0.0416 -0.3221  0.0443
  196MOL0     H25856   8.373   5.716   5.000 -0.8137  0.2977  0.8347
  196MOL0     H25857   8.390   5.475   5.017 -2.1531 -2.0696  1.7530
  196MOL0     H25858   7.022   4.847   4.497 -2.3787 -0.8269 -0.0943
  196MOL0     H25859   6.845   4.870   4.324 -1.4007 -1.0419  1.0746
  196MOL0     H25860   6.636   5.291   4.099 -1.7406 -0.0582 -0.0618
  196MOL0     H25861   6.512   5.388   3.913 -0.1974  0.2040  0.7362
  196MOL0     H25862   6.434   5.422   3.701  2.0656 -0.9869 -0.8351
  196MOL0     H25863   6.326   5.356   3.575  0.8820  1.9982 -1.8654
  196MOL0     H25864   6.603   5.277   3.636  1.7325  0.3170 -3.1640
  196MOL0     H25865   6.506   5.189   3.512  2.4965 -0.5994 -1.6697
  196MOL0     H25866   6.570   5.501   3.512 -3.3878  2.1603 -2.5811
  196MOL0     H25867   6.479   5.416   3.389  0.8997 -2.8716 -0.0868
  196MOL0     H25868   6.747   5.482   3.425 -1.6023  0.6313  2.0210
  196MOL0     H25869   6.733   5.297   3.410 -0.0963 -1.0760 -3.2755
  196MOL0     H25870   6.642   5.432   3.006 -0.9107 -0.6876  0.5523
  196MOL0     H25871   6.397   4.980   3.812  0.6141 -0.0585 -1.1800
  196MOL0     H25872   6.524   4.897   3.987 -5.1789 -0.1321  2.4641
  197MOL0     O25873   9.027   1.795   8.749  0.4947 -0.5380 -0.2022
  197MOL0     C25874   8.968   1.692   8.707  0.5348 -0.7520 -0.2208
  197MOL0     O25875   8.872   1.690   8.615  0.1935 -0.4253  0.5669
  197MOL0     C25876   8.828   1.819   8.576 -0.4641  0.4312  0.2227
  197MOL0     C25877   8.717   1.880   8.631 -0.2694  0.0233  0.1644
  197MOL0     C25878   8.674   2.003   8.576 -0.7329  1.0880 -0.1052
  197MOL0     C25879   8.749   2.078   8.488 -0.1032 -0.8074  0.7166
  197MOL0     O25880   8.714   2.204   8.443  0.4431 -0.0348 -0.7303
  197MOL0     C25881   8.704   2.308   8.543  0.5335 -0.1149 -0.2919
  197MOL0     C25882   8.759   2.441   8.496 -0.0084 -0.3833  0.9165
  197MOL0     C25883   8.671   2.527   8.397  0.2936  0.3700 -0.1303
  197MOL0     C25884   8.601   2.449   8.279 -0.5143  0.7881 -0.4460
  197MOL0     C25885   8.535   2.548   8.180 -0.1968  0.4827  0.5822
  197MOL0     C25886   8.636   2.634   8.097  0.9174 -0.7984 -0.4353
  197MOL0     C25887   8.559   2.695   7.976  0.3625 -0.4463 -1.3412
  197MOL0     C25888   8.590   2.849   7.952  0.5289 -0.7253  0.5941
  197MOL0     N25889   8.502   2.941   8.031 -0.4392 -0.2542  1.2395
  197MOL0     C25890   8.488   2.935   8.168  0.6344 -0.2619 -0.3776
  197MOL0     C25891   8.384   3.014   8.190  0.0649 -0.6527  0.3947
  197MOL0     C25892   8.343   3.035   8.332 -0.0166  0.0217 -0.0445
  197MOL0     C25893   8.308   2.906   8.411  0.9075 -0.3162 -0.3419
  197MOL0     C25894   8.194   2.831   8.331 -0.1613 -0.5664 -0.2018
  197MOL0     C25895   8.134   2.717   8.412 -0.3393  0.9599  0.1327
  197MOL0     O25896   8.190   2.590   8.393 -0.2001  0.8229  0.5929
  197MOL0     C25897   8.123   2.484   8.446  0.9461 -0.1003  0.3217
  197MOL0     C25898   8.190   2.405   8.543  0.6090 -0.3886  0.3159
  197MOL0     C25899   8.135   2.285   8.588 -0.2532  0.5462  0.3152
  197MOL0     C25900   8.018   2.233   8.519 -1.0163  0.6350 -0.6007
  197MOL0     C25901   7.984   2.086   8.522 -0.4519 -0.3693  0.5046
  197MOL0     O25902   8.049   2.013   8.605  0.1529  0.2065  0.0557
  197MOL0     C25903   7.999   1.886   8.648 -0.5025 -0.4752 -0.0682
  197MOL0     C25904   8.074   1.773   8.662 -0.1022 -0.0335  0.3102
  197MOL0     C25905   8.027   1.652   8.693 -0.0492 -0.3371 -0.3317
  197MOL0     C25906   7.886   1.648   8.738  0.2664  0.3905 -0.0332
  197MOL0     O25907   7.843   1.519   8.775 -0.3079 -0.1476  0.4059
  197MOL0     C25908   7.705   1.496   8.810 -0.4004 -0.2085  0.1779
  197MOL0     C25909   7.695   1.342   8.802  0.0942 -0.2006 -0.3764
  197MOL0     C25910   7.747   1.290   8.942  0.6727  0.5330 -0.3801
  197MOL0     C25911   7.736   1.135   8.952 -0.5600  0.5540  0.8036
  197MOL0     C25912   7.821   1.062   8.845 -0.2915 -0.2776 -0.2842
  197MOL0     C25913   7.971   1.091   8.870 -0.3449 -0.2968 -0.3564
  197MOL0     C25914   8.072   1.017   8.777  1.0234 -0.5245 -0.3055
  197MOL0     C25915   8.226   1.071   8.785  0.1436 -0.6833  0.5423
  197MOL0    Cl25916   8.237   1.226   8.696  0.3110 -0.1656 -0.1321
  197MOL0     C25917   7.807   1.763   8.733  1.1009  1.0509 -0.3371
  197MOL0     C25918   7.867   1.877   8.676  0.2381  0.0137 -1.0591
  197MOL0     O25919   7.887   2.056   8.449  0.2407 -0.1390 -0.3990
  197MOL0     C25920   7.939   2.319   8.438 -0.0829 -0.6538 -0.1377
  197MOL0     C25921   8.000   2.439   8.399 -1.0721 -0.3372  0.4705
  197MOL0     N25922   8.360   3.081   8.068 -0.0899 -0.3483 -0.0581
  197MOL0     N25923   8.424   3.027   7.971 -0.0316 -0.7663 -0.3318
  197MOL0     C25924   8.870   2.025   8.442 -0.0730  0.2158  0.3556
  197MOL0     C25925   8.906   1.894   8.481  0.2482  1.1995  0.0118
  197MOL0     C25926   8.974   1.564   8.785  0.1238 -0.9505  1.3561
  197MOL0     C25927   9.064   1.537   8.891 -0.2677 -0.5521  0.1991
  197MOL0     C25928   9.053   1.421   8.967  0.0473  0.4530  0.0466
  197MOL0     C25929   8.950   1.325   8.942  0.7877 -0.6496  0.8403
  197MOL0     O25930   8.949   1.214   9.015 -0.6144  0.1858 -0.0481
  197MOL0     C25931   8.971   1.089   8.953 -0.2362 -1.0272  1.0789
  197MOL0     C25932   8.956   0.984   9.061  0.1483 -0.0703  0.6794
  197MOL0     C25933   8.983   0.841   9.008 -0.0788 -0.1279  0.6576
  197MOL0     C25934   8.975   0.745   9.135  0.2671 -0.6826  0.0933
  197MOL0     C25935   8.837   0.730   9.176 -0.2706 -0.1920  0.3167
  197MOL0     C25936   8.717   0.723   9.201  0.3374 -0.8973  0.0057
  197MOL0     C25937   8.853   1.359   8.849  0.2854  0.2994  0.0701
  197MOL0     C25938   8.868   1.471   8.774  1.0552 -0.1297 -0.2978
  197MOL0     H25939   8.658   1.825   8.704 -3.1767  2.0420 -0.4630
  197MOL0     H25940   8.579   2.042   8.610 -0.8570  1.9077 -1.3389
  197MOL0     H25941   8.760   2.298   8.637 -0.3754  0.4566  0.3326
  197MOL0     H25942   8.604   2.324   8.585  0.9667  1.0433  0.3652
  197MOL0     H25943   8.846   2.413   8.434 -0.4161 -0.7199  0.4844
  197MOL0     H25944   8.798   2.489   8.586  0.5208 -1.4993  1.3065
  197MOL0     H25945   8.747   2.599   8.363 -0.9538  0.9963 -1.7661
  197MOL0     H25946   8.597   2.592   8.444 -0.7567 -0.4821 -0.5658
  197MOL0     H25947   8.681   2.393   8.229 -2.1107 -2.7748  0.6407
  197MOL0     H25948   8.530   2.376   8.318 -0.1373 -1.0322 -2.9270
  197MOL0     H25949   8.477   2.615   8.245  3.4099  0.1369  4.6324
  197MOL0     H25950   8.465   2.495   8.115 -2.6957  2.2913  1.6421
  197MOL0     H25951   8.728   2.584   8.068  0.3701 -1.2010 -1.5389
  197MOL0     H25952   8.655   2.719   8.163 -1.3219 -1.5296  1.2720
  197MOL0     H25953   8.582   2.638   7.886  0.7784 -2.2756 -0.1303
  197MOL0     H25954   8.450   2.703   7.985  0.4563  2.7193 -1.6596
  197MOL0     H25955   8.552   2.875   7.852 -1.2463 -0.6005  1.2575
  197MOL0     H25956   8.698   2.862   7.962  0.5507 -0.9793  0.6865
  197MOL0     H25957   8.539   2.872   8.240  0.8479  1.4834  1.0687
  197MOL0     H25958   8.255   3.100   8.327  0.8479  1.2715  0.5203
  197MOL0     H25959   8.418   3.098   8.379 -0.0481  1.2638 -1.5761
  197MOL0     H25960   8.294   2.920   8.519  0.2054  0.0756 -0.4768
  197MOL0     H25961   8.400   2.846   8.410  0.6086 -0.8421  1.0598
  197MOL0     H25962   8.113   2.904   8.323  0.9721  1.0199  1.7302
  197MOL0     H25963   8.222   2.809   8.227 -1.5375  0.8225 -0.9159
  197MOL0     H25964   8.026   2.712   8.393 -0.4559  1.4702  0.5905
  197MOL0     H25965   8.148   2.744   8.518  1.9285 -0.6941  0.3255
  197MOL0     H25966   8.286   2.438   8.581  0.0969  0.3378  1.0168
  197MOL0     H25967   8.185   2.233   8.669  1.6062  2.5090  0.5027
  197MOL0     H25968   8.180   1.777   8.642 -0.4523 -0.5160 -1.9613
  197MOL0     H25969   8.085   1.561   8.692  1.8370  0.6342  3.3455
  197MOL0     H25970   7.635   1.539   8.738 -1.6454 -1.9068  0.3321
  197MOL0     H25971   7.671   1.543   8.903  0.1061  0.7521 -0.1080
  197MOL0     H25972   7.747   1.313   8.711  1.8125  2.0286 -0.1769
  197MOL0     H25973   7.590   1.310   8.794  0.3323 -1.2291  0.3329
  197MOL0     H25974   7.685   1.327   9.024 -0.3576  0.6944 -1.2133
  197MOL0     H25975   7.846   1.332   8.964 -0.7288  4.2331 -0.3586
  197MOL0     H25976   7.770   1.112   9.053  0.1717 -0.4217  0.3618
  197MOL0     H25977   7.633   1.101   8.940 -0.8918  1.5901  0.5923
  197MOL0     H25978   7.798   1.106   8.747  0.6918  0.5283 -0.1724
  197MOL0     H25979   7.804   0.954   8.851  0.9571 -0.4066  1.2237
  197MOL0     H25980   7.999   1.077   8.975 -2.1876 -2.6910 -0.0914
  197MOL0     H25981   7.983   1.198   8.849  1.8135 -0.0066  1.8617
  197MOL0     H25982   8.063   0.912   8.805 -1.5537 -0.4920 -0.8272
  197MOL0     H25983   8.039   1.029   8.674  1.4320 -3.3575 -0.8490
  197MOL0     H25984   8.295   1.000   8.739 -0.6040 -0.8481 -0.3398
  197MOL0     H25985   8.255   1.101   8.887  2.4408  2.8976 -0.9696
  197MOL0     H25986   7.701   1.754   8.753  0.7920  4.4855  0.1497
  197MOL0     H25987   7.792   1.952   8.653 -0.3975 -0.9818 -2.3913
  197MOL0     H25988   7.844   2.283   8.400 -1.4049 -0.6439  2.9201
  197MOL0     H25989   7.955   2.502   8.323  1.0684  1.8859  0.9509
  197MOL0     H25990   8.919   2.082   8.364 -3.1367  0.5719 -1.4577
  197MOL0     H25991   9.001   1.851   8.453 -0.8756 -3.6370  2.5991
  197MOL0     H25992   9.136   1.613   8.920  1.2910 -2.3429  1.1983
  197MOL0     H25993   9.116   1.403   9.053 -0.5302  3.4029  1.2148
  197MOL0     H25994   9.074   1.085   8.916 -1.4878  0.7003 -3.2312
  197MOL0     H25995   8.906   1.083   8.865  2.2023  3.1278 -1.3517
  197MOL0     H25996   9.015   1.011   9.149  1.0121  0.6382 -0.0938
  197MOL0     H25997   8.849   0.979   9.087  0.5789 -2.8850  2.4420
  197MOL0     H25998   9.082   0.828   8.963 -0.3269 -1.2788  0.4172
  197MOL0     H25999   8.908   0.808   8.936 -0.7886  0.6258  1.0317
  197MOL0     H26000   9.024   0.648   9.123  1.1481 -0.0749 -1.5997
  197MOL0     H26001   9.029   0.795   9.216  3.0261  0.3852 -2.2207
  197MOL0     H26002   8.613   0.706   9.216  0.1414 -1.6567 -1.9187
  197MOL0     H26003   8.776   1.283   8.840  2.6265 -2.3760  1.0434
  197MOL0     H26004   8.797   1.474   8.692  0.1941  0.8888  0.4520
  198MOL0     O26005   2.246   3.343   9.162 -0.1793 -0.9881 -0.1945
  198MOL0     C26006   2.261   3.387   9.273 -0.7714  0.5012 -0.0213
  198MOL0     O26007   2.352   3.484   9.310 -0.3840  0.5432 -0.3858
  198MOL0     C26008   2.379   3.576   9.218 -0.7848  0.7621  0.5760
  198MOL0     C26009   2.284   3.680   9.209  0.2606  0.4916 -0.1547
  198MOL0     C26010   2.293   3.767   9.107 -1.0734 -0.2563 -0.3467
  198MOL0     C26011   2.405   3.780   9.026 -0.2339 -0.4184  0.5371
  198MOL0     O26012   2.401   3.880   8.927  0.3675  0.2047 -0.3734
  198MOL0     C26013   2.463   3.861   8.803 -0.3957  0.5133  0.4315
  198MOL0     C26014   2.413   3.968   8.710  0.5212  0.1280  0.9115
  198MOL0     C26015   2.495   4.096   8.724  0.4840 -0.2464  0.2396
  198MOL0     C26016   2.408   4.221   8.700 -0.2457 -0.3087 -0.6306
  198MOL0     C26017   2.475   4.357   8.737 -0.6323 -0.4914  0.3417
  198MOL0     C26018   2.388   4.463   8.790  0.2211  0.0827  0.3701
  198MOL0     C26019   2.271   4.482   8.693  0.1331  0.0458  0.2537
  198MOL0     C26020   2.190   4.595   8.748 -0.9207  0.5786  0.0367
  198MOL0     N26021   2.068   4.553   8.816  0.2595  0.3054 -0.1541
  198MOL0     C26022   1.950   4.526   8.753  0.4260  0.8443 -0.1924
  198MOL0     C26023   1.859   4.507   8.851 -0.3853  0.7179  0.5321
  198MOL0     C26024   1.714   4.472   8.832 -0.4485  1.1304  0.4225
  198MOL0     C26025   1.617   4.538   8.937 -0.1278  0.2428 -0.1598
  198MOL0     C26026   1.627   4.688   8.951 -0.1397 -0.5768 -0.8008
  198MOL0     C26027   1.564   4.734   9.082  1.1146  0.0753  0.4246
  198MOL0     O26028   1.417   4.732   9.070  0.1676  0.0620  0.1356
  198MOL0     C26029   1.357   4.745   9.198 -0.1053 -0.6248  0.0013
  198MOL0     C26030   1.294   4.860   9.228  0.6073 -0.0259  0.8638
  198MOL0     C26031   1.240   4.892   9.354  1.0130  0.1980 -0.0386
  198MOL0     C26032   1.246   4.799   9.459  0.0855 -0.5828 -0.5405
  198MOL0     C26033   1.169   4.824   9.584 -0.0535 -0.1700 -1.8930
  198MOL0     O26034   1.214   4.753   9.690 -0.1757 -0.0109 -0.0239
  198MOL0     C26035   1.140   4.748   9.804  0.0568 -0.6434  0.7826
  198MOL0     C26036   1.100   4.860   9.884  0.3785 -0.3472  0.1646
  198MOL0     C26037   1.032   4.844  10.005  0.1374  0.0387  0.2374
  198MOL0     C26038   0.983   4.721  10.045  0.2013  0.7250  0.1596
  198MOL0     O26039   0.909   4.699  10.154  0.2189  0.0643  0.1968
  198MOL0     C26040   0.959   4.767  10.272 -0.0630  0.0624  0.1947
  198MOL0     C26041   0.895   4.690  10.389 -0.5577  0.4339 -0.1364
  198MOL0     C26042   0.899   4.762  10.513 -0.3591 -0.3575  0.2152
  198MOL0     C26043   0.840   4.692  10.637 -0.3275  0.4597  0.7654
  198MOL0     C26044   0.862   4.775  10.767  0.4250 -0.5476 -0.7308
  198MOL0     C26045   1.002   4.765  10.821  0.2416  0.6694 -0.1810
  198MOL0     C26046   1.039   4.620  10.866 -0.0836 -0.4389 -0.3816
  198MOL0     C26047   1.166   4.628  10.962  0.2232  0.0851  0.5721
  198MOL0    Cl26048   1.117   4.613  11.143 -0.0236 -0.0678  0.0004
  198MOL0     C26049   1.011   4.613   9.955  0.3766 -1.2962  0.0700
  198MOL0     C26050   1.096   4.630   9.840  0.4209 -0.2330 -0.0987
  198MOL0     O26051   1.078   4.906   9.589 -0.9631 -0.1893  0.0465
  198MOL0     C26052   1.316   4.685   9.431 -0.5571  0.9337  0.3523
  198MOL0     C26053   1.367   4.652   9.305 -0.0860 -0.8637  0.6020
  198MOL0     N26054   1.916   4.521   8.969  0.7009  0.1053 -0.6280
  198MOL0     N26055   2.035   4.559   8.950  0.1689  0.4960 -0.0636
  198MOL0     C26056   2.501   3.676   9.032  0.5019 -0.0706  0.3244
  198MOL0     C26057   2.478   3.570   9.115  0.3687 -0.2046 -0.3872
  198MOL0     C26058   2.206   3.316   9.393  0.8505 -0.5333 -0.6393
  198MOL0     C26059   2.246   3.358   9.523  0.3145 -0.4619  0.4576
  198MOL0     C26060   2.197   3.294   9.635 -0.6063  0.0657  0.3082
  198MOL0     C26061   2.102   3.187   9.627 -0.6863  0.4543 -0.6119
  198MOL0     O26062   2.050   3.121   9.730  0.5866  0.4501 -0.0344
  198MOL0     C26063   2.088   3.156   9.863  0.3451 -0.5595  0.3424
  198MOL0     C26064   2.015   3.267   9.926  1.0032  0.0508  0.0117
  198MOL0     C26065   1.875   3.243   9.931 -0.0275  0.6356 -0.1234
  198MOL0     C26066   1.801   3.375   9.976 -0.7866  0.5895 -0.3087
  198MOL0     C26067   1.842   3.403  10.112 -1.1294 -0.4819 -0.7349
  198MOL0     C26068   1.862   3.431  10.233  0.2663  0.6290 -0.4580
  198MOL0     C26069   2.058   3.150   9.495 -0.2544  1.1428 -0.4537
  198MOL0     C26070   2.109   3.209   9.381 -0.2841 -0.6686  0.6872
  198MOL0     H26071   2.197   3.680   9.274 -2.0613 -3.1645 -2.8751
  198MOL0     H26072   2.208   3.833   9.093 -1.0727  0.6470  3.0501
  198MOL0     H26073   2.427   3.767   8.759 -0.7069  1.6303 -1.8346
  198MOL0     H26074   2.571   3.868   8.822  0.1618 -2.4814 -0.9521
  198MOL0     H26075   2.308   3.992   8.726  0.7994  2.0322  0.1532
  198MOL0     H26076   2.424   3.938   8.606  0.2118  1.6188  0.4262
  198MOL0     H26077   2.581   4.085   8.657  1.1034 -1.1594  1.1388
  198MOL0     H26078   2.538   4.098   8.825  0.9910 -2.5141  0.1195
  198MOL0     H26079   2.394   4.228   8.592  0.4324 -0.8871 -0.7656
  198MOL0     H26080   2.316   4.222   8.759 -0.6267 -1.1625 -1.1956
  198MOL0     H26081   2.526   4.377   8.642  1.0875  2.2398  1.7334
  198MOL0     H26082   2.547   4.344   8.818  0.8893  2.8200 -0.3126
  198MOL0     H26083   2.446   4.556   8.793  0.7473 -0.2651  1.0989
  198MOL0     H26084   2.341   4.440   8.886  0.8352 -0.1036  0.6306
  198MOL0     H26085   2.309   4.500   8.592 -3.8431 -1.4321 -1.6982
  198MOL0     H26086   2.208   4.393   8.690 -1.6219  1.2828 -1.6358
  198MOL0     H26087   2.161   4.655   8.662  0.1722  0.1074 -0.6782
  198MOL0     H26088   2.249   4.668   8.804  0.7729  0.1786 -1.1595
  198MOL0     H26089   1.916   4.508   8.651 -0.7222  0.7519  0.1835
  198MOL0     H26090   1.709   4.364   8.845  1.8080  1.0446  0.9533
  198MOL0     H26091   1.690   4.502   8.729 -4.7980 -2.7594 -0.0275
  198MOL0     H26092   1.641   4.505   9.038  0.5130  2.6230  0.5376
  198MOL0     H26093   1.514   4.523   8.904 -0.3202  1.7961 -0.3641
  198MOL0     H26094   1.731   4.723   8.953  0.2470 -1.6703 -0.8450
  198MOL0     H26095   1.569   4.739   8.874 -0.3547  0.4387  0.0198
  198MOL0     H26096   1.610   4.831   9.104  3.0368 -0.5817 -0.4907
  198MOL0     H26097   1.595   4.666   9.162 -0.3113 -0.6394  0.3947
  198MOL0     H26098   1.266   4.932   9.151  0.4196  1.1636  2.0187
  198MOL0     H26099   1.190   4.989   9.356  2.8275  1.2154 -1.1154
  198MOL0     H26100   1.136   4.958   9.855 -0.5650 -0.3268 -1.0138
  198MOL0     H26101   1.004   4.932  10.063 -0.3149 -1.0776  1.7727
  198MOL0     H26102   0.928   4.872  10.280  0.4160  0.0780  2.6274
  198MOL0     H26103   1.066   4.754  10.287  0.1931 -0.5306 -1.9564
  198MOL0     H26104   0.950   4.596  10.394 -0.4909  0.5084  0.9576
  198MOL0     H26105   0.791   4.670  10.360 -0.7839 -0.4110  1.1469
  198MOL0     H26106   0.841   4.853  10.495  0.8558  0.3245 -0.3617
  198MOL0     H26107   1.001   4.797  10.534  0.1950  0.5949 -3.4106
  198MOL0     H26108   0.732   4.697  10.623 -0.1187  2.9490 -0.3666
  198MOL0     H26109   0.876   4.589  10.646 -1.0444  0.2225  1.0092
  198MOL0     H26110   0.791   4.729  10.836  0.3093 -2.6382 -2.1442
  198MOL0     H26111   0.838   4.879  10.743  0.1142 -0.5144 -0.2979
  198MOL0     H26112   1.005   4.821  10.915  0.4934 -1.2611  1.0197
  198MOL0     H26113   1.072   4.804  10.747  0.7575 -0.3873 -0.2720
  198MOL0     H26114   0.961   4.575  10.927  1.0400  0.0016  1.4515
  198MOL0     H26115   1.066   4.565  10.776  1.3395 -0.3171 -0.0510
  198MOL0     H26116   1.216   4.721  10.936 -1.6200  1.1900  0.8269
  198MOL0     H26117   1.232   4.544  10.937 -1.8094 -0.2907 -4.7290
  198MOL0     H26118   0.974   4.514   9.981 -0.2783 -1.2039 -0.4961
  198MOL0     H26119   1.115   4.540   9.782  0.5944 -0.7694  0.7629
  198MOL0     H26120   1.335   4.609   9.507 -0.3056 -1.7803 -2.2124
  198MOL0     H26121   1.417   4.556   9.294 -4.4777 -3.2541 -1.4664
  198MOL0     H26122   2.589   3.683   8.970 -0.3470  3.3228 -0.7259
  198MOL0     H26123   2.546   3.485   9.112  2.2203  1.2038  0.2182
  198MOL0     H26124   2.314   3.442   9.535 -2.1274  1.3987  2.2372
  198MOL0     H26125   2.229   3.329   9.733  1.3922 -1.6071  0.3272
  198MOL0     H26126   2.195   3.180   9.871 -0.2325  1.7106  2.0832
  198MOL0     H26127   2.062   3.070   9.926  0.9630 -2.4509 -1.8151
  198MOL0     H26128   2.050   3.292  10.027 -1.7033 -2.0864  1.6533
  198MOL0     H26129   2.038   3.350   9.858  4.4806 -1.4729 -0.8636
  198MOL0     H26130   1.859   3.161  10.002 -0.4968 -0.5958 -1.6081
  198MOL0     H26131   1.848   3.213   9.829 -0.4723  0.5660  0.0134
  198MOL0     H26132   1.818   3.460   9.910 -0.1073  0.8031  0.1319
  198MOL0     H26133   1.692   3.363   9.967 -1.1207  2.0502  1.2608
  198MOL0     H26134   1.879   3.461  10.335 -0.5796 -1.7191  0.4518
  198MOL0     H26135   1.984   3.071   9.500  2.9172 -2.0573  0.4257
  198MOL0     H26136   2.065   3.193   9.283  0.7696 -2.7291  0.5162
  199MOL0     O26137   1.564   0.958   8.948  0.8079 -0.0430 -0.2823
  199MOL0     C26138   1.468   0.921   9.017  1.2563  0.5236  0.4864
  199MOL0     O26139   1.385   0.994   9.100 -0.2825  0.7190  0.4328
  199MOL0     C26140   1.406   1.133   9.111  0.7681 -0.3212  0.1329
  199MOL0     C26141   1.413   1.222   9.005  0.4463  0.0590  0.1984
  199MOL0     C26142   1.436   1.360   9.028 -0.8877 -0.5329  1.1348
  199MOL0     C26143   1.466   1.409   9.151 -0.6697 -0.4262 -0.5811
  199MOL0     O26144   1.504   1.541   9.162 -0.4732  0.3260  0.1223
  199MOL0     C26145   1.562   1.588   9.280 -0.2463  0.3937  0.3794
  199MOL0     C26146   1.481   1.618   9.404 -0.4092  0.3147  0.7692
  199MOL0     C26147   1.571   1.604   9.527 -0.9652 -0.2731 -0.8681
  199MOL0     C26148   1.686   1.707   9.542  0.1192 -0.6237  0.4744
  199MOL0     C26149   1.629   1.844   9.563 -0.4479  0.1765 -0.4179
  199MOL0     C26150   1.741   1.940   9.571 -1.2838 -0.3470 -0.2595
  199MOL0     C26151   1.728   2.077   9.638 -0.8308  0.5217  0.5741
  199MOL0     C26152   1.699   2.073   9.789  0.1621 -0.8727  0.3616
  199MOL0     N26153   1.812   2.027   9.866 -0.5124 -0.5596 -1.3078
  199MOL0     C26154   1.840   1.892   9.882 -0.8051  0.2363  0.5445
  199MOL0     C26155   1.939   1.893   9.971  0.2990 -0.2284 -0.0099
  199MOL0     C26156   2.015   1.783  10.023  0.2688 -0.3822  0.7440
  199MOL0     C26157   1.956   1.647   9.989  1.0140  0.2761 -0.0327
  199MOL0     C26158   2.059   1.535  10.026 -0.0432 -0.3680  0.3655
  199MOL0     C26159   2.002   1.390  10.043 -0.5240 -0.5571  0.3487
  199MOL0     O26160   1.947   1.339   9.916 -0.4295  0.0995  0.0668
  199MOL0     C26161   2.031   1.311   9.814 -0.4174  0.6884  0.1443
  199MOL0     C26162   1.966   1.319   9.688 -0.9779 -0.8775  0.1230
  199MOL0     C26163   2.044   1.302   9.565  0.4351 -0.1985 -1.0219
  199MOL0     C26164   2.181   1.273   9.581 -0.0641  0.5323  1.0464
  199MOL0     C26165   2.274   1.255   9.459  0.1705  1.2962 -0.2501
  199MOL0     O26166   2.402   1.238   9.485 -0.0094  0.1833 -0.2160
  199MOL0     C26167   2.481   1.205   9.381  0.2673  0.2813  0.0922
  199MOL0     C26168   2.614   1.245   9.407  0.4818  0.8443 -0.5672
  199MOL0     C26169   2.725   1.194   9.336  0.2219 -0.0882 -0.8848
  199MOL0     C26170   2.701   1.079   9.252 -0.1884 -0.7219 -0.7100
  199MOL0     O26171   2.809   1.028   9.180  0.1973  0.5267  0.4710
  199MOL0     C26172   2.805   0.994   9.037 -0.0586  0.5077  0.0060
  199MOL0     C26173   2.931   0.903   8.996  0.3778  0.5138 -0.7687
  199MOL0     C26174   2.998   0.968   8.869 -0.3183 -0.5406  0.6218
  199MOL0     C26175   3.111   1.048   8.910 -0.3665  0.0989  0.6030
  199MOL0     C26176   3.194   1.090   8.783  0.1758 -0.8270  0.6600
  199MOL0     C26177   3.326   1.158   8.832  0.4303  0.0190  0.7687
  199MOL0     C26178   3.417   1.230   8.728  0.2125  0.1005  1.0932
  199MOL0     C26179   3.462   1.140   8.615 -0.2150  1.1998 -0.3081
  199MOL0    Cl26180   3.550   1.007   8.694  0.6010 -0.1093  0.3115
  199MOL0     C26181   2.566   1.033   9.232  0.5240 -0.2598 -0.8494
  199MOL0     C26182   2.463   1.098   9.294  0.4529 -0.4757 -0.1685
  199MOL0     O26183   2.220   1.286   9.357 -0.3808  0.6048  0.1158
  199MOL0     C26184   2.235   1.251   9.707 -0.7549  0.0400 -0.1438
  199MOL0     C26185   2.159   1.265   9.815  0.2485  0.1164  0.4383
  199MOL0     N26186   1.964   2.023  10.012 -0.8344 -0.2228  0.1000
  199MOL0     N26187   1.892   2.110   9.950 -0.1063  0.5720 -0.0813
  199MOL0     C26188   1.477   1.317   9.256 -0.0671  0.1328 -0.0701
  199MOL0     C26189   1.437   1.186   9.241 -0.5968  0.5287 -0.1060
  199MOL0     C26190   1.432   0.781   9.011  0.0613  0.6324 -0.4174
  199MOL0     C26191   1.514   0.691   8.932 -1.3708 -0.3949  0.4198
  199MOL0     C26192   1.508   0.551   8.958  0.7597 -0.0807  0.1563
  199MOL0     C26193   1.414   0.495   9.042  0.1345  0.1876  0.2852
  199MOL0     O26194   1.365   0.364   9.046  0.0940 -0.6576  0.4355
  199MOL0     C26195   1.425   0.270   8.959 -0.9634 -1.3807  0.7353
  199MOL0     C26196   1.390   0.134   8.994 -0.5316  0.4138 -0.8301
  199MOL0     C26197   1.439   0.036   8.885 -0.3471  0.3828  0.4937
  199MOL0     C26198   1.425  -0.112   8.925 -0.4319 -0.1270  0.3035
  199MOL0     C26199   1.515  -0.213   8.870 -0.5475  0.5825  1.3638
  199MOL0     C26200   1.572  -0.286   8.787  0.5497 -0.0925  0.5162
  199MOL0     C26201   1.341   0.579   9.124  0.3896  0.1312  0.4495
  199MOL0     C26202   1.345   0.724   9.109  0.4039 -0.3118  0.4462
  199MOL0     H26203   1.406   1.177   8.907  0.8944 -2.0078  1.0608
  199MOL0     H26204   1.435   1.422   8.939 -1.1620 -0.7832  0.9607
  199MOL0     H26205   1.594   1.690   9.257  2.7435 -0.1818  1.5092
  199MOL0     H26206   1.651   1.526   9.295  0.0175  0.5661 -0.4534
  199MOL0     H26207   1.400   1.545   9.413  1.8712 -2.4804  0.1327
  199MOL0     H26208   1.442   1.718   9.385 -2.6424 -0.8417 -1.1686
  199MOL0     H26209   1.616   1.505   9.522 -0.8860 -0.2168 -1.3339
  199MOL0     H26210   1.507   1.607   9.616  1.4733 -1.4068  1.0332
  199MOL0     H26211   1.747   1.662   9.621  0.0300 -1.3952  0.1181
  199MOL0     H26212   1.741   1.707   9.448 -2.1229  1.3080 -0.9374
  199MOL0     H26213   1.576   1.858   9.658  0.5809  0.7263  0.0963
  199MOL0     H26214   1.559   1.872   9.483 -0.9638 -0.2362 -0.1164
  199MOL0     H26215   1.778   1.966   9.471 -2.1232 -0.8881 -0.7300
  199MOL0     H26216   1.817   1.877   9.618 -1.4223 -0.4440 -0.1672
  199MOL0     H26217   1.819   2.136   9.622 -0.1840 -0.4342  0.6967
  199MOL0     H26218   1.648   2.130   9.583 -0.6107  3.0265  2.4845
  199MOL0     H26219   1.613   2.017   9.827  0.5222 -0.1142  2.4335
  199MOL0     H26220   1.678   2.177   9.815  0.5067 -0.8970  0.7434
  199MOL0     H26221   1.792   1.805   9.838 -1.8935  0.7931  0.5897
  199MOL0     H26222   2.043   1.797  10.128  1.2403 -1.5548  0.6638
  199MOL0     H26223   2.107   1.789   9.964 -1.7029 -2.3577 -2.9015
  199MOL0     H26224   1.925   1.641   9.884 -2.7532 -0.1299  0.9652
  199MOL0     H26225   1.864   1.643  10.048  0.7348 -2.1508 -0.4895
  199MOL0     H26226   2.134   1.538   9.947 -2.1829 -1.6586 -1.8582
  199MOL0     H26227   2.102   1.569  10.120  4.0394  2.8372 -2.3119
  199MOL0     H26228   1.917   1.400  10.111 -1.7947  2.3268 -1.4757
  199MOL0     H26229   2.079   1.320  10.079 -1.6945 -1.6582  0.7677
  199MOL0     H26230   1.858   1.330   9.688 -1.3304 -3.5028 -1.3147
  199MOL0     H26231   1.998   1.325   9.470  1.7662 -1.9113 -2.1220
  199MOL0     H26232   2.632   1.321   9.483  0.7620 -0.6499  0.9100
  199MOL0     H26233   2.825   1.223   9.367 -0.3013  1.7537 -0.8415
  199MOL0     H26234   2.812   1.086   8.978 -3.8941  0.3286 -1.0080
  199MOL0     H26235   2.712   0.940   9.013 -0.4672  1.1775  0.0512
  199MOL0     H26236   2.875   0.812   8.973 -3.1607  3.0115 -2.9635
  199MOL0     H26237   2.993   0.870   9.081  1.2333 -4.2503 -2.8830
  199MOL0     H26238   2.926   1.018   8.803  0.6540 -0.7497 -0.6344
  199MOL0     H26239   3.038   0.886   8.809  2.9615  1.0568  0.4276
  199MOL0     H26240   3.089   1.142   8.962 -3.1256  0.5305 -1.1851
  199MOL0     H26241   3.175   0.977   8.964 -1.3753 -1.5312 -0.2535
  199MOL0     H26242   3.143   1.167   8.724 -0.8618 -0.9592  1.3589
  199MOL0     H26243   3.214   1.000   8.724  1.0532  1.8536 -3.5513
  199MOL0     H26244   3.391   1.082   8.874 -0.1626 -1.7703 -1.3510
  199MOL0     H26245   3.309   1.232   8.910  0.8789  2.0321 -0.9232
  199MOL0     H26246   3.376   1.325   8.690  0.6617 -0.3291 -0.5764
  199MOL0     H26247   3.511   1.261   8.776  0.7268  1.3505 -0.6050
  199MOL0     H26248   3.533   1.188   8.548  1.8482 -0.3722  0.6473
  199MOL0     H26249   3.370   1.100   8.570 -0.1215 -0.7110  1.0504
  199MOL0     H26250   2.559   0.947   9.166 -2.3623 -0.0843 -0.8813
  199MOL0     H26251   2.366   1.063   9.261  1.4654 -2.7314 -0.9085
  199MOL0     H26252   2.342   1.241   9.723 -0.5887  3.3224  1.7086
  199MOL0     H26253   2.193   1.256   9.918 -1.5649  1.0740  1.1514
  199MOL0     H26254   1.522   1.334   9.354 -0.1595 -2.4281  0.4794
  199MOL0     H26255   1.445   1.123   9.329 -0.2851 -2.3959 -2.0807
  199MOL0     H26256   1.597   0.726   8.870 -0.6273 -2.4516  0.1958
  199MOL0     H26257   1.587   0.500   8.904  1.3299  0.7273  0.2135
  199MOL0     H26258   1.534   0.278   8.959 -1.0590  0.8563 -0.2754
  199MOL0     H26259   1.385   0.292   8.859 -0.0890  1.1313  0.8757
  199MOL0     H26260   1.430   0.105   9.092 -1.5492 -0.0214 -0.5297
  199MOL0     H26261   1.281   0.132   8.987 -0.5865  3.0828 -1.9076
  199MOL0     H26262   1.542   0.057   8.853  0.3330 -2.7932  0.2928
  199MOL0     H26263   1.373   0.040   8.798  0.7955 -0.1626 -0.4272
  199MOL0     H26264   1.452  -0.109   9.031 -3.5938 -1.1183  1.2609
  199MOL0     H26265   1.321  -0.147   8.929 -0.2965 -0.5112  0.4914
  199MOL0     H26266   1.634  -0.333   8.713 -1.9310 -1.5064 -0.7949
  199MOL0     H26267   1.273   0.547   9.202 -1.9407 -1.6341 -2.1096
  199MOL0     H26268   1.277   0.792   9.160 -0.3029 -0.4489 -0.2905
  200MOL0     O26269   4.574   5.085  10.131 -0.5001 -0.2012  0.2248
  200MOL0     C26270   4.584   5.172  10.046  0.0563  0.6300 -0.2291
  200MOL0     O26271   4.481   5.257  10.024  0.4995  0.1630  0.9908
  200MOL0     C26272   4.368   5.242  10.100  0.5402  0.0639  0.5159
  200MOL0     C26273   4.274   5.151  10.063 -0.4137  0.1213 -0.4056
  200MOL0     C26274   4.157   5.134  10.136  1.5403 -0.4926 -0.2061
  200MOL0     C26275   4.132   5.219  10.249  0.0164  0.4650  0.5299
  200MOL0     O26276   4.022   5.204  10.328  0.4022  0.3992  0.5148
  200MOL0     C26277   3.946   5.322  10.373 -1.1083  0.3097  0.8093
  200MOL0     C26278   3.817   5.278  10.455 -0.7670  0.4281 -0.1786
  200MOL0     C26279   3.698   5.379  10.438 -0.0914 -1.1828  0.4524
  200MOL0     C26280   3.581   5.332  10.530 -0.3518 -0.1941  0.3920
  200MOL0     C26281   3.443   5.405  10.498 -0.0011  0.1042  0.6007
  200MOL0     C26282   3.440   5.544  10.553  0.0015  0.9046  0.7231
  200MOL0     C26283   3.325   5.621  10.491 -1.6632  0.4503 -0.3517
  200MOL0     C26284   3.340   5.765  10.526  0.2293 -0.4437 -0.4722
  200MOL0     N26285   3.282   5.857  10.419  0.8050 -0.4307 -0.4264
  200MOL0     C26286   3.154   5.859  10.368 -0.5796 -0.5558 -0.6574
  200MOL0     C26287   3.149   5.970  10.294 -0.3508 -0.2300 -0.0522
  200MOL0     C26288   3.029   6.025  10.226  0.4343  0.4700  1.6333
  200MOL0     C26289   3.059   6.066  10.078  0.1695  0.0022 -0.3784
  200MOL0     C26290   2.922   6.088  10.001  1.2441 -0.2815  0.1444
  200MOL0     C26291   2.940   6.155   9.866 -0.6491  0.2638  0.7264
  200MOL0     O26292   3.026   6.085   9.784 -0.3638 -0.8669 -0.1191
  200MOL0     C26293   3.162   6.108   9.790 -0.2492  0.2474 -0.0737
  200MOL0     C26294   3.227   6.217   9.837  0.3353  0.0169 -1.3620
  200MOL0     C26295   3.361   6.238   9.833 -0.7062  0.1307  1.0914
  200MOL0     C26296   3.437   6.126   9.793 -0.6298  1.4213  0.4170
  200MOL0     C26297   3.584   6.131   9.788  0.0755 -0.2566 -0.0470
  200MOL0     O26298   3.638   6.253   9.814  0.3147  0.5016 -0.3608
  200MOL0     C26299   3.766   6.277   9.797 -1.4868 -0.6127  0.1575
  200MOL0     C26300   3.814   6.397   9.741  0.0799  0.6123 -0.5999
  200MOL0     C26301   3.951   6.421   9.738 -0.7790  0.6027 -0.6178
  200MOL0     C26302   4.041   6.333   9.797 -1.0437  0.0504  0.0737
  200MOL0     O26303   4.172   6.351   9.819  0.1166  0.3293  0.2921
  200MOL0     C26304   4.236   6.468   9.757  0.1765  0.5020  0.3761
  200MOL0     C26305   4.373   6.486   9.839  0.3846 -0.6184  0.9441
  200MOL0     C26306   4.448   6.614   9.802  0.1770 -0.2714  0.6289
  200MOL0     C26307   4.591   6.614   9.876 -0.7794 -0.4015  0.4657
  200MOL0     C26308   4.668   6.739   9.819  0.4240 -0.1509 -0.3140
  200MOL0     C26309   4.767   6.801   9.917 -0.8164 -0.9890 -0.2580
  200MOL0     C26310   4.699   6.872  10.031 -0.0255  0.5634  0.7508
  200MOL0     C26311   4.804   6.936  10.123  0.1737  0.1445 -0.0569
  200MOL0    Cl26312   4.885   6.808  10.220  0.6388 -0.6485  0.1851
  200MOL0     C26313   4.002   6.207   9.842  1.2044 -0.0424  0.3579
  200MOL0     C26314   3.864   6.192   9.857  0.0654  0.3243 -0.1525
  200MOL0     O26315   3.645   6.028   9.753 -0.4026  0.1288 -0.1185
  200MOL0     C26316   3.377   6.004   9.756 -1.2591 -0.1335 -0.4096
  200MOL0     C26317   3.244   5.994   9.760  0.4050  0.5753  0.0085
  200MOL0     N26318   3.275   6.027  10.298  0.3207 -0.6018  0.3649
  200MOL0     N26319   3.353   5.956  10.370 -0.2890 -1.6786 -0.4938
  200MOL0     C26320   4.229   5.309  10.291  0.2048 -0.0780  0.0414
  200MOL0     C26321   4.347   5.328  10.210  0.3191 -0.2718 -0.8466
  200MOL0     C26322   4.707   5.179   9.955  1.0373  0.2869 -0.1722
  200MOL0     C26323   4.819   5.104   9.978 -0.4355 -0.2303  0.2175
  200MOL0     C26324   4.931   5.114   9.882  0.3702  0.1565 -0.4834
  200MOL0     C26325   4.934   5.197   9.770 -0.0171  0.0675  0.7177
  200MOL0     O26326   5.034   5.187   9.685 -0.0815 -0.1624  0.0807
  200MOL0     C26327   5.042   5.280   9.577  0.5945 -0.5258 -0.7638
  200MOL0     C26328   5.161   5.241   9.491 -0.9110 -0.1607  0.4332
  200MOL0     C26329   5.292   5.220   9.564 -0.1126  0.2327  1.0550
  200MOL0     C26330   5.347   5.330   9.651 -0.4329 -0.2987  0.0941
  200MOL0     C26331   5.353   5.462   9.569  0.8839  0.0381 -0.8582
  200MOL0     C26332   5.336   5.572   9.523 -0.0223 -0.8192  0.2509
  200MOL0     C26333   4.821   5.289   9.750 -0.0770 -0.0191  0.5335
  200MOL0     C26334   4.713   5.263   9.837  0.6770  1.0070  0.9901
  200MOL0     H26335   4.301   5.086   9.980 -0.7035  1.1480 -1.3240
  200MOL0     H26336   4.085   5.059  10.107 -0.6822  1.4769 -0.0540
  200MOL0     H26337   3.917   5.370  10.278  1.2476  4.0178  1.7396
  200MOL0     H26338   4.007   5.389  10.435 -1.0353  1.0955 -0.0835
  200MOL0     H26339   3.847   5.283  10.560  1.6951 -0.8283 -0.7256
  200MOL0     H26340   3.780   5.178  10.428 -1.0934  0.9827 -1.9373
  200MOL0     H26341   3.671   5.373  10.332 -2.9932 -1.4687  1.1429
  200MOL0     H26342   3.729   5.481  10.462 -0.3807 -0.2555 -2.6297
  200MOL0     H26343   3.568   5.225  10.511  3.4455 -0.6320 -0.5047
  200MOL0     H26344   3.598   5.348  10.637 -0.8252  1.0706  0.2861
  200MOL0     H26345   3.361   5.344  10.538 -0.6875 -1.4053 -2.7832
  200MOL0     H26346   3.435   5.401  10.389 -0.9021  3.2406  0.4466
  200MOL0     H26347   3.533   5.590  10.516  1.6826 -3.7261 -1.6674
  200MOL0     H26348   3.448   5.537  10.661  5.5932 -3.7757  0.5169
  200MOL0     H26349   3.334   5.608  10.382 -2.0746 -1.9300 -0.1536
  200MOL0     H26350   3.233   5.588  10.541 -1.4141  1.0619  0.5263
  200MOL0     H26351   3.446   5.787  10.538 -0.5676  2.3269  3.1158
  200MOL0     H26352   3.290   5.785  10.621  0.0515  2.2023 -1.0516
  200MOL0     H26353   3.080   5.782  10.385  0.4807 -1.0801  2.1583
  200MOL0     H26354   2.977   6.104  10.281 -0.1786  0.4330  1.1178
  200MOL0     H26355   2.955   5.944  10.221  0.9002 -0.2143  4.2484
  200MOL0     H26356   3.096   5.979  10.023 -0.5612  0.3034 -1.3716
  200MOL0     H26357   3.127   6.152  10.078  0.4102 -0.1621 -1.6988
  200MOL0     H26358   2.875   5.993   9.974 -2.5584  1.7539 -1.2407
  200MOL0     H26359   2.841   6.142  10.052  0.2900  0.2353 -1.8099
  200MOL0     H26360   2.972   6.259   9.881  0.7147  0.5766 -3.1720
  200MOL0     H26361   2.845   6.159   9.812 -1.1212 -0.4005  1.5025
  200MOL0     H26362   3.169   6.299   9.879  0.1483 -0.7504 -0.0896
  200MOL0     H26363   3.401   6.332   9.867 -1.4312 -0.2808  3.2564
  200MOL0     H26364   3.753   6.482   9.710 -0.9162  0.5425  1.0714
  200MOL0     H26365   3.988   6.520   9.713  1.1646  0.9903  3.0096
  200MOL0     H26366   4.179   6.560   9.769  0.5738  0.8096 -0.0397
  200MOL0     H26367   4.271   6.455   9.654  4.5808  4.8397  0.9409
  200MOL0     H26368   4.431   6.394   9.824  0.8313 -0.1423 -0.3596
  200MOL0     H26369   4.355   6.498   9.946  1.0523  2.1351  0.8175
  200MOL0     H26370   4.392   6.707   9.814 -0.8906 -0.7967 -0.1039
  200MOL0     H26371   4.463   6.615   9.693 -4.3234 -0.8160 -0.2053
  200MOL0     H26372   4.583   6.610   9.985  0.8967  1.0596  0.6928
  200MOL0     H26373   4.649   6.523   9.859  0.3698  0.5666 -1.1229
  200MOL0     H26374   4.604   6.812   9.768  3.3188 -0.1595 -4.5045
  200MOL0     H26375   4.716   6.698   9.729  1.6961  1.2004 -0.2953
  200MOL0     H26376   4.828   6.874   9.864 -0.3239 -0.4774  0.9610
  200MOL0     H26377   4.829   6.724   9.963  1.1457  1.0434  0.6882
  200MOL0     H26378   4.632   6.950   9.993  0.5107  1.6866  2.0308
  200MOL0     H26379   4.637   6.806  10.092  1.3631  0.0919  1.7065
  200MOL0     H26380   4.760   7.000  10.201 -3.0021 -0.7025 -1.0066
  200MOL0     H26381   4.874   7.006  10.077 -1.3071  1.3027 -0.6374
  200MOL0     H26382   4.076   6.135   9.875  1.7364 -1.6173 -3.7391
  200MOL0     H26383   3.827   6.113   9.920 -1.7956  2.9370  2.2915
  200MOL0     H26384   3.439   5.922   9.721 -1.8662 -0.2651 -1.2132
  200MOL0     H26385   3.206   5.894   9.743  1.4335  0.1406  0.2120
  200MOL0     H26386   4.207   5.375  10.374  0.2558  0.4308 -0.3434
  200MOL0     H26387   4.421   5.402  10.241 -0.5837  0.3808 -0.1894
  200MOL0     H26388   4.828   5.049  10.071  1.9198 -1.0498 -0.4158
  200MOL0     H26389   5.018   5.054   9.907 -0.5361 -2.0584 -2.2387
  200MOL0     H26390   5.079   5.376   9.613 -0.8985  1.0196 -3.0687
  200MOL0     H26391   4.953   5.297   9.516 -1.4275 -0.0237  2.1637
  200MOL0     H26392   5.123   5.150   9.445 -3.8656  0.8583  0.6489
  200MOL0     H26393   5.179   5.307   9.405  1.4794 -0.8394  0.3490
  200MOL0     H26394   5.367   5.206   9.486 -3.2170  1.5525 -2.4280
  200MOL0     H26395   5.285   5.136   9.633 -2.0515 -0.3470  0.2109
  200MOL0     H26396   5.287   5.324   9.743 -2.1086  0.5740 -0.8794
  200MOL0     H26397   5.451   5.303   9.672  1.2790  1.2227 -5.1068
  200MOL0     H26398   5.287   5.667   9.513 -0.3817 -0.9519  0.7054
  200MOL0     H26399   4.816   5.366   9.675 -1.3555 -0.2254  0.3898
  200MOL0     H26400   4.624   5.325   9.825  1.5773  2.7576  2.8262
  201MOL0     O26401   6.888   0.272   8.218  0.1534  0.0499 -0.6649
  201MOL0     C26402   7.000   0.282   8.270  0.3631  1.1486 -0.1531
  201MOL0     O26403   7.118   0.324   8.205  0.1078 -0.9587  0.5394
  201MOL0     C26404   7.113   0.405   8.090 -0.0155 -0.7210  1.0956
  201MOL0     C26405   7.091   0.349   7.963  0.5172 -0.0724  0.1850
  201MOL0     C26406   7.098   0.433   7.853 -0.4776  1.5162 -0.2449
  201MOL0     C26407   7.119   0.565   7.858  0.1082  0.7636 -0.0737
  201MOL0     O26408   7.147   0.635   7.746 -0.1462  0.0648  0.0305
  201MOL0     C26409   7.041   0.709   7.685  0.1883  0.6902  0.2989
  201MOL0     C26410   7.078   0.742   7.538 -0.2139 -0.4014 -0.1898
  201MOL0     C26411   6.951   0.789   7.478  0.5953 -0.7014 -0.2736
  201MOL0     C26412   6.955   0.798   7.334  0.9165 -0.5399  0.1259
  201MOL0     C26413   7.047   0.910   7.285 -0.3632  0.3844 -0.3323
  201MOL0     C26414   7.021   0.946   7.149 -0.2833  0.4308  0.3517
  201MOL0     C26415   6.911   1.055   7.131 -0.2735 -1.1234 -0.1717
  201MOL0     C26416   6.931   1.112   6.980 -0.0052 -0.2298 -0.5505
  201MOL0     N26417   6.842   1.220   6.945 -0.5178 -0.4543 -0.2488
  201MOL0     C26418   6.873   1.361   6.950 -0.6922 -0.3015  1.1605
  201MOL0     C26419   6.778   1.420   6.867  1.6136 -0.2877 -0.2792
  201MOL0     C26420   6.762   1.575   6.840 -0.3300 -0.3620 -0.7013
  201MOL0     C26421   6.665   1.602   6.735  0.0642 -0.2433  0.3310
  201MOL0     C26422   6.736   1.567   6.604  0.7074  1.1109 -0.2260
  201MOL0     C26423   6.652   1.590   6.483  0.0486  0.3607  1.0753
  201MOL0     O26424   6.721   1.570   6.363  0.4597 -0.9016 -0.2953
  201MOL0     C26425   6.664   1.484   6.273  0.1977  0.1735 -0.6914
  201MOL0     C26426   6.530   1.472   6.247  1.0680  0.1649  0.5219
  201MOL0     C26427   6.484   1.394   6.138  0.1450  0.0869  0.1245
  201MOL0     C26428   6.576   1.338   6.043  0.5290  0.7750 -0.5619
  201MOL0     C26429   6.526   1.287   5.916  0.2428 -1.1865  0.4373
  201MOL0     O26430   6.571   1.161   5.875 -0.6111 -0.0507  0.5699
  201MOL0     C26431   6.516   1.118   5.755 -0.0486 -0.7601 -0.4884
  201MOL0     C26432   6.471   0.989   5.757  0.1537 -0.3016  0.4358
  201MOL0     C26433   6.425   0.926   5.641 -0.2817 -0.2961 -0.3160
  201MOL0     C26434   6.434   0.998   5.529  1.2707 -0.4464  1.0222
  201MOL0     O26435   6.382   0.963   5.410  0.2682 -0.3944  0.2729
  201MOL0     C26436   6.265   0.880   5.404 -0.4924 -0.2973  0.1268
  201MOL0     C26437   6.211   0.854   5.261 -0.5694  0.0955  0.1961
  201MOL0     C26438   6.312   0.779   5.164  0.6813 -0.3641  0.0340
  201MOL0     C26439   6.267   0.770   5.020  0.0881 -0.6093  0.9890
  201MOL0     C26440   6.146   0.683   5.009 -0.0631  0.5101  0.0134
  201MOL0     C26441   6.136   0.621   4.871 -0.6317  0.2599  0.0801
  201MOL0     C26442   6.005   0.578   4.835  0.0818 -0.2352  0.2535
  201MOL0     C26443   5.978   0.576   4.689 -0.4885 -0.5422  0.8791
  201MOL0    Cl26444   5.947   0.753   4.628  0.3778  0.0643 -0.2403
  201MOL0     C26445   6.489   1.127   5.528 -0.7791  0.0678 -0.5609
  201MOL0     C26446   6.538   1.194   5.637  0.3072 -0.3925 -0.2053
  201MOL0     O26447   6.435   1.353   5.858 -0.0800  0.2555 -0.2142
  201MOL0     C26448   6.716   1.348   6.077  0.8918 -0.0114 -0.1394
  201MOL0     C26449   6.756   1.430   6.182  0.3620  0.8384 -0.0716
  201MOL0     N26450   6.711   1.321   6.802  0.4723  0.0688  0.5473
  201MOL0     N26451   6.738   1.206   6.853  0.1384 -0.1462 -1.1505
  201MOL0     C26452   7.147   0.621   7.970 -0.4208  0.3914 -0.6241
  201MOL0     C26453   7.141   0.546   8.093 -0.0828  0.0095 -0.4075
  201MOL0     C26454   7.008   0.248   8.411  0.4427  0.5447 -0.5345
  201MOL0     C26455   6.908   0.169   8.478 -0.4263 -0.5314  0.2083
  201MOL0     C26456   6.913   0.135   8.610 -0.9332 -0.3208 -0.5234
  201MOL0     C26457   7.032   0.166   8.687 -0.1671 -0.8275 -0.0004
  201MOL0     O26458   7.039   0.121   8.811  0.8848 -0.2629  0.0232
  201MOL0     C26459   7.161   0.079   8.876 -0.5705 -0.3932 -0.2330
  201MOL0     C26460   7.234  -0.030   8.793 -0.0365  0.2312 -0.1722
  201MOL0     C26461   7.368  -0.086   8.863 -0.5986  0.2752 -0.1428
  201MOL0     C26462   7.421  -0.222   8.813  0.3817  0.0305 -0.1012
  201MOL0     C26463   7.429  -0.220   8.672  0.7822 -0.0894  0.2532
  201MOL0     C26464   7.445  -0.241   8.550 -0.9572  1.0046 -0.2254
  201MOL0     C26465   7.118   0.265   8.637  0.4866 -0.5533 -0.2032
  201MOL0     C26466   7.115   0.303   8.502  1.1408  0.9784  0.1415
  201MOL0     H26467   7.064   0.244   7.956 -0.6936  0.3155 -3.2757
  201MOL0     H26468   7.112   0.388   7.755  2.9206 -0.8897  1.1121
  201MOL0     H26469   7.026   0.805   7.736  0.5443  1.1037 -0.3491
  201MOL0     H26470   6.956   0.641   7.689  0.5887  0.1832  0.3584
  201MOL0     H26471   7.116   0.665   7.469  3.1919 -0.0817  1.1470
  201MOL0     H26472   7.142   0.830   7.537 -1.0866  0.2426 -0.3720
  201MOL0     H26473   6.921   0.882   7.527 -1.6152 -0.9252 -1.0632
  201MOL0     H26474   6.873   0.716   7.502 -0.1394  0.3663  0.6791
  201MOL0     H26475   7.001   0.715   7.280  2.8107  2.4943 -3.3703
  201MOL0     H26476   6.860   0.833   7.292  1.6077  2.4653  0.8107
  201MOL0     H26477   7.151   0.878   7.294  0.1041  2.2507  1.7702
  201MOL0     H26478   7.050   1.008   7.333  0.2926  2.2272 -3.8271
  201MOL0     H26479   6.985   0.853   7.104  1.5218 -0.5561  0.8760
  201MOL0     H26480   7.117   0.973   7.104 -1.3998  2.2890 -1.1214
  201MOL0     H26481   6.811   1.014   7.145  1.6279 -5.9357  1.8040
  201MOL0     H26482   6.937   1.130   7.206 -2.8727 -1.7135  1.4524
  201MOL0     H26483   6.918   1.030   6.909 -1.3779 -0.5573  0.0373
  201MOL0     H26484   7.029   1.158   6.967 -1.3280  2.8914 -0.3413
  201MOL0     H26485   6.931   1.414   7.025  2.1689  0.2190 -1.2211
  201MOL0     H26486   6.864   1.609   6.820  0.3316 -3.2054 -2.8425
  201MOL0     H26487   6.716   1.619   6.930 -0.5347 -1.4467 -0.2609
  201MOL0     H26488   6.635   1.707   6.736  0.6124 -0.0813 -0.0006
  201MOL0     H26489   6.572   1.543   6.733 -0.0123 -0.1302 -1.5720
  201MOL0     H26490   6.835   1.615   6.604  2.4563 -1.9844  3.0817
  201MOL0     H26491   6.773   1.464   6.604  1.4242  1.3541 -1.3793
  201MOL0     H26492   6.620   1.695   6.482  0.1711  0.3940 -0.1232
  201MOL0     H26493   6.562   1.528   6.487  0.4101 -0.6100 -2.5044
  201MOL0     H26494   6.449   1.522   6.300 -1.1732 -0.2830 -2.2716
  201MOL0     H26495   6.380   1.377   6.113  0.1552 -2.1853  1.3026
  201MOL0     H26496   6.466   0.935   5.851 -0.3007  0.5321  0.9054
  201MOL0     H26497   6.401   0.821   5.661  2.6999 -0.6868  1.7645
  201MOL0     H26498   6.178   0.924   5.455 -1.6746 -0.7380 -1.4226
  201MOL0     H26499   6.283   0.783   5.451 -0.3320  0.8506  2.6118
  201MOL0     H26500   6.206   0.950   5.209  0.7383  0.8527  1.4242
  201MOL0     H26501   6.118   0.797   5.250  1.7044 -3.4167 -4.1030
  201MOL0     H26502   6.319   0.681   5.211  0.0890 -0.5759 -0.3064
  201MOL0     H26503   6.408   0.831   5.165 -0.0816  1.1282 -0.6068
  201MOL0     H26504   6.234   0.868   4.987  0.4840 -0.9824 -0.5766
  201MOL0     H26505   6.354   0.736   4.964 -1.2227 -2.9467  0.2292
  201MOL0     H26506   6.054   0.737   5.032 -1.6286 -1.5866 -1.0457
  201MOL0     H26507   6.151   0.599   5.079  2.1226  0.2153 -0.4155
  201MOL0     H26508   6.206   0.537   4.877 -1.0575  0.0007  3.0721
  201MOL0     H26509   6.164   0.692   4.792 -1.7456  1.0125  0.3306
  201MOL0     H26510   5.979   0.483   4.882 -2.2496  0.5661  0.7357
  201MOL0     H26511   5.923   0.637   4.877 -1.4252 -2.0525  0.0140
  201MOL0     H26512   5.884   0.522   4.673 -0.1677 -0.8772  0.1473
  201MOL0     H26513   6.056   0.514   4.645  0.0941  0.9730 -0.3373
  201MOL0     H26514   6.514   1.193   5.446  1.3886  4.0643  2.9282
  201MOL0     H26515   6.582   1.292   5.623  0.6625  0.3061  4.3367
  201MOL0     H26516   6.794   1.292   6.026  0.3396 -1.2431  0.3330
  201MOL0     H26517   6.861   1.458   6.185  0.2017  1.6791 -1.4690
  201MOL0     H26518   7.176   0.725   7.974  0.7804  0.0397  2.1905
  201MOL0     H26519   7.152   0.598   8.188 -0.5751  0.2604 -0.4814
  201MOL0     H26520   6.819   0.145   8.420  1.5335  1.8735 -4.3273
  201MOL0     H26521   6.838   0.069   8.653 -0.1382 -1.9340 -1.4847
  201MOL0     H26522   7.159   0.046   8.980  2.6782  1.6457  0.6124
  201MOL0     H26523   7.231   0.163   8.878 -0.7205 -0.2375 -0.9438
  201MOL0     H26524   7.162  -0.113   8.785 -2.3866  2.1296  0.0665
  201MOL0     H26525   7.259   0.015   8.697  1.1307 -0.3666 -0.1714
  201MOL0     H26526   7.364  -0.100   8.972  2.2883 -2.4321 -0.2062
  201MOL0     H26527   7.448  -0.013   8.848 -0.2647 -0.5830 -3.3553
  201MOL0     H26528   7.520  -0.243   8.856  1.5243  2.1306 -1.4760
  201MOL0     H26529   7.339  -0.287   8.842 -0.2405  1.1105  0.6461
  201MOL0     H26530   7.456  -0.239   8.444 -4.1204  0.3115 -0.6571
  201MOL0     H26531   7.190   0.310   8.705 -0.6438 -1.0903  1.3996
  201MOL0     H26532   7.173   0.390   8.474  1.8627  0.9459  1.4208
  202MOL0     O26533   2.716   0.309   1.045 -0.1478 -0.3781 -0.2747
  202MOL0     C26534   2.647   0.377   1.122  0.3496 -0.1452 -0.0419
  202MOL0     O26535   2.626   0.510   1.125 -0.1416 -0.3808 -0.4917
  202MOL0     C26536   2.715   0.601   1.071 -0.3120 -0.5453  0.3819
  202MOL0     C26537   2.707   0.644   0.936 -0.0231  0.0449  0.1049
  202MOL0     C26538   2.789   0.748   0.892  0.2286  0.3254 -0.5749
  202MOL0     C26539   2.881   0.802   0.984 -0.7133  0.2635 -0.3927
  202MOL0     O26540   2.989   0.881   0.939 -0.1991 -0.1508  0.3278
  202MOL0     C26541   2.965   0.974   0.825 -0.5889  0.2918  0.3630
  202MOL0     C26542   3.076   1.072   0.823  0.5496  0.4085  0.2733
  202MOL0     C26543   3.029   1.177   0.716 -0.6959  0.3220  0.2960
  202MOL0     C26544   3.000   1.126   0.570 -1.4115 -0.6440 -0.7411
  202MOL0     C26545   2.970   1.250   0.477  0.9198  0.3669 -0.2296
  202MOL0     C26546   2.989   1.212   0.321  0.4841 -0.1060 -0.7255
  202MOL0     C26547   2.957   1.325   0.230  0.3581 -0.4896 -0.3581
  202MOL0     C26548   2.810   1.361   0.219  0.5938 -0.5561  1.1409
  202MOL0     N26549   2.723   1.255   0.178  0.2472 -0.6799  0.3913
  202MOL0     C26550   2.737   1.198   0.049  0.2458 -0.2358 -0.2346
  202MOL0     C26551   2.653   1.091   0.060  0.7410 -0.8214 -0.1385
  202MOL0     C26552   2.599   1.029  -0.056  0.0503 -0.1873  0.1303
  202MOL0     C26553   2.642   0.885  -0.055 -0.2849 -0.4712 -0.2908
  202MOL0     C26554   2.540   0.815  -0.139  0.5140 -0.1988  0.0206
  202MOL0     C26555   2.554   0.670  -0.125 -0.0022  1.0573  0.0770
  202MOL0     O26556   2.506   0.614  -0.249 -0.0439 -0.1549 -0.4015
  202MOL0     C26557   2.460   0.481  -0.257  0.2503  0.7633  0.4567
  202MOL0     C26558   2.376   0.451  -0.377  0.2163 -1.1240 -0.8336
  202MOL0     C26559   2.295   0.338  -0.382 -0.1954 -1.1151 -0.1263
  202MOL0     C26560   2.326   0.236  -0.289  0.1916  0.4003  0.2882
  202MOL0     C26561   2.242   0.108  -0.292 -0.5937  0.4198 -0.5783
  202MOL0     O26562   2.144   0.104  -0.384 -0.7890  0.1871  0.4940
  202MOL0     C26563   2.076  -0.014  -0.383 -0.0216 -0.0865  1.1114
  202MOL0     C26564   2.003  -0.066  -0.277 -0.1765  0.4211  1.3796
  202MOL0     C26565   1.938  -0.189  -0.294  0.7825 -0.3062  0.3216
  202MOL0     C26566   1.921  -0.244  -0.420  0.5579  0.7465 -0.2545
  202MOL0     O26567   1.855  -0.373  -0.446  0.2006 -0.8990  0.2375
  202MOL0     C26568   1.832  -0.461  -0.339 -0.3481 -0.1155  0.2482
  202MOL0     C26569   1.958  -0.543  -0.310  0.0948  0.1747 -0.3510
  202MOL0     C26570   2.003  -0.631  -0.423  0.6049  0.4491 -0.9291
  202MOL0     C26571   2.109  -0.731  -0.373 -0.6145  0.3833 -0.4734
  202MOL0     C26572   2.231  -0.673  -0.303 -0.0934  0.6863 -0.6346
  202MOL0     C26573   2.309  -0.789  -0.241 -0.1669 -0.6505 -0.1964
  202MOL0     C26574   2.441  -0.751  -0.157 -1.0639  1.0366  0.3071
  202MOL0     C26575   2.513  -0.877  -0.094 -0.5671 -0.2147  0.3658
  202MOL0    Cl26576   2.575  -0.813   0.063 -0.0959 -0.2093 -0.3313
  202MOL0     C26577   1.983  -0.178  -0.522 -0.1035 -0.1721  0.5188
  202MOL0     C26578   2.069  -0.078  -0.509 -0.1880  0.0755 -0.3689
  202MOL0     O26579   2.271   0.023  -0.209 -0.2945  0.7023 -0.8698
  202MOL0     C26580   2.418   0.261  -0.183 -0.8527  0.4590  1.0292
  202MOL0     C26581   2.482   0.384  -0.163 -0.2144  0.0148 -0.3138
  202MOL0     N26582   2.612   1.078   0.192  0.0708 -0.8852  0.0014
  202MOL0     N26583   2.655   1.179   0.260  0.1481 -0.5365  0.5830
  202MOL0     C26584   2.900   0.758   1.113 -0.9182 -0.4231  0.8353
  202MOL0     C26585   2.809   0.662   1.161  0.9705  1.2620 -0.5404
  202MOL0     C26586   2.560   0.299   1.214 -0.1748  1.1548 -0.2744
  202MOL0     C26587   2.484   0.377   1.311 -0.5625  1.0785  0.7902
  202MOL0     C26588   2.418   0.320   1.419 -0.1213 -0.0665  0.1611
  202MOL0     C26589   2.417   0.176   1.429  0.5805 -0.0847  0.4183
  202MOL0     O26590   2.346   0.137   1.540 -0.4507  0.1053 -0.0752
  202MOL0     C26591   2.386   0.013   1.606  1.1403 -0.5739 -0.3800
  202MOL0     C26592   2.317   0.011   1.746 -0.2091  1.2378  1.1205
  202MOL0     C26593   2.359   0.116   1.845 -0.4489  0.7430  0.1661
  202MOL0     C26594   2.318   0.262   1.801 -0.3027 -0.6884  0.0182
  202MOL0     C26595   2.316   0.346   1.925 -0.6171 -1.1781 -0.9509
  202MOL0     C26596   2.322   0.429   2.021  0.1906 -0.2501  0.2017
  202MOL0     C26597   2.485   0.096   1.330  0.4417  0.3429  0.3041
  202MOL0     C26598   2.564   0.159   1.235  1.2379  0.0316 -0.4273
  202MOL0     H26599   2.638   0.595   0.868  3.4499 -1.8519 -2.3746
  202MOL0     H26600   2.794   0.776   0.787  1.2844  0.3315 -0.5307
  202MOL0     H26601   2.869   1.023   0.844 -0.7115  0.0359  0.4069
  202MOL0     H26602   2.957   0.913   0.735 -0.4221 -1.0658  1.2407
  202MOL0     H26603   3.171   1.030   0.790 -0.1314  0.5386 -2.0253
  202MOL0     H26604   3.098   1.109   0.923  1.6187  1.0445 -0.1844
  202MOL0     H26605   3.099   1.260   0.706 -1.0494  0.4741 -1.1325
  202MOL0     H26606   2.935   1.224   0.747 -2.0986 -0.8631 -1.9036
  202MOL0     H26607   3.091   1.079   0.530 -0.9974 -2.7885  2.3648
  202MOL0     H26608   2.924   1.048   0.576 -2.1799  0.1928  0.6150
  202MOL0     H26609   3.031   1.336   0.507  2.6587 -0.4648 -1.2316
  202MOL0     H26610   2.865   1.270   0.500  0.7273  0.5294 -1.2145
  202MOL0     H26611   2.927   1.126   0.291 -1.8137  1.9164 -2.1702
  202MOL0     H26612   3.097   1.202   0.305  0.6033  1.2447 -0.9006
  202MOL0     H26613   2.991   1.410   0.290 -3.6922  0.0389  1.5526
  202MOL0     H26614   3.008   1.331   0.134 -2.0912 -1.6731 -1.8128
  202MOL0     H26615   2.809   1.434   0.137 -2.2750 -1.3798  0.3152
  202MOL0     H26616   2.772   1.392   0.317  1.1831 -1.0014  1.5151
  202MOL0     H26617   2.788   1.227  -0.042 -0.2257  0.6701 -0.2247
  202MOL0     H26618   2.617   1.074  -0.155  0.3744  1.0942  0.7434
  202MOL0     H26619   2.491   1.047  -0.048 -0.0735  0.0955 -1.7049
  202MOL0     H26620   2.643   0.839   0.044 -0.3946  3.5368  1.7795
  202MOL0     H26621   2.747   0.880  -0.088  0.0620  0.4170  0.6257
  202MOL0     H26622   2.439   0.844  -0.107  0.6410 -0.2233  0.4374
  202MOL0     H26623   2.557   0.855  -0.240  0.7014  4.5241  1.6797
  202MOL0     H26624   2.509   0.643  -0.029  0.0452 -0.0199 -0.1868
  202MOL0     H26625   2.661   0.650  -0.120 -0.1726  0.4740  2.6350
  202MOL0     H26626   2.364   0.529  -0.452 -0.9886 -0.3648  0.1043
  202MOL0     H26627   2.229   0.318  -0.465 -2.8722 -1.0206  1.8579
  202MOL0     H26628   1.994  -0.007  -0.186 -0.2688  2.5430  0.0715
  202MOL0     H26629   1.889  -0.222  -0.203  2.7862 -2.2105  0.8090
  202MOL0     H26630   1.762  -0.537  -0.374 -0.9179  0.2800  0.5090
  202MOL0     H26631   1.782  -0.421  -0.250 -0.1108  3.1153 -0.9433
  202MOL0     H26632   1.944  -0.597  -0.216 -0.9060  1.5408  0.3207
  202MOL0     H26633   2.040  -0.479  -0.278  1.5982 -2.7039  2.0918
  202MOL0     H26634   2.048  -0.563  -0.497  2.9170  1.2987  1.1236
  202MOL0     H26635   1.929  -0.690  -0.478  1.8201  0.5507 -2.7610
  202MOL0     H26636   2.064  -0.808  -0.309 -0.8149 -2.5668 -3.8571
  202MOL0     H26637   2.150  -0.783  -0.460  1.2271  1.2988 -0.2050
  202MOL0     H26638   2.204  -0.607  -0.220  0.9355 -0.2568  0.5019
  202MOL0     H26639   2.282  -0.616  -0.381  1.3331 -0.2200 -0.4029
  202MOL0     H26640   2.340  -0.851  -0.326 -0.6912 -0.6153 -0.4196
  202MOL0     H26641   2.243  -0.859  -0.189 -1.4029  0.6243 -0.0156
  202MOL0     H26642   2.510  -0.694  -0.220 -3.3019  2.1450 -1.2726
  202MOL0     H26643   2.408  -0.678  -0.082 -0.9528  1.1926  0.2060
  202MOL0     H26644   2.595  -0.910  -0.159 -1.0788  1.7626 -1.3858
  202MOL0     H26645   2.435  -0.953  -0.083 -0.2413 -1.2832 -3.3978
  202MOL0     H26646   1.991  -0.214  -0.624 -0.9484 -2.6594  1.2583
  202MOL0     H26647   2.127  -0.047  -0.595 -2.1415  2.4350 -0.9442
  202MOL0     H26648   2.448   0.187  -0.110  0.7430 -0.1846 -0.2034
  202MOL0     H26649   2.559   0.399  -0.089  2.8001 -3.4180 -2.4016
  202MOL0     H26650   2.973   0.811   1.173  0.0086  0.2483 -0.8075
  202MOL0     H26651   2.807   0.650   1.269  1.8022 -4.4413 -0.8203
  202MOL0     H26652   2.487   0.484   1.293  3.0931  1.2138  1.5357
  202MOL0     H26653   2.381   0.379   1.502  0.7278 -1.9755  1.9828
  202MOL0     H26654   2.494   0.007   1.617  1.0972  0.7476  1.0206
  202MOL0     H26655   2.348  -0.072   1.548 -0.1255 -0.2584 -0.0487
  202MOL0     H26656   2.211   0.028   1.728 -0.0915 -0.3097 -1.5598
  202MOL0     H26657   2.340  -0.089   1.782  3.8821  1.2379 -0.8483
  202MOL0     H26658   2.464   0.095   1.865 -0.6878 -1.0095 -0.2252
  202MOL0     H26659   2.308   0.082   1.936 -3.6904  1.7271 -1.1206
  202MOL0     H26660   2.395   0.297   1.732 -1.6054 -3.9233 -3.3742
  202MOL0     H26661   2.226   0.280   1.745 -0.8765 -0.5448  0.9793
  202MOL0     H26662   2.313   0.480   2.115  2.9102 -4.5713  3.1816
  202MOL0     H26663   2.493  -0.012   1.338  2.9260 -0.0983 -4.4566
  202MOL0     H26664   2.627   0.104   1.166 -1.6218 -1.9204 -1.6688
  203MOL0     O26665   4.025   0.013   1.185  0.6405  0.0706 -0.5492
  203MOL0     C26666   4.010   0.124   1.244  0.3669 -0.9538 -0.2014
  203MOL0     O26667   3.947   0.134   1.370  0.5438 -0.6141 -0.2678
  203MOL0     C26668   3.967   0.045   1.472  1.4294 -0.6348  0.3853
  203MOL0     C26669   4.099   0.011   1.521  0.8358  0.7659  0.1404
  203MOL0     C26670   4.112  -0.075   1.636  0.3310  0.6879  0.3767
  203MOL0     C26671   3.994  -0.127   1.698  0.6355 -0.4560  0.7052
  203MOL0     O26672   3.998  -0.225   1.796  0.3112 -0.2749  0.1815
  203MOL0     C26673   4.096  -0.227   1.895 -0.0005 -1.1444  0.0580
  203MOL0     C26674   4.063  -0.336   1.993 -0.1292  0.0913  0.2558
  203MOL0     C26675   4.063  -0.468   1.916  0.1499 -0.5627 -0.5731
  203MOL0     C26676   4.020  -0.581   2.010  0.0428  0.3275  0.1203
  203MOL0     C26677   4.032  -0.563   2.160  0.7201  0.5824  0.2178
  203MOL0     C26678   4.026  -0.702   2.241  0.4157 -0.4609  0.0700
  203MOL0     C26679   3.880  -0.753   2.244  0.4813  0.1322  0.1245
  203MOL0     C26680   3.867  -0.895   2.295 -0.3196  0.7529 -0.2036
  203MOL0     N26681   3.841  -0.909   2.443  0.3217 -0.3162  0.3955
  203MOL0     C26682   3.915  -0.843   2.532 -0.9642  0.8140 -0.3519
  203MOL0     C26683   3.875  -0.895   2.651 -0.0491  0.3017  0.4711
  203MOL0     C26684   3.918  -0.870   2.793 -0.8438 -0.5669  1.0788
  203MOL0     C26685   3.806  -0.859   2.895  0.0227  0.7216 -0.5913
  203MOL0     C26686   3.851  -0.834   3.037  0.5305 -0.0763 -0.5438
  203MOL0     C26687   3.929  -0.700   3.057 -1.2346  0.4053 -0.0469
  203MOL0     O26688   4.060  -0.712   2.994 -0.7631 -0.4946 -0.2631
  203MOL0     C26689   4.168  -0.711   3.082  0.3513 -0.4112  0.9756
  203MOL0     C26690   4.187  -0.615   3.181 -0.1125 -0.4096  0.4410
  203MOL0     C26691   4.286  -0.627   3.277  0.2683  0.0695  0.0296
  203MOL0     C26692   4.379  -0.730   3.273  0.4783  0.6099 -0.7306
  203MOL0     C26693   4.488  -0.743   3.382 -0.2419  0.2124  0.0352
  203MOL0     O26694   4.481  -0.659   3.491 -0.3570 -0.0640 -0.1416
  203MOL0     C26695   4.552  -0.694   3.596  0.2160  1.3939  0.0663
  203MOL0     C26696   4.528  -0.823   3.648  0.4144 -0.7463 -0.3371
  203MOL0     C26697   4.557  -0.847   3.782 -0.1551  0.1259 -0.5921
  203MOL0     C26698   4.630  -0.751   3.855 -0.0167 -0.7221  0.0153
  203MOL0     O26699   4.662  -0.777   3.980 -0.5960  0.0229  0.2797
  203MOL0     C26700   4.706  -0.665   4.070  0.1626  0.5711  0.0683
  203MOL0     C26701   4.749  -0.722   4.196 -1.2336  0.2500  1.0299
  203MOL0     C26702   4.675  -0.680   4.328  0.4610  0.4321 -0.1679
  203MOL0     C26703   4.748  -0.567   4.402 -0.0347  0.0299 -0.2020
  203MOL0     C26704   4.698  -0.540   4.544  0.3331  1.1368  1.3629
  203MOL0     C26705   4.557  -0.490   4.537  0.4743  0.0657  1.1643
  203MOL0     C26706   4.494  -0.481   4.680  0.0774  0.0607  0.5298
  203MOL0     C26707   4.427  -0.619   4.721  0.1951 -0.4162  0.0846
  203MOL0    Cl26708   4.327  -0.615   4.876  0.1949  0.1114 -0.1176
  203MOL0     C26709   4.669  -0.626   3.789 -0.2963  0.7425  0.1134
  203MOL0     C26710   4.617  -0.598   3.668  0.4889 -0.4266  0.0177
  203MOL0     O26711   4.575  -0.830   3.366  0.2863 -0.1393 -0.3323
  203MOL0     C26712   4.369  -0.824   3.162 -0.3901 -0.3509 -0.8220
  203MOL0     C26713   4.264  -0.807   3.068  0.1825 -0.1002  0.1218
  203MOL0     N26714   3.777  -0.985   2.624 -0.2413  0.4405 -0.2152
  203MOL0     N26715   3.755  -0.992   2.501 -0.6059 -0.5570  0.2182
  203MOL0     C26716   3.869  -0.078   1.654 -0.2061  0.1030 -0.3476
  203MOL0     C26717   3.852   0.002   1.545 -0.6055  0.4492  0.2420
  203MOL0     C26718   4.029   0.253   1.164 -0.3720 -0.2757 -0.3200
  203MOL0     C26719   3.967   0.371   1.206  0.1934  0.0786  0.0764
  203MOL0     C26720   3.984   0.492   1.144 -0.5440  0.3576  0.5433
  203MOL0     C26721   4.074   0.495   1.041  0.0425  1.2441  0.0496
  203MOL0     O26722   4.083   0.598   0.960  0.5097  0.5126  0.5663
  203MOL0     C26723   3.969   0.620   0.872 -0.0469  0.9499 -0.6561
  203MOL0     C26724   3.939   0.772   0.861 -0.7816 -0.5708  0.4122
  203MOL0     C26725   4.048   0.844   0.781  0.0355  0.6259  0.2199
  203MOL0     C26726   4.052   0.997   0.805  0.1403  0.3195 -1.1703
  203MOL0     C26727   4.043   1.042   0.942 -0.3004 -0.0946 -0.8618
  203MOL0     C26728   4.045   1.084   1.055 -0.2760 -0.1917 -0.4642
  203MOL0     C26729   4.141   0.380   1.000 -0.0919 -0.8774  0.2316
  203MOL0     C26730   4.110   0.257   1.055  0.6235 -0.7321  0.3439
  203MOL0     H26731   4.196   0.042   1.483  1.9070 -0.8324  1.4513
  203MOL0     H26732   4.207  -0.099   1.683  1.3339  2.1103 -0.8587
  203MOL0     H26733   4.094  -0.125   1.936  0.4545 -0.7261 -0.9322
  203MOL0     H26734   4.193  -0.260   1.858 -1.0983 -3.3888 -1.0281
  203MOL0     H26735   3.971  -0.308   2.044 -0.3601 -0.4757  0.1576
  203MOL0     H26736   4.142  -0.334   2.069 -3.6141  0.1075  4.2306
  203MOL0     H26737   4.166  -0.487   1.885  0.0633 -2.4516  0.1569
  203MOL0     H26738   3.998  -0.477   1.828 -0.4789  1.8571 -0.4244
  203MOL0     H26739   3.916  -0.609   1.988 -0.2213 -1.7574  3.2791
  203MOL0     H26740   4.070  -0.674   1.981 -0.8341 -0.6986  1.7353
  203MOL0     H26741   3.957  -0.492   2.197  1.6128  2.7285 -1.8306
  203MOL0     H26742   4.128  -0.510   2.169  1.7201 -0.6750 -2.2897
  203MOL0     H26743   4.058  -0.675   2.342 -0.0623  4.3160 -0.7931
  203MOL0     H26744   4.095  -0.766   2.186  3.0749  1.4510  0.9412
  203MOL0     H26745   3.802  -0.688   2.286 -2.2317 -0.4469 -3.5105
  203MOL0     H26746   3.840  -0.765   2.143 -1.7415  0.0294  0.9380
  203MOL0     H26747   3.944  -0.962   2.257 -0.6436 -1.3174  2.4830
  203MOL0     H26748   3.778  -0.941   2.252  0.8656 -2.9409  0.9027
  203MOL0     H26749   3.997  -0.771   2.529  0.0851 -0.2930  0.3984
  203MOL0     H26750   3.981  -0.780   2.787  2.6073 -2.8387  0.6209
  203MOL0     H26751   3.986  -0.949   2.826  0.9027  0.8966  1.1485
  203MOL0     H26752   3.753  -0.954   2.904 -2.2085  2.0940  3.0638
  203MOL0     H26753   3.741  -0.778   2.858  0.0576  0.3906 -1.4051
  203MOL0     H26754   3.757  -0.821   3.091 -1.9411 -0.6883 -4.3782
  203MOL0     H26755   3.896  -0.921   3.086 -3.2642 -1.2986  1.1346
  203MOL0     H26756   3.941  -0.655   3.156  0.4488 -1.2462  0.5578
  203MOL0     H26757   3.869  -0.631   2.997  2.7251  2.1850 -2.3504
  203MOL0     H26758   4.116  -0.534   3.170  2.2404  1.5271 -1.8791
  203MOL0     H26759   4.295  -0.551   3.354 -2.6071  1.7720 -1.1385
  203MOL0     H26760   4.487  -0.909   3.597  3.7734 -5.1215  3.4397
  203MOL0     H26761   4.525  -0.933   3.838  0.3929 -0.4076 -1.0816
  203MOL0     H26762   4.625  -0.593   4.085 -0.4068 -0.3381  1.5409
  203MOL0     H26763   4.786  -0.606   4.024  0.4457 -0.0769 -0.2863
  203MOL0     H26764   4.856  -0.708   4.210 -0.8033 -0.2490 -1.3265
  203MOL0     H26765   4.728  -0.829   4.185 -1.0885  0.2576  0.6355
  203MOL0     H26766   4.678  -0.764   4.398  0.4870  0.9378  0.4581
  203MOL0     H26767   4.569  -0.655   4.311  0.2740 -1.6504 -2.6627
  203MOL0     H26768   4.854  -0.594   4.405  0.1707  0.2039 -3.0511
  203MOL0     H26769   4.733  -0.477   4.342 -2.6142  1.1627  1.9410
  203MOL0     H26770   4.759  -0.467   4.597  2.7817  0.8738 -0.8513
  203MOL0     H26771   4.707  -0.626   4.610 -0.0223 -0.6256 -0.7661
  203MOL0     H26772   4.491  -0.560   4.485  0.7761  1.4481 -1.2022
  203MOL0     H26773   4.544  -0.395   4.484  0.6702  0.8322  2.4355
  203MOL0     H26774   4.572  -0.461   4.754 -1.7525  2.5290  2.0081
  203MOL0     H26775   4.415  -0.404   4.674 -1.7287 -1.6305  1.3712
  203MOL0     H26776   4.510  -0.686   4.743  3.6092  3.7118  1.1625
  203MOL0     H26777   4.366  -0.664   4.643  1.3504 -1.2378 -0.3714
  203MOL0     H26778   4.732  -0.554   3.841  3.1948 -0.8405 -1.6001
  203MOL0     H26779   4.643  -0.500   3.630  0.9037  0.0228  1.4199
  203MOL0     H26780   4.436  -0.909   3.158 -0.9973 -1.0534  1.8729
  203MOL0     H26781   4.258  -0.889   2.998  1.2747 -0.6749  0.6722
  203MOL0     H26782   3.781  -0.104   1.712  0.1468  1.5006  0.8885
  203MOL0     H26783   3.754   0.018   1.502 -0.9967 -0.2677  0.8350
  203MOL0     H26784   3.890   0.370   1.283  0.2333 -0.4810  0.1143
  203MOL0     H26785   3.925   0.579   1.172 -2.1810 -0.2077 -0.9214
  203MOL0     H26786   3.881   0.568   0.911 -0.2871  1.0747 -1.0339
  203MOL0     H26787   4.006   0.580   0.777  1.6730  0.7848  0.0530
  203MOL0     H26788   3.850   0.794   0.801  0.0859 -0.5065 -0.8972
  203MOL0     H26789   3.927   0.805   0.964 -0.1206 -2.9328  1.3257
  203MOL0     H26790   4.032   0.831   0.674  0.5028  1.7941 -0.0058
  203MOL0     H26791   4.146   0.806   0.811 -0.1253  1.3560  1.7814
  203MOL0     H26792   4.149   1.026   0.764  0.0815 -0.1268 -1.6300
  203MOL0     H26793   3.981   1.058   0.748  0.6389  1.9221 -0.1443
  203MOL0     H26794   4.058   1.119   1.155  0.3978  1.5731 -1.1222
  203MOL0     H26795   4.223   0.389   0.929  1.7350 -1.3594  2.1809
  203MOL0     H26796   4.157   0.160   1.042 -0.5783 -1.2101 -0.6907
  204MOL0     O26797   4.469   9.080   2.301 -0.1720  0.7488  0.9264
  204MOL0     C26798   4.548   9.164   2.247  1.2041  1.5690 -0.2533
  204MOL0     O26799   4.595   9.265   2.315  0.2930  0.3949 -0.5616
  204MOL0     C26800   4.597   9.263   2.456  0.5511  0.9560  0.0205
  204MOL0     C26801   4.693   9.189   2.533  0.6180 -0.1720  1.1495
  204MOL0     C26802   4.688   9.200   2.670 -0.5215  0.3696 -0.7018
  204MOL0     C26803   4.595   9.277   2.740  0.1721  0.2068 -0.1618
  204MOL0     O26804   4.587   9.299   2.878 -0.6162  0.3319 -0.9962
  204MOL0     C26805   4.706   9.305   2.959 -0.0176  0.6365 -0.3100
  204MOL0     C26806   4.677   9.328   3.105  0.4358  0.4979  0.1130
  204MOL0     C26807   4.813   9.344   3.176 -0.8600  0.3563  0.8076
  204MOL0     C26808   4.821   9.493   3.225  0.0830  1.0992  0.6202
  204MOL0     C26809   4.948   9.536   3.297  0.5082  0.3733 -0.0908
  204MOL0     C26810   5.071   9.544   3.214 -0.3593 -0.6560  0.1167
  204MOL0     C26811   5.198   9.596   3.282  0.5253  0.9628  0.4772
  204MOL0     C26812   5.301   9.497   3.329  0.1103  0.9820 -0.1428
  204MOL0     N26813   5.258   9.401   3.439  0.1611 -0.4868 -0.6389
  204MOL0     C26814   5.165   9.301   3.415 -0.0507  0.0225 -0.2649
  204MOL0     C26815   5.122   9.258   3.540 -0.7163  0.3523  0.2227
  204MOL0     C26816   5.023   9.156   3.560 -0.2288  0.7439 -0.9657
  204MOL0     C26817   4.906   9.199   3.645  0.5692  0.5343 -0.2610
  204MOL0     C26818   4.804   9.295   3.584  0.8311 -0.4787 -1.0122
  204MOL0     C26819   4.687   9.310   3.673 -0.0387  0.0815 -0.4336
  204MOL0     O26820   4.597   9.396   3.605 -0.7918 -0.2077 -0.4875
  204MOL0     C26821   4.519   9.340   3.510 -0.4539 -0.1374  0.2467
  204MOL0     C26822   4.473   9.432   3.422 -0.8179 -0.2755  0.4244
  204MOL0     C26823   4.403   9.388   3.312  0.0963 -0.1146  0.1725
  204MOL0     C26824   4.384   9.251   3.285 -0.9147 -0.1422  0.4912
  204MOL0     C26825   4.325   9.218   3.157 -0.1500  0.1441  0.2867
  204MOL0     O26826   4.302   9.092   3.122 -0.3918  0.2855 -0.6006
  204MOL0     C26827   4.261   9.047   2.998  0.5565 -0.2998 -0.7412
  204MOL0     C26828   4.214   8.913   2.999  0.7009  0.2672 -0.1173
  204MOL0     C26829   4.181   8.845   2.877 -0.6766  0.5233 -0.4009
  204MOL0     C26830   4.190   8.909   2.759 -0.4309 -0.5378  0.0536
  204MOL0     O26831   4.173   8.843   2.645  0.4902  0.4846  0.0318
  204MOL0     C26832   4.278   8.839   2.549 -0.0473 -0.3388 -0.1404
  204MOL0     C26833   4.415   8.810   2.615 -0.7270 -0.0966  0.3466
  204MOL0     C26834   4.482   8.694   2.549  0.3641 -0.5757  1.0029
  204MOL0     C26835   4.543   8.728   2.413  0.3464 -0.4815 -0.3066
  204MOL0     C26836   4.642   8.626   2.355  0.1954 -0.1880 -0.8088
  204MOL0     C26837   4.720   8.541   2.450 -0.4894 -0.6819 -0.0102
  204MOL0     C26838   4.658   8.420   2.507 -0.7472  0.1854 -0.3268
  204MOL0     C26839   4.752   8.337   2.590  0.2477  0.5323 -0.0922
  204MOL0    Cl26840   4.884   8.266   2.483  0.4547  0.0264 -0.2540
  204MOL0     C26841   4.246   9.044   2.762 -0.7834  0.4614 -0.1307
  204MOL0     C26842   4.292   9.109   2.880  0.3262 -0.1894 -0.4497
  204MOL0     O26843   4.299   9.311   3.085 -0.6869 -0.2308 -0.0192
  204MOL0     C26844   4.418   9.160   3.386 -0.3472  0.0676 -0.5009
  204MOL0     C26845   4.485   9.206   3.494 -0.2098 -0.2107 -0.7196
  204MOL0     N26846   5.204   9.335   3.634 -0.5637  0.0988  0.1750
  204MOL0     N26847   5.280   9.414   3.566 -1.0425 -0.1465 -0.8391
  204MOL0     C26848   4.500   9.343   2.669  0.4957  0.3051  0.2258
  204MOL0     C26849   4.496   9.335   2.529 -0.5344 -0.3179  0.4524
  204MOL0     C26850   4.539   9.182   2.110  0.1614  0.1206  0.0890
  204MOL0     C26851   4.561   9.300   2.040  0.1260 -0.0414 -0.0832
  204MOL0     C26852   4.534   9.306   1.902 -0.8666  0.5105 -0.0304
  204MOL0     C26853   4.477   9.199   1.833 -0.1759 -0.4201 -1.2060
  204MOL0     O26854   4.474   9.201   1.694 -0.3631  0.5941  0.4339
  204MOL0     C26855   4.464   9.325   1.637 -0.3812 -0.3443  0.4776
  204MOL0     C26856   4.399   9.320   1.496  0.4933 -1.0092 -0.5851
  204MOL0     C26857   4.507   9.274   1.393  0.0651 -0.0184 -0.0613
  204MOL0     C26858   4.633   9.353   1.374 -0.0895 -0.6907  0.3636
  204MOL0     C26859   4.747   9.306   1.447 -0.3894  0.0308 -0.3706
  204MOL0     C26860   4.843   9.249   1.504  0.1049 -0.8177 -0.2551
  204MOL0     C26861   4.470   9.075   1.899 -1.5903  0.5325  0.2701
  204MOL0     C26862   4.501   9.066   2.036  0.5878 -0.1769  0.0842
  204MOL0     H26863   4.769   9.126   2.488  1.5376  1.7829 -0.1724
  204MOL0     H26864   4.766   9.142   2.719 -0.8931  0.5560  0.1312
  204MOL0     H26865   4.761   9.397   2.938 -2.6397  1.8850 -2.1749
  204MOL0     H26866   4.766   9.217   2.932 -1.9762  0.3353 -4.4361
  204MOL0     H26867   4.632   9.236   3.144  1.1475  1.0838  2.5040
  204MOL0     H26868   4.612   9.416   3.109  0.1507  0.2809  0.2904
  204MOL0     H26869   4.899   9.315   3.116  0.1082 -5.3040  4.1870
  204MOL0     H26870   4.820   9.281   3.265 -1.3754  1.5109  1.6948
  204MOL0     H26871   4.826   9.553   3.133  1.3876 -1.2594 -0.9573
  204MOL0     H26872   4.727   9.512   3.278 -1.6712 -2.1270 -0.9688
  204MOL0     H26873   4.964   9.457   3.371 -1.1399 -0.7220 -0.8437
  204MOL0     H26874   4.942   9.634   3.346  1.9269  1.1751 -1.4173
  204MOL0     H26875   5.047   9.620   3.139  0.5455  0.0925  0.5647
  204MOL0     H26876   5.103   9.451   3.165  3.3196 -0.3507  1.6349
  204MOL0     H26877   5.250   9.661   3.212  1.2292  0.6825  0.7342
  204MOL0     H26878   5.167   9.660   3.366 -1.6764 -1.3689  1.5926
  204MOL0     H26879   5.387   9.556   3.362 -0.1883  0.3356  1.9728
  204MOL0     H26880   5.335   9.444   3.240  2.8579  0.1282  1.2743
  204MOL0     H26881   5.130   9.266   3.319  2.4151  1.0859 -1.6529
  204MOL0     H26882   5.058   9.060   3.600 -1.8789  1.1474  1.7160
  204MOL0     H26883   4.972   9.134   3.465  0.3983  0.7706 -1.3150
  204MOL0     H26884   4.944   9.235   3.742  0.4050  0.6206 -0.2286
  204MOL0     H26885   4.856   9.103   3.662  1.7180 -0.1474 -0.6113
  204MOL0     H26886   4.846   9.395   3.570 -4.9215  2.8402  1.9583
  204MOL0     H26887   4.761   9.251   3.493 -2.9527 -1.5418  1.0795
  204MOL0     H26888   4.733   9.365   3.756 -1.8292  0.3029  0.4701
  204MOL0     H26889   4.646   9.217   3.712 -0.3592  0.8421  1.1049
  204MOL0     H26890   4.502   9.536   3.435  1.5283 -0.5242 -2.0033
  204MOL0     H26891   4.379   9.467   3.242  1.1677 -2.7132 -3.4083
  204MOL0     H26892   4.192   8.853   3.086 -0.6962  0.2427 -0.4496
  204MOL0     H26893   4.147   8.742   2.886  0.4689 -0.2344 -3.4839
  204MOL0     H26894   4.287   8.929   2.487  0.8746  0.4846  1.1272
  204MOL0     H26895   4.259   8.763   2.473 -0.1660  1.2243 -1.7307
  204MOL0     H26896   4.414   8.782   2.721 -1.7736 -3.8846 -0.5122
  204MOL0     H26897   4.469   8.903   2.600 -0.4150 -0.6731 -2.8670
  204MOL0     H26898   4.414   8.611   2.528 -1.3149  1.2965 -1.5738
  204MOL0     H26899   4.565   8.672   2.617  2.1128  1.0632 -0.4743
  204MOL0     H26900   4.470   8.733   2.332  1.3025  0.7907 -1.1301
  204MOL0     H26901   4.594   8.825   2.424 -2.7427  1.7161 -3.3886
  204MOL0     H26902   4.706   8.679   2.283  0.1245  2.8362  1.1749
  204MOL0     H26903   4.583   8.552   2.299  2.6260 -1.8818 -1.2837
  204MOL0     H26904   4.752   8.605   2.532  2.2281 -1.6702 -0.1910
  204MOL0     H26905   4.814   8.518   2.399  1.7561 -0.2545  3.5939
  204MOL0     H26906   4.581   8.440   2.582  0.2110 -1.4170  1.1582
  204MOL0     H26907   4.617   8.357   2.427 -1.0787 -0.3242  0.2419
  204MOL0     H26908   4.689   8.255   2.626 -1.0500  1.7095  0.4451
  204MOL0     H26909   4.794   8.399   2.670  1.1889 -5.0935  4.3981
  204MOL0     H26910   4.271   9.079   2.662  1.2246 -0.4931 -0.0173
  204MOL0     H26911   4.352   9.199   2.888 -1.1193  0.9061 -1.3503
  204MOL0     H26912   4.436   9.059   3.351  0.6326 -0.1192  0.4852
  204MOL0     H26913   4.515   9.125   3.559 -2.9436 -0.7260  0.0255
  204MOL0     H26914   4.420   9.400   2.717  0.7281 -0.6323  1.8150
  204MOL0     H26915   4.425   9.391   2.470 -0.5577 -0.6099  0.2010
  204MOL0     H26916   4.592   9.395   2.081 -1.3909 -0.1238  1.3578
  204MOL0     H26917   4.541   9.400   1.848 -2.1293 -0.4563 -2.0252
  204MOL0     H26918   4.559   9.379   1.625 -0.0256 -0.7227  1.5211
  204MOL0     H26919   4.389   9.390   1.683 -1.5621 -0.2332 -1.4880
  204MOL0     H26920   4.311   9.255   1.494  1.2257 -2.2785  2.6519
  204MOL0     H26921   4.365   9.418   1.463  1.6207 -1.1557 -2.2885
  204MOL0     H26922   4.448   9.276   1.301 -1.9353  0.5063  1.1699
  204MOL0     H26923   4.538   9.175   1.429 -0.2666  0.4121  1.4848
  204MOL0     H26924   4.654   9.336   1.268  0.6985 -1.4174  0.6213
  204MOL0     H26925   4.614   9.459   1.391  1.5633 -0.3400  0.2155
  204MOL0     H26926   4.924   9.210   1.563  0.7169 -2.0073 -1.7846
  204MOL0     H26927   4.439   8.994   1.834 -1.2159  1.1142 -0.6418
  204MOL0     H26928   4.492   8.974   2.093  1.5224 -1.2553 -1.4412
  205MOL0     O26929   9.734   4.493  10.936  0.1887 -0.2270 -0.1558
  205MOL0     C26930   9.755   4.556  11.045 -0.2152  0.4313  0.0308
  205MOL0     O26931   9.698   4.519  11.171  0.3638 -0.5960 -0.8302
  205MOL0     C26932   9.608   4.415  11.190 -0.8662 -0.3464 -0.2120
  205MOL0     C26933   9.481   4.441  11.242  0.4709  0.0576  0.1974
  205MOL0     C26934   9.392   4.332  11.265 -0.4886  0.5284  0.0672
  205MOL0     C26935   9.438   4.202  11.248  0.7309  0.2030 -0.7724
  205MOL0     O26936   9.363   4.108  11.322  0.0878 -0.7474 -0.7509
  205MOL0     C26937   9.331   3.985  11.261 -0.7776  0.5538  0.0084
  205MOL0     C26938   9.288   3.899  11.376  0.0019  0.3346  0.6790
  205MOL0     C26939   9.401   3.848  11.470  0.0095 -0.4828 -0.1033
  205MOL0     C26940   9.352   3.763  11.586 -0.3783 -0.8150 -0.2306
  205MOL0     C26941   9.460   3.796  11.696 -0.1801  0.4248  0.6784
  205MOL0     C26942   9.439   3.726  11.834 -0.2776 -1.3234 -0.1081
  205MOL0     C26943   9.300   3.767  11.901 -0.1905 -1.2564 -0.9272
  205MOL0     C26944   9.275   3.921  11.925 -0.2443  0.3439  0.8630
  205MOL0     N26945   9.373   3.982  12.010 -0.1041  0.2020 -0.0452
  205MOL0     C26946   9.411   3.942  12.137  0.5145 -0.5647  0.9372
  205MOL0     C26947   9.494   4.032  12.184 -0.5382 -0.5514  0.6227
  205MOL0     C26948   9.537   4.043  12.330 -0.0039  0.6103 -0.5322
  205MOL0     C26949   9.419   4.085  12.417 -0.2218  0.4642  0.4926
  205MOL0     C26950   9.386   4.229  12.374  0.8076  0.8448  0.7080
  205MOL0     C26951   9.370   4.319  12.486 -0.5477  0.0630 -1.1491
  205MOL0     O26952   9.340   4.442  12.428 -0.8402 -0.0089  0.2034
  205MOL0     C26953   9.213   4.492  12.438  0.8090  0.5847 -0.4237
  205MOL0     C26954   9.162   4.533  12.561 -0.4528 -0.2599  0.6962
  205MOL0     C26955   9.041   4.603  12.558 -0.0047 -0.6531 -0.1498
  205MOL0     C26956   8.964   4.635  12.443  0.4123 -0.1796  0.1007
  205MOL0     C26957   8.857   4.733  12.454 -0.3371 -0.0706 -0.7899
  205MOL0     O26958   8.829   4.765  12.594  0.5706 -0.6850  0.4961
  205MOL0     C26959   8.746   4.872  12.596 -0.4670 -0.0699  0.3733
  205MOL0     C26960   8.628   4.852  12.664  0.0827 -0.0434 -1.1043
  205MOL0     C26961   8.544   4.958  12.706 -0.2495 -0.0529  0.1019
  205MOL0     C26962   8.584   5.095  12.681  0.7004  0.2963  0.0972
  205MOL0     O26963   8.527   5.200  12.747 -0.1078  0.0205  0.0070
  205MOL0     C26964   8.445   5.160  12.865 -0.8244 -0.8850  0.5461
  205MOL0     C26965   8.446   5.284  12.962 -0.2809 -0.0825 -0.3864
  205MOL0     C26966   8.581   5.283  13.048  0.1624  0.5733 -0.4778
  205MOL0     C26967   8.604   5.421  13.099  0.3125  0.0947 -0.0286
  205MOL0     C26968   8.693   5.417  13.223 -0.1306 -0.7669 -0.4062
  205MOL0     C26969   8.638   5.535  13.313 -0.5524 -0.1868 -0.6565
  205MOL0     C26970   8.722   5.528  13.448 -0.0225 -0.2908  0.0255
  205MOL0     C26971   8.659   5.604  13.566  0.3366 -0.0282 -0.4885
  205MOL0    Cl26972   8.698   5.792  13.564  0.3854 -0.5568 -0.6293
  205MOL0     C26973   8.704   5.114  12.605 -0.7130  0.1147 -0.3252
  205MOL0     C26974   8.784   5.007  12.560  0.2499  0.3294 -0.6245
  205MOL0     O26975   8.811   4.787  12.355  0.0038  1.0215 -0.0864
  205MOL0     C26976   9.014   4.591  12.321  0.0641  1.1171  0.1559
  205MOL0     C26977   9.139   4.518  12.317  0.1030  0.4479 -0.7368
  205MOL0     N26978   9.513   4.129  12.084  0.2103  0.6835 -0.1709
  205MOL0     N26979   9.455   4.085  11.982 -0.7988 -0.0004  0.6637
  205MOL0     C26980   9.571   4.173  11.208  1.1647  0.0821  0.1121
  205MOL0     C26981   9.652   4.281  11.175  0.9470 -0.0953  0.8644
  205MOL0     C26982   9.844   4.668  11.039 -0.4527  0.4261 -1.1533
  205MOL0     C26983   9.972   4.669  10.980 -1.0476  0.5361 -0.3140
  205MOL0     C26984  10.057   4.778  10.999 -0.5786 -0.5554  0.9483
  205MOL0     C26985  10.013   4.880  11.073  0.7703 -0.3955  0.4496
  205MOL0     O26986  10.088   5.000  11.060  0.4351 -0.4356  0.1023
  205MOL0     C26987  10.163   5.037  11.174 -0.2217 -0.2618  0.2846
  205MOL0     C26988  10.277   4.941  11.205 -0.2614  0.5922 -0.9991
  205MOL0     C26989  10.379   4.964  11.095 -0.0170  0.2291  0.8073
  205MOL0     C26990  10.453   5.108  11.106  0.2075  0.2737  0.5916
  205MOL0     C26991  10.577   5.109  11.034 -0.2151 -0.3353  0.5167
  205MOL0     C26992  10.675   5.097  10.965  0.2785 -0.2202 -0.7050
  205MOL0     C26993   9.891   4.884  11.146  0.0652  0.3932 -0.2963
  205MOL0     C26994   9.808   4.776  11.124  0.0056  0.5384 -0.6956
  205MOL0     H26995   9.444   4.543  11.250  0.4233  0.1025 -0.5228
  205MOL0     H26996   9.303   4.339  11.327  0.9343 -1.3511  2.5357
  205MOL0     H26997   9.421   3.943  11.214 -1.0137 -0.8172  0.7578
  205MOL0     H26998   9.250   3.986  11.188  2.1047 -1.4081 -3.5987
  205MOL0     H26999   9.248   3.806  11.335  1.4404 -0.8465  1.8503
  205MOL0     H27000   9.216   3.953  11.439 -2.6196  0.5074 -2.2204
  205MOL0     H27001   9.456   3.935  11.505 -2.1012  0.8827 -0.0038
  205MOL0     H27002   9.481   3.794  11.420 -0.7971 -1.0409 -0.8333
  205MOL0     H27003   9.253   3.799  11.616  0.0786  2.1844 -1.9528
  205MOL0     H27004   9.343   3.657  11.560 -2.5351 -0.1569 -2.5468
  205MOL0     H27005   9.456   3.905  11.706 -1.9559  0.4500  0.0935
  205MOL0     H27006   9.558   3.779  11.651 -0.3942  0.6875  0.0857
  205MOL0     H27007   9.522   3.760  11.897  1.0065 -3.8079 -0.3117
  205MOL0     H27008   9.465   3.619  11.830  1.5141 -0.8929 -1.0900
  205MOL0     H27009   9.214   3.716  11.857 -0.6316 -0.3293 -1.1760
  205MOL0     H27010   9.294   3.722  12.001  3.7763  0.7652  0.4735
  205MOL0     H27011   9.177   3.953  11.961 -1.2905  0.2981 -1.7043
  205MOL0     H27012   9.287   3.970  11.828 -0.2823  3.1020  2.1501
  205MOL0     H27013   9.397   3.857  12.202  2.3324  0.7655  3.2767
  205MOL0     H27014   9.618   4.114  12.347 -1.3079  1.9723  0.2120
  205MOL0     H27015   9.556   3.943  12.370 -0.5230  0.8142  0.2533
  205MOL0     H27016   9.447   4.080  12.523 -1.3567 -0.6327  0.7763
  205MOL0     H27017   9.329   4.024  12.401 -1.5668  2.0281  1.6790
  205MOL0     H27018   9.466   4.270  12.311  0.5553  2.2964  1.2918
  205MOL0     H27019   9.297   4.226  12.309  2.6608 -1.5648 -1.9638
  205MOL0     H27020   9.470   4.327  12.531 -1.5775 -1.6232  1.7028
  205MOL0     H27021   9.298   4.281  12.559  1.4548 -0.6338  0.5678
  205MOL0     H27022   9.209   4.498  12.652  0.1643  0.0185  0.4895
  205MOL0     H27023   9.009   4.614  12.661 -0.7519  1.6637 -0.5565
  205MOL0     H27024   8.601   4.754  12.702 -0.9939  0.4803 -0.4612
  205MOL0     H27025   8.456   4.926  12.761 -0.5480 -0.7037 -0.7412
  205MOL0     H27026   8.479   5.068  12.914  1.6039 -0.2120  0.2109
  205MOL0     H27027   8.342   5.136  12.835  0.5429 -4.9439 -1.7039
  205MOL0     H27028   8.362   5.284  13.032 -1.5497 -1.3514 -1.8302
  205MOL0     H27029   8.448   5.368  12.891 -1.1432 -0.3612 -0.7551
  205MOL0     H27030   8.662   5.260  12.977  2.6259  2.8936  1.4087
  205MOL0     H27031   8.561   5.203  13.120  3.0025  1.2680  1.2184
  205MOL0     H27032   8.655   5.479  13.021  0.4108  0.1141  0.0501
  205MOL0     H27033   8.512   5.476  13.121 -0.1959 -0.6917 -0.1527
  205MOL0     H27034   8.793   5.428  13.180 -0.2040 -1.7017 -0.8263
  205MOL0     H27035   8.706   5.325  13.281  3.6679  0.7455  1.5264
  205MOL0     H27036   8.531   5.521  13.329 -1.5400  1.7062 -4.4834
  205MOL0     H27037   8.641   5.630  13.259 -5.3672  1.0648  0.7398
  205MOL0     H27038   8.756   5.431  13.485  1.5915 -0.1642 -0.9985
  205MOL0     H27039   8.818   5.558  13.405 -0.4302 -4.3803 -4.4591
  205MOL0     H27040   8.700   5.560  13.658  0.5310  0.6209 -0.2596
  205MOL0     H27041   8.551   5.589  13.573  0.1104  1.8527  0.4631
  205MOL0     H27042   8.744   5.212  12.585 -0.0721  0.3446  1.8026
  205MOL0     H27043   8.877   5.013  12.503  2.5114 -1.1227  2.5651
  205MOL0     H27044   8.966   4.612  12.226 -0.4913 -1.9859 -0.3617
  205MOL0     H27045   9.191   4.505  12.223 -0.4638 -1.0474 -0.8752
  205MOL0     H27046   9.599   4.069  11.215  0.5208 -0.4448 -3.5221
  205MOL0     H27047   9.753   4.264  11.139  0.4529  1.9598 -1.8345
  205MOL0     H27048   9.991   4.591  10.906 -1.7924  1.0045 -1.0086
  205MOL0     H27049  10.160   4.775  10.965 -0.2888 -3.9600  1.7216
  205MOL0     H27050  10.096   5.044  11.261 -0.3071  0.8342  0.1520
  205MOL0     H27051  10.195   5.138  11.147 -1.1877  0.6563  2.3225
  205MOL0     H27052  10.306   4.963  11.308  1.1348 -0.2075 -1.1904
  205MOL0     H27053  10.237   4.839  11.201 -1.0905  0.9530 -2.9571
  205MOL0     H27054  10.322   4.973  11.002 -0.3790  0.3535  1.0400
  205MOL0     H27055  10.448   4.880  11.083  0.6793  0.8909  0.0261
  205MOL0     H27056  10.379   5.174  11.060 -1.5103 -1.9645 -0.0753
  205MOL0     H27057  10.479   5.130  11.210 -0.5472 -0.3088  0.9120
  205MOL0     H27058  10.764   5.102  10.905  1.7665 -0.1776  1.4280
  205MOL0     H27059   9.861   4.951  11.225 -1.2228 -2.7741  2.1079
  205MOL0     H27060   9.718   4.775  11.184 -0.7544 -2.0530 -1.7260
  206MOL0     O27061   3.587  11.234   9.014 -0.7017 -0.1875 -0.3439
  206MOL0     C27062   3.474  11.266   8.974 -0.2620 -0.3590  0.1199
  206MOL0     O27063   3.430  11.396   8.964 -0.5754  0.3157  0.3114
  206MOL0     C27064   3.529  11.500   8.983 -0.8088 -0.5704 -0.1308
  206MOL0     C27065   3.494  11.611   9.057  0.8758  0.2384 -0.2650
  206MOL0     C27066   3.574  11.722   9.068 -0.0300 -0.2409 -0.0404
  206MOL0     C27067   3.701  11.736   9.012 -0.2918 -0.2038 -0.0510
  206MOL0     O27068   3.791  11.838   9.023 -0.8050  0.0440 -0.4630
  206MOL0     C27069   3.755  11.958   9.089 -0.8185  0.7564  0.0099
  206MOL0     C27070   3.863  12.061   9.054  0.0674  0.9987 -0.1358
  206MOL0     C27071   3.836  12.140   8.919 -0.9075 -0.2490  0.9099
  206MOL0     C27072   3.964  12.231   8.909 -0.9086 -0.4476  0.6212
  206MOL0     C27073   3.991  12.268   8.765 -0.8675 -0.6269  0.3162
  206MOL0     C27074   4.086  12.394   8.770  0.0927  0.0292  0.0725
  206MOL0     C27075   4.088  12.440   8.620 -0.8923 -0.2560 -0.4342
  206MOL0     C27076   4.201  12.543   8.592 -1.0236 -0.3822 -0.1166
  206MOL0     N27077   4.194  12.591   8.449  0.1401  0.1307 -0.1988
  206MOL0     C27078   4.309  12.597   8.372 -0.8429  0.7783  0.7780
  206MOL0     C27079   4.271  12.656   8.258  0.2971  0.6041  0.1851
  206MOL0     C27080   4.356  12.662   8.141 -1.5006 -0.6486  1.2306
  206MOL0     C27081   4.435  12.544   8.111 -0.3457 -0.5070 -0.3317
  206MOL0     C27082   4.549  12.569   8.005 -0.3885  0.2064  0.2301
  206MOL0     C27083   4.685  12.632   8.058 -0.7196 -0.4051 -0.4451
  206MOL0     O27084   4.672  12.718   8.161 -0.1039 -0.9283 -0.3893
  206MOL0     C27085   4.752  12.690   8.271 -0.0679 -0.2695  0.0375
  206MOL0     C27086   4.694  12.725   8.392 -0.4564 -0.0051 -0.7085
  206MOL0     C27087   4.755  12.692   8.507  0.6081  0.5973  0.1766
  206MOL0     C27088   4.883  12.642   8.516  0.0806 -0.3266 -0.1510
  206MOL0     C27089   4.951  12.617   8.643 -0.0906 -0.0798  0.5169
  206MOL0     O27090   5.062  12.548   8.650 -0.2091  0.3276 -0.3433
  206MOL0     C27091   5.133  12.538   8.762 -0.4134 -0.3079 -0.4670
  206MOL0     C27092   5.180  12.414   8.791  0.0596 -0.1807 -0.0836
  206MOL0     C27093   5.235  12.384   8.915 -0.3142  0.1866  0.1660
  206MOL0     C27094   5.274  12.488   9.009  0.2446 -0.1469 -0.5062
  206MOL0     O27095   5.338  12.487   9.131 -0.1273 -0.5286 -0.0183
  206MOL0     C27096   5.372  12.362   9.203  0.2547  0.8066  0.0738
  206MOL0     C27097   5.451  12.406   9.331 -0.7571  0.2965  0.1207
  206MOL0     C27098   5.517  12.292   9.404  0.9265 -0.1794 -0.2995
  206MOL0     C27099   5.415  12.226   9.506 -0.6544 -1.7759  0.3804
  206MOL0     C27100   5.475  12.097   9.565 -0.9473  0.5162  0.3604
  206MOL0     C27101   5.576  12.116   9.685  0.3047 -0.0883  0.5878
  206MOL0     C27102   5.627  11.990   9.755 -0.4084 -0.4900 -0.0167
  206MOL0     C27103   5.676  11.878   9.662  0.2344 -0.8967  0.4810
  206MOL0    Cl27104   5.749  11.746   9.751  0.0438 -0.4736 -0.3187
  206MOL0     C27105   5.222  12.621   8.970  0.4640  0.3819  0.4377
  206MOL0     C27106   5.141  12.648   8.856 -0.6619 -0.7137  0.5049
  206MOL0     O27107   4.893  12.658   8.744 -0.0163  0.1351  0.0424
  206MOL0     C27108   4.946  12.629   8.396  0.1586 -0.0212  0.5267
  206MOL0     C27109   4.889  12.650   8.274  0.4694  0.0397 -0.1435
  206MOL0     N27110   4.131  12.675   8.270 -0.7801 -0.0163 -0.2309
  206MOL0     N27111   4.084  12.633   8.386  0.1300  0.9513  0.4516
  206MOL0     C27112   3.738  11.614   8.943 -0.1699 -0.0885  0.1235
  206MOL0     C27113   3.653  11.507   8.925  0.7356 -0.8556  0.4185
  206MOL0     C27114   3.367  11.162   8.956  0.1629 -0.2141  0.2231
  206MOL0     C27115   3.399  11.024   8.961  0.3814 -0.3013  0.4616
  206MOL0     C27116   3.301  10.932   8.950  0.3422  0.3908 -0.3645
  206MOL0     C27117   3.169  10.961   8.941 -1.0537  0.4348  0.6464
  206MOL0     O27118   3.088  10.861   8.911 -0.1418 -0.3460 -0.7809
  206MOL0     C27119   2.955  10.870   8.968  0.1244 -1.2406 -0.8158
  206MOL0     C27120   2.888  10.735   9.016 -0.6185 -0.0951  0.5923
  206MOL0     C27121   2.866  10.636   8.901 -0.1904 -0.0910 -0.4163
  206MOL0     C27122   2.806  10.501   8.945 -0.2326 -1.4621 -0.7106
  206MOL0     C27123   2.669  10.536   8.986 -1.3959  0.6339  1.6474
  206MOL0     C27124   2.555  10.587   8.999 -0.9908  0.3316 -0.0372
  206MOL0     C27125   3.137  11.095   8.944  0.3232 -0.1060 -1.2206
  206MOL0     C27126   3.233  11.198   8.952  0.9105 -0.2661 -0.2366
  206MOL0     H27127   3.391  11.612   9.089 -0.3937  2.9807 -3.8836
  206MOL0     H27128   3.532  11.807   9.121 -0.9608 -0.8293  0.1938
  206MOL0     H27129   3.756  11.947   9.198  0.8448 -0.9247 -0.1288
  206MOL0     H27130   3.653  11.991   9.066 -1.3999  1.4406  3.1005
  206MOL0     H27131   3.963  12.016   9.049  0.5844  2.0816  0.1570
  206MOL0     H27132   3.867  12.142   9.127  1.3900 -0.8733  1.9776
  206MOL0     H27133   3.746  12.202   8.916 -0.1300  0.9000 -2.5827
  206MOL0     H27134   3.824  12.069   8.837 -3.1170  1.1183 -0.0391
  206MOL0     H27135   3.961  12.325   8.965  2.4897  0.2919 -0.2136
  206MOL0     H27136   4.058  12.189   8.945  1.4003  2.6373 -1.2666
  206MOL0     H27137   3.904  12.307   8.713 -0.1115  1.6177  0.6363
  206MOL0     H27138   4.038  12.185   8.711 -0.3997  0.1902 -0.5583
  206MOL0     H27139   4.185  12.371   8.810 -1.1243 -0.1880  3.2391
  206MOL0     H27140   4.038  12.462   8.841 -1.1689 -0.4704 -0.2843
  206MOL0     H27141   4.101  12.344   8.569 -0.0112 -2.7041  3.8948
  206MOL0     H27142   3.994  12.485   8.589 -0.7116 -0.8666 -1.9197
  206MOL0     H27143   4.298  12.496   8.614 -2.1569 -2.2454  1.2314
  206MOL0     H27144   4.202  12.624   8.664 -0.3112 -1.3860  1.0405
  206MOL0     H27145   4.414  12.578   8.392 -0.5173  2.9476  1.3930
  206MOL0     H27146   4.429  12.743   8.154 -0.1213 -1.2852 -1.7910
  206MOL0     H27147   4.298  12.683   8.051  1.6770  1.9352 -0.4686
  206MOL0     H27148   4.373  12.459   8.079 -1.4971 -0.6906  2.1845
  206MOL0     H27149   4.482  12.508   8.203 -2.1330 -2.2932 -0.0349
  206MOL0     H27150   4.561  12.473   7.953  1.2534 -1.2199  3.0215
  206MOL0     H27151   4.508  12.644   7.936  0.6832  2.2940  1.7617
  206MOL0     H27152   4.723  12.680   7.967 -0.2527  0.3990  0.1562
  206MOL0     H27153   4.753  12.552   8.089 -2.4239 -1.4404  0.7446
  206MOL0     H27154   4.592  12.760   8.380 -0.0096  1.3093 -0.8346
  206MOL0     H27155   4.701  12.722   8.597  1.7443  3.0050  0.1359
  206MOL0     H27156   5.175  12.328   8.724  2.1796 -1.6649  1.4982
  206MOL0     H27157   5.264  12.280   8.923 -0.4183  0.2889  2.4600
  206MOL0     H27158   5.430  12.297   9.137 -1.0340  1.8390 -2.1988
  206MOL0     H27159   5.280  12.306   9.221  0.3499 -0.0972 -2.0120
  206MOL0     H27160   5.378  12.467   9.386  0.0105  2.1680 -0.8482
  206MOL0     H27161   5.543  12.461   9.310 -0.0555 -1.0477 -0.4526
  206MOL0     H27162   5.598  12.328   9.467  0.1952 -1.9802  1.7775
  206MOL0     H27163   5.541  12.214   9.331 -1.0594 -0.8817 -0.2698
  206MOL0     H27164   5.386  12.290   9.589 -4.1902  1.5103 -2.9698
  206MOL0     H27165   5.332  12.187   9.445 -2.6319  1.4763  0.7357
  206MOL0     H27166   5.517  12.051   9.475 -1.2756 -0.2792  0.6005
  206MOL0     H27167   5.396  12.028   9.596 -2.3643 -0.3099 -4.2805
  206MOL0     H27168   5.526  12.182   9.756 -3.4171 -0.7553 -1.1431
  206MOL0     H27169   5.658  12.166   9.634 -0.4526 -1.1344 -1.7885
  206MOL0     H27170   5.702  12.037   9.818 -2.2931 -0.4678  2.3647
  206MOL0     H27171   5.547  11.947   9.816 -1.6063  1.7547  0.1140
  206MOL0     H27172   5.749  11.907   9.587  1.4446 -1.2940  1.4707
  206MOL0     H27173   5.585  11.838   9.615  0.4425 -1.6439  0.7034
  206MOL0     H27174   5.242  12.712   9.026  0.5571  0.5364  0.1521
  206MOL0     H27175   5.088  12.742   8.842  1.8853  0.8218  0.5718
  206MOL0     H27176   5.045  12.585   8.404  0.3547  0.4656  0.8211
  206MOL0     H27177   4.943  12.636   8.181 -0.2367  0.0061 -0.5476
  206MOL0     H27178   3.835  11.612   8.894  0.6416 -0.4582  1.6786
  206MOL0     H27179   3.684  11.418   8.870 -0.2781 -1.4297  0.7435
  206MOL0     H27180   3.505  11.001   8.966  1.2460  2.3392 -2.4545
  206MOL0     H27181   3.327  10.828   8.971 -1.4793  0.0180  0.2825
  206MOL0     H27182   2.887  10.929   8.906 -1.7473  0.3557  2.4569
  206MOL0     H27183   2.965  10.931   9.059 -1.4624 -0.6789 -0.9907
  206MOL0     H27184   2.941  10.686   9.098  0.1754 -2.4560 -1.2147
  206MOL0     H27185   2.795  10.777   9.054 -0.7244  0.6350 -0.4425
  206MOL0     H27186   2.966  10.611   8.864  1.6599  0.6855  3.5189
  206MOL0     H27187   2.813  10.679   8.816  0.5737  1.3445 -0.2033
  206MOL0     H27188   2.803  10.428   8.863 -0.2189  0.1109 -2.1657
  206MOL0     H27189   2.862  10.462   9.031  1.1984  4.3373  1.4376
  206MOL0     H27190   2.454  10.620   9.011 -0.8700  0.9775 -0.7091
  206MOL0     H27191   3.034  11.128   8.934  0.7516  1.6389 -0.2761
  206MOL0     H27192   3.198  11.298   8.973  3.3469  0.5249  0.4149
  207MOL0     O27193   4.220   8.718   9.121 -0.9524 -0.8463  0.6036
  207MOL0     C27194   4.196   8.615   9.187 -0.4488 -0.0943 -0.1719
  207MOL0     O27195   4.138   8.611   9.311  0.1088 -0.0752 -0.9970
  207MOL0     C27196   4.121   8.726   9.384 -0.7390 -0.5559  1.1746
  207MOL0     C27197   4.233   8.808   9.415 -0.7950 -0.6547 -0.0862
  207MOL0     C27198   4.216   8.928   9.490  0.0582  0.4086  0.5445
  207MOL0     C27199   4.088   8.970   9.528 -0.9977 -0.0069 -0.7987
  207MOL0     O27200   4.073   9.060   9.630 -0.3783 -0.4066 -0.1627
  207MOL0     C27201   3.944   9.112   9.680 -0.1614  1.4562 -0.1296
  207MOL0     C27202   3.964   9.240   9.767 -0.8581  0.1540  0.7265
  207MOL0     C27203   3.869   9.234   9.884 -1.0282  0.6660 -0.6766
  207MOL0     C27204   3.898   9.340   9.991 -0.1284 -0.5594  0.5071
  207MOL0     C27205   3.779   9.387  10.076  0.6094  0.4491 -0.5285
  207MOL0     C27206   3.704   9.264  10.138  0.0958 -0.1950  0.4610
  207MOL0     C27207   3.783   9.187  10.245 -0.0182  0.0077 -0.6295
  207MOL0     C27208   3.702   9.074  10.299 -0.3168 -0.1913 -0.4003
  207MOL0     N27209   3.766   9.013  10.415 -0.4153 -0.4254 -0.8054
  207MOL0     C27210   3.711   8.975  10.535  0.0959 -0.4435  0.1996
  207MOL0     C27211   3.815   8.944  10.617 -0.4268  0.2836  0.7333
  207MOL0     C27212   3.808   8.941  10.770 -0.5640  0.8935 -0.4051
  207MOL0     C27213   3.746   8.819  10.838  0.1465  0.2472 -0.5843
  207MOL0     C27214   3.584   8.796  10.831 -0.1352  0.6245 -0.0862
  207MOL0     C27215   3.529   8.783  10.978  0.4852 -0.0677 -0.5630
  207MOL0     O27216   3.562   8.900  11.047  0.5997  1.0741  0.3040
  207MOL0     C27217   3.486   9.015  11.019 -0.2114  0.0857 -0.4505
  207MOL0     C27218   3.365   9.015  10.960  1.2555 -0.1890  0.7761
  207MOL0     C27219   3.275   9.134  10.955 -0.3074  0.3089 -0.3404
  207MOL0     C27220   3.316   9.243  11.026  1.4218 -0.6724 -0.5896
  207MOL0     C27221   3.224   9.367  11.031  0.1222 -0.0191 -0.3155
  207MOL0     O27222   3.282   9.473  11.106  0.3587  0.6127 -0.1490
  207MOL0     C27223   3.207   9.574  11.154  0.7197 -0.3935  0.6290
  207MOL0     C27224   3.092   9.573  11.221  0.9804 -0.0401 -0.3120
  207MOL0     C27225   3.036   9.691  11.277 -0.0591  0.0733  0.4991
  207MOL0     C27226   3.091   9.812  11.259 -0.3870 -0.9362  0.4380
  207MOL0     O27227   3.051   9.933  11.307 -0.2471 -0.6187  0.3571
  207MOL0     C27228   2.908   9.941  11.309  0.1221  0.7420  0.2588
  207MOL0     C27229   2.858  10.072  11.359 -0.9141  0.0633  0.1939
  207MOL0     C27230   2.890  10.091  11.509  0.2473  0.3703 -0.0409
  207MOL0     C27231   2.907  10.232  11.545 -0.6557  0.1687  0.0090
  207MOL0     C27232   2.908  10.239  11.700  0.5965  0.1285 -0.6476
  207MOL0     C27233   2.996  10.361  11.741  0.7563  0.4301 -0.1528
  207MOL0     C27234   2.922  10.491  11.709  0.1629 -0.2172  0.6801
  207MOL0     C27235   2.803  10.533  11.780 -0.3667  0.8496 -0.4295
  207MOL0    Cl27236   2.851  10.571  11.949  0.0704 -0.3471 -0.0124
  207MOL0     C27237   3.216   9.818  11.189  0.0832  0.2380  0.5161
  207MOL0     C27238   3.269   9.702  11.133  1.3486 -0.0977 -0.3475
  207MOL0     O27239   3.112   9.368  10.982 -1.1338 -0.3153  0.4704
  207MOL0     C27240   3.440   9.237  11.084  0.2895 -1.2356  0.0147
  207MOL0     C27241   3.523   9.127  11.084 -0.6135 -0.5183  0.3067
  207MOL0     N27242   3.933   8.965  10.543 -0.1575 -0.3835 -0.4521
  207MOL0     N27243   3.903   8.990  10.424 -0.9100 -0.7602 -0.1376
  207MOL0     C27244   3.985   8.887   9.495  0.6672 -0.8372 -1.2887
  207MOL0     C27245   3.999   8.764   9.427 -0.3759  0.0173 -0.1969
  207MOL0     C27246   4.219   8.486   9.127 -0.1464 -0.3532  0.4445
  207MOL0     C27247   4.223   8.374   9.207 -0.1096 -0.4504 -0.8153
  207MOL0     C27248   4.238   8.255   9.150  0.7747 -0.1403  0.4334
  207MOL0     C27249   4.212   8.229   9.018  0.3131 -0.4732  0.3672
  207MOL0     O27250   4.195   8.097   8.979  0.4182 -0.2885  0.2239
  207MOL0     C27251   4.176   8.073   8.840  0.2860 -0.2040 -0.6196
  207MOL0     C27252   4.150   7.924   8.814  0.3769  0.0169 -0.5280
  207MOL0     C27253   4.189   7.880   8.672 -0.3778 -0.3567 -0.5537
  207MOL0     C27254   4.222   7.730   8.650 -0.9129  0.1511 -1.5165
  207MOL0     C27255   4.168   7.693   8.520 -0.5006 -0.1313 -0.7542
  207MOL0     C27256   4.128   7.674   8.410  0.1110  0.1166  0.1293
  207MOL0     C27257   4.216   8.342   8.929  0.3151 -0.3940 -0.4119
  207MOL0     C27258   4.227   8.472   8.987 -0.0926  0.4413 -0.8464
  207MOL0     H27259   4.339   8.791   9.396 -0.4870  1.5346 -0.6165
  207MOL0     H27260   4.306   8.975   9.527 -0.6556  1.0739  1.4848
  207MOL0     H27261   3.903   9.032   9.741  2.2484 -0.9756 -1.4951
  207MOL0     H27262   3.873   9.138   9.601 -1.7945 -0.9501  0.4419
  207MOL0     H27263   3.946   9.326   9.702  0.9575 -0.2270 -0.3443
  207MOL0     H27264   4.060   9.261   9.814 -1.0114  2.9055 -0.0115
  207MOL0     H27265   3.867   9.133   9.927  1.5718  1.0497  0.4984
  207MOL0     H27266   3.769   9.249   9.842 -0.7797 -0.4285 -1.7286
  207MOL0     H27267   3.975   9.311  10.064 -0.7313 -1.6655  0.7170
  207MOL0     H27268   3.937   9.428   9.939 -0.5805  0.1229  1.2972
  207MOL0     H27269   3.709   9.443  10.013  0.7567  0.8238 -0.3591
  207MOL0     H27270   3.806   9.445  10.165 -1.2595 -1.5817  1.5082
  207MOL0     H27271   3.672   9.185  10.070  1.6020 -0.7379  0.3577
  207MOL0     H27272   3.614   9.297  10.190 -1.2276 -1.9016 -0.6369
  207MOL0     H27273   3.871   9.149  10.192  0.4165 -1.8474  1.2920
  207MOL0     H27274   3.826   9.251  10.322  0.5428  3.0241 -3.2172
  207MOL0     H27275   3.678   9.008  10.215  0.6649 -1.0289 -0.0496
  207MOL0     H27276   3.607   9.116  10.333 -0.1378  0.3953 -0.6142
  207MOL0     H27277   3.608   8.972  10.569  0.6281 -2.4177  1.8565
  207MOL0     H27278   3.742   9.023  10.801 -0.9357 -0.2069  1.9395
  207MOL0     H27279   3.906   8.959  10.813 -1.0738 -0.5135  1.4464
  207MOL0     H27280   3.783   8.832  10.940  1.7557 -1.7345 -0.8592
  207MOL0     H27281   3.790   8.723  10.812  0.3098 -0.1070  0.9130
  207MOL0     H27282   3.534   8.878  10.780 -3.3255 -0.9680  0.1943
  207MOL0     H27283   3.580   8.699  10.780 -1.2942  1.0022 -0.7467
  207MOL0     H27284   3.587   8.712  11.038 -0.1552  0.1928  0.3798
  207MOL0     H27285   3.423   8.758  10.975  0.5734 -0.5301 -3.4970
  207MOL0     H27286   3.321   8.933  10.904 -0.4236  1.9284 -1.2128
  207MOL0     H27287   3.180   9.132  10.901 -0.7252 -2.0329  0.3364
  207MOL0     H27288   3.063   9.470  11.241  2.6517 -1.1566 -3.1115
  207MOL0     H27289   2.951   9.674  11.341 -0.2212  0.4806  0.3920
  207MOL0     H27290   2.874   9.864  11.378  2.7896 -0.9801 -0.2274
  207MOL0     H27291   2.869   9.914  11.210  1.1371 -2.5102  0.6452
  207MOL0     H27292   2.749  10.071  11.358 -0.9731 -1.7849  1.9852
  207MOL0     H27293   2.893  10.157  11.300 -1.2379  1.2479  1.6701
  207MOL0     H27294   2.991  10.052  11.529  0.5564  0.7185 -0.8801
  207MOL0     H27295   2.817  10.030  11.563 -0.5493  2.6943  1.6571
  207MOL0     H27296   2.996  10.268  11.494  1.3512 -1.9088  1.8345
  207MOL0     H27297   2.826  10.293  11.504 -0.3640 -0.7112 -1.9696
  207MOL0     H27298   2.961  10.151  11.739  0.0590  0.5336  1.1045
  207MOL0     H27299   2.809  10.231  11.745  1.7672  2.6764  2.8254
  207MOL0     H27300   3.091  10.378  11.688 -0.9306  1.1456 -3.1914
  207MOL0     H27301   3.012  10.355  11.849  3.1615  0.6764 -0.4364
  207MOL0     H27302   2.991  10.572  11.731  3.0464 -2.1721 -0.5984
  207MOL0     H27303   2.907  10.496  11.601  2.0055  0.4276  0.4263
  207MOL0     H27304   2.736  10.447  11.773  0.4711  0.2606 -1.8135
  207MOL0     H27305   2.772  10.621  11.723 -1.2145 -0.5685 -2.2915
  207MOL0     H27306   3.271   9.911  11.187  0.6446 -0.0629 -2.3157
  207MOL0     H27307   3.362   9.721  11.080  0.2772 -1.0315 -2.6698
  207MOL0     H27308   3.484   9.317  11.142  1.8046  0.5678 -3.3461
  207MOL0     H27309   3.616   9.123  11.141 -0.2429 -2.3603 -0.3589
  207MOL0     H27310   3.892   8.921   9.539  1.9973  1.6981 -0.2077
  207MOL0     H27311   3.907   8.709   9.409 -0.2214 -0.9307  1.7242
  207MOL0     H27312   4.222   8.373   9.315 -0.5241 -1.9284 -0.8163
  207MOL0     H27313   4.250   8.166   9.212  1.1128  1.3160  2.5898
  207MOL0     H27314   4.270   8.094   8.789  0.6334 -2.2563 -0.8957
  207MOL0     H27315   4.093   8.134   8.802  0.4013 -0.0428 -0.6152
  207MOL0     H27316   4.197   7.865   8.893 -2.1681  0.1974  1.2403
  207MOL0     H27317   4.049   7.894   8.841 -0.0807  1.6742 -0.2850
  207MOL0     H27318   4.278   7.938   8.642  0.5509 -0.1816  2.2881
  207MOL0     H27319   4.103   7.905   8.609  0.3694  0.5553 -1.2501
  207MOL0     H27320   4.331   7.721   8.640 -0.7474  0.1600  0.0310
  207MOL0     H27321   4.195   7.671   8.738 -0.3966 -3.4127 -3.5602
  207MOL0     H27322   4.092   7.657   8.310  0.2724  2.5887 -0.4276
  207MOL0     H27323   4.225   8.329   8.822  0.5692  1.0619 -0.5987
  207MOL0     H27324   4.227   8.560   8.923  2.0072  0.0249 -1.5222
  208MOL0     O27325   8.295   4.429   1.644  1.3359  0.1252 -0.7015
  208MOL0     C27326   8.248   4.516   1.728 -0.0170 -0.4401 -0.1531
  208MOL0     O27327   8.224   4.647   1.701 -0.4923 -0.9903 -0.3035
  208MOL0     C27328   8.214   4.687   1.568  0.2875 -1.0945 -0.2230
  208MOL0     C27329   8.315   4.670   1.475 -1.0964 -0.4519 -0.0041
  208MOL0     C27330   8.311   4.734   1.357  0.2851  0.0950 -0.1119
  208MOL0     C27331   8.198   4.805   1.317 -0.2454  0.4180  0.8797
  208MOL0     O27332   8.183   4.826   1.179  0.4376 -0.7348  0.3244
  208MOL0     C27333   8.062   4.894   1.138 -1.3614 -0.0352  0.3157
  208MOL0     C27334   8.071   4.919   0.986 -1.1003  1.1132 -0.4071
  208MOL0     C27335   7.976   5.027   0.940  0.5979  1.3995  0.0324
  208MOL0     C27336   7.831   4.973   0.920  0.9048  0.0961  0.2343
  208MOL0     C27337   7.825   4.883   0.801  0.0726 -0.2822 -0.2735
  208MOL0     C27338   7.690   4.880   0.727 -1.4589  1.0301  0.3941
  208MOL0     C27339   7.705   4.782   0.607 -0.1096  1.0532 -0.2734
  208MOL0     C27340   7.765   4.847   0.477 -0.2194  1.0449  0.0189
  208MOL0     N27341   7.775   4.755   0.372  0.7377  0.0548  0.5999
  208MOL0     C27342   7.671   4.713   0.291 -0.2304  0.7212 -0.9121
  208MOL0     C27343   7.728   4.649   0.192  0.3332  0.0856  0.0807
  208MOL0     C27344   7.672   4.566   0.077 -0.7009 -0.2760  0.0746
  208MOL0     C27345   7.679   4.414   0.111 -0.8422  0.0563 -0.4816
  208MOL0     C27346   7.822   4.359   0.111 -0.0286 -1.7135 -0.3858
  208MOL0     C27347   7.820   4.205   0.108  0.0557 -0.0521 -0.6151
  208MOL0     O27348   7.946   4.154   0.107 -0.1163 -0.0042 -0.5143
  208MOL0     C27349   7.991   4.079   0.221  0.3952 -0.9120  0.1597
  208MOL0     C27350   7.954   4.110   0.357  0.7478 -0.8757 -0.5540
  208MOL0     C27351   7.997   4.048   0.468 -0.3617  0.2559 -0.6379
  208MOL0     C27352   8.088   3.941   0.464 -0.3444 -0.5514 -0.3170
  208MOL0     C27353   8.141   3.886   0.592  0.0637 -0.2231  0.0542
  208MOL0     O27354   8.261   3.822   0.573  0.7646 -0.5393 -0.5474
  208MOL0     C27355   8.347   3.768   0.664  1.0534 -0.2655  0.0739
  208MOL0     C27356   8.314   3.751   0.801 -0.0843  0.6320  0.4577
  208MOL0     C27357   8.411   3.696   0.888  0.0724  0.2073  0.0119
  208MOL0     C27358   8.535   3.654   0.847 -0.0907 -0.2856  0.1358
  208MOL0     O27359   8.629   3.602   0.924 -0.1240 -0.0807 -0.9309
  208MOL0     C27360   8.637   3.635   1.067 -1.0461  0.3761 -0.5319
  208MOL0     C27361   8.633   3.790   1.098 -0.5631 -0.4628 -0.4480
  208MOL0     C27362   8.587   3.815   1.245  0.5162  0.4747 -0.3247
  208MOL0     C27363   8.557   3.958   1.274  0.2736  0.8730 -1.0971
  208MOL0     C27364   8.492   3.979   1.411  0.5718 -1.1444  0.4424
  208MOL0     C27365   8.587   3.957   1.528 -0.1382  0.6108 -0.3237
  208MOL0     C27366   8.509   3.952   1.665 -1.1429  0.2619  0.0166
  208MOL0     C27367   8.601   3.938   1.781 -0.0102 -0.0669 -0.8488
  208MOL0    Cl27368   8.710   4.089   1.810  0.0584 -0.1062  0.1585
  208MOL0     C27369   8.558   3.671   0.713 -0.4406 -0.4826 -0.0694
  208MOL0     C27370   8.472   3.723   0.621  0.3749  0.5755 -0.0387
  208MOL0     O27371   8.076   3.902   0.699  0.7913  0.6629 -0.0200
  208MOL0     C27372   8.128   3.901   0.328  1.0732 -0.5090 -0.4407
  208MOL0     C27373   8.077   3.965   0.214  0.9169 -0.3508  1.0979
  208MOL0     N27374   7.864   4.658   0.208  0.0220  0.0646  0.6069
  208MOL0     N27375   7.892   4.722   0.317  0.0025  0.4543  0.5880
  208MOL0     C27376   8.096   4.842   1.405  0.3176  0.1501 -0.4324
  208MOL0     C27377   8.107   4.788   1.531 -0.4073 -0.8989  0.8041
  208MOL0     C27378   8.237   4.488   1.871 -0.6054 -0.7370 -0.1224
  208MOL0     C27379   8.147   4.560   1.946 -0.2297 -0.0922 -0.3389
  208MOL0     C27380   8.152   4.543   2.078  0.8537  0.3214 -1.3916
  208MOL0     C27381   8.241   4.457   2.134 -0.4185 -0.1564 -1.1616
  208MOL0     O27382   8.227   4.454   2.273 -0.2877 -0.2403 -0.4083
  208MOL0     C27383   8.323   4.397   2.371 -0.2733 -0.0205 -0.6623
  208MOL0     C27384   8.247   4.280   2.434  0.2509 -0.4206 -0.4022
  208MOL0     C27385   8.320   4.213   2.550 -0.2346 -0.2378 -0.0698
  208MOL0     C27386   8.258   4.219   2.690  0.1931  0.2764  0.4501
  208MOL0     C27387   8.317   4.106   2.761  0.5144  0.1424  0.7880
  208MOL0     C27388   8.364   4.031   2.843  0.0523  0.7117  0.2567
  208MOL0     C27389   8.332   4.387   2.061 -0.5162  0.5810 -0.6869
  208MOL0     C27390   8.327   4.392   1.921 -0.0334 -0.5193 -0.3581
  208MOL0     H27391   8.406   4.616   1.499 -0.8072 -1.4455 -2.9634
  208MOL0     H27392   8.393   4.723   1.287  1.4462  1.6505  0.9291
  208MOL0     H27393   8.040   4.991   1.185 -2.3562  0.6350 -1.4101
  208MOL0     H27394   7.972   4.834   1.153 -0.2532 -1.2436  2.6741
  208MOL0     H27395   8.061   4.831   0.922 -2.5623  1.3163 -0.4852
  208MOL0     H27396   8.170   4.959   0.964 -0.8963  0.0403 -1.5588
  208MOL0     H27397   8.007   5.066   0.843 -1.7950  0.8327 -1.0359
  208MOL0     H27398   7.969   5.104   1.017 -0.7408 -1.4125  3.0002
  208MOL0     H27399   7.808   4.911   1.007 -0.3867  0.4460  0.1619
  208MOL0     H27400   7.764   5.057   0.899  2.5257  1.0605 -1.3371
  208MOL0     H27401   7.860   4.781   0.815 -3.0243 -1.4919 -0.5958
  208MOL0     H27402   7.890   4.929   0.726  0.4143 -0.7336 -0.2585
  208MOL0     H27403   7.644   4.977   0.706 -2.4990  1.0660  2.6028
  208MOL0     H27404   7.629   4.827   0.801  1.4178 -0.5359  1.7914
  208MOL0     H27405   7.769   4.697   0.632 -3.0221 -1.4555 -0.7286
  208MOL0     H27406   7.606   4.741   0.585 -0.1612  0.6983  0.5971
  208MOL0     H27407   7.863   4.880   0.513  0.2889  1.1042 -1.3522
  208MOL0     H27408   7.701   4.932   0.450  2.7143  4.7093  3.2646
  208MOL0     H27409   7.567   4.725   0.317 -0.3493  1.9627 -1.8452
  208MOL0     H27410   7.718   4.601  -0.016 -2.9504  1.6724 -0.3864
  208MOL0     H27411   7.568   4.599   0.073 -1.2061 -1.5666  1.4712
  208MOL0     H27412   7.626   4.348   0.042  1.4185 -2.1070 -0.3073
  208MOL0     H27413   7.637   4.394   0.210  0.6254 -0.7128  0.0305
  208MOL0     H27414   7.882   4.394   0.027  0.9391 -2.3129  0.0349
  208MOL0     H27415   7.879   4.402   0.194 -1.0855  2.0669 -1.4283
  208MOL0     H27416   7.774   4.178   0.012  0.7748 -2.8017 -0.2394
  208MOL0     H27417   7.762   4.167   0.193  2.2264 -1.2966  0.3911
  208MOL0     H27418   7.887   4.194   0.373  0.5060 -1.3327  0.9579
  208MOL0     H27419   7.965   4.076   0.568  2.2081  0.7973  0.1066
  208MOL0     H27420   8.223   3.787   0.848 -2.4781 -1.8167 -1.9426
  208MOL0     H27421   8.394   3.688   0.995 -2.3059 -0.8964 -0.3766
  208MOL0     H27422   8.731   3.592   1.103 -1.3395  1.1962  1.3204
  208MOL0     H27423   8.564   3.582   1.128  1.3831 -0.0150  2.2234
  208MOL0     H27424   8.571   3.838   1.022  0.3995 -2.0278 -2.2988
  208MOL0     H27425   8.735   3.825   1.086 -2.4361  5.8332 -1.4289
  208MOL0     H27426   8.660   3.764   1.309 -1.0184 -1.7646 -0.2521
  208MOL0     H27427   8.496   3.755   1.251  0.2003  0.8253 -1.2771
  208MOL0     H27428   8.647   4.020   1.269 -2.2841  4.9034 -2.4921
  208MOL0     H27429   8.496   4.003   1.195 -1.7502 -1.7617 -1.1796
  208MOL0     H27430   8.396   3.929   1.427  0.2327 -0.3393  0.9987
  208MOL0     H27431   8.465   4.085   1.412  1.5803 -0.8791  0.9340
  208MOL0     H27432   8.651   4.045   1.541 -1.8421  1.7327  0.9059
  208MOL0     H27433   8.647   3.867   1.508  2.1918  2.3521 -1.5979
  208MOL0     H27434   8.457   4.047   1.680  2.9676  2.8716 -0.7206
  208MOL0     H27435   8.432   3.875   1.657 -0.0196 -0.8909 -0.0271
  208MOL0     H27436   8.673   3.860   1.755  0.3188 -0.1528  0.2836
  208MOL0     H27437   8.546   3.911   1.871 -2.3111 -0.0403 -2.1754
  208MOL0     H27438   8.657   3.634   0.686  1.4923  1.6121  3.3117
  208MOL0     H27439   8.514   3.725   0.521  0.0440  0.4021 -0.1846
  208MOL0     H27440   8.176   3.805   0.319  0.2111 -1.0863  0.8561
  208MOL0     H27441   8.112   3.931   0.117  0.3228  0.5848  0.5352
  208MOL0     H27442   8.010   4.905   1.385  1.7718  1.0560 -5.0395
  208MOL0     H27443   8.037   4.817   1.608 -0.1058  0.4761  0.5806
  208MOL0     H27444   8.077   4.627   1.896  1.4167  1.5846 -0.5123
  208MOL0     H27445   8.068   4.586   2.132 -0.4659 -4.0004  0.4670
  208MOL0     H27446   8.342   4.472   2.449 -1.0779  1.1909 -1.5964
  208MOL0     H27447   8.418   4.361   2.329 -0.4135 -0.2545 -0.7825
  208MOL0     H27448   8.145   4.307   2.464  1.1025  1.8480  0.6834
  208MOL0     H27449   8.232   4.211   2.351 -1.0192 -1.5952  0.7566
  208MOL0     H27450   8.418   4.260   2.563 -0.7181  0.5189  1.0579
  208MOL0     H27451   8.332   4.107   2.530  1.2424 -0.0788 -0.1357
  208MOL0     H27452   8.274   4.315   2.740 -0.3175  1.7595 -2.0343
  208MOL0     H27453   8.150   4.213   2.702  0.3014  0.7573  1.8586
  208MOL0     H27454   8.415   3.974   2.918  0.5940 -0.6669 -1.0868
  208MOL0     H27455   8.405   4.319   2.103 -0.8810  0.6410  0.0599
  208MOL0     H27456   8.392   4.330   1.860 -2.4313  0.2573 -4.0030
  209MOL0     O27457   2.552   1.937   4.348  0.3653  0.6657 -0.0848
  209MOL0     C27458   2.646   1.996   4.299 -0.5036  0.4637 -0.1979
  209MOL0     O27459   2.665   2.129   4.307 -0.2314 -0.1475  0.5455
  209MOL0     C27460   2.630   2.204   4.416  1.3080 -0.6140 -0.0546
  209MOL0     C27461   2.737   2.278   4.467 -0.0872 -0.1840 -0.6360
  209MOL0     C27462   2.721   2.362   4.571  0.1964 -0.5258 -0.0696
  209MOL0     C27463   2.598   2.385   4.627  1.0564  0.7915 -0.7603
  209MOL0     O27464   2.587   2.482   4.721 -0.0093 -0.2342 -0.8617
  209MOL0     C27465   2.462   2.522   4.778 -0.0003  0.5499  0.3350
  209MOL0     C27466   2.384   2.625   4.697 -0.1111  0.3534  0.3893
  209MOL0     C27467   2.296   2.709   4.780  0.5701  1.1142 -0.0661
  209MOL0     C27468   2.153   2.646   4.807  1.1731 -0.6584  0.7509
  209MOL0     C27469   2.057   2.749   4.863  0.0688  0.1303 -0.5287
  209MOL0     C27470   1.917   2.690   4.889 -0.4544  0.4932 -0.5716
  209MOL0     C27471   1.837   2.763   4.988  0.6245 -0.3363 -0.5535
  209MOL0     C27472   1.791   2.897   4.927  0.3850  0.8953 -0.7923
  209MOL0     N27473   1.742   2.995   5.024 -0.3413  0.1954  0.4135
  209MOL0     C27474   1.745   3.138   5.012  0.6994  0.3131 -0.3546
  209MOL0     C27475   1.671   3.174   5.115  0.9967 -0.1104  0.4755
  209MOL0     C27476   1.630   3.318   5.149 -0.0892  0.4969 -0.0465
  209MOL0     C27477   1.749   3.399   5.176  0.3957 -0.2656  0.7377
  209MOL0     C27478   1.698   3.536   5.229 -0.9685  0.4871  0.3248
  209MOL0     C27479   1.806   3.621   5.291 -0.5904 -0.1290 -0.3447
  209MOL0     O27480   1.755   3.737   5.359  0.2483  0.0619 -0.4798
  209MOL0     C27481   1.698   3.834   5.282  0.1629 -0.6218 -0.6092
  209MOL0     C27482   1.618   3.923   5.350  0.0697 -0.8903 -0.1918
  209MOL0     C27483   1.600   4.054   5.299 -0.8462 -0.7368 -0.9324
  209MOL0     C27484   1.641   4.087   5.170  1.2677 -0.0938  0.2252
  209MOL0     C27485   1.628   4.224   5.097 -0.3674  0.0515  0.6724
  209MOL0     O27486   1.692   4.239   4.977 -0.2683 -0.9379 -0.4041
  209MOL0     C27487   1.734   4.360   4.926 -0.6693 -0.1354 -0.6192
  209MOL0     C27488   1.737   4.383   4.785 -0.0327 -0.5101  0.3867
  209MOL0     C27489   1.786   4.506   4.739  0.6593 -0.0341  0.1381
  209MOL0     C27490   1.847   4.599   4.825  0.7019  0.5081 -0.2106
  209MOL0     O27491   1.935   4.692   4.772  0.5905 -0.3935 -0.4797
  209MOL0     C27492   2.071   4.644   4.785  0.4539  0.2721 -1.2919
  209MOL0     C27493   2.149   4.717   4.682 -0.0799  0.1989 -0.0202
  209MOL0     C27494   2.294   4.684   4.694 -0.1027  0.3682 -0.3853
  209MOL0     C27495   2.363   4.812   4.647  0.1793 -0.1650 -0.0104
  209MOL0     C27496   2.516   4.810   4.641 -0.3421 -0.1875  0.1879
  209MOL0     C27497   2.589   4.958   4.617  0.3221  0.3102 -1.0154
  209MOL0     C27498   2.740   4.931   4.595 -0.0815 -0.5026  1.1177
  209MOL0     C27499   2.803   5.061   4.565 -1.1459 -0.2525 -0.8412
  209MOL0    Cl27500   2.981   5.048   4.594 -0.6149 -0.1363 -0.3594
  209MOL0     C27501   1.847   4.582   4.965  0.3521 -0.3043 -0.1574
  209MOL0     C27502   1.784   4.464   5.008 -1.0322 -0.8965  0.7407
  209MOL0     O27503   1.556   4.308   5.144  0.0639 -0.7974 -0.0460
  209MOL0     C27504   1.689   3.984   5.087  0.6587  0.9564 -0.3121
  209MOL0     C27505   1.729   3.864   5.149  0.8911 -0.0579  1.2146
  209MOL0     N27506   1.636   3.061   5.193  0.4846 -0.3239  0.4651
  209MOL0     N27507   1.666   2.959   5.121 -0.1586  0.0142  0.4927
  209MOL0     C27508   2.482   2.301   4.579 -0.4877  0.9101  0.4476
  209MOL0     C27509   2.505   2.208   4.476  0.9266 -1.1008 -0.7142
  209MOL0     C27510   2.729   1.927   4.203 -0.1984  1.1123  0.7899
  209MOL0     C27511   2.825   1.995   4.122  0.4330 -0.2021  0.1114
  209MOL0     C27512   2.906   1.921   4.036  0.3340 -0.2085  0.9259
  209MOL0     C27513   2.900   1.782   4.031 -0.2926 -0.1117  0.0584
  209MOL0     O27514   3.001   1.729   3.957 -0.0244 -1.0566  0.7498
  209MOL0     C27515   3.030   1.596   3.955 -0.7152  1.2562 -0.7069
  209MOL0     C27516   3.107   1.565   3.821 -0.9065  0.9922  0.9032
  209MOL0     C27517   3.257   1.614   3.826  0.4031 -0.7043  0.2419
  209MOL0     C27518   3.350   1.487   3.844  0.2881  0.2235  0.3638
  209MOL0     C27519   3.491   1.526   3.819  0.3320 -0.8129  0.7201
  209MOL0     C27520   3.586   1.596   3.793 -0.0457 -0.2964  0.7310
  209MOL0     C27521   2.817   1.710   4.115 -0.4968  0.0512 -0.1872
  209MOL0     C27522   2.727   1.787   4.200  0.9425  0.4692  0.4209
  209MOL0     H27523   2.831   2.260   4.415  0.5684 -1.4629  0.9136
  209MOL0     H27524   2.800   2.432   4.596  2.2913 -1.6918 -2.8662
  209MOL0     H27525   2.500   2.567   4.870 -2.3428  1.6023  0.8759
  209MOL0     H27526   2.398   2.438   4.806  1.3459 -0.0865  1.6387
  209MOL0     H27527   2.334   2.580   4.611  2.0412  0.0639 -0.7789
  209MOL0     H27528   2.459   2.690   4.650 -1.0601 -0.0515 -1.8137
  209MOL0     H27529   2.284   2.807   4.733 -1.8847 -0.3260 -2.7124
  209MOL0     H27530   2.335   2.727   4.881 -2.2014  0.1879  1.2726
  209MOL0     H27531   2.107   2.609   4.715 -1.4947 -0.3870  1.8727
  209MOL0     H27532   2.164   2.574   4.888  0.0536 -2.5314 -0.6940
  209MOL0     H27533   2.042   2.826   4.787  3.1907  3.8777  2.2830
  209MOL0     H27534   2.103   2.804   4.946  4.0675  1.6628 -3.4406
  209MOL0     H27535   1.931   2.588   4.926 -0.0210  0.1791 -1.5677
  209MOL0     H27536   1.860   2.680   4.796 -0.1516  1.1345 -0.8321
  209MOL0     H27537   1.749   2.703   5.015 -0.5471  1.1039 -0.9971
  209MOL0     H27538   1.896   2.776   5.079 -1.5440  0.5552  0.7963
  209MOL0     H27539   1.709   2.868   4.862 -1.5216  1.5105  1.2209
  209MOL0     H27540   1.870   2.931   4.860  1.9314  0.7795  0.8751
  209MOL0     H27541   1.784   3.204   4.936 -0.2727  1.7781  0.3802
  209MOL0     H27542   1.576   3.295   5.241  2.4949 -1.6356  1.1012
  209MOL0     H27543   1.569   3.369   5.074 -1.4265  1.8628  1.8688
  209MOL0     H27544   1.811   3.401   5.086 -0.0237 -2.1049  0.3653
  209MOL0     H27545   1.799   3.352   5.261  2.3598 -2.2712 -1.3912
  209MOL0     H27546   1.656   3.584   5.141  0.8739 -0.9656 -1.4377
  209MOL0     H27547   1.622   3.519   5.307  0.1516 -1.3904  1.0830
  209MOL0     H27548   1.874   3.649   5.211  2.7304  0.7857  2.5506
  209MOL0     H27549   1.861   3.560   5.364 -0.7974  0.7695  0.5755
  209MOL0     H27550   1.604   3.902   5.456  5.1029  3.6072  1.8462
  209MOL0     H27551   1.550   4.131   5.356  5.2594  1.4311  2.3276
  209MOL0     H27552   1.719   4.300   4.717  0.7769 -1.1588  0.9448
  209MOL0     H27553   1.805   4.523   4.633 -1.0669  1.3023  0.0015
  209MOL0     H27554   2.073   4.535   4.778 -2.4714  0.2217 -2.6302
  209MOL0     H27555   2.114   4.666   4.883 -0.7304  1.3437 -0.9753
  209MOL0     H27556   2.130   4.822   4.703  2.2961  0.7176 -0.2065
  209MOL0     H27557   2.100   4.717   4.584 -1.3952  3.5311  0.5141
  209MOL0     H27558   2.318   4.592   4.639  3.9914  1.5265 -0.8272
  209MOL0     H27559   2.314   4.665   4.799 -1.7050  3.4801  0.6034
  209MOL0     H27560   2.334   4.839   4.545  0.6600  2.3404  0.4610
  209MOL0     H27561   2.337   4.903   4.702  0.6459  2.4357 -3.7695
  209MOL0     H27562   2.543   4.745   4.557 -0.8890 -0.1717 -0.0001
  209MOL0     H27563   2.556   4.773   4.736 -2.3226 -1.0569  0.7421
  209MOL0     H27564   2.562   5.019   4.703  3.8920  0.6517  0.0259
  209MOL0     H27565   2.554   5.013   4.529 -0.7128  1.0003 -0.2031
  209MOL0     H27566   2.770   4.896   4.694 -0.6470  0.7632  1.7672
  209MOL0     H27567   2.757   4.856   4.517  0.4591  2.1900 -1.5595
  209MOL0     H27568   2.777   5.148   4.626 -0.2764 -0.7231  0.2462
  209MOL0     H27569   2.791   5.086   4.459  0.5019  1.0400 -0.7584
  209MOL0     H27570   1.874   4.666   5.029 -1.1872  0.6211 -0.6831
  209MOL0     H27571   1.797   4.450   5.115 -1.9772  1.4235  1.2207
  209MOL0     H27572   1.729   4.005   4.988 -0.7449  1.7784 -0.7342
  209MOL0     H27573   1.787   3.791   5.094  0.8560 -1.7845  3.3199
  209MOL0     H27574   2.385   2.306   4.628 -0.2909  0.7805  0.8530
  209MOL0     H27575   2.425   2.149   4.432  2.1906 -3.9770  0.5550
  209MOL0     H27576   2.820   2.102   4.107 -0.7428 -0.1725  0.5991
  209MOL0     H27577   2.972   1.977   3.970 -1.3078  0.3074 -0.3402
  209MOL0     H27578   2.936   1.540   3.959  0.4407 -0.7104  0.8462
  209MOL0     H27579   3.076   1.564   4.049 -2.6773  0.0421 -0.0848
  209MOL0     H27580   3.103   1.457   3.808  0.2154  1.0010  0.3520
  209MOL0     H27581   3.068   1.612   3.730 -0.0362  1.9908  1.0208
  209MOL0     H27582   3.285   1.686   3.903  3.2784  0.5184 -1.7583
  209MOL0     H27583   3.270   1.665   3.730 -4.5617  1.3311  0.3681
  209MOL0     H27584   3.334   1.449   3.945 -2.0499  2.5093  0.9691
  209MOL0     H27585   3.338   1.405   3.773  0.9465  0.6097 -0.2094
  209MOL0     H27586   3.674   1.657   3.786 -0.3131 -0.0866 -1.6878
  209MOL0     H27587   2.802   1.603   4.127  0.9411 -0.1375  0.0714
  209MOL0     H27588   2.652   1.733   4.256  0.2225 -0.0907 -1.0374
  210MOL0     O27589   3.803   0.316   4.308 -0.1629 -0.7582 -0.9926
  210MOL0     C27590   3.761   0.205   4.302  0.3378 -0.1077  0.1757
  210MOL0     O27591   3.744   0.124   4.411  0.4041 -0.0029  0.5884
  210MOL0     C27592   3.786   0.166   4.533  0.0731  0.6178  0.1785
  210MOL0     C27593   3.877   0.087   4.585 -0.1596 -0.2060 -0.3581
  210MOL0     C27594   3.918   0.107   4.718  0.0978 -0.4848 -0.4401
  210MOL0     C27595   3.856   0.204   4.800  0.2152 -0.0832  0.1149
  210MOL0     O27596   3.890   0.229   4.932  0.6965  0.1303 -0.8569
  210MOL0     C27597   4.021   0.292   4.952 -0.7675 -0.0552  0.2919
  210MOL0     C27598   4.077   0.212   5.073  0.5021 -0.1756  0.1373
  210MOL0     C27599   4.204   0.267   5.128 -1.0231 -0.1343 -0.1576
  210MOL0     C27600   4.313   0.273   5.031 -0.7710  0.0947  0.6981
  210MOL0     C27601   4.461   0.300   5.096  0.0191  0.1295 -0.0728
  210MOL0     C27602   4.536   0.170   5.142 -0.2436 -0.2884 -0.4794
  210MOL0     C27603   4.665   0.204   5.224  0.1262 -0.3873  0.8774
  210MOL0     C27604   4.631   0.253   5.363  0.4093 -1.2082 -0.3381
  210MOL0     N27605   4.538   0.174   5.445  0.2708  0.0962 -0.3961
  210MOL0     C27606   4.533   0.029   5.444  0.5554  0.0786  0.4120
  210MOL0     C27607   4.404  -0.004   5.470  0.6505 -1.0981 -0.3880
  210MOL0     C27608   4.335  -0.134   5.469  1.3293  0.5942  0.0869
  210MOL0     C27609   4.294  -0.180   5.328  0.4117  0.9066  0.3547
  210MOL0     C27610   4.167  -0.109   5.276 -0.0758  0.1448  0.4466
  210MOL0     C27611   4.126  -0.179   5.157  0.6801 -0.3355  0.8286
  210MOL0     O27612   4.224  -0.130   5.055 -0.4412  0.3182  0.0800
  210MOL0     C27613   4.203  -0.163   4.925  0.0289 -0.0799  0.4094
  210MOL0     C27614   4.104  -0.255   4.894  0.4016  0.0788 -0.9890
  210MOL0     C27615   4.084  -0.310   4.765 -0.7348  0.7699 -0.0762
  210MOL0     C27616   4.155  -0.243   4.658 -0.1154  0.9945  0.6104
  210MOL0     C27617   4.120  -0.280   4.517 -0.1383  0.2460  0.8087
  210MOL0     O27618   4.001  -0.334   4.493 -0.6184  0.1971  0.2104
  210MOL0     C27619   3.955  -0.364   4.372 -0.7009 -0.5518  0.6159
  210MOL0     C27620   3.931  -0.280   4.272 -0.4806 -0.1022  0.5563
  210MOL0     C27621   3.880  -0.317   4.150  0.6709 -0.2640 -0.4393
  210MOL0     C27622   3.865  -0.446   4.114  0.7967  1.2075  0.2203
  210MOL0     O27623   3.826  -0.469   3.986  0.1035  0.0828  0.7877
  210MOL0     C27624   3.876  -0.588   3.923  0.7792 -0.1641  0.0584
  210MOL0     C27625   3.907  -0.558   3.781 -0.3874 -0.3571  0.7908
  210MOL0     C27626   3.988  -0.672   3.709 -0.4609 -0.0300  0.8558
  210MOL0     C27627   4.022  -0.651   3.561 -0.3451 -0.1463 -0.2811
  210MOL0     C27628   4.024  -0.786   3.491 -0.0671  0.7420 -0.1036
  210MOL0     C27629   4.132  -0.892   3.537  0.2904 -0.3270 -0.4742
  210MOL0     C27630   4.168  -0.993   3.427  0.2637 -0.1854  0.1006
  210MOL0     C27631   4.093  -1.131   3.454 -0.5835 -0.8346 -0.3348
  210MOL0    Cl27632   4.115  -1.199   3.628 -0.1626 -0.3447 -0.0637
  210MOL0     C27633   3.886  -0.538   4.217  0.1256  0.0155 -0.5088
  210MOL0     C27634   3.920  -0.498   4.350  0.8134  0.3145 -0.0524
  210MOL0     O27635   4.212  -0.268   4.439 -0.4949 -0.3908  0.7157
  210MOL0     C27636   4.261  -0.154   4.680  0.5070 -1.0811 -0.7049
  210MOL0     C27637   4.283  -0.114   4.822  0.5040  0.9382  1.3151
  210MOL0     N27638   4.331   0.119   5.485  0.8290  0.2151  0.6576
  210MOL0     N27639   4.405   0.216   5.456  0.5994  0.3693  0.6973
  210MOL0     C27640   3.756   0.277   4.747  0.4480 -1.1509  0.3983
  210MOL0     C27641   3.715   0.257   4.616 -0.1636  0.3208 -0.1436
  210MOL0     C27642   3.741   0.148   4.176  0.7782 -0.9138  0.1625
  210MOL0     C27643   3.753   0.224   4.052  0.4066 -0.0005  0.5110
  210MOL0     C27644   3.717   0.167   3.927 -0.3164 -0.0528 -0.7399
  210MOL0     C27645   3.692   0.031   3.920  0.1044  0.8611  0.0061
  210MOL0     O27646   3.672  -0.024   3.799  0.1893 -0.2939 -0.0129
  210MOL0     C27647   3.724  -0.152   3.783  0.0605 -0.3669  0.4917
  210MOL0     C27648   3.750  -0.165   3.631 -0.0114 -0.9815  0.6233
  210MOL0     C27649   3.633  -0.120   3.534  0.6136  0.6666 -0.0592
  210MOL0     C27650   3.503  -0.199   3.560 -0.0037 -0.6742  0.6024
  210MOL0     C27651   3.410  -0.162   3.449 -0.0572  0.1690  0.5423
  210MOL0     C27652   3.324  -0.139   3.359 -0.3413 -0.9842 -0.2940
  210MOL0     C27653   3.679  -0.041   4.038  0.2116 -0.5630  0.2571
  210MOL0     C27654   3.692   0.017   4.162  0.7058  0.2713  0.4058
  210MOL0     H27655   3.917   0.005   4.526 -0.4585  0.1187 -1.0265
  210MOL0     H27656   4.008   0.054   4.747 -0.0192 -0.7341 -0.5354
  210MOL0     H27657   4.018   0.401   4.965  1.9176  0.2030 -0.5421
  210MOL0     H27658   4.087   0.271   4.867 -1.2270 -1.0763  0.1736
  210MOL0     H27659   4.090   0.113   5.028 -1.4984 -1.1982  1.6497
  210MOL0     H27660   4.002   0.220   5.152 -0.7828  2.8147 -1.2238
  210MOL0     H27661   4.213   0.215   5.224 -4.9635 -2.5316 -0.8344
  210MOL0     H27662   4.186   0.371   5.156  1.0724  1.1985 -3.1779
  210MOL0     H27663   4.320   0.178   4.976  0.0233  0.3601  0.3278
  210MOL0     H27664   4.305   0.360   4.965  0.3022  1.1666  1.9335
  210MOL0     H27665   4.446   0.367   5.181 -2.2797 -2.0738  1.4283
  210MOL0     H27666   4.520   0.360   5.026  1.9593 -1.0076  0.5082
  210MOL0     H27667   4.568   0.110   5.057 -1.0825 -2.4238  0.6334
  210MOL0     H27668   4.475   0.106   5.206  1.1205  0.0000  1.1790
  210MOL0     H27669   4.725   0.113   5.234  0.8159 -0.0509 -0.0420
  210MOL0     H27670   4.731   0.273   5.170  1.0986  0.3179  2.8915
  210MOL0     H27671   4.591   0.354   5.347  0.2884 -1.4648 -1.8779
  210MOL0     H27672   4.731   0.261   5.408  1.1481 -0.1883 -2.0519
  210MOL0     H27673   4.609  -0.043   5.415 -1.8119 -3.4074  2.1493
  210MOL0     H27674   4.252  -0.114   5.538 -0.0428 -2.8638 -0.3538
  210MOL0     H27675   4.402  -0.208   5.514  1.7418  2.2622  2.4129
  210MOL0     H27676   4.279  -0.289   5.328 -0.6097  1.0194 -0.9800
  210MOL0     H27677   4.375  -0.163   5.257 -0.8813 -1.6498 -1.9435
  210MOL0     H27678   4.090  -0.112   5.354 -0.9903  1.2787 -0.3832
  210MOL0     H27679   4.188  -0.004   5.251  3.2768 -0.5032  0.1299
  210MOL0     H27680   4.028  -0.144   5.122  0.8041 -0.7673  0.0114
  210MOL0     H27681   4.113  -0.285   5.181 -1.9731  0.1678  2.0793
  210MOL0     H27682   4.047  -0.313   4.966  4.1056  0.3098  2.5248
  210MOL0     H27683   4.019  -0.396   4.760  0.7129 -0.2789 -3.1618
  210MOL0     H27684   3.947  -0.173   4.287  0.0754  0.8847 -4.9579
  210MOL0     H27685   3.854  -0.237   4.081 -2.2031  0.2439  1.0714
  210MOL0     H27686   3.801  -0.668   3.926 -1.2939  1.7090  1.7195
  210MOL0     H27687   3.965  -0.614   3.980  0.6640 -2.0348 -0.5717
  210MOL0     H27688   3.976  -0.473   3.790 -1.3725  0.6044 -0.3427
  210MOL0     H27689   3.820  -0.528   3.722 -0.9414  2.5380  2.8650
  210MOL0     H27690   3.946  -0.770   3.734  1.0148 -0.9770 -0.2265
  210MOL0     H27691   4.083  -0.685   3.763 -0.3426 -2.2798  0.2119
  210MOL0     H27692   3.934  -0.597   3.525 -2.3515 -2.1529  1.4024
  210MOL0     H27693   4.114  -0.593   3.543 -0.3375 -0.4781 -1.3375
  210MOL0     H27694   4.031  -0.762   3.385 -1.8999  0.7869 -0.2437
  210MOL0     H27695   3.926  -0.835   3.492  0.5689 -0.5853  1.2821
  210MOL0     H27696   4.094  -0.929   3.633  0.3842  1.3698  0.2704
  210MOL0     H27697   4.228  -0.840   3.548  0.5831  0.4975 -5.1171
  210MOL0     H27698   4.155  -0.973   3.320 -0.6250 -0.1114  0.2185
  210MOL0     H27699   4.275  -1.017   3.435  0.5788  0.3660 -1.9911
  210MOL0     H27700   4.158  -1.199   3.397  3.5333  0.5285  2.2422
  210MOL0     H27701   3.994  -1.120   3.410  1.3681  2.9281 -4.7206
  210MOL0     H27702   3.873  -0.644   4.195  0.3227  0.1881 -1.5198
  210MOL0     H27703   3.932  -0.560   4.438 -2.3056 -0.8136 -0.2736
  210MOL0     H27704   4.309  -0.109   4.593  1.0912 -1.1685 -0.4352
  210MOL0     H27705   4.364  -0.051   4.858  1.7391  1.2667 -1.7327
  210MOL0     H27706   3.709   0.351   4.811 -0.5738 -0.9707 -0.5249
  210MOL0     H27707   3.629   0.296   4.562 -2.7025 -3.2917  0.8753
  210MOL0     H27708   3.788   0.326   4.048 -1.1414  0.5195 -2.1535
  210MOL0     H27709   3.730   0.232   3.842  3.7544 -3.6697 -3.2445
  210MOL0     H27710   3.653  -0.233   3.806 -1.6407  0.7790 -0.5003
  210MOL0     H27711   3.818  -0.151   3.838  0.0452  4.2342  0.8133
  210MOL0     H27712   3.834  -0.097   3.611 -1.3841  1.3445  2.2942
  210MOL0     H27713   3.781  -0.267   3.603 -2.1308 -1.3477 -0.5910
  210MOL0     H27714   3.679  -0.129   3.435  2.2130  1.3734  0.5856
  210MOL0     H27715   3.621  -0.011   3.538  3.5007  1.2920 -3.2067
  210MOL0     H27716   3.520  -0.305   3.539  0.0922 -0.7117  0.8686
  210MOL0     H27717   3.456  -0.189   3.659 -2.0395  2.0811 -0.4776
  210MOL0     H27718   3.244  -0.119   3.291 -0.7692  0.3782  0.5591
  210MOL0     H27719   3.662  -0.147   4.046  1.7468 -0.8727 -0.2610
  210MOL0     H27720   3.674  -0.047   4.247  1.4136 -0.5680 -0.0721
  211MOL0     O27721   0.904   2.323   7.539 -0.5482  0.1643 -0.1943
  211MOL0     C27722   0.901   2.248   7.441 -0.0329  0.0446 -0.5745
  211MOL0     O27723   0.934   2.287   7.313  0.3954  0.6839 -0.1714
  211MOL0     C27724   0.968   2.422   7.282 -0.1983  1.0984 -1.0928
  211MOL0     C27725   0.904   2.478   7.173  0.4697 -0.3944 -0.7477
  211MOL0     C27726   0.905   2.619   7.147  0.0456  0.2382  0.1323
  211MOL0     C27727   0.999   2.700   7.220 -0.0354  0.2193 -0.0404
  211MOL0     O27728   1.011   2.835   7.215 -0.4481 -0.4620 -0.8525
  211MOL0     C27729   0.947   2.909   7.105 -0.2665 -1.2983  0.7047
  211MOL0     C27730   1.010   2.888   6.960  0.5747  0.0879  0.1444
  211MOL0     C27731   1.143   2.967   6.955  0.4435 -0.3681 -0.7201
  211MOL0     C27732   1.137   3.062   6.838 -0.2246 -0.8598 -0.1104
  211MOL0     C27733   1.283   3.130   6.842  0.4435  0.0223 -0.0044
  211MOL0     C27734   1.294   3.232   6.742 -0.2296 -0.0932 -0.2183
  211MOL0     C27735   1.441   3.283   6.745  0.2507 -0.3650  0.1497
  211MOL0     C27736   1.451   3.414   6.673  0.5881 -1.0872 -0.2277
  211MOL0     N27737   1.349   3.505   6.720  1.5021 -0.2019 -0.4391
  211MOL0     C27738   1.324   3.542   6.856 -1.1285  0.4649 -0.2993
  211MOL0     C27739   1.204   3.601   6.852 -0.8092 -0.2422 -0.0350
  211MOL0     C27740   1.123   3.662   6.956  0.1294  0.0808 -1.3128
  211MOL0     C27741   1.126   3.817   6.964 -0.2337  0.4496 -0.4893
  211MOL0     C27742   1.262   3.861   7.030 -0.4542  0.4063 -0.3254
  211MOL0     C27743   1.256   4.012   7.045  0.2769 -0.4478 -0.3231
  211MOL0     O27744   1.161   4.055   7.145 -0.5414  0.0298  0.5897
  211MOL0     C27745   1.157   3.991   7.266  0.9006  0.2512  0.2305
  211MOL0     C27746   1.267   3.951   7.340 -0.4656  0.2501 -0.3801
  211MOL0     C27747   1.250   3.885   7.464 -0.3176  0.3626 -0.3976
  211MOL0     C27748   1.120   3.848   7.505  0.1063 -0.0908  0.3296
  211MOL0     C27749   1.103   3.763   7.627  0.3674 -0.6740  0.3735
  211MOL0     O27750   0.971   3.743   7.659 -0.3318 -0.0917  0.0351
  211MOL0     C27751   0.940   3.696   7.786 -0.5414 -0.8339  0.1320
  211MOL0     C27752   0.881   3.564   7.798  0.5424 -0.0133 -0.6001
  211MOL0     C27753   0.861   3.512   7.924  0.0585  0.0621  0.2003
  211MOL0     C27754   0.884   3.592   8.040  0.0208  0.0993 -0.3525
  211MOL0     O27755   0.876   3.546   8.171  0.4716 -0.7531 -0.7156
  211MOL0     C27756   0.910   3.417   8.202  0.0579  1.7498 -0.5781
  211MOL0     C27757   0.904   3.390   8.350  0.3024  0.4868 -0.3804
  211MOL0     C27758   0.897   3.245   8.400 -0.1640 -0.3471 -0.7393
  211MOL0     C27759   1.036   3.185   8.394  0.2466  0.0705  0.4781
  211MOL0     C27760   1.023   3.052   8.313 -0.8165  0.0123 -0.3668
  211MOL0     C27761   0.931   2.954   8.393 -0.6325  0.0104 -1.0658
  211MOL0     C27762   0.936   2.816   8.332 -0.9056  0.0840 -0.0079
  211MOL0     C27763   0.831   2.727   8.383  0.3573 -0.4607  0.0872
  211MOL0    Cl27764   0.688   2.788   8.289 -0.0782  0.2307  0.1730
  211MOL0     C27765   0.923   3.730   8.020  0.6793  0.2127  0.1053
  211MOL0     C27766   0.954   3.779   7.898 -1.2434  0.2146  0.0474
  211MOL0     O27767   1.196   3.761   7.708 -0.1670  0.2599  0.9496
  211MOL0     C27768   1.003   3.899   7.438 -0.1765  1.3879 -0.1354
  211MOL0     C27769   1.026   3.968   7.325 -0.2684  0.1768 -0.2177
  211MOL0     N27770   1.163   3.605   6.724 -0.5352 -0.2345 -0.8466
  211MOL0     N27771   1.253   3.556   6.639  0.9971  0.0611  0.0594
  211MOL0     C27772   1.070   2.632   7.320 -0.1743  0.7198 -1.2813
  211MOL0     C27773   1.059   2.500   7.350 -0.3887  0.7113 -0.1477
  211MOL0     C27774   0.848   2.111   7.469 -0.1646  0.8516 -1.0538
  211MOL0     C27775   0.852   2.068   7.604 -0.7805  0.4368  0.0913
  211MOL0     C27776   0.808   1.937   7.629 -0.1271  0.1404  1.1551
  211MOL0     C27777   0.783   1.849   7.524 -1.0599  0.2591 -0.1543
  211MOL0     O27778   0.744   1.711   7.539  0.1618 -0.4570 -0.0139
  211MOL0     C27779   0.628   1.699   7.629  0.6818 -0.5212 -1.0467
  211MOL0     C27780   0.556   1.573   7.595 -0.0523 -0.7376 -0.1365
  211MOL0     C27781   0.423   1.578   7.670  0.4241 -0.3499 -0.2554
  211MOL0     C27782   0.330   1.664   7.581  0.3788 -0.4980  0.1006
  211MOL0     C27783   0.222   1.580   7.523 -0.1897 -1.1668 -0.6586
  211MOL0     C27784   0.132   1.515   7.466  0.3884  0.5841 -0.7929
  211MOL0     C27785   0.781   1.890   7.397 -0.7725 -0.2657 -0.3254
  211MOL0     C27786   0.814   2.023   7.364 -0.3496  0.5717  0.0450
  211MOL0     H27787   0.834   2.424   7.110 -0.2323  2.2331 -2.4087
  211MOL0     H27788   0.850   2.659   7.062 -0.2926 -0.5828 -0.0419
  211MOL0     H27789   0.940   3.014   7.135  0.2373 -1.3969  1.1824
  211MOL0     H27790   0.842   2.877   7.096  0.4669 -3.1962 -3.3989
  211MOL0     H27791   0.946   2.916   6.876  4.3197 -0.6188 -3.2461
  211MOL0     H27792   1.035   2.783   6.946  1.2225  0.4360 -1.5222
  211MOL0     H27793   1.227   2.900   6.937 -1.8703 -2.6249 -4.5587
  211MOL0     H27794   1.158   3.028   7.044 -1.2147 -2.0945  0.8047
  211MOL0     H27795   1.127   3.012   6.741  1.3143  2.1242 -1.9746
  211MOL0     H27796   1.073   3.149   6.849  0.9548  0.2414 -1.4978
  211MOL0     H27797   1.348   3.046   6.817  0.9926  0.4927 -0.1947
  211MOL0     H27798   1.302   3.172   6.941 -1.4805  1.9772 -0.3890
  211MOL0     H27799   1.211   3.302   6.753 -2.3607 -2.5195  0.2644
  211MOL0     H27800   1.270   3.181   6.648 -2.1399  2.5345 -1.2596
  211MOL0     H27801   1.496   3.290   6.839  0.7263 -1.8360  0.0232
  211MOL0     H27802   1.502   3.216   6.684  1.3135  1.7132 -1.1829
  211MOL0     H27803   1.456   3.398   6.565  2.4284  0.7806 -0.4886
  211MOL0     H27804   1.540   3.474   6.693 -1.7065  1.3504  4.2855
  211MOL0     H27805   1.391   3.542   6.941  1.8023  1.1647 -2.4505
  211MOL0     H27806   1.148   3.631   7.058 -0.7867  2.0972 -0.4261
  211MOL0     H27807   1.021   3.643   6.925  0.3451 -1.7846 -1.0172
  211MOL0     H27808   1.035   3.844   7.018  0.0092 -0.9117  0.6352
  211MOL0     H27809   1.116   3.857   6.862  1.2242  1.2430 -0.3422
  211MOL0     H27810   1.273   3.811   7.127 -1.6653  1.6565  0.5070
  211MOL0     H27811   1.358   3.843   6.981  0.9249 -0.8774  2.6191
  211MOL0     H27812   1.241   4.055   6.946  1.6302 -3.1539 -1.8132
  211MOL0     H27813   1.355   4.047   7.077  1.3320 -1.7938 -1.9311
  211MOL0     H27814   1.362   3.981   7.300  1.7327 -1.8995  2.7307
  211MOL0     H27815   1.331   3.870   7.535 -1.3443  0.6372  0.8741
  211MOL0     H27816   0.841   3.508   7.714 -0.4486  1.3071 -1.0419
  211MOL0     H27817   0.808   3.417   7.929 -0.8763  0.4872 -1.1107
  211MOL0     H27818   1.011   3.403   8.162 -0.6894  0.1226 -2.0103
  211MOL0     H27819   0.847   3.342   8.153  0.6657  0.2388  0.8747
  211MOL0     H27820   0.805   3.431   8.374  0.3333  1.0533 -1.1616
  211MOL0     H27821   0.979   3.459   8.391  3.5011 -2.5105 -0.7039
  211MOL0     H27822   0.825   3.193   8.336  1.1832 -0.0474 -2.5948
  211MOL0     H27823   0.867   3.243   8.505  0.8143  0.2878 -0.4306
  211MOL0     H27824   1.102   3.255   8.342 -1.7694  0.5678 -1.5402
  211MOL0     H27825   1.070   3.161   8.495  3.7992 -1.0150 -0.8078
  211MOL0     H27826   1.118   3.002   8.296 -0.3745  1.4719 -2.6650
  211MOL0     H27827   0.998   3.067   8.207  1.7980 -3.7147 -1.7271
  211MOL0     H27828   0.827   2.987   8.403 -1.1234 -2.1005  2.4673
  211MOL0     H27829   0.963   2.946   8.497 -3.1976 -3.0234 -0.3545
  211MOL0     H27830   0.932   2.829   8.223  1.3283  1.5673  0.0072
  211MOL0     H27831   1.028   2.765   8.363 -0.7288 -1.0248 -2.1513
  211MOL0     H27832   0.818   2.750   8.490  1.7351 -0.4853  0.2719
  211MOL0     H27833   0.861   2.623   8.368  0.5778 -0.1263 -2.0641
  211MOL0     H27834   0.942   3.783   8.112  1.9603 -0.7070  0.4012
  211MOL0     H27835   0.998   3.878   7.890  3.9560 -1.8920 -2.0920
  211MOL0     H27836   0.899   3.883   7.464  0.0551 -0.5458 -0.2391
  211MOL0     H27837   0.938   4.015   7.281 -0.6378  0.9548  1.2510
  211MOL0     H27838   1.143   2.688   7.378 -0.0613  0.0303 -0.7384
  211MOL0     H27839   1.112   2.461   7.436 -1.4766 -2.5507 -0.8127
  211MOL0     H27840   0.879   2.127   7.691 -1.3483  0.0142  0.5686
  211MOL0     H27841   0.784   1.910   7.731 -3.2592 -0.2772  0.4152
  211MOL0     H27842   0.561   1.783   7.609  3.0301  2.5542  2.6455
  211MOL0     H27843   0.640   1.713   7.737  0.9143  0.1174 -1.1489
  211MOL0     H27844   0.537   1.560   7.488 -1.6379  1.2757 -0.1421
  211MOL0     H27845   0.621   1.487   7.615  0.4183 -1.0115 -2.4983
  211MOL0     H27846   0.440   1.633   7.763 -0.1511  1.1275 -0.9926
  211MOL0     H27847   0.383   1.482   7.703 -1.0971  0.7455  1.2351
  211MOL0     H27848   0.287   1.745   7.641 -1.2279 -0.8130 -0.5611
  211MOL0     H27849   0.374   1.714   7.495  0.4604 -2.0690 -0.8095
  211MOL0     H27850   0.065   1.444   7.423  1.2437 -1.1722  0.6411
  211MOL0     H27851   0.762   1.817   7.320  0.8458  0.2270 -1.2421
  211MOL0     H27852   0.802   2.063   7.264  1.0041 -1.3303 -0.9450
  212MOL0     O27853   4.044   2.268  11.400 -0.0589  1.1214  0.1033
  212MOL0     C27854   4.096   2.176  11.336 -0.3709 -0.1662  0.6016
  212MOL0     O27855   4.027   2.061  11.317 -0.5645 -0.0532  0.5313
  212MOL0     C27856   3.892   2.066  11.290 -0.5133  0.1121 -0.3369
  212MOL0     C27857   3.847   2.117  11.171 -0.0860  0.0554 -0.1986
  212MOL0     C27858   3.713   2.087  11.134  0.3321 -0.1239 -0.5862
  212MOL0     C27859   3.622   2.027  11.228  0.2038 -0.0958  0.1652
  212MOL0     O27860   3.487   2.044  11.200 -0.1115 -0.3578 -0.0330
  212MOL0     C27861   3.392   2.030  11.308 -0.0698  0.0016 -0.8397
  212MOL0     C27862   3.258   2.059  11.239  0.2289 -0.5760 -0.3891
  212MOL0     C27863   3.149   1.978  11.298  0.6326 -0.6379 -0.1686
  212MOL0     C27864   3.009   2.004  11.241  0.5129  0.0172  0.6176
  212MOL0     C27865   2.911   1.918  11.313 -0.0797 -0.0114 -0.1092
  212MOL0     C27866   2.775   1.920  11.249  0.9315  0.3289  0.3864
  212MOL0     C27867   2.675   1.828  11.329 -0.4078 -0.0459  1.2563
  212MOL0     C27868   2.726   1.680  11.325 -0.4593 -0.1849 -0.2138
  212MOL0     N27869   2.631   1.569  11.335 -0.5150  0.6381  0.2470
  212MOL0     C27870   2.539   1.547  11.436 -0.4413  1.0846  0.7989
  212MOL0     C27871   2.482   1.430  11.414 -0.1193  0.3193  0.2425
  212MOL0     C27872   2.365   1.377  11.491  0.1416  0.5603 -0.3832
  212MOL0     C27873   2.247   1.449  11.461 -0.4263  0.7589 -0.2914
  212MOL0     C27874   2.164   1.369  11.361  0.6555 -0.0116 -0.3720
  212MOL0     C27875   2.040   1.442  11.305  0.6286  0.3009 -0.1552
  212MOL0     O27876   1.943   1.468  11.411 -0.2850  0.8921 -0.3042
  212MOL0     C27877   1.853   1.363  11.442  0.4267  0.6907 -0.1652
  212MOL0     C27878   1.770   1.397  11.551  0.6060 -0.8755  1.3659
  212MOL0     C27879   1.680   1.300  11.602 -0.4319 -0.6431 -0.7315
  212MOL0     C27880   1.684   1.166  11.555  0.1067  0.0611  0.3004
  212MOL0     C27881   1.607   1.057  11.627 -1.3794  0.9868  0.0497
  212MOL0     O27882   1.650   0.931  11.608  0.2662 -0.3730  0.8132
  212MOL0     C27883   1.588   0.837  11.681 -0.6161 -0.0002 -0.2489
  212MOL0     C27884   1.455   0.805  11.666  0.8338  0.6357 -0.6842
  212MOL0     C27885   1.396   0.715  11.748  0.4919  0.4188 -1.3639
  212MOL0     C27886   1.459   0.659  11.861  0.4461  0.1314 -0.1279
  212MOL0     O27887   1.404   0.553  11.930 -0.4517  0.8349  0.0824
  212MOL0     C27888   1.360   0.432  11.870  1.0874  0.3968  0.4650
  212MOL0     C27889   1.223   0.406  11.923 -0.8450  0.7712 -0.1496
  212MOL0     C27890   1.225   0.370  12.072 -0.7339  0.4831  0.0189
  212MOL0     C27891   1.092   0.328  12.118  0.2603 -0.1287  0.7513
  212MOL0     C27892   1.081   0.296  12.266  0.2539  0.8348  0.5801
  212MOL0     C27893   0.946   0.228  12.295 -0.9764 -0.3209 -0.3416
  212MOL0     C27894   0.908   0.220  12.439  1.5907  0.8876 -1.7690
  212MOL0     C27895   0.992   0.100  12.514  0.4571 -0.7178  0.1882
  212MOL0    Cl27896   1.164   0.154  12.529 -0.0648  0.3212 -0.2325
  212MOL0     C27897   1.586   0.697  11.882  0.4545 -0.2032  0.3557
  212MOL0     C27898   1.652   0.784  11.793 -0.0714 -0.1774  0.8830
  212MOL0     O27899   1.511   1.086  11.691  0.2372  0.6797 -1.2769
  212MOL0     C27900   1.759   1.146  11.436  0.1177 -0.4703 -0.2811
  212MOL0     C27901   1.838   1.236  11.376 -0.6194 -0.3935  0.5113
  212MOL0     N27902   2.554   1.369  11.308 -0.1612  0.5349 -0.0200
  212MOL0     N27903   2.634   1.455  11.265 -0.2672 -0.4889  0.3308
  212MOL0     C27904   3.676   1.980  11.355  0.4476  0.5376 -0.0183
  212MOL0     C27905   3.814   1.983  11.371  0.0974 -0.7525 -0.5431
  212MOL0     C27906   4.240   2.183  11.315  0.2061 -0.3416 -0.5103
  212MOL0     C27907   4.288   2.302  11.258 -0.7316 -0.6908 -0.8140
  212MOL0     C27908   4.422   2.297  11.214 -0.9399  0.8212  1.1600
  212MOL0     C27909   4.504   2.189  11.225  0.3445  0.5842 -0.8271
  212MOL0     O27910   4.637   2.214  11.200  0.0316  0.3484 -0.3953
  212MOL0     C27911   4.741   2.125  11.238  0.2680  0.4238  0.0186
  212MOL0     C27912   4.873   2.169  11.181 -0.0193  0.7712 -0.3223
  212MOL0     C27913   4.992   2.082  11.235 -0.1967 -0.3037  0.2291
  212MOL0     C27914   5.124   2.127  11.165 -0.4817  0.2724  0.1871
  212MOL0     C27915   5.159   2.267  11.168  0.5552 -0.3052  0.2032
  212MOL0     C27916   5.184   2.386  11.179  0.0711 -0.7291  0.2986
  212MOL0     C27917   4.453   2.081  11.296  0.2644 -0.2123 -0.2079
  212MOL0     C27918   4.321   2.071  11.332  0.5677  0.0852 -0.1063
  212MOL0     H27919   3.910   2.162  11.095 -2.9423 -0.1828 -2.8970
  212MOL0     H27920   3.692   2.116  11.032  3.7990 -0.1411 -1.4291
  212MOL0     H27921   3.402   2.089  11.399  0.1753  0.0352 -0.8885
  212MOL0     H27922   3.391   1.923  11.328  2.5570 -0.0627 -0.7809
  212MOL0     H27923   3.264   2.032  11.133  2.1427  0.1764 -0.5109
  212MOL0     H27924   3.240   2.166  11.248 -0.9102 -0.7570 -0.3991
  212MOL0     H27925   3.146   1.999  11.405  1.0502  0.1072 -0.2910
  212MOL0     H27926   3.178   1.873  11.293  0.5058 -0.7395  1.0216
  212MOL0     H27927   2.979   2.108  11.254 -0.2147 -0.5200  4.3120
  212MOL0     H27928   3.016   1.966  11.139  1.5681 -2.7922  1.6090
  212MOL0     H27929   2.904   1.945  11.419 -0.2591 -1.9095  0.4090
  212MOL0     H27930   2.952   1.817  11.300 -1.4250 -0.3750 -1.8160
  212MOL0     H27931   2.786   1.879  11.149 -0.8097 -0.6534  0.5548
  212MOL0     H27932   2.735   2.022  11.245 -1.4002 -0.4372  1.7563
  212MOL0     H27933   2.679   1.867  11.431  0.5193 -0.6755  1.4730
  212MOL0     H27934   2.580   1.829  11.274  0.2583 -0.1073  0.0841
  212MOL0     H27935   2.800   1.675  11.405  1.9844 -0.2272 -2.3269
  212MOL0     H27936   2.776   1.649  11.233  2.7384 -0.8573  1.6068
  212MOL0     H27937   2.511   1.626  11.505  1.2148  2.7531 -0.3332
  212MOL0     H27938   2.375   1.395  11.598 -0.9880 -1.1022  0.0428
  212MOL0     H27939   2.365   1.268  11.475  1.0800  0.5637 -0.4659
  212MOL0     H27940   2.267   1.545  11.413 -1.5916  0.8198 -0.7011
  212MOL0     H27941   2.189   1.450  11.554 -0.7906  1.3004 -0.5129
  212MOL0     H27942   2.226   1.352  11.273  1.8186 -0.8029  0.5758
  212MOL0     H27943   2.133   1.276  11.409  1.2129 -1.2793 -2.3319
  212MOL0     H27944   1.986   1.391  11.224 -0.8907 -0.1242  1.0669
  212MOL0     H27945   2.085   1.529  11.257  0.1326  3.1799  4.0628
  212MOL0     H27946   1.765   1.499  11.587 -1.8598 -0.3465 -0.2100
  212MOL0     H27947   1.615   1.329  11.685 -0.3922  1.6313 -1.4177
  212MOL0     H27948   1.400   0.840  11.579  0.7634 -0.2268 -0.9944
  212MOL0     H27949   1.295   0.685  11.719 -0.5922  3.2863 -0.8390
  212MOL0     H27950   1.434   0.353  11.884  4.5456  3.3521  0.3318
  212MOL0     H27951   1.343   0.454  11.764  0.6801  0.6883  0.5848
  212MOL0     H27952   1.168   0.335  11.859 -0.4201  1.4377 -1.2898
  212MOL0     H27953   1.160   0.495  11.918  1.2515  2.2426 -2.9355
  212MOL0     H27954   1.257   0.454  12.134 -2.4642 -1.1629  3.4464
  212MOL0     H27955   1.290   0.283  12.084 -2.4644 -0.9264 -0.4454
  212MOL0     H27956   1.020   0.406  12.093  1.3783  0.2289 -1.6670
  212MOL0     H27957   1.062   0.241  12.059 -0.3668  2.0905 -2.4544
  212MOL0     H27958   1.089   0.386  12.329  0.3024  0.8424  0.5617
  212MOL0     H27959   1.166   0.228  12.259 -1.6883 -1.5444 -4.0746
  212MOL0     H27960   0.957   0.127  12.255  1.9447 -1.0943  1.9559
  212MOL0     H27961   0.858   0.262  12.240 -1.5841  2.0876  1.9367
  212MOL0     H27962   0.916   0.314  12.495 -1.1750 -0.9488  2.2364
  212MOL0     H27963   0.808   0.177  12.448  2.4883 -0.8344  1.7864
  212MOL0     H27964   0.984   0.004  12.462  1.1820 -2.7118  3.4772
  212MOL0     H27965   0.953   0.086  12.615  3.1922  1.7692  1.7358
  212MOL0     H27966   1.648   0.647  11.956 -0.2132 -2.6966 -0.6724
  212MOL0     H27967   1.757   0.806  11.809 -0.4838  1.6438  1.3955
  212MOL0     H27968   1.751   1.046  11.393 -3.5598 -0.3161 -0.2796
  212MOL0     H27969   1.897   1.197  11.293 -1.5165  1.2534 -0.9692
  212MOL0     H27970   3.615   1.936  11.434 -0.8029 -1.8333 -2.1251
  212MOL0     H27971   3.871   1.938  11.452  2.1162  2.2535 -0.0843
  212MOL0     H27972   4.233   2.395  11.245  0.7583  0.4276  0.4452
  212MOL0     H27973   4.474   2.386  11.181  2.7015 -0.6216  2.4890
  212MOL0     H27974   4.712   2.026  11.202  0.5105  0.3389  0.0485
  212MOL0     H27975   4.750   2.124  11.347  0.4560 -0.4869  0.0059
  212MOL0     H27976   4.880   2.176  11.072 -2.1580  3.2166 -0.3955
  212MOL0     H27977   4.889   2.270  11.220 -2.7922  0.0004  3.3339
  212MOL0     H27978   4.968   1.976  11.226 -2.1526  0.0509  0.8854
  212MOL0     H27979   5.003   2.090  11.344 -0.0342  0.7861  0.1461
  212MOL0     H27980   5.211   2.076  11.208  0.2678  1.0218 -0.4080
  212MOL0     H27981   5.127   2.095  11.061 -1.2488 -0.1255  0.2842
  212MOL0     H27982   5.204   2.488  11.203 -3.4099  0.0648  0.3413
  212MOL0     H27983   4.513   1.992  11.279  0.3145  0.0081 -1.2282
  212MOL0     H27984   4.269   1.976  11.344  0.4666 -0.3108 -2.8759
  213MOL0     O27985   0.220   7.926   2.011 -0.1993  0.4377  0.5754
  213MOL0     C27986   0.191   7.827   2.082  0.4120  0.1958  0.1088
  213MOL0     O27987   0.265   7.774   2.178  0.1977 -0.3352  0.5148
  213MOL0     C27988   0.387   7.829   2.186 -1.0103 -0.2544  0.8223
  213MOL0     C27989   0.413   7.948   2.257 -0.3839  0.6235 -0.0049
  213MOL0     C27990   0.544   7.999   2.267 -0.4036  0.0319  0.2355
  213MOL0     C27991   0.651   7.930   2.204  0.2554 -0.3058 -0.7512
  213MOL0     O27992   0.778   7.971   2.217 -0.1442 -0.0126 -1.0402
  213MOL0     C27993   0.806   8.105   2.249 -0.3921  0.0959 -0.3271
  213MOL0     C27994   0.958   8.119   2.228 -0.5091  0.0553  1.3086
  213MOL0     C27995   0.993   8.273   2.209  0.6651 -0.5649  0.1238
  213MOL0     C27996   1.145   8.299   2.212 -0.2006  0.9710 -0.1753
  213MOL0     C27997   1.172   8.440   2.197  1.1170 -0.7971 -0.4464
  213MOL0     C27998   1.325   8.458   2.179  0.1022  0.6889  0.6024
  213MOL0     C27999   1.376   8.603   2.189  1.1739  0.3958  0.5266
  213MOL0     C28000   1.525   8.626   2.129 -0.6010  0.8252  0.2904
  213MOL0     N28001   1.551   8.760   2.079  0.5150  0.3456  0.1971
  213MOL0     C28002   1.571   8.778   1.945  0.1849 -0.2515  0.3444
  213MOL0     C28003   1.607   8.910   1.931 -0.8020  0.1605  0.5925
  213MOL0     C28004   1.638   8.979   1.798  0.1777  0.4052  0.1800
  213MOL0     C28005   1.703   9.114   1.822 -1.1816  0.1345 -0.2178
  213MOL0     C28006   1.707   9.198   1.689 -0.0627  0.2078 -0.5958
  213MOL0     C28007   1.756   9.338   1.723  0.7195  0.6371 -0.0205
  213MOL0     O28008   1.903   9.332   1.737  0.2694 -0.8216 -0.6623
  213MOL0     C28009   1.957   9.450   1.774  0.0291  0.3686 -0.3139
  213MOL0     C28010   2.101   9.460   1.790  0.4201 -0.8249  0.7849
  213MOL0     C28011   2.174   9.584   1.809 -0.0710 -0.5108  0.2660
  213MOL0     C28012   2.098   9.699   1.805 -0.6377  0.7360 -1.2543
  213MOL0     C28013   2.167   9.831   1.805  0.3280 -1.0875  0.1276
  213MOL0     O28014   2.292   9.847   1.755 -0.3675 -0.6083 -0.2198
  213MOL0     C28015   2.369   9.961   1.771  0.8463  0.9768 -0.6652
  213MOL0     C28016   2.347  10.068   1.850 -0.1836 -0.4009 -0.6034
  213MOL0     C28017   2.427  10.177   1.856 -0.3252  0.4376 -0.0456
  213MOL0     C28018   2.539  10.196   1.767  0.2160  0.3634 -0.0001
  213MOL0     O28019   2.621  10.302   1.766 -0.0300 -0.3861  0.0804
  213MOL0     C28020   2.617  10.396   1.882  0.3635 -1.0007 -0.6202
  213MOL0     C28021   2.735  10.492   1.876  0.3841  0.6241 -0.4068
  213MOL0     C28022   2.713  10.616   1.971 -0.4437  0.6362  0.0011
  213MOL0     C28023   2.746  10.575   2.117  1.0485  0.2289  1.4784
  213MOL0     C28024   2.671  10.661   2.206  0.0566 -0.1796  0.4874
  213MOL0     C28025   2.739  10.702   2.332  0.3637  0.9899  0.0851
  213MOL0     C28026   2.838  10.814   2.322 -0.6721 -0.5228 -0.6966
  213MOL0     C28027   2.981  10.785   2.341 -0.4549  0.1775 -0.6788
  213MOL0    Cl28028   3.091  10.910   2.382  0.1798  0.2613 -0.1986
  213MOL0     C28029   2.569  10.082   1.693  0.5917  0.3299 -0.8167
  213MOL0     C28030   2.484   9.965   1.696 -0.5788 -1.3141  0.5854
  213MOL0     O28031   2.090   9.926   1.835 -0.1382 -0.5458  0.4910
  213MOL0     C28032   1.959   9.694   1.794  0.2204 -1.1541  1.1797
  213MOL0     C28033   1.890   9.576   1.772  1.0325 -0.0608  0.0585
  213MOL0     N28034   1.579   8.967   2.064  0.4637  0.7242 -0.0883
  213MOL0     N28035   1.557   8.875   2.150 -0.1438 -0.0843  0.3374
  213MOL0     C28036   0.623   7.810   2.142  0.3574  0.5566  0.6004
  213MOL0     C28037   0.494   7.759   2.126 -0.1282  0.5531 -0.9929
  213MOL0     C28038   0.061   7.758   2.057 -0.0958  0.2762 -0.2819
  213MOL0     C28039   0.041   7.632   2.100 -0.2992  0.0405 -0.4700
  213MOL0     C28040  -0.089   7.577   2.096  0.1437 -0.3561  0.7223
  213MOL0     C28041  -0.194   7.638   2.020 -0.6626 -0.0360 -0.3275
  213MOL0     O28042  -0.308   7.573   2.006  0.3957  0.5165  0.1418
  213MOL0     C28043  -0.410   7.615   1.911 -0.0750  1.1251 -0.2904
  213MOL0     C28044  -0.532   7.535   1.936  0.0851  0.0467  0.3308
  213MOL0     C28045  -0.618   7.573   2.059  0.0945  0.4422 -0.2101
  213MOL0     C28046  -0.765   7.518   2.059  0.5841  0.0312  0.4969
  213MOL0     C28047  -0.849   7.581   1.956  0.3346 -0.2735 -0.5679
  213MOL0     C28048  -0.929   7.639   1.878  0.8547 -0.0541  0.1637
  213MOL0     C28049  -0.176   7.766   1.973 -0.3939  0.5058  0.7921
  213MOL0     C28050  -0.042   7.829   1.986  1.5847  0.3667 -0.4694
  213MOL0     H28051   0.331   7.998   2.306  1.6144  1.8268  2.3655
  213MOL0     H28052   0.559   8.085   2.332 -0.8420  0.5165 -0.2997
  213MOL0     H28053   0.780   8.144   2.348 -0.5753 -0.8365  0.0070
  213MOL0     H28054   0.759   8.180   2.184  2.7829  4.7275  2.1518
  213MOL0     H28055   0.987   8.069   2.135 -1.5936  1.0580  0.4010
  213MOL0     H28056   1.010   8.056   2.301  0.7677  1.8489  2.0346
  213MOL0     H28057   0.949   8.337   2.285 -1.7200 -0.2674 -1.4046
  213MOL0     H28058   0.942   8.304   2.117 -0.2838 -2.9714 -0.2362
  213MOL0     H28059   1.191   8.262   2.304  1.4853 -0.3698 -1.5101
  213MOL0     H28060   1.190   8.250   2.126 -1.2225 -1.7746  0.7660
  213MOL0     H28061   1.146   8.496   2.288  2.1995 -2.1939  0.7795
  213MOL0     H28062   1.116   8.478   2.111 -1.7090 -2.8179  0.3314
  213MOL0     H28063   1.366   8.425   2.083  0.1754  2.1675  0.1051
  213MOL0     H28064   1.378   8.394   2.250 -0.5682  0.9390  1.3440
  213MOL0     H28065   1.315   8.668   2.125 -0.2231 -1.6594 -0.3449
  213MOL0     H28066   1.365   8.635   2.293  2.4075 -0.9178  1.1049
  213MOL0     H28067   1.539   8.549   2.053 -0.3679  1.3661 -0.2268
  213MOL0     H28068   1.593   8.608   2.213  1.1591  1.9093 -0.8218
  213MOL0     H28069   1.563   8.711   1.860 -1.2346  0.3584 -0.0379
  213MOL0     H28070   1.550   8.996   1.735 -2.3112 -1.8566  2.7629
  213MOL0     H28071   1.699   8.912   1.736 -0.8588 -0.9036  0.5157
  213MOL0     H28072   1.806   9.106   1.858 -0.1251  3.7073 -1.9354
  213MOL0     H28073   1.639   9.158   1.899 -1.2100 -2.1570  1.1666
  213MOL0     H28074   1.775   9.149   1.618  1.5271 -2.1180  2.2855
  213MOL0     H28075   1.607   9.199   1.644  0.0740 -2.2486 -1.1008
  213MOL0     H28076   1.711   9.382   1.812 -3.5022 -2.9762 -0.0613
  213MOL0     H28077   1.739   9.392   1.629 -0.1007 -0.5187 -0.5591
  213MOL0     H28078   2.156   9.368   1.773 -1.5256 -1.4537 -3.1573
  213MOL0     H28079   2.282   9.594   1.812  0.3168 -3.6740  2.6982
  213MOL0     H28080   2.256  10.076   1.910  0.3576  3.6901  0.0056
  213MOL0     H28081   2.400  10.259   1.923 -2.2765 -0.0873 -0.1094
  213MOL0     H28082   2.620  10.338   1.974 -4.0993 -1.3972 -0.5235
  213MOL0     H28083   2.517  10.439   1.879  0.9540  0.7400  2.1263
  213MOL0     H28084   2.733  10.524   1.772 -3.1985 -0.4768 -0.8299
  213MOL0     H28085   2.826  10.444   1.913  0.1278 -1.0577 -1.8331
  213MOL0     H28086   2.609  10.649   1.961 -0.5940 -0.0064 -0.6539
  213MOL0     H28087   2.777  10.698   1.939 -1.1835  2.3709  2.6507
  213MOL0     H28088   2.723  10.469   2.128 -2.1482  0.1320 -3.3085
  213MOL0     H28089   2.854  10.586   2.132  1.0081 -1.1369  2.9765
  213MOL0     H28090   2.585  10.603   2.240  0.5740 -1.1587  0.1705
  213MOL0     H28091   2.631  10.752   2.160  1.1310  1.6728  3.0000
  213MOL0     H28092   2.789  10.615   2.377  0.6862  0.7879 -0.6354
  213MOL0     H28093   2.669  10.736   2.408 -0.2745 -1.1995  0.5404
  213MOL0     H28094   2.824  10.862   2.225 -2.2388  1.9413  0.6328
  213MOL0     H28095   2.813  10.884   2.403 -1.2720  0.9521 -2.1083
  213MOL0     H28096   3.014  10.750   2.242 -0.4027 -0.8385 -0.3150
  213MOL0     H28097   3.001  10.702   2.409 -0.2911  2.4473  2.2275
  213MOL0     H28098   2.652  10.073   1.623  2.0178 -1.5020  0.9830
  213MOL0     H28099   2.509   9.892   1.620  2.2946  0.7242 -0.6330
  213MOL0     H28100   1.902   9.786   1.785 -0.8791 -1.8409  0.7896
  213MOL0     H28101   1.785   9.582   1.744  0.7569 -0.8973  0.8968
  213MOL0     H28102   0.696   7.742   2.098  0.2718  2.5610 -2.9865
  213MOL0     H28103   0.485   7.669   2.066  0.0767  0.6083 -1.1101
  213MOL0     H28104   0.121   7.574   2.145 -2.0372 -2.4267 -0.3300
  213MOL0     H28105  -0.112   7.477   2.133 -6.0952 -1.2080 -3.9088
  213MOL0     H28106  -0.379   7.594   1.809  1.0353  2.8214 -0.3363
  213MOL0     H28107  -0.444   7.718   1.919 -1.4374  0.5799  2.4914
  213MOL0     H28108  -0.596   7.541   1.847 -0.1272  1.0836  0.5412
  213MOL0     H28109  -0.512   7.428   1.936 -0.8642 -0.2290 -2.6445
  213MOL0     H28110  -0.624   7.682   2.061 -1.0916  0.3765  0.9344
  213MOL0     H28111  -0.568   7.543   2.152 -0.1384 -0.6751 -0.4333
  213MOL0     H28112  -0.764   7.410   2.040  4.9708 -0.2160  1.1368
  213MOL0     H28113  -0.821   7.530   2.152 -3.0699 -2.3203 -1.1764
  213MOL0     H28114  -1.008   7.676   1.816  0.1753 -0.8612  0.5200
  213MOL0     H28115  -0.248   7.819   1.911 -2.6619  0.7743  3.4521
  213MOL0     H28116  -0.009   7.920   1.938  0.2437  0.0240 -2.1561
  214MOL0     O28117   0.033   1.184   3.261  0.7053 -0.2819  0.0908
  214MOL0     C28118   0.159   1.205   3.259  0.4018 -0.0444  0.0076
  214MOL0     O28119   0.230   1.225   3.142  0.2819  0.6155 -0.0493
  214MOL0     C28120   0.161   1.221   3.022 -0.9697 -0.3672 -0.2488
  214MOL0     C28121   0.128   1.102   2.964 -0.8496 -0.2816  0.4917
  214MOL0     C28122   0.069   1.098   2.840  0.6481  0.9955  0.5358
  214MOL0     C28123   0.056   1.207   2.760 -0.2576 -0.3090 -0.4892
  214MOL0     O28124   0.020   1.193   2.627 -0.9341 -0.2356 -0.1322
  214MOL0     C28125  -0.091   1.279   2.577  0.0848 -0.6786 -0.3446
  214MOL0     C28126  -0.226   1.236   2.622 -0.0694  0.9624 -0.0078
  214MOL0     C28127  -0.336   1.335   2.582 -0.6142  1.0174  0.0080
  214MOL0     C28128  -0.358   1.362   2.429  0.4824  0.2176 -0.4471
  214MOL0     C28129  -0.485   1.445   2.406 -0.3532 -0.0195  0.7489
  214MOL0     C28130  -0.508   1.433   2.264  0.0548 -1.0763  0.0553
  214MOL0     C28131  -0.453   1.538   2.160 -0.2501 -0.3827 -0.3449
  214MOL0     C28132  -0.522   1.516   2.024 -0.8839 -0.4806 -0.1960
  214MOL0     N28133  -0.538   1.377   1.968 -0.3102 -0.8918 -0.4748
  214MOL0     C28134  -0.662   1.307   1.969  0.6247  0.9368 -0.2878
  214MOL0     C28135  -0.660   1.201   1.878 -0.0649  0.5295  0.1934
  214MOL0     C28136  -0.759   1.087   1.846 -0.2523  0.1377  0.1406
  214MOL0     C28137  -0.903   1.134   1.860 -0.2522 -0.2024  0.6356
  214MOL0     C28138  -0.938   1.263   1.783 -1.3972 -0.3026  0.7522
  214MOL0     C28139  -1.083   1.310   1.816 -1.1586 -0.0955 -0.2470
  214MOL0     O28140  -1.181   1.214   1.798 -0.2695 -0.5237 -0.6870
  214MOL0     C28141  -1.229   1.180   1.670  0.3095 -0.8548  0.1207
  214MOL0     C28142  -1.252   1.263   1.565  0.1234  0.0548 -1.0367
  214MOL0     C28143  -1.315   1.226   1.447 -0.1978 -0.2834 -0.6580
  214MOL0     C28144  -1.371   1.096   1.436 -0.1396 -0.6701  0.6329
  214MOL0     C28145  -1.452   1.040   1.328  0.4774 -0.3920 -0.4256
  214MOL0     O28146  -1.525   0.925   1.334 -0.0718  0.5038 -0.0529
  214MOL0     C28147  -1.616   0.877   1.240 -0.4205  0.7131  0.4169
  214MOL0     C28148  -1.668   0.941   1.127  0.3873 -0.3728 -0.3972
  214MOL0     C28149  -1.750   0.876   1.040  0.5518  0.0447  0.0387
  214MOL0     C28150  -1.812   0.748   1.076 -0.5317 -1.6179 -0.0665
  214MOL0     O28151  -1.904   0.696   0.988  0.1077 -0.0602 -0.6619
  214MOL0     C28152  -1.942   0.557   1.004  0.7066  0.1905  0.5971
  214MOL0     C28153  -2.047   0.517   0.896 -0.5990 -0.1393  0.3221
  214MOL0     C28154  -2.175   0.611   0.901 -1.0281  0.2200 -0.4274
  214MOL0     C28155  -2.274   0.574   0.790 -0.2260 -1.1616  0.7317
  214MOL0     C28156  -2.359   0.698   0.752  0.1136  0.3498 -0.2999
  214MOL0     C28157  -2.441   0.667   0.628 -0.4329  0.4565  0.2554
  214MOL0     C28158  -2.350   0.649   0.500  0.1237  0.2349 -0.8196
  214MOL0     C28159  -2.432   0.615   0.369 -0.3259 -0.1266  1.1380
  214MOL0    Cl28160  -2.330   0.631   0.239  0.0704 -1.1005 -0.4663
  214MOL0     C28161  -1.769   0.694   1.199 -1.3749  0.5817 -0.1693
  214MOL0     C28162  -1.677   0.757   1.282 -0.2788  0.1165 -0.5681
  214MOL0     O28163  -1.452   1.119   1.229 -0.1478 -0.2224 -0.2895
  214MOL0     C28164  -1.343   1.009   1.535 -0.0372 -0.2141 -0.4761
  214MOL0     C28165  -1.276   1.054   1.654  0.0815  0.2553  0.5371
  214MOL0     N28166  -0.528   1.219   1.828 -0.6519  0.7070 -0.7599
  214MOL0     N28167  -0.461   1.323   1.875 -0.0338  0.7155  0.4663
  214MOL0     C28168   0.102   1.332   2.813  0.6839 -0.1535 -0.8578
  214MOL0     C28169   0.150   1.339   2.945 -0.6537  0.2108  0.0804
  214MOL0     C28170   0.238   1.218   3.389 -0.3950  0.5082  1.0064
  214MOL0     C28171   0.200   1.140   3.501 -0.5497  0.4726 -0.1914
  214MOL0     C28172   0.259   1.162   3.628 -0.3623  0.0360  0.4670
  214MOL0     C28173   0.375   1.243   3.634  0.3057  0.3849  0.5258
  214MOL0     O28174   0.441   1.256   3.758 -0.1694 -0.0080  0.1059
  214MOL0     C28175   0.363   1.274   3.881  0.3699 -1.0639 -1.1022
  214MOL0     C28176   0.416   1.407   3.942  1.1010  0.1780 -0.0308
  214MOL0     C28177   0.565   1.390   3.954 -0.3922 -0.2202  0.1972
  214MOL0     C28178   0.654   1.450   3.845 -0.3663  0.9884 -0.1990
  214MOL0     C28179   0.791   1.482   3.899  0.6976  0.2268  0.3322
  214MOL0     C28180   0.897   1.501   3.959  0.5381  0.3363  0.6199
  214MOL0     C28181   0.427   1.305   3.513 -0.1406  0.7644  0.0368
  214MOL0     C28182   0.354   1.297   3.397  0.1522  1.0608 -1.1698
  214MOL0     H28183   0.157   1.016   3.024  1.3366  1.8806  2.7728
  214MOL0     H28184   0.048   0.999   2.801  2.1850  1.8447 -2.7329
  214MOL0     H28185  -0.103   1.285   2.469 -1.8963 -0.3531 -0.1413
  214MOL0     H28186  -0.078   1.381   2.615  0.4999  0.7932 -4.0738
  214MOL0     H28187  -0.231   1.224   2.731 -3.8014  1.4288 -0.0001
  214MOL0     H28188  -0.246   1.143   2.568 -0.4664  0.1536  1.4576
  214MOL0     H28189  -0.322   1.425   2.643  0.1627 -0.7996  2.7366
  214MOL0     H28190  -0.428   1.297   2.627  1.8021 -2.7013  2.3974
  214MOL0     H28191  -0.271   1.417   2.393 -1.0869  1.9871 -1.7289
  214MOL0     H28192  -0.364   1.263   2.382 -0.6333  0.5454 -1.0343
  214MOL0     H28193  -0.474   1.552   2.422  0.8319 -0.0828  0.4287
  214MOL0     H28194  -0.567   1.409   2.470 -2.3288  2.5199 -0.1917
  214MOL0     H28195  -0.617   1.436   2.250  0.1401  1.2619 -0.5273
  214MOL0     H28196  -0.464   1.338   2.234  0.0414 -1.8947  2.4104
  214MOL0     H28197  -0.469   1.643   2.185  0.9821 -0.6039  1.5488
  214MOL0     H28198  -0.347   1.516   2.143 -0.1247  0.2516 -0.4125
  214MOL0     H28199  -0.458   1.567   1.952  0.0859 -0.0739  0.9225
  214MOL0     H28200  -0.619   1.566   2.026 -0.1976  0.9070  2.1023
  214MOL0     H28201  -0.747   1.313   2.036  0.3057 -2.6093 -0.1744
  214MOL0     H28202  -0.750   1.000   1.911  1.4972 -0.3397 -0.6587
  214MOL0     H28203  -0.740   1.059   1.742  0.8783 -0.2732  0.4373
  214MOL0     H28204  -0.929   1.171   1.959 -1.8045  1.7158 -0.4176
  214MOL0     H28205  -0.971   1.051   1.837 -0.1181  0.0525 -0.7553
  214MOL0     H28206  -0.867   1.344   1.802  2.2328 -2.2111 -2.9439
  214MOL0     H28207  -0.937   1.243   1.675 -4.2150 -1.4780  0.8427
  214MOL0     H28208  -1.097   1.399   1.753 -1.8273  0.1378  0.2180
  214MOL0     H28209  -1.080   1.339   1.922  2.1793  1.4930 -0.6581
  214MOL0     H28210  -1.227   1.368   1.579 -1.6796  0.3731  0.1320
  214MOL0     H28211  -1.324   1.291   1.361  0.2544 -0.6442 -0.9861
  214MOL0     H28212  -1.640   1.044   1.107 -1.0397  0.5239  1.7921
  214MOL0     H28213  -1.777   0.935   0.952  0.0488  1.9330  1.4015
  214MOL0     H28214  -1.984   0.529   1.101  1.8691  0.2902  1.1433
  214MOL0     H28215  -1.849   0.499   0.998  1.2294  1.0144  0.6706
  214MOL0     H28216  -2.072   0.414   0.920 -1.6627 -0.4528 -1.8548
  214MOL0     H28217  -2.008   0.520   0.794  1.5854 -1.4207  1.0602
  214MOL0     H28218  -2.148   0.717   0.899 -0.1356  0.0000 -0.8709
  214MOL0     H28219  -2.221   0.595   0.999  4.3759  0.7990  2.6095
  214MOL0     H28220  -2.211   0.545   0.705  1.6583 -0.0182  1.6692
  214MOL0     H28221  -2.333   0.484   0.809 -0.1802 -0.7182  3.3105
  214MOL0     H28222  -2.285   0.773   0.726  1.9753 -1.5749 -0.8173
  214MOL0     H28223  -2.426   0.737   0.829 -0.8502 -4.3098  1.5606
  214MOL0     H28224  -2.505   0.754   0.610 -4.2286 -2.1340  0.0819
  214MOL0     H28225  -2.495   0.572   0.633  0.1499  0.1349  0.5660
  214MOL0     H28226  -2.295   0.741   0.479  2.6075 -0.8241  0.6325
  214MOL0     H28227  -2.280   0.566   0.505  1.0549  1.0844  3.4180
  214MOL0     H28228  -2.515   0.684   0.358  0.4847  0.8517  1.0350
  214MOL0     H28229  -2.466   0.511   0.369 -3.9610  0.9092  2.3431
  214MOL0     H28230  -1.799   0.592   1.219 -0.6165  0.2387 -0.7446
  214MOL0     H28231  -1.642   0.695   1.364  0.6546  0.4616 -0.7005
  214MOL0     H28232  -1.377   0.906   1.537  3.0754 -1.3459  0.7622
  214MOL0     H28233  -1.269   0.994   1.744 -1.2608  2.3649  2.1553
  214MOL0     H28234   0.094   1.427   2.762 -0.4984  1.8738  2.7577
  214MOL0     H28235   0.181   1.429   2.997  0.7283  0.3035 -0.8617
  214MOL0     H28236   0.122   1.066   3.488  2.6285 -2.9796 -1.4234
  214MOL0     H28237   0.217   1.117   3.717 -3.1452  0.0288 -0.7437
  214MOL0     H28238   0.368   1.190   3.951 -0.9812 -0.7277 -0.5662
  214MOL0     H28239   0.255   1.283   3.862 -0.3355  0.8162  2.7897
  214MOL0     H28240   0.382   1.487   3.876 -1.0282  0.8271  1.6964
  214MOL0     H28241   0.364   1.433   4.035 -0.2429  0.8718 -0.9524
  214MOL0     H28242   0.592   1.286   3.973  1.2166  0.4302  1.7072
  214MOL0     H28243   0.595   1.444   4.044 -1.6007 -2.0391  1.7556
  214MOL0     H28244   0.663   1.379   3.762 -0.1060 -0.3791  0.9497
  214MOL0     H28245   0.618   1.544   3.803 -3.3797  0.2720  0.5485
  214MOL0     H28246   0.988   1.495   4.016  0.8179 -1.6709  0.0443
  214MOL0     H28247   0.523   1.355   3.516  0.5287 -0.2480 -2.2963
  214MOL0     H28248   0.361   1.386   3.336 -4.6671  2.3801 -0.1972
  215MOL0     O28249   5.541   0.868   1.549  0.3081  0.2987 -0.0950
  215MOL0     C28250   5.424   0.886   1.580 -0.0319  0.8625  0.1721
  215MOL0     O28251   5.357   1.001   1.559  0.3807  0.8252  0.1327
  215MOL0     C28252   5.441   1.106   1.523  0.1195 -0.4348 -0.4241
  215MOL0     C28253   5.460   1.216   1.603 -1.2212 -0.1980  0.0030
  215MOL0     C28254   5.537   1.319   1.570  0.0307 -0.9521 -0.0433
  215MOL0     C28255   5.598   1.333   1.450  0.0197 -0.5467  0.5343
  215MOL0     O28256   5.648   1.462   1.417  1.0895 -0.4314 -0.1861
  215MOL0     C28257   5.726   1.478   1.298 -0.9969 -0.5066 -1.1922
  215MOL0     C28258   5.819   1.595   1.307  0.7017 -0.7459 -0.0286
  215MOL0     C28259   5.888   1.613   1.441 -0.8024 -0.6086 -0.7427
  215MOL0     C28260   5.950   1.487   1.501  0.2126  0.2818 -0.1956
  215MOL0     C28261   6.073   1.439   1.414  0.3167  0.1287  0.1479
  215MOL0     C28262   6.128   1.308   1.474 -0.0975 -0.4134 -0.0583
  215MOL0     C28263   6.239   1.253   1.380  1.2323  0.7555 -0.3800
  215MOL0     C28264   6.290   1.125   1.445  0.1072  0.0737 -0.7168
  215MOL0     N28265   6.366   1.030   1.363 -0.1824  0.4019  0.1432
  215MOL0     C28266   6.451   0.926   1.414 -0.4054 -0.7428  0.1187
  215MOL0     C28267   6.463   0.835   1.314  0.7017  0.7123  0.6348
  215MOL0     C28268   6.531   0.702   1.295 -0.1646 -1.2154  0.8233
  215MOL0     C28269   6.605   0.655   1.423 -0.1347  0.6614 -0.4242
  215MOL0     C28270   6.522   0.586   1.518  0.6792 -0.0435 -0.4465
  215MOL0     C28271   6.604   0.500   1.619 -0.8052  0.6768 -0.5812
  215MOL0     O28272   6.711   0.572   1.682 -0.2951 -0.1649  0.3319
  215MOL0     C28273   6.664   0.664   1.774  0.9017  0.2254 -1.2544
  215MOL0     C28274   6.593   0.620   1.892 -0.9699 -1.0853  1.4372
  215MOL0     C28275   6.538   0.700   1.987  0.9643 -0.5596 -0.4357
  215MOL0     C28276   6.549   0.837   1.967 -0.2977  0.0360 -0.3605
  215MOL0     C28277   6.484   0.929   2.063  0.7789 -0.6067 -0.7846
  215MOL0     O28278   6.450   1.052   2.019  0.6794  0.3100 -0.7485
  215MOL0     C28279   6.353   1.111   2.102  0.7124  0.8423 -0.3337
  215MOL0     C28280   6.218   1.052   2.114  0.2669  0.1427 -1.1609
  215MOL0     C28281   6.114   1.115   2.185  0.0306 -0.1555 -0.2496
  215MOL0     C28282   6.132   1.237   2.246  0.8840  0.0559  1.7211
  215MOL0     O28283   6.032   1.280   2.326 -0.4656  0.3250  0.3792
  215MOL0     C28284   5.997   1.419   2.310  0.0381 -0.1865  0.0939
  215MOL0     C28285   6.004   1.491   2.452 -0.3523  0.6371  0.1431
  215MOL0     C28286   6.133   1.472   2.522  0.1314 -1.2048 -0.1687
  215MOL0     C28287   6.152   1.539   2.663  0.8271 -0.6715  0.0786
  215MOL0     C28288   6.264   1.479   2.743  0.7304 -0.2428 -0.7478
  215MOL0     C28289   6.408   1.481   2.683  0.0398 -0.2467  0.2796
  215MOL0     C28290   6.468   1.620   2.649  0.2484 -0.1652  0.3895
  215MOL0     C28291   6.623   1.608   2.632  0.7676  0.2582 -0.5106
  215MOL0    Cl28292   6.677   1.476   2.515 -0.1965  0.5181 -0.2612
  215MOL0     C28293   6.260   1.294   2.236 -0.1003 -0.6955 -0.8831
  215MOL0     C28294   6.371   1.234   2.167 -0.0849 -0.1863  0.2443
  215MOL0     O28295   6.460   0.883   2.177  0.6619 -0.1115 -0.2482
  215MOL0     C28296   6.618   0.893   1.850  0.1795 -0.2034 -1.0880
  215MOL0     C28297   6.674   0.800   1.760  0.2618 -0.1096 -0.1624
  215MOL0     N28298   6.397   0.885   1.202  0.0420  0.5210 -0.1715
  215MOL0     N28299   6.335   0.997   1.233  0.1307  0.1049 -0.6695
  215MOL0     C28300   5.588   1.224   1.362  0.4321  0.7017 -0.6879
  215MOL0     C28301   5.504   1.116   1.401 -1.2343  0.2499 -0.2426
  215MOL0     C28302   5.353   0.774   1.652 -0.0855  0.0106  0.2050
  215MOL0     C28303   5.251   0.786   1.751 -1.2811 -0.2650 -0.4533
  215MOL0     C28304   5.203   0.673   1.813 -0.6640  0.0930  0.1328
  215MOL0     C28305   5.249   0.549   1.779 -0.0801 -0.1492 -0.1906
  215MOL0     O28306   5.206   0.428   1.828 -0.5870  0.7509 -0.1295
  215MOL0     C28307   5.111   0.415   1.931  0.2346 -0.4479 -0.6840
  215MOL0     C28308   4.967   0.456   1.876  0.7865 -0.1195 -0.6852
  215MOL0     C28309   4.854   0.404   1.967 -0.5766 -0.3888  0.4693
  215MOL0     C28310   4.819   0.484   2.086  0.9838 -0.3032 -1.2150
  215MOL0     C28311   4.693   0.438   2.149 -0.7866  0.4558 -0.4903
  215MOL0     C28312   4.594   0.399   2.203 -0.6640 -0.6271 -0.2331
  215MOL0     C28313   5.354   0.535   1.688  0.2200 -0.0970 -0.1712
  215MOL0     C28314   5.404   0.645   1.620  0.3044 -1.2286  0.0101
  215MOL0     H28315   5.415   1.226   1.701  2.6336 -0.3510  1.9967
  215MOL0     H28316   5.523   1.397   1.645  0.8060 -0.3353 -0.5182
  215MOL0     H28317   5.660   1.478   1.211 -2.9583  1.6042  0.1946
  215MOL0     H28318   5.794   1.392   1.292  0.7063  0.8562 -2.7212
  215MOL0     H28319   5.748   1.677   1.290 -2.1335 -2.3959  2.9021
  215MOL0     H28320   5.888   1.588   1.222 -0.4397 -0.5604 -1.0016
  215MOL0     H28321   5.815   1.642   1.516 -1.1478  1.6890 -1.8782
  215MOL0     H28322   5.969   1.686   1.428  2.4911 -4.2494 -2.9640
  215MOL0     H28323   5.988   1.495   1.604 -1.4692  0.2092  0.4698
  215MOL0     H28324   5.878   1.404   1.501  3.1171 -2.4148 -0.2317
  215MOL0     H28325   6.151   1.514   1.414 -0.3577  1.0866  4.4682
  215MOL0     H28326   6.051   1.403   1.313  1.9663 -3.3312  0.8689
  215MOL0     H28327   6.047   1.235   1.480  0.2143 -1.0870 -2.6401
  215MOL0     H28328   6.168   1.333   1.572 -0.0643  1.5588 -0.5352
  215MOL0     H28329   6.204   1.226   1.280  2.0523  0.2165 -0.5317
  215MOL0     H28330   6.325   1.320   1.368  2.7781 -1.0250  0.1713
  215MOL0     H28331   6.199   1.082   1.487 -0.3875  0.2432 -1.5965
  215MOL0     H28332   6.360   1.146   1.527 -1.4796  0.3505  0.6432
  215MOL0     H28333   6.492   0.914   1.514 -3.4022 -0.2437  1.5179
  215MOL0     H28334   6.597   0.727   1.211 -1.8298  1.2567  0.1152
  215MOL0     H28335   6.458   0.627   1.263 -0.3812 -1.3677  1.6457
  215MOL0     H28336   6.648   0.742   1.474  0.3153  0.4832 -0.4965
  215MOL0     H28337   6.686   0.587   1.395 -0.0080  0.2647  0.8730
  215MOL0     H28338   6.458   0.652   1.578  1.7093  1.9278 -1.3989
  215MOL0     H28339   6.457   0.518   1.462  2.2696 -1.9703 -0.0664
  215MOL0     H28340   6.655   0.418   1.570  0.7710  1.7025 -0.7135
  215MOL0     H28341   6.545   0.450   1.696  0.6977  0.3488  0.3947
  215MOL0     H28342   6.578   0.513   1.893 -0.2566 -1.3232 -1.8639
  215MOL0     H28343   6.476   0.666   2.069 -0.2994 -1.9232 -1.9128
  215MOL0     H28344   6.194   0.963   2.057 -0.8836  0.8520 -1.8329
  215MOL0     H28345   6.010   1.084   2.196  0.1461  0.1429  1.9909
  215MOL0     H28346   5.896   1.429   2.268 -1.1163 -1.6060  2.3259
  215MOL0     H28347   6.066   1.468   2.242 -0.1448  1.0423  0.7669
  215MOL0     H28348   5.923   1.451   2.515 -1.9426  1.6180 -1.1847
  215MOL0     H28349   5.969   1.594   2.444  2.4454  1.8622  1.9316
  215MOL0     H28350   6.210   1.515   2.458 -2.5999  1.6730 -1.7654
  215MOL0     H28351   6.148   1.364   2.526 -1.0550 -1.4691 -2.0455
  215MOL0     H28352   6.162   1.648   2.669  1.3392 -0.7548  0.8632
  215MOL0     H28353   6.053   1.522   2.707  0.1893  1.8434 -0.2134
  215MOL0     H28354   6.240   1.377   2.776  2.0832 -0.1486  0.5953
  215MOL0     H28355   6.270   1.544   2.830  0.2564 -1.4120  0.1943
  215MOL0     H28356   6.398   1.421   2.592 -0.6971 -1.4809  1.1387
  215MOL0     H28357   6.472   1.422   2.750 -1.1787 -0.1907  1.5500
  215MOL0     H28358   6.418   1.658   2.559 -0.5273  0.3888  1.0309
  215MOL0     H28359   6.448   1.695   2.726 -1.0047 -1.9156  1.8753
  215MOL0     H28360   6.663   1.591   2.732 -2.3000 -2.7507  0.3746
  215MOL0     H28361   6.664   1.706   2.604  1.1025  1.2628  3.0045
  215MOL0     H28362   6.279   1.388   2.286 -4.0949  0.9396 -2.0298
  215MOL0     H28363   6.457   1.296   2.144 -0.4812 -0.2068 -1.4004
  215MOL0     H28364   6.614   1.001   1.845  0.2512 -0.2048 -1.1856
  215MOL0     H28365   6.729   0.831   1.672  1.7497 -2.0897 -0.0022
  215MOL0     H28366   5.649   1.229   1.272  2.4757 -2.5491  0.3596
  215MOL0     H28367   5.483   1.036   1.331  1.8859 -0.6382 -0.3258
  215MOL0     H28368   5.217   0.885   1.782  1.0521 -0.6963  4.4617
  215MOL0     H28369   5.124   0.685   1.887  0.1795  2.7023  0.7133
  215MOL0     H28370   5.143   0.483   2.010  3.3036 -1.3990 -0.9815
  215MOL0     H28371   5.113   0.321   1.986 -1.6373 -0.8484 -1.2494
  215MOL0     H28372   4.961   0.566   1.875  1.2429 -0.0730  0.3581
  215MOL0     H28373   4.958   0.426   1.771  0.8746  0.4095 -0.8519
  215MOL0     H28374   4.874   0.300   1.992 -4.7032 -1.7913 -1.2365
  215MOL0     H28375   4.764   0.387   1.907  1.4267  1.7138 -3.5030
  215MOL0     H28376   4.893   0.494   2.166 -1.5316  1.2611  1.0777
  215MOL0     H28377   4.802   0.587   2.052 -0.8815 -0.6087 -1.3158
  215MOL0     H28378   4.516   0.351   2.258 -0.0343  0.5637  1.8104
  215MOL0     H28379   5.393   0.435   1.678  2.9707  0.6523  1.7599
  215MOL0     H28380   5.479   0.632   1.543 -0.2640 -1.3511 -0.5313
  216MOL0     O28381  10.033   3.348   5.114  0.4410 -0.1404  0.0715
  216MOL0     C28382   9.941   3.295   5.053 -0.4325  0.5419 -0.9113
  216MOL0     O28383   9.943   3.171   4.984  0.7185 -0.5391  0.2638
  216MOL0     C28384  10.060   3.108   4.972  0.3531  0.0488 -0.2362
  216MOL0     C28385  10.143   3.083   5.085 -0.8033 -0.7288  0.1333
  216MOL0     C28386  10.257   3.008   5.081 -0.4433  0.5893 -0.2813
  216MOL0     C28387  10.297   2.958   4.954 -0.3072 -0.8344  0.3636
  216MOL0     O28388  10.410   2.887   4.944  0.2503 -0.7413  1.0892
  216MOL0     C28389  10.451   2.796   5.052 -1.0434 -0.4549 -0.6589
  216MOL0     C28390  10.527   2.675   4.982 -0.3502 -0.5362 -0.3475
  216MOL0     C28391  10.528   2.543   5.063  0.1595  0.4718  0.4770
  216MOL0     C28392  10.653   2.470   5.020 -0.2452 -1.0708  0.3093
  216MOL0     C28393  10.663   2.322   5.070 -0.4673 -0.3726 -0.4090
  216MOL0     C28394  10.786   2.238   5.030 -0.6239 -1.1121  1.1325
  216MOL0     C28395  10.812   2.124   5.129 -0.4208  1.1416 -0.4185
  216MOL0     C28396  10.902   2.008   5.063 -0.2615 -0.8390 -0.2396
  216MOL0     N28397  10.836   1.928   4.958  0.3554  0.7225 -0.0986
  216MOL0     C28398  10.856   1.930   4.825  0.1686  0.4128  0.1131
  216MOL0     C28399  10.805   1.820   4.776  0.3022  0.0635  0.5991
  216MOL0     C28400  10.798   1.780   4.629  0.7936  0.3360  0.2631
  216MOL0     C28401  10.813   1.630   4.610 -0.0127  0.5713 -0.3469
  216MOL0     C28402  10.879   1.604   4.473 -0.0520 -0.2596  1.2142
  216MOL0     C28403  10.891   1.467   4.437  0.6220 -0.9727  0.4495
  216MOL0     O28404  11.022   1.419   4.485  0.0681 -0.0280 -0.7787
  216MOL0     C28405  11.066   1.292   4.465  0.1924 -0.1265 -0.3781
  216MOL0     C28406  11.146   1.238   4.564 -0.2910  0.3721  0.0896
  216MOL0     C28407  11.187   1.104   4.547  0.3770 -0.3053 -0.5650
  216MOL0     C28408  11.163   1.022   4.434 -0.7302 -0.3898 -0.5375
  216MOL0     C28409  11.225   0.887   4.425 -2.0655  0.1329  0.4783
  216MOL0     O28410  11.314   0.843   4.516  0.3940 -0.6337  0.3573
  216MOL0     C28411  11.413   0.748   4.492  0.5762 -0.1982 -0.0882
  216MOL0     C28412  11.458   0.668   4.591  0.0185 -0.1472  0.1548
  216MOL0     C28413  11.549   0.560   4.576 -0.4253  0.1752  0.0084
  216MOL0     C28414  11.609   0.547   4.452  0.1448  0.8413 -0.0441
  216MOL0     O28415  11.699   0.449   4.435 -0.1357 -0.0350  0.3212
  216MOL0     C28416  11.714   0.404   4.298 -0.1805 -0.3363  0.1659
  216MOL0     C28417  11.795   0.274   4.294  0.5579 -0.0804 -0.4798
  216MOL0     C28418  11.811   0.225   4.147 -0.4276 -0.2365 -0.3171
  216MOL0     C28419  11.686   0.175   4.086  0.0922  0.7833  1.2458
  216MOL0     C28420  11.710   0.107   3.950 -0.7883 -1.1339 -0.5252
  216MOL0     C28421  11.563   0.061   3.921  0.5622 -0.0204  1.1219
  216MOL0     C28422  11.567  -0.020   3.792  0.1195  1.4806 -0.1031
  216MOL0     C28423  11.655  -0.142   3.800  0.4794 -0.8726 -0.4536
  216MOL0    Cl28424  11.586  -0.258   3.922 -0.2153  0.1036  0.0692
  216MOL0     C28425  11.576   0.638   4.352 -0.7343 -0.0610 -0.0207
  216MOL0     C28426  11.485   0.739   4.378  0.5104 -1.1411  0.2369
  216MOL0     O28427  11.198   0.822   4.324  0.4098  0.8844  0.7792
  216MOL0     C28428  11.073   1.074   4.338 -0.0964 -0.4350 -0.6754
  216MOL0     C28429  11.022   1.207   4.359 -0.7738 -0.9654 -0.3801
  216MOL0     N28430  10.758   1.742   4.884 -0.4263 -1.0090 -0.2755
  216MOL0     N28431  10.768   1.811   4.989 -0.8027 -0.1422 -0.4211
  216MOL0     C28432  10.219   2.982   4.843  0.2931  0.6006  0.0741
  216MOL0     C28433  10.091   3.042   4.850 -0.2712  0.3121  0.2812
  216MOL0     C28434   9.814   3.366   5.050  0.8500  0.6495  0.1419
  216MOL0     C28435   9.784   3.492   5.097 -0.2745 -0.0588 -0.4300
  216MOL0     C28436   9.657   3.553   5.084 -0.4835 -0.0787  0.0255
  216MOL0     C28437   9.557   3.484   5.010  0.6789  0.2056  0.3232
  216MOL0     O28438   9.432   3.529   4.972 -0.4218  0.3713 -0.3924
  216MOL0     C28439   9.375   3.619   5.063  0.8535 -0.9415 -0.7105
  216MOL0     C28440   9.219   3.601   5.075 -0.2814 -0.1707 -0.4062
  216MOL0     C28441   9.172   3.706   5.163 -0.1314 -0.5709  0.2279
  216MOL0     C28442   9.018   3.715   5.175  0.6837  0.8642 -1.0897
  216MOL0     C28443   8.975   3.791   5.293 -0.5809  0.5230  0.2993
  216MOL0     C28444   8.933   3.863   5.375  0.8167  1.0323  1.3018
  216MOL0     C28445   9.580   3.355   4.964  0.7435 -0.0122 -0.6263
  216MOL0     C28446   9.705   3.295   4.985  0.1396 -1.3017 -0.0080
  216MOL0     H28447  10.117   3.109   5.187  0.8028 -2.3967  1.0476
  216MOL0     H28448  10.302   2.982   5.176  0.8536 -0.9888 -1.2653
  216MOL0     H28449  10.360   2.759   5.101 -2.2283  0.8907 -1.7168
  216MOL0     H28450  10.522   2.845   5.119 -1.8344 -0.4367  0.1966
  216MOL0     H28451  10.626   2.707   4.949 -1.0911  2.9993  0.4356
  216MOL0     H28452  10.472   2.650   4.891 -2.9309 -0.8239  1.1867
  216MOL0     H28453  10.440   2.478   5.059  0.5127 -0.0665  1.1768
  216MOL0     H28454  10.536   2.572   5.168 -1.6001  0.6574  0.5996
  216MOL0     H28455  10.672   2.455   4.913  2.9785  4.3346 -0.2551
  216MOL0     H28456  10.744   2.527   5.041 -0.7574 -0.3359  0.5592
  216MOL0     H28457  10.569   2.282   5.031 -0.6681  1.9743 -2.5540
  216MOL0     H28458  10.659   2.316   5.179  0.3460 -1.0301 -0.4056
  216MOL0     H28459  10.875   2.300   5.015 -0.2362 -1.6232  1.2660
  216MOL0     H28460  10.753   2.201   4.933 -0.2701  1.3702  0.0099
  216MOL0     H28461  10.856   2.150   5.225 -1.8115 -1.4553  1.0324
  216MOL0     H28462  10.712   2.086   5.154 -0.1363  1.2908  1.0142
  216MOL0     H28463  10.916   1.946   5.152  1.7344  0.4840  0.4283
  216MOL0     H28464  11.001   2.051   5.046 -0.4889  0.1822  0.8384
  216MOL0     H28465  10.912   2.009   4.777  0.4065  2.0933  2.9190
  216MOL0     H28466  10.877   1.841   4.585  0.4293 -0.3807 -1.4708
  216MOL0     H28467  10.707   1.818   4.581 -1.2686 -2.0220  2.0530
  216MOL0     H28468  10.710   1.595   4.598  1.3259 -3.0441 -3.1748
  216MOL0     H28469  10.862   1.579   4.693  0.1446  1.2515 -0.0131
  216MOL0     H28470  10.827   1.649   4.388  4.3048  1.3474 -0.9154
  216MOL0     H28471  10.977   1.652   4.462  0.3788 -1.4191 -0.4210
  216MOL0     H28472  10.873   1.466   4.329  0.7068 -0.1967  0.4280
  216MOL0     H28473  10.813   1.404   4.482 -1.5758 -1.5500 -3.6499
  216MOL0     H28474  11.192   1.303   4.638 -1.1501  0.5233  0.5049
  216MOL0     H28475  11.255   1.060   4.620  0.4684 -0.3455 -0.6746
  216MOL0     H28476  11.436   0.683   4.697  0.1809 -2.5456  0.5869
  216MOL0     H28477  11.583   0.493   4.654  0.5017  0.0249 -0.5034
  216MOL0     H28478  11.763   0.478   4.235 -0.7514 -0.6738 -0.6847
  216MOL0     H28479  11.617   0.374   4.257 -0.3427 -0.7631  0.8441
  216MOL0     H28480  11.745   0.196   4.352 -1.6399  0.9304 -0.8940
  216MOL0     H28481  11.894   0.290   4.336 -0.0816 -1.9972  2.0347
  216MOL0     H28482  11.883   0.143   4.149 -1.4937 -1.2081  1.7729
  216MOL0     H28483  11.852   0.307   4.088 -1.5074  0.8057  0.3092
  216MOL0     H28484  11.638   0.100   4.149  0.4455 -0.8082 -0.2926
  216MOL0     H28485  11.609   0.252   4.090  0.4079  1.0629  2.3110
  216MOL0     H28486  11.787   0.032   3.972 -0.4727 -0.0289  2.7561
  216MOL0     H28487  11.747   0.182   3.881  1.9386 -0.4688  1.4835
  216MOL0     H28488  11.504   0.148   3.888 -0.7337 -1.3499 -0.2034
  216MOL0     H28489  11.513   0.007   4.002 -2.0791 -2.6606 -2.0146
  216MOL0     H28490  11.466  -0.055   3.769 -0.5402  3.0751  0.2336
  216MOL0     H28491  11.607   0.041   3.712 -0.6004  4.4807  1.6582
  216MOL0     H28492  11.760  -0.126   3.827 -0.0723  0.5754  0.9689
  216MOL0     H28493  11.649  -0.189   3.701  0.2889  1.4686 -1.6337
  216MOL0     H28494  11.618   0.642   4.252  2.6046  1.9814  1.2785
  216MOL0     H28495  11.454   0.807   4.299 -2.7139 -1.6099  0.9451
  216MOL0     H28496  11.058   1.009   4.252  0.7507 -1.6922  0.0972
  216MOL0     H28497  10.960   1.247   4.279  0.1718  3.4113  0.8229
  216MOL0     H28498  10.243   2.935   4.749 -0.4249 -1.6376  0.9553
  216MOL0     H28499  10.019   3.038   4.769 -1.8804 -0.1222  1.6762
  216MOL0     H28500   9.858   3.553   5.147 -1.5646  1.1009  0.1166
  216MOL0     H28501   9.652   3.655   5.121  1.1065  0.6058 -1.5368
  216MOL0     H28502   9.393   3.720   5.023 -1.4540  1.4306  3.5546
  216MOL0     H28503   9.417   3.623   5.163 -0.8285 -0.8028  0.0241
  216MOL0     H28504   9.177   3.613   4.975 -0.0107 -2.2542 -0.7981
  216MOL0     H28505   9.200   3.500   5.110 -0.3178  0.3714  1.2199
  216MOL0     H28506   9.210   3.797   5.117 -1.5387  0.5940  1.2840
  216MOL0     H28507   9.213   3.682   5.261 -1.4119 -0.6908  0.7641
  216MOL0     H28508   8.974   3.756   5.084 -2.1706 -2.5362 -1.4741
  216MOL0     H28509   8.978   3.614   5.185 -2.3149  1.6483 -3.6269
  216MOL0     H28510   8.886   3.937   5.436 -1.6773  0.5205  0.0886
  216MOL0     H28511   9.501   3.300   4.914  0.8340 -2.6891  1.9110
  216MOL0     H28512   9.721   3.200   4.934  0.5945 -1.8550  1.1488
  217MOL0     O28513   7.263   1.060   4.288 -0.5906 -0.5991  0.3988
  217MOL0     C28514   7.343   1.070   4.385 -0.3909 -1.5769 -0.2940
  217MOL0     O28515   7.327   1.149   4.497  0.0995  0.1598 -0.8728
  217MOL0     C28516   7.227   1.247   4.506 -0.3690  0.7723  0.6266
  217MOL0     C28517   7.153   1.262   4.625 -0.4584 -0.5089  0.2623
  217MOL0     C28518   7.044   1.340   4.637  0.7975  0.9649  0.3853
  217MOL0     C28519   6.992   1.418   4.535 -0.3530  0.5250 -0.8852
  217MOL0     O28520   6.869   1.481   4.557 -0.0997 -0.2571  0.2744
  217MOL0     C28521   6.809   1.573   4.458 -0.3764  0.1560  0.7693
  217MOL0     C28522   6.835   1.724   4.508 -0.2017  1.2522  0.2080
  217MOL0     C28523   6.981   1.767   4.511 -0.3546  0.5945 -0.1745
  217MOL0     C28524   7.023   1.808   4.374 -0.4093 -0.1961  0.3145
  217MOL0     C28525   7.177   1.802   4.356 -0.3598 -1.4566  0.1781
  217MOL0     C28526   7.265   1.853   4.470  0.1607  0.9471  1.0312
  217MOL0     C28527   7.416   1.845   4.430 -0.3314  0.4077 -0.4760
  217MOL0     C28528   7.525   1.860   4.543  0.2344  0.2496  0.2033
  217MOL0     N28529   7.649   1.924   4.504 -0.3066 -1.0792  0.0788
  217MOL0     C28530   7.670   2.052   4.454 -0.1131 -0.1178  0.1771
  217MOL0     C28531   7.810   2.054   4.444  1.7362 -0.5222 -0.5851
  217MOL0     C28532   7.902   2.169   4.386 -0.6711  0.1870 -0.7573
  217MOL0     C28533   7.937   2.271   4.495 -0.1661  0.8060  0.9432
  217MOL0     C28534   8.052   2.355   4.438 -0.2016  0.1097 -0.8861
  217MOL0     C28535   8.074   2.480   4.527 -0.3842  0.1980 -0.1376
  217MOL0     O28536   8.198   2.549   4.497  0.2196  0.1985  0.0118
  217MOL0     C28537   8.323   2.504   4.529 -0.1042 -0.8234  1.3515
  217MOL0     C28538   8.435   2.565   4.461  0.7188  0.4696 -0.3013
  217MOL0     C28539   8.567   2.548   4.519 -0.3513 -0.7589 -0.1075
  217MOL0     C28540   8.587   2.455   4.619  0.2312  1.2092  0.2575
  217MOL0     C28541   8.728   2.443   4.683  0.6475 -0.2154 -0.1973
  217MOL0     O28542   8.835   2.492   4.609 -0.0362 -0.0280 -0.5259
  217MOL0     C28543   8.952   2.428   4.614 -0.5381 -0.1191  1.9762
  217MOL0     C28544   9.056   2.500   4.545 -0.5931  0.3176  0.9497
  217MOL0     C28545   9.180   2.439   4.515 -0.2827  0.4222  0.1364
  217MOL0     C28546   9.205   2.306   4.544  0.0786  0.0243  0.5277
  217MOL0     O28547   9.312   2.230   4.501 -0.0325 -0.6410  0.0323
  217MOL0     C28548   9.391   2.259   4.385 -0.0789 -0.2481 -0.6986
  217MOL0     C28549   9.543   2.254   4.425  0.9938 -0.6001 -0.0260
  217MOL0     C28550   9.586   2.361   4.522 -0.2270 -0.1428 -0.3822
  217MOL0     C28551   9.743   2.353   4.532 -0.6847 -0.1954  0.2750
  217MOL0     C28552   9.782   2.476   4.615 -0.2908  0.0112  0.5513
  217MOL0     C28553   9.933   2.489   4.622  0.5075  0.1064  0.4979
  217MOL0     C28554  10.007   2.519   4.483 -0.0665  0.2282 -0.8061
  217MOL0     C28555  10.161   2.516   4.497  0.3374 -1.0501  0.1843
  217MOL0    Cl28556  10.224   2.578   4.657 -0.0248  0.4461 -0.1532
  217MOL0     C28557   9.104   2.235   4.609 -0.9028 -0.4732 -0.5977
  217MOL0     C28558   8.984   2.297   4.637  0.2178  0.5790 -0.0845
  217MOL0     O28559   8.737   2.376   4.780 -0.0799  0.2959  0.1679
  217MOL0     C28560   8.471   2.395   4.678  0.1288 -0.7841 -0.6148
  217MOL0     C28561   8.344   2.426   4.638 -0.3962  1.1660 -0.3654
  217MOL0     N28562   7.858   1.936   4.496 -0.4416 -0.0590  0.2520
  217MOL0     N28563   7.763   1.858   4.533 -0.2864 -0.8834  0.5287
  217MOL0     C28564   7.066   1.411   4.412  0.7135  0.4503  0.8789
  217MOL0     C28565   7.184   1.333   4.406 -0.5687 -0.3808 -0.1848
  217MOL0     C28566   7.457   0.971   4.379  0.7923 -0.4426  0.1287
  217MOL0     C28567   7.478   0.895   4.259  0.9937  0.7229 -0.1970
  217MOL0     C28568   7.564   0.786   4.267 -1.4068  0.3697  0.8855
  217MOL0     C28569   7.647   0.765   4.381  0.7748 -1.0151 -0.9802
  217MOL0     O28570   7.724   0.656   4.391 -0.0282  0.0858 -0.0946
  217MOL0     C28571   7.855   0.680   4.443  0.0864  0.9008 -0.7001
  217MOL0     C28572   7.889   0.551   4.526 -0.4155  0.0996  0.5512
  217MOL0     C28573   7.905   0.433   4.429  0.0814  0.3470  0.2928
  217MOL0     C28574   7.895   0.302   4.496 -0.2812 -0.1224  1.0716
  217MOL0     C28575   8.011   0.263   4.580 -0.4744 -0.0102 -0.1456
  217MOL0     C28576   8.098   0.233   4.661 -0.0275 -0.3204 -0.0238
  217MOL0     C28577   7.635   0.848   4.494 -0.4915 -0.5067  0.6521
  217MOL0     C28578   7.533   0.946   4.489  0.3053  0.1878  1.0664
  217MOL0     H28579   7.182   1.202   4.711 -1.1646 -3.3409 -1.3374
  217MOL0     H28580   6.993   1.354   4.732 -0.5607  1.2724 -0.3597
  217MOL0     H28581   6.703   1.547   4.450 -0.0601 -0.7015 -1.4719
  217MOL0     H28582   6.860   1.557   4.362  0.3696 -0.4289  1.2562
  217MOL0     H28583   6.788   1.724   4.607  0.7976  0.0006  0.7045
  217MOL0     H28584   6.787   1.792   4.437  0.9675 -0.0843 -1.9464
  217MOL0     H28585   7.051   1.692   4.548  1.2949  2.6134  0.9979
  217MOL0     H28586   6.986   1.857   4.574 -2.5638 -0.6171  1.8789
  217MOL0     H28587   6.990   1.736   4.299 -1.6573  0.5181  0.1464
  217MOL0     H28588   6.981   1.907   4.355 -1.2777  0.0656  3.0796
  217MOL0     H28589   7.206   1.860   4.268  1.0794 -3.5379 -0.8044
  217MOL0     H28590   7.197   1.698   4.328 -2.1357 -1.6278 -0.6284
  217MOL0     H28591   7.245   1.780   4.549  0.1387 -0.3889 -0.1683
  217MOL0     H28592   7.239   1.956   4.494  0.0165  1.0242  0.5528
  217MOL0     H28593   7.435   1.746   4.385  4.9625  1.2903 -0.7851
  217MOL0     H28594   7.436   1.925   4.359  2.1841 -1.4645 -2.0447
  217MOL0     H28595   7.551   1.760   4.578 -2.0602 -0.4219  0.1328
  217MOL0     H28596   7.469   1.916   4.618 -0.5914 -0.2575 -0.0181
  217MOL0     H28597   7.608   2.132   4.415 -2.6102 -2.9715 -2.2307
  217MOL0     H28598   7.854   2.228   4.308  1.7432  1.5096 -1.3512
  217MOL0     H28599   7.999   2.133   4.350  0.2121  3.7421 -2.4431
  217MOL0     H28600   7.963   2.218   4.587 -0.9559  0.1097  0.7757
  217MOL0     H28601   7.854   2.338   4.518  1.6603  4.4695 -2.0418
  217MOL0     H28602   8.131   2.280   4.439 -0.0406  0.2650 -1.6223
  217MOL0     H28603   8.023   2.384   4.337  1.0438  1.3083 -0.9155
  217MOL0     H28604   8.056   2.449   4.630 -0.4703  0.8796  0.0571
  217MOL0     H28605   7.993   2.547   4.497 -2.0737 -1.5992  0.2187
  217MOL0     H28606   8.431   2.616   4.366 -0.0362  1.2518  0.1342
  217MOL0     H28607   8.653   2.591   4.468 -0.7680 -2.7325 -2.6585
  217MOL0     H28608   9.051   2.607   4.525 -0.0178  0.1106 -0.4244
  217MOL0     H28609   9.257   2.500   4.470  1.1716 -0.2387  1.6268
  217MOL0     H28610   9.351   2.355   4.350 -1.0276 -0.7017 -0.9004
  217MOL0     H28611   9.372   2.181   4.311 -0.5847 -0.4905 -0.3235
  217MOL0     H28612   9.595   2.252   4.328  1.0507  2.5527 -0.1593
  217MOL0     H28613   9.575   2.164   4.479  0.4290 -0.8149 -0.0472
  217MOL0     H28614   9.543   2.325   4.616  0.3037  0.6087  0.1612
  217MOL0     H28615   9.548   2.461   4.499 -0.7662 -0.0656  0.7537
  217MOL0     H28616   9.781   2.268   4.589  0.1781  0.6422  0.9776
  217MOL0     H28617   9.791   2.353   4.434 -1.4341 -3.6115 -0.2112
  217MOL0     H28618   9.740   2.458   4.715  0.5243 -0.8079  0.7652
  217MOL0     H28619   9.743   2.565   4.565  2.1004 -0.0892 -1.6683
  217MOL0     H28620   9.962   2.395   4.669 -0.9998 -0.6468  0.0074
  217MOL0     H28621   9.960   2.574   4.684 -1.7169  2.2956 -1.3360
  217MOL0     H28622   9.977   2.447   4.406 -0.6913 -0.0004 -0.3619
  217MOL0     H28623   9.972   2.617   4.450 -1.0875  0.8300  1.8090
  217MOL0     H28624  10.213   2.577   4.423  1.1632  0.3335  1.8165
  217MOL0     H28625  10.204   2.418   4.476 -0.9307 -1.5194 -0.3498
  217MOL0     H28626   9.129   2.133   4.637 -0.5933 -0.4346 -0.7359
  217MOL0     H28627   8.904   2.243   4.688 -0.1659  1.0664 -0.1595
  217MOL0     H28628   8.490   2.323   4.757  0.3093  1.3704  1.4437
  217MOL0     H28629   8.261   2.385   4.696  1.9874  0.2975  2.6870
  217MOL0     H28630   7.034   1.469   4.326  2.4766  1.2575  0.7287
  217MOL0     H28631   7.242   1.329   4.315 -0.8975  1.4035 -0.5059
  217MOL0     H28632   7.413   0.909   4.173  1.2070 -1.2846 -0.7416
  217MOL0     H28633   7.564   0.716   4.184 -2.1867  1.6349 -0.2316
  217MOL0     H28634   7.858   0.766   4.510 -3.6766  0.9486 -0.3905
  217MOL0     H28635   7.923   0.704   4.361  0.5589  2.3923  0.1007
  217MOL0     H28636   7.985   0.566   4.576 -0.9489  1.8556  1.1319
  217MOL0     H28637   7.812   0.539   4.603 -2.6575  0.3186 -1.5192
  217MOL0     H28638   8.001   0.442   4.377 -0.7688  3.8670 -0.9417
  217MOL0     H28639   7.819   0.444   4.363  1.0918 -1.1532 -1.3516
  217MOL0     H28640   7.797   0.300   4.545 -1.2910  3.3250 -0.5024
  217MOL0     H28641   7.891   0.226   4.417 -0.5470 -0.3341  1.2874
  217MOL0     H28642   8.171   0.186   4.723  1.5049 -0.1558 -1.6067
  217MOL0     H28643   7.691   0.846   4.587 -1.6360  0.2517  1.3946
  217MOL0     H28644   7.502   1.011   4.571 -1.8316 -0.6428  0.9753
  218MOL0     O28645   4.487   6.545   0.916  0.2369 -0.1573 -0.3096
  218MOL0     C28646   4.533   6.640   0.861  0.7800 -0.3051 -0.7896
  218MOL0     O28647   4.547   6.767   0.918 -0.0248 -0.8206  0.1234
  218MOL0     C28648   4.507   6.779   1.047 -1.2876  0.6311  0.2638
  218MOL0     C28649   4.380   6.750   1.085  0.0854  0.0230 -0.0753
  218MOL0     C28650   4.346   6.792   1.212 -0.6616 -0.4010  0.8512
  218MOL0     C28651   4.440   6.845   1.307  0.0721 -0.4265 -0.3570
  218MOL0     O28652   4.397   6.858   1.435  0.2093  0.1963 -0.1065
  218MOL0     C28653   4.422   6.989   1.496  1.1062 -0.2128  0.2887
  218MOL0     C28654   4.366   6.990   1.643  0.1198  0.1331 -0.0041
  218MOL0     C28655   4.359   7.129   1.712  0.4273 -0.1949 -0.8397
  218MOL0     C28656   4.277   7.116   1.842 -0.3580 -0.2568  0.1462
  218MOL0     C28657   4.194   7.240   1.881 -0.7589 -0.6408 -0.2789
  218MOL0     C28658   4.296   7.350   1.922  0.6861 -0.3624  0.1556
  218MOL0     C28659   4.250   7.495   1.934  0.0770 -0.3873  0.0573
  218MOL0     C28660   4.360   7.579   1.990 -0.4133  0.5238 -0.2706
  218MOL0     N28661   4.333   7.721   1.979  0.8500 -0.2831 -1.2323
  218MOL0     C28662   4.344   7.813   1.881 -0.5185  0.3081  0.3221
  218MOL0     C28663   4.304   7.933   1.937  0.8591  0.2844  0.0018
  218MOL0     C28664   4.283   8.067   1.872  0.0055 -0.3164 -1.2287
  218MOL0     C28665   4.137   8.103   1.850 -0.1650  0.4032  0.1862
  218MOL0     C28666   4.111   8.252   1.827 -0.4064 -0.4637  0.1659
  218MOL0     C28667   4.188   8.303   1.703  0.7460  0.3942 -0.8606
  218MOL0     O28668   4.174   8.199   1.598 -0.1780 -0.4649 -0.5175
  218MOL0     C28669   4.194   8.243   1.462 -0.2180  0.0744  0.0704
  218MOL0     C28670   4.292   8.344   1.427  0.3066  0.4450 -0.4498
  218MOL0     C28671   4.333   8.347   1.294 -0.4868 -0.4529 -0.0362
  218MOL0     C28672   4.289   8.259   1.198 -0.2436  0.6871 -0.8800
  218MOL0     C28673   4.344   8.261   1.053  0.3270 -0.6070  0.3225
  218MOL0     O28674   4.297   8.168   0.972  0.5440 -0.9034 -0.3117
  218MOL0     C28675   4.331   8.131   0.844 -0.1601  0.3994  0.8281
  218MOL0     C28676   4.435   8.189   0.768  0.5434 -0.1228  0.8669
  218MOL0     C28677   4.472   8.133   0.644  0.0008  0.4634  0.0849
  218MOL0     C28678   4.389   8.036   0.576 -0.1084 -0.0028 -0.0066
  218MOL0     O28679   4.417   7.997   0.451 -0.0514  0.7713 -0.3405
  218MOL0     C28680   4.363   7.868   0.410 -0.4862  0.2147 -0.0894
  218MOL0     C28681   4.425   7.811   0.285  0.3883 -0.3307 -0.1233
  218MOL0     C28682   4.369   7.869   0.166  1.0121  0.4639  0.6468
  218MOL0     C28683   4.475   7.874   0.052  0.1315 -0.3221 -0.2294
  218MOL0     C28684   4.441   7.979  -0.055  0.2820  0.0024  0.2568
  218MOL0     C28685   4.551   8.004  -0.160 -0.0807  0.0041 -0.3085
  218MOL0     C28686   4.551   7.886  -0.265  0.8188 -0.5733 -0.1860
  218MOL0     C28687   4.673   7.902  -0.359 -0.0885  0.0901  0.6260
  218MOL0    Cl28688   4.644   8.057  -0.457  0.1161  0.1284 -0.4852
  218MOL0     C28689   4.279   7.991   0.651 -0.1181  1.2630 -0.9679
  218MOL0     C28690   4.255   8.029   0.781  0.2574  0.4784  0.4217
  218MOL0     O28691   4.435   8.335   1.016  0.4651 -0.6001  0.0061
  218MOL0     C28692   4.189   8.168   1.235 -0.7510 -0.3878  1.1632
  218MOL0     C28693   4.140   8.160   1.361  1.1574  1.0146  0.0238
  218MOL0     N28694   4.271   7.899   2.067  0.8837 -0.6877 -0.0487
  218MOL0     N28695   4.274   7.779   2.092 -0.5270  0.5278  0.2339
  218MOL0     C28696   4.566   6.872   1.265 -0.8276 -0.0170 -0.5947
  218MOL0     C28697   4.606   6.836   1.137  0.8493 -0.1134 -0.3375
  218MOL0     C28698   4.582   6.624   0.722  0.0792 -0.4439  0.3770
  218MOL0     C28699   4.634   6.731   0.646  1.5794  0.8331  0.1154
  218MOL0     C28700   4.679   6.706   0.516  0.2403 -0.2919 -0.2231
  218MOL0     C28701   4.679   6.577   0.468  0.2361 -0.6070  0.1593
  218MOL0     O28702   4.707   6.549   0.334 -0.5237 -0.5932  0.0688
  218MOL0     C28703   4.847   6.557   0.304 -1.0838 -0.2436  0.7072
  218MOL0     C28704   4.870   6.611   0.169 -0.6191  0.0769 -0.2286
  218MOL0     C28705   4.820   6.755   0.155  0.7895  0.2210  0.4623
  218MOL0     C28706   4.837   6.787   0.006 -0.2187 -0.3729  0.1384
  218MOL0     C28707   4.814   6.931  -0.025 -0.2801 -0.8169  0.6877
  218MOL0     C28708   4.791   7.054  -0.037 -1.4291  0.2535 -0.1095
  218MOL0     C28709   4.637   6.467   0.546  0.5919  0.3475  0.2861
  218MOL0     C28710   4.582   6.493   0.667  1.1012  0.3604 -0.2663
  218MOL0     H28711   4.315   6.703   1.012  1.0321 -0.2250 -0.7768
  218MOL0     H28712   4.240   6.796   1.234 -1.4914  1.8352 -2.5982
  218MOL0     H28713   4.362   7.061   1.439  0.3999 -3.0101 -2.8433
  218MOL0     H28714   4.528   7.013   1.493  0.9631  0.4672  0.4586
  218MOL0     H28715   4.432   6.925   1.701  2.0199  1.5887 -0.4204
  218MOL0     H28716   4.266   6.946   1.638 -0.1935  0.5792  1.7358
  218MOL0     H28717   4.316   7.207   1.648 -4.3731 -0.5316  1.5374
  218MOL0     H28718   4.464   7.150   1.731  0.2462 -0.7579  0.9081
  218MOL0     H28719   4.200   7.042   1.818  0.4571 -1.5377  1.3635
  218MOL0     H28720   4.336   7.093   1.931 -0.6802  0.1741  0.4751
  218MOL0     H28721   4.128   7.214   1.965 -0.8846  1.1552  0.2201
  218MOL0     H28722   4.128   7.284   1.805  1.7859  2.1509 -1.0330
  218MOL0     H28723   4.377   7.349   1.848  1.5792 -2.9310  1.0295
  218MOL0     H28724   4.333   7.324   2.022  0.7588  4.8908  1.7822
  218MOL0     H28725   4.220   7.542   1.840  0.8276 -1.5563 -0.7708
  218MOL0     H28726   4.161   7.506   1.998 -1.3999  1.0312 -2.0988
  218MOL0     H28727   4.462   7.553   1.959  0.7310 -2.7731  4.8687
  218MOL0     H28728   4.372   7.542   2.093 -1.3017 -1.7728 -0.9286
  218MOL0     H28729   4.380   7.787   1.782  0.5629  0.8035  0.5697
  218MOL0     H28730   4.336   8.063   1.776  0.1319 -0.6249 -1.1467
  218MOL0     H28731   4.338   8.136   1.936 -0.8829 -1.8959  1.3921
  218MOL0     H28732   4.092   8.087   1.949  0.1261  1.5631  0.5222
  218MOL0     H28733   4.099   8.032   1.776  0.4642 -1.5624  1.6585
  218MOL0     H28734   4.004   8.269   1.813 -0.8481 -0.4305  3.0357
  218MOL0     H28735   4.136   8.301   1.921  0.2844 -3.1956  1.5299
  218MOL0     H28736   4.292   8.325   1.726  0.1095  2.5568  0.2008
  218MOL0     H28737   4.139   8.395   1.670 -2.4187 -1.0705 -0.6616
  218MOL0     H28738   4.338   8.394   1.511 -1.0178  3.6689 -1.4874
  218MOL0     H28739   4.408   8.424   1.278  1.8269 -1.9880  2.4571
  218MOL0     H28740   4.474   8.286   0.796 -1.3454  0.4304  1.7151
  218MOL0     H28741   4.558   8.180   0.599 -1.1168  3.2390  0.6769
  218MOL0     H28742   4.254   7.864   0.403 -0.3660 -3.2174 -2.4990
  218MOL0     H28743   4.395   7.794   0.483  2.7007  0.1363 -1.4073
  218MOL0     H28744   4.403   7.705   0.272  0.5734 -0.4538  0.5440
  218MOL0     H28745   4.534   7.825   0.284  0.0805  3.5173 -2.2863
  218MOL0     H28746   4.344   7.973   0.189  4.0489  1.0544  1.6841
  218MOL0     H28747   4.279   7.823   0.123  0.2523  2.2755  0.1603
  218MOL0     H28748   4.568   7.898   0.103 -1.2831  1.3617  1.7199
  218MOL0     H28749   4.468   7.783  -0.010  0.0794  1.3324 -2.7988
  218MOL0     H28750   4.403   8.066  -0.001  1.8235 -0.2837  1.8856
  218MOL0     H28751   4.351   7.947  -0.109  1.1076 -2.7504  0.3870
  218MOL0     H28752   4.649   8.022  -0.115  0.2641 -1.3221 -0.4878
  218MOL0     H28753   4.526   8.095  -0.215  2.1021 -0.9558 -3.0852
  218MOL0     H28754   4.556   7.784  -0.228 -3.9551 -0.5113  1.3605
  218MOL0     H28755   4.461   7.892  -0.328 -0.4766  0.2287  1.6305
  218MOL0     H28756   4.694   7.814  -0.421  0.1508  1.1468 -0.8496
  218MOL0     H28757   4.759   7.912  -0.292  0.6417 -0.9861 -0.1005
  218MOL0     H28758   4.210   7.913   0.620 -2.3820  3.3762 -1.6708
  218MOL0     H28759   4.180   7.977   0.840 -0.3234 -2.9192 -2.9484
  218MOL0     H28760   4.151   8.100   1.159 -0.7806 -0.6130  1.3782
  218MOL0     H28761   4.076   8.076   1.386  2.3522  0.2076  0.4813
  218MOL0     H28762   4.656   6.899   1.321  3.4694  0.5182 -6.7173
  218MOL0     H28763   4.709   6.848   1.103  0.8000  0.1195 -0.4103
  218MOL0     H28764   4.647   6.833   0.683 -1.1612  0.5649  2.2169
  218MOL0     H28765   4.700   6.790   0.451 -0.8888 -0.3568 -0.7031
  218MOL0     H28766   4.891   6.457   0.308 -1.6161 -0.4794  0.6819
  218MOL0     H28767   4.904   6.623   0.370 -2.9907  1.5889  0.6215
  218MOL0     H28768   4.977   6.614   0.147 -0.4252  0.2497  0.7054
  218MOL0     H28769   4.819   6.541   0.101 -1.7510  1.1948 -0.5641
  218MOL0     H28770   4.883   6.822   0.214 -0.6286 -0.0038  2.3467
  218MOL0     H28771   4.724   6.752   0.208  0.9611  1.1323  0.8391
  218MOL0     H28772   4.941   6.758  -0.014  0.2934  2.3108 -1.6342
  218MOL0     H28773   4.781   6.723  -0.063  0.0152 -2.2218  1.5718
  218MOL0     H28774   4.758   7.152  -0.066  0.2772  0.4367 -1.6249
  218MOL0     H28775   4.636   6.365   0.509 -0.0735  0.6720 -0.6406
  218MOL0     H28776   4.552   6.414   0.734  3.4875 -2.8975 -2.6969
  219MOL0     O28777   1.540   9.025   7.648  1.2121 -0.2326  0.4507
  219MOL0     C28778   1.512   9.108   7.562 -0.5309 -0.1139  0.0007
  219MOL0     O28779   1.451   9.230   7.583 -0.2052 -0.3675 -0.0468
  219MOL0     C28780   1.480   9.293   7.706  0.6276 -0.1422  0.2058
  219MOL0     C28781   1.446   9.236   7.831  0.5216  0.0213  0.0663
  219MOL0     C28782   1.478   9.305   7.945  0.5472  0.1669 -1.5055
  219MOL0     C28783   1.534   9.434   7.941  0.7872  0.4943 -0.0902
  219MOL0     O28784   1.540   9.523   8.041  0.2271  0.0413  0.4675
  219MOL0     C28785   1.473   9.492   8.169 -0.4230  0.4002  0.8146
  219MOL0     C28786   1.501   9.598   8.271 -0.1368 -0.9567 -0.3602
  219MOL0     C28787   1.647   9.632   8.288  0.2908 -0.2333  1.0107
  219MOL0     C28788   1.677   9.696   8.433  0.1560  0.0244 -0.3483
  219MOL0     C28789   1.831   9.740   8.462  0.5561  0.0950 -0.2932
  219MOL0     C28790   1.902   9.833   8.362  0.1244 -1.1238 -0.0727
  219MOL0     C28791   2.043   9.895   8.412  0.1852 -0.0322 -0.1151
  219MOL0     C28792   2.139   9.908   8.298 -0.5540 -0.5902  0.2533
  219MOL0     N28793   2.235  10.018   8.327  0.4566  0.3365 -0.1443
  219MOL0     C28794   2.205  10.150   8.303  0.7596 -0.3171 -0.1161
  219MOL0     C28795   2.308  10.225   8.353  0.3239 -0.1644  0.8507
  219MOL0     C28796   2.347  10.365   8.329  1.1318 -0.4523 -0.8500
  219MOL0     C28797   2.468  10.381   8.231  0.0289  0.0202 -0.3250
  219MOL0     C28798   2.565  10.492   8.276 -0.5758 -0.5442 -0.4722
  219MOL0     C28799   2.645  10.463   8.400 -0.0568  0.2835 -0.0808
  219MOL0     O28800   2.767  10.408   8.345  0.0681  0.5945  0.1452
  219MOL0     C28801   2.807  10.286   8.391  0.0122 -0.5713 -0.2515
  219MOL0     C28802   2.722  10.183   8.441  1.0363 -0.2714  1.1437
  219MOL0     C28803   2.769  10.053   8.476 -0.2428 -0.8046 -0.3591
  219MOL0     C28804   2.905  10.027   8.472  0.1352 -0.5052 -0.4662
  219MOL0     C28805   2.958   9.888   8.510  0.1642  0.8907 -0.4027
  219MOL0     O28806   2.880   9.804   8.587  0.2125  0.1565 -0.0579
  219MOL0     C28807   2.924   9.677   8.597  0.0649 -0.7161  0.3726
  219MOL0     C28808   3.008   9.637   8.701 -0.4053 -0.5096 -0.2388
  219MOL0     C28809   3.073   9.514   8.691  0.2725 -0.4998 -0.4535
  219MOL0     C28810   3.061   9.426   8.577 -0.0867  0.3575 -0.3863
  219MOL0     O28811   3.119   9.302   8.552  0.7290  0.1444 -0.2125
  219MOL0     C28812   3.207   9.260   8.655  0.1175  0.4393  0.4517
  219MOL0     C28813   3.327   9.173   8.601  0.8898 -0.0635 -0.2667
  219MOL0     C28814   3.359   9.193   8.450  0.2489  0.1241 -0.3862
  219MOL0     C28815   3.389   9.333   8.407 -0.4811  0.3612  0.6783
  219MOL0     C28816   3.418   9.347   8.256 -0.3821 -0.2391  0.0786
  219MOL0     C28817   3.488   9.482   8.218  1.0674  0.3966 -0.3101
  219MOL0     C28818   3.422   9.624   8.258 -0.2261  0.3555 -0.0857
  219MOL0     C28819   3.519   9.736   8.229 -0.2368  0.2884  0.0272
  219MOL0    Cl28820   3.537   9.761   8.046  0.2679 -0.1469 -0.1950
  219MOL0     C28821   2.985   9.478   8.466  1.2379  0.5527  0.7373
  219MOL0     C28822   2.915   9.604   8.480 -0.7246 -1.0277  0.8541
  219MOL0     O28823   3.074   9.870   8.468 -0.5899  0.5578  0.5078
  219MOL0     C28824   2.989  10.124   8.420 -0.6644  0.3854  0.0110
  219MOL0     C28825   2.950  10.250   8.384 -0.6220 -0.2629  0.7683
  219MOL0     N28826   2.392  10.138   8.410  0.4040  0.3520  0.0164
  219MOL0     N28827   2.348  10.012   8.400  1.1009 -0.7118  0.5273
  219MOL0     C28828   1.573   9.489   7.819 -0.4824 -0.0028 -0.9266
  219MOL0     C28829   1.540   9.420   7.704 -0.6899  0.8377 -0.2029
  219MOL0     C28830   1.546   9.101   7.415 -0.0036 -0.8373  0.2122
  219MOL0     C28831   1.493   9.197   7.325  0.2326 -1.0779  0.3377
  219MOL0     C28832   1.517   9.195   7.192  0.3183  0.7259  0.3965
  219MOL0     C28833   1.606   9.097   7.141  0.7929 -0.2725 -0.4671
  219MOL0     O28834   1.621   9.103   7.006 -0.2830 -0.1259  0.1232
  219MOL0     C28835   1.731   9.036   6.936  0.4740 -0.5968  0.0119
  219MOL0     C28836   1.745   9.075   6.782  0.5481 -0.0087 -0.4467
  219MOL0     C28837   1.617   9.067   6.702  0.0273 -0.4890 -0.4602
  219MOL0     C28838   1.643   9.105   6.558  0.3954  0.1244  0.0326
  219MOL0     C28839   1.513   9.118   6.494  0.5297 -0.1803 -1.3479
  219MOL0     C28840   1.412   9.137   6.435  0.0062  0.3283  0.0439
  219MOL0     C28841   1.654   8.993   7.228  0.0327  0.1323 -0.8702
  219MOL0     C28842   1.628   8.995   7.363  0.0216 -0.6454  0.2666
  219MOL0     H28843   1.397   9.139   7.829 -0.0998  0.3230  0.3027
  219MOL0     H28844   1.452   9.271   8.045 -0.0794  1.9629 -1.0204
  219MOL0     H28845   1.497   9.391   8.203  0.4912 -0.4759 -2.1125
  219MOL0     H28846   1.368   9.487   8.138 -0.2808 -3.0123  0.5545
  219MOL0     H28847   1.469   9.549   8.364  1.6514 -0.1398  0.7485
  219MOL0     H28848   1.436   9.683   8.247  1.2466 -0.2209 -1.6377
  219MOL0     H28849   1.673   9.696   8.203 -1.4713 -2.3954 -1.3066
  219MOL0     H28850   1.697   9.538   8.262 -0.1169  0.4659 -2.8594
  219MOL0     H28851   1.629   9.795   8.427  1.7898  0.9753  1.4237
  219MOL0     H28852   1.642   9.639   8.519  1.4955  1.2183  1.0473
  219MOL0     H28853   1.883   9.645   8.477  0.2491 -0.5300 -2.6708
  219MOL0     H28854   1.837   9.791   8.558 -0.0007  3.4331 -1.8660
  219MOL0     H28855   1.836   9.911   8.322  1.0342 -0.9428 -1.2858
  219MOL0     H28856   1.932   9.771   8.277 -1.4402 -0.6870 -0.9882
  219MOL0     H28857   2.015   9.990   8.459  2.5804  0.0089  1.3903
  219MOL0     H28858   2.093   9.839   8.492  1.9474 -0.1007 -1.2139
  219MOL0     H28859   2.093   9.919   8.199  0.4914 -1.8216 -0.4120
  219MOL0     H28860   2.201   9.818   8.286  2.2716  1.2234  0.3804
  219MOL0     H28861   2.118  10.188   8.250  1.4361 -0.9103 -1.7486
  219MOL0     H28862   2.374  10.407   8.426 -1.3375  2.4161 -1.2394
  219MOL0     H28863   2.258  10.422   8.301 -1.9636 -3.9847  0.9830
  219MOL0     H28864   2.445  10.394   8.125 -2.7477 -2.7384 -0.2011
  219MOL0     H28865   2.525  10.288   8.227 -2.6846 -1.7698  0.1292
  219MOL0     H28866   2.636  10.527   8.201  1.7924  0.3797  2.0323
  219MOL0     H28867   2.502  10.579   8.295  2.5935  1.6544  0.7144
  219MOL0     H28868   2.605  10.390   8.472  0.4964 -1.4161 -1.4342
  219MOL0     H28869   2.660  10.556   8.456  0.7008  2.1813 -3.2120
  219MOL0     H28870   2.615  10.201   8.441  1.5791  4.2239 -0.8022
  219MOL0     H28871   2.688   9.986   8.503 -0.2854 -0.7956 -0.4605
  219MOL0     H28872   3.009   9.705   8.786 -1.2670  0.2407 -0.8023
  219MOL0     H28873   3.140   9.496   8.775  1.4586 -1.3851 -1.5706
  219MOL0     H28874   3.152   9.203   8.731 -0.2402 -3.0648 -2.2089
  219MOL0     H28875   3.265   9.345   8.694 -0.2317 -0.7284  3.8724
  219MOL0     H28876   3.303   9.068   8.622  3.6210 -0.7351 -0.0695
  219MOL0     H28877   3.418   9.199   8.655  2.6093 -0.8494 -2.5965
  219MOL0     H28878   3.270   9.163   8.393 -0.4652  0.1945  0.6620
  219MOL0     H28879   3.433   9.119   8.419  0.4955  0.4410 -0.5592
  219MOL0     H28880   3.300   9.396   8.417 -0.6122  0.7494 -2.1766
  219MOL0     H28881   3.471   9.373   8.467  0.0434 -0.4210  0.5015
  219MOL0     H28882   3.325   9.336   8.199 -0.6599  3.7777 -0.4838
  219MOL0     H28883   3.492   9.267   8.242 -1.1083 -1.1436  1.1882
  219MOL0     H28884   3.517   9.482   8.112  1.5212  1.5105 -0.1951
  219MOL0     H28885   3.583   9.472   8.271  1.6278 -0.7645 -1.4685
  219MOL0     H28886   3.325   9.640   8.210 -0.0560  0.2037 -0.4926
  219MOL0     H28887   3.407   9.632   8.366  2.9670 -3.2002  0.8387
  219MOL0     H28888   3.612   9.711   8.282 -0.5692  2.7208  1.9012
  219MOL0     H28889   3.477   9.830   8.263 -0.5198  1.2326 -2.6689
  219MOL0     H28890   2.971   9.418   8.377 -0.4448  0.6315  0.9146
  219MOL0     H28891   2.862   9.642   8.394  4.9683  1.4741 -2.1393
  219MOL0     H28892   3.096  10.107   8.415 -0.7423  0.1219 -0.8592
  219MOL0     H28893   3.025  10.314   8.339  0.4613 -0.6473  1.9415
  219MOL0     H28894   1.621   9.586   7.822 -0.2302 -0.1506  0.1590
  219MOL0     H28895   1.570   9.459   7.607  0.1516  4.4809  1.3467
  219MOL0     H28896   1.430   9.277   7.362 -1.8077 -1.5219 -1.9108
  219MOL0     H28897   1.486   9.274   7.125  1.7900 -1.6972 -3.5084
  219MOL0     H28898   1.719   8.928   6.951  0.3924 -0.6688 -0.5489
  219MOL0     H28899   1.823   9.060   6.991  1.3296 -1.3188 -1.0545
  219MOL0     H28900   1.777   9.180   6.787 -1.4015  0.9888 -4.2341
  219MOL0     H28901   1.830   9.017   6.744  2.3133 -0.2465  3.4123
  219MOL0     H28902   1.538   9.134   6.737 -1.7785 -1.9933 -1.4679
  219MOL0     H28903   1.568   8.970   6.698 -2.4683  0.6693  0.2586
  219MOL0     H28904   1.688   9.205   6.556 -1.6713  1.1652  1.4193
  219MOL0     H28905   1.696   9.021   6.512 -1.4649 -0.9872 -0.1668
  219MOL0     H28906   1.330   9.145   6.366 -0.9119  1.3830  1.1942
  219MOL0     H28907   1.722   8.916   7.193  1.2913  0.3259  0.9907
  219MOL0     H28908   1.682   8.925   7.425  0.5113 -1.4764 -1.0490
  220MOL0     O28909   4.488   8.481   1.689 -0.1314  0.6244  0.3178
  220MOL0     C28910   4.542   8.582   1.729  0.7186 -0.5139 -0.4624
  220MOL0     O28911   4.579   8.609   1.858 -0.1073  0.3001 -0.5883
  220MOL0     C28912   4.549   8.520   1.959 -0.5011 -0.2993  0.6408
  220MOL0     C28913   4.624   8.400   1.969 -0.2708  0.1403  0.6275
  220MOL0     C28914   4.585   8.302   2.063  0.6178  0.7018 -0.6313
  220MOL0     C28915   4.469   8.318   2.151  0.1163 -0.0175  0.0928
  220MOL0     O28916   4.423   8.214   2.231 -0.0740  0.5231  0.7722
  220MOL0     C28917   4.284   8.211   2.237  0.1359  0.1309  0.4450
  220MOL0     C28918   4.244   8.111   2.342 -0.3767 -0.6314  1.2117
  220MOL0     C28919   4.089   8.104   2.341  0.7740 -0.4466 -1.0532
  220MOL0     C28920   4.031   8.046   2.479  0.1566  1.2694 -0.1444
  220MOL0     C28921   4.004   8.136   2.601 -0.3544  1.2320 -0.1131
  220MOL0     C28922   3.906   8.065   2.698 -0.5517 -0.0062 -0.2528
  220MOL0     C28923   3.858   8.161   2.812  0.9699  0.3428  1.3189
  220MOL0     C28924   3.776   8.078   2.921  0.2626  0.2669  1.2074
  220MOL0     N28925   3.745   8.137   3.048  0.2147  0.3738  0.2585
  220MOL0     C28926   3.848   8.183   3.135  0.2499  0.1862  1.1470
  220MOL0     C28927   3.784   8.215   3.250 -1.1777  0.1117 -0.5725
  220MOL0     C28928   3.863   8.264   3.368  0.3806 -0.9531 -0.5555
  220MOL0     C28929   3.946   8.396   3.341  0.8756 -0.3784 -0.0489
  220MOL0     C28930   3.867   8.507   3.272 -0.5604  0.3884 -0.4041
  220MOL0     C28931   3.779   8.568   3.374  0.1049  0.1367  0.7315
  220MOL0     O28932   3.765   8.711   3.346  0.8876  0.0858  0.3768
  220MOL0     C28933   3.706   8.800   3.440 -0.4142  0.1285  0.3065
  220MOL0     C28934   3.662   8.919   3.391  0.4488 -0.7230 -0.6176
  220MOL0     C28935   3.595   9.022   3.469  0.6085 -0.2141 -0.5946
  220MOL0     C28936   3.573   8.986   3.602  0.7232 -0.0892 -0.1285
  220MOL0     C28937   3.513   9.092   3.692 -0.5163  1.3745  0.2525
  220MOL0     O28938   3.475   9.212   3.630 -0.1355 -0.7387  0.7235
  220MOL0     C28939   3.456   9.323   3.702 -0.0141 -0.6803 -0.2728
  220MOL0     C28940   3.518   9.354   3.829  0.8184  0.1520 -0.7454
  220MOL0     C28941   3.473   9.462   3.899  0.6056  0.2339  0.1666
  220MOL0     C28942   3.365   9.546   3.858 -0.4921  0.3237  0.2451
  220MOL0     O28943   3.334   9.646   3.941 -0.0496  0.4248 -0.0531
  220MOL0     C28944   3.232   9.608   4.038  0.8510 -0.3038  0.4649
  220MOL0     C28945   3.282   9.665   4.169 -0.7748  0.4232  0.3442
  220MOL0     C28946   3.223   9.802   4.200 -0.0046 -0.4125  0.7650
  220MOL0     C28947   3.259   9.832   4.349  0.8660 -0.9040  0.8294
  220MOL0     C28948   3.180   9.948   4.406  1.1885 -0.0173 -0.1079
  220MOL0     C28949   3.219   9.976   4.552  0.0764 -0.5425  1.0104
  220MOL0     C28950   3.120   9.910   4.647  0.5740 -0.0890 -0.5158
  220MOL0     C28951   3.148   9.936   4.800  0.4621 -1.3856  0.4179
  220MOL0    Cl28952   3.145  10.105   4.836 -0.1817  0.1236  0.1000
  220MOL0     C28953   3.302   9.519   3.737 -0.7229  0.4242 -1.0502
  220MOL0     C28954   3.340   9.405   3.660 -0.2465  1.1896 -0.5124
  220MOL0     O28955   3.488   9.067   3.808 -0.3570  0.2692 -0.4502
  220MOL0     C28956   3.606   8.858   3.644 -0.0588  0.6437 -0.4901
  220MOL0     C28957   3.675   8.766   3.568  0.4746 -0.3526 -0.5858
  220MOL0     N28958   3.650   8.196   3.228 -0.0437 -0.3870  0.0720
  220MOL0     N28959   3.624   8.152   3.106  0.2807  0.3689 -0.0972
  220MOL0     C28960   4.408   8.447   2.143 -0.7067  0.4333  0.2293
  220MOL0     C28961   4.440   8.546   2.050 -0.0130  0.7696 -1.3021
  220MOL0     C28962   4.576   8.684   1.631 -0.0098  0.9456 -0.3716
  220MOL0     C28963   4.569   8.638   1.495 -1.0066  0.7038  0.0921
  220MOL0     C28964   4.604   8.737   1.403 -0.2495  0.1619 -0.2055
  220MOL0     C28965   4.627   8.872   1.425  0.2735 -0.4036  0.3052
  220MOL0     O28966   4.647   8.967   1.330  0.2669  0.7943  0.6511
  220MOL0     C28967   4.774   8.963   1.270  0.0339  0.6698  0.7080
  220MOL0     C28968   4.765   8.886   1.136 -0.2565  0.7466  0.0881
  220MOL0     C28969   4.703   8.958   1.020 -0.4236  0.6478 -0.0324
  220MOL0     C28970   4.736   8.897   0.888  0.2022 -0.2310  0.6048
  220MOL0     C28971   4.693   8.979   0.779 -0.0966 -0.0083  0.2919
  220MOL0     C28972   4.653   9.046   0.686 -0.6156 -1.1086 -0.5185
  220MOL0     C28973   4.632   8.911   1.558 -0.5215 -0.0020  0.1182
  220MOL0     C28974   4.604   8.822   1.664 -0.1326  0.4485  0.4971
  220MOL0     H28975   4.712   8.383   1.908 -0.7886  0.1937 -0.1532
  220MOL0     H28976   4.645   8.212   2.072  0.1192  0.4205 -0.0714
  220MOL0     H28977   4.249   8.166   2.144  1.6332 -3.0654  1.2871
  220MOL0     H28978   4.228   8.305   2.246 -1.7984 -1.0798  1.7724
  220MOL0     H28979   4.282   8.153   2.436 -1.6848  3.9426 -0.0635
  220MOL0     H28980   4.274   8.007   2.323 -0.8994 -0.0869 -4.0500
  220MOL0     H28981   4.043   8.040   2.266 -1.7886  1.9148 -1.6734
  220MOL0     H28982   4.041   8.202   2.328  0.5236 -0.8837 -4.0486
  220MOL0     H28983   3.926   8.019   2.459 -0.3401  3.5369 -0.8472
  220MOL0     H28984   4.081   7.954   2.513 -2.1093 -0.0113 -0.0501
  220MOL0     H28985   3.947   8.223   2.567 -1.4837  1.3050  1.8309
  220MOL0     H28986   4.104   8.155   2.642  0.0471 -2.5368  1.1147
  220MOL0     H28987   3.965   7.983   2.741 -0.7871 -0.4524 -0.7755
  220MOL0     H28988   3.820   8.020   2.649 -1.1901 -0.0386  0.8533
  220MOL0     H28989   3.948   8.208   2.854  1.1307  1.4942 -0.2494
  220MOL0     H28990   3.796   8.243   2.775  0.8975  0.2232  1.1758
  220MOL0     H28991   3.835   7.987   2.936 -0.9063 -1.0595 -1.5345
  220MOL0     H28992   3.683   8.047   2.872  0.1786  4.0825 -1.5304
  220MOL0     H28993   3.955   8.185   3.115 -0.1760 -0.5626 -1.7009
  220MOL0     H28994   3.931   8.189   3.409 -0.3571 -2.9638 -2.8049
  220MOL0     H28995   3.785   8.287   3.442 -0.6652 -0.1580 -1.8564
  220MOL0     H28996   4.032   8.367   3.280  0.9773  1.2046 -0.6843
  220MOL0     H28997   3.966   8.426   3.445 -0.8298  0.5171  0.0577
  220MOL0     H28998   3.952   8.564   3.232  1.6227 -0.9947  1.9276
  220MOL0     H28999   3.806   8.466   3.191  1.0407  0.9961 -1.9928
  220MOL0     H29000   3.824   8.570   3.474 -1.9828 -0.7761  1.7609
  220MOL0     H29001   3.681   8.519   3.386  0.8520 -1.3568  1.0277
  220MOL0     H29002   3.677   8.945   3.287 -0.5292  3.3910  0.0933
  220MOL0     H29003   3.576   9.116   3.419  0.6003 -0.5393 -1.2176
  220MOL0     H29004   3.605   9.304   3.871 -0.4028  0.5586  2.5581
  220MOL0     H29005   3.529   9.476   3.991 -2.8164 -0.8942  2.5869
  220MOL0     H29006   3.229   9.503   4.069  1.3211  0.3161  2.8621
  220MOL0     H29007   3.135   9.652   4.013  0.1203 -0.4977  2.6783
  220MOL0     H29008   3.391   9.661   4.172 -0.8220 -0.8669  1.7648
  220MOL0     H29009   3.252   9.589   4.243 -0.1223 -0.5932 -0.4097
  220MOL0     H29010   3.114   9.797   4.190 -0.1503 -1.7993  2.5920
  220MOL0     H29011   3.275   9.879   4.142  0.7971 -0.3421  1.5556
  220MOL0     H29012   3.225   9.753   4.417 -1.5063  0.0936  0.9069
  220MOL0     H29013   3.366   9.854   4.348  0.6926  0.9275 -3.7745
  220MOL0     H29014   3.073   9.926   4.399  1.1371  0.3178 -0.4098
  220MOL0     H29015   3.196  10.040   4.350 -2.3121  2.2356  2.2669
  220MOL0     H29016   3.209  10.084   4.564 -0.0710 -0.2206 -1.4690
  220MOL0     H29017   3.322   9.941   4.566  1.2034  1.5164 -1.2783
  220MOL0     H29018   3.022   9.957   4.631  0.6481  0.7733  1.3523
  220MOL0     H29019   3.117   9.802   4.630 -0.1487 -0.6487  2.6017
  220MOL0     H29020   3.244   9.887   4.821  0.5428 -0.3734  2.7000
  220MOL0     H29021   3.075   9.883   4.862 -0.6669  1.6966  1.9313
  220MOL0     H29022   3.220   9.581   3.702 -1.3658  1.4507  1.9658
  220MOL0     H29023   3.282   9.379   3.572 -2.0671  1.9228  0.4121
  220MOL0     H29024   3.576   8.831   3.745  0.8863  4.9994  1.1682
  220MOL0     H29025   3.721   8.680   3.615  2.8171  2.3772  2.5428
  220MOL0     H29026   4.340   8.481   2.220  1.2881  1.3210  1.6748
  220MOL0     H29027   4.381   8.637   2.056 -0.1235  0.5992  1.8815
  220MOL0     H29028   4.557   8.540   1.448  0.8305  0.6123 -0.2824
  220MOL0     H29029   4.597   8.706   1.299 -1.1940  1.5598 -0.5803
  220MOL0     H29030   4.844   8.912   1.337  1.8904  0.1177 -1.5275
  220MOL0     H29031   4.810   9.065   1.253  0.5904  0.2010 -1.2197
  220MOL0     H29032   4.864   8.853   1.106 -1.9284 -3.2698 -1.7225
  220MOL0     H29033   4.705   8.795   1.140 -2.7750  2.2994  0.2716
  220MOL0     H29034   4.750   9.056   1.027  1.5620 -0.2673  0.0686
  220MOL0     H29035   4.595   8.966   1.033 -0.7737 -1.6477 -1.0099
  220MOL0     H29036   4.843   8.875   0.887  0.0142 -1.1697  0.0452
  220MOL0     H29037   4.684   8.802   0.870 -3.1347  1.3076  1.2325
  220MOL0     H29038   4.614   9.070   0.589 -0.3779 -4.7437 -1.6989
  220MOL0     H29039   4.667   9.012   1.572  4.7469 -1.2140 -1.8741
  220MOL0     H29040   4.616   8.868   1.762  1.9910 -0.3209  0.6370
  221MOL0     O29041   4.271   3.498   1.185 -0.2876  0.1102 -0.0379
  221MOL0     C29042   4.364   3.417   1.203  0.1030  0.0296  0.7289
  221MOL0     O29043   4.500   3.443   1.176 -0.5368 -0.1793  0.3206
  221MOL0     C29044   4.539   3.568   1.144  0.1991 -0.4504 -0.5901
  221MOL0     C29045   4.641   3.589   1.048 -0.1734  1.0434 -0.6421
  221MOL0     C29046   4.691   3.718   1.017 -0.4117 -0.2379 -0.5374
  221MOL0     C29047   4.641   3.831   1.077 -0.3860  0.3690  0.3555
  221MOL0     O29048   4.701   3.941   1.033 -1.1435 -0.4255  0.4747
  221MOL0     C29049   4.648   4.064   1.083 -1.4427 -0.9651 -0.1486
  221MOL0     C29050   4.518   4.094   1.014  1.0071  0.5235 -0.2762
  221MOL0     C29051   4.466   4.242   1.025 -0.0336  0.6713 -0.4599
  221MOL0     C29052   4.401   4.273   1.161  0.2839 -0.7190  0.9720
  221MOL0     C29053   4.311   4.402   1.141  0.2801 -0.5473  0.1211
  221MOL0     C29054   4.167   4.368   1.189 -0.3654 -0.7470 -0.1969
  221MOL0     C29055   4.092   4.290   1.082  0.3505 -0.0529  0.2044
  221MOL0     C29056   3.958   4.230   1.142  0.0597  0.1509 -0.1581
  221MOL0     N29057   3.845   4.323   1.149 -0.4812 -0.3811 -0.4932
  221MOL0     C29058   3.767   4.339   1.256  0.2526 -0.7261 -0.3393
  221MOL0     C29059   3.684   4.439   1.232  0.3448  0.3207  0.7372
  221MOL0     C29060   3.586   4.502   1.325  0.7485  0.2653 -0.1500
  221MOL0     C29061   3.452   4.421   1.328 -0.6750 -0.1472 -0.1001
  221MOL0     C29062   3.359   4.449   1.441 -0.4260  0.2714 -0.6702
  221MOL0     C29063   3.249   4.545   1.421 -0.2548 -0.8201 -0.6554
  221MOL0     O29064   3.150   4.507   1.321 -0.4375 -0.6404  0.4183
  221MOL0     C29065   3.118   4.611   1.236 -0.3749 -0.6241 -0.1849
  221MOL0     C29066   3.002   4.677   1.266 -0.0912  0.1211  0.0600
  221MOL0     C29067   2.965   4.789   1.182 -0.4766 -0.4831  0.2257
  221MOL0     C29068   3.031   4.817   1.066  0.2291  0.2000  0.2251
  221MOL0     C29069   3.001   4.936   0.988 -0.9890 -0.4267  0.6469
  221MOL0     O29070   3.055   4.945   0.860 -0.6016 -0.1482 -0.0545
  221MOL0     C29071   3.059   5.058   0.790  0.2228 -0.6888  1.3541
  221MOL0     C29072   3.182   5.096   0.730 -0.5426  0.6166  0.5302
  221MOL0     C29073   3.194   5.207   0.646  0.7376 -0.4955 -1.3796
  221MOL0     C29074   3.088   5.287   0.623  0.4417  0.9590 -1.0405
  221MOL0     O29075   3.083   5.395   0.537  0.0340  0.5435 -0.2967
  221MOL0     C29076   3.180   5.398   0.427  0.6550  0.9767 -0.4112
  221MOL0     C29077   3.175   5.542   0.367  0.5783 -0.1623 -0.6126
  221MOL0     C29078   3.061   5.567   0.271  0.3655  0.1894  0.1024
  221MOL0     C29079   3.037   5.706   0.226 -0.8521  0.0419  0.2623
  221MOL0     C29080   2.959   5.736   0.096  0.1068  0.0189 -0.2454
  221MOL0     C29081   3.033   5.715  -0.036  0.8865 -0.1434  0.1641
  221MOL0     C29082   2.948   5.736  -0.162 -0.0802  0.3462  0.0186
  221MOL0     C29083   2.824   5.637  -0.160 -0.8524  0.5312 -0.2467
  221MOL0    Cl29084   2.885   5.476  -0.089  0.0371 -0.0768  0.2294
  221MOL0     C29085   2.966   5.254   0.684  0.1688  0.3893  0.2164
  221MOL0     C29086   2.945   5.137   0.766 -0.6045  0.0673  0.3530
  221MOL0     O29087   2.912   5.010   1.030  0.2946 -0.3133 -0.2122
  221MOL0     C29088   3.142   4.730   1.033 -0.4601  0.0931 -0.6421
  221MOL0     C29089   3.185   4.626   1.118 -0.6324 -0.2231  0.7929
  221MOL0     N29090   3.707   4.487   1.101 -0.3114  0.3941 -0.0143
  221MOL0     N29091   3.806   4.410   1.051  1.3428  0.3633  0.0463
  221MOL0     C29092   4.548   3.808   1.185  0.0715  0.2538 -0.1657
  221MOL0     C29093   4.496   3.679   1.218 -0.3048  0.1191 -0.4244
  221MOL0     C29094   4.337   3.277   1.249  0.5867  0.8522  0.0445
  221MOL0     C29095   4.216   3.243   1.306 -0.0961  0.2915 -0.4622
  221MOL0     C29096   4.187   3.118   1.360  1.1204 -0.1525 -0.3939
  221MOL0     C29097   4.283   3.023   1.358  0.0388  0.4758  0.7324
  221MOL0     O29098   4.274   2.898   1.424  0.2498 -0.0144 -0.4320
  221MOL0     C29099   4.200   2.797   1.358  0.6778  0.0916  0.0389
  221MOL0     C29100   4.140   2.729   1.485 -0.6742 -0.3086 -0.6886
  221MOL0     C29101   4.026   2.814   1.549 -0.1134 -0.0666 -0.0576
  221MOL0     C29102   3.898   2.800   1.462  0.0131 -0.1956 -0.2307
  221MOL0     C29103   3.769   2.833   1.530 -1.3573 -0.0435  0.0163
  221MOL0     C29104   3.663   2.851   1.590  0.7332  0.0432  0.0101
  221MOL0     C29105   4.404   3.040   1.288  0.1062  0.6788 -1.0200
  221MOL0     C29106   4.434   3.168   1.228 -0.4221  0.4633 -0.1108
  221MOL0     H29107   4.677   3.495   1.006 -2.5351 -2.4536  4.1626
  221MOL0     H29108   4.759   3.723   0.933  1.2328 -0.2643  0.7481
  221MOL0     H29109   4.715   4.149   1.070 -0.2649 -1.4260  2.3397
  221MOL0     H29110   4.637   4.061   1.191 -1.6943 -2.5082 -0.1893
  221MOL0     H29111   4.445   4.026   1.060  2.7208 -1.0317  0.2361
  221MOL0     H29112   4.532   4.071   0.908 -0.9359 -0.4725 -0.3652
  221MOL0     H29113   4.386   4.259   0.953 -0.6694  1.2654  0.3644
  221MOL0     H29114   4.553   4.307   1.011  0.5646  0.0078  0.1196
  221MOL0     H29115   4.345   4.182   1.184  1.0883 -2.0589 -1.8910
  221MOL0     H29116   4.488   4.284   1.226 -0.5442 -0.0785  2.0084
  221MOL0     H29117   4.309   4.432   1.036 -1.3502  0.6572  0.4549
  221MOL0     H29118   4.359   4.486   1.191 -1.6659  0.8251 -0.1884
  221MOL0     H29119   4.108   4.456   1.217  1.2316  0.0717  0.7026
  221MOL0     H29120   4.170   4.312   1.284 -0.2822  0.7444  0.7023
  221MOL0     H29121   4.075   4.361   1.000  2.3597 -0.2380 -0.4186
  221MOL0     H29122   4.150   4.201   1.057 -1.6768 -1.1980 -0.5852
  221MOL0     H29123   3.985   4.187   1.239  2.9513 -0.8507 -1.3138
  221MOL0     H29124   3.916   4.147   1.084  2.1956 -1.6567  0.7241
  221MOL0     H29125   3.776   4.277   1.345 -3.0262 -3.7081 -1.8380
  221MOL0     H29126   3.552   4.602   1.296 -1.5368 -1.3499 -3.8483
  221MOL0     H29127   3.635   4.523   1.420 -0.8810  1.6834  0.4377
  221MOL0     H29128   3.477   4.317   1.350 -0.2850  0.1596  0.9601
  221MOL0     H29129   3.392   4.429   1.237 -0.6587 -1.8460 -0.3061
  221MOL0     H29130   3.319   4.350   1.467  2.1884 -0.5167  0.7190
  221MOL0     H29131   3.422   4.476   1.526 -0.2120 -0.4176 -0.6002
  221MOL0     H29132   3.300   4.635   1.383 -1.7390 -0.0386 -0.8648
  221MOL0     H29133   3.188   4.562   1.510  0.0188 -3.2060  0.0630
  221MOL0     H29134   2.947   4.648   1.354 -1.2216  3.0635  0.4512
  221MOL0     H29135   2.878   4.843   1.217 -1.5279 -3.3124  2.3024
  221MOL0     H29136   3.268   5.032   0.743 -0.5563 -0.0398 -2.0030
  221MOL0     H29137   3.291   5.216   0.599  1.0576 -0.0616 -0.6578
  221MOL0     H29138   3.154   5.334   0.343  2.2868  1.6029 -1.4515
  221MOL0     H29139   3.277   5.365   0.466 -1.8460 -1.3318  4.7807
  221MOL0     H29140   3.272   5.561   0.321  0.5811  1.0900 -0.1187
  221MOL0     H29141   3.171   5.617   0.445  0.9276  0.0551 -0.8041
  221MOL0     H29142   2.968   5.517   0.299  0.9767 -1.5597 -0.8485
  221MOL0     H29143   3.095   5.505   0.187  0.4562  0.4275 -0.0360
  221MOL0     H29144   2.984   5.750   0.311  2.3615  1.7648  1.5494
  221MOL0     H29145   3.136   5.751   0.214 -0.0348 -1.1108  2.2969
  221MOL0     H29146   2.927   5.841   0.102 -0.4344 -0.2148  1.7381
  221MOL0     H29147   2.859   5.691   0.098 -0.7617  1.4202 -3.8409
  221MOL0     H29148   3.090   5.621  -0.043 -2.0477 -2.1740  1.6936
  221MOL0     H29149   3.116   5.786  -0.028  1.8925 -0.9749 -2.0329
  221MOL0     H29150   2.910   5.838  -0.175 -1.4222  0.4470  3.5901
  221MOL0     H29151   3.013   5.721  -0.249  0.4376  1.3221  0.2289
  221MOL0     H29152   2.781   5.617  -0.258  2.6729  2.0097 -2.3004
  221MOL0     H29153   2.749   5.676  -0.091  0.6988  1.2621  1.0980
  221MOL0     H29154   2.879   5.318   0.677  1.4478  2.0265 -1.9413
  221MOL0     H29155   2.848   5.099   0.794  0.7161 -2.1998  2.3202
  221MOL0     H29156   3.186   4.747   0.935 -1.5117  0.8605 -1.0017
  221MOL0     H29157   3.257   4.553   1.082 -0.3139 -1.5443  3.8070
  221MOL0     H29158   4.513   3.890   1.247 -1.1280  0.2715 -0.8462
  221MOL0     H29159   4.421   3.665   1.295  1.5134 -1.5915  1.1310
  221MOL0     H29160   4.136   3.317   1.311 -0.7231 -0.2640 -1.7201
  221MOL0     H29161   4.096   3.094   1.415  0.9073  2.2124  0.4038
  221MOL0     H29162   4.270   2.724   1.315 -1.8675 -1.8612 -1.0566
  221MOL0     H29163   4.128   2.839   1.287  0.8064  0.0757 -0.1017
  221MOL0     H29164   4.104   2.634   1.443 -1.6310  0.2154 -1.0859
  221MOL0     H29165   4.218   2.711   1.560 -0.6596  2.4494  0.0768
  221MOL0     H29166   4.056   2.920   1.551  1.8487 -0.5342 -1.5037
  221MOL0     H29167   4.020   2.769   1.648  3.5489 -1.5496 -0.3493
  221MOL0     H29168   3.912   2.862   1.374  1.9295  0.8596  0.7517
  221MOL0     H29169   3.897   2.698   1.424 -0.9086  0.9327 -3.5522
  221MOL0     H29170   3.574   2.862   1.648  0.3162  0.4896 -0.7089
  221MOL0     H29171   4.464   2.953   1.263 -0.4577  0.6444 -2.3006
  221MOL0     H29172   4.523   3.189   1.171 -1.3087  2.0613 -0.9848
  222MOL0     O29173   8.309  10.928   4.707  0.6017 -0.1536  0.5050
  222MOL0     C29174   8.185  10.914   4.731  0.5005 -0.6700  0.1309
  222MOL0     O29175   8.095  10.876   4.638 -0.0427  0.4079  0.8320
  222MOL0     C29176   8.138  10.860   4.509  0.6316 -0.9652  0.1332
  222MOL0     C29177   8.080  10.747   4.441 -0.3316  0.2542  0.4976
  222MOL0     C29178   8.102  10.728   4.301  0.1755  0.0284 -0.2135
  222MOL0     C29179   8.169  10.825   4.225 -0.7270  0.8458  0.7637
  222MOL0     O29180   8.188  10.800   4.092  0.2776  0.0665  0.1698
  222MOL0     C29181   8.071  10.794   3.994 -0.8124 -0.0116 -1.2255
  222MOL0     C29182   8.129  10.792   3.853 -0.0410 -0.1638  0.1469
  222MOL0     C29183   8.209  10.677   3.797 -1.1415 -0.5390  1.1866
  222MOL0     C29184   8.151  10.536   3.821 -0.0262 -0.1643  0.5237
  222MOL0     C29185   8.224  10.433   3.736  0.3012 -0.3022  0.4369
  222MOL0     C29186   8.371  10.408   3.773 -0.2539 -0.2405  1.2457
  222MOL0     C29187   8.433  10.315   3.662  0.7769 -0.3685  0.7285
  222MOL0     C29188   8.576  10.270   3.694  0.0067 -0.5138  0.0721
  222MOL0     N29189   8.683  10.365   3.681  0.2915 -0.9348  0.6953
  222MOL0     C29190   8.740  10.402   3.567 -0.0217  0.0136  0.3259
  222MOL0     C29191   8.823  10.505   3.606 -0.7332  0.5627  0.6062
  222MOL0     C29192   8.903  10.596   3.524  0.1954 -0.2245 -0.0087
  222MOL0     C29193   9.046  10.536   3.489 -0.2364  0.3368 -0.2440
  222MOL0     C29194   9.160  10.639   3.458 -0.3644  0.1012  0.8989
  222MOL0     C29195   9.281  10.576   3.393 -0.1497  0.9327 -0.7229
  222MOL0     O29196   9.257  10.569   3.253  0.2345  1.0254 -0.3928
  222MOL0     C29197   9.278  10.447   3.188 -0.5234  0.4709 -0.4751
  222MOL0     C29198   9.180  10.376   3.121 -0.6014  0.0661  0.0290
  222MOL0     C29199   9.211  10.267   3.040 -0.6586  0.0412 -0.3407
  222MOL0     C29200   9.346  10.229   3.012  0.5853 -0.3056 -0.5566
  222MOL0     C29201   9.371  10.116   2.919  0.6479  0.7066 -0.0859
  222MOL0     O29202   9.275  10.048   2.855  0.5021  0.3849 -1.0547
  222MOL0     C29203   9.293   9.963   2.757  0.2019  0.6003  0.9383
  222MOL0     C29204   9.393   9.986   2.666 -0.1537  0.0944  0.5354
  222MOL0     C29205   9.417   9.895   2.564  0.1522  0.3055  0.5505
  222MOL0     C29206   9.328   9.786   2.542  0.0149 -0.7814 -0.4448
  222MOL0     O29207   9.343   9.688   2.446  0.7804  0.2195 -0.8032
  222MOL0     C29208   9.445   9.708   2.349  0.1733  0.0862 -0.8018
  222MOL0     C29209   9.417   9.628   2.219  0.8442 -0.5253 -0.5872
  222MOL0     C29210   9.516   9.671   2.114  0.6638 -0.3522  0.2743
  222MOL0     C29211   9.491   9.809   2.057  0.8689  0.0071 -0.4342
  222MOL0     C29212   9.608   9.881   2.009 -0.2000 -0.8722 -0.4932
  222MOL0     C29213   9.673   9.824   1.888  0.3614 -0.2895 -0.4280
  222MOL0     C29214   9.775   9.927   1.834 -0.4539 -0.3967  0.4466
  222MOL0     C29215   9.716  10.038   1.749  0.4680 -0.2956  0.0118
  222MOL0    Cl29216   9.825  10.159   1.694  0.2915  0.4044 -0.2146
  222MOL0     C29217   9.219   9.759   2.637 -0.8823 -0.1222  0.2441
  222MOL0     C29218   9.195   9.864   2.729  0.3223 -0.6485  0.5126
  222MOL0     O29219   9.487  10.078   2.911 -0.3912 -0.3641 -0.7286
  222MOL0     C29220   9.444  10.297   3.088 -1.2315 -0.4244 -0.0086
  222MOL0     C29221   9.410  10.404   3.174 -0.4117  0.9183 -0.2718
  222MOL0     N29222   8.810  10.513   3.742  0.0321  0.3383  0.3633
  222MOL0     N29223   8.724  10.429   3.792 -0.0036  0.5206 -0.9959
  222MOL0     C29224   8.242  10.923   4.296 -0.0388 -0.0410  1.5547
  222MOL0     C29225   8.214  10.948   4.428 -0.8358  0.1362  0.2251
  222MOL0     C29226   8.128  10.949   4.859 -0.3088  0.1058  0.4223
  222MOL0     C29227   7.991  10.923   4.894 -1.0167 -1.0804 -0.4670
  222MOL0     C29228   7.944  10.937   5.026  0.2180 -0.2300 -0.3905
  222MOL0     C29229   8.018  10.996   5.131 -0.0470  0.1767  0.1282
  222MOL0     O29230   7.972  11.022   5.257  0.3308 -0.4295  0.0157
  222MOL0     C29231   7.831  11.013   5.281 -0.5023 -0.1947  0.6502
  222MOL0     C29232   7.807  11.072   5.416  0.0229  0.0516 -0.0561
  222MOL0     C29233   7.857  11.209   5.425 -0.1981 -0.1415  0.1060
  222MOL0     C29234   7.790  11.280   5.528  0.0960  0.1703  0.1272
  222MOL0     C29235   7.850  11.405   5.568  0.2093 -0.7084 -0.1831
  222MOL0     C29236   7.896  11.508   5.609  0.4514 -0.4814 -1.1414
  222MOL0     C29237   8.149  11.030   5.094  0.8328 -0.3257 -0.0487
  222MOL0     C29238   8.205  11.000   4.969  0.1112  0.2584  0.1313
  222MOL0     H29239   8.020  10.679   4.499 -0.6302  2.3488  2.8030
  222MOL0     H29240   8.052  10.638   4.268 -0.9162  0.7561 -0.5754
  222MOL0     H29241   8.008  10.882   4.009 -1.5222 -1.0300  2.9033
  222MOL0     H29242   8.012  10.704   4.007  0.7496 -0.8784  0.3201
  222MOL0     H29243   8.196  10.876   3.832  1.7010 -2.0149 -2.2809
  222MOL0     H29244   8.042  10.807   3.789  1.6399  0.3658 -2.1254
  222MOL0     H29245   8.306  10.670   3.848 -0.7332 -3.3855  0.2231
  222MOL0     H29246   8.226  10.700   3.691 -2.2665  0.5520  1.2295
  222MOL0     H29247   8.156  10.490   3.920 -0.0297 -2.6040 -0.5414
  222MOL0     H29248   8.048  10.545   3.787 -0.0172  2.8089  0.9998
  222MOL0     H29249   8.213  10.488   3.642 -2.7699  3.2981  2.5870
  222MOL0     H29250   8.158  10.347   3.731 -2.0412  1.4370 -0.2585
  222MOL0     H29251   8.388  10.364   3.872  3.4169 -1.5645  0.2164
  222MOL0     H29252   8.436  10.495   3.784  3.3419 -2.4272 -0.6464
  222MOL0     H29253   8.366  10.229   3.655  2.0547 -1.3572  0.4339
  222MOL0     H29254   8.440  10.362   3.563  2.0464 -2.2318 -0.1223
  222MOL0     H29255   8.595  10.193   3.620  1.2402 -0.1659 -0.0009
  222MOL0     H29256   8.575  10.229   3.796 -1.1266  1.6469  1.0180
  222MOL0     H29257   8.732  10.359   3.467  4.1922 -0.3486 -0.0615
  222MOL0     H29258   8.914  10.691   3.577  2.6418  0.9086 -2.3016
  222MOL0     H29259   8.834  10.596   3.439 -0.2808 -3.3845  0.2442
  222MOL0     H29260   9.024  10.492   3.391  0.8371  4.7969 -2.7574
  222MOL0     H29261   9.064  10.460   3.566 -1.6823 -2.2669 -2.3147
  222MOL0     H29262   9.130  10.713   3.384  1.0125  1.7770  1.9433
  222MOL0     H29263   9.192  10.689   3.550 -0.3914  0.8135  0.5209
  222MOL0     H29264   9.289  10.470   3.419 -2.3536 -0.1500 -3.8497
  222MOL0     H29265   9.368  10.636   3.419 -0.5829  0.5997  1.6831
  222MOL0     H29266   9.073  10.395   3.130 -0.3735  1.1117  0.5733
  222MOL0     H29267   9.123  10.225   2.992 -1.3092 -2.8465  3.0290
  222MOL0     H29268   9.454  10.075   2.680 -2.7596  1.6404  3.0635
  222MOL0     H29269   9.498   9.916   2.495 -0.4660 -1.5094 -0.8291
  222MOL0     H29270   9.540   9.677   2.392  0.4032 -0.4043 -1.6480
  222MOL0     H29271   9.455   9.813   2.320 -0.1095  0.8824  1.7530
  222MOL0     H29272   9.313   9.633   2.186  0.6562  1.9192  0.1576
  222MOL0     H29273   9.448   9.527   2.244  4.2679  0.8079  1.2908
  222MOL0     H29274   9.515   9.591   2.038  0.9210  0.2152 -0.3400
  222MOL0     H29275   9.611   9.674   2.168  1.5014 -0.8418 -1.0934
  222MOL0     H29276   9.416   9.807   1.978  0.0477 -0.4434  0.3289
  222MOL0     H29277   9.445   9.871   2.135  2.5666  1.1260 -0.2645
  222MOL0     H29278   9.678   9.890   2.093 -2.5425  0.5977  1.4348
  222MOL0     H29279   9.584   9.986   1.986  1.7864 -0.5398 -1.2838
  222MOL0     H29280   9.596   9.793   1.817 -5.0260  0.2791  4.3501
  222MOL0     H29281   9.729   9.735   1.915 -1.6918 -1.8144 -0.9325
  222MOL0     H29282   9.830   9.980   1.912 -1.1786 -0.9520  1.3632
  222MOL0     H29283   9.842   9.873   1.767  2.1323  3.1582 -0.1275
  222MOL0     H29284   9.645  10.096   1.808  0.5652 -0.3461  0.1805
  222MOL0     H29285   9.662  10.001   1.661  1.8087  0.8716 -1.3633
  222MOL0     H29286   9.153   9.676   2.614  0.9090 -0.8561 -2.8367
  222MOL0     H29287   9.097   9.858   2.774  0.8632 -1.5963  1.6190
  222MOL0     H29288   9.545  10.260   3.076 -1.1829  0.4412 -3.0277
  222MOL0     H29289   9.485  10.464   3.224 -1.1781  0.4670  1.5347
  222MOL0     H29290   8.303  10.987   4.232 -2.2312 -0.7155 -1.4324
  222MOL0     H29291   8.263  11.035   4.471 -0.5574  1.1906 -2.0861
  222MOL0     H29292   7.937  10.889   4.806  3.3707 -2.1871 -3.0297
  222MOL0     H29293   7.849  10.895   5.058  0.8333 -1.8750 -0.6261
  222MOL0     H29294   7.804  10.908   5.296  0.8272 -0.3181  2.4546
  222MOL0     H29295   7.774  11.060   5.200  5.5954  1.4486 -3.4398
  222MOL0     H29296   7.701  11.080   5.444 -0.1461  3.7051 -1.1388
  222MOL0     H29297   7.864  11.014   5.490  0.6135 -2.1831 -2.1512
  222MOL0     H29298   7.852  11.263   5.330 -1.4762  0.2246  0.3539
  222MOL0     H29299   7.960  11.215   5.459  0.9806 -1.6054 -2.8388
  222MOL0     H29300   7.683  11.296   5.512  0.2081  0.2572 -0.5456
  222MOL0     H29301   7.792  11.218   5.618 -2.3176 -2.0722 -1.2582
  222MOL0     H29302   7.931  11.601   5.648 -2.3161  0.7551 -1.3484
  222MOL0     H29303   8.213  11.085   5.163  1.6594  1.2680 -1.9886
  222MOL0     H29304   8.308  11.031   4.957  1.2751 -3.5063 -1.2492
  223MOL0     O29305   6.700   5.778   8.095  0.4156  0.1338 -0.6418
  223MOL0     C29306   6.661   5.793   7.978  0.3991  1.2135 -0.6278
  223MOL0     O29307   6.657   5.917   7.926 -0.2939 -0.4588 -0.0467
  223MOL0     C29308   6.670   6.018   8.012 -0.3033  0.5305 -0.7941
  223MOL0     C29309   6.556   6.070   8.077 -0.7617  0.4164  0.8287
  223MOL0     C29310   6.551   6.160   8.181 -0.2623 -0.6778 -0.3517
  223MOL0     C29311   6.672   6.207   8.231 -0.5152 -0.4808  0.3054
  223MOL0     O29312   6.660   6.288   8.343 -0.1387 -0.5153  0.4288
  223MOL0     C29313   6.676   6.223   8.468 -1.0754 -0.3939 -0.1049
  223MOL0     C29314   6.630   6.317   8.579  0.3208  0.2458  0.6240
  223MOL0     C29315   6.672   6.270   8.713 -0.4986 -0.7377  0.3704
  223MOL0     C29316   6.623   6.372   8.823 -0.3706 -0.0816  0.3590
  223MOL0     C29317   6.646   6.320   8.968 -0.6184  0.0705 -0.1065
  223MOL0     C29318   6.549   6.205   9.000 -0.1581 -0.4077  0.6988
  223MOL0     C29319   6.558   6.156   9.141 -0.3472 -0.1854 -0.2480
  223MOL0     C29320   6.424   6.113   9.207 -0.4111  0.0291  0.6044
  223MOL0     N29321   6.442   6.054   9.340  0.7097  0.5174  0.2228
  223MOL0     C29322   6.455   6.130   9.455  0.0009 -0.2868  0.6257
  223MOL0     C29323   6.492   6.043   9.554  1.0458 -0.6296 -0.8192
  223MOL0     C29324   6.524   6.074   9.699  0.0890  0.9555 -0.0723
  223MOL0     C29325   6.490   5.945   9.782  0.5995  0.0433 -0.3463
  223MOL0     C29326   6.525   5.947   9.935 -0.5217 -0.5405 -0.7757
  223MOL0     C29327   6.424   5.893  10.033 -0.4524  0.7264 -0.6103
  223MOL0     O29328   6.448   5.906  10.179  0.2900 -0.2128 -0.6929
  223MOL0     C29329   6.500   5.789  10.242 -0.2870 -0.3589 -0.2767
  223MOL0     C29330   6.628   5.736  10.210  0.7933  0.7212  0.1514
  223MOL0     C29331   6.680   5.630  10.274  0.6844  0.5561  0.0427
  223MOL0     C29332   6.601   5.562  10.378  0.7888  0.1931  0.9188
  223MOL0     C29333   6.656   5.447  10.446  0.0451 -0.1506  0.6197
  223MOL0     O29334   6.582   5.384  10.536 -0.1356 -0.1789  1.1469
  223MOL0     C29335   6.616   5.265  10.594  0.3124  0.4013  0.1581
  223MOL0     C29336   6.530   5.156  10.569  0.2214  0.9647 -1.2608
  223MOL0     C29337   6.557   5.033  10.617  0.3292  0.3132  0.2852
  223MOL0     C29338   6.667   5.010  10.706  0.6689 -0.3419  0.6866
  223MOL0     O29339   6.702   4.881  10.748 -0.3425  0.0297  0.4337
  223MOL0     C29340   6.641   4.765  10.686  0.1059  0.6920  1.2312
  223MOL0     C29341   6.696   4.645  10.770 -0.1600  0.0412  0.6823
  223MOL0     C29342   6.638   4.513  10.727  0.3301 -0.6919  0.1426
  223MOL0     C29343   6.664   4.418  10.841 -0.3782 -0.1405  0.3351
  223MOL0     C29344   6.591   4.434  10.970 -0.3097 -0.4067 -0.0351
  223MOL0     C29345   6.579   4.309  11.057  0.7389 -0.9291 -0.9147
  223MOL0     C29346   6.713   4.240  11.079 -0.2734 -0.3747  0.4311
  223MOL0     C29347   6.816   4.321  11.160  0.5348 -0.2097 -0.1591
  223MOL0    Cl29348   6.975   4.239  11.174 -0.2927  0.3711  0.5027
  223MOL0     C29349   6.755   5.123  10.727  0.3974  0.5134 -0.6982
  223MOL0     C29350   6.725   5.250  10.679  0.5913  0.2137 -0.9371
  223MOL0     O29351   6.771   5.418  10.418  0.6663 -0.2378 -0.8562
  223MOL0     C29352   6.475   5.613  10.404 -0.0889 -0.1273 -0.6022
  223MOL0     C29353   6.416   5.719  10.328  0.5231  0.5742  0.5285
  223MOL0     N29354   6.524   5.921   9.489  0.6080  0.1712 -0.2649
  223MOL0     N29355   6.485   5.928   9.365  1.1046 -0.9806  0.2363
  223MOL0     C29356   6.794   6.168   8.169 -0.5948 -0.9876  1.2176
  223MOL0     C29357   6.787   6.071   8.060 -0.2083  0.3155 -0.9388
  223MOL0     C29358   6.608   5.676   7.913  0.4371 -0.8809 -0.1788
  223MOL0     C29359   6.579   5.561   7.989 -0.2653  0.2708  0.8522
  223MOL0     C29360   6.544   5.443   7.915  0.0818 -0.1790  0.0930
  223MOL0     C29361   6.561   5.438   7.768  0.3953  0.7293 -0.5251
  223MOL0     O29362   6.537   5.314   7.712  1.1408  0.4252  0.1661
  223MOL0     C29363   6.578   5.297   7.578 -0.5935 -0.6533 -0.9552
  223MOL0     C29364   6.460   5.325   7.480  0.0072 -1.0949 -0.0009
  223MOL0     C29365   6.380   5.199   7.461 -0.5867  0.1944 -0.1407
  223MOL0     C29366   6.251   5.223   7.388  0.5020  0.1039 -0.4552
  223MOL0     C29367   6.267   5.260   7.244 -0.5291  0.7353 -0.6017
  223MOL0     C29368   6.268   5.281   7.123 -0.4418 -0.6474 -0.2503
  223MOL0     C29369   6.573   5.562   7.696  0.0813 -0.5664  0.2015
  223MOL0     C29370   6.596   5.680   7.774  0.1208 -0.2443  1.1145
  223MOL0     H29371   6.465   6.041   8.026 -0.7067  0.0861  0.9142
  223MOL0     H29372   6.454   6.188   8.221  0.7478  1.8754  0.4919
  223MOL0     H29373   6.780   6.195   8.486 -0.7825 -0.5103 -1.8274
  223MOL0     H29374   6.624   6.126   8.466 -1.3397 -0.3277  1.8799
  223MOL0     H29375   6.521   6.323   8.592 -0.3764 -5.3565  0.1250
  223MOL0     H29376   6.668   6.418   8.561 -1.7134  1.4221  2.3628
  223MOL0     H29377   6.781   6.268   8.722 -0.2791 -0.3124 -1.7821
  223MOL0     H29378   6.633   6.169   8.727 -0.6605 -1.1272 -2.3642
  223MOL0     H29379   6.675   6.468   8.814  0.2701 -0.4779 -0.2996
  223MOL0     H29380   6.515   6.377   8.811 -0.1870  2.4061 -0.7638
  223MOL0     H29381   6.621   6.393   9.046  0.9601 -3.0689  3.6715
  223MOL0     H29382   6.750   6.299   8.994 -0.4786 -2.3463 -2.3047
  223MOL0     H29383   6.580   6.130   8.928  1.2311  2.5441 -1.9911
  223MOL0     H29384   6.445   6.229   8.976  0.3581  1.1466 -0.0426
  223MOL0     H29385   6.621   6.066   9.142  0.1525  0.1621 -0.2057
  223MOL0     H29386   6.604   6.228   9.208 -1.7597  2.7889 -2.2705
  223MOL0     H29387   6.380   6.042   9.136 -2.0693  1.7798 -0.2242
  223MOL0     H29388   6.351   6.195   9.212 -0.3285  0.3691 -2.1241
  223MOL0     H29389   6.422   6.232   9.472 -1.6017 -0.8716  1.1444
  223MOL0     H29390   6.468   6.154   9.749 -3.9357 -0.9408 -1.0717
  223MOL0     H29391   6.631   6.089   9.713  0.3925  0.5202 -1.7322
  223MOL0     H29392   6.524   5.850   9.739  1.1679 -0.4066  1.0299
  223MOL0     H29393   6.381   5.944   9.771  0.4474  1.9255  0.5702
  223MOL0     H29394   6.618   5.889   9.939  0.2141  0.4984 -2.1796
  223MOL0     H29395   6.550   6.049   9.966 -1.6860 -0.8559  1.3707
  223MOL0     H29396   6.405   5.790  10.004  1.2399  0.0240  0.5852
  223MOL0     H29397   6.331   5.947  10.013 -0.8778  0.0717 -0.4363
  223MOL0     H29398   6.687   5.780  10.131 -1.3461  1.0897 -1.3372
  223MOL0     H29399   6.774   5.584  10.244  0.1167 -0.2986 -0.4791
  223MOL0     H29400   6.442   5.158  10.505 -0.5809  0.2760 -0.2212
  223MOL0     H29401   6.479   4.963  10.587  0.2193  0.3315  0.5306
  223MOL0     H29402   6.659   4.756  10.578  0.2046 -0.4759  1.3335
  223MOL0     H29403   6.532   4.775  10.686  0.1692  1.4655  1.4831
  223MOL0     H29404   6.676   4.670  10.874  0.6380  3.4943  0.1163
  223MOL0     H29405   6.804   4.646  10.751  0.2501  2.4532  2.7148
  223MOL0     H29406   6.695   4.485  10.638 -2.9148  0.2980 -2.4441
  223MOL0     H29407   6.534   4.515  10.695  0.1227 -3.3785  0.4156
  223MOL0     H29408   6.644   4.319  10.801  1.3940 -0.2909 -0.2313
  223MOL0     H29409   6.768   4.426  10.873 -0.2423  0.1837 -0.1772
  223MOL0     H29410   6.490   4.464  10.941 -0.4113 -0.8908 -0.1828
  223MOL0     H29411   6.637   4.508  11.036 -0.0488 -1.7848  1.3672
  223MOL0     H29412   6.503   4.235  11.031 -1.0441  0.0103  1.2564
  223MOL0     H29413   6.541   4.351  11.150  1.0618  1.7681 -1.9024
  223MOL0     H29414   6.690   4.148  11.134 -0.8881  0.4345  1.5650
  223MOL0     H29415   6.764   4.198  10.992  3.2476 -0.7333  2.4769
  223MOL0     H29416   6.787   4.337  11.264 -0.5295 -1.9380 -0.1399
  223MOL0     H29417   6.839   4.419  11.119 -2.4357  0.8951  0.5616
  223MOL0     H29418   6.849   5.108  10.778 -0.1468 -0.7729 -0.0278
  223MOL0     H29419   6.796   5.331  10.694  0.1698  0.7095 -1.6026
  223MOL0     H29420   6.411   5.571  10.482 -1.6413 -0.3871 -1.9453
  223MOL0     H29421   6.314   5.750  10.346 -1.1826 -2.1371 -3.2109
  223MOL0     H29422   6.882   6.220   8.206 -1.3188 -0.2769  2.0064
  223MOL0     H29423   6.882   6.033   8.022  0.0048 -0.1291  0.0107
  223MOL0     H29424   6.589   5.561   8.097 -0.4692 -3.2603  1.0063
  223MOL0     H29425   6.515   5.353   7.967 -1.1375 -1.8961 -3.3195
  223MOL0     H29426   6.608   5.193   7.569  1.2550 -0.0790 -1.9182
  223MOL0     H29427   6.671   5.350   7.554  0.3547 -2.5256 -1.5803
  223MOL0     H29428   6.395   5.399   7.527  0.8119 -0.9925  0.9906
  223MOL0     H29429   6.495   5.377   7.391  1.7812  1.8552  2.2426
  223MOL0     H29430   6.365   5.159   7.561  4.6208 -0.3580  0.6951
  223MOL0     H29431   6.448   5.125   7.416  1.8488 -1.1164  4.9679
  223MOL0     H29432   6.183   5.137   7.390  0.6953 -0.0378  0.8512
  223MOL0     H29433   6.193   5.313   7.413  0.3769 -0.3129  0.8363
  223MOL0     H29434   6.272   5.300   7.017  4.8059 -0.8535 -0.3455
  223MOL0     H29435   6.575   5.570   7.588  1.3818  3.0823  0.3775
  223MOL0     H29436   6.624   5.775   7.731  1.6573 -1.1576 -0.0189
  224MOL0     O29437   2.359   1.243   7.978 -0.0231  0.2330  0.4030
  224MOL0     C29438   2.330   1.158   8.058  0.1725  0.4718 -0.7637
  224MOL0     O29439   2.209   1.098   8.069  0.5901 -0.3356 -0.2337
  224MOL0     C29440   2.114   1.131   7.982  0.3653 -0.3342  1.1054
  224MOL0     C29441   2.002   1.198   8.028  0.1896 -0.6750 -0.0930
  224MOL0     C29442   1.904   1.251   7.938 -0.3668  0.1241  0.6392
  224MOL0     C29443   1.925   1.220   7.801  0.7654 -0.0316  1.6840
  224MOL0     O29444   1.846   1.289   7.711  0.7788 -0.6578  0.1895
  224MOL0     C29445   1.882   1.298   7.570 -0.1500  0.0229 -0.2896
  224MOL0     C29446   1.766   1.334   7.478  0.0110 -0.2024 -0.0830
  224MOL0     C29447   1.654   1.228   7.489  0.4511 -0.0210  0.5238
  224MOL0     C29448   1.550   1.245   7.600  1.0584  0.2026 -1.4087
  224MOL0     C29449   1.455   1.127   7.613 -1.1179  0.6321 -0.0737
  224MOL0     C29450   1.530   0.991   7.615  0.4996  0.2655 -0.1272
  224MOL0     C29451   1.439   0.876   7.671  0.2059  0.4627  0.5328
  224MOL0     C29452   1.378   0.796   7.550  0.1170  1.4463  0.4117
  224MOL0     N29453   1.323   0.666   7.599  0.5798 -1.0496  0.9869
  224MOL0     C29454   1.249   0.641   7.711 -0.6354  0.2970 -0.5235
  224MOL0     C29455   1.204   0.515   7.709  0.5754 -1.0596  0.3548
  224MOL0     C29456   1.119   0.451   7.810  0.0516 -0.7424  0.0496
  224MOL0     C29457   1.012   0.366   7.740  0.0980 -0.1049  0.2996
  224MOL0     C29458   1.053   0.225   7.694 -0.6273  0.3974 -0.4430
  224MOL0     C29459   0.962   0.157   7.592 -0.0270 -0.6252  0.0021
  224MOL0     O29460   0.833   0.126   7.642  0.3998  0.2234  1.0372
  224MOL0     C29461   0.767   0.001   7.626 -0.4856  0.0938 -0.2868
  224MOL0     C29462   0.832  -0.120   7.626  0.5502 -0.0035  1.0256
  224MOL0     C29463   0.767  -0.240   7.611 -0.5038  0.8087 -0.6562
  224MOL0     C29464   0.632  -0.249   7.612  0.2247  0.7092  0.5397
  224MOL0     C29465   0.567  -0.381   7.593  0.5144 -0.7497  0.0582
  224MOL0     O29466   0.642  -0.490   7.594  0.8002 -0.1713 -0.9071
  224MOL0     C29467   0.583  -0.614   7.561 -0.3893 -0.8621 -0.5700
  224MOL0     C29468   0.594  -0.716   7.663  0.0098  0.2549  0.4818
  224MOL0     C29469   0.556  -0.843   7.633 -0.6976  0.2570 -0.3265
  224MOL0     C29470   0.491  -0.868   7.510 -1.6262  1.0215  0.7392
  224MOL0     O29471   0.471  -0.997   7.488 -0.4450  0.1714  0.5384
  224MOL0     C29472   0.400  -1.041   7.367 -0.2396  0.1467  0.6130
  224MOL0     C29473   0.501  -1.037   7.242  0.1511  0.3150 -0.4662
  224MOL0     C29474   0.614  -1.144   7.258  0.1348 -0.0743  0.0349
  224MOL0     C29475   0.697  -1.155   7.122  0.4815 -0.1432 -0.0694
  224MOL0     C29476   0.786  -1.291   7.118  0.6960  0.5534  0.2298
  224MOL0     C29477   0.916  -1.295   7.044  0.8772  0.2499  0.1188
  224MOL0     C29478   0.911  -1.274   6.894 -0.1914  0.2162  0.5725
  224MOL0     C29479   1.044  -1.282   6.820  0.0045 -0.0117  0.4616
  224MOL0    Cl29480   1.137  -1.131   6.841 -0.0246 -0.0675 -0.3517
  224MOL0     C29481   0.460  -0.767   7.426 -0.0333  0.6573  0.3578
  224MOL0     C29482   0.508  -0.638   7.448  0.3396 -0.7241 -0.0022
  224MOL0     O29483   0.445  -0.376   7.577 -0.2287  0.2384 -0.2911
  224MOL0     C29484   0.561  -0.128   7.625 -0.1711 -0.6581 -0.4710
  224MOL0     C29485   0.624  -0.001   7.631  0.7498 -1.1023 -0.6217
  224MOL0     N29486   1.274   0.455   7.598 -0.2364  0.1082 -0.5138
  224MOL0     N29487   1.347   0.548   7.534  0.3878  0.3166  0.4345
  224MOL0     C29488   2.035   1.147   7.760 -0.2277  0.0051 -0.6690
  224MOL0     C29489   2.125   1.104   7.847 -0.2797  0.5205 -0.0240
  224MOL0     C29490   2.439   1.123   8.161 -0.5026 -0.5458 -0.2152
  224MOL0     C29491   2.457   0.994   8.191  1.2143 -0.1936 -0.6406
  224MOL0     C29492   2.551   0.957   8.280  0.8612  0.4879 -0.3168
  224MOL0     C29493   2.632   1.048   8.338 -0.2458  0.7083  0.0041
  224MOL0     O29494   2.730   1.001   8.420  0.4951  0.4437  0.0023
  224MOL0     C29495   2.844   1.077   8.456  0.2404  0.0195 -0.3822
  224MOL0     C29496   2.942   1.116   8.343 -0.4974  0.1074  1.3916
  224MOL0     C29497   3.073   1.179   8.397 -0.4277  0.6255  1.2310
  224MOL0     C29498   3.143   1.217   8.272 -0.7678 -0.1001  0.0520
  224MOL0     C29499   3.282   1.270   8.306  0.4110 -0.4851  0.0547
  224MOL0     C29500   3.390   1.326   8.322 -0.4236  0.4621 -0.1956
  224MOL0     C29501   2.619   1.185   8.309  0.4395 -0.1839  0.2101
  224MOL0     C29502   2.523   1.222   8.218 -0.5205 -0.0079 -0.2310
  224MOL0     H29503   1.982   1.206   8.134 -0.4714  0.8802 -0.3053
  224MOL0     H29504   1.817   1.313   7.959 -0.2795  0.7648 -0.7628
  224MOL0     H29505   1.924   1.203   7.538 -0.8469 -0.7263  0.9233
  224MOL0     H29506   1.963   1.372   7.564 -1.4083  1.4713 -0.2023
  224MOL0     H29507   1.799   1.349   7.375  2.1499  1.7915  0.8046
  224MOL0     H29508   1.737   1.433   7.515  2.4024 -0.4093  2.7694
  224MOL0     H29509   1.699   1.130   7.502  0.7426  0.1346  0.6928
  224MOL0     H29510   1.597   1.235   7.396 -0.9584  2.8042  1.4752
  224MOL0     H29511   1.598   1.275   7.693 -0.5745  3.1553 -1.4174
  224MOL0     H29512   1.480   1.325   7.574 -0.6962 -1.3156 -1.5430
  224MOL0     H29513   1.395   1.126   7.521  3.4878  0.4840 -3.3803
  224MOL0     H29514   1.382   1.143   7.693 -1.7195 -1.8754 -0.0221
  224MOL0     H29515   1.615   1.005   7.683  1.0087  1.1957 -0.9416
  224MOL0     H29516   1.565   0.962   7.516 -0.2414 -0.1061 -0.2895
  224MOL0     H29517   1.507   0.810   7.726 -1.9414 -1.0180  1.5148
  224MOL0     H29518   1.368   0.920   7.742 -1.7502  0.7368 -1.4912
  224MOL0     H29519   1.451   0.780   7.470  0.8165  3.9437  0.4756
  224MOL0     H29520   1.284   0.842   7.518 -0.2787  1.2539  1.2636
  224MOL0     H29521   1.210   0.718   7.777 -0.0271  0.6849 -0.6040
  224MOL0     H29522   1.067   0.526   7.871 -0.0038  0.3493 -1.3006
  224MOL0     H29523   1.184   0.385   7.868  1.0758 -0.6998 -1.0257
  224MOL0     H29524   0.968   0.420   7.655  0.2037 -0.4972 -0.0091
  224MOL0     H29525   0.928   0.358   7.808  0.1780 -0.5851  0.3411
  224MOL0     H29526   1.156   0.235   7.659 -0.3848 -1.2465 -0.2632
  224MOL0     H29527   1.059   0.164   7.784  0.3171  1.6747  0.3959
  224MOL0     H29528   1.023   0.069   7.568  2.1584  1.2032 -1.4397
  224MOL0     H29529   0.939   0.226   7.511 -1.9216  0.5368  1.4311
  224MOL0     H29530   0.941  -0.115   7.619  0.5701 -1.1953  0.2471
  224MOL0     H29531   0.828  -0.330   7.613  0.7048  1.6004  1.1893
  224MOL0     H29532   0.641  -0.699   7.760  1.8736 -4.1784  0.6108
  224MOL0     H29533   0.566  -0.921   7.707 -1.6568 -0.4366 -0.8982
  224MOL0     H29534   0.306  -0.987   7.352  0.6568  1.3341 -1.0407
  224MOL0     H29535   0.369  -1.143   7.390 -0.9963 -0.1119 -1.3496
  224MOL0     H29536   0.549  -0.940   7.229 -3.3646  1.9033 -3.6848
  224MOL0     H29537   0.434  -1.063   7.160  0.6575 -1.4778 -0.3584
  224MOL0     H29538   0.566  -1.239   7.282  0.3603  0.0208  0.8997
  224MOL0     H29539   0.683  -1.120   7.340 -1.8329  3.0152  0.9463
  224MOL0     H29540   0.645  -1.148   7.026  1.3895  3.0557 -0.4579
  224MOL0     H29541   0.769  -1.073   7.127 -0.2590  0.4306  1.8785
  224MOL0     H29542   0.728  -1.372   7.073  5.5099 -2.4120 -1.3752
  224MOL0     H29543   0.811  -1.342   7.212  1.3596 -0.8157 -0.6518
  224MOL0     H29544   0.962  -1.392   7.066  0.4487 -0.1033 -0.5178
  224MOL0     H29545   0.981  -1.220   7.089  0.5911  0.5977 -0.0403
  224MOL0     H29546   0.844  -1.343   6.843 -0.4278  2.8181 -3.0710
  224MOL0     H29547   0.872  -1.175   6.868  0.1088  0.1553 -0.1493
  224MOL0     H29548   1.024  -1.305   6.715  3.2798  0.2031 -0.2948
  224MOL0     H29549   1.102  -1.362   6.866  2.3435  2.0345  1.2829
  224MOL0     H29550   0.411  -0.793   7.332  1.2624  1.2866 -0.5216
  224MOL0     H29551   0.498  -0.558   7.375 -1.4824  0.2705  1.2465
  224MOL0     H29552   0.454  -0.127   7.644 -0.4548 -1.1395 -1.9723
  224MOL0     H29553   0.569   0.087   7.661 -0.7378 -1.8510 -1.0636
  224MOL0     H29554   2.071   1.125   7.660  2.8163  1.5944 -0.0374
  224MOL0     H29555   2.218   1.061   7.813  0.6156  1.4743  1.1350
  224MOL0     H29556   2.387   0.922   8.150  0.4676 -0.4928  1.0812
  224MOL0     H29557   2.572   0.860   8.323 -2.1729 -1.4216 -2.6498
  224MOL0     H29558   2.899   1.019   8.531 -1.0241 -0.8928 -0.1312
  224MOL0     H29559   2.810   1.170   8.503 -1.4485 -1.0657  0.6393
  224MOL0     H29560   2.952   1.019   8.293 -2.0004 -0.4947  2.1729
  224MOL0     H29561   2.900   1.174   8.260  2.6515  1.5174  0.6587
  224MOL0     H29562   3.136   1.120   8.464  2.6923 -0.1533 -2.0753
  224MOL0     H29563   3.046   1.271   8.450 -1.2311 -0.1417  2.1984
  224MOL0     H29564   3.162   1.133   8.205 -1.8005  1.6918 -2.6305
  224MOL0     H29565   3.082   1.287   8.214 -2.3393  0.0587  1.7683
  224MOL0     H29566   3.475   1.386   8.347  0.6024  0.2150 -2.7433
  224MOL0     H29567   2.674   1.265   8.356 -2.1745  0.1895  2.9093
  224MOL0     H29568   2.504   1.323   8.183  1.7145  0.6334  0.2467
  225MOL0     O29569   1.425   9.557   9.796 -0.1861 -0.7916  0.0209
  225MOL0     C29570   1.451   9.599   9.913 -0.0267 -0.9576 -0.3776
  225MOL0     O29571   1.480   9.724   9.952 -0.5082  0.4345  0.0089
  225MOL0     C29572   1.456   9.824   9.859  0.4808 -0.1150 -0.2088
  225MOL0     C29573   1.552   9.923   9.838  1.2565  0.8453  1.0713
  225MOL0     C29574   1.531  10.025   9.747  0.0989 -0.0469 -0.2893
  225MOL0     C29575   1.400  10.052   9.707  0.4308 -0.1941  0.1812
  225MOL0     O29576   1.354  10.163   9.643 -0.0290  0.0100  0.1789
  225MOL0     C29577   1.438  10.234   9.547 -0.6415 -0.1322  0.0317
  225MOL0     C29578   1.370  10.355   9.497  0.0789 -0.1307 -0.9014
  225MOL0     C29579   1.390  10.482   9.588 -0.1855  1.1059  0.0698
  225MOL0     C29580   1.343  10.479   9.728  1.1019  1.0237  0.4850
  225MOL0     C29581   1.306  10.615   9.773  0.6498 -0.8215  0.4929
  225MOL0     C29582   1.246  10.609   9.916 -0.1208  0.4275  0.3862
  225MOL0     C29583   1.250  10.749   9.983 -0.4435 -0.1962 -0.8672
  225MOL0     C29584   1.171  10.746  10.115  0.3742  0.5710  0.7090
  225MOL0     N29585   1.021  10.758  10.107  0.0360  0.4760 -0.0331
  225MOL0     C29586   0.953  10.883  10.136 -1.2565 -0.5750  0.1774
  225MOL0     C29587   0.843  10.888  10.059  0.4217 -0.3170  0.3112
  225MOL0     C29588   0.764  11.019  10.061  0.7755 -0.1457  0.3129
  225MOL0     C29589   0.648  11.007  10.154 -0.6416 -0.3398 -0.7542
  225MOL0     C29590   0.686  10.962  10.289 -0.2099  0.3170 -0.6651
  225MOL0     C29591   0.565  10.969  10.384  0.1862  0.2459  0.8305
  225MOL0     O29592   0.469  10.865  10.361  0.4705  0.2969  0.3363
  225MOL0     C29593   0.465  10.746  10.430  0.7182 -0.6839 -0.1134
  225MOL0     C29594   0.330  10.699  10.426 -0.3542 -0.0303 -0.6320
  225MOL0     C29595   0.302  10.580  10.485 -0.3682  0.9528  0.4088
  225MOL0     C29596   0.398  10.496  10.550  0.1483 -0.6714  0.8943
  225MOL0     C29597   0.366  10.369  10.621  0.0204 -0.5386  0.0099
  225MOL0     O29598   0.242  10.317  10.612 -0.3734 -0.5214 -0.7125
  225MOL0     C29599   0.229  10.201  10.678  0.5961  0.5323  1.1741
  225MOL0     C29600   0.228  10.081  10.608 -0.0393 -0.3443  0.2993
  225MOL0     C29601   0.225   9.962  10.678 -0.2530  0.2940 -0.3738
  225MOL0     C29602   0.213   9.958  10.811  0.2285  0.2300  0.6763
  225MOL0     O29603   0.228   9.835  10.862 -0.1561  0.4761  0.1093
  225MOL0     C29604   0.336   9.830  10.956  0.2802  0.4616  0.6525
  225MOL0     C29605   0.356   9.681  10.993 -0.5306  0.1740  0.1761
  225MOL0     C29606   0.234   9.614  11.037  0.8223 -0.0460  0.1784
  225MOL0     C29607   0.262   9.472  11.096 -0.0348  0.3354 -0.3879
  225MOL0     C29608   0.267   9.367  10.990 -0.1383  0.7268 -0.3978
  225MOL0     C29609   0.344   9.250  11.021 -0.0992  0.5043  0.6304
  225MOL0     C29610   0.339   9.165  10.898  0.5635  0.0864  0.2700
  225MOL0     C29611   0.385   9.021  10.924  0.3455  0.5119  0.4407
  225MOL0    Cl29612   0.372   8.919  10.773 -0.4726 -0.1400 -0.2544
  225MOL0     C29613   0.200  10.078  10.885  0.1636  1.1591  0.9215
  225MOL0     C29614   0.205  10.196  10.811  0.1471 -0.6374  0.1098
  225MOL0     O29615   0.450  10.330  10.700 -0.1664 -0.6743 -0.0394
  225MOL0     C29616   0.530  10.550  10.550  0.4085  0.7555  0.1105
  225MOL0     C29617   0.571  10.672  10.482  0.1448  0.6939  0.1677
  225MOL0     N29618   0.834  10.772   9.991 -0.4310  0.5992  0.7657
  225MOL0     N29619   0.944  10.699  10.020  0.2264  0.2788  0.3729
  225MOL0     C29620   1.296   9.965   9.739 -0.1113  1.1051  0.3133
  225MOL0     C29621   1.328   9.851   9.815 -0.6290 -1.2151 -1.0482
  225MOL0     C29622   1.450   9.485  10.009  0.0974 -0.2663  0.3993
  225MOL0     C29623   1.531   9.493  10.119  0.0126  0.1498  0.2769
  225MOL0     C29624   1.521   9.387  10.213  0.1228 -0.1735 -0.5676
  225MOL0     C29625   1.427   9.278  10.196 -0.2314 -0.1908  0.0237
  225MOL0     O29626   1.423   9.186  10.297 -0.3454  0.8778  0.3331
  225MOL0     C29627   1.300   9.182  10.367  0.2768  0.5955 -0.5892
  225MOL0     C29628   1.201   9.076  10.302  0.0213  0.3796  0.6936
  225MOL0     C29629   1.103   9.018  10.407  0.1921  0.5222  0.9227
  225MOL0     C29630   1.138   8.877  10.450 -0.9194  0.4829 -0.3419
  225MOL0     C29631   1.276   8.850  10.504  0.1712  0.7799  0.6264
  225MOL0     C29632   1.385   8.815  10.538  0.3201 -0.3673  0.2053
  225MOL0     C29633   1.344   9.282  10.087 -0.6296  0.1794  0.0803
  225MOL0     C29634   1.356   9.385   9.991  0.1173  0.4972 -0.7969
  225MOL0     H29635   1.649   9.916   9.886  0.5859  3.1261  2.9288
  225MOL0     H29636   1.609  10.094   9.715  1.0462 -1.3438 -0.9014
  225MOL0     H29637   1.461  10.176   9.457  0.6742  0.4557 -0.0251
  225MOL0     H29638   1.528  10.257   9.604 -0.8322 -3.1601  1.7273
  225MOL0     H29639   1.270  10.336   9.455 -0.1554  2.6392 -1.7457
  225MOL0     H29640   1.422  10.377   9.404  0.2732 -2.8424 -1.5152
  225MOL0     H29641   1.344  10.565   9.533  1.1869  1.4959 -0.5554
  225MOL0     H29642   1.492  10.523   9.585  1.2434 -2.2249 -1.5733
  225MOL0     H29643   1.249  10.424   9.741  1.3484  1.1067  3.3452
  225MOL0     H29644   1.426  10.451   9.794 -1.2250 -0.8161  2.8525
  225MOL0     H29645   1.231  10.653   9.703  1.8018 -3.1298 -2.1706
  225MOL0     H29646   1.394  10.681   9.776 -0.7474  1.2186 -0.5563
  225MOL0     H29647   1.302  10.545   9.984  2.6673 -1.3994 -3.2880
  225MOL0     H29648   1.146  10.566   9.900  0.1473  0.4099 -1.4264
  225MOL0     H29649   1.352  10.782  10.002  0.3145 -2.3220 -0.9912
  225MOL0     H29650   1.189  10.817   9.923 -0.1301 -0.1630 -1.1514
  225MOL0     H29651   1.209  10.831  10.172  3.4234  1.5418 -2.3826
  225MOL0     H29652   1.190  10.649  10.161  1.7456  0.9499  0.9976
  225MOL0     H29653   0.995  10.957  10.203  2.1071 -0.9063 -1.3719
  225MOL0     H29654   0.720  11.042   9.963  0.5612 -2.4529 -0.1912
  225MOL0     H29655   0.827  11.100  10.099  0.2400 -1.6165  4.9721
  225MOL0     H29656   0.583  10.927  10.118  0.6679 -1.0937 -1.5184
  225MOL0     H29657   0.604  11.105  10.171  3.9835  1.7183  0.8224
  225MOL0     H29658   0.716  10.857  10.290  0.5274  0.5215  0.8961
  225MOL0     H29659   0.765  11.018  10.340 -3.5503  2.9601  2.0903
  225MOL0     H29660   0.520  11.067  10.363  3.0989  1.0025 -3.0456
  225MOL0     H29661   0.600  10.968  10.488  0.8520 -0.0124  0.6035
  225MOL0     H29662   0.253  10.756  10.373 -0.7101  0.9804  0.8951
  225MOL0     H29663   0.204  10.541  10.461  0.3028 -0.5041 -0.0829
  225MOL0     H29664   0.237  10.078  10.500 -1.0937  3.2969 -0.0294
  225MOL0     H29665   0.228   9.861  10.639 -2.2011 -0.3382  0.9618
  225MOL0     H29666   0.306   9.890  11.042 -1.0833  1.0995 -0.2283
  225MOL0     H29667   0.428   9.873  10.915  0.5469 -0.8679 -0.2117
  225MOL0     H29668   0.436   9.667  11.066  0.1325 -0.5854 -0.6645
  225MOL0     H29669   0.393   9.628  10.905 -0.9612 -3.2622  1.8564
  225MOL0     H29670   0.166   9.608  10.952 -0.3995  3.2468  0.7947
  225MOL0     H29671   0.172   9.668  11.109  0.1335 -2.0970  1.2126
  225MOL0     H29672   0.359   9.475  11.148 -0.1448 -0.1564 -0.1495
  225MOL0     H29673   0.194   9.430  11.170  0.7249 -1.0832 -0.4468
  225MOL0     H29674   0.316   9.403  10.899 -1.0176  0.8499 -0.8290
  225MOL0     H29675   0.165   9.340  10.961  1.3355 -6.2439 -0.8313
  225MOL0     H29676   0.284   9.196  11.094 -0.2370  1.1261  0.9811
  225MOL0     H29677   0.443   9.269  11.064 -0.9502  0.9372  2.4724
  225MOL0     H29678   0.256   9.176  10.829  0.7471  2.7811  0.3828
  225MOL0     H29679   0.418   9.214  10.840 -0.4965  2.6714  0.8782
  225MOL0     H29680   0.325   8.974  11.002 -0.4903  3.0569  1.4391
  225MOL0     H29681   0.488   9.025  10.962  0.4440  1.3795  0.1086
  225MOL0     H29682   0.163  10.082  10.987  0.2200  0.9091  0.9526
  225MOL0     H29683   0.195  10.280  10.879 -0.6266 -2.9042  3.0058
  225MOL0     H29684   0.599  10.481  10.597 -1.1988 -2.3701 -1.7808
  225MOL0     H29685   0.677  10.695  10.472  0.6880 -1.8429 -0.7498
  225MOL0     H29686   1.197   9.977   9.696  0.4692 -1.1218 -1.8585
  225MOL0     H29687   1.245   9.787   9.842 -1.2575 -0.2183 -0.5242
  225MOL0     H29688   1.609   9.568  10.124  1.3818 -0.9863 -2.1755
  225MOL0     H29689   1.582   9.393  10.302 -0.0174  3.2434 -0.5872
  225MOL0     H29690   1.260   9.282  10.379  4.5830  2.2561  2.4474
  225MOL0     H29691   1.320   9.137  10.465 -2.0217 -0.2801 -0.4743
  225MOL0     H29692   1.140   9.145  10.244  0.3342  1.7243  1.9239
  225MOL0     H29693   1.254   9.002  10.241  0.6056 -1.9031  3.6820
  225MOL0     H29694   0.999   9.028  10.374  0.2400  0.4508  0.7474
  225MOL0     H29695   1.111   9.084  10.494 -0.7857  0.9292  0.7141
  225MOL0     H29696   1.069   8.829  10.521  1.3314 -0.8206  1.0965
  225MOL0     H29697   1.126   8.819  10.358 -2.6453 -3.1717  1.9196
  225MOL0     H29698   1.475   8.772  10.579  1.6782  2.6871  0.6807
  225MOL0     H29699   1.269   9.203  10.091  2.0281 -2.4741  0.6477
  225MOL0     H29700   1.275   9.396   9.919 -1.6661 -0.0803  1.0154
  226MOL0     O29701   8.979   8.503   4.645  0.0946 -0.3764 -0.5796
  226MOL0     C29702   9.088   8.481   4.608  0.7690  0.1972  0.4569
  226MOL0     O29703   9.207   8.544   4.656 -0.6988 -0.4074 -0.6486
  226MOL0     C29704   9.208   8.675   4.705  0.0058 -0.8616 -0.2374
  226MOL0     C29705   9.329   8.703   4.780  0.2894  0.1421  0.9625
  226MOL0     C29706   9.364   8.833   4.807 -1.0443  1.1262  0.2298
  226MOL0     C29707   9.280   8.936   4.772 -0.7664 -1.2208  0.7952
  226MOL0     O29708   9.327   9.064   4.807  0.1519 -0.3126  0.0203
  226MOL0     C29709   9.226   9.164   4.821 -0.3905  0.2122  0.3893
  226MOL0     C29710   9.237   9.250   4.945 -0.5989  0.0349 -0.2091
  226MOL0     C29711   9.385   9.291   4.973  0.3060  0.2680 -1.1175
  226MOL0     C29712   9.416   9.411   4.879  0.2491 -0.4401  0.5639
  226MOL0     C29713   9.550   9.474   4.898 -0.2554 -0.5309  0.3923
  226MOL0     C29714   9.568   9.560   5.031 -0.0349 -0.6222 -1.0690
  226MOL0     C29715   9.709   9.611   5.027 -0.3860  0.6523 -1.0412
  226MOL0     C29716   9.749   9.674   5.162  0.2136  0.3545 -0.3843
  226MOL0     N29717   9.883   9.724   5.141  0.5773  1.0760 -0.3784
  226MOL0     C29718   9.924   9.862   5.145 -1.3149 -0.2979 -0.3978
  226MOL0     C29719  10.047   9.864   5.093  0.8369 -0.5327 -0.6016
  226MOL0     C29720  10.140   9.982   5.065 -0.0265 -0.5160  1.1069
  226MOL0     C29721  10.239   9.996   5.174 -0.5055  0.1765 -0.1612
  226MOL0     C29722  10.191  10.087   5.280 -0.8317  0.1390 -0.5585
  226MOL0     C29723  10.307  10.112   5.373  0.2082  0.5537 -0.8019
  226MOL0     O29724  10.374  10.234   5.320  0.7810 -0.1480 -0.7153
  226MOL0     C29725  10.451  10.296   5.417  0.1291  0.0957  0.2649
  226MOL0     C29726  10.518  10.228   5.519  0.0238  0.4366  0.7281
  226MOL0     C29727  10.597  10.289   5.611  0.8551  0.0438  0.6696
  226MOL0     C29728  10.611  10.431   5.606 -0.3425 -0.0263 -0.7178
  226MOL0     C29729  10.684  10.503   5.710  0.0924  0.5700  0.6967
  226MOL0     O29730  10.680  10.448   5.833 -0.1732  1.0903 -0.2504
  226MOL0     C29731  10.745  10.503   5.938  0.1096 -1.2980 -0.3063
  226MOL0     C29732  10.787  10.424   6.042  0.2645  0.3523  0.2032
  226MOL0     C29733  10.866  10.470   6.148 -0.3805  0.3348 -0.6279
  226MOL0     C29734  10.886  10.614   6.160  0.5057 -0.3457 -0.0685
  226MOL0     O29735  10.964  10.675   6.262  0.3326 -0.6677  0.1699
  226MOL0     C29736  11.008  10.593   6.375  0.2854 -0.5353 -0.3386
  226MOL0     C29737  11.131  10.652   6.457 -0.1406  0.0146  0.9186
  226MOL0     C29738  11.105  10.802   6.483  0.0981  0.0500  0.8827
  226MOL0     C29739  11.199  10.878   6.578  0.7338 -0.3016 -0.4919
  226MOL0     C29740  11.324  10.939   6.495  0.6248 -0.4301 -0.1935
  226MOL0     C29741  11.441  10.966   6.602  0.6052 -0.1797 -0.5791
  226MOL0     C29742  11.536  10.850   6.626  0.1447  0.0305 -0.6760
  226MOL0     C29743  11.638  10.864   6.746  0.7184  0.0697 -0.3739
  226MOL0    Cl29744  11.548  10.887   6.905  0.5523  0.0350 -0.0864
  226MOL0     C29745  10.826  10.697   6.073  1.2951  0.0322  0.6240
  226MOL0     C29746  10.764  10.643   5.962  0.0605 -0.4483  1.3130
  226MOL0     O29747  10.750  10.602   5.683 -0.1469  0.1416  0.6125
  226MOL0     C29748  10.550  10.500   5.497 -0.5567 -0.0916  0.0768
  226MOL0     C29749  10.476  10.439   5.402  0.3979  0.0408  0.7648
  226MOL0     N29750  10.089   9.730   5.067  0.2052  0.1155 -0.0722
  226MOL0     N29751   9.989   9.650   5.093  0.4323 -0.1989 -0.0635
  226MOL0     C29752   9.165   8.912   4.687 -0.0534 -0.5075 -0.9215
  226MOL0     C29753   9.130   8.785   4.663  0.3299  0.4725  0.1244
  226MOL0     C29754   9.100   8.360   4.516 -0.4212  0.1501 -0.3997
  226MOL0     C29755   9.177   8.360   4.401 -0.1517  0.0732 -0.1284
  226MOL0     C29756   9.189   8.240   4.338 -0.0615  0.2096 -0.2143
  226MOL0     C29757   9.107   8.125   4.368 -0.0612  0.3193 -0.1043
  226MOL0     O29758   9.093   8.013   4.285 -0.1128 -0.3735  0.2392
  226MOL0     C29759   9.194   7.994   4.179  0.3068 -0.2962 -0.2724
  226MOL0     C29760   9.175   7.849   4.132  0.6216 -0.1041  0.4953
  226MOL0     C29761   9.036   7.820   4.075 -0.1196 -0.0873  0.6361
  226MOL0     C29762   9.054   7.675   4.022  0.0817 -1.1100  0.3966
  226MOL0     C29763   8.946   7.645   3.934  0.2823 -0.1948  0.2831
  226MOL0     C29764   8.850   7.616   3.866 -0.2907  0.3608  0.1083
  226MOL0     C29765   9.026   8.133   4.477  0.3198 -0.3489  1.3686
  226MOL0     C29766   9.027   8.242   4.561  0.7101 -0.1614 -0.4285
  226MOL0     H29767   9.399   8.622   4.795  1.0755  0.4921 -0.5684
  226MOL0     H29768   9.464   8.852   4.843 -1.6513 -0.0674  2.7848
  226MOL0     H29769   9.129   9.117   4.839  0.1809 -1.3946 -0.5166
  226MOL0     H29770   9.234   9.215   4.724  3.6203 -0.4332  0.2058
  226MOL0     H29771   9.188   9.195   5.026 -2.1288 -1.5283 -2.0934
  226MOL0     H29772   9.182   9.344   4.932 -0.5388  0.4460  2.0131
  226MOL0     H29773   9.462   9.213   4.971  2.0419  1.8569  0.2411
  226MOL0     H29774   9.390   9.321   5.078  0.6988 -3.2224  0.0054
  226MOL0     H29775   9.415   9.383   4.773 -0.8417  0.6256  0.2771
  226MOL0     H29776   9.338   9.486   4.899 -1.9732 -2.3454 -0.4157
  226MOL0     H29777   9.564   9.550   4.821 -0.2715  1.0621  1.9117
  226MOL0     H29778   9.629   9.400   4.884 -0.8899 -1.4434  1.3928
  226MOL0     H29779   9.533   9.512   5.123  0.1427 -1.8073 -1.5947
  226MOL0     H29780   9.498   9.644   5.024 -2.1585 -2.2325 -0.4668
  226MOL0     H29781   9.773   9.527   4.995 -1.5725 -0.2465 -1.1206
  226MOL0     H29782   9.714   9.683   4.946 -0.9055  2.2663  0.3175
  226MOL0     H29783   9.746   9.612   5.252  2.3960  0.8686  0.1054
  226MOL0     H29784   9.692   9.763   5.192  4.6401  2.4156  3.0534
  226MOL0     H29785   9.873   9.952   5.178  0.8060  0.9954 -0.4783
  226MOL0     H29786  10.081  10.073   5.051  0.7977  0.0097  0.9708
  226MOL0     H29787  10.193   9.959   4.972 -0.5308 -0.9262  0.9165
  226MOL0     H29788  10.328  10.048   5.137 -0.0800 -0.1029  0.4522
  226MOL0     H29789  10.264   9.894   5.205 -2.6457 -0.3437 -0.0156
  226MOL0     H29790  10.151  10.181   5.241 -2.3374  0.7931  2.3164
  226MOL0     H29791  10.106  10.039   5.328 -0.1007 -1.2009 -0.5440
  226MOL0     H29792  10.368  10.024   5.395 -0.5079 -0.7746 -3.6923
  226MOL0     H29793  10.254  10.136   5.465 -1.5340  0.6141 -1.7813
  226MOL0     H29794  10.507  10.121   5.515 -0.7013  0.5369 -1.2171
  226MOL0     H29795  10.657  10.231   5.680 -0.0594  1.0994  2.4223
  226MOL0     H29796  10.792  10.316   6.028  1.6913  0.1169  2.2165
  226MOL0     H29797  10.907  10.404   6.224  0.1295  1.1423 -0.1862
  226MOL0     H29798  11.037  10.492   6.347 -0.5573 -0.7070 -0.6297
  226MOL0     H29799  10.929  10.577   6.450  0.8874  1.6915  0.8540
  226MOL0     H29800  11.222  10.642   6.397 -0.3752 -1.3527  0.7464
  226MOL0     H29801  11.141  10.602   6.554  0.0576  0.8170  1.3154
  226MOL0     H29802  11.002  10.798   6.520 -0.3671  0.7919 -0.2678
  226MOL0     H29803  11.110  10.859   6.389 -0.0787 -2.5834 -0.8127
  226MOL0     H29804  11.150  10.962   6.629  1.5056 -0.8521  1.2538
  226MOL0     H29805  11.245  10.806   6.647  0.2831 -1.5712 -1.4871
  226MOL0     H29806  11.290  11.026   6.438 -2.0737 -0.5630  1.0290
  226MOL0     H29807  11.356  10.863   6.423  0.8670 -1.3288  0.8427
  226MOL0     H29808  11.400  10.995   6.699  2.2701  0.4148 -0.0356
  226MOL0     H29809  11.494  11.058   6.576  1.0741  0.6644  2.9240
  226MOL0     H29810  11.482  10.758   6.647  0.7037 -0.1134  0.1652
  226MOL0     H29811  11.594  10.841   6.533  0.7811  0.5178 -0.3356
  226MOL0     H29812  11.702  10.953   6.741 -1.7691  2.3891  3.9051
  226MOL0     H29813  11.689  10.768   6.754 -0.2543 -0.5403 -1.2591
  226MOL0     H29814  10.849  10.803   6.071 -1.2634  0.6814  2.0997
  226MOL0     H29815  10.730  10.713   5.887 -3.2506 -1.4586  1.6839
  226MOL0     H29816  10.566  10.606   5.485 -1.5720 -0.1882 -2.8869
  226MOL0     H29817  10.413  10.484   5.326  2.2376  2.8538  0.7678
  226MOL0     H29818   9.107   8.994   4.646  0.6283  0.4236 -0.0794
  226MOL0     H29819   9.054   8.761   4.589  0.3063 -1.5409  0.7443
  226MOL0     H29820   9.251   8.438   4.390  1.8101 -1.7903 -0.5922
  226MOL0     H29821   9.255   8.233   4.252 -2.3652 -0.5779 -2.0095
  226MOL0     H29822   9.297   8.012   4.211  1.0733 -0.2011 -2.5853
  226MOL0     H29823   9.180   8.070   4.102 -0.8087 -1.7233 -1.5325
  226MOL0     H29824   9.251   7.843   4.053 -1.4657 -1.3148 -1.5561
  226MOL0     H29825   9.192   7.771   4.206 -2.5453 -1.6095 -0.1900
  226MOL0     H29826   9.027   7.893   3.994 -0.6316 -3.8717 -3.0801
  226MOL0     H29827   8.949   7.816   4.141 -1.7132  0.4110 -1.3190
  226MOL0     H29828   9.139   7.686   3.954 -1.2077  2.3174 -0.9072
  226MOL0     H29829   9.068   7.598   4.098  0.9078 -1.3104  0.0554
  226MOL0     H29830   8.762   7.571   3.825  1.4058 -3.4021  0.1308
  226MOL0     H29831   8.960   8.050   4.498 -0.3224 -0.1697  0.1245
  226MOL0     H29832   8.959   8.242   4.645 -1.0116 -1.3461 -1.7364
  227MOL0     O29833   6.181   2.549   5.626 -0.1746  0.3789  0.3928
  227MOL0     C29834   6.180   2.427   5.633  0.2333 -0.7595  0.4446
  227MOL0     O29835   6.190   2.344   5.525 -0.6523 -0.2688 -0.0146
  227MOL0     C29836   6.228   2.386   5.395  0.0845  0.7061  0.0001
  227MOL0     C29837   6.347   2.339   5.341 -0.0312 -0.3650  0.0704
  227MOL0     C29838   6.397   2.379   5.214  0.1047 -0.0896 -0.3561
  227MOL0     C29839   6.318   2.478   5.151 -0.1378  0.3201  0.5544
  227MOL0     O29840   6.356   2.534   5.033 -0.2465 -0.1050 -0.2116
  227MOL0     C29841   6.452   2.477   4.939  0.0071 -0.0924  0.0126
  227MOL0     C29842   6.585   2.530   4.988 -0.4704  0.1644  0.1433
  227MOL0     C29843   6.699   2.482   4.896  0.5461  0.4497 -0.1681
  227MOL0     C29844   6.839   2.548   4.922 -0.5942 -0.4683 -0.8309
  227MOL0     C29845   6.956   2.477   4.870  0.9264  0.2355 -0.2017
  227MOL0     C29846   7.090   2.517   4.938 -1.0229  0.2586  0.6106
  227MOL0     C29847   7.121   2.455   5.077 -0.4053 -0.4672 -0.0294
  227MOL0     C29848   7.170   2.308   5.066  0.5440 -0.5300 -0.0137
  227MOL0     N29849   7.301   2.315   4.992 -0.6077  0.0097 -0.8743
  227MOL0     C29850   7.423   2.353   5.040  0.3075  0.2795  0.1665
  227MOL0     C29851   7.509   2.305   4.946  0.5077 -0.9231  0.0140
  227MOL0     C29852   7.658   2.321   4.961 -0.2861  0.0911  0.3327
  227MOL0     C29853   7.725   2.400   4.840  0.4836  0.0366 -0.8335
  227MOL0     C29854   7.651   2.534   4.819  0.2937  0.7156 -0.2436
  227MOL0     C29855   7.666   2.579   4.679 -0.1611  0.3623  0.0636
  227MOL0     O29856   7.621   2.713   4.646 -0.7155  0.5843  0.4984
  227MOL0     C29857   7.496   2.750   4.684  0.0919  0.1805 -0.0730
  227MOL0     C29858   7.383   2.673   4.658  0.0372 -0.7222  0.0202
  227MOL0     C29859   7.260   2.715   4.703 -0.8090  0.2552 -0.5142
  227MOL0     C29860   7.248   2.841   4.770  0.0498  0.4515  0.9359
  227MOL0     C29861   7.115   2.885   4.809 -0.4613  0.5037 -0.3677
  227MOL0     O29862   7.109   3.004   4.880 -0.7537  0.4103 -0.1544
  227MOL0     C29863   6.998   3.024   4.962 -0.8569  0.4704 -0.0521
  227MOL0     C29864   6.957   2.919   5.049 -0.3614 -0.4616  0.0835
  227MOL0     C29865   6.848   2.954   5.131 -0.1944  0.2320 -0.0776
  227MOL0     C29866   6.773   3.071   5.124 -0.1518  0.7905  0.5308
  227MOL0     O29867   6.679   3.107   5.209  0.2214 -0.4047  0.0579
  227MOL0     C29868   6.551   3.049   5.167 -0.2563 -0.2357  0.1104
  227MOL0     C29869   6.475   3.001   5.293 -0.0521 -0.5200 -0.7212
  227MOL0     C29870   6.540   2.877   5.358 -0.1942  0.1622 -0.6544
  227MOL0     C29871   6.459   2.801   5.474 -0.5335  0.0509 -0.0668
  227MOL0     C29872   6.525   2.665   5.491 -0.8006  1.2137 -0.4851
  227MOL0     C29873   6.654   2.658   5.564 -0.1341 -0.6921  0.5978
  227MOL0     C29874   6.714   2.525   5.561 -0.4053 -0.2679  1.0921
  227MOL0     C29875   6.844   2.518   5.648 -0.7068 -0.5698 -0.0637
  227MOL0    Cl29876   6.826   2.602   5.805 -0.3541 -0.8257  0.2975
  227MOL0     C29877   6.815   3.161   5.035  0.6904 -0.1271  0.6407
  227MOL0     C29878   6.916   3.146   4.948 -0.9141 -0.1424  0.5061
  227MOL0     O29879   7.024   2.819   4.763 -0.0967 -0.9042 -0.0223
  227MOL0     C29880   7.358   2.914   4.801 -0.3943  0.1454  0.2688
  227MOL0     C29881   7.486   2.875   4.757 -1.0058 -0.2932  1.0574
  227MOL0     N29882   7.445   2.228   4.853 -0.3602 -0.3461  0.0546
  227MOL0     N29883   7.322   2.236   4.888  0.1402  0.0574  0.1838
  227MOL0     C29884   6.197   2.524   5.200 -0.5614 -0.9651 -1.0685
  227MOL0     C29885   6.162   2.489   5.320  0.8106 -1.0949  0.1864
  227MOL0     C29886   6.184   2.348   5.759 -0.1620 -0.0206 -0.3841
  227MOL0     C29887   6.223   2.209   5.764 -0.5055  0.4369 -0.8930
  227MOL0     C29888   6.230   2.142   5.884  0.3317  0.3290  0.5294
  227MOL0     C29889   6.206   2.205   6.008 -0.0689 -0.0144  0.1289
  227MOL0     O29890   6.222   2.129   6.120 -0.0357  0.8908 -0.3538
  227MOL0     C29891   6.263   2.194   6.239 -0.4465  0.7065 -0.1130
  227MOL0     C29892   6.341   2.099   6.340  1.3705  0.5019 -0.7755
  227MOL0     C29893   6.358   2.173   6.476 -0.6866 -0.8311  1.2052
  227MOL0     C29894   6.425   2.073   6.570 -1.0908  0.9371 -0.3597
  227MOL0     C29895   6.400   2.113   6.708  0.4690  0.7288  0.1238
  227MOL0     C29896   6.373   2.168   6.810 -0.4101  0.4787  0.5492
  227MOL0     C29897   6.173   2.338   6.004  0.5554  0.4947  1.1242
  227MOL0     C29898   6.160   2.410   5.881  0.0437  0.2084 -0.2470
  227MOL0     H29899   6.404   2.265   5.397 -2.9197 -1.4352  1.8531
  227MOL0     H29900   6.494   2.342   5.183  0.3024  1.1871 -1.3824
  227MOL0     H29901   6.419   2.522   4.845  3.0816 -0.2794 -1.2697
  227MOL0     H29902   6.453   2.367   4.945  2.6352 -0.2107 -1.4077
  227MOL0     H29903   6.622   2.500   5.087 -1.5713  0.8044  0.7768
  227MOL0     H29904   6.582   2.640   4.985 -0.4762  0.1421 -2.6290
  227MOL0     H29905   6.676   2.508   4.793  0.8179  0.7687 -0.1517
  227MOL0     H29906   6.714   2.376   4.918 -1.9784  0.6617  3.5589
  227MOL0     H29907   6.843   2.639   4.861 -0.0259 -1.1564 -1.8594
  227MOL0     H29908   6.848   2.565   5.029  1.6267  2.5027 -1.3389
  227MOL0     H29909   6.962   2.485   4.762  1.1144  0.2467 -0.1897
  227MOL0     H29910   6.948   2.368   4.879  1.3726 -0.0195 -2.4298
  227MOL0     H29911   7.074   2.624   4.955 -4.2356  0.2522 -1.4664
  227MOL0     H29912   7.167   2.500   4.862 -2.6252 -0.4880 -0.9253
  227MOL0     H29913   7.181   2.509   5.151  2.1609 -4.2669  0.9492
  227MOL0     H29914   7.022   2.441   5.121 -1.4277 -0.4929 -2.1928
  227MOL0     H29915   7.107   2.243   5.003 -3.3462  2.1761  0.7483
  227MOL0     H29916   7.182   2.267   5.167 -0.7882  0.8084  0.7282
  227MOL0     H29917   7.451   2.387   5.139 -1.2172  2.0998  0.0251
  227MOL0     H29918   7.701   2.221   4.947  2.1396  1.3442 -2.2957
  227MOL0     H29919   7.694   2.367   5.053 -1.4040  4.0015 -1.0053
  227MOL0     H29920   7.714   2.346   4.745  2.3067 -0.3181 -0.8765
  227MOL0     H29921   7.833   2.408   4.855  0.1542  2.2052  0.8851
  227MOL0     H29922   7.543   2.538   4.837  0.0088  2.3961 -1.9977
  227MOL0     H29923   7.699   2.593   4.898  2.2454 -2.0727  0.8058
  227MOL0     H29924   7.621   2.507   4.610  1.5705  0.3897 -1.1720
  227MOL0     H29925   7.772   2.578   4.654 -0.3440 -0.1183 -0.7444
  227MOL0     H29926   7.382   2.575   4.611 -0.6528 -1.6353  1.8550
  227MOL0     H29927   7.173   2.652   4.692 -0.3114 -0.5199 -0.1343
  227MOL0     H29928   7.021   2.832   5.052 -1.6865 -1.4475  1.1012
  227MOL0     H29929   6.817   2.882   5.207  1.8891 -1.2766 -0.5798
  227MOL0     H29930   6.569   2.974   5.090 -2.6443 -0.0447 -0.7096
  227MOL0     H29931   6.495   3.133   5.124  2.2351  1.0691 -0.7973
  227MOL0     H29932   6.373   2.983   5.259 -0.2877  1.7100 -1.2962
  227MOL0     H29933   6.476   3.081   5.367 -2.4699 -1.2259  0.2045
  227MOL0     H29934   6.638   2.905   5.399  0.4017 -0.2954 -1.7033
  227MOL0     H29935   6.566   2.809   5.276  1.3170  1.0627 -0.9759
  227MOL0     H29936   6.449   2.856   5.568 -0.8009 -2.5303  1.5015
  227MOL0     H29937   6.359   2.794   5.432 -0.1977 -1.2176 -0.7017
  227MOL0     H29938   6.549   2.631   5.389 -2.2915  1.7279 -1.0338
  227MOL0     H29939   6.449   2.602   5.538 -1.1250  2.4258  0.6685
  227MOL0     H29940   6.638   2.695   5.666  0.9927  1.6603 -0.0168
  227MOL0     H29941   6.735   2.722   5.527 -0.1144 -0.4165  1.1070
  227MOL0     H29942   6.642   2.457   5.607  0.3592 -1.0227  1.1898
  227MOL0     H29943   6.737   2.487   5.461  2.4259 -1.8896  2.2506
  227MOL0     H29944   6.925   2.563   5.589 -1.7068  1.8365  0.2844
  227MOL0     H29945   6.883   2.417   5.657  1.0035 -0.2981 -3.0769
  227MOL0     H29946   6.760   3.254   5.025  0.5035  0.0698  2.9900
  227MOL0     H29947   6.952   3.211   4.869 -2.4852 -0.6661 -0.6858
  227MOL0     H29948   7.349   3.014   4.842  2.3526  0.9835 -0.9325
  227MOL0     H29949   7.580   2.927   4.777 -1.7057  1.2249  0.5894
  227MOL0     H29950   6.137   2.591   5.139 -2.2753  0.3711  1.8614
  227MOL0     H29951   6.071   2.537   5.352  0.6303  1.1040 -3.1552
  227MOL0     H29952   6.234   2.150   5.673 -0.8745  0.3654 -0.8938
  227MOL0     H29953   6.259   2.037   5.885 -3.4534 -0.8591  1.4513
  227MOL0     H29954   6.172   2.239   6.280  1.1001  1.9216  2.2598
  227MOL0     H29955   6.325   2.282   6.217 -0.6633  0.9017  0.0586
  227MOL0     H29956   6.271   2.019   6.363 -0.5258  2.9587  3.1938
  227MOL0     H29957   6.438   2.071   6.298  0.9642  1.4773 -2.4691
  227MOL0     H29958   6.266   2.215   6.519  0.3801  1.2594  1.5533
  227MOL0     H29959   6.412   2.268   6.472 -2.7197  0.3792  0.9429
  227MOL0     H29960   6.379   1.975   6.559 -1.3169  1.2231 -2.4753
  227MOL0     H29961   6.531   2.071   6.541 -1.7066 -0.6818 -2.7665
  227MOL0     H29962   6.353   2.233   6.892  1.5706  1.2139  0.5064
  227MOL0     H29963   6.162   2.390   6.099  1.5733  1.1717  0.8894
  227MOL0     H29964   6.125   2.512   5.890  1.0871  0.8233 -2.6460
  228MOL0     O29965   4.994   4.023   2.400 -0.8759 -0.3032 -0.5689
  228MOL0     C29966   4.958   3.960   2.303  0.3238 -0.6254  0.5811
  228MOL0     O29967   4.825   3.958   2.261  0.4618  0.1235 -0.0864
  228MOL0     C29968   4.734   4.053   2.314 -0.0603  1.0334 -0.7741
  228MOL0     C29969   4.725   4.172   2.250 -0.1614  0.3775 -0.0196
  228MOL0     C29970   4.628   4.265   2.284  0.4901  0.2334 -1.2716
  228MOL0     C29971   4.546   4.238   2.404  0.1793  0.2431 -0.2569
  228MOL0     O29972   4.441   4.324   2.438  0.7876 -0.2980  0.0445
  228MOL0     C29973   4.312   4.259   2.419  0.4735  0.3196 -0.5378
  228MOL0     C29974   4.193   4.356   2.394 -0.3239  0.0490  0.3432
  228MOL0     C29975   4.241   4.488   2.344 -0.1719 -0.5157 -0.1369
  228MOL0     C29976   4.296   4.494   2.209 -0.1471  0.2729  0.6935
  228MOL0     C29977   4.357   4.632   2.178  0.8165 -0.8066 -0.1702
  228MOL0     C29978   4.497   4.627   2.240 -0.0422  0.5367  0.2354
  228MOL0     C29979   4.560   4.762   2.230  0.6285 -0.2325 -0.4084
  228MOL0     C29980   4.669   4.743   2.128 -0.4712 -0.0123  0.5383
  228MOL0     N29981   4.770   4.649   2.172  0.3374 -0.3999  0.4184
  228MOL0     C29982   4.809   4.622   2.300 -0.1987 -0.5954 -0.0121
  228MOL0     C29983   4.877   4.508   2.291  0.0814  0.3429  0.4537
  228MOL0     C29984   4.925   4.422   2.409 -1.2005 -0.7786  0.0488
  228MOL0     C29985   4.984   4.507   2.523  0.6206 -0.0686 -0.4588
  228MOL0     C29986   5.105   4.578   2.468  0.0627  0.0236 -1.2806
  228MOL0     C29987   5.181   4.655   2.575 -0.1537  0.6949  0.1421
  228MOL0     O29988   5.199   4.600   2.707  0.0923  0.0056 -0.4588
  228MOL0     C29989   5.132   4.661   2.808 -0.5079 -0.1720  0.9030
  228MOL0     C29990   5.109   4.802   2.827 -0.0943  0.8360 -0.2929
  228MOL0     C29991   5.056   4.847   2.941  0.9132  0.0431 -0.2695
  228MOL0     C29992   5.001   4.755   3.036 -0.0279  0.1237 -0.4103
  228MOL0     C29993   4.921   4.805   3.149 -0.3466  1.8059 -0.1688
  228MOL0     O29994   4.870   4.708   3.231  0.4566  0.0166  0.8437
  228MOL0     C29995   4.815   4.737   3.354 -1.3489  0.5983 -0.8311
  228MOL0     C29996   4.872   4.654   3.447  0.0682 -0.0526 -0.5318
  228MOL0     C29997   4.824   4.657   3.583  0.7217 -0.3091 -0.1551
  228MOL0     C29998   4.719   4.752   3.609 -0.5030  0.6229 -0.4443
  228MOL0     O29999   4.682   4.743   3.735  0.5636  0.4017 -0.0769
  228MOL0     C30000   4.603   4.852   3.789  0.0434  0.8079 -1.4138
  228MOL0     C30001   4.685   4.975   3.827  0.1937 -0.5580 -0.4702
  228MOL0     C30002   4.598   5.101   3.839 -0.3665  0.8519  0.9262
  228MOL0     C30003   4.508   5.102   3.966 -0.0234 -0.0941  0.1807
  228MOL0     C30004   4.397   5.209   3.962 -0.5801 -0.5157  0.1115
  228MOL0     C30005   4.444   5.360   3.956  0.1853 -0.5388 -0.0959
  228MOL0     C30006   4.322   5.451   3.979 -0.3476 -0.3092  0.1745
  228MOL0     C30007   4.193   5.417   3.922  0.1870  0.1275 -0.8061
  228MOL0    Cl30008   4.071   5.542   3.974 -0.0543  0.3615 -0.2327
  228MOL0     C30009   4.669   4.837   3.511 -0.3133  0.0543  0.0916
  228MOL0     C30010   4.714   4.825   3.376  0.7183 -0.3336 -0.3128
  228MOL0     O30011   4.938   4.916   3.186  0.7344 -0.4926  0.1934
  228MOL0     C30012   5.016   4.612   3.012  0.6976 -0.2091 -0.1669
  228MOL0     C30013   5.087   4.571   2.899  0.0243  0.4446 -0.2953
  228MOL0     N30014   4.874   4.466   2.161  0.3069 -0.4191 -0.4957
  228MOL0     N30015   4.806   4.546   2.089 -0.2932 -0.1783 -0.5605
  228MOL0     C30016   4.576   4.123   2.483 -0.8649 -0.0796 -0.1339
  228MOL0     C30017   4.668   4.029   2.434  0.1090  0.4910 -0.6415
  228MOL0     C30018   5.056   3.881   2.231 -0.2614 -0.1612  0.1268
  228MOL0     C30019   5.009   3.776   2.152  0.5417  0.0638 -1.3002
  228MOL0     C30020   5.106   3.693   2.093  0.4684  0.1496  0.4325
  228MOL0     C30021   5.242   3.697   2.124 -0.0355 -0.6893  0.3183
  228MOL0     O30022   5.343   3.620   2.090 -0.1842 -0.1179 -0.7457
  228MOL0     C30023   5.324   3.482   2.060 -1.2781  0.0917  0.3009
  228MOL0     C30024   5.458   3.422   2.023  0.3879 -0.2793 -1.5052
  228MOL0     C30025   5.454   3.303   1.928  0.0168 -0.0946 -0.5156
  228MOL0     C30026   5.606   3.271   1.900  0.4349  0.5662 -0.3257
  228MOL0     C30027   5.660   3.209   2.031 -0.7390 -1.0253  0.3509
  228MOL0     C30028   5.707   3.173   2.135 -0.1848 -0.6750 -0.3151
  228MOL0     C30029   5.283   3.807   2.206 -0.0052  0.8154 -0.2100
  228MOL0     C30030   5.197   3.898   2.254 -0.1497  0.1656  0.0363
  228MOL0     H30031   4.784   4.186   2.160  0.2469 -1.6980 -0.1179
  228MOL0     H30032   4.610   4.350   2.219  0.9649 -0.2363 -2.0273
  228MOL0     H30033   4.292   4.201   2.509  1.4929 -0.3582 -0.7392
  228MOL0     H30034   4.305   4.182   2.342  3.5265 -1.5827  0.9084
  228MOL0     H30035   4.136   4.368   2.486 -0.7802  0.6241 -0.0063
  228MOL0     H30036   4.122   4.324   2.317 -2.7371  5.2309  0.0348
  228MOL0     H30037   4.312   4.539   2.410  0.6209 -4.5601  2.4412
  228MOL0     H30038   4.152   4.551   2.332 -0.7155 -0.6118  2.7801
  228MOL0     H30039   4.364   4.411   2.190  0.7570  1.1689 -0.0492
  228MOL0     H30040   4.213   4.478   2.140 -0.3443 -0.3986  1.0746
  228MOL0     H30041   4.309   4.717   2.228  0.8207 -0.2543 -1.0871
  228MOL0     H30042   4.360   4.640   2.069 -2.3574 -2.4396 -0.5110
  228MOL0     H30043   4.552   4.542   2.196 -0.5811 -0.3663  1.2548
  228MOL0     H30044   4.498   4.597   2.345  0.0536  2.4198  0.8041
  228MOL0     H30045   4.495   4.844   2.200 -0.2585 -1.3817 -1.7086
  228MOL0     H30046   4.597   4.781   2.331 -1.9916 -0.0048  0.5751
  228MOL0     H30047   4.714   4.841   2.113 -1.1214  0.4498  1.5209
  228MOL0     H30048   4.612   4.706   2.043  0.7338  0.2813 -0.4151
  228MOL0     H30049   4.798   4.683   2.389  1.6729  4.4803 -2.8666
  228MOL0     H30050   4.986   4.337   2.379 -3.8327 -2.9649  0.5074
  228MOL0     H30051   4.841   4.365   2.449 -0.1984 -1.9834  0.5061
  228MOL0     H30052   5.022   4.438   2.598  3.5576  1.3410 -0.5097
  228MOL0     H30053   4.917   4.585   2.560 -1.3838 -0.0778 -3.6053
  228MOL0     H30054   5.180   4.508   2.430  0.9342 -0.1009  0.5651
  228MOL0     H30055   5.078   4.647   2.388  3.4739  1.3272 -1.4579
  228MOL0     H30056   5.129   4.752   2.579 -0.8086  0.3493  0.2065
  228MOL0     H30057   5.278   4.684   2.534  0.2974  1.9046  1.9571
  228MOL0     H30058   5.139   4.872   2.750  2.1422 -1.4381 -1.6441
  228MOL0     H30059   5.050   4.956   2.943  1.9453  0.1811 -1.9396
  228MOL0     H30060   4.940   4.572   3.430  1.6527  0.2700  3.2707
  228MOL0     H30061   4.855   4.598   3.669  1.2399  0.4646  0.1924
  228MOL0     H30062   4.538   4.812   3.868 -0.7314  4.9322  0.2817
  228MOL0     H30063   4.524   4.885   3.720 -1.5994 -0.8650 -0.4322
  228MOL0     H30064   4.761   4.997   3.751  2.7640  2.4996  2.6916
  228MOL0     H30065   4.737   4.966   3.922 -0.7095 -0.8851  0.0053
  228MOL0     H30066   4.529   5.124   3.757  0.4286  1.0557  0.2988
  228MOL0     H30067   4.664   5.188   3.839  0.6441  0.1049  1.8127
  228MOL0     H30068   4.454   5.007   3.969 -1.0882  0.5139  1.8772
  228MOL0     H30069   4.563   5.114   4.059 -3.0786  2.7401  1.8369
  228MOL0     H30070   4.329   5.208   4.048 -2.1259  0.8777 -1.0172
  228MOL0     H30071   4.338   5.196   3.870  2.0290 -0.3311 -1.6984
  228MOL0     H30072   4.499   5.382   3.864 -2.3257  0.7796 -1.4001
  228MOL0     H30073   4.521   5.381   4.031 -1.3813  2.7564  0.7797
  228MOL0     H30074   4.310   5.456   4.087 -1.0239 -0.6436  0.1182
  228MOL0     H30075   4.352   5.546   3.933  1.7170 -1.1837 -0.3832
  228MOL0     H30076   4.145   5.325   3.955 -1.2719  0.8274 -0.8579
  228MOL0     H30077   4.191   5.413   3.813 -1.1650 -1.2638 -0.7585
  228MOL0     H30078   4.580   4.897   3.529  0.0108  0.3494  0.7285
  228MOL0     H30079   4.668   4.885   3.298 -2.9554  0.6992  2.3351
  228MOL0     H30080   4.989   4.535   3.082 -0.1691 -0.1911 -0.4742
  228MOL0     H30081   5.107   4.464   2.894 -1.8593 -0.1349  2.4302
  228MOL0     H30082   4.529   4.103   2.579  0.8260 -4.9390 -0.0141
  228MOL0     H30083   4.659   3.930   2.477 -0.0821  0.4588 -0.7532
  228MOL0     H30084   4.902   3.757   2.151  0.2245  1.2414  1.5322
  228MOL0     H30085   5.085   3.608   2.028  0.2012  0.8628 -0.4290
  228MOL0     H30086   5.262   3.491   1.970  1.2931  3.7817 -1.3832
  228MOL0     H30087   5.288   3.418   2.140  1.4044 -1.0813  0.6631
  228MOL0     H30088   5.523   3.503   1.990 -0.2625  3.0914  4.1805
  228MOL0     H30089   5.503   3.393   2.118  3.6769 -1.0028 -3.1248
  228MOL0     H30090   5.412   3.333   1.831 -0.5407  2.1474  0.3681
  228MOL0     H30091   5.394   3.221   1.968  0.1557  0.2848  0.4920
  228MOL0     H30092   5.616   3.200   1.818  0.6011 -0.0263  0.2025
  228MOL0     H30093   5.669   3.358   1.879 -1.7199  3.0632  2.5105
  228MOL0     H30094   5.748   3.143   2.229  1.3628  1.9209 -0.0646
  228MOL0     H30095   5.383   3.802   2.246 -0.2293  0.4427  0.3148
  228MOL0     H30096   5.221   3.959   2.341  0.7698 -2.2265  1.5558
  229MOL0     O30097  10.541   4.495   4.476  0.2118  0.4554  1.1459
  229MOL0     C30098  10.438   4.529   4.521  0.4792 -0.2881 -0.3325
  229MOL0     O30099  10.332   4.451   4.545  0.1381  0.4826 -0.2483
  229MOL0     C30100  10.332   4.309   4.531 -0.3663 -1.2456  0.1361
  229MOL0     C30101  10.419   4.229   4.603 -0.0369 -0.9747  0.1634
  229MOL0     C30102  10.395   4.088   4.604 -0.1506  0.2244 -0.0819
  229MOL0     C30103  10.306   4.029   4.515  0.2154 -0.5540  0.1447
  229MOL0     O30104  10.305   3.890   4.500 -0.1365  0.4334  0.0120
  229MOL0     C30105  10.173   3.819   4.514  0.3359  0.0772 -0.7582
  229MOL0     C30106  10.115   3.795   4.381 -0.0147 -0.4187  0.9297
  229MOL0     C30107  10.202   3.722   4.273  0.4696 -1.0506 -0.3250
  229MOL0     C30108  10.294   3.611   4.334  0.3843 -0.3462 -1.1335
  229MOL0     C30109  10.330   3.514   4.232  0.0644  1.2314 -0.4125
  229MOL0     C30110  10.427   3.584   4.127  0.2036  0.7138  0.7899
  229MOL0     C30111  10.461   3.486   4.011  0.2127  0.3520 -0.0405
  229MOL0     C30112  10.358   3.456   3.895 -0.3169 -0.2357 -0.4532
  229MOL0     N30113  10.431   3.442   3.767 -0.0308  0.5084  0.1129
  229MOL0     C30114  10.525   3.524   3.704  0.9160 -1.2568  0.8404
  229MOL0     C30115  10.558   3.459   3.584 -0.1127  0.4142 -0.6791
  229MOL0     C30116  10.680   3.485   3.508 -0.6775  0.2442  0.1132
  229MOL0     C30117  10.651   3.537   3.364 -0.8739  0.3449  0.1862
  229MOL0     C30118  10.781   3.539   3.285  0.3284 -0.7695 -0.2018
  229MOL0     C30119  10.742   3.554   3.140  0.0415 -0.2296 -0.9719
  229MOL0     O30120  10.862   3.583   3.065 -0.5592 -0.5226  0.3839
  229MOL0     C30121  10.885   3.512   2.960 -0.1778 -0.1301  0.0647
  229MOL0     C30122  10.806   3.533   2.842 -0.8045  0.4866 -0.2645
  229MOL0     C30123  10.833   3.447   2.734 -0.2184 -0.1073 -0.3437
  229MOL0     C30124  10.921   3.338   2.738 -0.5688  0.0270 -0.0470
  229MOL0     C30125  10.927   3.244   2.620  0.3013  0.5114 -0.9323
  229MOL0     O30126  10.863   3.283   2.514 -0.2749  0.5375  0.0283
  229MOL0     C30127  10.858   3.187   2.415 -0.2169 -0.1514  0.9946
  229MOL0     C30128  10.970   3.158   2.326  0.1035 -0.2943 -0.1830
  229MOL0     C30129  10.954   3.052   2.234 -1.1813 -1.3301 -0.4470
  229MOL0     C30130  10.828   2.981   2.218 -0.9459  0.0673 -0.2951
  229MOL0     O30131  10.814   2.885   2.124 -0.7847  0.2740  0.1843
  229MOL0     C30132  10.833   2.932   1.987  0.6857  0.7000  0.0772
  229MOL0     C30133  10.739   2.850   1.904  0.4076 -1.0374 -0.2826
  229MOL0     C30134  10.586   2.889   1.928 -0.5225  0.8223  0.4952
  229MOL0     C30135  10.536   3.016   1.855 -0.2226  0.1309 -0.4875
  229MOL0     C30136  10.395   3.049   1.888  1.4003  0.0058 -0.2035
  229MOL0     C30137  10.349   3.167   1.804 -0.1854  1.4238 -0.2712
  229MOL0     C30138  10.200   3.185   1.809  0.7289 -0.1184  0.8350
  229MOL0     C30139  10.155   3.287   1.698  0.0532 -0.1480 -0.0144
  229MOL0    Cl30140   9.969   3.310   1.688  0.0121  0.9057  0.1854
  229MOL0     C30141  10.723   3.010   2.304 -0.1041 -0.6768  0.6851
  229MOL0     C30142  10.739   3.121   2.393  0.3489 -0.0268 -0.4655
  229MOL0     O30143  11.000   3.151   2.633  0.3345  0.1527 -0.8069
  229MOL0     C30144  10.987   3.317   2.859  0.7693 -1.1764 -0.7321
  229MOL0     C30145  10.979   3.407   2.968  0.4958 -0.2675 -0.9152
  229MOL0     N30146  10.492   3.339   3.585 -0.4273  0.6051  0.4859
  229MOL0     N30147  10.418   3.322   3.695 -0.0582 -0.7732  0.0375
  229MOL0     C30148  10.220   4.115   4.444  0.9068  0.3560 -0.1528
  229MOL0     C30149  10.232   4.249   4.452 -1.5974  0.6637  0.4897
  229MOL0     C30150  10.429   4.673   4.560  0.7013  0.1673 -0.7619
  229MOL0     C30151  10.304   4.718   4.611 -0.1254  0.2555  0.8000
  229MOL0     C30152  10.292   4.856   4.643 -0.5943 -0.2716 -0.9225
  229MOL0     C30153  10.391   4.956   4.611 -0.6569 -0.1855  0.5015
  229MOL0     O30154  10.349   5.087   4.623 -0.7229 -0.5067  0.6709
  229MOL0     C30155  10.446   5.168   4.684  0.3056 -0.6814  0.1797
  229MOL0     C30156  10.391   5.306   4.692 -0.0343 -0.6085 -0.4849
  229MOL0     C30157  10.480   5.397   4.785 -1.0571  1.1633 -0.5371
  229MOL0     C30158  10.463   5.551   4.769  0.7895  0.7566  0.0996
  229MOL0     C30159  10.552   5.633   4.848  0.0822 -0.2659  0.4487
  229MOL0     C30160  10.633   5.692   4.908  0.1173 -0.5057  0.5053
  229MOL0     C30161  10.520   4.906   4.560  0.2868  0.1755 -0.4357
  229MOL0     C30162  10.530   4.768   4.547  1.0217  0.3355  0.7522
  229MOL0     H30163  10.490   4.272   4.673 -0.7060  0.9440 -0.2729
  229MOL0     H30164  10.446   4.023   4.673 -1.2006  0.5349  1.0132
  229MOL0     H30165  10.099   3.884   4.561 -1.4056 -0.1283 -3.0149
  229MOL0     H30166  10.179   3.733   4.580 -1.7381  0.6604  0.2755
  229MOL0     H30167  10.099   3.889   4.327  3.4206 -1.5773 -2.6137
  229MOL0     H30168  10.025   3.734   4.389  0.9270 -1.8454  1.0844
  229MOL0     H30169  10.265   3.794   4.220  0.4447  1.5302  2.8087
  229MOL0     H30170  10.126   3.689   4.202 -2.7135  1.0169  1.8459
  229MOL0     H30171  10.373   3.671   4.382  0.1972  0.3423 -1.6803
  229MOL0     H30172  10.240   3.562   4.416 -1.6746  1.6033 -1.2352
  229MOL0     H30173  10.239   3.470   4.191  0.3964 -0.9548  1.0228
  229MOL0     H30174  10.375   3.423   4.273 -2.9421  0.6275  1.8057
  229MOL0     H30175  10.515   3.614   4.185  1.3100  1.6198 -1.2679
  229MOL0     H30176  10.394   3.664   4.061  3.0401 -0.5370 -2.4287
  229MOL0     H30177  10.555   3.519   3.966  0.7094 -2.2969 -1.0851
  229MOL0     H30178  10.497   3.388   4.043 -0.1369 -0.2289 -1.3629
  229MOL0     H30179  10.287   3.539   3.890 -3.1394 -2.5408 -0.6398
  229MOL0     H30180  10.306   3.364   3.921 -1.8186  0.5398 -0.6140
  229MOL0     H30181  10.564   3.612   3.753  0.6065 -2.1060  2.6686
  229MOL0     H30182  10.735   3.391   3.504  2.4135  1.9380  0.1034
  229MOL0     H30183  10.725   3.567   3.564  3.2896 -1.2967 -0.4856
  229MOL0     H30184  10.615   3.640   3.375  1.1052  1.2970 -1.5134
  229MOL0     H30185  10.568   3.479   3.321  2.3420 -3.3426 -1.6969
  229MOL0     H30186  10.839   3.625   3.318  0.5316 -1.1257  0.3924
  229MOL0     H30187  10.846   3.455   3.314  1.5794  1.0055  2.5449
  229MOL0     H30188  10.677   3.640   3.120  0.3522 -0.3472 -2.5688
  229MOL0     H30189  10.692   3.464   3.105  0.8353 -0.4361 -1.5983
  229MOL0     H30190  10.735   3.615   2.841 -1.4641 -0.0752 -0.4670
  229MOL0     H30191  10.787   3.465   2.637  1.5898 -2.6545 -1.8221
  229MOL0     H30192  11.072   3.196   2.328  0.2110 -0.0715 -3.4123
  229MOL0     H30193  11.045   3.022   2.183  0.2487 -0.4332  1.4358
  229MOL0     H30194  10.933   2.910   1.950  0.6925  1.4364 -0.3468
  229MOL0     H30195  10.821   3.038   1.967  4.9315  1.0421 -1.5715
  229MOL0     H30196  10.762   2.745   1.921  1.9347 -0.8095 -0.8121
  229MOL0     H30197  10.764   2.858   1.798  0.6324 -2.5984 -0.3625
  229MOL0     H30198  10.575   2.900   2.036 -0.6002 -0.1737  0.5981
  229MOL0     H30199  10.531   2.799   1.901  2.3743 -0.8495 -0.3387
  229MOL0     H30200  10.598   3.100   1.889  0.1998  0.5211 -2.1461
  229MOL0     H30201  10.547   3.013   1.746 -0.9545 -0.0058 -0.5629
  229MOL0     H30202  10.387   3.074   1.994  0.0497 -0.8742 -0.0579
  229MOL0     H30203  10.330   2.963   1.870  3.0764 -1.5724  0.9174
  229MOL0     H30204  10.363   3.130   1.702 -1.4238  1.9249 -0.6472
  229MOL0     H30205  10.396   3.261   1.836  0.8815 -0.3796  4.0865
  229MOL0     H30206  10.158   3.092   1.772 -2.4526  1.1893  0.8141
  229MOL0     H30207  10.152   3.220   1.901 -3.1848  0.6010 -1.2067
  229MOL0     H30208  10.195   3.267   1.599 -1.7429  2.8006 -1.4844
  229MOL0     H30209  10.210   3.380   1.716 -0.8044 -0.0256  2.3768
  229MOL0     H30210  10.629   2.957   2.290  0.2944 -1.0600 -0.7229
  229MOL0     H30211  10.651   3.135   2.455  1.5900  2.3511  0.9151
  229MOL0     H30212  11.064   3.241   2.873 -0.2138 -2.2374 -0.9269
  229MOL0     H30213  11.039   3.414   3.058 -0.6973  0.5645 -0.1406
  229MOL0     H30214  10.159   4.071   4.365  1.2973  1.1918 -0.9438
  229MOL0     H30215  10.187   4.332   4.399  1.1298  1.1153 -1.3209
  229MOL0     H30216  10.222   4.651   4.632  0.4824 -1.3479 -1.4819
  229MOL0     H30217  10.205   4.892   4.696  0.4526  0.4485  0.3673
  229MOL0     H30218  10.543   5.171   4.633 -0.9712  1.6271 -2.3882
  229MOL0     H30219  10.456   5.138   4.789  2.6242  2.4544  1.0070
  229MOL0     H30220  10.394   5.359   4.596  0.5781  2.8625  1.2995
  229MOL0     H30221  10.289   5.315   4.729 -0.3211 -2.9423 -0.5758
  229MOL0     H30222  10.583   5.374   4.759 -0.1547  2.6304  1.4311
  229MOL0     H30223  10.448   5.370   4.886 -1.4882 -2.7497 -1.5532
  229MOL0     H30224  10.481   5.583   4.666  1.6632  1.7450  0.5320
  229MOL0     H30225  10.362   5.566   4.808  1.2153  0.0720  1.5336
  229MOL0     H30226  10.702   5.752   4.963 -0.7861  0.1597  0.9443
  229MOL0     H30227  10.607   4.969   4.543  2.8322 -3.3535 -1.8055
  229MOL0     H30228  10.624   4.738   4.503  0.5831  0.2913 -0.1750
  230MOL0     O30229  10.669   4.213   5.552 -0.5239  1.0837  0.1402
  230MOL0     C30230  10.632   4.142   5.461  1.4386 -0.5240 -0.2401
  230MOL0     O30231  10.671   4.015   5.434 -0.3246  0.2833 -0.2064
  230MOL0     C30232  10.761   3.963   5.535  0.2204  0.8250  0.4866
  230MOL0     C30233  10.875   3.916   5.477  0.4028  1.1655  0.2963
  230MOL0     C30234  10.974   3.859   5.553 -1.2349  0.1369 -0.2413
  230MOL0     C30235  10.959   3.851   5.695  0.6752  0.0700  0.7222
  230MOL0     O30236  11.071   3.782   5.747 -0.2216  0.4621 -0.6598
  230MOL0     C30237  11.094   3.763   5.891  0.3787  0.3650 -0.3510
  230MOL0     C30238  11.208   3.675   5.905 -0.1969 -0.0744 -0.5343
  230MOL0     C30239  11.246   3.639   6.044  0.7167  0.4771 -1.1536
  230MOL0     C30240  11.297   3.750   6.137  0.4667 -0.3622 -0.6749
  230MOL0     C30241  11.351   3.685   6.270  0.3250  0.6021 -0.3882
  230MOL0     C30242  11.387   3.787   6.384 -0.1962  0.2240  1.0423
  230MOL0     C30243  11.257   3.852   6.432  0.9825 -0.6145  0.4670
  230MOL0     C30244  11.172   3.771   6.540  0.5579 -0.0673  0.4772
  230MOL0     N30245  11.241   3.768   6.662 -0.9053  0.2831 -0.2493
  230MOL0     C30246  11.275   3.646   6.722  0.4728  0.1176  0.6348
  230MOL0     C30247  11.317   3.677   6.847  0.5507  0.3060  0.1498
  230MOL0     C30248  11.376   3.596   6.965 -0.4070  0.1539  0.5289
  230MOL0     C30249  11.521   3.638   6.994 -0.3220 -0.1306  0.2337
  230MOL0     C30250  11.572   3.543   7.102  0.4963  0.7172  0.3495
  230MOL0     C30251  11.601   3.399   7.061  0.1089  0.3401 -0.5124
  230MOL0     O30252  11.667   3.398   6.928  0.9806 -0.1452  0.1160
  230MOL0     C30253  11.583   3.357   6.820 -1.1665  0.0629 -0.5878
  230MOL0     C30254  11.496   3.242   6.821  0.6083 -0.9407  0.1195
  230MOL0     C30255  11.432   3.196   6.705  0.5601 -0.2683 -0.2226
  230MOL0     C30256  11.441   3.270   6.582 -0.9816 -0.1574 -1.1632
  230MOL0     C30257  11.391   3.216   6.467 -0.5286  0.0717  0.5759
  230MOL0     O30258  11.374   3.308   6.366 -0.3243  0.0806  0.0174
  230MOL0     C30259  11.309   3.271   6.254  0.5418 -0.6631  0.7704
  230MOL0     C30260  11.377   3.218   6.143 -0.3520 -0.5252  0.3235
  230MOL0     C30261  11.304   3.173   6.031  0.5591  0.3261 -1.4592
  230MOL0     C30262  11.161   3.202   6.024  0.0889 -0.0342 -0.2419
  230MOL0     O30263  11.104   3.179   5.902 -0.4447  0.5859  0.4120
  230MOL0     C30264  10.999   3.266   5.850 -1.0043  0.0541  0.8486
  230MOL0     C30265  10.993   3.242   5.698 -0.1332 -0.2370 -0.8390
  230MOL0     C30266  10.874   3.318   5.635 -0.2281  0.6513 -1.0409
  230MOL0     C30267  10.926   3.450   5.569  0.2319  0.4453 -1.5587
  230MOL0     C30268  10.817   3.510   5.475 -0.3573 -0.6686  0.1547
  230MOL0     C30269  10.696   3.549   5.561 -0.0482  0.0028  1.1530
  230MOL0     C30270  10.593   3.640   5.476 -0.0547 -0.8824 -0.4690
  230MOL0     C30271  10.458   3.675   5.547 -0.2032 -0.2026 -0.7497
  230MOL0    Cl30272  10.372   3.826   5.463 -0.1264 -0.3450 -0.2277
  230MOL0     C30273  11.096   3.250   6.140 -0.4765  0.2403  0.1366
  230MOL0     C30274  11.171   3.277   6.249  0.7206 -0.2951 -0.9179
  230MOL0     O30275  11.343   3.101   6.467 -0.3793  0.0730  0.2065
  230MOL0     C30276  11.530   3.379   6.578 -0.8663 -0.5318 -0.7260
  230MOL0     C30277  11.601   3.423   6.694 -0.1961  0.8515 -0.7208
  230MOL0     N30278  11.302   3.816   6.862 -0.0186  0.1998 -0.1574
  230MOL0     N30279  11.242   3.866   6.753 -0.3066  0.1168  0.5561
  230MOL0     C30280  10.838   3.892   5.749  0.0576  0.2930 -0.1784
  230MOL0     C30281  10.735   3.952   5.670 -0.3982  0.4805  0.1129
  230MOL0     C30282  10.551   4.204   5.351  0.4371 -0.0943  0.3851
  230MOL0     C30283  10.493   4.331   5.370  0.3107  0.3323 -0.4943
  230MOL0     C30284  10.442   4.412   5.272  0.2743  0.2163  0.2367
  230MOL0     C30285  10.432   4.355   5.148 -0.6113 -0.7532  0.8576
  230MOL0     O30286  10.365   4.407   5.035  0.3854 -0.4544 -0.5911
  230MOL0     C30287  10.339   4.549   5.015 -0.9500  0.5275  0.6494
  230MOL0     C30288  10.474   4.614   4.968  0.5559  0.6227  0.0578
  230MOL0     C30289  10.435   4.754   4.950 -0.1599  0.6315 -0.2071
  230MOL0     C30290  10.488   4.834   5.067  0.5061 -0.0028  0.1819
  230MOL0     C30291  10.420   4.967   5.089  0.6278 -0.6701  0.2639
  230MOL0     C30292  10.343   5.058   5.114  0.1257 -0.1015 -0.7052
  230MOL0     C30293  10.476   4.222   5.125 -0.7186 -0.4909  0.0279
  230MOL0     C30294  10.542   4.151   5.222  0.3705  0.1898 -0.6908
  230MOL0     H30295  10.905   3.931   5.374  0.5260  0.5924  0.2463
  230MOL0     H30296  11.067   3.846   5.498 -0.3792  6.0276 -0.8250
  230MOL0     H30297  11.001   3.715   5.922  0.5729 -1.4727 -2.3466
  230MOL0     H30298  11.122   3.856   5.941  0.0599  1.2274 -1.7436
  230MOL0     H30299  11.294   3.706   5.846 -0.0539  0.0752 -0.2508
  230MOL0     H30300  11.199   3.578   5.856  0.7817  0.1763 -1.2381
  230MOL0     H30301  11.322   3.561   6.043 -1.6872 -2.1772  1.6575
  230MOL0     H30302  11.159   3.592   6.090  1.2458 -0.6586 -1.2981
  230MOL0     H30303  11.386   3.800   6.098 -0.8660  1.8452 -1.0578
  230MOL0     H30304  11.215   3.822   6.142 -0.6577 -1.7102  1.2648
  230MOL0     H30305  11.431   3.614   6.250 -1.8475 -2.5591  1.2911
  230MOL0     H30306  11.263   3.628   6.299 -0.4387  1.0084 -1.8374
  230MOL0     H30307  11.456   3.862   6.346  1.7845 -0.7012  2.6203
  230MOL0     H30308  11.434   3.731   6.466  1.3654 -0.9523 -0.6006
  230MOL0     H30309  11.278   3.945   6.485  0.4593 -0.8358  1.0721
  230MOL0     H30310  11.193   3.882   6.348  1.1892  0.8204  0.7947
  230MOL0     H30311  11.128   3.678   6.503 -3.8525  0.7530  2.8866
  230MOL0     H30312  11.079   3.824   6.563  0.1785 -0.7848  0.6145
  230MOL0     H30313  11.279   3.551   6.670 -1.4548 -0.0199  0.6530
  230MOL0     H30314  11.373   3.492   6.930  0.8584  0.9915 -2.3412
  230MOL0     H30315  11.312   3.618   7.051 -0.1892 -1.4992  1.1472
  230MOL0     H30316  11.525   3.743   7.026  1.9962  0.2589 -1.1368
  230MOL0     H30317  11.577   3.636   6.900  0.8153  1.6045  0.8272
  230MOL0     H30318  11.670   3.588   7.125  0.0577  1.9745 -0.1320
  230MOL0     H30319  11.521   3.557   7.197 -0.5708 -3.2435  0.5042
  230MOL0     H30320  11.506   3.344   7.058  0.3596 -0.2658  1.4767
  230MOL0     H30321  11.649   3.344   7.142 -1.3364  1.6011  1.2740
  230MOL0     H30322  11.502   3.180   6.910  1.1155  0.3090  0.9815
  230MOL0     H30323  11.378   3.102   6.707 -1.7081  0.9874  1.2863
  230MOL0     H30324  11.485   3.215   6.134 -0.4108 -1.2410 -0.2017
  230MOL0     H30325  11.363   3.132   5.950  0.1228  0.1559 -1.6959
  230MOL0     H30326  11.011   3.374   5.852 -1.3892  0.2792 -2.7822
  230MOL0     H30327  10.904   3.243   5.900 -0.6832  0.6308  1.7496
  230MOL0     H30328  10.980   3.134   5.686  1.5726 -0.6715  0.7541
  230MOL0     H30329  11.089   3.262   5.649  0.3515 -2.1719 -0.7897
  230MOL0     H30330  10.788   3.333   5.701  0.4683  0.8728 -0.1629
  230MOL0     H30331  10.837   3.260   5.550  2.1126 -2.6012 -0.0346
  230MOL0     H30332  10.943   3.517   5.654 -0.5973 -3.0264  1.6284
  230MOL0     H30333  11.020   3.438   5.515  0.0778  1.3765 -2.0452
  230MOL0     H30334  10.785   3.440   5.398  1.3635 -2.6570  1.1534
  230MOL0     H30335  10.862   3.599   5.429 -4.7979  0.9641 -1.5275
  230MOL0     H30336  10.717   3.610   5.649 -0.3848  1.8018  0.0462
  230MOL0     H30337  10.635   3.463   5.591  0.9679 -1.8949 -1.7513
  230MOL0     H30338  10.643   3.734   5.452 -0.2444 -0.5043  0.5724
  230MOL0     H30339  10.565   3.586   5.385 -1.7785  1.6783 -1.5413
  230MOL0     H30340  10.483   3.694   5.651  2.8051 -1.6760 -1.0743
  230MOL0     H30341  10.385   3.594   5.544 -0.8778  0.3271  0.5629
  230MOL0     H30342  10.989   3.269   6.142 -0.9543 -2.1308  0.0416
  230MOL0     H30343  11.111   3.314   6.332 -1.3362  0.1220 -2.5186
  230MOL0     H30344  11.548   3.451   6.499  2.6907  1.5471  1.6574
  230MOL0     H30345  11.671   3.506   6.696 -1.8454  2.2906 -0.3844
  230MOL0     H30346  10.820   3.891   5.856  0.9499 -1.2101 -0.0264
  230MOL0     H30347  10.645   4.006   5.696  0.2093  0.9044  1.3961
  230MOL0     H30348  10.497   4.374   5.469 -0.3408 -0.6207 -0.0291
  230MOL0     H30349  10.407   4.510   5.305 -0.2755 -0.3456  1.3649
  230MOL0     H30350  10.290   4.592   5.103  1.5838  2.9062  1.0264
  230MOL0     H30351  10.268   4.554   4.931 -0.9663  1.9325  0.7351
  230MOL0     H30352  10.556   4.603   5.038  0.1041 -1.0797  0.3569
  230MOL0     H30353  10.501   4.559   4.877 -0.5386 -1.4204  0.9014
  230MOL0     H30354  10.329   4.766   4.929  0.1220  1.6418 -1.1315
  230MOL0     H30355  10.477   4.789   4.855 -1.2138  0.2023 -0.8420
  230MOL0     H30356  10.484   4.783   5.164  0.1965 -0.0752  0.1308
  230MOL0     H30357  10.593   4.854   5.044  1.1860 -0.2883  2.6859
  230MOL0     H30358  10.264   5.123   5.146 -1.1590 -2.1553  0.5658
  230MOL0     H30359  10.467   4.182   5.025  0.4196 -2.1346  0.5344
  230MOL0     H30360  10.589   4.058   5.190  0.0851  0.2990 -1.4408
  231MOL0     O30361   5.257   5.526  10.301  0.0752 -0.0650  0.2257
  231MOL0     C30362   5.217   5.407  10.303  0.0605 -0.1724 -0.4419
  231MOL0     O30363   5.277   5.301  10.258 -1.0249  0.2386 -0.7263
  231MOL0     C30364   5.398   5.303  10.195 -0.1720  0.1875  0.2441
  231MOL0     C30365   5.521   5.338  10.256  0.4471  0.4597  0.8818
  231MOL0     C30366   5.632   5.339  10.179 -0.9768  1.1544 -0.5148
  231MOL0     C30367   5.639   5.296  10.049 -0.3771 -0.4174  0.0724
  231MOL0     O30368   5.748   5.320   9.969  0.0420 -0.4809  0.5981
  231MOL0     C30369   5.873   5.264  10.015  0.7054 -0.3646 -0.8016
  231MOL0     C30370   5.994   5.301   9.940 -0.0806 -0.4977 -0.0839
  231MOL0     C30371   6.121   5.206   9.968 -0.2955 -0.0548 -0.3532
  231MOL0     C30372   6.165   5.188  10.119  0.7722 -0.2574  0.4971
  231MOL0     C30373   6.198   5.321  10.181  0.7882 -0.4046 -1.6716
  231MOL0     C30374   6.260   5.323  10.325  1.3585 -0.0807 -0.8957
  231MOL0     C30375   6.147   5.303  10.427 -0.8334  0.3019 -0.1132
  231MOL0     C30376   6.158   5.383  10.556  0.3192 -0.1787 -0.6590
  231MOL0     N30377   6.086   5.332  10.661  0.0331  0.1716 -0.8635
  231MOL0     C30378   5.965   5.356  10.706  0.6171  0.2360  0.1551
  231MOL0     C30379   5.947   5.275  10.818 -0.4370 -0.4573  0.9039
  231MOL0     C30380   5.826   5.269  10.912 -0.1688  0.5452 -0.4175
  231MOL0     C30381   5.863   5.370  11.019  1.1536 -0.3871  0.5690
  231MOL0     C30382   5.773   5.372  11.146  0.4316  0.3112 -0.4176
  231MOL0     C30383   5.668   5.251  11.159 -0.1971  0.0393  0.1830
  231MOL0     O30384   5.589   5.277  11.273  0.4521  0.4881  0.5792
  231MOL0     C30385   5.477   5.203  11.308 -0.2985  0.5539 -0.2895
  231MOL0     C30386   5.415   5.227  11.428 -0.4850 -0.0020 -0.0110
  231MOL0     C30387   5.303   5.150  11.477 -0.1148  0.3502  0.5219
  231MOL0     C30388   5.242   5.053  11.387 -0.7601  0.6916 -1.4603
  231MOL0     C30389   5.122   4.971  11.419  0.5700 -0.4585 -0.3955
  231MOL0     O30390   5.069   4.879  11.342  0.5499 -0.0687  0.5895
  231MOL0     C30391   4.954   4.799  11.383 -0.7208 -0.5478 -0.3156
  231MOL0     C30392   4.936   4.766  11.518 -1.2550  0.7002 -0.6372
  231MOL0     C30393   4.836   4.679  11.560 -0.2625  0.0959  0.3118
  231MOL0     C30394   4.748   4.629  11.454 -0.6892  0.2764 -0.4322
  231MOL0     O30395   4.630   4.571  11.505  0.4138  0.3436  0.4725
  231MOL0     C30396   4.571   4.466  11.421 -0.2426  0.0183 -0.4397
  231MOL0     C30397   4.500   4.352  11.503  0.0774  0.1096 -0.2810
  231MOL0     C30398   4.571   4.327  11.643  0.3940  0.2970 -0.1780
  231MOL0     C30399   4.502   4.208  11.711  0.7536  0.5978 -0.6702
  231MOL0     C30400   4.564   4.179  11.848 -0.4637 -0.1909 -0.5929
  231MOL0     C30401   4.572   4.281  11.966 -0.5927 -0.6734  0.4014
  231MOL0     C30402   4.434   4.343  11.987  0.7105  0.2003 -0.2599
  231MOL0     C30403   4.345   4.249  12.072 -0.5665 -0.0243  0.2829
  231MOL0    Cl30404   4.200   4.323  12.125 -0.0491 -0.5357 -0.4531
  231MOL0     C30405   4.773   4.661  11.319  0.3228 -0.5533  0.4927
  231MOL0     C30406   4.882   4.733  11.290 -0.4893 -0.7316 -0.0410
  231MOL0     O30407   5.068   5.013  11.517  0.0709  0.0712 -0.9216
  231MOL0     C30408   5.300   5.033  11.261  0.3987  0.0893 -0.7294
  231MOL0     C30409   5.419   5.101  11.226  0.3103 -1.1024 -0.3274
  231MOL0     N30410   6.059   5.195  10.827  0.7473  0.5118  0.5168
  231MOL0     N30411   6.137   5.240  10.743  1.0296  0.1597 -0.1048
  231MOL0     C30412   5.520   5.270   9.981  0.2871  0.7862  0.2055
  231MOL0     C30413   5.401   5.270  10.060  0.0184  0.2466  0.0605
  231MOL0     C30414   5.086   5.386  10.369 -0.2205  0.3236 -0.6089
  231MOL0     C30415   5.051   5.250  10.400 -0.7106 -1.2373  0.3860
  231MOL0     C30416   4.911   5.227  10.436  0.0228  0.5337 -0.4503
  231MOL0     C30417   4.819   5.327  10.452  0.8849  0.2357 -0.5789
  231MOL0     O30418   4.697   5.289  10.482  0.3227 -0.0034 -0.3250
  231MOL0     C30419   4.602   5.394  10.510 -0.4586  0.3343  0.8835
  231MOL0     C30420   4.600   5.419  10.658  0.0918 -0.2719 -0.0915
  231MOL0     C30421   4.472   5.462  10.716  0.7563  0.4742  0.3467
  231MOL0     C30422   4.488   5.482  10.866 -0.3632 -0.4338  0.5835
  231MOL0     C30423   4.386   5.549  10.948  0.8698  0.2333 -0.0383
  231MOL0     C30424   4.305   5.602  11.016 -1.0430  1.1335 -0.9014
  231MOL0     C30425   4.875   5.463  10.430 -0.2457  0.8102 -0.1429
  231MOL0     C30426   5.007   5.489  10.399  0.5354  0.2657  0.3216
  231MOL0     H30427   5.522   5.351  10.364  5.5041 -1.9809  1.4086
  231MOL0     H30428   5.727   5.358  10.228  0.6570 -3.5371 -1.3827
  231MOL0     H30429   5.860   5.156  10.004 -1.0906 -0.2466 -0.3115
  231MOL0     H30430   5.889   5.295  10.119 -1.0658  2.2939 -1.1965
  231MOL0     H30431   6.010   5.407   9.957  2.6522 -1.3512  4.2543
  231MOL0     H30432   5.965   5.287   9.835 -2.6659  0.4183  0.4471
  231MOL0     H30433   6.209   5.248   9.920 -0.2579  0.3617  0.0726
  231MOL0     H30434   6.106   5.106   9.925  0.9270 -0.9522  1.1960
  231MOL0     H30435   6.084   5.134  10.169 -1.2259  1.2825 -0.8891
  231MOL0     H30436   6.256   5.127  10.116 -0.1060 -1.6098  0.3086
  231MOL0     H30437   6.113   5.391  10.183  2.4186  1.7971 -3.3579
  231MOL0     H30438   6.262   5.380  10.115 -1.8403  0.4903 -3.5992
  231MOL0     H30439   6.314   5.417  10.334 -2.6168  2.5602 -1.9062
  231MOL0     H30440   6.338   5.247  10.336  3.0333  1.6501 -0.2965
  231MOL0     H30441   6.054   5.329  10.377  1.1095  1.7161 -3.3352
  231MOL0     H30442   6.141   5.198  10.457 -1.3027  0.3837  0.0881
  231MOL0     H30443   6.136   5.489  10.542  3.8771  0.8111  0.1853
  231MOL0     H30444   6.263   5.388  10.586 -0.4553  0.5967  2.2521
  231MOL0     H30445   5.904   5.440  10.675  2.0979  1.1260 -0.4444
  231MOL0     H30446   5.834   5.171  10.959  0.4416  1.4105  1.4220
  231MOL0     H30447   5.731   5.284  10.861 -0.2545 -0.8253 -0.6800
  231MOL0     H30448   5.859   5.473  10.984 -2.3905 -0.8875 -0.8564
  231MOL0     H30449   5.966   5.359  11.054  0.9585 -0.5156  1.1218
  231MOL0     H30450   5.843   5.369  11.230 -4.3292  0.6295  4.0715
  231MOL0     H30451   5.724   5.469  11.154  0.2971  0.2815 -0.8314
  231MOL0     H30452   5.723   5.157  11.167  4.0904  1.8691 -3.7183
  231MOL0     H30453   5.610   5.250  11.067  0.7925  1.3621 -0.4911
  231MOL0     H30454   5.446   5.311  11.489  0.6945  1.9707 -3.0757
  231MOL0     H30455   5.255   5.164  11.573  1.9292 -0.7247  1.7713
  231MOL0     H30456   4.998   4.811  11.596 -0.3312 -1.0923 -0.2925
  231MOL0     H30457   4.818   4.669  11.667  3.4196  1.2209  1.1797
  231MOL0     H30458   4.652   4.426  11.358 -1.2877 -0.3436 -1.5958
  231MOL0     H30459   4.499   4.509  11.351 -0.0967  2.3269  0.7294
  231MOL0     H30460   4.506   4.274  11.426 -0.1866  1.5829 -1.8375
  231MOL0     H30461   4.395   4.384  11.505  0.9209  3.1452 -0.5700
  231MOL0     H30462   4.574   4.409  11.715  1.0615 -1.9954  2.6244
  231MOL0     H30463   4.672   4.293  11.619  0.3699  2.8454 -5.0430
  231MOL0     H30464   4.398   4.236  11.729  0.8455  2.8999 -3.0020
  231MOL0     H30465   4.508   4.123  11.642  1.7723 -0.1522  0.3042
  231MOL0     H30466   4.663   4.147  11.815 -0.9620 -2.1228 -0.3063
  231MOL0     H30467   4.519   4.090  11.892  2.2686 -0.6432  1.4860
  231MOL0     H30468   4.634   4.357  11.917  0.2289 -2.4710 -1.4858
  231MOL0     H30469   4.609   4.248  12.063 -2.5989  1.3583  1.9409
  231MOL0     H30470   4.443   4.432  12.049 -0.6497 -0.8765  1.5658
  231MOL0     H30471   4.384   4.384  11.898 -0.9428 -1.5091 -0.1890
  231MOL0     H30472   4.399   4.222  12.163 -1.4388 -0.6802  0.6171
  231MOL0     H30473   4.313   4.166  12.009 -0.7690  1.9149 -2.3280
  231MOL0     H30474   4.701   4.631  11.244 -0.4699  1.7274  0.2736
  231MOL0     H30475   4.923   4.746  11.190  0.7582 -1.4286  0.3608
  231MOL0     H30476   5.277   4.956  11.189  0.7164 -0.8250  0.1167
  231MOL0     H30477   5.461   5.081  11.128 -0.0805 -0.3189 -0.6660
  231MOL0     H30478   5.518   5.244   9.876  3.3696 -0.7612  0.3975
  231MOL0     H30479   5.304   5.252  10.013 -0.0347  0.6171  0.0274
  231MOL0     H30480   5.122   5.170  10.384  0.1666 -0.0085 -2.4581
  231MOL0     H30481   4.879   5.124  10.447 -0.1108  0.3862 -1.9239
  231MOL0     H30482   4.505   5.353  10.481  1.1684 -2.6953 -0.6857
  231MOL0     H30483   4.612   5.487  10.453 -1.8846 -1.3508 -2.3881
  231MOL0     H30484   4.624   5.328  10.712 -2.8187 -1.1211 -0.0774
  231MOL0     H30485   4.679   5.489  10.685  0.1352 -0.4832  0.3373
  231MOL0     H30486   4.402   5.380  10.699  0.6071  0.7165 -0.2285
  231MOL0     H30487   4.429   5.553  10.674 -0.6615  0.0718  0.8915
  231MOL0     H30488   4.502   5.383  10.911  0.9153 -1.0628 -1.1024
  231MOL0     H30489   4.574   5.549  10.881 -0.9235  0.3247  0.4287
  231MOL0     H30490   4.251   5.659  11.089 -1.6159 -1.1986  0.6194
  231MOL0     H30491   4.809   5.548  10.445 -0.8763  0.1118  1.2484
  231MOL0     H30492   5.047   5.589  10.412  0.2409  0.2457  1.5410
  232MOL0     O30493   2.296   5.490   4.253 -0.2689  0.3107  0.3287
  232MOL0     C30494   2.280   5.536   4.145 -0.3583  0.8456  0.1012
  232MOL0     O30495   2.333   5.641   4.093  0.1604 -0.3505 -0.6621
  232MOL0     C30496   2.394   5.737   4.180  0.1940  0.6175 -0.1952
  232MOL0     C30497   2.369   5.754   4.319 -0.1125 -0.0436 -0.1739
  232MOL0     C30498   2.445   5.847   4.395 -1.2830  0.0405  1.0780
  232MOL0     C30499   2.545   5.923   4.332  0.1121  0.3749  0.0128
  232MOL0     O30500   2.613   6.019   4.401  0.0649 -0.7227  0.3636
  232MOL0     C30501   2.748   5.983   4.441 -0.5786  0.8133  0.5469
  232MOL0     C30502   2.860   6.084   4.384 -0.1635  0.1166  0.2145
  232MOL0     C30503   3.009   6.064   4.423  0.0216 -0.6579 -0.0504
  232MOL0     C30504   3.063   5.933   4.367  0.2510 -0.3573  0.5609
  232MOL0     C30505   3.220   5.942   4.385  0.1926  0.8268  0.1832
  232MOL0     C30506   3.290   5.817   4.329 -1.1118 -0.4255  0.3797
  232MOL0     C30507   3.443   5.827   4.330 -0.1363 -0.2803 -0.6356
  232MOL0     C30508   3.512   5.876   4.453  0.0597 -0.1004 -0.4548
  232MOL0     N30509   3.646   5.910   4.412  0.0194 -0.3551  0.1660
  232MOL0     C30510   3.685   6.034   4.357  0.7554  0.2541  0.3350
  232MOL0     C30511   3.815   6.017   4.337 -1.0618 -1.1418  0.7491
  232MOL0     C30512   3.905   6.120   4.274 -0.1018 -0.1748 -0.6135
  232MOL0     C30513   4.013   6.169   4.367  0.8336  0.1522 -0.5204
  232MOL0     C30514   4.126   6.238   4.311 -0.4614 -0.1802  0.7582
  232MOL0     C30515   4.212   6.154   4.218 -0.7281 -0.5907  0.4656
  232MOL0     O30516   4.340   6.227   4.205  0.0210  0.2778  0.6435
  232MOL0     C30517   4.365   6.304   4.096 -0.0775  0.0194 -0.7106
  232MOL0     C30518   4.306   6.279   3.969 -0.0469 -0.0741 -0.2671
  232MOL0     C30519   4.351   6.347   3.857  0.8216  0.0116  0.2610
  232MOL0     C30520   4.457   6.438   3.867  0.1345 -0.6055 -0.4436
  232MOL0     C30521   4.511   6.511   3.754  0.8040 -0.1437 -0.1543
  232MOL0     O30522   4.595   6.618   3.781 -1.3417 -0.6406  0.2476
  232MOL0     C30523   4.647   6.689   3.670 -0.2696  0.6835 -0.0577
  232MOL0     C30524   4.759   6.645   3.616 -0.4794 -0.8718 -0.2770
  232MOL0     C30525   4.824   6.729   3.517  0.6279 -0.3903 -0.3847
  232MOL0     C30526   4.770   6.852   3.487  0.9099  0.4634  0.0221
  232MOL0     O30527   4.829   6.933   3.399  0.6995 -0.0164 -0.5118
  232MOL0     C30528   4.946   6.891   3.325  0.3499  0.3211  0.8086
  232MOL0     C30529   4.993   7.010   3.239 -0.1043 -0.1967 -0.1776
  232MOL0     C30530   5.016   7.139   3.324 -0.5919 -0.7939  0.8184
  232MOL0     C30531   5.063   7.253   3.241  0.2626 -0.3620 -0.3892
  232MOL0     C30532   5.213   7.241   3.190  0.4652  0.3257  0.7697
  232MOL0     C30533   5.311   7.227   3.301  0.3804  0.7421 -0.9243
  232MOL0     C30534   5.450   7.242   3.255 -0.1471  0.5030  0.6950
  232MOL0     C30535   5.557   7.175   3.347 -0.3408 -0.5765 -0.3629
  232MOL0    Cl30536   5.568   7.001   3.344  0.8246 -0.2630  0.1550
  232MOL0     C30537   4.642   6.878   3.533 -0.2825  0.6576  0.1076
  232MOL0     C30538   4.577   6.795   3.616 -0.3271  0.0170 -0.2524
  232MOL0     O30539   4.460   6.490   3.644 -0.3067  0.5084  0.5489
  232MOL0     C30540   4.517   6.461   3.988 -0.7498  0.2538  0.6558
  232MOL0     C30541   4.478   6.387   4.098  0.8243  0.1037  0.4416
  232MOL0     N30542   3.856   5.884   4.357  0.7041  0.4886 -0.4169
  232MOL0     N30543   3.754   5.825   4.404  0.1066  0.4306 -0.0037
  232MOL0     C30544   2.574   5.906   4.200  0.1791 -0.1379 -0.1458
  232MOL0     C30545   2.487   5.821   4.121 -0.6570 -0.0287 -0.1065
  232MOL0     C30546   2.190   5.470   4.046 -0.3175  0.3225 -0.0958
  232MOL0     C30547   2.154   5.528   3.920 -0.5047  0.0431  0.4937
  232MOL0     C30548   2.057   5.467   3.845 -0.6363  0.5004 -0.2761
  232MOL0     C30549   1.988   5.348   3.892 -0.8513 -0.8832  0.3039
  232MOL0     O30550   1.895   5.270   3.831 -0.0566  0.0466  0.5460
  232MOL0     C30551   1.882   5.274   3.686 -0.2209 -0.3060 -0.0329
  232MOL0     C30552   1.790   5.386   3.636  0.2016 -0.8019  0.1917
  232MOL0     C30553   1.639   5.351   3.666 -0.7363 -0.4701 -0.2632
  232MOL0     C30554   1.540   5.463   3.634  0.3585  0.5954 -0.4186
  232MOL0     C30555   1.534   5.494   3.500 -0.2726 -0.0707 -0.5159
  232MOL0     C30556   1.537   5.556   3.393  0.0671  0.8833  0.4586
  232MOL0     C30557   2.031   5.290   4.007  0.3743  0.3229 -0.0664
  232MOL0     C30558   2.128   5.351   4.086  0.8993 -0.0152 -0.2642
  232MOL0     H30559   2.281   5.712   4.366  1.1648 -2.6378  0.1262
  232MOL0     H30560   2.419   5.874   4.497 -1.7868  2.3056  0.4124
  232MOL0     H30561   2.777   5.887   4.399 -0.1022  1.2885 -0.2455
  232MOL0     H30562   2.759   5.988   4.550  0.1248 -0.3929  0.5462
  232MOL0     H30563   2.833   6.182   4.425 -1.3730  0.4739 -1.3255
  232MOL0     H30564   2.848   6.086   4.275  2.7872  1.5191 -0.1928
  232MOL0     H30565   3.007   6.070   4.533  3.2788 -2.2707  0.2231
  232MOL0     H30566   3.071   6.144   4.384  1.4488 -1.5955  0.2052
  232MOL0     H30567   3.010   5.851   4.417  0.4075  0.3101  1.8609
  232MOL0     H30568   3.052   5.942   4.259  0.1970  1.5357  0.6901
  232MOL0     H30569   3.240   5.950   4.492 -1.3434 -1.4853  0.7180
  232MOL0     H30570   3.260   6.029   4.332  0.4931 -0.6915 -2.2439
  232MOL0     H30571   3.258   5.799   4.226 -0.7430  0.6433  0.0663
  232MOL0     H30572   3.266   5.726   4.385  1.8258 -0.7341  1.3126
  232MOL0     H30573   3.484   5.732   4.294 -1.6648 -0.6028 -1.6500
  232MOL0     H30574   3.469   5.901   4.253  0.6840  0.4742  0.3359
  232MOL0     H30575   3.513   5.796   4.527  0.4408 -1.4744 -1.8810
  232MOL0     H30576   3.474   5.969   4.495  2.1494  0.3824  0.4909
  232MOL0     H30577   3.624   6.118   4.325 -0.8217 -0.1679  2.1193
  232MOL0     H30578   3.850   6.212   4.254  5.2756  4.7627  3.6684
  232MOL0     H30579   3.951   6.079   4.183  2.7123 -2.3188  1.5801
  232MOL0     H30580   4.044   6.081   4.424 -2.2390 -1.9213 -1.7891
  232MOL0     H30581   3.964   6.237   4.438  0.1151  2.1123 -2.7582
  232MOL0     H30582   4.078   6.314   4.249  0.7339 -0.4140 -0.5046
  232MOL0     H30583   4.188   6.280   4.391  1.5596  0.2682 -0.9662
  232MOL0     H30584   4.171   6.118   4.123 -1.9587  0.9141  0.3836
  232MOL0     H30585   4.240   6.063   4.272  1.4385  0.1493  0.6714
  232MOL0     H30586   4.238   6.196   3.951 -0.0969  0.0405 -0.6092
  232MOL0     H30587   4.319   6.325   3.756  3.3858  0.4706 -0.7165
  232MOL0     H30588   4.801   6.553   3.653  0.5876 -0.3279 -0.1132
  232MOL0     H30589   4.915   6.694   3.470 -0.1531 -2.1984 -0.6371
  232MOL0     H30590   4.900   6.809   3.269 -2.6642  0.4196  2.9037
  232MOL0     H30591   5.030   6.852   3.383 -0.0208 -1.0204  0.4832
  232MOL0     H30592   4.921   7.029   3.160  1.7964 -1.2470 -2.2706
  232MOL0     H30593   5.088   6.983   3.193  0.2622 -1.4408  1.2372
  232MOL0     H30594   5.076   7.112   3.412  1.4522  0.6950 -0.0209
  232MOL0     H30595   4.923   7.173   3.371  0.1226  1.0858  0.9754
  232MOL0     H30596   5.002   7.258   3.150 -1.3000 -0.8608  0.5835
  232MOL0     H30597   5.028   7.346   3.289  4.5549  0.8144  0.9031
  232MOL0     H30598   5.231   7.340   3.145  0.9191  0.4736  1.2643
  232MOL0     H30599   5.227   7.159   3.119  0.0838 -1.6755  2.8963
  232MOL0     H30600   5.299   7.131   3.351 -0.6508  2.4417  2.3727
  232MOL0     H30601   5.298   7.299   3.382  0.7760  0.3145 -0.4729
  232MOL0     H30602   5.465   7.196   3.157  0.6973  0.1413  0.9829
  232MOL0     H30603   5.471   7.348   3.244  0.8257  0.2802  0.2141
  232MOL0     H30604   5.544   7.188   3.455  0.3707 -1.8718 -0.0998
  232MOL0     H30605   5.661   7.204   3.331 -0.4065 -0.9875 -1.6597
  232MOL0     H30606   4.597   6.967   3.490  0.2934  0.2858 -1.3477
  232MOL0     H30607   4.481   6.827   3.655  0.6030  0.8048  1.5239
  232MOL0     H30608   4.597   6.532   4.008  0.6981  0.7462 -5.1126
  232MOL0     H30609   4.522   6.380   4.198 -0.0465  1.0241  0.9051
  232MOL0     H30610   2.649   5.974   4.161 -1.2053  0.7587 -1.3625
  232MOL0     H30611   2.509   5.798   4.017  1.6819 -0.3107  0.4058
  232MOL0     H30612   2.190   5.627   3.892 -2.2600  0.2194 -1.3019
  232MOL0     H30613   2.036   5.506   3.746  0.9883 -0.1020 -0.8806
  232MOL0     H30614   1.857   5.173   3.653  2.0292 -1.1164  0.5882
  232MOL0     H30615   1.975   5.293   3.633 -0.6467 -0.1916 -0.7517
  232MOL0     H30616   1.806   5.484   3.682 -1.8146 -0.8654  1.1706
  232MOL0     H30617   1.797   5.391   3.527 -2.3638  1.7384 -0.0040
  232MOL0     H30618   1.640   5.351   3.775  0.1065  0.9261 -0.2397
  232MOL0     H30619   1.613   5.254   3.625 -0.8922  1.1805 -4.6619
  232MOL0     H30620   1.443   5.438   3.679  2.8817 -1.8691  4.4087
  232MOL0     H30621   1.576   5.550   3.690  1.5961 -1.6121  2.4944
  232MOL0     H30622   1.565   5.617   3.310 -1.6512  0.6731 -0.3140
  232MOL0     H30623   1.986   5.194   4.030  0.4199  0.3411  0.0964
  232MOL0     H30624   2.166   5.314   4.181  2.0532 -0.9240 -1.0696
  233MOL0     O30625   8.996   8.376   1.937  0.7190  1.1415  0.1645
  233MOL0     C30626   9.074   8.366   2.038 -0.2004 -0.2023  0.5459
  233MOL0     O30627   9.047   8.298   2.157 -0.2180 -0.2404  0.1057
  233MOL0     C30628   8.908   8.273   2.184  0.2888  0.7589 -0.5526
  233MOL0     C30629   8.856   8.137   2.189  0.5781  0.1464  0.0261
  233MOL0     C30630   8.722   8.125   2.227  0.1587 -0.4305 -0.8866
  233MOL0     C30631   8.642   8.230   2.278  0.1325  0.5071 -0.6244
  233MOL0     O30632   8.515   8.226   2.338 -0.3682 -0.2753 -0.1606
  233MOL0     C30633   8.459   8.093   2.338 -0.1331  0.5452 -0.3867
  233MOL0     C30634   8.319   8.093   2.403 -0.4696  0.1697  0.1825
  233MOL0     C30635   8.251   7.956   2.407 -0.3305  0.4505  0.2652
  233MOL0     C30636   8.115   7.950   2.477 -0.1925 -0.1914 -1.0911
  233MOL0     C30637   8.064   7.806   2.477  0.3716  0.5974  1.1892
  233MOL0     C30638   7.931   7.786   2.551  1.5660  0.3577  1.5566
  233MOL0     C30639   7.855   7.660   2.523  0.0910  0.2631  1.0531
  233MOL0     C30640   7.725   7.643   2.595  0.0383 -0.8463 -0.5650
  233MOL0     N30641   7.669   7.507   2.580  1.0430 -0.8474  0.7643
  233MOL0     C30642   7.586   7.482   2.479 -0.3590  0.0408 -0.2608
  233MOL0     C30643   7.562   7.345   2.490 -0.3924  0.8384  1.2186
  233MOL0     C30644   7.470   7.259   2.393  0.0525  0.6742  0.0607
  233MOL0     C30645   7.320   7.274   2.420  0.5388  0.7829 -0.1516
  233MOL0     C30646   7.286   7.239   2.563  0.2810 -0.6858  0.4787
  233MOL0     C30647   7.134   7.210   2.576 -0.1834 -0.5229  0.0417
  233MOL0     O30648   7.083   7.345   2.540 -0.2448  0.0771 -0.8734
  233MOL0     C30649   6.952   7.341   2.503  0.1053 -0.2758  0.1790
  233MOL0     C30650   6.845   7.310   2.598 -1.1059 -0.4581 -0.4987
  233MOL0     C30651   6.712   7.340   2.558 -0.0149 -0.5749  0.2662
  233MOL0     C30652   6.676   7.382   2.426  0.1010 -0.8828 -0.4775
  233MOL0     C30653   6.540   7.376   2.376  0.9305 -0.1153 -0.1719
  233MOL0     O30654   6.521   7.401   2.242  0.0353  0.6919  0.2529
  233MOL0     C30655   6.404   7.338   2.201 -0.1441 -0.3295 -0.8345
  233MOL0     C30656   6.373   7.195   2.203 -1.2215 -0.4118  0.5549
  233MOL0     C30657   6.252   7.147   2.165 -0.1921  0.1861  0.5158
  233MOL0     C30658   6.162   7.224   2.093  0.7229  0.3516 -0.3190
  233MOL0     O30659   6.047   7.181   2.025 -0.0710 -0.4665  0.6381
  233MOL0     C30660   6.021   7.036   2.027  0.1206 -0.7828  0.3991
  233MOL0     C30661   5.870   7.009   1.993 -0.5287 -0.6577 -0.2223
  233MOL0     C30662   5.860   6.868   1.945  0.3812  0.4021  0.5345
  233MOL0     C30663   5.899   6.750   2.037 -1.1009  0.4117  0.1311
  233MOL0     C30664   6.047   6.698   2.024 -0.1507 -0.1750 -0.5185
  233MOL0     C30665   6.071   6.632   1.891  0.6232 -0.3533  0.4426
  233MOL0     C30666   6.200   6.560   1.881 -0.5445  0.3036 -0.7440
  233MOL0     C30667   6.217   6.508   1.740  1.0577 -0.0945  0.4514
  233MOL0    Cl30668   6.098   6.378   1.703  0.4059  0.5071 -0.5392
  233MOL0     C30669   6.181   7.361   2.104 -0.1683 -0.6575 -0.0126
  233MOL0     C30670   6.303   7.425   2.152  0.5577  0.9096 -0.5686
  233MOL0     O30671   6.448   7.372   2.456  0.0572  0.7280 -0.2917
  233MOL0     C30672   6.786   7.419   2.342  0.6341  0.5224 -0.5729
  233MOL0     C30673   6.918   7.403   2.379  0.7357  1.5980 -0.2629
  233MOL0     N30674   7.634   7.292   2.591 -0.1477 -0.3847  0.2623
  233MOL0     N30675   7.701   7.397   2.639 -0.5822  0.1072  0.0294
  233MOL0     C30676   8.701   8.356   2.279 -1.9060  0.2452  1.0266
  233MOL0     C30677   8.830   8.372   2.225 -0.2934  0.2725 -0.2229
  233MOL0     C30678   9.193   8.438   2.032  0.4035 -0.4419 -0.0431
  233MOL0     C30679   9.294   8.416   2.125 -0.8651 -0.1072 -0.2471
  233MOL0     C30680   9.407   8.491   2.126  0.1013  0.9804 -1.6942
  233MOL0     C30681   9.433   8.581   2.031  1.4638  0.1966  0.2238
  233MOL0     O30682   9.546   8.658   2.036 -0.1453  0.1940 -0.1055
  233MOL0     C30683   9.563   8.779   1.966  0.2045 -0.3364 -0.0368
  233MOL0     C30684   9.680   8.851   2.021  1.4045  0.2174  0.3052
  233MOL0     C30685   9.812   8.785   1.963 -0.8212 -0.4592  0.3826
  233MOL0     C30686   9.933   8.860   2.014  0.3109 -0.6834  0.0072
  233MOL0     C30687   9.951   8.857   2.162  0.0155  1.0046 -0.8374
  233MOL0     C30688   9.969   8.876   2.280  0.8340 -0.6190 -0.1084
  233MOL0     C30689   9.343   8.599   1.926 -0.2688 -0.4900  0.5326
  233MOL0     C30690   9.219   8.529   1.931 -0.2098 -0.5819  0.2759
  233MOL0     H30691   8.908   8.045   2.163 -2.3306 -1.1930 -1.5636
  233MOL0     H30692   8.682   8.026   2.244  1.8906 -1.2457 -1.3511
  233MOL0     H30693   8.517   8.027   2.403  0.6241  4.2954  3.1758
  233MOL0     H30694   8.457   8.059   2.234  0.2262  2.7351 -1.1504
  233MOL0     H30695   8.264   8.168   2.345 -0.6942  1.0242  1.4604
  233MOL0     H30696   8.313   8.135   2.503 -2.9676 -1.5571  0.8603
  233MOL0     H30697   8.318   7.903   2.475  2.1753  4.7260  1.5512
  233MOL0     H30698   8.246   7.908   2.309  1.0741 -0.1756  0.4730
  233MOL0     H30699   8.137   7.989   2.577 -0.6939 -1.9739 -0.2524
  233MOL0     H30700   8.031   8.007   2.439 -2.6918 -3.4047 -0.7813
  233MOL0     H30701   8.140   7.743   2.524 -1.1520 -1.9763  0.4320
  233MOL0     H30702   8.055   7.771   2.373  1.8303 -0.1857  1.3051
  233MOL0     H30703   7.873   7.875   2.524 -0.2556 -0.2866  3.1251
  233MOL0     H30704   7.970   7.781   2.653  0.7881  0.0647  1.8406
  233MOL0     H30705   7.812   7.654   2.423  0.0419 -1.5008  1.1385
  233MOL0     H30706   7.912   7.570   2.549 -0.8088 -0.6648 -0.1144
  233MOL0     H30707   7.653   7.721   2.568  1.8005  0.7312 -0.8858
  233MOL0     H30708   7.750   7.652   2.701 -1.1060  1.7441 -0.4320
  233MOL0     H30709   7.530   7.551   2.417  0.8009  0.3953 -0.9244
  233MOL0     H30710   7.510   7.158   2.407 -1.0942  0.2861  0.6495
  233MOL0     H30711   7.491   7.276   2.287  1.3471 -0.1691  0.1460
  233MOL0     H30712   7.257   7.231   2.342 -0.7197  0.9565  0.7468
  233MOL0     H30713   7.293   7.379   2.415 -4.4262 -0.3075 -3.3279
  233MOL0     H30714   7.339   7.154   2.606  1.9383  1.3343  2.6574
  233MOL0     H30715   7.320   7.318   2.630 -2.3837 -0.4248  1.6817
  233MOL0     H30716   7.103   7.180   2.676 -2.6251  2.1121  0.1996
  233MOL0     H30717   7.108   7.144   2.493  1.4004  3.0891 -3.7279
  233MOL0     H30718   6.871   7.271   2.696  0.1705 -0.4385 -0.8073
  233MOL0     H30719   6.633   7.324   2.631  1.1308 -1.0137  1.4416
  233MOL0     H30720   6.454   7.128   2.231 -0.9360 -0.2585  0.1126
  233MOL0     H30721   6.248   7.038   2.170 -2.5624  0.1901 -0.0417
  233MOL0     H30722   6.026   6.999   2.130  0.1194  1.5721  1.3086
  233MOL0     H30723   6.098   6.983   1.971 -1.6078 -2.8397 -0.1485
  233MOL0     H30724   5.835   7.075   1.914  0.3126 -0.9748 -0.8781
  233MOL0     H30725   5.807   7.030   2.080  0.1361 -1.0241  0.3605
  233MOL0     H30726   5.918   6.862   1.853  1.8989 -0.1448  1.4863
  233MOL0     H30727   5.755   6.846   1.925  0.5792 -0.4808  0.4472
  233MOL0     H30728   5.892   6.793   2.138  0.4816 -0.6810  0.7347
  233MOL0     H30729   5.837   6.661   2.027 -0.2944 -0.1729  0.2838
  233MOL0     H30730   6.064   6.631   2.109 -1.2094 -0.9437 -0.8808
  233MOL0     H30731   6.111   6.786   2.036 -1.2410  0.8886 -2.1253
  233MOL0     H30732   6.066   6.708   1.812 -2.1904 -1.6451 -0.7552
  233MOL0     H30733   5.989   6.562   1.872 -1.5318  2.2187 -0.3630
  233MOL0     H30734   6.262   6.649   1.892 -2.0148  1.6476 -2.6381
  233MOL0     H30735   6.206   6.477   1.952  1.8099 -0.5273 -1.8000
  233MOL0     H30736   6.312   6.454   1.733 -0.9240 -4.1284  1.5924
  233MOL0     H30737   6.198   6.585   1.665 -0.5723 -2.1286 -1.3462
  233MOL0     H30738   6.096   7.412   2.060 -1.5952 -0.3250  2.9167
  233MOL0     H30739   6.312   7.533   2.155 -3.0260  1.4211 -2.5204
  233MOL0     H30740   6.763   7.463   2.246 -1.1111 -1.1685 -0.9980
  233MOL0     H30741   6.998   7.410   2.307  2.5108  0.7619  1.5201
  233MOL0     H30742   8.642   8.446   2.292  1.9214  3.0651  0.5111
  233MOL0     H30743   8.858   8.473   2.195 -1.5238  0.1524 -1.8871
  233MOL0     H30744   9.282   8.340   2.202  0.4828 -0.6081 -0.5064
  233MOL0     H30745   9.487   8.481   2.200 -2.9074 -1.6869  1.5738
  233MOL0     H30746   9.477   8.844   1.985  0.7036 -0.2293  2.1907
  233MOL0     H30747   9.588   8.769   1.860  3.2300 -2.9735  0.7737
  233MOL0     H30748   9.669   8.958   2.004 -3.3198 -0.4544 -2.8774
  233MOL0     H30749   9.668   8.837   2.129 -1.3517  1.6791  0.2752
  233MOL0     H30750   9.810   8.797   1.854  1.4910  0.8336  0.4205
  233MOL0     H30751   9.823   8.679   1.990  1.2836 -0.1361  0.9990
  233MOL0     H30752  10.025   8.820   1.970  0.4679 -1.1800  0.7479
  233MOL0     H30753   9.937   8.968   1.999  0.4912 -0.8332 -1.1051
  233MOL0     H30754   9.996   8.912   2.377  3.9383  0.6833 -1.2902
  233MOL0     H30755   9.365   8.663   1.841 -1.2079 -2.1148 -1.0029
  233MOL0     H30756   9.148   8.543   1.849  0.7898 -1.8433 -0.8632
  234MOL0     O30757   1.300   3.484   8.402  0.2557 -0.0591  0.3963
  234MOL0     C30758   1.294   3.492   8.277 -0.0786 -0.3593 -0.0678
  234MOL0     O30759   1.279   3.605   8.204  0.5697  0.0328  0.3329
  234MOL0     C30760   1.243   3.722   8.255  0.3237 -0.6357  0.3907
  234MOL0     C30761   1.176   3.739   8.383  0.1305  0.0613  0.4083
  234MOL0     C30762   1.159   3.871   8.433 -0.4865 -0.9032  0.0064
  234MOL0     C30763   1.190   3.971   8.350  0.6225  0.1442 -0.1606
  234MOL0     O30764   1.169   4.094   8.405 -0.0842  0.2567 -0.4315
  234MOL0     C30765   1.224   4.211   8.342 -0.3730  1.6995  0.1065
  234MOL0     C30766   1.195   4.340   8.422  0.0026 -0.1476 -0.1216
  234MOL0     C30767   1.285   4.460   8.382 -0.3743  0.4267  0.4213
  234MOL0     C30768   1.252   4.505   8.236  0.5279 -0.7136 -0.3890
  234MOL0     C30769   1.349   4.621   8.204 -0.2066  0.4330 -0.0263
  234MOL0     C30770   1.351   4.666   8.060 -0.6021  0.2977 -1.2035
  234MOL0     C30771   1.460   4.601   7.985  0.2836  1.2023 -0.4308
  234MOL0     C30772   1.451   4.661   7.841  0.3447  0.1739 -0.3027
  234MOL0     N30773   1.570   4.626   7.763  0.1722 -0.3094 -0.0296
  234MOL0     C30774   1.593   4.649   7.628  1.0003 -0.5753 -0.4232
  234MOL0     C30775   1.724   4.623   7.620  0.5758 -0.5450  0.4494
  234MOL0     C30776   1.804   4.614   7.485 -0.8689 -0.5185 -0.0179
  234MOL0     C30777   1.811   4.460   7.467 -0.9685 -0.2325 -0.5204
  234MOL0     C30778   1.959   4.414   7.447 -0.0429  0.3844  0.8031
  234MOL0     C30779   2.002   4.443   7.309 -0.3617  0.4345 -0.3782
  234MOL0     O30780   1.948   4.340   7.224  0.1509  0.7263  0.0141
  234MOL0     C30781   1.995   4.333   7.094  0.4568  0.2667 -0.1807
  234MOL0     C30782   2.070   4.431   7.029 -0.3228  0.6393 -0.2000
  234MOL0     C30783   2.111   4.408   6.894  0.0327 -0.8562 -0.8871
  234MOL0     C30784   2.076   4.293   6.831 -0.3110  1.0028  0.1088
  234MOL0     C30785   2.117   4.279   6.690  0.6397 -0.3382 -0.0501
  234MOL0     O30786   2.160   4.392   6.635  0.6399  0.2886 -0.0108
  234MOL0     C30787   2.206   4.407   6.507  0.0306  0.7964  0.7019
  234MOL0     C30788   2.157   4.341   6.394 -0.3458  0.8372 -0.2977
  234MOL0     C30789   2.221   4.356   6.265  0.0393 -0.4075 -0.0313
  234MOL0     C30790   2.335   4.439   6.258 -0.1508 -1.2719  0.3059
  234MOL0     O30791   2.393   4.462   6.132  0.6911 -0.3899  1.2713
  234MOL0     C30792   2.375   4.381   6.014 -0.0902  0.6565 -0.2357
  234MOL0     C30793   2.483   4.287   6.021  0.1546  0.0538  0.3752
  234MOL0     C30794   2.610   4.359   6.010 -0.2568 -0.0934 -0.5905
  234MOL0     C30795   2.723   4.263   6.036 -0.4615 -0.7832  1.2992
  234MOL0     C30796   2.864   4.316   6.003  0.5788 -0.2857 -0.3842
  234MOL0     C30797   2.882   4.460   6.076 -0.4240  0.1339  0.1234
  234MOL0     C30798   3.026   4.472   6.148  0.6169 -0.6712  0.3477
  234MOL0     C30799   3.138   4.474   6.051  0.0181  0.2986 -0.2971
  234MOL0    Cl30800   3.126   4.626   5.956 -0.2414 -0.2704  0.0572
  234MOL0     C30801   2.381   4.511   6.372  0.2568  0.5671 -0.4272
  234MOL0     C30802   2.305   4.492   6.489 -0.4866 -0.2937 -0.0882
  234MOL0     O30803   2.094   4.172   6.641 -0.8951 -0.7912  0.0190
  234MOL0     C30804   2.005   4.189   6.897 -0.1805 -0.3405 -0.3438
  234MOL0     C30805   1.964   4.213   7.026 -0.4972  0.7728 -0.8019
  234MOL0     N30806   1.783   4.608   7.744 -0.1821  0.7082  0.0666
  234MOL0     N30807   1.691   4.603   7.829 -0.5972  1.1202 -0.0188
  234MOL0     C30808   1.229   3.954   8.217  0.3912  0.2649 -0.3155
  234MOL0     C30809   1.257   3.825   8.170 -0.7684 -1.3764  0.6539
  234MOL0     C30810   1.318   3.365   8.201 -0.9427  0.5923 -0.5886
  234MOL0     C30811   1.358   3.239   8.254 -0.1340  0.2173 -0.4859
  234MOL0     C30812   1.357   3.136   8.153 -0.3991  0.1974 -0.3255
  234MOL0     C30813   1.324   3.146   8.018  0.4325  0.4665  1.2992
  234MOL0     O30814   1.346   3.035   7.929 -0.0041  0.6910  0.1943
  234MOL0     C30815   1.448   2.930   7.944 -0.2160  0.0709 -0.7283
  234MOL0     C30816   1.447   2.847   7.810 -0.4011  0.4640  0.2005
  234MOL0     C30817   1.330   2.744   7.801 -0.3093 -0.8471  0.2495
  234MOL0     C30818   1.302   2.691   7.667 -0.4213  0.6366 -0.2847
  234MOL0     C30819   1.353   2.556   7.656  0.5612 -0.4548 -0.5261
  234MOL0     C30820   1.407   2.448   7.657  0.2917  1.3832  0.3300
  234MOL0     C30821   1.302   3.271   7.969 -0.0085  0.9836  0.0787
  234MOL0     C30822   1.290   3.375   8.061 -0.3782  0.3990  0.6600
  234MOL0     H30823   1.155   3.654   8.447  3.0156  1.0289  2.8439
  234MOL0     H30824   1.101   3.894   8.522  0.4735  3.6870 -0.3249
  234MOL0     H30825   1.170   4.209   8.247 -1.4594 -1.6260  0.6492
  234MOL0     H30826   1.330   4.193   8.323 -0.5469 -0.0608  0.6136
  234MOL0     H30827   1.208   4.331   8.530 -5.1196 -1.1706  0.6851
  234MOL0     H30828   1.093   4.378   8.411  0.7101  1.2286 -2.6373
  234MOL0     H30829   1.386   4.422   8.367 -0.8009  0.2856 -2.8785
  234MOL0     H30830   1.292   4.538   8.459  2.3357  0.4960  0.2079
  234MOL0     H30831   1.249   4.425   8.161 -1.3188 -0.5537 -0.5273
  234MOL0     H30832   1.151   4.547   8.243  1.5764  1.6886  2.1519
  234MOL0     H30833   1.453   4.591   8.224  0.0911  2.7904  2.4197
  234MOL0     H30834   1.325   4.715   8.254  1.2041 -0.1634  1.8926
  234MOL0     H30835   1.376   4.772   8.069 -0.9113  0.3191 -0.5225
  234MOL0     H30836   1.250   4.662   8.019 -0.6518 -0.2712 -1.0265
  234MOL0     H30837   1.556   4.615   8.034  0.2425 -2.6350  1.1312
  234MOL0     H30838   1.423   4.498   7.979 -0.7245  1.5100  0.2264
  234MOL0     H30839   1.441   4.770   7.845  0.8622  0.1939  2.7792
  234MOL0     H30840   1.361   4.621   7.793 -1.4044  2.3365  0.9446
  234MOL0     H30841   1.528   4.679   7.546  0.4312 -1.8088 -0.4487
  234MOL0     H30842   1.902   4.658   7.508 -0.7347 -2.0300  2.7059
  234MOL0     H30843   1.765   4.661   7.394  2.4975  1.9953 -0.3550
  234MOL0     H30844   1.751   4.434   7.380 -1.3667  0.2798 -0.4027
  234MOL0     H30845   1.771   4.400   7.549  1.0588 -0.8430  0.0823
  234MOL0     H30846   2.016   4.463   7.527 -2.7977  0.3040  2.9421
  234MOL0     H30847   1.972   4.307   7.467 -2.0150 -0.2044 -0.8215
  234MOL0     H30848   2.109   4.420   7.311 -0.7924 -1.8289  0.2983
  234MOL0     H30849   1.966   4.538   7.269 -0.8104  1.2784  1.9411
  234MOL0     H30850   2.095   4.529   7.069  2.2099 -0.2343  0.4903
  234MOL0     H30851   2.178   4.480   6.849 -2.1424  1.7588 -0.1970
  234MOL0     H30852   2.093   4.253   6.398  2.4125 -1.3144 -0.3454
  234MOL0     H30853   2.194   4.296   6.179  3.3783 -0.7433 -0.9854
  234MOL0     H30854   2.393   4.442   5.925  1.4307  2.1135  1.0063
  234MOL0     H30855   2.283   4.323   6.012  0.7740 -0.7988  0.1778
  234MOL0     H30856   2.468   4.223   5.933  1.4022  0.0874  0.1189
  234MOL0     H30857   2.474   4.230   6.114 -1.2601 -1.3391 -0.5534
  234MOL0     H30858   2.630   4.444   6.076  2.9223  1.5081 -3.2661
  234MOL0     H30859   2.621   4.407   5.912  0.2220 -1.6776 -1.3416
  234MOL0     H30860   2.716   4.244   6.143 -2.3198  0.5044  1.4442
  234MOL0     H30861   2.701   4.167   5.989  2.3030 -1.1323  0.5025
  234MOL0     H30862   2.862   4.334   5.895 -2.9736  0.5403 -0.3011
  234MOL0     H30863   2.946   4.250   6.032  1.9818  1.5009 -0.0970
  234MOL0     H30864   2.809   4.469   6.157 -0.4088 -1.5092  0.3493
  234MOL0     H30865   2.863   4.533   5.998  2.7836  0.8147 -0.1370
  234MOL0     H30866   3.032   4.569   6.199  1.5338 -2.0652  3.0755
  234MOL0     H30867   3.038   4.396   6.226  2.2045 -1.4201 -0.5751
  234MOL0     H30868   3.136   4.391   5.979  1.2345  0.5987 -0.7050
  234MOL0     H30869   3.235   4.472   6.101 -0.8361  0.1905  1.4329
  234MOL0     H30870   2.463   4.581   6.366 -0.9329  2.0445 -0.1721
  234MOL0     H30871   2.325   4.563   6.569  0.0739  0.4830 -0.8860
  234MOL0     H30872   1.983   4.092   6.853  1.9982 -1.1345  0.1962
  234MOL0     H30873   1.888   4.144   7.063 -1.2511  2.0638  0.1692
  234MOL0     H30874   1.236   4.024   8.135  3.7858  2.6505  1.7524
  234MOL0     H30875   1.301   3.808   8.072 -1.7058 -0.7613  0.1126
  234MOL0     H30876   1.384   3.216   8.357  2.2443  1.0929 -0.8532
  234MOL0     H30877   1.408   3.049   8.194 -1.5902 -1.2504 -1.7578
  234MOL0     H30878   1.426   2.863   8.028  1.1052 -0.8921 -1.1298
  234MOL0     H30879   1.540   2.983   7.969  1.5236 -1.6498 -3.1520
  234MOL0     H30880   1.426   2.919   7.730 -2.9851  0.3107  0.6683
  234MOL0     H30881   1.540   2.791   7.797  0.1452  1.4087 -0.0695
  234MOL0     H30882   1.238   2.784   7.845 -0.6067 -2.8992  1.6902
  234MOL0     H30883   1.363   2.669   7.874 -2.3924 -0.1758  2.0005
  234MOL0     H30884   1.195   2.699   7.645 -0.5353  1.7184  0.5995
  234MOL0     H30885   1.352   2.748   7.588  1.4849 -1.0266 -0.3835
  234MOL0     H30886   1.465   2.359   7.659  1.4779  1.8997 -3.5031
  234MOL0     H30887   1.290   3.296   7.864  0.7730  4.8764  0.7603
  234MOL0     H30888   1.264   3.473   8.022 -1.9451 -0.3922 -0.3680
  235MOL0     O30889   1.150   3.077   5.474  0.2252 -0.4337  0.0145
  235MOL0     C30890   1.179   3.175   5.539 -0.3203 -0.1533  0.4132
  235MOL0     O30891   1.202   3.174   5.672  0.0119 -0.9397  0.2097
  235MOL0     C30892   1.203   3.067   5.755  0.0606  0.1047  0.1834
  235MOL0     C30893   1.324   3.020   5.807  0.9730 -0.1691 -1.8830
  235MOL0     C30894   1.325   2.906   5.883 -0.4358 -0.1506  0.0505
  235MOL0     C30895   1.208   2.846   5.914  0.1108 -0.0443  0.0004
  235MOL0     O30896   1.216   2.755   6.011  0.0872 -0.4226 -0.3480
  235MOL0     C30897   1.113   2.767   6.108  0.1175  0.6453 -0.1990
  235MOL0     C30898   1.136   2.879   6.206  0.1814  0.4104  0.4351
  235MOL0     C30899   1.283   2.880   6.248 -0.7683  0.4833 -0.8198
  235MOL0     C30900   1.308   2.979   6.357 -0.1253 -0.1559  0.8718
  235MOL0     C30901   1.453   3.007   6.411  0.2090  0.4409 -0.5496
  235MOL0     C30902   1.510   2.894   6.497 -0.0516 -0.4794  0.9433
  235MOL0     C30903   1.638   2.934   6.566  0.2741 -0.2125 -0.6430
  235MOL0     C30904   1.725   2.807   6.583 -0.3100  0.0735 -0.4002
  235MOL0     N30905   1.810   2.815   6.709  0.4120  1.2907 -0.0963
  235MOL0     C30906   1.948   2.810   6.727  0.1286  0.4421  1.1007
  235MOL0     C30907   1.981   2.820   6.861 -0.4553  0.2630  0.7405
  235MOL0     C30908   2.124   2.818   6.926  0.1468 -0.0139 -1.2707
  235MOL0     C30909   2.138   2.884   7.064 -0.0582  0.0510 -0.1278
  235MOL0     C30910   2.129   3.040   7.056  0.4299  0.9309 -0.5486
  235MOL0     C30911   2.259   3.105   7.006  1.2470  0.6028  0.0998
  235MOL0     O30912   2.350   3.102   7.112  0.4324 -0.6363 -0.1648
  235MOL0     C30913   2.468   3.163   7.090 -0.0341 -0.0651 -0.0778
  235MOL0     C30914   2.538   3.213   7.202  0.6759  0.0924  0.0305
  235MOL0     C30915   2.657   3.287   7.186  0.3466  0.2599  0.5066
  235MOL0     C30916   2.699   3.328   7.054 -0.3557  0.2015 -0.1726
  235MOL0     C30917   2.799   3.429   7.037 -1.2637 -0.7759  0.2944
  235MOL0     O30918   2.883   3.448   7.143 -0.5411 -0.9451  0.7610
  235MOL0     C30919   2.999   3.524   7.124  0.8562  1.2001  0.2231
  235MOL0     C30920   3.006   3.640   7.056 -0.7214  0.1836  0.7998
  235MOL0     C30921   3.121   3.709   7.046 -0.2037 -1.1780  0.1552
  235MOL0     C30922   3.235   3.664   7.122  0.2836  0.7833 -0.9432
  235MOL0     O30923   3.355   3.731   7.102  0.0421  0.6413 -0.7079
  235MOL0     C30924   3.353   3.851   7.182 -0.4186 -0.7612  0.3341
  235MOL0     C30925   3.497   3.896   7.213  0.0566  0.6795 -0.9276
  235MOL0     C30926   3.546   4.001   7.121  0.1221 -0.3099 -0.5268
  235MOL0     C30927   3.582   3.947   6.981  0.2816 -0.6125 -0.4822
  235MOL0     C30928   3.661   4.046   6.894 -0.4285  0.9680 -0.1584
  235MOL0     C30929   3.611   4.190   6.841  0.3272 -0.1089  0.0354
  235MOL0     C30930   3.651   4.294   6.937 -0.6403  0.1205 -0.2059
  235MOL0     C30931   3.611   4.432   6.908 -1.4375 -0.1455 -0.5632
  235MOL0    Cl30932   3.435   4.463   6.907  0.2986  0.2202  0.6529
  235MOL0     C30933   3.226   3.540   7.192  0.8798  0.6613  0.2185
  235MOL0     C30934   3.099   3.475   7.200 -0.1094 -0.3088 -0.6184
  235MOL0     O30935   2.805   3.484   6.924 -0.7573 -0.0888 -0.4946
  235MOL0     C30936   2.634   3.267   6.949  0.7094 -0.2842 -0.2505
  235MOL0     C30937   2.522   3.182   6.963 -0.2391 -0.9244 -0.3373
  235MOL0     N30938   1.861   2.813   6.930 -0.0088  0.0101  0.5688
  235MOL0     N30939   1.767   2.804   6.836 -0.1007 -0.2065 -0.2300
  235MOL0     C30940   1.088   2.892   5.861  0.3396 -0.2380 -0.5561
  235MOL0     C30941   1.082   3.009   5.778 -0.7176  0.3888  0.8026
  235MOL0     C30942   1.195   3.306   5.469 -0.3083 -0.4928 -1.0058
  235MOL0     C30943   1.175   3.438   5.520  0.0774  0.1829 -0.2355
  235MOL0     C30944   1.211   3.551   5.458  1.2786 -0.8596  1.1948
  235MOL0     C30945   1.261   3.543   5.326 -0.0642  0.3102 -0.2928
  235MOL0     O30946   1.300   3.648   5.248 -0.3394  0.8545 -0.2287
  235MOL0     C30947   1.279   3.779   5.297 -0.5836 -0.3550 -0.2344
  235MOL0     C30948   1.341   3.877   5.196 -0.7942 -0.0860  0.4202
  235MOL0     C30949   1.261   3.875   5.065  0.2254 -0.7359 -0.0287
  235MOL0     C30950   1.345   3.959   4.965 -0.5006  0.0496 -0.6491
  235MOL0     C30951   1.440   3.869   4.900  0.4404 -0.1156 -0.9303
  235MOL0     C30952   1.511   3.797   4.833 -0.9379  0.2355  0.3764
  235MOL0     C30953   1.289   3.419   5.275  0.9625 -0.4266 -0.0180
  235MOL0     C30954   1.255   3.303   5.340 -1.1914  0.0585 -0.5825
  235MOL0     H30955   1.414   3.077   5.788  1.2815 -0.4599 -1.3327
  235MOL0     H30956   1.417   2.867   5.926  0.1372  0.8245 -0.2574
  235MOL0     H30957   1.136   2.682   6.174  1.0966 -0.6137 -2.0539
  235MOL0     H30958   1.015   2.743   6.066  0.9728 -1.8784 -0.9504
  235MOL0     H30959   1.062   2.866   6.286 -0.2490  0.2788  0.0230
  235MOL0     H30960   1.112   2.975   6.159 -1.3034 -0.8153 -1.4797
  235MOL0     H30961   1.350   2.894   6.163 -0.0643 -0.6965 -0.4752
  235MOL0     H30962   1.318   2.785   6.290 -2.2066 -0.9917 -2.8075
  235MOL0     H30963   1.261   3.070   6.318  1.0471  0.2130  0.2828
  235MOL0     H30964   1.249   2.937   6.439 -0.7356 -0.3633  0.3445
  235MOL0     H30965   1.440   3.096   6.474  0.3046 -0.0797  0.2202
  235MOL0     H30966   1.517   3.028   6.325 -1.6072  0.1931 -2.0199
  235MOL0     H30967   1.529   2.816   6.423 -0.6413 -1.3341  1.6770
  235MOL0     H30968   1.435   2.863   6.571  0.3833 -1.7701  0.8535
  235MOL0     H30969   1.694   3.010   6.510 -2.3130 -0.7639 -4.2849
  235MOL0     H30970   1.603   2.969   6.664 -1.4518 -1.4811 -0.7765
  235MOL0     H30971   1.796   2.799   6.500 -0.5656 -4.0555 -0.3785
  235MOL0     H30972   1.661   2.719   6.593  0.9223 -0.8608 -0.5128
  235MOL0     H30973   2.028   2.802   6.654 -0.2246 -0.3769  0.7834
  235MOL0     H30974   2.190   2.862   6.851  0.7443  1.5427  0.1000
  235MOL0     H30975   2.141   2.710   6.931 -2.9182 -0.6144 -1.8829
  235MOL0     H30976   2.232   2.842   7.102  0.6662 -1.0801 -2.9536
  235MOL0     H30977   2.066   2.832   7.128  0.2281  2.8471  2.7125
  235MOL0     H30978   2.043   3.069   6.994 -2.3467 -0.2265  2.4268
  235MOL0     H30979   2.110   3.071   7.159  0.2417 -2.1815  0.4746
  235MOL0     H30980   2.239   3.211   6.989  0.9560  0.7615  1.3055
  235MOL0     H30981   2.292   3.065   6.910  0.1927  3.2119 -1.4598
  235MOL0     H30982   2.511   3.189   7.304  3.5147 -0.8032  0.6681
  235MOL0     H30983   2.709   3.336   7.269  1.9935  2.5238 -1.7156
  235MOL0     H30984   2.909   3.682   7.027 -1.5511 -2.7054 -0.9932
  235MOL0     H30985   3.132   3.794   6.979  1.6674 -3.2330 -2.3860
  235MOL0     H30986   3.320   3.830   7.284  1.0459  2.2903  1.5618
  235MOL0     H30987   3.288   3.930   7.142 -0.3662 -0.6404  0.4865
  235MOL0     H30988   3.561   3.808   7.202  0.0453  0.4005  0.9025
  235MOL0     H30989   3.506   3.932   7.316  0.2810 -1.2005 -0.2573
  235MOL0     H30990   3.634   4.039   7.175  0.5197  2.0859 -2.6703
  235MOL0     H30991   3.464   4.073   7.110 -1.2575 -1.8433 -0.5379
  235MOL0     H30992   3.639   3.854   6.993 -1.5003 -1.7851 -0.6818
  235MOL0     H30993   3.493   3.915   6.927 -1.3526  1.7590  0.6323
  235MOL0     H30994   3.698   3.990   6.807  1.4078  3.4469 -1.0828
  235MOL0     H30995   3.746   4.080   6.954  0.1305 -0.7238  0.0851
  235MOL0     H30996   3.503   4.208   6.831  0.2545  0.7252  1.9972
  235MOL0     H30997   3.660   4.208   6.745  1.4890  0.3433  0.6959
  235MOL0     H30998   3.605   4.273   7.034 -0.2485 -1.6426 -0.3651
  235MOL0     H30999   3.759   4.286   6.951 -0.3835  0.0708 -2.0300
  235MOL0     H31000   3.654   4.463   6.812  0.5338 -0.6090  0.1273
  235MOL0     H31001   3.642   4.498   6.990 -2.2273  1.1924 -1.3000
  235MOL0     H31002   3.311   3.482   7.229 -1.4120 -4.1099 -1.1123
  235MOL0     H31003   3.082   3.394   7.270  0.5085  0.8279  0.9096
  235MOL0     H31004   2.671   3.298   6.852 -0.8563  0.6544 -0.5833
  235MOL0     H31005   2.467   3.168   6.871  1.1894 -1.6206 -1.1191
  235MOL0     H31006   0.994   2.838   5.875  0.1691 -0.2792 -1.6959
  235MOL0     H31007   0.992   3.034   5.724 -2.7480  0.4702  3.9792
  235MOL0     H31008   1.115   3.445   5.610 -1.5263 -0.4639 -1.1983
  235MOL0     H31009   1.209   3.652   5.499 -2.9097 -0.7679  1.1884
  235MOL0     H31010   1.325   3.788   5.396  0.0424 -0.3385 -0.5276
  235MOL0     H31011   1.171   3.796   5.305 -1.2379 -4.3122  1.9131
  235MOL0     H31012   1.338   3.978   5.238 -2.5191 -0.5379  1.4942
  235MOL0     H31013   1.438   3.835   5.170 -0.5987  0.7627 -0.2984
  235MOL0     H31014   1.167   3.930   5.076 -1.8349 -3.8918 -0.3604
  235MOL0     H31015   1.244   3.770   5.040  0.0211 -1.1767  1.8544
  235MOL0     H31016   1.285   4.007   4.887 -0.8210 -0.1361 -0.5201
  235MOL0     H31017   1.398   4.031   5.027  1.5328 -4.0456  2.8799
  235MOL0     H31018   1.561   3.747   4.752 -1.7179  1.5156 -0.9472
  235MOL0     H31019   1.324   3.404   5.173 -0.5746 -1.1499 -0.4707
  235MOL0     H31020   1.300   3.209   5.309  5.4552  1.0058  3.9492
  236MOL0     O31021   0.755   0.368   4.398 -0.7664 -0.5330  0.2518
  236MOL0     C31022   0.700   0.425   4.298  0.2078  0.2426 -0.4485
  236MOL0     O31023   0.689   0.375   4.168 -0.8677  0.4392  0.4201
  236MOL0     C31024   0.751   0.253   4.132  0.5134  0.2348  0.1553
  236MOL0     C31025   0.719   0.137   4.207  0.5079 -0.2802 -0.5701
  236MOL0     C31026   0.768   0.011   4.171 -0.0383 -0.5802 -0.5608
  236MOL0     C31027   0.856  -0.004   4.060 -0.2907 -0.1398 -0.0253
  236MOL0     O31028   0.922  -0.128   4.027  0.3971  0.0236 -0.2128
  236MOL0     C31029   0.897  -0.242   4.105 -0.3319  0.5663 -0.0308
  236MOL0     C31030   0.952  -0.370   4.026 -0.1090 -0.2189 -0.1583
  236MOL0     C31031   0.937  -0.504   4.092 -0.7144  0.2327  0.4853
  236MOL0     C31032   0.787  -0.532   4.125  0.6129 -0.0637  0.1532
  236MOL0     C31033   0.761  -0.670   4.178 -0.8743 -0.3044 -0.5341
  236MOL0     C31034   0.648  -0.679   4.255 -0.8100  0.1991  0.3424
  236MOL0     C31035   0.617  -0.813   4.315 -0.0986  0.7064 -0.1289
  236MOL0     C31036   0.694  -0.819   4.451  0.8804  0.7778 -0.0708
  236MOL0     N31037   0.718  -0.956   4.492 -1.2068  0.6616 -0.1079
  236MOL0     C31038   0.829  -1.032   4.447 -0.0806 -0.2189  0.2803
  236MOL0     C31039   0.815  -1.144   4.523 -0.5556  0.7324 -0.4149
  236MOL0     C31040   0.922  -1.245   4.522  0.5865  0.0157  0.3842
  236MOL0     C31041   0.896  -1.336   4.387  0.9822 -0.9665  0.0079
  236MOL0     C31042   1.006  -1.438   4.366 -0.2701  0.3332  0.8119
  236MOL0     C31043   1.010  -1.564   4.447  0.1019 -0.3613 -0.1390
  236MOL0     O31044   0.897  -1.644   4.416  0.4203  0.3804  0.1489
  236MOL0     C31045   0.906  -1.745   4.317  0.3946  0.1986 -0.5173
  236MOL0     C31046   0.813  -1.848   4.319 -0.2748 -0.0622 -0.4903
  236MOL0     C31047   0.824  -1.967   4.233  0.3460 -0.1401 -0.6452
  236MOL0     C31048   0.927  -1.966   4.137  0.8975  0.2322  0.4096
  236MOL0     C31049   0.958  -2.096   4.079  0.7452  0.8939 -0.9169
  236MOL0     O31050   1.057  -2.094   3.982 -0.1603 -0.2314 -0.5527
  236MOL0     C31051   1.121  -2.206   3.933 -0.3591 -0.4907 -0.4269
  236MOL0     C31052   1.045  -2.303   3.885  0.3139 -0.2618  0.3608
  236MOL0     C31053   1.108  -2.425   3.831  0.4384 -0.0017  0.0279
  236MOL0     C31054   1.246  -2.441   3.848 -0.5891  0.5668 -0.1353
  236MOL0     O31055   1.302  -2.560   3.808 -0.5421 -0.2447 -0.0270
  236MOL0     C31056   1.423  -2.614   3.858 -0.5084 -0.5695  0.2781
  236MOL0     C31057   1.534  -2.601   3.756  0.0205 -0.1032  0.2206
  236MOL0     C31058   1.662  -2.678   3.786 -0.5954 -0.1237  0.3027
  236MOL0     C31059   1.775  -2.656   3.681  0.4482  0.1601 -0.0143
  236MOL0     C31060   1.854  -2.522   3.713  0.8029  0.5398  0.5887
  236MOL0     C31061   2.002  -2.519   3.673  0.6172  0.2490  0.3559
  236MOL0     C31062   2.045  -2.556   3.534  0.2546 -0.0007  0.4973
  236MOL0     C31063   2.182  -2.611   3.528 -0.4584 -0.2713 -0.3439
  236MOL0    Cl31064   2.305  -2.489   3.567 -0.3481 -0.6147 -0.2938
  236MOL0     C31065   1.319  -2.329   3.898 -0.7108  1.2480 -0.3198
  236MOL0     C31066   1.260  -2.222   3.942 -0.0975 -0.6482 -1.4305
  236MOL0     O31067   0.907  -2.195   4.125  0.6313 -0.2269  0.1736
  236MOL0     C31068   1.011  -1.856   4.124  0.6922 -0.0477  0.3193
  236MOL0     C31069   0.994  -1.746   4.209 -0.1523 -0.0532  0.1920
  236MOL0     N31070   0.703  -1.147   4.604  0.0457 -0.0855 -0.3260
  236MOL0     N31071   0.641  -1.038   4.575 -0.4642  0.3791  0.4974
  236MOL0     C31072   0.878   0.120   3.986 -0.3637  0.6150 -0.0750
  236MOL0     C31073   0.822   0.242   4.012  0.1087 -0.5684  0.4295
  236MOL0     C31074   0.628   0.544   4.324  0.7332  0.4615 -0.6831
  236MOL0     C31075   0.555   0.593   4.220  0.1333 -0.3233 -0.0265
  236MOL0     C31076   0.496   0.721   4.228 -0.3879 -0.1118 -0.1573
  236MOL0     C31077   0.487   0.783   4.350 -0.1881 -1.2147 -0.9434
  236MOL0     O31078   0.438   0.910   4.348  0.3118 -0.1834 -0.8748
  236MOL0     C31079   0.420   0.981   4.471  0.6512 -0.7123 -0.7612
  236MOL0     C31080   0.267   0.981   4.500 -0.2481  0.3378 -0.0014
  236MOL0     C31081   0.230   1.091   4.601  0.6570  0.7651  0.0813
  236MOL0     C31082   0.091   1.075   4.672  0.1265 -0.4292 -0.0424
  236MOL0     C31083   0.095   1.190   4.768 -0.0439 -0.0354 -1.5101
  236MOL0     C31084   0.110   1.278   4.842  0.2939  0.1943 -0.8629
  236MOL0     C31085   0.548   0.721   4.459 -0.9523 -0.2774  0.1079
  236MOL0     C31086   0.619   0.603   4.447 -0.2078  0.0295 -1.2643
  236MOL0     H31087   0.655   0.134   4.294 -0.4150 -3.8197 -1.2032
  236MOL0     H31088   0.732  -0.070   4.233 -1.6842 -0.8225 -1.7763
  236MOL0     H31089   0.790  -0.261   4.116 -0.3274  0.2228 -0.5330
  236MOL0     H31090   0.955  -0.227   4.197  1.2493  1.2107 -1.0887
  236MOL0     H31091   1.057  -0.354   4.003 -0.1241 -0.4245 -0.3747
  236MOL0     H31092   0.916  -0.376   3.923 -0.8845  0.5856  0.0487
  236MOL0     H31093   1.001  -0.514   4.180  0.5118  1.7047 -0.2005
  236MOL0     H31094   0.987  -0.576   4.026 -1.1538 -0.4662  0.8976
  236MOL0     H31095   0.763  -0.464   4.207 -1.9110  1.0127 -1.3288
  236MOL0     H31096   0.716  -0.500   4.048  1.3314  0.5512 -0.2672
  236MOL0     H31097   0.851  -0.711   4.224 -1.5236 -1.6377 -0.3858
  236MOL0     H31098   0.746  -0.729   4.086  0.6406  2.2537 -2.5445
  236MOL0     H31099   0.566  -0.648   4.191  0.1365  0.9265 -0.5554
  236MOL0     H31100   0.652  -0.616   4.345  1.5265  0.9421 -0.2145
  236MOL0     H31101   0.510  -0.837   4.317  1.0987 -7.0746 -1.1189
  236MOL0     H31102   0.654  -0.895   4.253 -1.0562 -0.6994  1.0908
  236MOL0     H31103   0.634  -0.767   4.526 -0.2038  1.9983 -1.7247
  236MOL0     H31104   0.795  -0.779   4.444  1.3437 -0.4435 -0.6118
  236MOL0     H31105   0.913  -0.997   4.388 -0.5327  2.0540  0.8869
  236MOL0     H31106   0.925  -1.306   4.613  0.2613 -2.0815 -0.9410
  236MOL0     H31107   1.018  -1.192   4.515  0.6442 -0.0457  0.6807
  236MOL0     H31108   0.884  -1.262   4.308 -0.3856  2.2036  2.9072
  236MOL0     H31109   0.802  -1.391   4.395  1.0394 -0.8577  2.0865
  236MOL0     H31110   1.018  -1.459   4.260 -4.3002  0.9755  0.0636
  236MOL0     H31111   1.101  -1.388   4.386 -0.0384 -0.2249  1.1256
  236MOL0     H31112   1.003  -1.536   4.552  0.9351  0.9477 -0.4169
  236MOL0     H31113   1.108  -1.612   4.438 -0.5826 -2.0366  0.7322
  236MOL0     H31114   0.744  -1.840   4.403  0.8527 -0.1400  0.4757
  236MOL0     H31115   0.750  -2.044   4.250 -2.5908  2.2578 -1.6515
  236MOL0     H31116   0.938  -2.285   3.874  0.6987  0.7379 -2.2564
  236MOL0     H31117   1.046  -2.509   3.801  0.7435  1.0476 -4.0544
  236MOL0     H31118   1.406  -2.721   3.878 -2.2474 -1.0226 -2.9292
  236MOL0     H31119   1.454  -2.565   3.951  0.0733  1.5862 -0.9834
  236MOL0     H31120   1.543  -2.493   3.739  0.4258 -0.2976 -0.9251
  236MOL0     H31121   1.503  -2.644   3.660  1.7677 -1.1689  0.0909
  236MOL0     H31122   1.648  -2.787   3.784  0.4449 -0.2611 -1.0272
  236MOL0     H31123   1.703  -2.650   3.883 -0.1430  1.8403 -0.4089
  236MOL0     H31124   1.845  -2.740   3.682  1.5000  1.0026  0.9695
  236MOL0     H31125   1.732  -2.648   3.581 -0.5127  2.0203  0.4880
  236MOL0     H31126   1.840  -2.495   3.818 -0.7859  1.0722  0.2765
  236MOL0     H31127   1.812  -2.441   3.652  2.3779  0.8857 -0.0813
  236MOL0     H31128   2.046  -2.593   3.741 -1.8226 -3.3490 -1.6408
  236MOL0     H31129   2.029  -2.414   3.687  0.7457  0.5011 -1.5643
  236MOL0     H31130   1.976  -2.633   3.498 -2.8831  1.7783  2.2235
  236MOL0     H31131   2.035  -2.474   3.461  0.8545  1.1287  1.6372
  236MOL0     H31132   2.200  -2.640   3.424  3.4649  1.2868 -0.2572
  236MOL0     H31133   2.192  -2.699   3.591  2.5325  1.9702  2.6468
  236MOL0     H31134   1.423  -2.349   3.922 -1.4297 -0.6437  1.6763
  236MOL0     H31135   1.310  -2.143   3.997 -1.9497 -0.5733  0.2506
  236MOL0     H31136   1.094  -1.862   4.055 -0.0109 -1.1629 -0.4623
  236MOL0     H31137   1.067  -1.669   4.186 -0.3497 -0.1270 -0.7081
  236MOL0     H31138   0.942   0.125   3.898 -0.5987  1.3787 -0.2075
  236MOL0     H31139   0.842   0.317   3.936  0.5743 -1.5058 -0.3857
  236MOL0     H31140   0.530   0.547   4.125 -1.6315 -1.4936  0.9495
  236MOL0     H31141   0.444   0.779   4.153  2.0482  1.1829 -0.9644
  236MOL0     H31142   0.436   1.088   4.454  0.6100 -0.2195  1.7894
  236MOL0     H31143   0.476   0.946   4.558  0.0977 -0.7401 -0.4128
  236MOL0     H31144   0.216   0.996   4.404  1.0611  0.9679 -0.6191
  236MOL0     H31145   0.243   0.883   4.542 -1.0449 -0.0874 -1.3650
  236MOL0     H31146   0.251   1.185   4.549 -1.6398  1.0255 -0.4880
  236MOL0     H31147   0.311   1.078   4.674  2.1928 -0.6801 -1.7804
  236MOL0     H31148   0.023   1.075   4.586  3.7801  1.4800 -3.2691
  236MOL0     H31149   0.077   0.985   4.732  1.5471 -0.9118 -0.4163
  236MOL0     H31150   0.128   1.368   4.897 -1.5124  0.3580 -0.4753
  236MOL0     H31151   0.547   0.753   4.563 -3.5054 -1.3100  0.4820
  236MOL0     H31152   0.682   0.576   4.532  0.4068  0.7339 -1.4775
  237MOL0     O31153   1.393   0.023   4.407 -0.3931 -0.2918  0.5506
  237MOL0     C31154   1.444  -0.078   4.461 -0.1374 -0.1744 -0.4352
  237MOL0     O31155   1.523  -0.081   4.569 -0.1159  0.3297 -0.1970
  237MOL0     C31156   1.583   0.024   4.627  0.0460  0.2336 -0.4130
  237MOL0     C31157   1.509   0.141   4.643 -0.3175 -0.0573 -0.9898
  237MOL0     C31158   1.567   0.244   4.709  0.0673 -0.3550  0.7092
  237MOL0     C31159   1.700   0.239   4.755 -0.1677  0.1951  0.8067
  237MOL0     O31160   1.742   0.352   4.806 -0.8338 -0.0374  0.0354
  237MOL0     C31161   1.880   0.372   4.860 -0.1056  0.4527  0.5295
  237MOL0     C31162   1.911   0.521   4.861 -0.1738 -0.2787  0.2537
  237MOL0     C31163   2.057   0.538   4.915  0.1204  0.9222  0.2615
  237MOL0     C31164   2.112   0.671   4.885  0.4237  0.3015 -0.4480
  237MOL0     C31165   2.049   0.787   4.974  0.4735 -0.4285  0.2363
  237MOL0     C31166   2.072   0.773   5.126  0.2327  0.1358 -0.8064
  237MOL0     C31167   2.122   0.914   5.171 -0.5309 -0.1197  0.4249
  237MOL0     C31168   2.272   0.950   5.135 -0.3941  0.1845  0.1127
  237MOL0     N31169   2.291   1.096   5.153 -0.3435 -0.1351 -0.1817
  237MOL0     C31170   2.264   1.165   5.277  0.5235  0.2497  0.3015
  237MOL0     C31171   2.302   1.290   5.253  0.5713  0.5601  0.7796
  237MOL0     C31172   2.292   1.408   5.345  0.5024 -0.6819 -0.5942
  237MOL0     C31173   2.244   1.544   5.287  0.6259 -0.1436 -0.0065
  237MOL0     C31174   2.246   1.677   5.369  0.3024  1.0825 -0.3431
  237MOL0     C31175   2.189   1.666   5.512  0.4339 -0.7462 -0.4528
  237MOL0     O31176   2.047   1.617   5.505 -1.3685 -0.9052 -0.5576
  237MOL0     C31177   2.023   1.495   5.566  0.3849 -0.4380  0.2510
  237MOL0     C31178   2.062   1.473   5.697  0.0971 -0.2543 -0.2665
  237MOL0     C31179   2.059   1.351   5.758  0.1130 -0.0462 -0.6085
  237MOL0     C31180   2.002   1.239   5.690 -0.4843 -1.3766 -0.0942
  237MOL0     C31181   1.993   1.106   5.745 -1.3435  0.1256 -0.1653
  237MOL0     O31182   1.905   1.090   5.841  0.5745  1.0154 -0.0863
  237MOL0     C31183   1.868   0.963   5.884 -0.2050  0.1755  0.0644
  237MOL0     C31184   1.799   0.884   5.796 -0.6164  0.0666  0.0654
  237MOL0     C31185   1.782   0.748   5.836  0.7574 -0.9420  1.3948
  237MOL0     C31186   1.841   0.693   5.950 -1.3781  0.7702 -0.1364
  237MOL0     O31187   1.847   0.559   5.987 -0.6262  0.4974  0.0222
  237MOL0     C31188   1.874   0.454   5.889 -0.4451  0.2802  0.2426
  237MOL0     C31189   1.971   0.349   5.938  0.2773  0.3471  1.0645
  237MOL0     C31190   2.088   0.397   6.008 -0.1288  0.0338  0.7758
  237MOL0     C31191   2.184   0.491   5.934 -0.2745  0.5747 -0.6115
  237MOL0     C31192   2.272   0.572   6.030  0.4911  0.0967  1.0092
  237MOL0     C31193   2.371   0.664   5.966 -0.3246 -0.9493 -0.7377
  237MOL0     C31194   2.456   0.607   5.857  0.3853 -1.7366 -0.3761
  237MOL0     C31195   2.574   0.693   5.809 -0.1354 -0.5768 -0.2719
  237MOL0    Cl31196   2.668   0.608   5.682  0.0747 -0.0367 -0.2318
  237MOL0     C31197   1.903   0.769   6.042  0.5332 -0.3275 -0.5824
  237MOL0     C31198   1.913   0.911   6.012  0.3969  0.3174  0.3834
  237MOL0     O31199   2.073   1.023   5.704  0.0835  0.1020 -0.5154
  237MOL0     C31200   1.958   1.263   5.559  0.5594  0.0199  0.1579
  237MOL0     C31201   1.965   1.388   5.505 -0.1928  0.7296  0.2585
  237MOL0     N31202   2.367   1.297   5.127 -0.1072 -0.0993 -0.5198
  237MOL0     N31203   2.359   1.178   5.067 -0.1134  0.2518 -0.1046
  237MOL0     C31204   1.770   0.118   4.749  0.1677  0.5999 -0.1173
  237MOL0     C31205   1.711   0.009   4.686  0.3538 -0.9119 -0.4134
  237MOL0     C31206   1.387  -0.206   4.429  0.9267 -0.1628  0.5930
  237MOL0     C31207   1.279  -0.217   4.338 -0.2344  0.0580  0.6585
  237MOL0     C31208   1.227  -0.348   4.317 -0.5360  1.2008 -0.0785
  237MOL0     C31209   1.286  -0.463   4.379  0.4087 -0.0690 -0.0998
  237MOL0     O31210   1.228  -0.589   4.354 -0.0180  0.1248 -0.3706
  237MOL0     C31211   1.281  -0.698   4.431  0.4198 -0.3776  0.0413
  237MOL0     C31212   1.185  -0.819   4.426  0.2045 -0.2463  0.2912
  237MOL0     C31213   1.219  -0.953   4.496 -0.4591  0.2725 -0.7642
  237MOL0     C31214   1.322  -1.037   4.421 -0.3129  0.0395  1.0284
  237MOL0     C31215   1.285  -1.094   4.294 -0.1864  1.6952  0.0237
  237MOL0     C31216   1.252  -1.139   4.186 -0.6165 -0.1089 -0.0108
  237MOL0     C31217   1.390  -0.448   4.462 -0.7745 -0.5523  0.3152
  237MOL0     C31218   1.446  -0.320   4.485  0.5598  0.7450 -0.1520
  237MOL0     H31219   1.405   0.149   4.611 -0.2985 -1.3545 -1.4259
  237MOL0     H31220   1.521   0.342   4.717 -1.0978 -0.7897 -0.3525
  237MOL0     H31221   1.958   0.336   4.792 -0.0352  1.6839 -0.0611
  237MOL0     H31222   1.901   0.318   4.953  1.0973 -1.3116 -0.6890
  237MOL0     H31223   1.841   0.572   4.928  0.6686  1.7129 -0.2917
  237MOL0     H31224   1.917   0.560   4.759  1.4426 -2.2059 -0.4607
  237MOL0     H31225   2.114   0.456   4.872  1.4010  1.9589 -0.0764
  237MOL0     H31226   2.066   0.529   5.024  2.8295  2.1466  0.2283
  237MOL0     H31227   2.222   0.668   4.886  0.4196 -2.9022  0.0027
  237MOL0     H31228   2.092   0.692   4.779 -0.3005 -0.2141 -0.4161
  237MOL0     H31229   1.941   0.783   4.957  0.4765 -3.2389  0.3242
  237MOL0     H31230   2.071   0.889   4.942 -1.5687  0.5476  1.7242
  237MOL0     H31231   2.144   0.695   5.152 -1.1527 -0.2556  2.2994
  237MOL0     H31232   1.978   0.745   5.175  1.0368  0.7186  1.1485
  237MOL0     H31233   2.053   0.996   5.148  1.6270  1.7283  0.1023
  237MOL0     H31234   2.123   0.910   5.280 -1.4453 -1.5814  0.4027
  237MOL0     H31235   2.303   0.922   5.035  1.2819 -0.5088  0.7985
  237MOL0     H31236   2.337   0.884   5.193 -0.6043 -2.0874 -2.0284
  237MOL0     H31237   2.213   1.139   5.369 -0.7058  1.5189  0.0184
  237MOL0     H31238   2.390   1.416   5.393  0.3965  0.0800 -0.4997
  237MOL0     H31239   2.217   1.386   5.422  0.6871  1.0421  0.1168
  237MOL0     H31240   2.148   1.519   5.242  1.6601 -2.5935 -1.0354
  237MOL0     H31241   2.315   1.566   5.206 -1.4988  0.2659 -1.8428
  237MOL0     H31242   2.351   1.703   5.384  0.8173 -0.4510 -1.0850
  237MOL0     H31243   2.193   1.758   5.317  4.6731  3.6377 -1.3430
  237MOL0     H31244   2.186   1.763   5.562  2.8584 -1.1941  0.6797
  237MOL0     H31245   2.254   1.604   5.573 -2.5711 -1.8701  1.8645
  237MOL0     H31246   2.094   1.558   5.756  2.9027  0.2891 -2.3629
  237MOL0     H31247   2.102   1.335   5.856 -0.1042  0.8696 -0.3489
  237MOL0     H31248   1.764   0.917   5.698 -1.5078  0.7807  0.6089
  237MOL0     H31249   1.727   0.681   5.770  0.6473  0.4248  0.0538
  237MOL0     H31250   1.908   0.511   5.802 -0.2438  2.5703  1.7592
  237MOL0     H31251   1.780   0.408   5.857 -0.9584  0.7282  1.0927
  237MOL0     H31252   1.995   0.278   5.858  0.4255 -0.1746  1.5673
  237MOL0     H31253   1.922   0.280   6.007  2.5050  1.1613  3.6068
  237MOL0     H31254   2.147   0.313   6.046 -0.3474  0.2887  1.7111
  237MOL0     H31255   2.054   0.454   6.095 -5.3601  1.4079 -1.7382
  237MOL0     H31256   2.247   0.438   5.862  2.3626 -1.8109  3.0935
  237MOL0     H31257   2.124   0.568   5.884 -0.5959 -1.4205 -3.6003
  237MOL0     H31258   2.326   0.498   6.089  0.7319 -1.9187 -1.5408
  237MOL0     H31259   2.209   0.622   6.104  2.7948 -1.1957  4.0459
  237MOL0     H31260   2.440   0.702   6.042  1.6296 -3.4507 -1.1131
  237MOL0     H31261   2.316   0.749   5.925  1.4290  2.2653  2.8963
  237MOL0     H31262   2.487   0.510   5.898 -4.7024 -3.1527  0.9807
  237MOL0     H31263   2.392   0.586   5.770  3.4071 -0.1622 -3.1946
  237MOL0     H31264   2.644   0.711   5.890  1.7259 -0.5374 -1.8168
  237MOL0     H31265   2.530   0.787   5.775  1.1128  0.2700  0.3912
  237MOL0     H31266   1.950   0.726   6.130  0.2349  0.3703 -0.0786
  237MOL0     H31267   1.955   0.980   6.085 -1.4536  2.4029 -0.3871
  237MOL0     H31268   1.903   1.191   5.499  0.8402  0.9737 -1.3161
  237MOL0     H31269   1.938   1.382   5.400 -0.3475 -1.4307  0.3671
  237MOL0     H31270   1.867   0.113   4.796 -1.1956  2.9147  3.3854
  237MOL0     H31271   1.762  -0.087   4.684  0.9186 -0.7372  2.2635
  237MOL0     H31272   1.231  -0.136   4.284  1.5408 -0.2308 -1.5484
  237MOL0     H31273   1.151  -0.369   4.243  3.2245 -0.1968 -3.9917
  237MOL0     H31274   1.300  -0.660   4.532 -3.0945 -0.6746  0.9304
  237MOL0     H31275   1.374  -0.741   4.392  0.5924  0.0214  0.0048
  237MOL0     H31276   1.093  -0.778   4.469 -1.3984 -1.4083 -1.9010
  237MOL0     H31277   1.158  -0.838   4.322  0.9319  2.2887 -0.4342
  237MOL0     H31278   1.124  -1.006   4.511 -0.4849  0.1456 -1.3702
  237MOL0     H31279   1.264  -0.934   4.594 -0.8035 -0.4365 -0.4608
  237MOL0     H31280   1.424  -0.998   4.425  0.1226 -0.3461 -2.6181
  237MOL0     H31281   1.330  -1.128   4.481 -0.3746  0.3163  1.4668
  237MOL0     H31282   1.206  -1.173   4.096  1.9761 -1.5172 -0.9012
  237MOL0     H31283   1.443  -0.522   4.521  4.0537  3.2273  1.3971
  237MOL0     H31284   1.538  -0.313   4.543  0.4960 -0.9283  0.2184
  238MOL0     O31285   4.400   4.478   5.380  0.4594  0.5814  0.0978
  238MOL0     C31286   4.503   4.539   5.345 -0.2304 -0.1330  0.7268
  238MOL0     O31287   4.541   4.659   5.388 -0.4389 -0.6632 -0.4467
  238MOL0     C31288   4.458   4.745   5.452  0.8611 -0.4348  0.5590
  238MOL0     C31289   4.317   4.744   5.442  0.2848  0.3423 -0.9115
  238MOL0     C31290   4.242   4.837   5.518 -0.0309 -0.3676  0.4256
  238MOL0     C31291   4.311   4.936   5.591  0.9105 -0.4223 -0.1642
  238MOL0     O31292   4.239   5.048   5.639  0.2474 -0.1110  0.3063
  238MOL0     C31293   4.115   5.088   5.588  0.3673 -0.5543 -1.6931
  238MOL0     C31294   4.078   5.230   5.640  0.4067 -0.4972 -0.4398
  238MOL0     C31295   4.067   5.253   5.797 -0.7775  0.5475 -0.9849
  238MOL0     C31296   4.039   5.397   5.846  0.1766 -0.7633 -0.7840
  238MOL0     C31297   4.174   5.471   5.875  1.3563 -0.6343  0.2798
  238MOL0     C31298   4.204   5.565   5.754  0.8441  0.3207 -0.3675
  238MOL0     C31299   4.345   5.615   5.765  0.0880 -0.3513 -0.5968
  238MOL0     C31300   4.351   5.749   5.688  0.4173 -0.8736  0.9632
  238MOL0     N31301   4.480   5.818   5.686 -0.5417  0.2376 -0.0881
  238MOL0     C31302   4.600   5.758   5.697  0.1888 -0.1606 -0.2434
  238MOL0     C31303   4.690   5.859   5.656 -0.4263 -0.0482 -0.3425
  238MOL0     C31304   4.835   5.855   5.639  0.3471  1.1633 -0.1159
  238MOL0     C31305   4.865   5.814   5.498 -0.4459  0.5237  0.2568
  238MOL0     C31306   5.011   5.848   5.475 -0.0677  0.0243  0.0444
  238MOL0     C31307   5.049   5.869   5.323  0.3396  0.8605 -0.3280
  238MOL0     O31308   4.981   5.775   5.240 -0.2215 -0.1722 -1.1003
  238MOL0     C31309   5.055   5.720   5.135 -0.2838 -0.0456 -0.0859
  238MOL0     C31310   5.036   5.775   5.007 -0.0012  0.9722  0.0280
  238MOL0     C31311   5.092   5.719   4.895  0.8848  0.9553  0.6475
  238MOL0     C31312   5.178   5.609   4.913 -0.1937  0.6947 -0.6462
  238MOL0     C31313   5.256   5.551   4.797 -0.4704  0.0503  0.5189
  238MOL0     O31314   5.332   5.440   4.814 -0.0582  0.1083 -0.7979
  238MOL0     C31315   5.429   5.395   4.726  0.1809  0.4326  0.6323
  238MOL0     C31316   5.540   5.344   4.784 -0.7096  0.0921 -0.0739
  238MOL0     C31317   5.640   5.286   4.708 -0.2985 -0.2428  0.3117
  238MOL0     C31318   5.635   5.279   4.564  0.1905  0.1164  0.9477
  238MOL0     O31319   5.729   5.218   4.492  0.3573  0.7770  0.3591
  238MOL0     C31320   5.868   5.238   4.526 -1.1783 -0.1325 -0.5512
  238MOL0     C31321   5.949   5.251   4.403 -2.0053  0.4688 -0.2631
  238MOL0     C31322   6.102   5.271   4.433  0.6383  0.6697  0.3062
  238MOL0     C31323   6.174   5.161   4.512 -0.7891 -0.4851  0.5993
  238MOL0     C31324   6.268   5.083   4.423  0.0513  0.8080 -0.2922
  238MOL0     C31325   6.198   4.988   4.323  1.5777  0.1119 -0.2082
  238MOL0     C31326   6.300   4.915   4.247  1.3580  0.2238 -0.7794
  238MOL0     C31327   6.231   4.803   4.167 -0.2237 -0.6602 -0.3680
  238MOL0    Cl31328   6.128   4.675   4.256 -0.6260 -0.4030  0.2220
  238MOL0     C31329   5.517   5.322   4.503 -0.1191  0.6556  0.4216
  238MOL0     C31330   5.417   5.383   4.581 -0.2279 -1.5042  0.0770
  238MOL0     O31331   5.255   5.609   4.688 -0.2443 -0.5366  0.1540
  238MOL0     C31332   5.192   5.557   5.038  0.1479  1.1641  0.1233
  238MOL0     C31333   5.134   5.609   5.152 -0.2757 -0.2320 -0.2582
  238MOL0     N31334   4.619   5.976   5.624 -1.0705 -0.0992 -0.1203
  238MOL0     N31335   4.492   5.941   5.644 -0.1789 -0.2748  0.4912
  238MOL0     C31336   4.455   4.934   5.608  0.4960 -0.5210 -0.2719
  238MOL0     C31337   4.523   4.830   5.538 -0.0800 -0.5451  0.5256
  238MOL0     C31338   4.588   4.461   5.247 -0.2345  0.2442  0.7698
  238MOL0     C31339   4.530   4.364   5.161 -0.1237  0.5358 -0.6164
  238MOL0     C31340   4.606   4.289   5.064  0.2314 -0.2956 -0.3269
  238MOL0     C31341   4.742   4.304   5.049  1.4369 -0.3971 -0.2971
  238MOL0     O31342   4.799   4.233   4.943  0.6097  0.1927 -0.0914
  238MOL0     C31343   4.938   4.243   4.910  0.4030  0.4625 -0.1148
  238MOL0     C31344   4.963   4.173   4.778 -0.3799  0.5655  1.0005
  238MOL0     C31345   4.899   4.029   4.758 -1.0939  0.1739  0.3205
  238MOL0     C31346   4.950   3.911   4.846 -0.1539  0.3325  0.8233
  238MOL0     C31347   4.892   3.787   4.785 -0.3108 -1.1177 -0.2800
  238MOL0     C31348   4.863   3.685   4.731 -0.7065 -1.0001  0.3982
  238MOL0     C31349   4.802   4.390   5.140  0.6092  0.1076 -0.4274
  238MOL0     C31350   4.732   4.464   5.237  0.1489  0.2261  0.4686
  238MOL0     H31351   4.266   4.682   5.369 -0.3660  0.1816 -0.3346
  238MOL0     H31352   4.134   4.844   5.506 -0.5705  1.3733  4.7475
  238MOL0     H31353   4.046   5.012   5.627  1.1828  0.6124  2.6149
  238MOL0     H31354   4.125   5.089   5.479  0.3025 -1.3059 -1.7117
  238MOL0     H31355   3.988   5.266   5.590  1.3630 -0.8043 -2.4960
  238MOL0     H31356   4.158   5.298   5.608  1.9914 -0.3635  3.3230
  238MOL0     H31357   4.151   5.207   5.850 -0.6364 -3.2853 -4.0760
  238MOL0     H31358   3.971   5.210   5.828 -2.3552  2.8420 -2.3745
  238MOL0     H31359   3.971   5.452   5.780  0.4856 -1.8482 -2.0429
  238MOL0     H31360   4.004   5.383   5.949 -0.9442 -0.4974 -1.1155
  238MOL0     H31361   4.251   5.397   5.899  2.1182  0.5892  1.7786
  238MOL0     H31362   4.160   5.529   5.967 -2.3918 -1.6922  0.5843
  238MOL0     H31363   4.133   5.648   5.748  0.9955  0.4758 -0.0626
  238MOL0     H31364   4.187   5.506   5.664 -0.2933 -0.4975  0.3498
  238MOL0     H31365   4.350   5.630   5.873  0.3305  0.1119 -0.6718
  238MOL0     H31366   4.416   5.536   5.737 -0.7561 -1.9127  1.3621
  238MOL0     H31367   4.285   5.822   5.734  1.3530  1.8216 -1.6387
  238MOL0     H31368   4.315   5.732   5.586  1.8082 -4.5614  0.9226
  238MOL0     H31369   4.609   5.655   5.727  1.4806 -0.1692 -0.6225
  238MOL0     H31370   4.893   5.785   5.700 -2.4988 -1.8028 -0.5417
  238MOL0     H31371   4.868   5.954   5.674  0.9152  0.7851  0.4519
  238MOL0     H31372   4.802   5.864   5.424 -3.0484  1.1068  2.6720
  238MOL0     H31373   4.846   5.706   5.493 -0.6447  0.6274 -2.9411
  238MOL0     H31374   5.054   5.934   5.527  0.7054  1.6919 -3.1143
  238MOL0     H31375   5.070   5.766   5.518 -0.8827 -0.9186 -0.5855
  238MOL0     H31376   5.154   5.846   5.304 -0.0449  0.2551 -1.8371
  238MOL0     H31377   5.029   5.972   5.292  0.3697  0.9189 -0.1548
  238MOL0     H31378   4.979   5.867   5.012 -0.2441  0.7677  3.1194
  238MOL0     H31379   5.066   5.758   4.797 -1.5783 -3.1256 -0.5763
  238MOL0     H31380   5.554   5.346   4.892  2.6467 -2.2356 -0.3161
  238MOL0     H31381   5.729   5.247   4.756  2.2020  0.8155 -3.0711
  238MOL0     H31382   5.893   5.152   4.589  2.9868  0.3106 -1.3236
  238MOL0     H31383   5.879   5.324   4.593 -3.8907  1.3081 -1.8035
  238MOL0     H31384   5.920   5.332   4.335  0.6229  1.8138  0.1038
  238MOL0     H31385   5.949   5.158   4.345  1.6982  1.7353 -2.6926
  238MOL0     H31386   6.112   5.366   4.487 -0.9463  0.4447  1.0710
  238MOL0     H31387   6.156   5.272   4.338  3.4735 -3.3785  1.6317
  238MOL0     H31388   6.231   5.204   4.595  0.3749 -0.3086 -0.2659
  238MOL0     H31389   6.102   5.098   4.565 -0.8750 -1.0862 -0.2087
  238MOL0     H31390   6.321   5.015   4.491  1.8153  1.7857 -0.6433
  238MOL0     H31391   6.352   5.143   4.388  0.9636  1.3973  2.6745
  238MOL0     H31392   6.136   5.045   4.252  0.2622 -0.3790  0.5057
  238MOL0     H31393   6.125   4.919   4.367  2.9595 -1.0077  0.4178
  238MOL0     H31394   6.351   4.989   4.185 -1.7916  1.4278 -2.1288
  238MOL0     H31395   6.373   4.877   4.319  0.5439  1.9859  1.0907
  238MOL0     H31396   6.314   4.748   4.121  0.3860 -2.5691  2.7727
  238MOL0     H31397   6.172   4.861   4.095  4.1935  1.2082 -2.9003
  238MOL0     H31398   5.519   5.318   4.395  1.9930 -1.3382  0.4567
  238MOL0     H31399   5.338   5.437   4.531 -0.7662 -0.2230  2.1598
  238MOL0     H31400   5.261   5.474   5.047 -0.1329  0.8982 -0.1278
  238MOL0     H31401   5.157   5.555   5.244  0.5513  0.2616 -0.1623
  238MOL0     H31402   4.505   5.002   5.677 -0.2874  1.2095 -1.3184
  238MOL0     H31403   4.632   4.835   5.537 -0.0512 -1.1373 -0.6212
  238MOL0     H31404   4.424   4.341   5.159 -0.8943  3.3842  1.5128
  238MOL0     H31405   4.546   4.219   5.007 -0.2962  1.9572 -2.6816
  238MOL0     H31406   5.002   4.195   4.985 -0.8766 -1.8855 -0.4148
  238MOL0     H31407   4.972   4.347   4.915  0.9133  0.2587  1.3144
  238MOL0     H31408   4.937   4.233   4.690  3.3563 -1.1746 -1.5909
  238MOL0     H31409   5.068   4.157   4.753 -0.6337 -0.7356  0.6983
  238MOL0     H31410   4.914   4.006   4.653  2.0008  2.2932  0.1823
  238MOL0     H31411   4.791   4.038   4.777 -0.8919  1.6812  0.9159
  238MOL0     H31412   5.056   3.914   4.818 -0.1285  0.4402  0.9305
  238MOL0     H31413   4.936   3.928   4.953  2.2304  0.7181  1.1427
  238MOL0     H31414   4.846   3.592   4.680  0.5123  0.3520 -2.6762
  238MOL0     H31415   4.908   4.411   5.149  0.4587 -0.0150  2.5578
  238MOL0     H31416   4.795   4.522   5.304  1.7237 -1.5638  0.6183
  239MOL0     O31417   5.651   4.286   3.231 -0.3652 -0.0811  0.7653
  239MOL0     C31418   5.591   4.176   3.222 -0.4926  0.5640  0.1333
  239MOL0     O31419   5.618   4.061   3.297 -0.2171 -0.6772  0.1496
  239MOL0     C31420   5.711   4.056   3.396 -0.1273  0.4815 -1.4917
  239MOL0     C31421   5.829   4.128   3.391 -0.0819  0.6735 -0.2044
  239MOL0     C31422   5.913   4.138   3.502  0.1501  0.3689 -0.3348
  239MOL0     C31423   5.881   4.060   3.610 -0.1602 -0.3984 -0.5497
  239MOL0     O31424   5.963   4.025   3.719 -0.4237 -0.0624  0.7639
  239MOL0     C31425   6.049   4.128   3.771 -1.1556 -0.5064  0.4296
  239MOL0     C31426   6.084   4.073   3.916 -0.2760 -0.5199  0.0457
  239MOL0     C31427   6.166   4.154   4.019  0.3921 -0.1638  0.3126
  239MOL0     C31428   6.189   4.071   4.148  0.4040  0.7296 -0.0934
  239MOL0     C31429   6.197   4.169   4.264 -0.6606 -0.5573 -0.4527
  239MOL0     C31430   6.296   4.293   4.249 -0.3419 -0.7439 -0.1440
  239MOL0     C31431   6.298   4.387   4.374  0.5594 -0.9932 -0.0518
  239MOL0     C31432   6.413   4.491   4.370 -0.6070  0.7011 -0.7650
  239MOL0     N31433   6.410   4.557   4.499 -0.3407 -0.6276 -0.2474
  239MOL0     C31434   6.334   4.663   4.542 -0.5940 -0.0132  0.1478
  239MOL0     C31435   6.364   4.670   4.680  1.0964  0.8018 -0.8964
  239MOL0     C31436   6.300   4.776   4.778 -0.1549  0.8753 -0.1205
  239MOL0     C31437   6.274   4.703   4.912 -0.5811  0.1721  0.2915
  239MOL0     C31438   6.188   4.575   4.914  0.0871  0.2674  0.5257
  239MOL0     C31439   6.049   4.602   4.867  0.1235  0.1201  0.0452
  239MOL0     O31440   6.033   4.594   4.724 -0.2494 -0.9775  0.1076
  239MOL0     C31441   5.987   4.470   4.679 -0.2847  0.5247  0.3713
  239MOL0     C31442   6.074   4.355   4.664  0.1722  0.5367  0.4588
  239MOL0     C31443   6.019   4.230   4.627 -0.2724  0.2183  1.2987
  239MOL0     C31444   5.890   4.221   4.572 -0.7972  1.9025  0.7094
  239MOL0     C31445   5.832   4.101   4.516 -0.5625  0.5335 -0.1430
  239MOL0     O31446   5.696   4.090   4.518  0.5554  0.3668 -0.2320
  239MOL0     C31447   5.631   3.969   4.514  0.2121 -0.0985  0.8287
  239MOL0     C31448   5.621   3.902   4.636 -0.2728 -0.5181  0.1501
  239MOL0     C31449   5.550   3.784   4.640 -0.3122 -1.3179 -0.2018
  239MOL0     C31450   5.484   3.740   4.524  0.5226 -0.3219  0.4141
  239MOL0     O31451   5.414   3.626   4.526  0.0852 -0.0370 -0.2631
  239MOL0     C31452   5.273   3.637   4.537  0.1797  0.3354 -0.0133
  239MOL0     C31453   5.220   3.502   4.585 -0.3225  0.6386 -0.0472
  239MOL0     C31454   5.269   3.458   4.725  0.2938 -0.0213 -0.2715
  239MOL0     C31455   5.211   3.314   4.765  0.0497  0.9311 -0.1717
  239MOL0     C31456   5.075   3.346   4.818 -0.8472  0.5149 -0.0057
  239MOL0     C31457   4.978   3.233   4.787  0.3881 -0.3498 -0.7685
  239MOL0     C31458   4.855   3.240   4.890  0.9145  0.3318 -0.0659
  239MOL0     C31459   4.844   3.140   4.999  0.2211 -0.2599 -0.2827
  239MOL0    Cl31460   5.005   3.125   5.090  0.0896 -0.2690 -0.3608
  239MOL0     C31461   5.491   3.815   4.407 -0.4626 -0.8235 -0.1400
  239MOL0     C31462   5.570   3.932   4.404  0.8896  0.0666  0.5238
  239MOL0     O31463   5.910   4.001   4.486 -0.1830 -0.1466 -0.2106
  239MOL0     C31464   5.808   4.328   4.590 -1.4657  0.1752 -0.0258
  239MOL0     C31465   5.844   4.452   4.643 -0.1978  0.6909  0.0131
  239MOL0     N31466   6.454   4.570   4.717 -0.0366  0.5609  0.0113
  239MOL0     N31467   6.479   4.507   4.609 -0.9177 -0.2608  0.5087
  239MOL0     C31468   5.768   3.980   3.620 -0.0874 -0.0085 -0.4628
  239MOL0     C31469   5.678   3.988   3.510 -0.0136  0.1251 -0.6998
  239MOL0     C31470   5.485   4.165   3.120 -0.0933 -0.1760  0.1936
  239MOL0     C31471   5.417   4.040   3.111  0.4334  0.3274 -0.0363
  239MOL0     C31472   5.317   4.032   3.017 -0.4655 -0.0850  0.6003
  239MOL0     C31473   5.297   4.121   2.914  0.6796  0.2499 -0.3077
  239MOL0     O31474   5.222   4.110   2.805 -0.1924  0.1076 -0.8027
  239MOL0     C31475   5.141   3.995   2.772  0.6171  0.1548 -0.0793
  239MOL0     C31476   5.005   4.001   2.851 -0.0828  0.1114 -0.2097
  239MOL0     C31477   4.948   4.131   2.884 -0.1126 -0.1419 -0.0159
  239MOL0     C31478   4.850   4.187   2.775 -0.5209 -0.0237  0.1528
  239MOL0     C31479   4.812   4.324   2.823  0.3286  0.7096  0.9476
  239MOL0     C31480   4.777   4.430   2.856  0.0829  0.0148 -0.8025
  239MOL0     C31481   5.365   4.243   2.932 -0.2509 -0.1998  0.1143
  239MOL0     C31482   5.451   4.267   3.031 -0.0422 -0.5554  0.1762
  239MOL0     H31483   5.865   4.171   3.298  0.2671  0.5555 -0.1287
  239MOL0     H31484   6.007   4.188   3.478 -0.3743  0.1252 -3.3359
  239MOL0     H31485   6.006   4.229   3.766  3.6139  1.7841 -0.1626
  239MOL0     H31486   6.136   4.149   3.708 -2.1827  4.1010  0.2086
  239MOL0     H31487   6.123   3.970   3.912  0.4267 -0.2552 -3.7545
  239MOL0     H31488   5.987   4.055   3.965 -0.6615  0.1791 -0.4523
  239MOL0     H31489   6.094   4.235   4.037 -1.4663 -1.3515 -1.3332
  239MOL0     H31490   6.259   4.193   3.977  0.0750  0.4943  0.1880
  239MOL0     H31491   6.115   3.993   4.169  0.1144  1.3094  1.0837
  239MOL0     H31492   6.289   4.028   4.140  0.8972  1.3318  2.2359
  239MOL0     H31493   6.228   4.112   4.352 -0.5833 -0.6488 -0.5397
  239MOL0     H31494   6.093   4.201   4.278 -0.2859  0.2801  0.4819
  239MOL0     H31495   6.276   4.359   4.165  3.7836 -0.4483 -1.0920
  239MOL0     H31496   6.392   4.246   4.230  0.1459  1.0359 -2.5168
  239MOL0     H31497   6.211   4.454   4.374  0.7716 -0.7206  0.4769
  239MOL0     H31498   6.310   4.329   4.466 -2.1327  0.0868  1.1039
  239MOL0     H31499   6.396   4.543   4.275  5.0654  1.7117 -1.5495
  239MOL0     H31500   6.508   4.437   4.375  0.3493  2.3009 -1.0467
  239MOL0     H31501   6.273   4.728   4.479 -0.9899 -0.5578 -0.0406
  239MOL0     H31502   6.210   4.813   4.728 -0.2372  2.0563  0.8617
  239MOL0     H31503   6.359   4.866   4.797 -1.3566  1.6916 -0.1821
  239MOL0     H31504   6.222   4.777   4.974  0.4503  0.0066  1.3861
  239MOL0     H31505   6.370   4.685   4.962 -0.4536  1.7739  0.6879
  239MOL0     H31506   6.235   4.494   4.857 -0.2087  0.4652 -0.0020
  239MOL0     H31507   6.179   4.536   5.015  1.6131  0.0663  0.6159
  239MOL0     H31508   6.008   4.699   4.898  1.0264  0.6865 -0.4776
  239MOL0     H31509   5.990   4.522   4.913 -0.2165  0.3634  0.0317
  239MOL0     H31510   6.179   4.356   4.692  0.4314 -0.1833 -0.4320
  239MOL0     H31511   6.085   4.144   4.621 -3.2394 -2.1291 -0.8178
  239MOL0     H31512   5.679   3.932   4.723 -0.1779 -3.3421  1.1768
  239MOL0     H31513   5.560   3.722   4.729 -2.8253 -1.9604 -0.2858
  239MOL0     H31514   5.219   3.681   4.453  0.7046  4.1319  1.4355
  239MOL0     H31515   5.242   3.699   4.622 -2.5499  1.1679 -1.5005
  239MOL0     H31516   5.244   3.429   4.508 -3.2786 -1.1690  0.6163
  239MOL0     H31517   5.111   3.509   4.581 -0.2733  0.7736 -2.1833
  239MOL0     H31518   5.242   3.529   4.803 -0.4787 -0.8158  0.2072
  239MOL0     H31519   5.378   3.443   4.719  0.7170  0.8311  3.0780
  239MOL0     H31520   5.205   3.257   4.672 -0.5305 -2.9707  2.0317
  239MOL0     H31521   5.277   3.260   4.832  0.0652 -1.3977 -1.9470
  239MOL0     H31522   5.035   3.442   4.783  0.2938  0.5833 -1.1936
  239MOL0     H31523   5.080   3.363   4.926 -3.7812 -0.1295  0.3243
  239MOL0     H31524   5.030   3.137   4.788  1.4978  0.2282 -1.0691
  239MOL0     H31525   4.942   3.252   4.685  1.9574  1.7635 -0.9994
  239MOL0     H31526   4.838   3.342   4.924 -0.9644  0.0996 -0.2078
  239MOL0     H31527   4.766   3.221   4.830  1.0132 -1.6025  0.3335
  239MOL0     H31528   4.818   3.041   4.959 -3.1131  1.2154 -2.1802
  239MOL0     H31529   4.765   3.166   5.071 -0.9852  0.3672 -1.7600
  239MOL0     H31530   5.422   3.787   4.328 -0.2120 -1.2238 -0.2161
  239MOL0     H31531   5.574   3.990   4.312  0.4152 -1.8858 -0.7689
  239MOL0     H31532   5.703   4.319   4.562 -1.0555 -1.6771 -1.1275
  239MOL0     H31533   5.765   4.527   4.647 -2.3080 -1.4346  3.5148
  239MOL0     H31534   5.748   3.926   3.712 -2.5824  1.6248  0.0362
  239MOL0     H31535   5.590   3.925   3.512 -0.5814  0.8775 -1.3442
  239MOL0     H31536   5.444   3.962   3.182 -2.3015  0.3267  1.1227
  239MOL0     H31537   5.268   3.935   3.008  3.3142 -2.0965 -0.1662
  239MOL0     H31538   5.193   3.902   2.798 -1.7838 -0.4486  3.1117
  239MOL0     H31539   5.125   3.999   2.664 -0.8338  2.4067  0.1676
  239MOL0     H31540   4.932   3.946   2.790  0.8827  1.4618 -2.7311
  239MOL0     H31541   5.010   3.942   2.943  0.8929  1.1580  0.4321
  239MOL0     H31542   5.026   4.206   2.899 -2.1928  2.3863 -1.1032
  239MOL0     H31543   4.902   4.129   2.984  1.3486 -0.2573  0.6866
  239MOL0     H31544   4.903   4.203   2.680 -1.3194  2.7450  0.0717
  239MOL0     H31545   4.761   4.124   2.767  1.7301 -3.5209  0.8527
  239MOL0     H31546   4.753   4.530   2.885  2.1207  0.7474 -1.4106
  239MOL0     H31547   5.356   4.327   2.863  2.8876 -1.0029 -1.4694
  239MOL0     H31548   5.497   4.364   3.049  2.5419 -1.7198  0.2935
  240MOL0     O31549   6.340   4.019   4.773  0.0913  0.6058 -0.0009
  240MOL0     C31550   6.314   4.077   4.878 -0.3800  0.0952 -0.3204
  240MOL0     O31551   6.409   4.135   4.960 -0.6737 -0.6096  0.1609
  240MOL0     C31552   6.539   4.109   4.933 -0.2820  0.5836  0.5292
  240MOL0     C31553   6.606   4.175   4.837  0.6196  0.0420  0.3617
  240MOL0     C31554   6.733   4.138   4.812  0.0851  0.1082  0.6377
  240MOL0     C31555   6.803   4.036   4.875 -0.7685  0.8775  0.5669
  240MOL0     O31556   6.929   3.994   4.839 -0.6180  0.2969  0.5864
  240MOL0     C31557   7.021   4.097   4.813  0.0685  0.0063 -1.0133
  240MOL0     C31558   7.162   4.048   4.827  0.4247  0.0896 -0.6029
  240MOL0     C31559   7.183   3.916   4.748 -0.5408 -0.4279  0.7525
  240MOL0     C31560   7.334   3.891   4.773  0.2435  0.0813  0.1312
  240MOL0     C31561   7.378   3.774   4.700  0.3842 -0.7785 -0.1299
  240MOL0     C31562   7.296   3.651   4.707  0.3929  0.7072  1.0036
  240MOL0     C31563   7.357   3.552   4.604 -0.2903 -0.0710  0.3827
  240MOL0     C31564   7.287   3.409   4.639 -0.3562  0.7234 -0.3453
  240MOL0     N31565   7.300   3.305   4.534  0.5851  0.1110  0.5129
  240MOL0     C31566   7.206   3.210   4.516  0.0004 -0.6648  0.6087
  240MOL0     C31567   7.258   3.129   4.418  0.2607 -0.6070 -0.1896
  240MOL0     C31568   7.194   3.011   4.348  1.3896  0.0150  0.3884
  240MOL0     C31569   7.077   2.966   4.424 -0.4939  1.1060 -0.3549
  240MOL0     C31570   6.998   2.847   4.364  0.0414 -0.1500  1.0101
  240MOL0     C31571   6.953   2.868   4.222  0.5272 -0.0779  0.3479
  240MOL0     O31572   6.921   2.736   4.164 -0.1680 -0.1584  0.0765
  240MOL0     C31573   6.880   2.732   4.035 -0.5525 -1.2404 -1.1291
  240MOL0     C31574   6.835   2.613   3.980  0.0141  0.2214 -0.5241
  240MOL0     C31575   6.780   2.607   3.852 -0.2896  0.2100 -0.9018
  240MOL0     C31576   6.773   2.710   3.769 -0.9150 -0.6151  0.0253
  240MOL0     C31577   6.713   2.689   3.636  1.0571  0.4327  0.0020
  240MOL0     O31578   6.633   2.585   3.604 -0.6711 -0.4159  0.2198
  240MOL0     C31579   6.575   2.591   3.477 -0.2957 -0.5229 -0.6218
  240MOL0     C31580   6.498   2.704   3.437  0.6514  0.4499 -0.8139
  240MOL0     C31581   6.435   2.694   3.311 -0.2286 -0.2364  0.6251
  240MOL0     C31582   6.438   2.588   3.223 -0.7694  0.7475  0.2108
  240MOL0     O31583   6.367   2.587   3.104  0.3482 -0.0831 -0.6272
  240MOL0     C31584   6.268   2.688   3.072 -0.0609 -0.3237  0.7589
  240MOL0     C31585   6.219   2.656   2.927 -0.1455 -0.1847 -0.6692
  240MOL0     C31586   6.155   2.789   2.861 -0.0355  0.1906  0.3680
  240MOL0     C31587   6.256   2.899   2.827  0.1391  0.3100 -0.1915
  240MOL0     C31588   6.193   3.035   2.777  0.1070  0.0976 -0.5229
  240MOL0     C31589   6.118   3.003   2.642  1.0116  0.7428  0.1322
  240MOL0     C31590   6.045   3.124   2.595  0.3700 -0.0817 -0.1547
  240MOL0     C31591   5.966   3.096   2.461  0.7260 -0.5043 -0.2025
  240MOL0    Cl31592   5.841   3.220   2.446 -0.0824 -0.3802  0.0150
  240MOL0     C31593   6.509   2.475   3.263  0.6581  0.3712  0.4930
  240MOL0     C31594   6.579   2.485   3.391 -0.3049  0.3796  0.5962
  240MOL0     O31595   6.727   2.790   3.567  0.5568  0.7861  0.6482
  240MOL0     C31596   6.825   2.838   3.817  0.3861 -0.3053 -0.1349
  240MOL0     C31597   6.884   2.843   3.946 -0.5964  0.6846 -0.4668
  240MOL0     N31598   7.379   3.186   4.375  0.0822 -0.5512 -0.0285
  240MOL0     N31599   7.403   3.291   4.440  0.4687 -0.5417 -0.4413
  240MOL0     C31600   6.737   3.972   4.981 -0.1816  0.9926  0.2699
  240MOL0     C31601   6.604   4.004   5.008  0.1333 -0.0081 -0.4602
  240MOL0     C31602   6.173   4.089   4.914  0.0041  0.1412 -0.8137
  240MOL0     C31603   6.081   3.982   4.889 -0.2685 -0.2344  0.4869
  240MOL0     C31604   5.950   3.993   4.942 -0.0386 -1.0937  0.0001
  240MOL0     C31605   5.910   4.092   5.025 -0.2424 -0.3394 -0.2033
  240MOL0     O31606   5.785   4.106   5.088  0.2367 -0.2268  0.7455
  240MOL0     C31607   5.673   4.024   5.049  0.8377 -0.0746  0.8322
  240MOL0     C31608   5.570   4.021   5.160 -0.1300 -0.3390  0.1999
  240MOL0     C31609   5.481   4.141   5.163  0.0047  0.3028 -0.3727
  240MOL0     C31610   5.349   4.111   5.090 -0.1040 -0.8073  0.6453
  240MOL0     C31611   5.328   3.997   4.997 -0.0356  0.2601  0.8992
  240MOL0     C31612   5.332   3.902   4.925  1.2551  0.2343  0.6842
  240MOL0     C31613   5.997   4.192   5.058 -0.9282 -1.3666  0.2281
  240MOL0     C31614   6.131   4.197   4.995  0.3394 -0.0041 -0.9870
  240MOL0     H31615   6.547   4.251   4.787 -0.5956 -3.2530 -3.7363
  240MOL0     H31616   6.783   4.193   4.732  0.4900 -2.5483 -1.0787
  240MOL0     H31617   7.011   4.176   4.889  1.8139 -1.1108  0.4756
  240MOL0     H31618   7.012   4.139   4.713  1.6609  2.2101 -0.3328
  240MOL0     H31619   7.173   4.036   4.935  0.9989  0.4341 -0.6187
  240MOL0     H31620   7.243   4.116   4.799  0.0948 -0.1608 -2.2802
  240MOL0     H31621   7.170   3.929   4.640 -2.4028  2.7430  1.2286
  240MOL0     H31622   7.132   3.829   4.791 -1.7216 -1.3237 -2.1838
  240MOL0     H31623   7.387   3.974   4.727  0.5749 -0.4289 -0.4277
  240MOL0     H31624   7.350   3.871   4.880 -0.9649  0.6900  0.4433
  240MOL0     H31625   7.483   3.748   4.715  0.4918 -1.1328 -1.3667
  240MOL0     H31626   7.376   3.794   4.593 -0.1823 -2.5658 -0.4927
  240MOL0     H31627   7.194   3.665   4.670 -0.0920 -4.1008 -0.0658
  240MOL0     H31628   7.304   3.611   4.808 -0.9220 -0.2190  0.7624
  240MOL0     H31629   7.341   3.587   4.502  2.4471 -2.1175 -0.8894
  240MOL0     H31630   7.466   3.547   4.614 -0.4010  1.6278  4.8946
  240MOL0     H31631   7.181   3.422   4.662 -1.2085  1.7032 -4.1179
  240MOL0     H31632   7.347   3.371   4.723  1.5464  2.4813 -0.8187
  240MOL0     H31633   7.110   3.207   4.565 -1.3088 -0.0607 -1.7932
  240MOL0     H31634   7.267   2.930   4.340 -1.7367 -3.0679  0.3220
  240MOL0     H31635   7.158   3.057   4.256 -0.6557 -0.6772  0.7892
  240MOL0     H31636   7.019   3.059   4.429 -0.1909  1.3135 -0.6515
  240MOL0     H31637   7.107   2.934   4.524 -0.6751 -1.3231 -1.0114
  240MOL0     H31638   7.043   2.748   4.369  1.3293  0.1821 -1.9708
  240MOL0     H31639   6.908   2.843   4.427 -2.5118  1.3609 -2.2607
  240MOL0     H31640   7.035   2.914   4.166  1.3308  0.3391  1.7814
  240MOL0     H31641   6.870   2.939   4.221 -1.0848 -1.8568 -2.2027
  240MOL0     H31642   6.828   2.525   4.043  0.0300  1.1149  0.7748
  240MOL0     H31643   6.721   2.519   3.826 -3.2481  1.4088  1.2224
  240MOL0     H31644   6.488   2.795   3.494  3.2079 -0.4890  1.3618
  240MOL0     H31645   6.384   2.785   3.282  0.0444 -0.1966  0.2720
  240MOL0     H31646   6.305   2.790   3.075 -2.3393  0.5422  1.2012
  240MOL0     H31647   6.191   2.678   3.148 -0.5545 -1.3538  0.1467
  240MOL0     H31648   6.150   2.573   2.947  1.0959 -1.4100 -1.3268
  240MOL0     H31649   6.299   2.613   2.866  0.6003 -0.5677  0.5459
  240MOL0     H31650   6.076   2.832   2.922 -2.6548 -0.0472 -2.5819
  240MOL0     H31651   6.103   2.754   2.772 -1.4183 -0.8445  1.5350
  240MOL0     H31652   6.316   2.926   2.914 -3.0067 -0.1703  2.3406
  240MOL0     H31653   6.313   2.860   2.743 -1.7570 -2.3384 -0.3607
  240MOL0     H31654   6.260   3.121   2.773 -5.6436  5.4431  1.1979
  240MOL0     H31655   6.117   3.073   2.847  0.8262  3.6828 -1.4565
  240MOL0     H31656   6.043   2.924   2.651  2.8275 -1.4490 -2.3497
  240MOL0     H31657   6.191   2.960   2.573 -1.1863  0.8710 -2.4116
  240MOL0     H31658   5.968   3.143   2.671 -0.6415  2.0601 -1.6217
  240MOL0     H31659   6.112   3.211   2.597  0.7249 -0.3611  0.5528
  240MOL0     H31660   5.926   2.995   2.461  3.3522 -1.6919 -2.1306
  240MOL0     H31661   6.028   3.093   2.370  1.8903  1.4624  0.4470
  240MOL0     H31662   6.529   2.394   3.194  1.6733  1.4633 -0.5329
  240MOL0     H31663   6.637   2.398   3.419 -2.6525 -0.2202  4.3262
  240MOL0     H31664   6.823   2.917   3.743 -2.2450 -1.2783 -1.2258
  240MOL0     H31665   6.910   2.938   3.991 -1.1494 -0.4329  2.4997
  240MOL0     H31666   6.776   3.896   5.049  0.4845  1.3551  0.3084
  240MOL0     H31667   6.544   3.951   5.081  2.0014 -2.6327 -0.6698
  240MOL0     H31668   6.116   3.892   4.839 -0.9170 -0.7097  0.8669
  240MOL0     H31669   5.888   3.907   4.919 -0.8428 -1.3220  2.6388
  240MOL0     H31670   5.697   3.922   5.019 -0.7305  0.2028 -1.6278
  240MOL0     H31671   5.643   4.065   4.953  0.3688  0.6075  1.2600
  240MOL0     H31672   5.518   3.928   5.185 -0.1323 -0.1700  0.8483
  240MOL0     H31673   5.633   4.019   5.249  1.1514 -3.8610 -0.6161
  240MOL0     H31674   5.526   4.234   5.125  2.1251 -0.3031  0.4507
  240MOL0     H31675   5.460   4.155   5.270  3.6086 -2.7995  0.9530
  240MOL0     H31676   5.269   4.109   5.166 -0.8322  1.0237  0.0003
  240MOL0     H31677   5.313   4.201   5.038  1.8205  1.1763  2.5280
  240MOL0     H31678   5.322   3.821   4.856  0.7047 -0.2866  1.3519
  240MOL0     H31679   5.974   4.266   5.134  0.6321 -1.2410  0.6116
  240MOL0     H31680   6.191   4.283   5.023 -1.3613  0.3189  2.0677
  241MOL0     O31681   2.002   0.067   5.025  0.4891 -1.4201  0.2746
  241MOL0     C31682   2.100   0.113   4.956 -0.2263  0.8557  0.0200
  241MOL0     O31683   2.136   0.060   4.834 -0.1370  0.0776  0.0341
  241MOL0     C31684   2.078  -0.047   4.787 -0.1550 -0.8756  0.6274
  241MOL0     C31685   2.058  -0.045   4.647 -0.2225 -0.2979 -0.3047
  241MOL0     C31686   2.016  -0.154   4.574 -0.0705 -0.1740  0.7293
  241MOL0     C31687   1.980  -0.274   4.645  0.3731  0.0253  0.4894
  241MOL0     O31688   1.930  -0.389   4.573 -0.1965  0.4665 -0.1663
  241MOL0     C31689   2.028  -0.498   4.573  0.4853 -0.9763 -1.2229
  241MOL0     C31690   1.984  -0.614   4.472 -0.0839 -0.5632 -0.9895
  241MOL0     C31691   2.094  -0.709   4.421 -0.4038 -0.6614 -0.4796
  241MOL0     C31692   2.162  -0.777   4.541  0.5277  0.7255  0.1198
  241MOL0     C31693   2.294  -0.859   4.503  0.3703 -0.4406  0.5224
  241MOL0     C31694   2.287  -0.965   4.396  0.1718 -1.3486 -0.0206
  241MOL0     C31695   2.416  -1.020   4.335  0.3261 -1.0073  0.6649
  241MOL0     C31696   2.518  -1.073   4.432  0.0188  0.6266 -0.3558
  241MOL0     N31697   2.456  -1.195   4.486  0.2104  0.2076  0.2662
  241MOL0     C31698   2.461  -1.323   4.431  0.0780 -0.7887 -0.5711
  241MOL0     C31699   2.390  -1.401   4.511  0.0211 -0.2835 -0.3310
  241MOL0     C31700   2.380  -1.547   4.516 -1.3150  0.7463 -0.3987
  241MOL0     C31701   2.468  -1.615   4.632  0.4148  0.3645  0.1033
  241MOL0     C31702   2.396  -1.634   4.772 -0.4748 -0.1809 -0.6892
  241MOL0     C31703   2.391  -1.504   4.853  1.0490  0.7536  0.7805
  241MOL0     O31704   2.384  -1.531   4.996  0.1161 -0.2641 -0.6146
  241MOL0     C31705   2.391  -1.414   5.073 -0.6290  1.0325  0.0149
  241MOL0     C31706   2.342  -1.285   5.030 -0.1925 -0.1610  0.2376
  241MOL0     C31707   2.338  -1.179   5.119 -1.1872 -0.0240 -0.8012
  241MOL0     C31708   2.394  -1.200   5.252  0.4874 -0.2391  0.1363
  241MOL0     C31709   2.410  -1.090   5.351 -0.1491 -1.3520 -0.0375
  241MOL0     O31710   2.388  -0.966   5.310  0.1732  0.4488  0.7879
  241MOL0     C31711   2.391  -0.864   5.416 -0.6381 -0.5544  0.0251
  241MOL0     C31712   2.506  -0.797   5.459 -0.6739  0.5713  0.4309
  241MOL0     C31713   2.511  -0.715   5.575 -0.6475  0.7203 -0.3709
  241MOL0     C31714   2.397  -0.687   5.643 -0.1781  0.1623 -0.1090
  241MOL0     O31715   2.396  -0.623   5.755  0.6034 -0.2789 -0.1405
  241MOL0     C31716   2.320  -0.499   5.759 -0.5303  1.3685  0.0590
  241MOL0     C31717   2.352  -0.410   5.870 -0.5247  0.7444  0.2230
  241MOL0     C31718   2.502  -0.378   5.878 -0.6205 -0.1124 -0.4342
  241MOL0     C31719   2.561  -0.324   5.752 -0.7832  0.4386 -0.2350
  241MOL0     C31720   2.713  -0.329   5.756 -0.4108 -1.0014 -0.8278
  241MOL0     C31721   2.770  -0.209   5.838  0.0276 -0.5655  0.6060
  241MOL0     C31722   2.921  -0.167   5.813  0.8939 -0.3126  0.4937
  241MOL0     C31723   2.921  -0.092   5.683  0.1892  1.7027  0.3479
  241MOL0    Cl31724   3.091  -0.061   5.644 -0.4216  0.1263  0.2493
  241MOL0     C31725   2.283  -0.751   5.600  0.4081 -0.3565  0.2419
  241MOL0     C31726   2.273  -0.832   5.479  0.3401 -0.1495 -0.3551
  241MOL0     O31727   2.436  -1.114   5.470  0.3010  0.1043  0.9756
  241MOL0     C31728   2.451  -1.319   5.287 -0.9161  0.0954 -0.9548
  241MOL0     C31729   2.443  -1.432   5.203  0.1892 -0.0200  1.3330
  241MOL0     N31730   2.334  -1.322   4.611  0.2488  0.3191 -0.8791
  241MOL0     N31731   2.378  -1.193   4.596 -0.6653  0.5545 -0.1880
  241MOL0     C31732   1.986  -0.278   4.787 -0.0291  0.1141  0.0890
  241MOL0     C31733   2.035  -0.163   4.853 -0.4994 -0.6291  0.1492
  241MOL0     C31734   2.176   0.221   5.016 -0.8588 -0.2063  0.0012
  241MOL0     C31735   2.303   0.253   4.957  0.1722 -0.8203  0.4959
  241MOL0     C31736   2.382   0.350   5.016 -0.7598  0.3858 -0.8117
  241MOL0     C31737   2.338   0.401   5.147  0.8992  0.8399  0.4509
  241MOL0     O31738   2.405   0.503   5.198 -0.2075  0.0872  0.3910
  241MOL0     C31739   2.526   0.452   5.262  0.1296  0.0115 -0.0517
  241MOL0     C31740   2.571   0.554   5.356 -0.2954  0.9000 -0.1821
  241MOL0     C31741   2.577   0.692   5.288 -0.6011 -0.1630  0.3761
  241MOL0     C31742   2.655   0.703   5.155 -0.0259 -0.6031  0.0822
  241MOL0     C31743   2.804   0.672   5.174  0.0338 -1.1295  0.3346
  241MOL0     C31744   2.922   0.646   5.180 -0.9776  0.0689  0.3912
  241MOL0     C31745   2.217   0.365   5.201 -0.2809 -0.9199 -0.2622
  241MOL0     C31746   2.139   0.275   5.137  0.1485 -0.2892  0.2880
  241MOL0     H31747   2.094   0.045   4.599  3.3463 -1.0941  0.5442
  241MOL0     H31748   2.020  -0.143   4.466  0.5768  0.5135  0.8123
  241MOL0     H31749   2.049  -0.533   4.674  3.9395  0.5481 -1.2573
  241MOL0     H31750   2.115  -0.458   4.520 -0.3656  0.8894 -1.2908
  241MOL0     H31751   1.942  -0.561   4.386  0.6162  1.0141 -0.3986
  241MOL0     H31752   1.895  -0.666   4.510 -0.8201  0.2507 -1.5642
  241MOL0     H31753   2.164  -0.653   4.358  0.5926 -0.4521  0.7824
  241MOL0     H31754   2.049  -0.790   4.363 -2.5637 -0.7395  1.1843
  241MOL0     H31755   2.174  -0.710   4.626 -1.6528 -0.6528  1.6225
  241MOL0     H31756   2.089  -0.852   4.574  0.7482  0.3917 -0.1503
  241MOL0     H31757   2.330  -0.906   4.595 -0.2029  0.5468  1.2724
  241MOL0     H31758   2.365  -0.792   4.455  0.1283 -1.4709 -1.3839
  241MOL0     H31759   2.238  -0.913   4.313 -0.3528 -0.0492  1.0619
  241MOL0     H31760   2.222  -1.049   4.424  0.1965 -1.9574 -1.6569
  241MOL0     H31761   2.387  -1.094   4.260 -3.3370  1.7587 -0.9824
  241MOL0     H31762   2.464  -0.936   4.285 -1.1986  0.3760  1.4203
  241MOL0     H31763   2.550  -0.993   4.499 -0.2769  0.8797 -0.5175
  241MOL0     H31764   2.611  -1.099   4.380  0.5368  0.3888  0.6637
  241MOL0     H31765   2.527  -1.354   4.351 -0.9204  2.7559 -3.0195
  241MOL0     H31766   2.411  -1.584   4.418 -1.3244 -2.7970  0.8236
  241MOL0     H31767   2.274  -1.571   4.526 -0.9380 -0.7057  0.3931
  241MOL0     H31768   2.566  -1.575   4.658 -0.1256 -0.9353  5.1006
  241MOL0     H31769   2.504  -1.710   4.592  0.5679  0.7840 -0.8049
  241MOL0     H31770   2.293  -1.670   4.758  0.2771 -1.6142 -3.3077
  241MOL0     H31771   2.451  -1.712   4.825  0.2412  1.6540  1.4181
  241MOL0     H31772   2.297  -1.451   4.835  1.0978  1.7720  3.1056
  241MOL0     H31773   2.473  -1.438   4.823  0.0439  1.1209 -1.3196
  241MOL0     H31774   2.318  -1.267   4.926 -0.0453  1.8419  0.5102
  241MOL0     H31775   2.294  -1.081   5.101  1.8953  1.2088 -2.3395
  241MOL0     H31776   2.599  -0.822   5.410 -0.5537  0.1792  0.8525
  241MOL0     H31777   2.607  -0.669   5.598 -0.3610  0.9420 -1.8993
  241MOL0     H31778   2.213  -0.514   5.777 -0.7338  1.7528 -0.7824
  241MOL0     H31779   2.317  -0.457   5.658  2.6096  0.3241 -0.5654
  241MOL0     H31780   2.322  -0.445   5.969 -0.0814  0.5067  0.2766
  241MOL0     H31781   2.302  -0.314   5.855  1.0456  1.2735 -2.0841
  241MOL0     H31782   2.562  -0.468   5.896 -0.1331 -0.2797 -2.5960
  241MOL0     H31783   2.522  -0.304   5.955 -0.6945  1.8880 -2.2588
  241MOL0     H31784   2.549  -0.408   5.683 -0.5636  0.0222  0.2327
  241MOL0     H31785   2.521  -0.227   5.720  2.6611  2.0084 -0.2705
  241MOL0     H31786   2.758  -0.338   5.657  1.8218 -0.7986  0.1032
  241MOL0     H31787   2.748  -0.415   5.814  1.2114 -0.8798 -1.5611
  241MOL0     H31788   2.756  -0.244   5.941  0.4205 -1.8875  0.2288
  241MOL0     H31789   2.709  -0.122   5.812  0.5323  0.5362  2.8327
  241MOL0     H31790   2.961  -0.097   5.888 -0.1236 -0.3647  1.1038
  241MOL0     H31791   2.974  -0.263   5.817 -2.6518 -2.6785 -2.4666
  241MOL0     H31792   2.861  -0.000   5.692 -0.3890  1.2479  1.1905
  241MOL0     H31793   2.865  -0.140   5.602  2.9653 -0.1246 -0.6254
  241MOL0     H31794   2.189  -0.732   5.650  1.0821  0.1787  1.3355
  241MOL0     H31795   2.182  -0.889   5.461  1.4574 -1.7578 -1.2328
  241MOL0     H31796   2.505  -1.336   5.379 -2.6027 -1.9913 -0.2690
  241MOL0     H31797   2.480  -1.532   5.221  1.3009  0.6367  2.9849
  241MOL0     H31798   1.978  -0.359   4.858 -0.2517 -0.0264 -0.0964
  241MOL0     H31799   2.046  -0.166   4.961  0.7009  1.9124  0.1794
  241MOL0     H31800   2.327   0.205   4.863 -3.2890 -2.3983  0.2740
  241MOL0     H31801   2.475   0.386   4.974  0.3615  1.7410  2.4954
  241MOL0     H31802   2.599   0.428   5.184 -0.3831 -2.7438  0.2035
  241MOL0     H31803   2.510   0.360   5.319  2.8438 -0.2512  0.4313
  241MOL0     H31804   2.502   0.553   5.440 -2.7006  1.3974 -2.0275
  241MOL0     H31805   2.671   0.520   5.383 -0.7531  0.3750  0.9003
  241MOL0     H31806   2.605   0.765   5.364  1.2529 -0.0396 -0.3650
  241MOL0     H31807   2.476   0.729   5.267  0.3101  2.4531  0.2034
  241MOL0     H31808   2.612   0.651   5.069 -0.2243  3.7805 -2.8266
  241MOL0     H31809   2.658   0.809   5.125 -1.0434 -0.5094  0.2756
  241MOL0     H31810   3.024   0.616   5.169 -0.9052  1.0633 -2.8539
  241MOL0     H31811   2.184   0.423   5.286  0.1785 -2.1589  0.7955
  241MOL0     H31812   2.041   0.257   5.181 -1.3171  1.5169 -1.9714
  242MOL0     O31813  10.904   8.631   5.666  0.3458  0.5524 -0.1560
  242MOL0     C31814  10.803   8.652   5.604  0.8709  0.8195  0.7527
  242MOL0     O31815  10.794   8.744   5.507  0.1524 -0.3280  0.2525
  242MOL0     C31816  10.904   8.817   5.479 -0.8438 -0.3031  0.0353
  242MOL0     C31817  10.959   8.786   5.358  0.7154  0.0273  0.1966
  242MOL0     C31818  11.075   8.859   5.316  0.5762 -1.3977 -0.8469
  242MOL0     C31819  11.136   8.959   5.401  0.3680  0.4288  1.0064
  242MOL0     O31820  11.246   9.024   5.363 -0.1114  0.5862  0.2012
  242MOL0     C31821  11.219   9.161   5.325 -0.2441 -0.2868 -1.2287
  242MOL0     C31822  11.347   9.244   5.354 -0.1583 -0.2843  0.8667
  242MOL0     C31823  11.470   9.206   5.283 -0.3899  0.1278 -0.3299
  242MOL0     C31824  11.596   9.254   5.356  0.6802 -0.1858  0.7772
  242MOL0     C31825  11.737   9.216   5.305 -0.4986  0.8420 -0.5691
  242MOL0     C31826  11.790   9.086   5.358 -0.2872 -0.6918 -0.0387
  242MOL0     C31827  11.917   9.033   5.285 -0.4274  0.4484 -0.5636
  242MOL0     C31828  11.965   8.924   5.369  0.3013  0.5245 -0.7571
  242MOL0     N31829  11.872   8.809   5.389 -0.9719  0.4863 -0.8829
  242MOL0     C31830  11.796   8.788   5.502 -0.3903 -0.3517 -0.2152
  242MOL0     C31831  11.741   8.666   5.482 -0.1256 -1.1432  0.0658
  242MOL0     C31832  11.626   8.614   5.568  0.0902 -1.0953 -0.0098
  242MOL0     C31833  11.592   8.484   5.513 -0.1734 -0.3868  0.1443
  242MOL0     C31834  11.502   8.416   5.622  0.6288 -0.2660  0.0727
  242MOL0     C31835  11.460   8.276   5.592  0.3617  0.0957  0.6418
  242MOL0     O31836  11.426   8.202   5.707 -0.3978 -0.4101  0.0772
  242MOL0     C31837  11.305   8.213   5.772 -0.7381  0.9807 -0.8029
  242MOL0     C31838  11.195   8.270   5.720 -0.3369 -1.1263  0.6344
  242MOL0     C31839  11.070   8.262   5.784  0.4567  0.4677  1.0105
  242MOL0     C31840  11.052   8.186   5.910 -0.3715  0.1824  0.3242
  242MOL0     C31841  10.921   8.168   5.984 -0.3470 -0.0285  0.1091
  242MOL0     O31842  10.943   8.134   6.120 -0.4146  0.0072  0.7380
  242MOL0     C31843  10.868   8.035   6.182 -0.2381  0.8716 -0.7261
  242MOL0     C31844  10.927   7.979   6.289  0.4019  0.9741  0.3097
  242MOL0     C31845  10.866   7.884   6.365  0.0021  0.3272 -0.3758
  242MOL0     C31846  10.738   7.844   6.345 -0.5600 -1.0999 -0.6616
  242MOL0     O31847  10.677   7.759   6.426  0.4397 -0.1779  0.7246
  242MOL0     C31848  10.592   7.658   6.369  0.2621  0.0337  0.0846
  242MOL0     C31849  10.547   7.551   6.469  1.2313 -0.4756  1.1415
  242MOL0     C31850  10.442   7.464   6.403  0.6727  1.0006 -0.0617
  242MOL0     C31851  10.496   7.357   6.299  0.0563  1.0300 -0.1509
  242MOL0     C31852  10.478   7.397   6.150 -1.1411  0.1227 -0.8304
  242MOL0     C31853  10.341   7.378   6.101  0.1942 -0.8614  0.8380
  242MOL0     C31854  10.310   7.410   5.955 -0.1405  0.2239  0.3010
  242MOL0     C31855  10.282   7.564   5.952 -0.4766  1.0250  0.5476
  242MOL0    Cl31856  10.211   7.630   5.793 -0.1277 -0.4008 -0.0266
  242MOL0     C31857  10.665   7.911   6.246 -0.3772  0.4241  0.5698
  242MOL0     C31858  10.727   8.008   6.168 -0.7576 -0.1323 -1.1195
  242MOL0     O31859  10.814   8.183   5.930 -0.1151 -0.9854  0.7670
  242MOL0     C31860  11.169   8.137   5.963  0.2166  0.0985  0.0600
  242MOL0     C31861  11.287   8.139   5.895 -0.2609 -0.6039 -0.0845
  242MOL0     N31862  11.770   8.624   5.350  0.0301  0.5227  0.1221
  242MOL0     N31863  11.859   8.706   5.305  0.5857  0.6761 -0.1848
  242MOL0     C31864  11.065   8.988   5.519 -0.6460 -0.0534 -0.6217
  242MOL0     C31865  10.955   8.925   5.563  0.2107  0.4658 -0.3404
  242MOL0     C31866  10.679   8.571   5.639  0.0474  0.8814  0.6977
  242MOL0     C31867  10.565   8.585   5.562 -0.4775 -0.3596  0.4428
  242MOL0     C31868  10.449   8.512   5.588 -0.5330 -1.1087 -0.2743
  242MOL0     C31869  10.457   8.410   5.685 -0.2953 -0.7867 -0.2448
  242MOL0     O31870  10.347   8.338   5.715  0.2120 -0.2262  0.1062
  242MOL0     C31871  10.217   8.411   5.709 -0.1800 -0.1780  0.7286
  242MOL0     C31872  10.105   8.303   5.720 -0.0590 -0.3940  0.4957
  242MOL0     C31873  10.044   8.263   5.585  1.2540 -0.3071 -0.0495
  242MOL0     C31874  10.134   8.206   5.478 -0.0981  1.3741 -0.3129
  242MOL0     C31875  10.052   8.151   5.367  0.0184  0.4333 -0.4305
  242MOL0     C31876   9.978   8.101   5.283 -0.2536  0.3370 -0.3042
  242MOL0     C31877  10.576   8.389   5.764 -0.1227 -0.4060 -0.3379
  242MOL0     C31878  10.679   8.479   5.741  0.0902  0.2980 -1.0485
  242MOL0     H31879  10.912   8.709   5.298 -0.6601  1.5804 -0.7992
  242MOL0     H31880  11.135   8.837   5.227  4.1605 -1.4992  1.3799
  242MOL0     H31881  11.134   9.202   5.380  0.6580 -0.3984  0.2844
  242MOL0     H31882  11.182   9.157   5.222  0.0351 -0.5908 -1.3197
  242MOL0     H31883  11.361   9.226   5.461 -4.0745 -1.2461  1.3665
  242MOL0     H31884  11.324   9.349   5.335 -3.4021 -0.6718  2.0835
  242MOL0     H31885  11.475   9.258   5.187 -0.0865  0.1153 -0.3224
  242MOL0     H31886  11.473   9.097   5.274 -0.4001 -0.0912  1.7424
  242MOL0     H31887  11.599   9.361   5.338  4.6308 -0.2678  0.1689
  242MOL0     H31888  11.575   9.228   5.460 -1.2573  0.6214  0.6211
  242MOL0     H31889  11.806   9.290   5.344  0.3972 -0.2945  0.0553
  242MOL0     H31890  11.732   9.218   5.195 -1.0901 -0.4262 -0.5934
  242MOL0     H31891  11.710   9.014   5.339 -2.7464  2.2775 -1.8460
  242MOL0     H31892  11.805   9.094   5.466 -0.0734  1.0693 -0.1694
  242MOL0     H31893  11.880   8.979   5.196 -0.7858 -1.1027  0.4846
  242MOL0     H31894  12.004   9.094   5.260  0.2538 -0.1033  0.4039
  242MOL0     H31895  12.005   8.967   5.461 -1.5758 -0.9156  0.8033
  242MOL0     H31896  12.048   8.881   5.311  0.1342  0.0663 -0.6615
  242MOL0     H31897  11.793   8.851   5.591  0.6392 -0.3212 -0.1893
  242MOL0     H31898  11.539   8.678   5.557  0.0461 -1.3383 -1.1274
  242MOL0     H31899  11.654   8.635   5.672  2.6605  1.4023 -1.0624
  242MOL0     H31900  11.679   8.418   5.508 -0.9487 -1.4717  0.6486
  242MOL0     H31901  11.549   8.483   5.412  1.3233 -0.4585 -0.5177
  242MOL0     H31902  11.562   8.427   5.713 -0.1414 -1.2238  0.7194
  242MOL0     H31903  11.404   8.465   5.615  0.7142 -0.3468 -3.8961
  242MOL0     H31904  11.545   8.227   5.544 -2.2028 -0.9627 -3.3355
  242MOL0     H31905  11.380   8.273   5.518  1.3661  0.4393 -0.4920
  242MOL0     H31906  11.199   8.307   5.618 -0.1862 -2.3159  0.1940
  242MOL0     H31907  10.986   8.314   5.740 -0.6473 -2.0093  0.0390
  242MOL0     H31908  11.031   7.989   6.316  1.8144 -0.3683 -3.8821
  242MOL0     H31909  10.907   7.824   6.445 -0.8579 -0.4328 -0.4935
  242MOL0     H31910  10.634   7.611   6.280  0.8733 -1.8229  1.2997
  242MOL0     H31911  10.500   7.710   6.341  0.8053  1.5855  1.0112
  242MOL0     H31912  10.491   7.608   6.544 -1.3404  0.4703 -1.2746
  242MOL0     H31913  10.635   7.500   6.507  2.3158  0.6754  0.2780
  242MOL0     H31914  10.353   7.515   6.363  0.3922  2.1198  1.8743
  242MOL0     H31915  10.406   7.400   6.484  1.0379  0.0191 -0.6520
  242MOL0     H31916  10.602   7.338   6.312  0.0537  0.3377 -1.0987
  242MOL0     H31917  10.442   7.263   6.308 -2.2770  2.2683 -0.2925
  242MOL0     H31918  10.548   7.339   6.089  1.9551  2.6078  0.0324
  242MOL0     H31919  10.517   7.499   6.139  2.2727 -0.9955 -0.4795
  242MOL0     H31920  10.264   7.426   6.160 -1.0698  0.4977 -1.7552
  242MOL0     H31921  10.317   7.272   6.116  1.0107 -1.1522  0.2290
  242MOL0     H31922  10.399   7.379   5.899  1.3372  0.2646  2.4725
  242MOL0     H31923  10.224   7.357   5.916 -0.8516  1.2397  0.4424
  242MOL0     H31924  10.380   7.609   5.971 -0.3146  0.9077  0.0084
  242MOL0     H31925  10.216   7.584   6.037  1.5871 -1.0118  2.7943
  242MOL0     H31926  10.559   7.893   6.228 -0.8822  2.6871  0.9672
  242MOL0     H31927  10.669   8.069   6.100  1.2650  1.3738 -1.5851
  242MOL0     H31928  11.170   8.106   6.067  3.4654  3.0145  1.0978
  242MOL0     H31929  11.375   8.088   5.932 -3.2440 -5.9405  0.7288
  242MOL0     H31930  11.100   9.069   5.582 -1.6768  1.3047 -1.7044
  242MOL0     H31931  10.915   8.942   5.663 -0.6011 -2.5808 -0.0355
  242MOL0     H31932  10.573   8.649   5.475  0.8841 -1.2666 -0.1395
  242MOL0     H31933  10.369   8.527   5.517 -0.0236 -1.3610 -0.9072
  242MOL0     H31934  10.191   8.471   5.621 -1.6914 -0.8755  0.6601
  242MOL0     H31935  10.211   8.472   5.800 -0.7631  1.2818 -0.2467
  242MOL0     H31936  10.150   8.212   5.761  1.0605 -0.8476 -1.5684
  242MOL0     H31937  10.028   8.335   5.790 -1.4194  2.1181 -1.9248
  242MOL0     H31938   9.980   8.343   5.546 -0.0564  1.5418  5.0654
  242MOL0     H31939   9.973   8.181   5.604 -0.5298  1.1681 -0.0765
  242MOL0     H31940  10.210   8.271   5.435 -0.5599  1.5262 -0.9175
  242MOL0     H31941  10.184   8.118   5.520  0.0234  1.0419 -1.1205
  242MOL0     H31942   9.915   8.045   5.217 -1.6699  0.8235  0.5877
  242MOL0     H31943  10.593   8.311   5.837 -0.9131 -0.7322 -0.4877
  242MOL0     H31944  10.774   8.478   5.793 -1.5422  2.7496  2.3740
  243MOL0     O31945  10.944   0.407  10.692 -0.2038  0.3079  0.0146
  243MOL0     C31946  11.046   0.344  10.659  0.1469 -0.1805  0.8144
  243MOL0     O31947  11.151   0.408  10.615 -0.7199  0.9005  0.3272
  243MOL0     C31948  11.157   0.544  10.612  0.7763 -0.0708 -0.2055
  243MOL0     C31949  11.223   0.615  10.707 -1.1261  0.0519 -0.0896
  243MOL0     C31950  11.255   0.751  10.688  0.4960 -0.2260 -0.0728
  243MOL0     C31951  11.200   0.822  10.577 -0.6483 -0.1970 -0.1483
  243MOL0     O31952  11.245   0.951  10.529  0.4416 -0.4226 -0.1403
  243MOL0     C31953  11.261   1.046  10.634  0.5471  0.6019  0.2142
  243MOL0     C31954  11.257   1.186  10.566  0.1435  0.1475  1.1104
  243MOL0     C31955  11.219   1.302  10.655  0.6629  0.0403  0.4121
  243MOL0     C31956  11.262   1.437  10.599 -1.0381 -0.2662  0.4487
  243MOL0     C31957  11.242   1.462  10.446  0.5073  1.0677 -0.1983
  243MOL0     C31958  11.239   1.608  10.408  0.1320  0.0708  0.0575
  243MOL0     C31959  11.367   1.679  10.448  0.7988 -0.2555  0.3661
  243MOL0     C31960  11.434   1.749  10.324  0.3727  0.3568 -0.0408
  243MOL0     N31961  11.353   1.864  10.286 -0.4067  0.7514 -0.8061
  243MOL0     C31962  11.251   1.928  10.350 -1.1054  0.4521 -0.4237
  243MOL0     C31963  11.228   2.036  10.282  0.5538  0.1771  0.6133
  243MOL0     C31964  11.135   2.148  10.321 -0.7952 -0.1984  0.7085
  243MOL0     C31965  11.078   2.228  10.201 -0.2887  0.1054  0.1974
  243MOL0     C31966  10.934   2.183  10.183  0.3112 -0.7829  0.6679
  243MOL0     C31967  10.868   2.283  10.088  0.1772 -0.5608 -0.7596
  243MOL0     O31968  10.928   2.310   9.967 -0.8076  0.0022  0.7917
  243MOL0     C31969  10.899   2.225   9.857 -1.2745 -0.0432 -0.3336
  243MOL0     C31970  11.006   2.197   9.768  0.4165 -0.5012  0.0500
  243MOL0     C31971  11.000   2.095   9.668  1.1090 -0.1103  0.0865
  243MOL0     C31972  10.886   2.013   9.661 -0.1641  0.1121  0.3145
  243MOL0     C31973  10.880   1.914   9.548 -0.0216 -1.2546  1.2158
  243MOL0     O31974  10.934   1.950   9.432 -0.3494  0.0597 -0.9987
  243MOL0     C31975  10.948   1.863   9.340  0.8823  0.2868 -0.3192
  243MOL0     C31976  10.842   1.825   9.266  0.3691 -0.5968  0.3158
  243MOL0     C31977  10.830   1.707   9.180  0.2783  0.2496  0.0448
  243MOL0     C31978  10.937   1.617   9.189  0.0951  0.3145 -0.0287
  243MOL0     O31979  10.952   1.498   9.120  0.7642  0.2760 -0.3818
  243MOL0     C31980  10.849   1.451   9.028 -0.4202  0.0876 -0.7040
  243MOL0     C31981  10.861   1.312   8.983 -0.4661  1.3954  0.4156
  243MOL0     C31982  10.995   1.292   8.911  0.4877  0.1272 -0.4868
  243MOL0     C31983  11.001   1.157   8.837 -0.0474 -1.0261 -0.1043
  243MOL0     C31984  11.150   1.127   8.788 -0.0639  0.1818 -0.7012
  243MOL0     C31985  11.148   1.048   8.659  0.1224  0.3762 -0.6386
  243MOL0     C31986  11.297   0.998   8.629  0.0782 -0.4584  0.3621
  243MOL0     C31987  11.357   1.100   8.525  0.4630  0.6475 -0.5184
  243MOL0    Cl31988  11.538   1.078   8.519  0.0125 -0.3072  0.4497
  243MOL0     C31989  11.045   1.656   9.262  0.2867 -0.3210 -0.1745
  243MOL0     C31990  11.043   1.763   9.356 -0.6607  0.2455  0.2529
  243MOL0     O31991  10.799   1.817   9.565 -0.4149 -0.2795  0.0063
  243MOL0     C31992  10.780   2.038   9.751 -0.4143 -0.2083 -0.1516
  243MOL0     C31993  10.782   2.142   9.846 -0.3885 -0.8354 -0.4941
  243MOL0     N31994  11.300   2.032  10.164  0.2520 -0.3804 -0.6036
  243MOL0     N31995  11.382   1.934  10.173  0.3442  0.8389  0.3570
  243MOL0     C31996  11.120   0.752  10.489  0.2944  0.1246 -0.0801
  243MOL0     C31997  11.108   0.607  10.501 -0.3398  0.0309  0.5016
  243MOL0     C31998  11.051   0.193  10.653  0.2309 -0.5211  0.1857
  243MOL0     C31999  11.120   0.120  10.556 -0.7536  0.2952 -0.4762
  243MOL0     C32000  11.124  -0.021  10.579  0.1867 -0.5185 -0.6129
  243MOL0     C32001  11.049  -0.083  10.679 -1.1168 -0.5361  1.1983
  243MOL0     O32002  11.052  -0.218  10.674 -0.7992  0.3847 -0.3522
  243MOL0     C32003  11.029  -0.278  10.801  0.2624 -0.4104 -0.2884
  243MOL0     C32004  11.034  -0.437  10.810 -0.3935  0.3108 -0.2740
  243MOL0     C32005  11.000  -0.479  10.953  0.2113  1.3224 -0.7283
  243MOL0     C32006  11.004  -0.635  10.966  0.4141 -0.2178  0.5955
  243MOL0     C32007  10.976  -0.669  11.100  0.5566  0.0070  0.5733
  243MOL0     C32008  10.945  -0.700  11.211  0.5185 -0.4720 -0.1630
  243MOL0     C32009  10.982  -0.004  10.761 -0.5961  1.2643  0.9965
  243MOL0     C32010  10.980   0.132  10.756 -0.5487 -2.0016  0.6479
  243MOL0     H32011  11.262   0.567  10.796 -4.4094 -1.3076  0.7694
  243MOL0     H32012  11.328   0.787  10.760  0.9029 -0.7495 -0.2170
  243MOL0     H32013  11.344   1.028  10.703  0.4306  1.0180  0.4715
  243MOL0     H32014  11.168   1.039  10.692  1.1709  1.2216  1.3371
  243MOL0     H32015  11.195   1.194  10.476  0.5342  2.7108  0.9893
  243MOL0     H32016  11.360   1.204  10.533  0.2590 -0.7818  0.9319
  243MOL0     H32017  11.272   1.300  10.751  2.7926 -1.7935 -0.6923
  243MOL0     H32018  11.111   1.299  10.666  0.1747 -2.2949 -3.3069
  243MOL0     H32019  11.223   1.522  10.655  2.1752  0.9572  1.0572
  243MOL0     H32020  11.371   1.434  10.614 -1.0161 -0.5094  0.2569
  243MOL0     H32021  11.146   1.416  10.419  0.8427  0.9200 -1.1682
  243MOL0     H32022  11.325   1.416  10.391  0.5793 -0.4184  1.0951
  243MOL0     H32023  11.151   1.652  10.455  0.4032 -1.4186  2.0643
  243MOL0     H32024  11.218   1.619  10.301 -1.7646 -2.2647  0.1130
  243MOL0     H32025  11.335   1.752  10.522 -2.2242  1.6165 -2.4748
  243MOL0     H32026  11.445   1.608  10.476 -1.1757 -1.7782  2.3140
  243MOL0     H32027  11.457   1.692  10.233 -0.3091  2.9164 -1.9333
  243MOL0     H32028  11.532   1.783  10.359 -0.0127  0.8609  0.5590
  243MOL0     H32029  11.193   1.889  10.433  2.1522 -2.3581  0.7674
  243MOL0     H32030  11.186   2.228  10.376 -0.6700 -0.3755  0.8520
  243MOL0     H32031  11.069   2.101  10.394  0.4134 -0.0220  1.9491
  243MOL0     H32032  11.135   2.219  10.108  0.5581  1.2518  0.5721
  243MOL0     H32033  11.067   2.335  10.221 -4.1074 -0.2240  0.5820
  243MOL0     H32034  10.925   2.083  10.139  0.3142 -1.3040  1.8058
  243MOL0     H32035  10.890   2.187  10.283  1.7214  0.3280  1.2737
  243MOL0     H32036  10.857   2.369  10.155  1.6887 -0.1599 -0.9928
  243MOL0     H32037  10.764   2.254  10.071  0.3928 -0.2236 -2.9605
  243MOL0     H32038  11.094   2.260   9.778 -0.0549 -0.1680  3.0468
  243MOL0     H32039  11.079   2.073   9.597  0.3552 -1.1695 -0.4472
  243MOL0     H32040  10.766   1.902   9.275  0.9921 -0.2423  3.5359
  243MOL0     H32041  10.745   1.671   9.125 -0.8792  1.0024  1.2780
  243MOL0     H32042  10.843   1.522   8.945 -1.0758 -1.7879 -2.3376
  243MOL0     H32043  10.757   1.445   9.088  0.5172 -3.5445  0.6519
  243MOL0     H32044  10.778   1.283   8.917 -0.6159 -2.4913  2.0702
  243MOL0     H32045  10.851   1.250   9.073  2.5653  2.1139  1.3487
  243MOL0     H32046  11.069   1.303   8.990 -0.7243 -0.4492  0.7699
  243MOL0     H32047  11.026   1.367   8.837  4.4035 -0.7752 -0.0136
  243MOL0     H32048  10.947   1.078   8.889 -2.1891  1.7026  2.1455
  243MOL0     H32049  10.944   1.176   8.745 -1.9920  0.6529  1.3619
  243MOL0     H32050  11.203   1.080   8.871 -0.0839  0.1897 -0.6834
  243MOL0     H32051  11.200   1.220   8.759  0.4577  0.5205  1.1614
  243MOL0     H32052  11.098   1.101   8.577 -0.2061 -0.2865 -0.8752
  243MOL0     H32053  11.099   0.952   8.676  1.1130  0.1248  1.0045
  243MOL0     H32054  11.350   0.995   8.725 -0.4915  1.1787  0.7434
  243MOL0     H32055  11.316   0.903   8.577  2.9208 -0.6092  1.4766
  243MOL0     H32056  11.326   1.201   8.551 -2.3801  0.2978 -2.0835
  243MOL0     H32057  11.318   1.076   8.426 -0.2001 -0.7974  0.0691
  243MOL0     H32058  11.131   1.589   9.265  1.7103  1.2905 -2.1837
  243MOL0     H32059  11.117   1.780   9.433 -0.1290  1.0189 -0.4052
  243MOL0     H32060  10.695   1.970   9.744  0.8373 -1.8001 -0.4285
  243MOL0     H32061  10.695   2.136   9.911 -2.2179  2.2252 -2.4077
  243MOL0     H32062  11.075   0.784  10.395 -1.6709 -2.4978 -0.1470
  243MOL0     H32063  11.070   0.539  10.426  0.0247  0.9326 -0.5302
  243MOL0     H32064  11.156   0.157  10.461 -0.4951 -3.0882 -1.8331
  243MOL0     H32065  11.172  -0.076  10.499 -0.5472  0.5276 -1.8050
  243MOL0     H32066  10.923  -0.256  10.817 -0.8111 -3.3498 -2.6521
  243MOL0     H32067  11.099  -0.240  10.877 -4.1325  3.7697  2.2571
  243MOL0     H32068  10.958  -0.480  10.744 -1.9306  0.3257  1.4148
  243MOL0     H32069  11.136  -0.471  10.787 -0.5718 -0.4150 -0.0153
  243MOL0     H32070  10.904  -0.447  10.992  0.7956 -0.6911  2.7459
  243MOL0     H32071  11.054  -0.426  11.032 -1.6304 -0.1045  1.6070
  243MOL0     H32072  10.925  -0.681  10.908  0.3911  1.9318 -1.2354
  243MOL0     H32073  11.101  -0.658  10.921  1.1092  2.4791  0.5435
  243MOL0     H32074  10.918  -0.739  11.307  0.9514 -2.8403 -0.9258
  243MOL0     H32075  10.919  -0.053  10.835  0.9441 -0.2372  1.3679
  243MOL0     H32076  10.917   0.189  10.823  1.0470  0.3390  0.2969
  244MOL0     O32077   9.257   4.875  10.054  0.0986  0.8162 -0.4005
  244MOL0     C32078   9.368   4.910  10.082  0.2893 -0.5549  0.2579
  244MOL0     O32079   9.403   4.985  10.192 -0.7380 -0.1166 -0.2892
  244MOL0     C32080   9.303   5.028  10.280  0.5302  0.1127 -0.7752
  244MOL0     C32081   9.316   4.971  10.407 -0.1682  0.2157  0.3873
  244MOL0     C32082   9.208   4.997  10.499 -0.2355 -0.1942 -0.7584
  244MOL0     C32083   9.107   5.093  10.472 -0.0605 -0.1326 -0.5739
  244MOL0     O32084   9.002   5.123  10.554  0.2142  0.0912 -0.7180
  244MOL0     C32085   8.992   5.078  10.698 -1.0769  0.3906 -0.6136
  244MOL0     C32086   9.070   5.167  10.781 -1.1022 -0.1407  0.4227
  244MOL0     C32087   8.995   5.203  10.913 -0.5019 -0.2483 -0.3951
  244MOL0     C32088   9.060   5.326  10.970 -0.8977 -0.4244 -0.6471
  244MOL0     C32089   9.020   5.341  11.117  0.3758 -1.3277  0.1540
  244MOL0     C32090   8.873   5.334  11.138  0.2856  0.3093  0.3359
  244MOL0     C32091   8.803   5.453  11.072 -1.5712 -0.5282 -0.3375
  244MOL0     C32092   8.651   5.433  11.083  0.5562 -0.2311 -0.3291
  244MOL0     N32093   8.607   5.436  11.220  0.2321  0.0728 -0.5698
  244MOL0     C32094   8.582   5.325  11.296  0.2918  0.5025  0.0685
  244MOL0     C32095   8.518   5.378  11.405  0.2250  0.8890  0.2114
  244MOL0     C32096   8.450   5.292  11.526 -0.1222  0.4256  0.4614
  244MOL0     C32097   8.294   5.287  11.538  0.0728 -0.1417  0.1218
  244MOL0     C32098   8.252   5.220  11.664  0.2222  0.8377 -0.9500
  244MOL0     C32099   8.101   5.204  11.668 -0.9428  0.5805  0.3863
  244MOL0     O32100   8.075   5.097  11.764  0.9450  0.7238  0.6736
  244MOL0     C32101   8.044   5.139  11.891  0.3714  0.2587 -0.3966
  244MOL0     C32102   7.913   5.184  11.911 -0.1502 -0.7200  0.2388
  244MOL0     C32103   7.876   5.232  12.044  0.6041 -0.2937 -0.8179
  244MOL0     C32104   7.987   5.273  12.129 -0.2976 -0.0847  0.1781
  244MOL0     C32105   7.975   5.354  12.254 -0.3893  0.2282 -0.8175
  244MOL0     O32106   8.085   5.387  12.340 -0.6307 -0.3866 -0.1949
  244MOL0     C32107   8.057   5.404  12.472 -0.0400 -1.0584  0.1845
  244MOL0     C32108   8.132   5.334  12.562  0.4521  0.1517 -0.1368
  244MOL0     C32109   8.125   5.376  12.697  0.0993  0.6318 -0.9216
  244MOL0     C32110   8.054   5.484  12.743  0.6540 -0.3466  0.7011
  244MOL0     O32111   8.044   5.523  12.875 -0.6225 -0.4233 -0.2693
  244MOL0     C32112   8.170   5.561  12.934  0.2874  0.3461  1.1742
  244MOL0     C32113   8.139   5.592  13.076  0.3238 -0.7055  0.3328
  244MOL0     C32114   8.238   5.693  13.149  0.7605  0.8588  0.5590
  244MOL0     C32115   8.191   5.709  13.303 -0.3794  0.1115  1.1952
  244MOL0     C32116   8.294   5.789  13.382  0.4940 -0.3746  0.0947
  244MOL0     C32117   8.316   5.936  13.322 -0.3792 -0.6319 -0.3184
  244MOL0     C32118   8.391   6.029  13.420 -0.3018  0.1295  0.5054
  244MOL0     C32119   8.444   6.155  13.348  0.2880  0.3605 -0.5721
  244MOL0    Cl32120   8.305   6.222  13.252  0.2815  0.1515  0.0359
  244MOL0     C32121   7.980   5.553  12.645  0.1161  0.9033 -0.8142
  244MOL0     C32122   7.980   5.510  12.510  0.0591  0.3168 -1.0971
  244MOL0     O32123   7.858   5.385  12.273  0.4294  0.1221  0.8335
  244MOL0     C32124   8.114   5.236  12.100 -0.6841  0.0212  0.5681
  244MOL0     C32125   8.144   5.165  11.985 -0.4222 -0.0592 -0.6278
  244MOL0     N32126   8.509   5.513  11.391  0.0619 -0.3631 -0.3492
  244MOL0     N32127   8.573   5.545  11.282 -0.5794 -0.2310 -0.5863
  244MOL0     C32128   9.104   5.144  10.343 -0.6783  0.0731  0.2127
  244MOL0     C32129   9.198   5.111  10.241  0.0456  0.1426  0.4140
  244MOL0     C32130   9.475   4.881   9.986 -1.5335  0.2268 -0.7599
  244MOL0     C32131   9.451   4.823   9.863 -0.5644  0.7025 -0.7191
  244MOL0     C32132   9.553   4.796   9.778 -0.2469  0.6465 -1.1393
  244MOL0     C32133   9.686   4.816   9.811 -0.1590  1.1707  0.0803
  244MOL0     O32134   9.779   4.795   9.722  0.3761  0.4813 -0.8716
  244MOL0     C32135   9.815   4.657   9.670  0.2475 -0.0359 -0.9011
  244MOL0     C32136   9.963   4.646   9.652  0.3691 -0.2788 -0.0826
  244MOL0     C32137  10.029   4.597   9.780 -0.6501 -0.2552  0.2014
  244MOL0     C32138  10.069   4.449   9.767  0.8276  0.2796  0.0340
  244MOL0     C32139   9.946   4.370   9.748 -0.0388  0.7028  0.5943
  244MOL0     C32140   9.859   4.287   9.732  0.7561  0.3670  0.1051
  244MOL0     C32141   9.720   4.882   9.931 -0.6382 -1.1062 -0.7406
  244MOL0     C32142   9.611   4.924  10.012  0.3435 -0.4550  0.4576
  244MOL0     H32143   9.390   4.893  10.419 -1.8620 -1.2978  1.5683
  244MOL0     H32144   9.199   4.932  10.585 -2.3153 -0.9821 -1.4950
  244MOL0     H32145   9.019   4.973  10.713  0.2829  0.7341 -0.5591
  244MOL0     H32146   8.887   5.082  10.727 -1.0083 -0.3618 -0.2315
  244MOL0     H32147   9.102   5.257  10.729  0.5418 -0.5525  0.6599
  244MOL0     H32148   9.168   5.130  10.812 -0.2301  2.7956  1.4392
  244MOL0     H32149   9.011   5.115  10.974  1.2438 -0.2088 -0.7571
  244MOL0     H32150   8.888   5.226  10.910 -0.2825  0.7812 -1.7177
  244MOL0     H32151   9.169   5.325  10.978 -0.8686 -1.6943 -0.9870
  244MOL0     H32152   9.032   5.414  10.912 -1.4414 -0.7669 -0.9098
  244MOL0     H32153   9.058   5.438  11.150  1.4229 -1.1935 -1.3685
  244MOL0     H32154   9.077   5.270  11.179  2.4456  0.4155  0.3746
  244MOL0     H32155   8.857   5.337  11.246 -0.1599 -0.0655  0.2823
  244MOL0     H32156   8.825   5.238  11.117  0.4835 -0.8900  4.4807
  244MOL0     H32157   8.835   5.546  11.120 -1.1357 -0.9882  0.2789
  244MOL0     H32158   8.830   5.456  10.966  1.0050  0.0729  0.2666
  244MOL0     H32159   8.627   5.331  11.052 -1.2710  0.7022 -2.2371
  244MOL0     H32160   8.596   5.501  11.016  1.1668  0.0866 -0.5123
  244MOL0     H32161   8.615   5.222  11.285  0.6134  0.6855 -0.7707
  244MOL0     H32162   8.494   5.328  11.620  2.8419 -0.9203 -0.2767
  244MOL0     H32163   8.487   5.189  11.520 -0.1884  0.3900  0.6512
  244MOL0     H32164   8.249   5.247  11.446  1.2757  1.9930 -1.4738
  244MOL0     H32165   8.261   5.391  11.543 -1.6032 -0.6358  0.0846
  244MOL0     H32166   8.292   5.119  11.664  2.4986  1.6681 -2.4070
  244MOL0     H32167   8.283   5.281  11.750 -0.2405 -2.0851  1.4382
  244MOL0     H32168   8.058   5.180  11.570  1.4958  0.7124 -0.8079
  244MOL0     H32169   8.064   5.302  11.698 -2.2772 -0.1623  1.2460
  244MOL0     H32170   7.834   5.165  11.839  0.4292 -1.4653 -0.2106
  244MOL0     H32171   7.773   5.258  12.063 -0.3603 -2.9666 -1.8597
  244MOL0     H32172   8.193   5.251  12.528  0.1572  0.7013 -2.1590
  244MOL0     H32173   8.185   5.307  12.756  2.4946  3.4991  0.2347
  244MOL0     H32174   8.211   5.653  12.891  0.3503  0.5847  1.7309
  244MOL0     H32175   8.250   5.486  12.933 -1.7157 -1.9202  1.3710
  244MOL0     H32176   8.143   5.497  13.130  1.7991 -0.0392  1.4712
  244MOL0     H32177   8.036   5.624  13.094  0.1698  1.5090 -3.4596
  244MOL0     H32178   8.224   5.782  13.086  0.3133 -1.0029 -2.1490
  244MOL0     H32179   8.341   5.662  13.132  0.1842 -1.4348  0.9000
  244MOL0     H32180   8.091   5.751  13.296 -1.1849 -1.8516 -0.1466
  244MOL0     H32181   8.186   5.609  13.348 -1.3995  1.0133  3.1667
  244MOL0     H32182   8.390   5.737  13.388  1.6031  1.5731  0.0454
  244MOL0     H32183   8.242   5.795  13.478 -1.4922  1.5813 -1.0114
  244MOL0     H32184   8.219   5.969  13.283 -0.4438 -0.6088 -0.1418
  244MOL0     H32185   8.382   5.938  13.235 -2.7590  1.8945 -2.2514
  244MOL0     H32186   8.316   6.055  13.495 -0.6981  1.5355 -0.3389
  244MOL0     H32187   8.476   5.970  13.455  0.4069 -0.7263 -2.3817
  244MOL0     H32188   8.505   6.127  13.262 -1.4310  1.9908 -2.4218
  244MOL0     H32189   8.508   6.225  13.403  1.1392 -1.5321  0.9953
  244MOL0     H32190   7.905   5.629  12.666 -4.6862 -4.0366  3.0151
  244MOL0     H32191   7.946   5.575  12.430 -2.6765  1.1590  0.6002
  244MOL0     H32192   8.194   5.248  12.172 -0.9230  1.2528  0.6646
  244MOL0     H32193   8.249   5.148  11.964 -0.4521  0.1179 -0.9142
  244MOL0     H32194   9.022   5.212  10.319  0.3583  1.2351 -0.1415
  244MOL0     H32195   9.208   5.156  10.143  1.6349  1.6127  1.1831
  244MOL0     H32196   9.350   4.805   9.827 -1.1421  1.4676  0.4549
  244MOL0     H32197   9.531   4.758   9.678  0.1826 -1.7662 -0.3858
  244MOL0     H32198   9.751   4.642   9.583 -3.0801  2.2331  0.9162
  244MOL0     H32199   9.782   4.586   9.747  0.9216  0.6451  0.0502
  244MOL0     H32200   9.992   4.570   9.579 -0.9867 -2.7530  1.7901
  244MOL0     H32201   9.996   4.739   9.605 -2.1114 -0.4309 -2.3645
  244MOL0     H32202   9.967   4.614   9.868 -0.0972  1.3046  0.3200
  244MOL0     H32203  10.124   4.651   9.784 -0.1625 -1.1321  0.6115
  244MOL0     H32204  10.149   4.421   9.699  2.2778  0.0655  1.7525
  244MOL0     H32205  10.117   4.417   9.860  0.5410 -2.1559 -0.5925
  244MOL0     H32206   9.784   4.213   9.714  1.1201  0.6281 -3.0576
  244MOL0     H32207   9.819   4.923   9.944 -1.2207  0.5125 -1.1692
  244MOL0     H32208   9.634   4.999  10.087  1.1588 -1.1888  0.9582
  245MOL0     O32209  10.509   6.106   5.675 -0.1626 -0.5308  0.0338
  245MOL0     C32210  10.630   6.082   5.672  0.8279 -0.2734 -0.1361
  245MOL0     O32211  10.727   6.152   5.603  0.8454 -0.3928  0.5655
  245MOL0     C32212  10.720   6.287   5.580 -0.7455 -0.0868  1.1856
  245MOL0     C32213  10.803   6.334   5.474 -0.2478  0.4517 -0.5806
  245MOL0     C32214  10.810   6.468   5.454  0.2131  0.4424  0.6289
  245MOL0     C32215  10.730   6.566   5.505  0.1802 -0.2743  0.0862
  245MOL0     O32216  10.750   6.703   5.489  0.6873  0.5599 -0.2946
  245MOL0     C32217  10.636   6.764   5.433  0.7901 -0.0443  1.0929
  245MOL0     C32218  10.663   6.914   5.451 -0.2302 -0.0510  0.2259
  245MOL0     C32219  10.576   7.013   5.371 -1.2295 -0.6097  0.2818
  245MOL0     C32220  10.425   7.005   5.410 -0.2765 -0.0812  0.6158
  245MOL0     C32221  10.335   7.122   5.365 -1.1163 -0.5595 -0.1905
  245MOL0     C32222  10.366   7.243   5.456 -0.2491 -0.5005 -0.0615
  245MOL0     C32223  10.269   7.360   5.426  0.0635 -0.2409 -0.3003
  245MOL0     C32224  10.295   7.481   5.513  1.4437  0.1559  0.8094
  245MOL0     N32225  10.419   7.552   5.467  0.1231  0.2678 -0.7573
  245MOL0     C32226  10.545   7.521   5.507 -0.4501  0.3931  0.1968
  245MOL0     C32227  10.623   7.595   5.432 -0.2057 -0.5257 -0.5808
  245MOL0     C32228  10.773   7.588   5.435  1.1728  1.2332  0.0609
  245MOL0     C32229  10.819   7.447   5.393 -0.0082  0.6875 -0.1535
  245MOL0     C32230  10.971   7.454   5.408  0.5264  0.1669  0.3570
  245MOL0     C32231  11.038   7.325   5.365  0.0315 -0.2053 -0.8043
  245MOL0     O32232  10.996   7.213   5.447  0.1450 -0.0483  0.5575
  245MOL0     C32233  11.067   7.092   5.421 -0.2922  0.1095  1.2166
  245MOL0     C32234  11.014   6.976   5.486  0.2526 -0.6584 -0.0779
  245MOL0     C32235  11.058   6.842   5.451  0.3019  0.0431 -0.1014
  245MOL0     C32236  11.154   6.822   5.356 -0.1263 -0.4143 -0.9397
  245MOL0     C32237  11.199   6.683   5.327 -0.0156 -0.2333 -0.2123
  245MOL0     O32238  11.135   6.580   5.397  0.2665  0.4284 -0.5990
  245MOL0     C32239  11.167   6.445   5.393 -1.5188  0.1349  0.1227
  245MOL0     C32240  11.184   6.372   5.501  0.6785  1.0094 -0.2508
  245MOL0     C32241  11.215   6.234   5.504  0.7064  0.2305  0.0956
  245MOL0     C32242  11.214   6.169   5.380  0.6329 -0.5306 -0.2496
  245MOL0     O32243  11.247   6.033   5.366  0.4834  0.1212 -0.1576
  245MOL0     C32244  11.165   5.938   5.444  0.4165 -0.4059 -0.5637
  245MOL0     C32245  11.126   5.811   5.363  0.2773 -0.7039  0.6122
  245MOL0     C32246  11.056   5.714   5.459 -0.6623 -0.2793  1.6865
  245MOL0     C32247  10.997   5.592   5.378  0.2509 -0.3322  0.6601
  245MOL0     C32248  10.907   5.528   5.468 -0.0657  0.7237 -0.9454
  245MOL0     C32249  10.876   5.382   5.423 -0.6387  0.6186 -0.4449
  245MOL0     C32250  10.944   5.270   5.505 -0.0041 -0.1999 -0.7792
  245MOL0     C32251  11.103   5.270   5.496 -0.1171  0.1491 -0.4911
  245MOL0    Cl32252  11.162   5.095   5.521  0.0607 -0.6203  0.4099
  245MOL0     C32253  11.205   6.248   5.260  0.5299 -0.3273 -0.2222
  245MOL0     C32254  11.193   6.388   5.272  0.0434  0.6921 -0.4395
  245MOL0     O32255  11.294   6.665   5.252 -0.1561 -0.2126  1.0348
  245MOL0     C32256  11.198   6.929   5.292  0.5287 -1.3627 -0.6562
  245MOL0     C32257  11.162   7.061   5.326  0.8930 -0.3277 -0.5777
  245MOL0     N32258  10.547   7.672   5.353  0.0670 -0.7278 -0.0088
  245MOL0     N32259  10.421   7.644   5.366 -0.4217  0.4274 -0.1868
  245MOL0     C32260  10.626   6.513   5.582  0.8637  0.6528 -0.5434
  245MOL0     C32261  10.631   6.378   5.633 -0.1043 -0.2226 -0.6665
  245MOL0     C32262  10.674   5.955   5.730 -0.2108  0.4826  0.9127
  245MOL0     C32263  10.812   5.932   5.748  0.0126 -0.2425 -0.0768
  245MOL0     C32264  10.853   5.821   5.822 -0.8939 -0.0997 -0.0550
  245MOL0     C32265  10.760   5.724   5.861 -0.0207  0.1668 -0.2294
  245MOL0     O32266  10.798   5.604   5.926 -0.1796 -0.4067  1.2677
  245MOL0     C32267  10.934   5.567   5.914 -0.5806  0.0300  0.4610
  245MOL0     C32268  11.021   5.617   6.026 -0.8737 -0.1686 -0.3360
  245MOL0     C32269  10.969   5.586   6.165 -0.0368  0.0421 -0.0580
  245MOL0     C32270  11.073   5.630   6.268  0.5788 -1.6491  0.1524
  245MOL0     C32271  11.215   5.573   6.270 -0.0641 -0.4444  0.2132
  245MOL0     C32272  11.324   5.523   6.285 -0.5168 -0.2996  0.8257
  245MOL0     C32273  10.625   5.746   5.836 -0.3263  0.0250  0.0587
  245MOL0     C32274  10.579   5.858   5.771  0.2856  0.6987 -0.3583
  245MOL0     H32275  10.858   6.266   5.410 -1.6615 -1.8881  0.5110
  245MOL0     H32276  10.889   6.516   5.397 -0.3133 -0.4571 -0.9211
  245MOL0     H32277  10.539   6.736   5.473  2.5147 -1.0862  4.9994
  245MOL0     H32278  10.634   6.742   5.326  2.6506  1.2661  0.7208
  245MOL0     H32279  10.762   6.952   5.423  0.1796 -0.8389  0.5566
  245MOL0     H32280  10.648   6.935   5.557 -0.6838 -0.4694  0.2513
  245MOL0     H32281  10.604   7.016   5.265 -1.6869  1.3319  0.1860
  245MOL0     H32282  10.606   7.105   5.422 -2.2486  0.5912 -1.1849
  245MOL0     H32283  10.389   6.913   5.362 -0.8620  0.4456  0.0113
  245MOL0     H32284  10.422   6.980   5.516 -1.8845  0.0116  0.6144
  245MOL0     H32285  10.232   7.086   5.360 -0.5677 -2.0737 -1.6581
  245MOL0     H32286  10.362   7.150   5.263  0.9134 -3.0568 -0.4446
  245MOL0     H32287  10.465   7.285   5.440 -0.4894  0.6121  1.1971
  245MOL0     H32288  10.360   7.227   5.564 -1.8673  0.9431  0.1073
  245MOL0     H32289  10.283   7.378   5.319  0.4520  0.3300 -0.1544
  245MOL0     H32290  10.166   7.325   5.441 -0.5340  0.2924 -2.6987
  245MOL0     H32291  10.305   7.453   5.619 -2.4669 -1.4879  0.8848
  245MOL0     H32292  10.209   7.546   5.496  0.6258 -1.0561  0.1651
  245MOL0     H32293  10.585   7.458   5.586  1.1387 -0.8859 -1.5425
  245MOL0     H32294  10.797   7.613   5.539  0.1554  0.9488  0.3842
  245MOL0     H32295  10.825   7.671   5.386  2.8550  0.1026 -0.1393
  245MOL0     H32296  10.780   7.417   5.296  0.6543 -0.5503 -0.0595
  245MOL0     H32297  10.787   7.378   5.472 -1.5212  0.4769 -0.9236
  245MOL0     H32298  11.015   7.532   5.345 -0.4245  0.5063  0.0897
  245MOL0     H32299  10.997   7.462   5.514  0.3333 -1.0980  0.5053
  245MOL0     H32300  11.146   7.342   5.356 -0.0826  1.9991  1.1504
  245MOL0     H32301  11.006   7.301   5.263  1.1433 -0.9472 -0.9992
  245MOL0     H32302  10.944   6.976   5.568  2.4490  1.9128  1.9849
  245MOL0     H32303  11.032   6.757   5.512  4.6986 -0.4765  1.4504
  245MOL0     H32304  11.161   6.418   5.596  1.0578  0.4929  0.0981
  245MOL0     H32305  11.224   6.190   5.603 -1.3085 -0.2991  0.0924
  245MOL0     H32306  11.070   5.983   5.474  2.3988  1.6875  3.3922
  245MOL0     H32307  11.217   5.919   5.538  0.0050 -4.0034 -0.9271
  245MOL0     H32308  11.218   5.771   5.320 -0.5291 -0.5511 -1.3553
  245MOL0     H32309  11.062   5.852   5.284  2.3615  1.7941  0.0922
  245MOL0     H32310  10.970   5.772   5.494 -1.7255 -0.7362 -0.0151
  245MOL0     H32311  11.114   5.673   5.541  3.2267  1.2203 -0.0597
  245MOL0     H32312  10.944   5.621   5.287 -0.4713  1.2693  1.5454
  245MOL0     H32313  11.078   5.529   5.339 -1.1448 -1.4081 -0.6247
  245MOL0     H32314  10.810   5.579   5.465 -1.0308 -1.0540 -3.5996
  245MOL0     H32315  10.938   5.525   5.573  0.5624  0.8002 -1.1226
  245MOL0     H32316  10.919   5.371   5.323 -0.0184 -0.8084 -0.0453
  245MOL0     H32317  10.769   5.358   5.423  0.1181 -3.6322 -2.0075
  245MOL0     H32318  10.910   5.279   5.609 -1.0699 -0.0443 -1.1339
  245MOL0     H32319  10.918   5.173   5.462  1.1239  0.2330 -2.5330
  245MOL0     H32320  11.143   5.339   5.570  1.2942  0.0037 -1.0786
  245MOL0     H32321  11.140   5.297   5.396  2.0870  0.4582  0.3545
  245MOL0     H32322  11.212   6.211   5.158  0.1328 -0.4376 -0.2115
  245MOL0     H32323  11.203   6.445   5.180  0.5382  0.3893 -0.5783
  245MOL0     H32324  11.257   6.931   5.201  0.2959 -0.1261 -0.7972
  245MOL0     H32325  11.200   7.137   5.258 -1.1634  0.7734 -0.5688
  245MOL0     H32326  10.543   6.574   5.616  0.4191 -0.8045  1.1400
  245MOL0     H32327  10.565   6.346   5.712  2.2278  0.4463  1.6935
  245MOL0     H32328  10.878   6.016   5.727 -0.3635  0.8575  2.6392
  245MOL0     H32329  10.961   5.823   5.834 -0.8246 -1.2417 -0.3223
  245MOL0     H32330  10.981   5.584   5.817 -0.3293 -0.6683  0.4540
  245MOL0     H32331  10.936   5.458   5.929 -0.9057  0.2592  2.4008
  245MOL0     H32332  11.114   5.561   6.013  0.2346  1.4342  0.3397
  245MOL0     H32333  11.051   5.722   6.017  0.2681 -0.4297  0.2960
  245MOL0     H32334  10.955   5.477   6.174  0.6841  0.1115  3.9985
  245MOL0     H32335  10.872   5.631   6.186 -0.2379 -1.0072  1.4460
  245MOL0     H32336  11.078   5.739   6.258  1.1279 -1.4779  1.8726
  245MOL0     H32337  11.035   5.614   6.370  1.1610  1.3420  0.9474
  245MOL0     H32338  11.412   5.469   6.316 -1.4274 -1.3791  1.6145
  245MOL0     H32339  10.547   5.679   5.871  0.4586  0.0635  1.9985
  245MOL0     H32340  10.473   5.866   5.748 -0.0692  4.1420  1.6787
  246MOL0     O32341   1.744   8.749   9.078  0.0737  0.0249 -0.2661
  246MOL0     C32342   1.749   8.872   9.070 -0.3039 -0.3535 -0.6565
  246MOL0     O32343   1.737   8.964   9.177 -0.0024  0.6207  0.2591
  246MOL0     C32344   1.725   8.922   9.308  0.4958 -0.4181  0.4395
  246MOL0     C32345   1.794   8.980   9.415 -0.7747  0.8812 -1.1183
  246MOL0     C32346   1.773   8.946   9.546  0.4810  0.1055  0.3251
  246MOL0     C32347   1.666   8.854   9.571  0.5483  0.6353  0.3892
  246MOL0     O32348   1.658   8.809   9.700 -0.0399  0.7113 -0.0471
  246MOL0     C32349   1.544   8.748   9.745  1.1441 -1.1819 -0.1961
  246MOL0     C32350   1.561   8.714   9.893  0.7484 -0.3899  0.6643
  246MOL0     C32351   1.577   8.845   9.971  0.2782 -0.4845  0.2706
  246MOL0     C32352   1.628   8.820  10.113 -0.3424  0.4146 -0.4136
  246MOL0     C32353   1.671   8.953  10.173  0.6505  0.2128 -1.0813
  246MOL0     C32354   1.701   8.926  10.319 -0.4995 -0.3737  0.1306
  246MOL0     C32355   1.796   9.024  10.379  0.3488 -1.3135 -0.3311
  246MOL0     C32356   1.729   9.167  10.383  0.2904  0.2645  1.0166
  246MOL0     N32357   1.827   9.253  10.446 -0.8889 -0.1459 -0.8228
  246MOL0     C32358   1.917   9.223  10.553 -0.2181  0.6206 -1.2028
  246MOL0     C32359   1.977   9.343  10.576 -0.0831  0.1403 -0.3357
  246MOL0     C32360   2.053   9.377  10.694 -0.7166  0.0708  0.5731
  246MOL0     C32361   1.952   9.444  10.787 -0.0004 -0.9343 -0.1491
  246MOL0     C32362   2.001   9.471  10.930  0.6964  0.1475 -0.3052
  246MOL0     C32363   1.980   9.333  11.022  0.0852 -0.2320  0.2331
  246MOL0     O32364   2.077   9.234  10.986 -0.1597  0.0617 -0.1855
  246MOL0     C32365   2.080   9.111  11.046  0.8016  0.2223  0.5624
  246MOL0     C32366   2.187   9.025  11.031  0.3478 -0.4630 -0.2128
  246MOL0     C32367   2.171   8.900  11.077  0.0110  0.4862  0.4036
  246MOL0     C32368   2.059   8.843  11.142  0.5975 -0.6581 -0.5019
  246MOL0     C32369   2.046   8.704  11.194  1.6075  0.6710  0.3074
  246MOL0     O32370   1.919   8.645  11.218  0.4738 -0.4391  0.3975
  246MOL0     C32371   1.922   8.511  11.254  0.7415 -0.6029 -0.7401
  246MOL0     C32372   1.865   8.412  11.176  0.2573 -0.4848  0.6117
  246MOL0     C32373   1.876   8.278  11.212  0.7543  0.2496  0.5421
  246MOL0     C32374   1.946   8.238  11.325  0.3680  0.3900  2.2021
  246MOL0     O32375   1.950   8.112  11.364  0.0026  0.1952 -0.1459
  246MOL0     C32376   1.848   8.019  11.311 -0.7320 -0.2078 -0.0916
  246MOL0     C32377   1.702   8.038  11.357  0.3775  0.7987 -0.6751
  246MOL0     C32378   1.630   7.904  11.394  1.1202 -0.1184  0.0650
  246MOL0     C32379   1.486   7.930  11.430  0.2355  0.0982 -0.7580
  246MOL0     C32380   1.429   7.836  11.530  0.6235  0.1837 -0.8130
  246MOL0     C32381   1.405   7.691  11.477 -0.2012 -0.5443 -0.2643
  246MOL0     C32382   1.318   7.692  11.347  0.6429 -0.3268  0.4818
  246MOL0     C32383   1.224   7.569  11.352  0.5660 -0.8472 -0.1110
  246MOL0    Cl32384   1.119   7.567  11.207  0.1949 -0.0334  0.5122
  246MOL0     C32385   1.977   8.341  11.415 -0.1507 -0.8225 -0.9118
  246MOL0     C32386   1.963   8.478  11.381  0.6265 -0.2341  0.1400
  246MOL0     O32387   2.150   8.645  11.209 -0.3586  0.0595  0.0011
  246MOL0     C32388   1.947   8.930  11.156  0.9093 -0.9066  0.4187
  246MOL0     C32389   1.962   9.070  11.114  1.4333  0.2404 -0.1604
  246MOL0     N32390   1.923   9.437  10.490 -0.2151  0.0547  0.2820
  246MOL0     N32391   1.838   9.378  10.414  0.8133 -0.7829 -0.7873
  246MOL0     C32392   1.587   8.798   9.467  0.7185  0.1133  0.3980
  246MOL0     C32393   1.623   8.827   9.340 -1.5133 -1.0853  0.4433
  246MOL0     C32394   1.777   8.918   8.936 -1.0819 -0.2686  0.7997
  246MOL0     C32395   1.846   9.036   8.915  0.5640  0.7816 -0.2430
  246MOL0     C32396   1.912   9.070   8.794  0.1368  0.3041 -0.2322
  246MOL0     C32397   1.896   8.991   8.681  0.3403  1.1403  0.2039
  246MOL0     O32398   1.961   9.016   8.564 -0.6509 -0.0959 -0.1576
  246MOL0     C32399   1.993   9.154   8.530 -1.1501  0.3205  0.3961
  246MOL0     C32400   2.144   9.177   8.552  0.5755  0.3287 -0.4373
  246MOL0     C32401   2.194   9.306   8.483 -0.1425 -0.5268 -0.4810
  246MOL0     C32402   2.104   9.432   8.492 -0.2033 -0.8016  0.5017
  246MOL0     C32403   2.049   9.476   8.621  0.8272  0.3010 -0.2798
  246MOL0     C32404   2.021   9.504   8.735 -0.2306  0.3324  0.2323
  246MOL0     C32405   1.806   8.874   8.696 -0.0477 -0.2026  0.0095
  246MOL0     C32406   1.755   8.838   8.824 -0.5528  0.3204  0.3178
  246MOL0     H32407   1.859   9.064   9.394  2.2304 -0.7980  0.7353
  246MOL0     H32408   1.839   8.983   9.624  0.2936 -2.4694  1.8385
  246MOL0     H32409   1.521   8.652   9.698 -0.9084 -1.1246  0.5835
  246MOL0     H32410   1.460   8.815   9.723  2.1180  0.1264 -0.1003
  246MOL0     H32411   1.641   8.647   9.925 -0.8459 -3.5729 -1.5760
  246MOL0     H32412   1.473   8.664   9.935 -0.3582 -0.9320 -2.1112
  246MOL0     H32413   1.480   8.895   9.980  0.3819  0.6440 -3.4642
  246MOL0     H32414   1.646   8.911   9.918 -0.9474  0.3570 -0.3200
  246MOL0     H32415   1.556   8.766  10.175  1.3569  0.1418  1.4201
  246MOL0     H32416   1.718   8.758  10.117  0.4213  1.4804 -0.5150
  246MOL0     H32417   1.594   9.030  10.177 -0.4767 -0.8563 -1.5169
  246MOL0     H32418   1.759   8.983  10.114  2.9858 -1.5016  1.2876
  246MOL0     H32419   1.743   8.829  10.347 -1.6059 -1.2202 -1.0611
  246MOL0     H32420   1.603   8.930  10.367 -0.7789 -2.2997 -0.1889
  246MOL0     H32421   1.810   9.001  10.485  2.0948  3.0229  0.5704
  246MOL0     H32422   1.893   9.031  10.329  0.8296  1.1780  0.8232
  246MOL0     H32423   1.641   9.159  10.447 -0.8165  0.9997 -0.3488
  246MOL0     H32424   1.712   9.211  10.284 -0.3807 -0.6397  0.7173
  246MOL0     H32425   1.919   9.143  10.626 -0.9726  2.2602  0.7173
  246MOL0     H32426   2.137   9.445  10.677 -0.6835 -0.1861 -0.3494
  246MOL0     H32427   2.102   9.288  10.734 -2.2043  0.6942  4.1484
  246MOL0     H32428   1.854   9.393  10.786  0.0924 -1.1357 -1.8618
  246MOL0     H32429   1.938   9.546  10.752 -3.8632 -1.1526  0.3012
  246MOL0     H32430   2.103   9.508  10.918  0.4440  1.1168  0.4323
  246MOL0     H32431   1.930   9.546  10.965  1.3997  1.3471 -1.3751
  246MOL0     H32432   1.885   9.288  10.991  0.4491 -2.2869  1.8938
  246MOL0     H32433   1.989   9.341  11.130  1.4186  1.4294  0.0359
  246MOL0     H32434   2.284   9.063  11.001  0.6471  0.5044  1.7954
  246MOL0     H32435   2.257   8.842  11.045  0.3789  1.9224 -1.3765
  246MOL0     H32436   1.831   8.461  11.085  1.8876  0.6532  0.5644
  246MOL0     H32437   1.831   8.206  11.145  1.0366  1.3761 -0.9056
  246MOL0     H32438   1.888   7.927  11.354  3.9175  1.1186 -1.0780
  246MOL0     H32439   1.866   8.001  11.205  2.8392  0.4601  0.2922
  246MOL0     H32440   1.638   8.095  11.289 -0.7228  0.4789  0.0653
  246MOL0     H32441   1.708   8.088  11.454 -1.4119 -2.4173  1.2985
  246MOL0     H32442   1.683   7.852  11.475  2.5119 -0.1795 -0.8391
  246MOL0     H32443   1.636   7.833  11.310 -1.6903  1.0660 -1.2744
  246MOL0     H32444   1.470   8.028  11.477 -1.8285 -0.6549  0.2668
  246MOL0     H32445   1.423   7.935  11.341 -0.2880  3.7945 -0.3594
  246MOL0     H32446   1.335   7.881  11.564  1.1846  0.1907  0.8264
  246MOL0     H32447   1.489   7.829  11.621 -2.8723  1.2290  1.7722
  246MOL0     H32448   1.363   7.632  11.559 -0.2341 -0.6079 -0.3269
  246MOL0     H32449   1.506   7.656  11.455  0.7191  2.4505 -1.3801
  246MOL0     H32450   1.257   7.781  11.336  2.1604  0.5637 -1.2078
  246MOL0     H32451   1.390   7.681  11.265 -0.0888  0.7374 -0.3248
  246MOL0     H32452   1.166   7.563  11.445  1.5545 -1.5467  0.4869
  246MOL0     H32453   1.285   7.479  11.363  1.6228 -0.0052  1.3354
  246MOL0     H32454   2.009   8.311  11.514  0.9290  1.0007 -0.6803
  246MOL0     H32455   1.990   8.562  11.445 -0.8094  1.2492 -1.0935
  246MOL0     H32456   1.857   8.897  11.206 -2.1049  3.4585 -1.4697
  246MOL0     H32457   1.867   9.120  11.127 -0.2704 -1.7489 -3.5539
  246MOL0     H32458   1.505   8.730   9.492  0.8888  0.7995  3.1821
  246MOL0     H32459   1.575   8.779   9.256  0.5935 -0.3238 -1.3144
  246MOL0     H32460   1.883   9.081   9.007  2.6629 -1.9317  0.3465
  246MOL0     H32461   1.966   9.165   8.798  2.8833 -1.1000 -1.2424
  246MOL0     H32462   1.943   9.234   8.586 -0.9530  1.1850 -0.6219
  246MOL0     H32463   1.982   9.161   8.421  2.7730 -1.2638 -0.2470
  246MOL0     H32464   2.170   9.184   8.658 -0.7636  0.2876 -0.0858
  246MOL0     H32465   2.195   9.095   8.502 -0.3134 -1.2267  1.1149
  246MOL0     H32466   2.204   9.277   8.379 -5.5348 -1.1608 -1.0740
  246MOL0     H32467   2.293   9.323   8.527 -1.3539 -2.0274  3.2380
  246MOL0     H32468   2.168   9.514   8.457  0.5978 -1.4958  0.3075
  246MOL0     H32469   2.015   9.418   8.429  0.0928 -2.0019  0.3333
  246MOL0     H32470   1.981   9.510   8.834 -3.0042  3.0220 -0.8841
  246MOL0     H32471   1.791   8.811   8.609  2.2105  0.7646 -1.1631
  246MOL0     H32472   1.715   8.740   8.851  2.4185 -1.4721 -1.2251
  247MOL0     O32473  11.245   7.050   7.935  0.3918  0.6946 -0.1529
  247MOL0     C32474  11.314   7.039   7.837 -0.5381 -0.5452 -0.5865
  247MOL0     O32475  11.303   6.937   7.746  0.0356 -0.3996  0.4833
  247MOL0     C32476  11.210   6.838   7.750  0.1135  1.2191 -0.8718
  247MOL0     C32477  11.132   6.799   7.638  0.5395 -0.0436 -0.4730
  247MOL0     C32478  11.045   6.693   7.656  1.1044 -0.2369  0.2357
  247MOL0     C32479  11.032   6.622   7.775 -0.0819 -0.3747 -0.0400
  247MOL0     O32480  10.943   6.520   7.794 -0.3819 -0.3187  0.3910
  247MOL0     C32481  10.813   6.564   7.821 -0.8934 -0.7955 -1.1070
  247MOL0     C32482  10.738   6.440   7.865  0.7025  0.7985 -0.4091
  247MOL0     C32483  10.652   6.366   7.761 -0.1689 -0.0240 -0.0223
  247MOL0     C32484  10.718   6.311   7.635 -0.4301 -0.0634 -0.4359
  247MOL0     C32485  10.610   6.241   7.551 -0.2966  0.5729 -0.1550
  247MOL0     C32486  10.560   6.109   7.619 -1.0813 -0.5366  0.6854
  247MOL0     C32487  10.462   6.022   7.545 -0.0188  1.3991 -0.6168
  247MOL0     C32488  10.463   5.872   7.592  0.5448  0.0232 -0.5633
  247MOL0     N32489  10.388   5.807   7.487  0.5558 -0.3038  0.0402
  247MOL0     C32490  10.262   5.835   7.439 -0.4515  0.1520  0.5916
  247MOL0     C32491  10.247   5.742   7.339 -0.1366 -0.6817 -0.7979
  247MOL0     C32492  10.120   5.738   7.266  0.4147  0.2017  0.3616
  247MOL0     C32493  10.141   5.799   7.130  0.4078 -0.2677  1.0739
  247MOL0     C32494  10.159   5.953   7.137  0.4533  0.6970 -0.6559
  247MOL0     C32495  10.130   6.017   7.007  0.1050 -0.8599  0.2736
  247MOL0     O32496  10.201   5.952   6.897  0.3812  0.7257  0.3307
  247MOL0     C32497  10.181   6.019   6.778 -0.0718 -0.4591 -0.8073
  247MOL0     C32498  10.061   6.069   6.722  0.2913 -0.9206 -0.4078
  247MOL0     C32499  10.063   6.142   6.607  0.2623 -0.9984  0.0561
  247MOL0     C32500  10.185   6.176   6.543  0.4172  0.5015  0.8092
  247MOL0     C32501  10.166   6.259   6.418  0.4877 -0.8293 -0.3635
  247MOL0     O32502  10.039   6.304   6.392  0.5161  0.5622 -0.1488
  247MOL0     C32503  10.021   6.420   6.331 -0.8795 -0.1458  0.2339
  247MOL0     C32504  10.060   6.527   6.403  1.3857 -1.2523 -0.3498
  247MOL0     C32505  10.030   6.660   6.344  0.0826  1.0020 -0.7118
  247MOL0     C32506   9.964   6.674   6.225 -0.1514  0.0901 -0.2834
  247MOL0     O32507   9.950   6.783   6.152 -0.5099 -0.5526  0.3896
  247MOL0     C32508   9.950   6.908   6.238  0.4061  0.1245 -0.0890
  247MOL0     C32509   9.874   7.012   6.155 -0.2354  0.0555 -0.5039
  247MOL0     C32510   9.795   7.109   6.244  0.4697 -0.6766  0.0207
  247MOL0     C32511   9.704   7.203   6.151 -0.3280  0.0610 -0.0066
  247MOL0     C32512   9.591   7.269   6.230 -0.3995  0.1087  0.0021
  247MOL0     C32513   9.473   7.172   6.261 -0.4940  0.1418 -0.4502
  247MOL0     C32514   9.436   7.175   6.413  0.4008  0.1169  0.6508
  247MOL0     C32515   9.308   7.091   6.443  0.0256 -0.2416  0.1985
  247MOL0    Cl32516   9.169   7.154   6.332  0.5272 -0.6568 -0.2469
  247MOL0     C32517   9.910   6.556   6.165  0.3971  0.0839 -0.2088
  247MOL0     C32518   9.944   6.428   6.216  0.5102  0.2892 -1.1650
  247MOL0     O32519  10.262   6.302   6.355 -0.1893  0.1769  0.1656
  247MOL0     C32520  10.303   6.141   6.600  0.3798 -0.9174  0.1681
  247MOL0     C32521  10.305   6.055   6.711  0.0992  1.2837 -0.2208
  247MOL0     N32522  10.359   5.670   7.313  0.6532 -0.5695  0.0262
  247MOL0     N32523  10.441   5.717   7.403  0.0226  0.2722 -0.9271
  247MOL0     C32524  11.113   6.657   7.884 -0.6730 -0.2810  0.2957
  247MOL0     C32525  11.205   6.763   7.870 -0.2708  0.2222 -0.2427
  247MOL0     C32526  11.417   7.136   7.816 -0.0226  0.1398  0.7946
  247MOL0     C32527  11.478   7.136   7.689 -0.1774  0.7275 -0.1656
  247MOL0     C32528  11.592   7.210   7.668  0.2523 -0.1117  0.2462
  247MOL0     C32529  11.642   7.297   7.770 -0.3222 -0.2363  0.1116
  247MOL0     O32530  11.757   7.365   7.750 -0.1707  0.4938  1.1152
  247MOL0     C32531  11.880   7.293   7.799 -0.6862 -0.2932  0.6741
  247MOL0     C32532  11.973   7.276   7.678  0.0431 -0.1707 -0.7807
  247MOL0     C32533  12.052   7.392   7.625  0.7998  0.2833 -0.2862
  247MOL0     C32534  12.186   7.354   7.554  0.9701  0.5237  0.1694
  247MOL0     C32535  12.205   7.431   7.429  0.3053 -0.3615  0.8149
  247MOL0     C32536  12.224   7.501   7.331  0.8190  0.2518 -0.5489
  247MOL0     C32537  11.571   7.319   7.888 -0.0951  0.3158 -0.9120
  247MOL0     C32538  11.461   7.228   7.908  0.1667  0.3229 -0.1892
  247MOL0     H32539  11.137   6.860   7.548  0.4254  0.8834  0.1333
  247MOL0     H32540  10.987   6.672   7.567  0.8404  0.0894  0.3302
  247MOL0     H32541  10.772   6.596   7.724  2.1398 -2.7139 -3.2064
  247MOL0     H32542  10.818   6.635   7.904 -1.2067 -1.8898 -0.1275
  247MOL0     H32543  10.657   6.482   7.925  0.9445 -0.6262  0.9711
  247MOL0     H32544  10.800   6.373   7.926 -3.1658 -1.8431  0.9645
  247MOL0     H32545  10.576   6.439   7.730  1.6561  2.6425  1.3637
  247MOL0     H32546  10.609   6.285   7.820  0.6951  0.1633  0.8869
  247MOL0     H32547  10.768   6.396   7.587 -1.2621  0.6687 -0.0392
  247MOL0     H32548  10.792   6.236   7.662  0.5387  1.1379  0.3647
  247MOL0     H32549  10.636   6.224   7.446  1.1605 -1.6001  0.4856
  247MOL0     H32550  10.533   6.318   7.545 -2.0343 -0.9690  1.3320
  247MOL0     H32551  10.509   6.139   7.711  0.7583  1.7516  1.0526
  247MOL0     H32552  10.646   6.049   7.649 -0.1979  0.5310  0.3397
  247MOL0     H32553  10.369   6.079   7.545  1.6139  4.2784 -0.9404
  247MOL0     H32554  10.490   6.022   7.439 -0.7131  2.3809 -0.8163
  247MOL0     H32555  10.412   5.842   7.684  1.0641  3.5530  1.0622
  247MOL0     H32556  10.564   5.831   7.590 -0.2355 -2.2643  1.8360
  247MOL0     H32557  10.192   5.910   7.473 -1.1478 -0.5008  0.6191
  247MOL0     H32558  10.034   5.782   7.318 -0.9826 -0.7045 -1.0903
  247MOL0     H32559  10.107   5.632   7.242 -0.8890  0.3365  0.4059
  247MOL0     H32560  10.051   5.778   7.070  0.8063  1.0247 -0.0307
  247MOL0     H32561  10.219   5.747   7.073 -0.4005  1.3069 -1.6543
  247MOL0     H32562  10.099   6.000   7.216  0.8292  2.0602 -1.1625
  247MOL0     H32563  10.261   5.979   7.164  0.5991 -1.7205  1.5550
  247MOL0     H32564  10.164   6.121   7.008 -0.0349 -0.7942 -0.6927
  247MOL0     H32565  10.024   6.007   6.983  0.3618 -1.9823 -0.4428
  247MOL0     H32566   9.975   6.035   6.779  2.6874 -3.0181  2.2667
  247MOL0     H32567   9.962   6.161   6.570  0.3595 -2.8784 -1.3938
  247MOL0     H32568  10.122   6.521   6.492 -0.8771 -1.9728  1.2647
  247MOL0     H32569  10.086   6.734   6.399  1.9896 -0.9153  0.0851
  247MOL0     H32570  10.051   6.941   6.265  0.0111 -1.0962  3.4592
  247MOL0     H32571   9.906   6.886   6.336  3.3555 -2.3350  0.8400
  247MOL0     H32572   9.807   6.963   6.083  1.7301 -1.1723 -1.6085
  247MOL0     H32573   9.947   7.075   6.105 -0.2433  1.8488  1.5835
  247MOL0     H32574   9.869   7.168   6.299  1.2986 -0.3600 -1.3846
  247MOL0     H32575   9.728   7.054   6.310 -0.0896 -1.6195 -1.2840
  247MOL0     H32576   9.767   7.283   6.110 -0.9540 -0.6580 -2.5610
  247MOL0     H32577   9.666   7.143   6.067 -0.3122  1.4229 -1.0294
  247MOL0     H32578   9.554   7.357   6.177 -1.5878 -0.0482  0.5411
  247MOL0     H32579   9.644   7.299   6.321  2.4433 -1.7143 -0.9247
  247MOL0     H32580   9.500   7.067   6.245 -1.0988 -0.2794  1.0883
  247MOL0     H32581   9.389   7.191   6.194 -1.8340  2.2461  1.6720
  247MOL0     H32582   9.510   7.130   6.479 -0.7471 -0.4324  1.6028
  247MOL0     H32583   9.421   7.278   6.446 -4.4871 -1.1693  3.4732
  247MOL0     H32584   9.277   7.120   6.544  0.1976  1.4497 -0.2014
  247MOL0     H32585   9.322   6.982   6.448  1.4733 -0.0274  2.2137
  247MOL0     H32586   9.865   6.562   6.067  3.0216  0.0184 -1.5012
  247MOL0     H32587   9.909   6.331   6.181  1.7408 -0.5323 -0.2075
  247MOL0     H32588  10.396   6.151   6.546  0.3308  1.7271  0.4695
  247MOL0     H32589  10.400   6.007   6.732  0.3019  2.2420  1.2395
  247MOL0     H32590  11.115   6.587   7.967  0.0474  1.1998  1.5790
  247MOL0     H32591  11.277   6.776   7.950 -0.9115 -1.4708  0.6655
  247MOL0     H32592  11.423   7.087   7.609  2.1975  1.8456 -2.6578
  247MOL0     H32593  11.632   7.203   7.567 -2.3265  1.2818 -0.9700
  247MOL0     H32594  11.865   7.196   7.847  2.3333 -0.9361  0.4870
  247MOL0     H32595  11.926   7.357   7.875  0.8164  1.1742 -1.3528
  247MOL0     H32596  12.043   7.198   7.706 -0.5449 -0.6743 -0.6897
  247MOL0     H32597  11.910   7.229   7.602  2.7005 -2.6473 -1.6237
  247MOL0     H32598  12.071   7.455   7.712 -0.6574 -2.6050  2.3079
  247MOL0     H32599  11.984   7.433   7.550  0.7448 -3.5675 -2.6737
  247MOL0     H32600  12.264   7.385   7.624  1.6630  0.9607 -0.7758
  247MOL0     H32601  12.188   7.248   7.529 -1.8425  0.0076  1.6855
  247MOL0     H32602  12.242   7.558   7.242  2.2660 -0.1764 -0.5533
  247MOL0     H32603  11.591   7.394   7.963 -1.6687 -1.2449  1.1990
  247MOL0     H32604  11.413   7.231   8.005 -1.7406 -0.9404 -1.0315
  248MOL0     O32605   1.946  10.932   1.698  0.6726  0.3985  0.6948
  248MOL0     C32606   1.892  11.003   1.781 -1.6178 -0.3526 -0.2893
  248MOL0     O32607   1.847  10.958   1.908  1.0932  0.2603 -0.0471
  248MOL0     C32608   1.833  10.824   1.935  0.2870 -0.7473 -0.2379
  248MOL0     C32609   1.829  10.715   1.849  0.6886 -0.3364 -0.0842
  248MOL0     C32610   1.825  10.581   1.898 -0.4669  0.1220  0.2491
  248MOL0     C32611   1.835  10.561   2.033 -0.4493  0.6188 -0.2489
  248MOL0     O32612   1.841  10.435   2.097 -0.4108 -0.6258 -0.2965
  248MOL0     C32613   1.842  10.311   2.014 -0.8072 -0.2293  0.7336
  248MOL0     C32614   1.824  10.193   2.106 -0.7866 -1.0977  0.0086
  248MOL0     C32615   1.809  10.064   2.032 -0.2353  0.8778 -0.2311
  248MOL0     C32616   1.801   9.953   2.129  0.2365 -0.4080  0.0240
  248MOL0     C32617   1.729   9.820   2.091  0.6110 -0.5887  0.4011
  248MOL0     C32618   1.767   9.705   2.173 -0.7288  0.4903 -0.8716
  248MOL0     C32619   1.696   9.573   2.146 -1.2445  0.6876 -0.2883
  248MOL0     C32620   1.746   9.467   2.242 -0.8956 -0.2242  0.4741
  248MOL0     N32621   1.693   9.514   2.371 -0.1653 -0.3015 -0.0588
  248MOL0     C32622   1.767   9.581   2.470  0.0376  0.1194 -0.5766
  248MOL0     C32623   1.684   9.644   2.557  0.9501  0.3783  0.2938
  248MOL0     C32624   1.688   9.740   2.669  0.6083 -0.3555 -0.6246
  248MOL0     C32625   1.822   9.806   2.687 -0.6966 -0.7608  0.2963
  248MOL0     C32626   1.885   9.870   2.565  0.4153 -1.0670 -0.5873
  248MOL0     C32627   1.799   9.986   2.512 -0.6196  0.1694 -0.8418
  248MOL0     O32628   1.773  10.070   2.624 -0.5034 -0.1169  0.3732
  248MOL0     C32629   1.819  10.200   2.601  0.4338  0.3497 -0.3049
  248MOL0     C32630   1.901  10.246   2.695 -0.3806 -0.1406 -0.6768
  248MOL0     C32631   1.971  10.365   2.686 -0.3383  0.4266  0.0201
  248MOL0     C32632   1.954  10.444   2.571  0.7468 -0.5461  0.6764
  248MOL0     C32633   2.004  10.584   2.564 -0.8083  0.4037  0.1011
  248MOL0     O32634   1.948  10.658   2.472 -0.4099 -0.1390  0.4802
  248MOL0     C32635   1.993  10.782   2.435 -0.4752 -0.6222  0.6253
  248MOL0     C32636   2.126  10.803   2.373  0.4549 -0.5339  0.3312
  248MOL0     C32637   2.155  10.930   2.326  0.0948 -0.4499 -0.4149
  248MOL0     C32638   2.073  11.035   2.348 -0.0576  0.4188 -0.1657
  248MOL0     O32639   2.125  11.141   2.288  0.2222 -0.2701  0.4818
  248MOL0     C32640   2.047  11.185   2.174 -0.1194  0.3662 -0.5048
  248MOL0     C32641   2.050  11.338   2.153 -0.4976 -0.7827 -0.5021
  248MOL0     C32642   2.034  11.421   2.284  0.3561  0.2740  1.1203
  248MOL0     C32643   1.988  11.577   2.264 -0.3583 -0.0720  0.4754
  248MOL0     C32644   2.071  11.669   2.158 -0.0430 -0.1591  0.2676
  248MOL0     C32645   2.008  11.805   2.146  0.2084 -0.4433 -0.5723
  248MOL0     C32646   2.018  11.886   2.279  0.5534 -0.2748  0.3364
  248MOL0     C32647   1.910  11.990   2.315  0.1446  0.1483  0.4663
  248MOL0    Cl32648   1.761  11.912   2.398  0.5212 -0.4009  0.1554
  248MOL0     C32649   1.950  11.022   2.416 -0.4263  0.2872 -0.4196
  248MOL0     C32650   1.913  10.893   2.457 -0.3364 -0.1911 -0.6300
  248MOL0     O32651   2.092  10.621   2.641  0.4887 -0.4343  0.0309
  248MOL0     C32652   1.875  10.399   2.466 -0.7947  0.5150 -0.7392
  248MOL0     C32653   1.811  10.274   2.485 -0.1581 -0.6394 -0.1408
  248MOL0     N32654   1.557   9.592   2.517  0.0271 -0.6670 -1.5105
  248MOL0     N32655   1.562   9.515   2.410  0.0376  0.4384  0.2462
  248MOL0     C32656   1.834  10.663   2.123  0.6123  0.3156  0.5544
  248MOL0     C32657   1.846  10.792   2.072  0.4977 -0.4816  0.6795
  248MOL0     C32658   1.890  11.154   1.755 -0.4140  0.1176  0.7230
  248MOL0     C32659   1.832  11.244   1.843 -0.2886 -0.1808 -0.9398
  248MOL0     C32660   1.812  11.381   1.808  0.4446  0.6216  0.5785
  248MOL0     C32661   1.867  11.433   1.689  0.0738 -0.2917  0.3390
  248MOL0     O32662   1.855  11.559   1.649  0.0538 -0.6200 -0.6393
  248MOL0     C32663   1.766  11.648   1.719 -1.5362 -0.1285 -0.4145
  248MOL0     C32664   1.789  11.791   1.687 -0.5060  0.1160  0.5802
  248MOL0     C32665   1.727  11.896   1.790 -0.5118 -0.2655  0.1135
  248MOL0     C32666   1.795  12.029   1.758 -0.3493 -0.4813 -0.1179
  248MOL0     C32667   1.931  12.018   1.806 -0.8137 -0.4387 -0.2950
  248MOL0     C32668   2.051  12.032   1.839 -0.0715  0.1511 -0.7981
  248MOL0     C32669   1.932  11.344   1.605  0.7129  0.2528  0.1885
  248MOL0     C32670   1.939  11.212   1.631  0.0757 -0.4090  1.0257
  248MOL0     H32671   1.836  10.719   1.740 -1.3267 -5.1831 -0.6513
  248MOL0     H32672   1.820  10.496   1.831 -1.1349 -0.5286  1.1041
  248MOL0     H32673   1.944  10.291   1.979 -1.4443 -1.8279 -0.3052
  248MOL0     H32674   1.781  10.298   1.924  1.7623  1.4867 -1.3805
  248MOL0     H32675   1.742  10.220   2.173 -0.4080  2.5271 -0.7698
  248MOL0     H32676   1.910  10.186   2.174  0.2934 -0.7555 -1.2775
  248MOL0     H32677   1.891  10.047   1.961 -2.5770 -1.5421 -2.5791
  248MOL0     H32678   1.710  10.066   1.985 -0.5325 -1.3083  0.1877
  248MOL0     H32679   1.903   9.926   2.160  0.6355 -2.3419 -2.6048
  248MOL0     H32680   1.752  10.009   2.209 -0.7578 -0.1667 -0.7399
  248MOL0     H32681   1.755   9.798   1.987  1.4237  2.0512 -0.0438
  248MOL0     H32682   1.621   9.835   2.089  0.6297 -0.3408 -2.6042
  248MOL0     H32683   1.741   9.734   2.275 -0.0298 -0.3772 -0.4286
  248MOL0     H32684   1.874   9.700   2.155 -0.4664 -1.2332  0.8969
  248MOL0     H32685   1.587   9.575   2.142 -1.3483  2.0404  1.5452
  248MOL0     H32686   1.742   9.550   2.049  2.0192 -1.5225  1.5830
  248MOL0     H32687   1.855   9.466   2.228 -1.0807  0.8462 -1.4170
  248MOL0     H32688   1.704   9.371   2.210  0.7274 -1.1494  1.0088
  248MOL0     H32689   1.870   9.614   2.474 -0.8429  2.9827  1.8531
  248MOL0     H32690   1.682   9.675   2.757  2.3020  1.2646  0.7475
  248MOL0     H32691   1.601   9.806   2.668 -0.2601 -1.4088  1.1685
  248MOL0     H32692   1.884   9.720   2.714  1.8086  0.0875 -2.2462
  248MOL0     H32693   1.813   9.876   2.771 -2.1567  1.4143 -1.5627
  248MOL0     H32694   1.979   9.913   2.599  0.5505  0.6067 -2.8850
  248MOL0     H32695   1.901   9.806   2.477  1.6433  0.8544 -1.8257
  248MOL0     H32696   1.702   9.951   2.476 -1.8386  0.3770  1.9625
  248MOL0     H32697   1.867  10.034   2.441  1.3496  1.0633  1.5100
  248MOL0     H32698   1.915  10.184   2.782 -0.8391 -1.2531 -1.3754
  248MOL0     H32699   2.026  10.383   2.778  0.0387  0.2857 -0.1722
  248MOL0     H32700   2.200  10.726   2.355  1.6640  0.6972 -0.1608
  248MOL0     H32701   2.255  10.944   2.285  1.7721 -4.1653  1.8326
  248MOL0     H32702   1.941  11.157   2.175  0.0250 -0.1728  0.4652
  248MOL0     H32703   2.097  11.136   2.090  1.0971 -3.4952  2.1779
  248MOL0     H32704   1.974  11.378   2.084 -1.4094 -0.8113  0.4550
  248MOL0     H32705   2.147  11.362   2.110 -0.1925  0.5593  0.8474
  248MOL0     H32706   2.128  11.422   2.340 -0.9161  1.9545  3.3754
  248MOL0     H32707   1.962  11.364   2.344  0.1841 -0.7572 -0.0179
  248MOL0     H32708   1.886  11.570   2.226  0.5944 -1.0721 -2.1968
  248MOL0     H32709   1.992  11.624   2.363 -1.2189  0.6619  0.1740
  248MOL0     H32710   2.073  11.621   2.060  2.1287  1.1373 -0.4088
  248MOL0     H32711   2.172  11.676   2.200 -0.3168  0.3191  0.8675
  248MOL0     H32712   1.903  11.785   2.124 -0.0022  1.3974 -1.3584
  248MOL0     H32713   2.050  11.858   2.061 -0.5270  1.1114 -0.0153
  248MOL0     H32714   2.045  11.835   2.372 -2.3235  1.2070  2.1011
  248MOL0     H32715   2.108  11.945   2.255  0.7750  0.1165  2.0239
  248MOL0     H32716   1.885  12.038   2.220  0.9825 -0.8894 -0.3003
  248MOL0     H32717   1.952  12.054   2.394 -2.2689 -1.7693  3.5549
  248MOL0     H32718   1.881  11.105   2.421 -1.5643 -0.3686 -3.1944
  248MOL0     H32719   1.811  10.894   2.494  0.2320  1.3251  1.0754
  248MOL0     H32720   1.855  10.451   2.373 -2.2694  2.0795  0.3750
  248MOL0     H32721   1.744  10.237   2.408  2.7578 -1.9269 -2.2758
  248MOL0     H32722   1.844  10.634   2.227  1.0833 -0.8514  0.1981
  248MOL0     H32723   1.862  10.880   2.134 -0.2119 -0.1312  0.3772
  248MOL0     H32724   1.793  11.210   1.939 -0.8947  1.0760 -0.7196
  248MOL0     H32725   1.766  11.437   1.888  0.9692 -1.5284  2.4850
  248MOL0     H32726   1.774  11.646   1.829 -2.5520  2.6094 -0.2184
  248MOL0     H32727   1.670  11.612   1.683 -0.6635 -0.2604 -2.7840
  248MOL0     H32728   1.893  11.810   1.659 -0.2527  0.1338  1.5169
  248MOL0     H32729   1.730  11.808   1.596 -1.9287 -1.5586  1.1314
  248MOL0     H32730   1.745  11.867   1.893  0.2361 -2.9722 -0.7001
  248MOL0     H32731   1.619  11.916   1.781 -0.3794  0.1441 -0.7248
  248MOL0     H32732   1.790  12.055   1.652 -1.4226 -0.0553  0.0198
  248MOL0     H32733   1.753  12.112   1.816  2.6761 -0.3857  2.1969
  248MOL0     H32734   2.148  12.057   1.878 -0.4577 -0.2286  0.4394
  248MOL0     H32735   1.960  11.381   1.507 -2.4377  0.5394 -0.7187
  248MOL0     H32736   1.978  11.149   1.552 -4.2447 -0.0039 -1.7325
  249MOL0     O32737   2.883   2.945   9.939 -0.6473 -0.3544 -0.0441
  249MOL0     C32738   2.854   2.827   9.969  0.6860  0.5869  0.5509
  249MOL0     O32739   2.947   2.721   9.956 -0.1452  0.6121  0.1382
  249MOL0     C32740   3.079   2.745  10.006  0.3175 -0.2635 -0.2877
  249MOL0     C32741   3.179   2.658   9.961  0.5140  0.4363  0.2690
  249MOL0     C32742   3.313   2.675   9.997  0.2998  0.2201  0.5069
  249MOL0     C32743   3.349   2.773  10.083 -0.1733 -0.1715  0.0947
  249MOL0     O32744   3.481   2.786  10.123  0.4996 -0.3252 -0.2959
  249MOL0     C32745   3.555   2.859  10.019 -0.0262 -0.0213  0.5975
  249MOL0     C32746   3.703   2.875  10.082  0.4824  0.4840  0.0170
  249MOL0     C32747   3.806   2.752  10.080  0.8848 -0.0456 -0.5038
  249MOL0     C32748   3.897   2.750  10.212 -0.6263 -1.0677 -0.0225
  249MOL0     C32749   4.037   2.698  10.193  0.0342 -0.2431 -0.3918
  249MOL0     C32750   4.033   2.551  10.137  0.0234 -1.4301 -0.0633
  249MOL0     C32751   4.178   2.496  10.124 -0.4360  0.3439 -0.0350
  249MOL0     C32752   4.278   2.586  10.053  0.4220 -0.1284 -0.6181
  249MOL0     N32753   4.399   2.518  10.004 -0.4042  0.1392 -0.2750
  249MOL0     C32754   4.461   2.543   9.881  0.6173  0.0859  0.3993
  249MOL0     C32755   4.571   2.465   9.869  0.0239  0.0575  0.0451
  249MOL0     C32756   4.663   2.458   9.759  0.1381  0.8800  0.1454
  249MOL0     C32757   4.604   2.348   9.654 -0.2420  0.2063 -0.5633
  249MOL0     C32758   4.463   2.352   9.615 -0.8452 -0.0001  0.4349
  249MOL0     C32759   4.434   2.229   9.534  0.8378  0.2920  0.4150
  249MOL0     O32760   4.299   2.242   9.483 -0.7480  0.4745 -0.1157
  249MOL0     C32761   4.202   2.147   9.506 -0.4148  1.4178  1.3167
  249MOL0     C32762   4.095   2.196   9.441  0.8929  0.3425 -0.2312
  249MOL0     C32763   3.958   2.131   9.435  0.5165  1.2669  0.3735
  249MOL0     C32764   3.949   2.012   9.516 -0.0590 -0.4256 -0.6458
  249MOL0     C32765   3.818   1.940   9.534 -0.7002  0.0151  0.5986
  249MOL0     O32766   3.703   2.012   9.506  0.9819  0.4327 -0.5423
  249MOL0     C32767   3.596   1.974   9.592 -0.2431  0.0905 -0.4993
  249MOL0     C32768   3.543   2.074   9.670 -0.6420 -0.0806 -0.6229
  249MOL0     C32769   3.418   2.072   9.748 -0.7348  0.1019  0.4851
  249MOL0     C32770   3.346   1.954   9.738 -0.1757 -0.1860 -0.6033
  249MOL0     O32771   3.230   1.932   9.814  0.8013  0.1336  0.0351
  249MOL0     C32772   3.171   2.047   9.869 -0.7580  0.8641  0.5961
  249MOL0     C32773   3.038   2.009   9.914  0.5229 -0.1555  0.7349
  249MOL0     C32774   2.927   1.945   9.816 -0.2097  0.5465  0.2200
  249MOL0     C32775   2.937   1.985   9.670  0.3917 -0.0384 -0.6960
  249MOL0     C32776   2.807   1.957   9.592 -0.7443  0.0326  0.0728
  249MOL0     C32777   2.833   1.915   9.446  0.9643 -0.1268 -0.1581
  249MOL0     C32778   2.695   1.931   9.368  0.2495  0.1757  0.0202
  249MOL0     C32779   2.577   1.866   9.449 -0.6544 -0.4009  0.4104
  249MOL0    Cl32780   2.433   1.854   9.339  0.4824 -0.3647  0.4004
  249MOL0     C32781   3.406   1.844   9.676 -0.0147 -0.9839 -0.4746
  249MOL0     C32782   3.535   1.846   9.602  0.4919  0.0998 -0.6248
  249MOL0     O32783   3.820   1.834   9.594 -0.5174 -0.2176 -1.0716
  249MOL0     C32784   4.066   1.969   9.579  0.7513 -0.5444  0.5556
  249MOL0     C32785   4.188   2.042   9.590 -0.7710 -0.1372  0.2510
  249MOL0     N32786   4.566   2.390   9.994 -0.2528 -0.3072  0.4796
  249MOL0     N32787   4.469   2.421  10.066  0.3762  0.7676 -0.0012
  249MOL0     C32788   3.258   2.861  10.132 -0.0367 -0.3244 -0.3004
  249MOL0     C32789   3.124   2.843  10.092  0.1363 -0.0507  0.7005
  249MOL0     C32790   2.713   2.795  10.001 -0.5803 -0.1737  0.4534
  249MOL0     C32791   2.672   2.666  10.002  0.1162  0.0980 -1.0874
  249MOL0     C32792   2.533   2.642  10.014  0.3981 -0.7085 -0.4565
  249MOL0     C32793   2.448   2.741  10.062 -0.0907  0.0703  0.8962
  249MOL0     O32794   2.315   2.710  10.084 -0.1948 -0.2884  0.5023
  249MOL0     C32795   2.244   2.614   9.997 -0.4371  0.4501 -0.4660
  249MOL0     C32796   2.090   2.622  10.008  0.6133  0.1393  0.0835
  249MOL0     C32797   2.017   2.543   9.897  0.8417  0.5123  0.4345
  249MOL0     C32798   1.877   2.515   9.940 -0.2981 -0.0668  0.7735
  249MOL0     C32799   1.786   2.459   9.831 -0.0257 -0.1601  0.0182
  249MOL0     C32800   1.713   2.415   9.739  0.0446 -0.3909  1.3138
  249MOL0     C32801   2.495   2.871  10.080 -0.2616 -0.0273  0.5516
  249MOL0     C32802   2.628   2.899  10.048 -0.5943  0.7327  1.0695
  249MOL0     H32803   3.146   2.585   9.887 -0.2953  0.3133  0.7395
  249MOL0     H32804   3.380   2.610   9.941  0.2174  0.5228  0.0514
  249MOL0     H32805   3.508   2.957  10.005  0.6368  0.1616 -0.4403
  249MOL0     H32806   3.555   2.812   9.920 -1.3580  3.7434 -1.3834
  249MOL0     H32807   3.683   2.892  10.188 -2.9386 -3.4699  0.2522
  249MOL0     H32808   3.754   2.955  10.028 -0.2957  0.0044 -1.5040
  249MOL0     H32809   3.870   2.777   9.995  1.7323  0.0747  0.1489
  249MOL0     H32810   3.749   2.661  10.063  0.6141  0.4802 -2.7228
  249MOL0     H32811   3.909   2.852  10.250  0.5784 -1.0605 -0.3585
  249MOL0     H32812   3.859   2.675  10.281 -0.5624  0.1844  1.4279
  249MOL0     H32813   4.084   2.703  10.291 -1.3986  0.2327  0.2855
  249MOL0     H32814   4.088   2.760  10.118  0.1231 -0.0794 -0.1969
  249MOL0     H32815   3.997   2.565  10.035  1.4552 -1.8977 -0.6627
  249MOL0     H32816   3.972   2.483  10.197  0.3831 -1.5407  0.1848
  249MOL0     H32817   4.219   2.472  10.223  1.6031  2.4279 -0.2913
  249MOL0     H32818   4.183   2.409  10.057  2.3203  0.1875  0.2353
  249MOL0     H32819   4.320   2.651  10.130 -1.7565 -1.0496  1.4664
  249MOL0     H32820   4.238   2.655   9.978  0.8498  2.0434  1.0472
  249MOL0     H32821   4.431   2.606   9.798 -0.8851 -0.2880  0.6100
  249MOL0     H32822   4.768   2.441   9.787  1.5447  1.9712 -3.7285
  249MOL0     H32823   4.656   2.551   9.703 -2.2416 -0.9388 -2.9209
  249MOL0     H32824   4.622   2.244   9.680 -1.3538  0.1582  0.0791
  249MOL0     H32825   4.660   2.370   9.563 -2.6101 -2.2112 -2.8100
  249MOL0     H32826   4.388   2.361   9.694  1.3953  2.4540  2.4864
  249MOL0     H32827   4.450   2.446   9.560  3.9366  0.1975 -0.7766
  249MOL0     H32828   4.433   2.138   9.595 -0.2169  1.1687  1.7334
  249MOL0     H32829   4.499   2.223   9.446 -1.3656  2.7412 -1.5396
  249MOL0     H32830   4.096   2.279   9.371 -1.5103  0.2829 -0.4184
  249MOL0     H32831   3.877   2.152   9.366  0.2126 -0.6362  0.0934
  249MOL0     H32832   3.593   2.169   9.661  2.0287 -1.3098  0.3334
  249MOL0     H32833   3.390   2.162   9.801 -0.2141  1.3732 -1.2825
  249MOL0     H32834   3.168   2.124   9.791  2.0002  0.7133  0.2469
  249MOL0     H32835   3.232   2.095   9.946  2.5715 -2.1408  0.0787
  249MOL0     H32836   2.999   2.104   9.951  3.6554  0.9154  1.6079
  249MOL0     H32837   3.056   1.938   9.995 -2.6985 -0.8761  0.9453
  249MOL0     H32838   2.828   1.979   9.847 -0.9444 -0.0476 -1.4172
  249MOL0     H32839   2.930   1.837   9.830  0.4540  0.2453 -1.9289
  249MOL0     H32840   2.973   2.087   9.655  3.0059 -0.4145  1.9414
  249MOL0     H32841   3.017   1.918   9.636  1.8875  0.9484  0.7392
  249MOL0     H32842   2.747   2.048   9.604 -2.1823 -0.9816  0.9493
  249MOL0     H32843   2.754   1.880   9.649  2.2408 -1.0715  1.5766
  249MOL0     H32844   2.876   1.815   9.432  1.0358 -0.2503  0.8392
  249MOL0     H32845   2.906   1.982   9.401 -0.2936  0.5594 -1.2360
  249MOL0     H32846   2.683   2.039   9.350  0.8234 -0.2387 -3.8191
  249MOL0     H32847   2.696   1.867   9.279  0.0754 -1.4743  1.1729
  249MOL0     H32848   2.540   1.902   9.546 -3.2708 -2.7038  0.3866
  249MOL0     H32849   2.598   1.760   9.466 -1.8995 -0.5866  0.9352
  249MOL0     H32850   3.366   1.744   9.687 -0.8169 -0.7325 -1.0606
  249MOL0     H32851   3.562   1.749   9.562  0.7373  0.3836 -1.1541
  249MOL0     H32852   4.045   1.879   9.636 -3.1690 -0.9098 -1.1722
  249MOL0     H32853   4.275   1.996   9.637  0.4868 -2.0466 -3.5541
  249MOL0     H32854   3.291   2.931  10.208  2.8162 -0.7038 -1.0775
  249MOL0     H32855   3.056   2.917  10.133 -0.4266  2.1176 -3.5269
  249MOL0     H32856   2.731   2.580   9.972 -1.2546 -1.6177  0.8558
  249MOL0     H32857   2.505   2.541   9.986 -3.5135  0.2845 -0.7732
  249MOL0     H32858   2.285   2.515  10.020  1.9380  0.9192 -2.2782
  249MOL0     H32859   2.280   2.621   9.894  0.2840  0.2357 -0.2315
  249MOL0     H32860   2.058   2.585  10.106 -1.3362  1.4174 -0.0196
  249MOL0     H32861   2.067   2.729   9.995  4.2807  0.8643 -1.8411
  249MOL0     H32862   2.067   2.447   9.879 -0.8028 -1.3033  4.3790
  249MOL0     H32863   2.007   2.595   9.801 -0.2648  0.1001  0.3084
  249MOL0     H32864   1.886   2.427  10.004 -0.9051 -2.9546 -2.8313
  249MOL0     H32865   1.825   2.595   9.995 -0.8863  0.7932 -0.9474
  249MOL0     H32866   1.649   2.384   9.660  0.3701 -0.9059  1.2461
  249MOL0     H32867   2.431   2.955  10.105  0.3402  0.5276  0.2519
  249MOL0     H32868   2.666   2.998  10.067  1.4255 -0.1935  2.1575
  250MOL0     O32869   6.047  10.601   2.944 -0.3991 -0.3995 -0.1538
  250MOL0     C32870   5.955  10.632   3.013 -0.0398  0.4792  0.5237
  250MOL0     O32871   5.966  10.700   3.130 -0.2182 -0.1506  0.7354
  250MOL0     C32872   6.089  10.694   3.183  0.4400 -0.0012  0.5204
  250MOL0     C32873   6.122  10.584   3.258 -0.0791 -0.4091 -0.0886
  250MOL0     C32874   6.252  10.559   3.309 -0.8556 -0.6408 -0.3019
  250MOL0     C32875   6.350  10.664   3.282 -0.1872  0.8868 -0.8888
  250MOL0     O32876   6.473  10.634   3.338  1.0092  0.4544  0.4681
  250MOL0     C32877   6.597  10.664   3.262  0.6178  0.3518 -0.9454
  250MOL0     C32878   6.713  10.571   3.306 -0.3569  1.5259  0.4587
  250MOL0     C32879   6.839  10.576   3.214  0.6165 -0.1477 -0.2351
  250MOL0     C32880   6.894  10.708   3.196  0.8687  0.4291  0.8158
  250MOL0     C32881   6.994  10.716   3.081  0.0735  0.6226  0.8748
  250MOL0     C32882   7.065  10.860   3.088 -0.6163  0.8397 -0.3333
  250MOL0     C32883   7.128  10.904   3.223  0.2619  0.3078 -0.9945
  250MOL0     C32884   7.209  10.791   3.292 -0.0095  0.9333  0.2384
  250MOL0     N32885   7.350  10.787   3.240  0.9453  0.3719 -0.7750
  250MOL0     C32886   7.398  10.697   3.150  0.2925  0.0385  0.2131
  250MOL0     C32887   7.525  10.724   3.150 -0.5283  0.3780  0.0302
  250MOL0     C32888   7.633  10.648   3.074  0.7221 -0.7083  0.2085
  250MOL0     C32889   7.696  10.533   3.158  0.8924 -0.9459  0.4462
  250MOL0     C32890   7.786  10.441   3.071  0.6782 -0.2170  0.2610
  250MOL0     C32891   7.881  10.332   3.143 -0.1998  0.3300  0.8156
  250MOL0     O32892   7.979  10.397   3.220  0.0832  0.0572 -0.3419
  250MOL0     C32893   8.108  10.374   3.224 -0.4513  0.2000 -0.2144
  250MOL0     C32894   8.200  10.462   3.289  0.3078  0.5951  0.0424
  250MOL0     C32895   8.339  10.439   3.273  0.0619 -0.5997 -0.1916
  250MOL0     C32896   8.388  10.337   3.191  0.2922 -0.1033 -0.0216
  250MOL0     C32897   8.533  10.310   3.185  0.7842 -0.2699  0.8807
  250MOL0     O32898   8.564  10.199   3.108 -0.1023  1.0791  0.2367
  250MOL0     C32899   8.677  10.131   3.113  0.2439  0.7526  0.0982
  250MOL0     C32900   8.796  10.174   3.171 -0.7384 -0.0716 -0.5201
  250MOL0     C32901   8.911  10.096   3.170  0.1285  0.1572  0.3915
  250MOL0     C32902   8.911   9.975   3.099  0.1068 -0.0312 -0.4874
  250MOL0     O32903   9.017   9.892   3.074 -0.2291  0.7965  0.0100
  250MOL0     C32904   9.111   9.884   3.186 -0.3816 -0.8332  0.1326
  250MOL0     C32905   9.116   9.748   3.264 -0.1846 -0.3865  0.1334
  250MOL0     C32906   9.188   9.647   3.180 -0.2516 -0.8987 -0.4145
  250MOL0     C32907   9.219   9.530   3.284 -0.9035  0.0534  0.8727
  250MOL0     C32908   9.306   9.419   3.223  0.1485  0.3974 -0.1485
  250MOL0     C32909   9.252   9.345   3.102  0.8530 -0.3283 -0.2943
  250MOL0     C32910   9.322   9.226   3.052  1.0445  0.5647 -0.2263
  250MOL0     C32911   9.242   9.146   2.955  0.0553 -0.5597  0.2198
  250MOL0    Cl32912   9.126   9.040   3.035 -0.4114 -0.5802  0.1271
  250MOL0     C32913   8.794   9.933   3.037 -0.4041 -0.0453  0.5188
  250MOL0     C32914   8.677  10.003   3.046 -0.0945  0.0676 -0.1245
  250MOL0     O32915   8.609  10.378   3.252  0.4764 -0.9716  0.3506
  250MOL0     C32916   8.295  10.260   3.117  0.3092  0.6601  0.6805
  250MOL0     C32917   8.157  10.269   3.135 -0.3222  0.8510 -0.5249
  250MOL0     N32918   7.555  10.838   3.225  0.4543  1.1381 -0.2928
  250MOL0     N32919   7.442  10.876   3.284  0.4749  0.6590 -0.2164
  250MOL0     C32920   6.310  10.786   3.215 -1.1568  0.7873 -1.0132
  250MOL0     C32921   6.184  10.797   3.164 -0.4314 -0.6854  0.0052
  250MOL0     C32922   5.822  10.601   2.964 -0.1983  0.4440 -0.6886
  250MOL0     C32923   5.710  10.618   3.050 -0.5944 -0.0574 -0.4098
  250MOL0     C32924   5.578  10.602   3.002 -0.3810 -0.3205  0.5490
  250MOL0     C32925   5.564  10.547   2.878  0.1483 -0.1276  0.0806
  250MOL0     O32926   5.440  10.518   2.824 -0.5371  0.9645 -0.6950
  250MOL0     C32927   5.327  10.494   2.905 -0.3551 -0.5863  0.2765
  250MOL0     C32928   5.278  10.344   2.866  0.3993 -0.8075 -0.2205
  250MOL0     C32929   5.179  10.296   2.970  0.2724 -0.3585  0.3666
  250MOL0     C32930   5.142  10.151   2.954 -1.0974 -0.8078  0.4722
  250MOL0     C32931   5.055  10.129   2.848  0.1934  0.4961 -1.2335
  250MOL0     C32932   4.993  10.102   2.751  0.2616  0.8527  0.8897
  250MOL0     C32933   5.673  10.521   2.789 -0.4005  0.7931 -0.3640
  250MOL0     C32934   5.807  10.551   2.830  1.2893 -0.4405  0.9249
  250MOL0     H32935   6.043  10.518   3.293  1.9537 -3.7925 -1.3297
  250MOL0     H32936   6.282  10.486   3.384  2.0122  1.6868  1.0272
  250MOL0     H32937   6.625  10.767   3.290  0.2839 -0.0228  0.9602
  250MOL0     H32938   6.577  10.666   3.155  1.6392 -0.0978 -1.1585
  250MOL0     H32939   6.676  10.468   3.309 -1.4575  1.8357 -1.1678
  250MOL0     H32940   6.753  10.597   3.405 -0.7283  0.5211  0.8940
  250MOL0     H32941   6.797  10.543   3.118 -1.4385 -1.1159  0.9269
  250MOL0     H32942   6.921  10.510   3.246  1.3837  1.0044  0.2386
  250MOL0     H32943   6.821  10.787   3.178  0.1483 -0.9158 -2.9856
  250MOL0     H32944   6.943  10.735   3.291  3.4035 -1.9841  0.3240
  250MOL0     H32945   6.934  10.717   2.990  0.6589  2.0509  0.4755
  250MOL0     H32946   7.060  10.628   3.087 -2.5455 -1.8704 -2.8253
  250MOL0     H32947   7.008  10.948   3.057  0.9123  1.6934 -0.8203
  250MOL0     H32948   7.146  10.846   3.016 -0.2673 -1.3206  0.4041
  250MOL0     H32949   7.191  10.993   3.211 -0.0431  0.4712 -1.4351
  250MOL0     H32950   7.049  10.942   3.288  1.4302  3.8077 -1.3900
  250MOL0     H32951   7.170  10.689   3.280  0.4791  0.6327  1.1405
  250MOL0     H32952   7.222  10.810   3.399  2.9965 -2.5845  0.7155
  250MOL0     H32953   7.343  10.618   3.100 -0.5069  1.5906 -1.4723
  250MOL0     H32954   7.716  10.714   3.047  0.4738 -0.7222 -0.6187
  250MOL0     H32955   7.590  10.597   2.987  2.0670 -4.4850  1.5239
  250MOL0     H32956   7.615  10.473   3.200 -0.0487  0.4208  0.6409
  250MOL0     H32957   7.763  10.572   3.236  0.6331  2.3232 -0.8360
  250MOL0     H32958   7.709  10.376   3.028 -0.4505  2.1320 -1.4604
  250MOL0     H32959   7.838  10.500   2.995  0.2883 -0.7799 -0.4625
  250MOL0     H32960   7.929  10.277   3.061  1.1978  2.5786  0.0462
  250MOL0     H32961   7.815  10.277   3.211 -2.5071  3.7012  1.5452
  250MOL0     H32962   8.157  10.541   3.350 -0.8096  1.1290 -1.3828
  250MOL0     H32963   8.415  10.497   3.324  1.7339 -1.7202 -1.3200
  250MOL0     H32964   8.795  10.264   3.231 -5.0533 -0.0832 -0.2945
  250MOL0     H32965   9.001  10.134   3.217  3.3412 -3.4477 -2.1563
  250MOL0     H32966   9.103   9.968   3.256 -1.0504 -0.9453  0.2012
  250MOL0     H32967   9.211   9.898   3.143 -0.1901 -1.3023  0.4129
  250MOL0     H32968   9.016   9.706   3.279 -0.1527 -0.5424 -0.0868
  250MOL0     H32969   9.163   9.777   3.358 -0.0811 -1.2277  0.3402
  250MOL0     H32970   9.281   9.681   3.136 -0.9012  1.7343  0.0697
  250MOL0     H32971   9.121   9.609   3.102 -0.5976 -1.4223  0.1240
  250MOL0     H32972   9.281   9.573   3.363  2.6502 -1.8046 -0.6612
  250MOL0     H32973   9.136   9.478   3.331  0.6596 -3.0967  0.4458
  250MOL0     H32974   9.328   9.355   3.309  1.9688  1.7350  0.4377
  250MOL0     H32975   9.398   9.463   3.184 -1.0015  0.9008 -2.4825
  250MOL0     H32976   9.239   9.422   3.025 -0.9418 -0.6033 -0.3036
  250MOL0     H32977   9.153   9.323   3.144  0.7525  1.1716  0.3527
  250MOL0     H32978   9.409   9.269   3.002  0.7436  1.1476 -0.2495
  250MOL0     H32979   9.366   9.153   3.121 -1.7616 -2.0117 -0.9508
  250MOL0     H32980   9.310   9.081   2.900  2.0773  0.2631  1.6102
  250MOL0     H32981   9.185   9.211   2.888  0.9085 -1.5205 -1.4755
  250MOL0     H32982   8.779   9.841   2.980  0.1592 -2.1083  3.4718
  250MOL0     H32983   8.594   9.963   2.989 -0.8349 -1.0528  1.6379
  250MOL0     H32984   8.327  10.188   3.042  0.8228  1.5871 -0.0103
  250MOL0     H32985   8.106  10.198   3.071 -0.5221  0.7731 -0.2830
  250MOL0     H32986   6.371  10.874   3.202 -1.7635  1.6412  1.3498
  250MOL0     H32987   6.169  10.885   3.103  0.2116 -0.2724  0.4211
  250MOL0     H32988   5.718  10.659   3.150  0.7874  0.8374 -0.8530
  250MOL0     H32989   5.499  10.642   3.064 -0.5916 -0.4922  0.3935
  250MOL0     H32990   5.247  10.563   2.876  0.6923  0.4693 -0.1397
  250MOL0     H32991   5.340  10.504   3.013 -0.6010 -1.1971  0.3697
  250MOL0     H32992   5.229  10.341   2.768 -0.7223  1.7483  0.1625
  250MOL0     H32993   5.365  10.279   2.876 -1.8471 -3.6732  2.8066
  250MOL0     H32994   5.083  10.345   2.988 -1.2763 -3.9757  3.5824
  250MOL0     H32995   5.233  10.308   3.065  0.4390 -1.7817  0.4682
  250MOL0     H32996   5.230  10.087   2.945 -0.5448 -0.0786  0.6850
  250MOL0     H32997   5.088  10.109   3.039  0.7010 -2.7908  0.7215
  250MOL0     H32998   4.939  10.095   2.659 -0.4701  1.0772  1.2976
  250MOL0     H32999   5.653  10.475   2.693 -1.7375 -1.0797  0.7418
  250MOL0     H33000   5.889  10.534   2.761 -0.5974 -1.4344 -1.1962
  251MOL0     O33001  10.864   0.823   5.558 -0.5926  0.1035  0.5459
  251MOL0     C33002  10.940   0.727   5.576  0.7932  0.2834  0.0853
  251MOL0     O33003  10.976   0.682   5.704 -0.9632 -0.1946 -0.2153
  251MOL0     C33004  10.947   0.772   5.804 -0.1812  0.5633  0.8164
  251MOL0     C33005  10.831   0.746   5.887 -0.0534 -0.1742  0.3675
  251MOL0     C33006  10.818   0.819   6.000 -0.0743 -0.0600 -0.3459
  251MOL0     C33007  10.906   0.916   6.042  0.6768  0.3822  0.9767
  251MOL0     O33008  10.880   0.990   6.160  0.0752  0.1186 -0.4343
  251MOL0     C33009  10.985   1.069   6.209 -0.1354  0.5351  0.5372
  251MOL0     C33010  10.957   1.113   6.354  0.1866 -0.5496  0.6872
  251MOL0     C33011  11.082   1.171   6.427 -0.7567 -0.2734 -0.5895
  251MOL0     C33012  11.115   1.301   6.353  0.3170  0.4252 -0.4647
  251MOL0     C33013  11.218   1.395   6.421 -0.2745 -0.0929  1.7311
  251MOL0     C33014  11.248   1.517   6.325  0.5150  0.1804  0.6554
  251MOL0     C33015  11.373   1.591   6.379 -0.9623 -0.5085  0.2592
  251MOL0     C33016  11.402   1.716   6.292  0.3665  0.0337 -0.0199
  251MOL0     N33017  11.551   1.734   6.285  0.6891  0.2420 -0.4951
  251MOL0     C33018  11.621   1.790   6.397  1.3035  0.1286  0.5344
  251MOL0     C33019  11.732   1.823   6.341 -1.1183 -0.3165  0.4525
  251MOL0     C33020  11.850   1.895   6.405  0.0652 -0.1350  1.1653
  251MOL0     C33021  11.916   1.988   6.304 -0.2486 -0.3456 -0.2401
  251MOL0     C33022  12.026   1.914   6.229  0.2718  0.0507 -0.7323
  251MOL0     C33023  12.093   2.003   6.130 -0.0689 -0.2476  0.6996
  251MOL0     O33024  11.998   2.073   6.056  0.4646 -0.5622  0.0527
  251MOL0     C33025  12.047   2.197   6.013 -0.6858 -0.0757  1.0547
  251MOL0     C33026  12.111   2.300   6.091  0.1127  0.4135  0.1234
  251MOL0     C33027  12.148   2.420   6.026  1.0403 -0.1304 -0.4538
  251MOL0     C33028  12.132   2.437   5.892 -0.1221  0.1475  1.4799
  251MOL0     C33029  12.169   2.576   5.832 -0.1538 -0.2686  0.2983
  251MOL0     O33030  12.114   2.618   5.720 -0.2961  0.8080  0.5873
  251MOL0     C33031  12.134   2.751   5.681  0.3197  0.4742 -0.3519
  251MOL0     C33032  12.078   2.864   5.753 -0.5174  0.4050 -1.2026
  251MOL0     C33033  12.117   2.996   5.720 -1.0063 -0.4404  1.1582
  251MOL0     C33034  12.179   3.030   5.602  0.6856  0.3644  0.5621
  251MOL0     O33035  12.218   3.163   5.577  0.2364  0.9699 -0.5718
  251MOL0     C33036  12.186   3.207   5.450 -0.6144  0.8912  0.1545
  251MOL0     C33037  12.278   3.329   5.423 -0.1502 -0.2205 -0.4903
  251MOL0     C33038  12.281   3.330   5.269 -0.6187  0.8512  0.0839
  251MOL0     C33039  12.365   3.446   5.230  0.2288 -0.0177 -0.6594
  251MOL0     C33040  12.348   3.463   5.079 -0.5365  0.6451  0.6269
  251MOL0     C33041  12.441   3.569   5.026 -0.2906  0.8304  0.3567
  251MOL0     C33042  12.450   3.564   4.871 -0.2919 -0.1484  0.4934
  251MOL0     C33043  12.523   3.691   4.829 -0.1576 -0.1131  0.7120
  251MOL0    Cl33044  12.537   3.708   4.648  0.3115  0.2050 -0.2134
  251MOL0     C33045  12.233   2.915   5.526  0.9213  0.8235 -0.7980
  251MOL0     C33046  12.205   2.782   5.563  0.8929 -0.1894  0.8669
  251MOL0     O33047  12.225   2.654   5.913  0.7843 -0.4877  0.0837
  251MOL0     C33048  12.078   2.340   5.811 -0.5281  1.4311 -0.3036
  251MOL0     C33049  12.040   2.219   5.874  1.0609  0.0376  0.7906
  251MOL0     N33050  11.746   1.753   6.219 -0.4987  0.3313  0.4222
  251MOL0     N33051  11.633   1.710   6.185 -0.1012  0.6113  0.4010
  251MOL0     C33052  11.018   0.944   5.960  0.3612  0.2572  0.4426
  251MOL0     C33053  11.038   0.872   5.843 -0.0114 -0.4933 -0.1195
  251MOL0     C33054  10.970   0.652   5.451  0.0348  0.6312  0.1254
  251MOL0     C33055  10.921   0.692   5.325 -0.4475  0.0604 -0.1496
  251MOL0     C33056  10.957   0.618   5.215 -0.5937  0.7722  0.0318
  251MOL0     C33057  11.017   0.491   5.222  0.9655  0.4797 -0.1015
  251MOL0     O33058  11.025   0.399   5.118 -0.5889 -0.2509  1.0884
  251MOL0     C33059  11.167   0.361   5.077 -0.6001  0.4670 -0.7307
  251MOL0     C33060  11.215   0.454   4.977  0.0506 -1.1696  0.1980
  251MOL0     C33061  11.355   0.427   4.925  0.1296 -0.1539 -0.3664
  251MOL0     C33062  11.365   0.292   4.845  0.4342  0.3050 -0.1734
  251MOL0     C33063  11.294   0.314   4.726 -0.9799  0.5704  0.4161
  251MOL0     C33064  11.244   0.311   4.619 -0.0423 -0.5235  0.4924
  251MOL0     C33065  11.064   0.449   5.346 -0.0530  0.5508 -0.3263
  251MOL0     C33066  11.048   0.533   5.456  1.2304  0.4555  0.0913
  251MOL0     H33067  10.752   0.671   5.877 -1.7579  1.1319  2.8883
  251MOL0     H33068  10.752   0.796   6.084  0.9614 -0.3319  0.4145
  251MOL0     H33069  10.995   1.157   6.146 -1.1747 -0.3554 -0.9481
  251MOL0     H33070  11.075   1.008   6.219  0.7891  1.9708  1.3581
  251MOL0     H33071  10.923   1.019   6.399  0.6815 -0.2131  1.8128
  251MOL0     H33072  10.875   1.186   6.353 -0.4311 -1.2196 -0.7082
  251MOL0     H33073  11.166   1.101   6.418  0.9199  1.7147 -1.1688
  251MOL0     H33074  11.068   1.186   6.534  1.6259 -0.9314 -0.1273
  251MOL0     H33075  11.142   1.277   6.249 -0.1164 -2.6020  0.0261
  251MOL0     H33076  11.031   1.371   6.353 -0.0366  0.0155  0.5608
  251MOL0     H33077  11.305   1.332   6.441 -0.3703 -0.9847 -0.3574
  251MOL0     H33078  11.176   1.425   6.517 -4.1966 -0.9935  0.4726
  251MOL0     H33079  11.169   1.590   6.343  0.1605 -0.4569  1.8022
  251MOL0     H33080  11.249   1.485   6.220  0.7591  0.0223  0.7049
  251MOL0     H33081  11.353   1.622   6.482 -2.7813 -1.3293  0.2064
  251MOL0     H33082  11.458   1.523   6.386 -0.6765  0.0006  3.7977
  251MOL0     H33083  11.358   1.806   6.337  2.5374  0.7930  0.7323
  251MOL0     H33084  11.367   1.705   6.189  1.5414 -0.2839 -0.4032
  251MOL0     H33085  11.575   1.820   6.491 -5.1191 -2.1602 -1.2908
  251MOL0     H33086  11.913   1.827   6.463 -0.6152 -0.2053  1.8500
  251MOL0     H33087  11.806   1.969   6.473 -0.7446  1.4639 -0.9804
  251MOL0     H33088  11.962   2.077   6.347  0.4691 -0.5647 -0.5322
  251MOL0     H33089  11.840   2.024   6.234 -1.0317 -1.0726  0.2186
  251MOL0     H33090  12.091   1.872   6.306  1.3360  1.6898 -0.6807
  251MOL0     H33091  11.978   1.842   6.161  2.4362  0.2200 -2.5321
  251MOL0     H33092  12.145   1.929   6.069  1.7184 -1.3576  3.3737
  251MOL0     H33093  12.165   2.059   6.190 -0.3116 -1.6037  2.3268
  251MOL0     H33094  12.130   2.292   6.197 -1.1084 -0.3185  0.3001
  251MOL0     H33095  12.184   2.500   6.091  1.3077  1.4765 -2.4670
  251MOL0     H33096  12.016   2.857   5.842  0.8207 -2.2238 -0.3765
  251MOL0     H33097  12.078   3.073   5.786 -0.1154  0.8699  0.1948
  251MOL0     H33098  12.079   3.231   5.445 -1.5060 -2.5623  0.0067
  251MOL0     H33099  12.204   3.125   5.380  0.1276  0.7836  0.4732
  251MOL0     H33100  12.381   3.326   5.459  0.6506  1.0852 -2.4876
  251MOL0     H33101  12.217   3.410   5.462  0.4786  1.5705 -2.9586
  251MOL0     H33102  12.181   3.327   5.224 -1.5536 -1.0739  2.0416
  251MOL0     H33103  12.319   3.233   5.235 -1.9865  0.1493  0.4616
  251MOL0     H33104  12.330   3.538   5.277  2.0168  0.2744  0.1907
  251MOL0     H33105  12.465   3.432   5.272 -0.3489 -0.8967  0.4761
  251MOL0     H33106  12.243   3.476   5.051 -0.1109  1.8091 -0.5136
  251MOL0     H33107  12.377   3.362   5.046 -0.4452 -0.2353  3.2062
  251MOL0     H33108  12.539   3.550   5.072 -0.9790  0.8431  1.8910
  251MOL0     H33109  12.407   3.666   5.062 -0.5650  0.3539  1.4401
  251MOL0     H33110  12.497   3.475   4.829 -2.4385 -0.3433 -1.7371
  251MOL0     H33111  12.349   3.582   4.831 -1.2763  0.5515  3.0483
  251MOL0     H33112  12.627   3.697   4.863 -0.5948  4.2500  1.9166
  251MOL0     H33113  12.484   3.785   4.868 -0.0562  0.4192 -0.4310
  251MOL0     H33114  12.299   2.927   5.441  3.7316  2.4156  1.4190
  251MOL0     H33115  12.245   2.699   5.506 -2.8321 -2.1688  0.7558
  251MOL0     H33116  12.069   2.352   5.703 -3.7977 -0.4988 -0.3747
  251MOL0     H33117  12.017   2.141   5.802  0.4788  0.8418  0.0864
  251MOL0     H33118  11.089   1.016   5.999 -1.3581  0.4029  3.6691
  251MOL0     H33119  11.135   0.873   5.795  0.5999  1.1239  1.0593
  251MOL0     H33120  10.866   0.785   5.320  1.4397  1.3846  1.7130
  251MOL0     H33121  10.945   0.658   5.114  0.6612 -0.0164 -0.4541
  251MOL0     H33122  11.168   0.255   5.050 -0.3866  0.5577 -1.0918
  251MOL0     H33123  11.232   0.381   5.163 -0.8386  2.5091 -0.9713
  251MOL0     H33124  11.142   0.458   4.895 -1.9785 -2.6700  1.8127
  251MOL0     H33125  11.210   0.549   5.032 -1.3163 -1.4354  0.5807
  251MOL0     H33126  11.429   0.423   5.006  1.6378  0.0577 -1.6727
  251MOL0     H33127  11.377   0.515   4.864  3.5874  2.0446  3.5099
  251MOL0     H33128  11.473   0.282   4.829  0.8662 -0.6324  2.6761
  251MOL0     H33129  11.331   0.207   4.905  0.2891  0.9520  0.6756
  251MOL0     H33130  11.187   0.298   4.529 -1.2863  0.5698  1.0872
  251MOL0     H33131  11.108   0.349   5.344  0.2640  0.6904 -0.3707
  251MOL0     H33132  11.081   0.498   5.553 -0.5591 -0.0062  0.5795
  252MOL0     O33133   7.216   9.999  10.075  0.4022 -0.0205  0.2026
  252MOL0     C33134   7.293   9.901  10.097 -0.8185  0.6254 -0.7140
  252MOL0     O33135   7.432   9.897  10.096  0.4104  0.0566 -0.2823
  252MOL0     C33136   7.505  10.017  10.078 -0.1314  0.2069 -0.2744
  252MOL0     C33137   7.502  10.096   9.963  0.4692  0.9158 -0.5183
  252MOL0     C33138   7.568  10.213   9.965  0.1557 -0.2470 -0.6419
  252MOL0     C33139   7.645  10.259  10.077 -0.9362  0.6697  0.7144
  252MOL0     O33140   7.722  10.371  10.075 -0.2341 -0.3455 -0.7522
  252MOL0     C33141   7.761  10.424   9.943  0.0669  0.5293  0.7239
  252MOL0     C33142   7.874  10.529   9.968 -0.3260 -0.2374 -0.2514
  252MOL0     C33143   7.962  10.511  10.078 -0.2410 -0.4231 -0.3276
  252MOL0     C33144   8.040  10.386  10.070 -0.3339 -0.1324 -0.4119
  252MOL0     C33145   8.136  10.347  10.184  0.4399  0.3852  0.3003
  252MOL0     C33146   8.058  10.325  10.310 -0.0698 -0.3644  0.0738
  252MOL0     C33147   8.142  10.257  10.420 -0.0834 -0.1567 -0.6568
  252MOL0     C33148   8.061  10.235  10.543  0.2870  0.3045  0.5646
  252MOL0     N33149   7.929  10.160  10.549 -0.7131 -0.2948  0.4960
  252MOL0     C33150   7.807  10.210  10.582  1.2190 -0.3987 -0.3533
  252MOL0     C33151   7.726  10.101  10.585  0.4500 -1.1701 -0.8348
  252MOL0     C33152   7.591  10.109  10.658  0.4169 -0.0357  0.5360
  252MOL0     C33153   7.504   9.986  10.648 -0.7331  0.1733 -0.0060
  252MOL0     C33154   7.561   9.868  10.726  0.4028 -0.1831 -0.1159
  252MOL0     C33155   7.493   9.726  10.701 -0.6250  0.3189  0.4224
  252MOL0     O33156   7.350   9.731  10.714 -0.2259 -0.2665  0.4360
  252MOL0     C33157   7.277   9.620  10.670 -0.1980 -0.0942  0.1645
  252MOL0     C33158   7.268   9.514  10.759  0.7583 -0.1647  1.2552
  252MOL0     C33159   7.202   9.394  10.716  0.1206  0.3505  0.0662
  252MOL0     C33160   7.139   9.382  10.591  0.9569  0.3924  0.5731
  252MOL0     C33161   7.048   9.263  10.560  0.7045  0.3406  0.2811
  252MOL0     O33162   6.987   9.203  10.665 -0.4840  0.9786  0.0703
  252MOL0     C33163   6.910   9.095  10.637 -0.6082  0.6693 -1.1586
  252MOL0     C33164   6.781   9.109  10.589  0.0239  0.3902 -0.4052
  252MOL0     C33165   6.706   8.991  10.549 -1.1045 -0.0329  0.5064
  252MOL0     C33166   6.757   8.861  10.566 -0.2905  0.6431  0.1093
  252MOL0     O33167   6.687   8.745  10.541 -0.7955  0.1235  0.5272
  252MOL0     C33168   6.543   8.748  10.526  0.3299 -0.6004 -1.2493
  252MOL0     C33169   6.478   8.612  10.533  0.2395 -0.1058 -0.0165
  252MOL0     C33170   6.463   8.560  10.384 -0.6583  0.1193 -0.5542
  252MOL0     C33171   6.414   8.410  10.382  0.9988  0.1513  1.0091
  252MOL0     C33172   6.426   8.351  10.238 -0.0717  0.2869 -1.2804
  252MOL0     C33173   6.569   8.336  10.197  0.2513  1.3167 -0.2625
  252MOL0     C33174   6.586   8.311  10.047  0.4884 -0.8494  1.0653
  252MOL0     C33175   6.558   8.430   9.953  0.2831  0.2040  0.3975
  252MOL0    Cl33176   6.656   8.578   9.991  0.3051  0.5153 -0.2068
  252MOL0     C33177   6.880   8.849  10.632  0.4955 -0.0957 -0.3114
  252MOL0     C33178   6.946   8.963  10.677 -1.4378  1.0465  0.4642
  252MOL0     O33179   7.027   9.236  10.443 -0.1624  0.6656  0.1052
  252MOL0     C33180   7.136   9.500  10.511 -0.6429  0.5378  0.3395
  252MOL0     C33181   7.212   9.612  10.548 -0.0197  0.6146 -0.1841
  252MOL0     N33182   7.780   9.999  10.517 -1.2360 -0.1591 -0.5530
  252MOL0     N33183   7.902  10.039  10.499 -0.1807 -0.4763  1.2533
  252MOL0     C33184   7.649  10.175  10.192  0.1159 -0.4938  0.7585
  252MOL0     C33185   7.577  10.058  10.197 -0.4043  0.2561  0.3629
  252MOL0     C33186   7.227   9.767  10.109 -1.2705  0.6799 -1.2823
  252MOL0     C33187   7.300   9.651  10.140 -0.0242  0.7906 -0.2826
  252MOL0     C33188   7.233   9.534  10.150  0.7638 -0.5562 -0.6388
  252MOL0     C33189   7.096   9.524  10.120 -0.0282 -0.0794 -1.1021
  252MOL0     O33190   7.040   9.395  10.110 -0.1216 -0.0165 -0.3296
  252MOL0     C33191   6.920   9.364  10.043  0.4452 -0.2093 -0.5467
  252MOL0     C33192   6.906   9.214  10.047  0.6593  1.7746  0.1917
  252MOL0     C33193   6.824   9.158  10.170  0.6194  0.0376  0.0508
  252MOL0     C33194   6.811   9.001  10.177 -0.5474  0.2296  0.0608
  252MOL0     C33195   6.739   8.953  10.054  0.5961 -1.3106  0.1165
  252MOL0     C33196   6.681   8.920   9.947 -0.8835  0.5669 -0.6164
  252MOL0     C33197   7.019   9.634  10.086 -0.3095  1.0595 -0.6811
  252MOL0     C33198   7.085   9.754  10.083 -0.9830  0.1391  0.9305
  252MOL0     H33199   7.449  10.072   9.871  0.9769 -3.4828  0.1339
  252MOL0     H33200   7.551  10.270   9.874 -4.6644  3.2988  1.9792
  252MOL0     H33201   7.691  10.475   9.875  1.8168 -1.8764 -3.2874
  252MOL0     H33202   7.817  10.354   9.880  2.2191  0.9861  2.0350
  252MOL0     H33203   7.824  10.624   9.990  0.6546  0.3419 -0.5154
  252MOL0     H33204   7.935  10.546   9.879 -0.1854 -0.3513 -0.1774
  252MOL0     H33205   7.904  10.507  10.171 -1.2142 -1.6903 -0.9483
  252MOL0     H33206   8.038  10.590  10.080 -0.3492 -0.2862 -1.3033
  252MOL0     H33207   7.977  10.302  10.039  0.3369 -1.4453  1.5905
  252MOL0     H33208   8.111  10.404   9.988  1.0360 -0.4284  0.6788
  252MOL0     H33209   8.196  10.436  10.202 -1.1677  1.6295 -0.3296
  252MOL0     H33210   8.191  10.254  10.162 -0.2720 -0.0686  0.4115
  252MOL0     H33211   7.966  10.270  10.289  1.3283 -1.4746 -4.0134
  252MOL0     H33212   8.027  10.421  10.353  1.9494 -0.4761  1.9453
  252MOL0     H33213   8.174  10.159  10.385 -0.0108 -0.7624  1.0028
  252MOL0     H33214   8.229  10.318  10.444 -0.8627  1.0504 -0.8242
  252MOL0     H33215   8.023  10.335  10.566 -2.7104 -0.4443 -0.6166
  252MOL0     H33216   8.135  10.189  10.609  1.7291  1.2797 -0.3288
  252MOL0     H33217   7.781  10.309  10.618  0.9018  0.3669 -2.5587
  252MOL0     H33218   7.529  10.190  10.620  2.1722  1.0937 -0.0434
  252MOL0     H33219   7.601  10.132  10.764 -2.2577  2.1607  0.4154
  252MOL0     H33220   7.477   9.949  10.549  2.2607 -1.1627 -0.4373
  252MOL0     H33221   7.411  10.009  10.701  0.2764  0.3826  1.7851
  252MOL0     H33222   7.670   9.856  10.730  0.2919 -1.5410 -0.7634
  252MOL0     H33223   7.528   9.889  10.828  0.2136  0.1482 -0.2438
  252MOL0     H33224   7.514   9.646  10.772  0.9034  1.3123  1.1624
  252MOL0     H33225   7.528   9.700  10.600  2.1979  1.9098  0.8578
  252MOL0     H33226   7.304   9.524  10.861  0.4794  0.4918  1.2928
  252MOL0     H33227   7.191   9.324  10.798 -0.0986  2.2469  1.7496
  252MOL0     H33228   6.743   9.211  10.578 -0.7603  0.0865 -0.5772
  252MOL0     H33229   6.611   8.995  10.497  0.0011 -0.1299 -1.6509
  252MOL0     H33230   6.522   8.806  10.436  0.0892 -2.7301 -2.6248
  252MOL0     H33231   6.497   8.796  10.613 -0.9328 -3.0719 -0.4499
  252MOL0     H33232   6.379   8.606  10.581  0.1197  1.4300 -0.0337
  252MOL0     H33233   6.543   8.549  10.595  0.0109  0.9553  1.3636
  252MOL0     H33234   6.559   8.567  10.333  0.0820 -1.9591  0.4173
  252MOL0     H33235   6.386   8.619  10.333  0.2509  0.9902 -0.9480
  252MOL0     H33236   6.467   8.347  10.454  0.1147 -1.4729  0.2737
  252MOL0     H33237   6.308   8.407  10.411  0.7931 -1.1826  0.1691
  252MOL0     H33238   6.377   8.422  10.171 -2.6229 -1.5178 -1.4235
  252MOL0     H33239   6.374   8.256  10.229  2.7249 -1.3581 -1.2499
  252MOL0     H33240   6.618   8.250  10.244  1.5851  1.5807 -1.0944
  252MOL0     H33241   6.643   8.410  10.229  0.5798  0.7934  0.2216
  252MOL0     H33242   6.688   8.284  10.018  1.1357  0.4378  2.0243
  252MOL0     H33243   6.533   8.222  10.013 -1.1680  0.7514 -0.8306
  252MOL0     H33244   6.454   8.464   9.950  0.0119 -0.6848 -1.9465
  252MOL0     H33245   6.588   8.405   9.850 -1.9829 -0.9511 -0.0224
  252MOL0     H33246   6.913   8.748  10.656  1.1704  0.1195 -0.3152
  252MOL0     H33247   7.031   8.957  10.743 -1.3677  0.9277  0.3627
  252MOL0     H33248   7.088   9.497  10.414  1.1581  1.1118 -0.6156
  252MOL0     H33249   7.219   9.699  10.484  2.9220  0.8062  0.2367
  252MOL0     H33250   7.708  10.212  10.276  2.5639  1.0308 -1.4999
  252MOL0     H33251   7.561  10.000  10.287  0.5900 -0.7180 -0.0560
  252MOL0     H33252   7.405   9.645  10.167  1.1727 -0.5119 -4.5258
  252MOL0     H33253   7.276   9.442  10.190 -2.0377 -1.9604 -0.6301
  252MOL0     H33254   6.921   9.391   9.937 -0.8720  2.4911  0.0339
  252MOL0     H33255   6.839   9.417  10.094  0.6947  0.5229 -0.8937
  252MOL0     H33256   6.855   9.209   9.950  0.3507  0.0825  0.3981
  252MOL0     H33257   7.005   9.167  10.048  0.3455  0.8093  4.2959
  252MOL0     H33258   6.724   9.200  10.181 -1.1497 -3.5931 -0.5779
  252MOL0     H33259   6.890   9.174  10.256 -1.1673  2.8665  1.0080
  252MOL0     H33260   6.911   8.958  10.188  0.8105  3.3551  1.2740
  252MOL0     H33261   6.755   8.966  10.263  0.6941 -0.8266  0.4688
  252MOL0     H33262   6.641   8.892   9.852  1.8728 -3.0108 -0.9374
  252MOL0     H33263   6.915   9.644  10.059  0.2649  1.0659 -3.1701
  252MOL0     H33264   7.025   9.845  10.075 -1.9907 -0.6542 -1.7015
  253MOL0     O33265   0.962   7.937  11.055 -0.4637  0.6706 -0.0703
  253MOL0     C33266   0.956   8.023  11.137  0.5530  0.1019  0.0865
  253MOL0     O33267   0.957   8.160  11.113 -0.5629 -0.0408  0.0950
  253MOL0     C33268   1.005   8.222  10.999  0.5949 -0.4503  1.1401
  253MOL0     C33269   1.039   8.355  11.000  0.1777 -0.7027 -0.6895
  253MOL0     C33270   1.067   8.432  10.889 -0.3445  0.9214  0.1025
  253MOL0     C33271   1.081   8.372  10.764  0.1545  0.1836  0.2281
  253MOL0     O33272   1.114   8.455  10.662 -0.1395 -0.2175  0.7074
  253MOL0     C33273   1.188   8.385  10.562  1.0449  0.7311 -0.5384
  253MOL0     C33274   1.237   8.485  10.466 -0.4693 -0.7418  0.5169
  253MOL0     C33275   1.365   8.438  10.396 -0.1304 -0.3174 -0.0273
  253MOL0     C33276   1.434   8.541  10.309  0.4575 -0.3198  0.6870
  253MOL0     C33277   1.557   8.498  10.238  0.6295  0.3000 -0.5325
  253MOL0     C33278   1.677   8.476  10.327  0.6336  0.8429 -0.2568
  253MOL0     C33279   1.790   8.408  10.239 -0.3539  0.3368 -0.8541
  253MOL0     C33280   1.913   8.368  10.335  0.0991 -0.1820  0.0094
  253MOL0     N33281   2.012   8.292  10.251  0.8806  0.5849  0.5269
  253MOL0     C33282   2.131   8.334  10.197  0.3672 -0.0329 -0.2305
  253MOL0     C33283   2.187   8.227  10.134 -0.2810 -0.3979 -0.4789
  253MOL0     C33284   2.311   8.226  10.049 -0.1453  0.0619  0.9441
  253MOL0     C33285   2.410   8.113  10.083  0.5697 -0.1496  0.1100
  253MOL0     C33286   2.512   8.152  10.193  0.4437 -0.0344  0.3246
  253MOL0     C33287   2.622   8.044  10.203 -0.1432 -0.0539  0.4342
  253MOL0     O33288   2.735   8.102  10.267  0.6734  0.7059 -0.9853
  253MOL0     C33289   2.814   8.018  10.341 -0.6066  0.5545 -0.0752
  253MOL0     C33290   2.767   7.987  10.468  0.0382 -0.2725 -0.0309
  253MOL0     C33291   2.851   7.924  10.573 -0.1311  0.6102 -0.1684
  253MOL0     C33292   2.975   7.881  10.521 -0.0252  0.2075 -0.1895
  253MOL0     C33293   3.063   7.795  10.612 -0.3469 -0.1600  0.2503
  253MOL0     O33294   3.028   7.801  10.739  0.2570 -0.6069  0.1544
  253MOL0     C33295   3.092   7.732  10.837 -0.7122  0.0692 -0.0019
  253MOL0     C33296   3.035   7.760  10.958 -0.6807 -0.1445  1.1806
  253MOL0     C33297   3.092   7.714  11.080  0.1870 -0.5442 -0.5166
  253MOL0     C33298   3.215   7.639  11.074  0.2980 -0.0141  0.0844
  253MOL0     O33299   3.272   7.557  11.168  0.6548 -1.1511 -0.9064
  253MOL0     C33300   3.233   7.593  11.301  0.4402  0.2629  0.6548
  253MOL0     C33301   3.342   7.543  11.398  0.0030 -0.1399  0.2788
  253MOL0     C33302   3.446   7.647  11.417 -0.5771  1.0582 -0.6790
  253MOL0     C33303   3.556   7.594  11.521  0.0770  0.7536 -0.0094
  253MOL0     C33304   3.670   7.694  11.569  1.3564 -0.5511  0.3219
  253MOL0     C33305   3.614   7.821  11.647 -0.7983 -0.2967  0.1799
  253MOL0     C33306   3.572   7.789  11.786 -0.6968  0.9413  0.3720
  253MOL0     C33307   3.535   7.911  11.863  0.2373 -0.2880  0.4429
  253MOL0    Cl33308   3.488   7.883  12.037 -0.1152 -0.4462 -0.5400
  253MOL0     C33309   3.269   7.615  10.954  0.1756  0.0952 -0.1846
  253MOL0     C33310   3.206   7.649  10.831 -0.0309  0.0141  0.0096
  253MOL0     O33311   3.146   7.716  10.560 -0.4310 -0.0923  0.0802
  253MOL0     C33312   3.008   7.893  10.384 -0.7154  0.0112  0.4452
  253MOL0     C33313   2.939   7.962  10.294  0.6834 -0.1426 -0.0017
  253MOL0     N33314   2.099   8.127  10.145 -0.1339  0.3357  0.3152
  253MOL0     N33315   2.001   8.158  10.219  0.0333 -0.1001 -0.5029
  253MOL0     C33316   1.065   8.235  10.754  0.0757 -0.0650 -0.2575
  253MOL0     C33317   1.027   8.162  10.870  0.6397 -0.4194 -0.0976
  253MOL0     C33318   0.965   7.979  11.279 -0.2868  0.1357  0.6052
  253MOL0     C33319   0.994   8.076  11.382 -0.3695 -0.8916  0.5731
  253MOL0     C33320   0.981   8.035  11.520 -0.4185  0.3995  0.4571
  253MOL0     C33321   0.936   7.906  11.551  0.9651 -0.6962 -0.6885
  253MOL0     O33322   0.925   7.885  11.692  0.4643 -0.7973 -0.1647
  253MOL0     C33323   0.921   7.753  11.739  0.6223  0.3256 -0.5424
  253MOL0     C33324   0.971   7.761  11.878  0.7793 -0.3456 -0.2662
  253MOL0     C33325   1.121   7.758  11.883  0.0395  0.3805  0.4668
  253MOL0     C33326   1.149   7.758  12.037 -1.0936  0.1645  0.9562
  253MOL0     C33327   1.295   7.781  12.056 -0.1994 -0.5299  0.0533
  253MOL0     C33328   1.411   7.800  12.068  0.1064  0.0588 -0.4658
  253MOL0     C33329   0.917   7.815  11.453  0.1022 -0.3489  0.9976
  253MOL0     C33330   0.929   7.844  11.322 -0.2523  0.6056  0.5449
  253MOL0     H33331   1.026   8.402  11.097  1.1647  0.4435 -1.0912
  253MOL0     H33332   1.088   8.535  10.918  1.4584  0.2726  1.3722
  253MOL0     H33333   1.132   8.306  10.512  2.6531 -1.9499  1.6255
  253MOL0     H33334   1.276   8.337  10.606 -1.0545 -0.8797  2.2587
  253MOL0     H33335   1.256   8.582  10.513 -1.9740  0.6238 -1.5380
  253MOL0     H33336   1.163   8.512  10.391  1.2219  2.2057 -0.2660
  253MOL0     H33337   1.341   8.353  10.331  1.8405 -0.2700 -0.8968
  253MOL0     H33338   1.435   8.408  10.474 -1.2129 -0.6722  0.8370
  253MOL0     H33339   1.356   8.567  10.237  2.3020  3.1637 -0.2971
  253MOL0     H33340   1.448   8.637  10.360 -0.5434  2.0004 -2.9926
  253MOL0     H33341   1.578   8.569  10.158 -2.8443  2.0495 -0.0700
  253MOL0     H33342   1.533   8.407  10.181 -1.5895 -1.8055  3.3265
  253MOL0     H33343   1.651   8.418  10.417  2.5986  2.9066  1.7518
  253MOL0     H33344   1.707   8.576  10.361 -1.8063  1.9416 -1.0923
  253MOL0     H33345   1.756   8.317  10.189  0.1624  1.0036 -2.5088
  253MOL0     H33346   1.810   8.464  10.147  1.7635 -0.7846 -1.1372
  253MOL0     H33347   1.880   8.308  10.420 -1.8793 -1.0656 -1.3096
  253MOL0     H33348   1.955   8.460  10.375 -0.8522  0.5968 -0.7520
  253MOL0     H33349   2.161   8.437  10.184 -1.5903  0.5003 -0.9667
  253MOL0     H33350   2.361   8.322  10.056  0.0990  0.1250 -1.1692
  253MOL0     H33351   2.279   8.208   9.946 -0.2074 -0.6735  1.0807
  253MOL0     H33352   2.461   8.084   9.991  1.2056  3.9986 -1.0341
  253MOL0     H33353   2.365   8.017  10.112 -0.5333  0.3179  0.0184
  253MOL0     H33354   2.560   8.247  10.166  1.2768 -1.2425 -2.8799
  253MOL0     H33355   2.474   8.162  10.295  2.6397  0.9928  1.1128
  253MOL0     H33356   2.659   7.999  10.111 -1.5306  1.8815 -1.1588
  253MOL0     H33357   2.584   7.967  10.271  0.1797  0.3859  1.1269
  253MOL0     H33358   2.672   8.034  10.490  1.2051  1.5047  1.4950
  253MOL0     H33359   2.802   7.906  10.668 -0.2658  0.3908 -0.2798
  253MOL0     H33360   2.943   7.818  10.954  0.3483  1.5302 -2.4422
  253MOL0     H33361   3.046   7.740  11.175  0.0944 -2.1075 -0.1011
  253MOL0     H33362   3.139   7.538  11.313 -0.3753  0.7694 -2.4744
  253MOL0     H33363   3.217   7.700  11.318 -2.3473 -0.3356  2.5531
  253MOL0     H33364   3.385   7.448  11.365  1.3254  0.8518 -0.9832
  253MOL0     H33365   3.298   7.529  11.497  0.5786 -1.6686  0.3427
  253MOL0     H33366   3.398   7.735  11.461 -1.3602  1.3845 -2.0908
  253MOL0     H33367   3.507   7.686  11.335  5.0731  0.7295  2.8747
  253MOL0     H33368   3.514   7.555  11.614  1.3146  0.1718  0.3368
  253MOL0     H33369   3.613   7.507  11.486 -0.5081 -0.6415  2.3109
  253MOL0     H33370   3.718   7.734  11.479 -0.8110 -1.1778 -1.1950
  253MOL0     H33371   3.744   7.641  11.630  1.7363  0.1298  0.4683
  253MOL0     H33372   3.539   7.864  11.581 -0.7406 -2.8523 -1.7263
  253MOL0     H33373   3.701   7.888  11.654 -0.1309 -0.9097 -1.6164
  253MOL0     H33374   3.483   7.726  11.779  0.9139 -2.0805  3.7929
  253MOL0     H33375   3.650   7.734  11.839 -0.6330 -0.7941 -1.4084
  253MOL0     H33376   3.453   7.966  11.816 -0.6655 -1.7241  0.2711
  253MOL0     H33377   3.621   7.978  11.863 -1.2100  1.7101  2.2113
  253MOL0     H33378   3.367   7.569  10.947 -0.1808 -0.9572  1.4266
  253MOL0     H33379   3.254   7.609  10.743 -0.0796 -0.5404  0.2328
  253MOL0     H33380   3.097   7.855  10.336 -1.7776  0.1692 -1.7765
  253MOL0     H33381   2.975   7.981  10.193 -0.0398 -0.0021 -0.2385
  253MOL0     H33382   1.060   8.177  10.662 -0.2763 -0.2098 -0.1504
  253MOL0     H33383   0.983   8.065  10.849  0.6667 -0.2273 -1.1320
  253MOL0     H33384   1.014   8.181  11.367 -0.0038 -1.0168  0.1661
  253MOL0     H33385   0.999   8.116  11.590 -0.2350 -0.1523  1.0564
  253MOL0     H33386   0.979   7.684  11.677  1.1872 -1.7781  2.0944
  253MOL0     H33387   0.819   7.713  11.736 -0.0574  1.9632 -3.9568
  253MOL0     H33388   0.917   7.841  11.930 -0.9380 -1.2430 -0.5841
  253MOL0     H33389   0.935   7.669  11.926 -1.1125  0.4099 -0.1411
  253MOL0     H33390   1.156   7.848  11.832 -0.6960  0.7926  0.6689
  253MOL0     H33391   1.164   7.669  11.837  1.6628  1.8434 -0.9710
  253MOL0     H33392   1.090   7.837  12.085 -0.0728  1.4695  0.1454
  253MOL0     H33393   1.121   7.665  12.087  0.2645  0.3291  2.1131
  253MOL0     H33394   1.516   7.802  12.048  1.0899 -1.2276  3.5811
  253MOL0     H33395   0.889   7.715  11.482 -0.1661 -0.7854 -0.6498
  253MOL0     H33396   0.923   7.757  11.257  3.9893 -0.1258  0.8638
  254MOL0     O33397   6.689  11.449   6.150  0.4616 -0.8017  0.5476
  254MOL0     C33398   6.644  11.343   6.208 -0.2763 -0.6350  0.1280
  254MOL0     O33399   6.715  11.269   6.299 -0.7282  0.0174  0.2052
  254MOL0     C33400   6.848  11.272   6.299  0.0743  0.1969 -0.0573
  254MOL0     C33401   6.930  11.268   6.181 -0.2356 -0.7976 -0.0355
  254MOL0     C33402   7.062  11.227   6.182  0.3304 -0.2348  0.8067
  254MOL0     C33403   7.124  11.200   6.300 -0.1185 -0.4247  0.7590
  254MOL0     O33404   7.248  11.147   6.288  0.4812 -0.2974 -0.3953
  254MOL0     C33405   7.308  11.114   6.421 -0.5323 -0.4568  0.3906
  254MOL0     C33406   7.444  11.043   6.387 -0.0456 -1.0598 -0.0537
  254MOL0     C33407   7.503  11.025   6.533 -0.6410  0.1030  1.1390
  254MOL0     C33408   7.650  11.003   6.515 -0.1695 -0.0559 -0.3751
  254MOL0     C33409   7.704  10.969   6.653  0.5179  0.1662  0.6043
  254MOL0     C33410   7.853  10.928   6.638  0.5666  0.0241 -0.2613
  254MOL0     C33411   7.910  10.876   6.767  0.6559 -0.6944  0.3934
  254MOL0     C33412   7.925  10.985   6.877 -0.3482  0.3215  0.1182
  254MOL0     N33413   8.048  10.985   6.950 -0.1662 -0.2826 -0.4048
  254MOL0     C33414   8.172  11.047   6.923 -0.3925  0.6049 -0.7998
  254MOL0     C33415   8.258  10.994   7.015  0.1073 -0.6617  0.1297
  254MOL0     C33416   8.401  11.029   7.024 -0.4288 -0.9592  0.2263
  254MOL0     C33417   8.466  10.937   6.929  0.0450 -0.3236 -0.1380
  254MOL0     C33418   8.606  10.988   6.893  0.1333 -0.1459  0.3254
  254MOL0     C33419   8.680  10.898   6.788 -0.6456  0.2555  0.4382
  254MOL0     O33420   8.679  10.760   6.815 -0.2570  0.5954 -0.2146
  254MOL0     C33421   8.758  10.674   6.728  0.5772  0.2271  0.6535
  254MOL0     C33422   8.710  10.540   6.711 -0.6443 -0.1517 -0.1761
  254MOL0     C33423   8.782  10.457   6.632  0.9634  0.0552  0.1806
  254MOL0     C33424   8.904  10.494   6.566 -0.4681 -0.8809 -0.1064
  254MOL0     C33425   8.990  10.394   6.496  0.2721 -0.3771  0.4569
  254MOL0     O33426   8.921  10.284   6.449 -0.3833  1.0207  0.3125
  254MOL0     C33427   8.981  10.164   6.417  0.1792 -0.4539  0.3004
  254MOL0     C33428   8.948  10.103   6.299 -0.3341  0.4110  0.8136
  254MOL0     C33429   9.005   9.972   6.270 -0.1499  0.4215 -0.1887
  254MOL0     C33430   9.116   9.930   6.341 -0.1413  0.3594  0.7571
  254MOL0     O33431   9.173   9.805   6.308  0.6276  0.1405  0.4128
  254MOL0     C33432   9.262   9.731   6.393  0.4204  0.3486  0.8948
  254MOL0     C33433   9.297   9.603   6.327  0.1775 -0.0639  0.4254
  254MOL0     C33434   9.174   9.506   6.306  0.1250 -1.2851 -0.5337
  254MOL0     C33435   9.220   9.374   6.247  0.7522  0.3855 -1.1412
  254MOL0     C33436   9.105   9.281   6.188  0.1649  0.1481  0.0766
  254MOL0     C33437   9.025   9.209   6.295 -0.0388  0.6166 -0.6121
  254MOL0     C33438   8.908   9.127   6.240  0.6324  0.2509  0.8151
  254MOL0     C33439   8.803   9.082   6.342  0.0202 -0.0871 -0.8238
  254MOL0    Cl33440   8.694   8.962   6.272 -0.1838 -0.1126  0.2461
  254MOL0     C33441   9.152   9.988   6.462  0.7524  0.1822  0.0412
  254MOL0     C33442   9.080  10.104   6.495 -0.4720  1.0729 -0.3550
  254MOL0     O33443   9.104  10.423   6.465  0.2603 -0.0033 -0.3315
  254MOL0     C33444   8.950  10.633   6.584  0.4168 -0.0766  0.4014
  254MOL0     C33445   8.875  10.721   6.669 -0.1676  0.5541 -0.3669
  254MOL0     N33446   8.193  10.900   7.092  0.4626 -0.0587 -0.4559
  254MOL0     N33447   8.070  10.895   7.054 -0.8065  0.5489  0.6365
  254MOL0     C33448   7.047  11.211   6.417  0.0790  0.2180 -0.2261
  254MOL0     C33449   6.913  11.246   6.419 -0.0851  0.1008 -0.3892
  254MOL0     C33450   6.511  11.303   6.165  0.3148  0.9290 -0.3654
  254MOL0     C33451   6.442  11.362   6.065 -0.0922 -0.2215 -0.7591
  254MOL0     C33452   6.315  11.307   6.023  0.2109  0.0740  0.6627
  254MOL0     C33453   6.277  11.174   6.063  0.5836 -1.1246  0.0699
  254MOL0     O33454   6.178  11.115   5.983 -0.1850  0.0380 -0.8064
  254MOL0     C33455   6.085  11.045   6.068  0.4420  0.0806  0.8576
  254MOL0     C33456   5.958  11.023   5.993 -0.0512  0.2334  0.4008
  254MOL0     C33457   5.863  10.923   6.068 -0.1570  0.3654 -0.1329
  254MOL0     C33458   5.737  10.886   5.979 -0.4124 -0.7905 -0.1363
  254MOL0     C33459   5.659  11.006   5.947  0.0874  0.6194  0.0361
  254MOL0     C33460   5.588  11.107   5.927 -0.7348 -0.2639  0.8213
  254MOL0     C33461   6.348  11.126   6.173 -0.1382  0.7281 -0.4484
  254MOL0     C33462   6.455  11.190   6.228 -0.0552 -0.1864  0.1441
  254MOL0     H33463   6.896  11.296   6.082  3.5557  0.6792 -1.0828
  254MOL0     H33464   7.117  11.217   6.090  0.0007  3.2844  0.1248
  254MOL0     H33465   7.245  11.057   6.490 -3.0353  0.8393 -0.6727
  254MOL0     H33466   7.338  11.205   6.474  0.5229 -0.4995 -0.1030
  254MOL0     H33467   7.499  11.101   6.313  2.3490 -1.0124  1.6778
  254MOL0     H33468   7.429  10.938   6.358  0.4610 -0.7757 -1.3740
  254MOL0     H33469   7.464  10.939   6.588  0.0973 -1.1554 -0.2324
  254MOL0     H33470   7.493  11.113   6.598 -0.0043  0.5391  0.6595
  254MOL0     H33471   7.671  10.914   6.454 -1.9888 -2.5705  2.3854
  254MOL0     H33472   7.696  11.094   6.476  0.7675  1.0033  2.9058
  254MOL0     H33473   7.647  10.888   6.700  0.0139 -0.3636 -0.8567
  254MOL0     H33474   7.689  11.057   6.715 -3.0550 -1.0049  1.6104
  254MOL0     H33475   7.916  11.015   6.618  0.6488  0.5378  1.9830
  254MOL0     H33476   7.875  10.858   6.556 -3.0989 -1.9980  0.2568
  254MOL0     H33477   7.847  10.799   6.813 -1.5008  0.3811 -0.6214
  254MOL0     H33478   8.011  10.836   6.758  0.6790 -0.6506  0.4558
  254MOL0     H33479   7.848  10.967   6.952  0.8112  0.1945  1.3172
  254MOL0     H33480   7.928  11.084   6.829 -1.9887  1.3811  2.0767
  254MOL0     H33481   8.204  11.113   6.844  0.9422 -0.2719 -1.0361
  254MOL0     H33482   8.440  11.012   7.125  3.0133 -3.3924 -1.3066
  254MOL0     H33483   8.426  11.132   6.998  2.2045 -1.9889 -1.7842
  254MOL0     H33484   8.413  10.925   6.834 -0.9854 -0.1326  0.3914
  254MOL0     H33485   8.477  10.847   6.990 -2.7638  0.8712  2.4425
  254MOL0     H33486   8.606  11.091   6.856  1.4603 -0.6160 -1.0847
  254MOL0     H33487   8.657  10.991   6.990 -3.5416 -0.8095  2.4490
  254MOL0     H33488   8.783  10.934   6.784 -0.2069 -1.0149 -0.0151
  254MOL0     H33489   8.631  10.919   6.692 -1.0016 -1.2151  0.2786
  254MOL0     H33490   8.614  10.511   6.752 -0.7994 -1.0238 -1.1034
  254MOL0     H33491   8.743  10.356   6.618  0.1858  0.4457 -0.6089
  254MOL0     H33492   8.871  10.149   6.238  0.8895  0.0780 -1.0572
  254MOL0     H33493   8.957   9.910   6.195  3.0567 -0.2745 -1.8500
  254MOL0     H33494   9.203   9.712   6.483 -0.8271 -2.9151 -0.4289
  254MOL0     H33495   9.348   9.789   6.426 -0.3024  1.3073  1.1184
  254MOL0     H33496   9.367   9.551   6.393 -1.8291 -2.8472  0.5498
  254MOL0     H33497   9.347   9.621   6.232  2.0510  0.2686  1.4254
  254MOL0     H33498   9.106   9.544   6.230  0.4935  0.1141 -0.1855
  254MOL0     H33499   9.125   9.492   6.403  0.5254  2.6100  0.3899
  254MOL0     H33500   9.291   9.401   6.168  0.8820 -0.5558 -1.3584
  254MOL0     H33501   9.265   9.325   6.334  0.6169  0.9707 -0.7376
  254MOL0     H33502   9.143   9.200   6.124 -2.0227 -1.1296  0.3046
  254MOL0     H33503   9.038   9.337   6.122 -0.8523  1.4201  2.0977
  254MOL0     H33504   8.993   9.278   6.374 -2.8518 -0.7140 -0.4589
  254MOL0     H33505   9.094   9.135   6.338  0.4662  1.4443  0.0334
  254MOL0     H33506   8.848   9.189   6.173  0.3588  1.6304  2.2770
  254MOL0     H33507   8.946   9.053   6.169 -1.0697  0.9459 -0.8907
  254MOL0     H33508   8.746   9.167   6.379 -1.7385 -0.5527 -2.2837
  254MOL0     H33509   8.863   9.043   6.424 -0.6403 -0.7188 -0.6288
  254MOL0     H33510   9.222   9.942   6.531  1.9485  2.1417  0.1993
  254MOL0     H33511   9.109  10.159   6.584  2.9430 -0.5201 -0.3044
  254MOL0     H33512   9.036  10.655   6.522 -0.2039  0.5614 -0.2651
  254MOL0     H33513   8.911  10.823   6.674  1.1681  0.0305  1.6588
  254MOL0     H33514   7.072  11.173   6.515  0.1008 -1.1883 -0.7551
  254MOL0     H33515   6.871  11.231   6.518  2.8643 -0.8485  0.8118
  254MOL0     H33516   6.484  11.446   6.010 -1.4358  0.5120 -0.7338
  254MOL0     H33517   6.270  11.350   5.934  3.2214  0.6423 -0.7389
  254MOL0     H33518   6.064  11.087   6.167  0.4122  2.7542 -0.2121
  254MOL0     H33519   6.133  10.947   6.080  0.4297  0.1996  2.0005
  254MOL0     H33520   5.906  11.117   5.976 -1.8656 -0.7223  0.3834
  254MOL0     H33521   5.983  10.979   5.896  3.4833  2.2003  0.2458
  254MOL0     H33522   5.841  10.963   6.168  3.1167  4.3187 -0.7401
  254MOL0     H33523   5.918  10.830   6.083  3.4860  2.5314  1.2105
  254MOL0     H33524   5.761  10.831   5.888 -0.9350 -2.0569  0.4699
  254MOL0     H33525   5.668  10.821   6.034 -1.0217 -1.3226 -1.4889
  254MOL0     H33526   5.521  11.190   5.921  1.4391  1.5501  0.2681
  254MOL0     H33527   6.300  11.036   6.210 -0.3856  1.0836  0.1023
  254MOL0     H33528   6.510  11.149   6.312 -1.4193 -0.1147  1.1236
  255MOL0     O33529   4.259   1.475  10.362 -0.4715  0.3396 -0.1251
  255MOL0     C33530   4.264   1.542  10.456 -1.0176 -0.7902  0.3163
  255MOL0     O33531   4.322   1.660  10.475 -0.7652 -1.1021  0.0256
  255MOL0     C33532   4.402   1.735  10.388 -0.4931  0.6906 -0.0762
  255MOL0     C33533   4.419   1.700  10.251 -0.0745  0.2296  0.4035
  255MOL0     C33534   4.497   1.786  10.171 -0.1891 -0.5912  0.7699
  255MOL0     C33535   4.563   1.897  10.222 -0.1582  0.3985 -0.9011
  255MOL0     O33536   4.650   1.964  10.141  0.3632 -0.1030 -0.0804
  255MOL0     C33537   4.651   2.110  10.154 -0.5042  0.5579 -0.4409
  255MOL0     C33538   4.770   2.165  10.072 -0.4824 -0.0823  0.2237
  255MOL0     C33539   4.895   2.148  10.146 -0.6706  0.8726  0.0434
  255MOL0     C33540   5.001   2.214  10.057 -0.4311  0.1863  0.3723
  255MOL0     C33541   5.149   2.194  10.087 -0.4152 -0.3940  1.8769
  255MOL0     C33542   5.173   2.248  10.221  0.1446 -0.1817 -0.1110
  255MOL0     C33543   5.319   2.212  10.247  0.2516  0.0029 -1.1512
  255MOL0     C33544   5.342   2.213  10.399  0.3798 -0.6177 -0.0919
  255MOL0     N33545   5.481   2.185  10.436 -0.1632  1.0113  0.5315
  255MOL0     C33546   5.530   2.070  10.479 -0.4795  0.1467  0.0387
  255MOL0     C33547   5.661   2.088  10.522 -0.4148  0.6629 -0.0216
  255MOL0     C33548   5.757   1.988  10.579 -0.4723 -0.4514  0.8155
  255MOL0     C33549   5.835   1.901  10.479 -0.5363  0.2550  0.8768
  255MOL0     C33550   5.898   1.975  10.356  0.1207 -0.0602  1.2081
  255MOL0     C33551   5.984   1.876  10.270  0.2083 -0.5681 -0.3186
  255MOL0     O33552   6.038   1.934  10.154 -0.0568 -0.7545  0.1672
  255MOL0     C33553   6.156   2.000  10.149  0.3274 -0.8985  0.6050
  255MOL0     C33554   6.240   2.003  10.256 -0.9187  0.5547 -0.7717
  255MOL0     C33555   6.365   2.057  10.231 -0.6627  0.0190 -0.9777
  255MOL0     C33556   6.392   2.123  10.106  0.9892  1.3815  1.7518
  255MOL0     C33557   6.521   2.188  10.090 -0.1765 -0.5158 -0.4807
  255MOL0     O33558   6.521   2.293   9.998 -0.5710  0.4019 -0.5205
  255MOL0     C33559   6.622   2.382  10.019 -0.1025 -0.3213  0.5792
  255MOL0     C33560   6.652   2.450  10.140 -0.6599  0.7385  0.0517
  255MOL0     C33561   6.758   2.546  10.150  0.0528 -0.7595  0.5940
  255MOL0     C33562   6.802   2.609  10.033  0.3496 -0.3120 -0.9688
  255MOL0     O33563   6.906   2.693  10.028 -0.6589  0.0437 -0.0273
  255MOL0     C33564   6.903   2.815  10.114  0.1170 -0.2903  0.6159
  255MOL0     C33565   7.055   2.859  10.131  0.6804  0.0928 -0.4475
  255MOL0     C33566   7.129   2.778  10.237  0.6702  0.2954  0.0460
  255MOL0     C33567   7.284   2.825  10.212  0.0682  0.8240 -1.3879
  255MOL0     C33568   7.393   2.759  10.298 -0.1443 -0.8842  0.2212
  255MOL0     C33569   7.530   2.812  10.267  0.2904  0.9821 -1.1805
  255MOL0     C33570   7.625   2.730  10.349 -0.0421  0.5051  0.3857
  255MOL0     C33571   7.765   2.784  10.357  0.0846  0.5607 -0.6227
  255MOL0    Cl33572   7.864   2.697  10.483  0.3208 -0.0479  0.0852
  255MOL0     C33573   6.755   2.562   9.915  0.3698  0.0045  0.8118
  255MOL0     C33574   6.676   2.447   9.910 -0.8813 -0.4569  0.1416
  255MOL0     O33575   6.611   2.166  10.171 -0.7938  0.1351 -0.0253
  255MOL0     C33576   6.301   2.131  10.001  0.8377 -0.4307 -0.6621
  255MOL0     C33577   6.181   2.068  10.028 -1.0758  0.3721 -0.3113
  255MOL0     N33578   5.686   2.224  10.494 -0.1115  0.2477 -0.8355
  255MOL0     N33579   5.583   2.278  10.438  0.6795  0.3478 -0.1637
  255MOL0     C33580   4.559   1.922  10.364  0.3101 -0.1681 -0.2510
  255MOL0     C33581   4.476   1.839  10.441 -0.6071 -0.6844 -0.2358
  255MOL0     C33582   4.188   1.488  10.580 -0.1536 -1.3142 -0.5092
  255MOL0     C33583   4.091   1.388  10.565  0.0676 -0.7136  0.1444
  255MOL0     C33584   4.022   1.337  10.674  0.1376 -0.1963 -1.7178
  255MOL0     C33585   4.045   1.392  10.804 -0.6948 -0.1185  0.3583
  255MOL0     O33586   3.975   1.341  10.913 -0.3260  0.1179  0.0501
  255MOL0     C33587   4.023   1.348  11.050 -0.1529  0.6654  0.6288
  255MOL0     C33588   4.134   1.242  11.082  0.1440 -0.4997  0.0146
  255MOL0     C33589   4.081   1.107  11.034 -0.5184  0.3349 -0.1775
  255MOL0     C33590   4.205   1.006  11.073  0.1200  0.1183  0.6327
  255MOL0     C33591   4.144   0.872  11.054  0.6249  0.5792  0.6314
  255MOL0     C33592   4.087   0.767  11.049  1.2675  0.0366  0.3328
  255MOL0     C33593   4.136   1.503  10.804  0.2670  0.3129  0.0181
  255MOL0     C33594   4.198   1.559  10.695  0.8176  1.1668 -0.1941
  255MOL0     H33595   4.376   1.617  10.196 -0.3383  1.0910 -0.7226
  255MOL0     H33596   4.524   1.774  10.067  2.0108  4.6414  0.4292
  255MOL0     H33597   4.671   2.140  10.257  2.8064 -1.9731 -0.2038
  255MOL0     H33598   4.555   2.150  10.119  0.3144  2.0002 -1.1406
  255MOL0     H33599   4.755   2.272  10.055  1.9717  1.1096  4.1103
  255MOL0     H33600   4.774   2.111   9.977  2.6655  1.9664 -0.9797
  255MOL0     H33601   4.912   2.041  10.163 -0.5432  0.2321 -3.2797
  255MOL0     H33602   4.887   2.207  10.237  1.2385  4.5471 -1.9281
  255MOL0     H33603   4.987   2.177   9.955 -0.6398 -1.0524  0.8413
  255MOL0     H33604   4.983   2.322  10.054  0.4319  0.3182 -0.2239
  255MOL0     H33605   5.203   2.258  10.017 -1.2783  0.0827  1.6344
  255MOL0     H33606   5.176   2.088  10.084 -0.1040 -0.2876  0.3968
  255MOL0     H33607   5.099   2.197  10.285  0.5360 -2.9348 -1.6689
  255MOL0     H33608   5.162   2.356  10.222  0.9097 -0.0316 -2.3948
  255MOL0     H33609   5.352   2.110  10.221 -0.9098 -0.7264  0.1464
  255MOL0     H33610   5.379   2.284  10.191 -1.2259  0.9506 -1.5612
  255MOL0     H33611   5.282   2.141  10.455  2.3566 -1.8892  0.4985
  255MOL0     H33612   5.314   2.312  10.434 -0.0686 -0.0849 -1.9008
  255MOL0     H33613   5.477   1.976  10.489 -0.0279 -0.0245  0.9388
  255MOL0     H33614   5.695   1.910  10.623  1.2275 -2.1025  0.4188
  255MOL0     H33615   5.821   2.047  10.645  2.8991 -0.2811 -2.2774
  255MOL0     H33616   5.770   1.819  10.449  1.5432 -0.6455 -1.4781
  255MOL0     H33617   5.920   1.856  10.532  1.1124  1.0391 -0.9745
  255MOL0     H33618   5.807   2.011  10.306  0.1881  1.2305  1.9535
  255MOL0     H33619   5.959   2.063  10.378  0.5387 -0.0972  0.2168
  255MOL0     H33620   5.921   1.793  10.237  0.5118 -0.6368 -0.7354
  255MOL0     H33621   6.064   1.827  10.326 -1.1352 -1.7041  0.6867
  255MOL0     H33622   6.206   1.980  10.357 -1.5749  1.0498 -0.8733
  255MOL0     H33623   6.436   2.062  10.313 -1.2274  1.1636 -0.5486
  255MOL0     H33624   6.613   2.418  10.236 -2.4321 -0.9024 -1.1610
  255MOL0     H33625   6.792   2.592  10.242  1.9687  0.7743 -0.8026
  255MOL0     H33626   6.856   2.799  10.212 -0.5090 -0.7580  0.2462
  255MOL0     H33627   6.849   2.888  10.053 -2.0448 -1.3755  1.1364
  255MOL0     H33628   7.053   2.961  10.170  2.0760  0.5430 -1.4828
  255MOL0     H33629   7.103   2.863  10.033  1.6874  1.7769  0.0795
  255MOL0     H33630   7.122   2.670  10.226  0.4983  0.3068  0.0469
  255MOL0     H33631   7.082   2.806  10.331 -2.6631 -4.5237  0.1577
  255MOL0     H33632   7.306   2.807  10.106  2.8064 -0.6312 -0.6710
  255MOL0     H33633   7.270   2.932  10.229  1.4965  0.9834 -1.0733
  255MOL0     H33634   7.393   2.651  10.278  0.2027 -0.8896  0.2370
  255MOL0     H33635   7.368   2.769  10.404  0.5416 -0.0192  0.3109
  255MOL0     H33636   7.532   2.916  10.301 -1.1290  0.2479  1.4594
  255MOL0     H33637   7.550   2.793  10.161  0.6910 -0.8168 -0.8157
  255MOL0     H33638   7.583   2.706  10.447 -0.7314  0.6145  0.1179
  255MOL0     H33639   7.635   2.628  10.312  0.5361  0.4975  0.5413
  255MOL0     H33640   7.768   2.893  10.370  1.3686  0.2899  1.7984
  255MOL0     H33641   7.813   2.770  10.259 -2.4959  2.1505 -2.2411
  255MOL0     H33642   6.789   2.602   9.820  0.1832 -0.0931  0.7033
  255MOL0     H33643   6.640   2.395   9.822 -1.8612 -1.6662  1.2062
  255MOL0     H33644   6.320   2.184   9.909  3.3117 -1.0540 -0.5721
  255MOL0     H33645   6.106   2.072   9.950 -2.9476  0.1532  1.3869
  255MOL0     H33646   4.640   1.971  10.418  3.1623 -3.1105 -1.5129
  255MOL0     H33647   4.459   1.859  10.546 -2.0965 -1.9011 -0.2116
  255MOL0     H33648   4.077   1.350  10.464  2.7832 -2.6262  0.3971
  255MOL0     H33649   3.941   1.266  10.657 -0.9245  0.7315 -0.7358
  255MOL0     H33650   3.948   1.326  11.126  0.8539 -0.9435  1.2369
  255MOL0     H33651   4.057   1.450  11.067  0.8661  0.4868 -0.2111
  255MOL0     H33652   4.224   1.287  11.037 -1.7567  5.5800  1.3844
  255MOL0     H33653   4.156   1.238  11.189  0.4987 -0.0417 -0.0348
  255MOL0     H33654   4.060   1.103  10.927 -0.7986  0.9125 -0.1466
  255MOL0     H33655   3.991   1.089  11.094  0.1895 -1.4125  0.4101
  255MOL0     H33656   4.290   1.023  11.007 -0.1527  2.2827  0.7646
  255MOL0     H33657   4.238   1.015  11.177 -0.3673 -1.1594  0.9262
  255MOL0     H33658   4.036   0.673  11.038  1.6111 -0.1413  0.2408
  255MOL0     H33659   4.145   1.558  10.897  1.1177 -1.7939  1.2677
  255MOL0     H33660   4.260   1.647  10.703 -1.4649  3.1039 -2.0855
  256MOL0     O33661   8.099   1.349   7.327  0.1485 -0.0145 -0.1147
  256MOL0     C33662   8.063   1.340   7.445 -0.1420 -0.3978 -0.0789
  256MOL0     O33663   7.950   1.400   7.502 -0.9176  0.5042 -0.2817
  256MOL0     C33664   7.878   1.491   7.433 -0.1747 -0.6471 -0.6023
  256MOL0     C33665   7.740   1.468   7.423  0.5345  0.3467  0.1646
  256MOL0     C33666   7.658   1.569   7.359 -0.0781 -0.0423  0.1967
  256MOL0     C33667   7.725   1.678   7.309  0.7240 -0.1095 -0.1806
  256MOL0     O33668   7.673   1.771   7.221  0.8029 -0.0457 -0.1034
  256MOL0     C33669   7.616   1.890   7.277  0.0057 -0.6342  0.0822
  256MOL0     C33670   7.578   1.995   7.174 -0.3618  0.7594  0.2051
  256MOL0     C33671   7.487   1.944   7.060  0.6718 -0.5354  0.2388
  256MOL0     C33672   7.407   2.064   6.992 -1.0008  0.5272 -0.6147
  256MOL0     C33673   7.306   2.021   6.886 -0.8786  0.3511  0.3895
  256MOL0     C33674   7.193   1.931   6.941 -0.1200 -0.4484  1.0207
  256MOL0     C33675   7.204   1.783   6.889  1.0574 -0.6556  0.2798
  256MOL0     C33676   7.148   1.762   6.749 -0.0351  0.2856 -0.1235
  256MOL0     N33677   7.174   1.634   6.693  0.5929  0.5393  0.3584
  256MOL0     C33678   7.150   1.517   6.759  0.1761  0.8056 -0.7250
  256MOL0     C33679   7.169   1.422   6.668  0.2915 -0.4048  0.2366
  256MOL0     C33680   7.151   1.274   6.695 -0.5516 -0.3525  0.2260
  256MOL0     C33681   7.089   1.205   6.568  0.5543 -1.3485 -0.0641
  256MOL0     C33682   6.953   1.253   6.528 -0.0632  0.5018 -1.0387
  256MOL0     C33683   6.892   1.144   6.425 -0.8301  0.6045  0.0892
  256MOL0     O33684   6.985   1.138   6.305 -0.0207 -0.6124  0.2357
  256MOL0     C33685   6.948   1.060   6.198  0.1874  0.1963  1.3171
  256MOL0     C33686   7.032   1.062   6.083  0.2466  0.0548 -0.6607
  256MOL0     C33687   7.000   0.981   5.970  0.2241  0.3207  0.5887
  256MOL0     C33688   6.872   0.912   5.967 -0.2753  0.2297  0.6896
  256MOL0     C33689   6.838   0.829   5.848 -0.3007 -0.2161  0.2976
  256MOL0     O33690   6.921   0.832   5.744 -0.3033  0.1266 -0.3068
  256MOL0     C33691   6.867   0.797   5.620  0.8454  0.3187  0.0634
  256MOL0     C33692   6.757   0.860   5.564  0.5181  0.4400 -0.6356
  256MOL0     C33693   6.724   0.829   5.425  0.6776 -0.1840  0.0385
  256MOL0     C33694   6.805   0.743   5.343  0.0423 -0.4230 -0.9022
  256MOL0     O33695   6.804   0.729   5.210 -0.2811 -0.1942  0.0490
  256MOL0     C33696   6.723   0.817   5.133  1.2612  0.0699  0.0002
  256MOL0     C33697   6.714   0.761   4.994  0.3120  0.3934 -0.2329
  256MOL0     C33698   6.677   0.606   4.980 -0.4934 -0.0603  0.1197
  256MOL0     C33699   6.786   0.528   4.899  0.4424 -0.6431 -0.3030
  256MOL0     C33700   6.925   0.517   4.972  0.6586  0.3101 -1.2459
  256MOL0     C33701   7.008   0.401   4.915 -0.6535 -0.6161  0.2909
  256MOL0     C33702   7.140   0.380   4.987 -0.2342  1.1015  0.4836
  256MOL0     C33703   7.237   0.281   4.918 -0.7714  0.2360 -0.4681
  256MOL0    Cl33704   7.190   0.116   4.941 -0.2367  0.3147  0.5268
  256MOL0     C33705   6.917   0.679   5.410 -1.0380  0.8154  0.2731
  256MOL0     C33706   6.939   0.707   5.545  0.2442 -0.1507  0.4662
  256MOL0     O33707   6.731   0.760   5.860 -0.4040  0.0426  0.1929
  256MOL0     C33708   6.783   0.918   6.076  0.5094 -1.1850  0.7807
  256MOL0     C33709   6.819   0.997   6.187 -0.4309  0.8000  0.0848
  256MOL0     N33710   7.222   1.483   6.558  0.4037  0.2203  0.1092
  256MOL0     N33711   7.228   1.609   6.572 -0.3901  0.0077 -0.7045
  256MOL0     C33712   7.865   1.694   7.321 -0.4231  1.1620 -0.3408
  256MOL0     C33713   7.945   1.606   7.391  0.7025 -1.1238  1.2525
  256MOL0     C33714   8.144   1.249   7.538  0.3438  0.0725  1.0122
  256MOL0     C33715   8.272   1.198   7.500 -0.0063  0.4500  0.2903
  256MOL0     C33716   8.344   1.116   7.595  0.8595 -0.4444  0.6591
  256MOL0     C33717   8.293   1.089   7.717  0.0848  0.2950  0.2032
  256MOL0     O33718   8.364   0.991   7.781 -0.0642 -0.5112 -0.2208
  256MOL0     C33719   8.332   0.973   7.917 -0.4907 -0.1124 -0.5500
  256MOL0     C33720   8.426   0.877   7.993  0.1131 -0.7749  0.1691
  256MOL0     C33721   8.576   0.924   7.986 -0.4486 -0.1813  1.0687
  256MOL0     C33722   8.678   0.821   8.035  0.2139  0.9239 -0.0146
  256MOL0     C33723   8.647   0.757   8.166  0.5090 -0.4028  0.4448
  256MOL0     C33724   8.608   0.714   8.273  0.5153 -0.2768 -0.0841
  256MOL0     C33725   8.172   1.147   7.754 -0.5320 -0.2099  0.2321
  256MOL0     C33726   8.099   1.224   7.670  1.0340  0.7218 -0.4619
  256MOL0     H33727   7.706   1.382   7.481 -2.9185  0.7238 -1.0694
  256MOL0     H33728   7.551   1.568   7.342  0.2077  3.1735 -3.0903
  256MOL0     H33729   7.681   1.934   7.354 -3.0117 -1.7935  3.5619
  256MOL0     H33730   7.525   1.861   7.330 -0.6010 -2.4682 -1.8056
  256MOL0     H33731   7.667   2.045   7.137 -0.2965  1.0249  0.7181
  256MOL0     H33732   7.521   2.069   7.230  0.5427  1.1599  0.6084
  256MOL0     H33733   7.410   1.874   7.094  0.7188 -0.6558  0.1012
  256MOL0     H33734   7.548   1.883   6.993 -0.9448  1.6351 -3.4839
  256MOL0     H33735   7.360   2.113   7.078  1.4855  1.5334  0.2704
  256MOL0     H33736   7.490   2.120   6.947  0.4744  0.8703  2.2552
  256MOL0     H33737   7.360   1.962   6.812 -1.3921 -0.2368  0.4712
  256MOL0     H33738   7.272   2.109   6.831 -1.7050 -1.2696 -1.8117
  256MOL0     H33739   7.098   1.980   6.919  0.2174 -0.4068 -0.3998
  256MOL0     H33740   7.207   1.928   7.050  0.3802  4.5837  1.3660
  256MOL0     H33741   7.309   1.751   6.884  0.8163 -1.4724  0.2197
  256MOL0     H33742   7.162   1.718   6.967 -0.0246 -0.3592 -0.0426
  256MOL0     H33743   7.209   1.822   6.680  0.1750  0.7743  0.4787
  256MOL0     H33744   7.042   1.786   6.754 -0.9065 -2.7796 -1.5621
  256MOL0     H33745   7.131   1.491   6.862  0.8080 -0.8556 -1.0108
  256MOL0     H33746   7.080   1.262   6.778 -0.4957  0.5381  0.4102
  256MOL0     H33747   7.250   1.238   6.724 -0.3637 -0.6392 -0.7588
  256MOL0     H33748   7.100   1.098   6.587  2.1466 -0.8118  2.6350
  256MOL0     H33749   7.155   1.232   6.484 -1.8193  0.4804 -1.4553
  256MOL0     H33750   6.890   1.262   6.617  0.3098  4.3377 -1.0053
  256MOL0     H33751   6.964   1.352   6.484 -0.4358  0.3018 -1.5915
  256MOL0     H33752   6.797   1.191   6.400 -0.6878  2.1574  2.1828
  256MOL0     H33753   6.866   1.044   6.461 -2.9063  0.5228 -1.4643
  256MOL0     H33754   7.121   1.124   6.085  0.9363 -0.9188 -0.6111
  256MOL0     H33755   7.066   0.976   5.884 -0.2004 -3.0015  0.3437
  256MOL0     H33756   6.700   0.930   5.626 -0.8252  1.0756 -2.5059
  256MOL0     H33757   6.643   0.872   5.368  0.5237  0.8110  0.9606
  256MOL0     H33758   6.769   0.917   5.137 -0.9614  1.1293  1.4790
  256MOL0     H33759   6.623   0.819   5.178  1.4614 -1.9917  0.5983
  256MOL0     H33760   6.800   0.784   4.930  0.4318  2.9561  0.7210
  256MOL0     H33761   6.632   0.807   4.938 -2.9007 -3.2354  1.0171
  256MOL0     H33762   6.595   0.608   4.908  0.3409 -2.6008 -1.0291
  256MOL0     H33763   6.649   0.548   5.069 -0.2555  0.5300  0.5847
  256MOL0     H33764   6.741   0.429   4.889  0.7195 -0.8099  0.0869
  256MOL0     H33765   6.801   0.573   4.800 -1.9815 -0.5708 -0.6860
  256MOL0     H33766   6.894   0.502   5.076  1.4082  0.1975 -1.0309
  256MOL0     H33767   6.979   0.608   4.945 -0.6173  1.3687 -0.3750
  256MOL0     H33768   7.049   0.448   4.824  1.1593  0.8879  1.8009
  256MOL0     H33769   6.953   0.309   4.896 -2.1728  0.2648  0.2896
  256MOL0     H33770   7.198   0.472   4.973  3.7592 -1.3748 -1.1829
  256MOL0     H33771   7.133   0.363   5.095  1.6512 -2.1456  0.2500
  256MOL0     H33772   7.335   0.300   4.963 -0.4988  0.6106 -1.2086
  256MOL0     H33773   7.246   0.300   4.811  3.6102  1.2670 -0.0927
  256MOL0     H33774   6.989   0.621   5.353 -1.8450 -0.7948  0.8302
  256MOL0     H33775   7.033   0.674   5.586  0.5827 -0.4488 -0.5307
  256MOL0     H33776   6.682   0.881   6.079  0.7741 -1.8997  1.0286
  256MOL0     H33777   6.742   1.006   6.262 -0.0265  2.2519  0.3609
  256MOL0     H33778   7.920   1.771   7.267  5.9969 -1.7804  0.9796
  256MOL0     H33779   8.049   1.636   7.398  0.3633  0.9107 -1.0627
  256MOL0     H33780   8.305   1.216   7.398  0.4420 -1.0323  0.1452
  256MOL0     H33781   8.440   1.071   7.570  0.7125  0.8286 -2.7733
  256MOL0     H33782   8.235   0.922   7.924 -0.6914  0.3548  0.1364
  256MOL0     H33783   8.332   1.067   7.973  0.1425  1.8701 -3.6311
  256MOL0     H33784   8.397   0.874   8.098 -2.5842  1.1344 -0.3860
  256MOL0     H33785   8.416   0.777   7.949  2.7662 -1.1857  0.3770
  256MOL0     H33786   8.594   1.018   8.040  1.7633  0.5805 -0.7936
  256MOL0     H33787   8.605   0.940   7.881 -0.6009  0.0983  1.0670
  256MOL0     H33788   8.675   0.740   7.961  0.3840  1.2008 -0.3262
  256MOL0     H33789   8.778   0.864   8.038  0.2788  0.9556 -1.7769
  256MOL0     H33790   8.569   0.640   8.340 -0.7604  0.6418  0.2104
  256MOL0     H33791   8.131   1.127   7.853  0.6283  1.1487  1.0367
  256MOL0     H33792   8.000   1.258   7.700 -0.3970 -2.0112 -1.6569
  257MOL0     O33793   2.138   2.284   8.234 -0.7610  0.4314  0.0808
  257MOL0     C33794   2.065   2.277   8.138 -0.3252 -0.2428  0.7408
  257MOL0     O33795   2.085   2.192   8.035  0.2263 -0.0681 -1.0568
  257MOL0     C33796   2.184   2.088   8.036  0.4397 -0.1289 -0.5017
  257MOL0     C33797   2.230   2.046   7.907 -0.4062  0.5851 -0.8154
  257MOL0     C33798   2.298   1.931   7.894  0.0476  0.4349  0.7284
  257MOL0     C33799   2.360   1.864   8.002 -0.4668 -0.2065  0.5768
  257MOL0     O33800   2.436   1.748   8.003 -0.3488  0.4054  0.2389
  257MOL0     C33801   2.496   1.702   7.884  0.0840  0.0811  0.2831
  257MOL0     C33802   2.646   1.731   7.863  1.4065  0.2136  0.3468
  257MOL0     C33803   2.724   1.660   7.964 -0.5282 -0.5034 -0.1787
  257MOL0     C33804   2.726   1.509   7.955  1.0948 -0.3768  0.1749
  257MOL0     C33805   2.872   1.461   7.964 -0.4486  1.0143 -0.0058
  257MOL0     C33806   2.876   1.314   7.920 -1.3659 -0.9854 -0.6784
  257MOL0     C33807   3.026   1.253   7.913 -0.1228 -0.4321 -0.4022
  257MOL0     C33808   3.033   1.105   7.872 -0.2326  0.5694  0.4046
  257MOL0     N33809   3.175   1.049   7.871  0.9486 -0.0170  0.8962
  257MOL0     C33810   3.286   1.093   7.935  0.4826  0.7179 -0.1685
  257MOL0     C33811   3.377   0.996   7.913 -0.6546  0.6761 -0.7903
  257MOL0     C33812   3.517   1.002   7.973 -0.1349  0.5714  0.1534
  257MOL0     C33813   3.529   0.915   8.099 -0.4280  0.2363 -0.2248
  257MOL0     C33814   3.460   0.981   8.222 -0.6094  1.1973  0.3093
  257MOL0     C33815   3.377   0.891   8.317 -1.5949  0.2050  0.3650
  257MOL0     O33816   3.248   0.856   8.264 -0.4209  0.2949  0.2038
  257MOL0     C33817   3.155   0.803   8.345 -0.0127  1.4035 -0.6788
  257MOL0     C33818   3.178   0.763   8.483 -0.1982  0.0781  1.1572
  257MOL0     C33819   3.070   0.708   8.560 -0.4096 -0.5260 -0.2637
  257MOL0     C33820   2.950   0.673   8.504 -0.2928 -0.1981 -0.1638
  257MOL0     C33821   2.836   0.611   8.583 -0.3249 -0.2477  0.5791
  257MOL0     O33822   2.712   0.671   8.559 -0.3831 -0.1189 -0.4524
  257MOL0     C33823   2.633   0.664   8.666  0.6123  0.0304  0.6036
  257MOL0     C33824   2.557   0.550   8.693  0.2981 -0.9976  1.0690
  257MOL0     C33825   2.459   0.552   8.787  1.2840 -0.1291  1.2810
  257MOL0     C33826   2.434   0.668   8.870 -0.1976  0.2962 -0.1470
  257MOL0     O33827   2.336   0.675   8.968 -0.1014  0.5569  0.3913
  257MOL0     C33828   2.348   0.587   9.078  0.3019  0.5783 -0.3002
  257MOL0     C33829   2.246   0.626   9.182  0.3362  0.4233 -1.1185
  257MOL0     C33830   2.287   0.579   9.323  0.2165 -0.1386 -0.1434
  257MOL0     C33831   2.400   0.661   9.386  0.1353 -0.0280  0.1368
  257MOL0     C33832   2.452   0.600   9.520  0.2903 -0.4223  0.1640
  257MOL0     C33833   2.549   0.701   9.594  0.2375 -0.0711 -0.3713
  257MOL0     C33834   2.683   0.715   9.530  0.6636  0.4725  0.8960
  257MOL0     C33835   2.726   0.861   9.547  0.0804 -0.3000 -0.1564
  257MOL0    Cl33836   2.743   0.908   9.722  0.2532  0.1328 -0.2391
  257MOL0     C33837   2.517   0.782   8.845  0.5163  1.0573  0.6208
  257MOL0     C33838   2.620   0.771   8.755 -0.0269  0.7790  0.3143
  257MOL0     O33839   2.857   0.536   8.677  0.5589 -0.1691  0.7356
  257MOL0     C33840   2.927   0.712   8.372  0.7149  0.1638 -0.6588
  257MOL0     C33841   3.031   0.775   8.293  0.3133 -0.3182 -0.7741
  257MOL0     N33842   3.332   0.899   7.828  0.0354 -0.3463  0.6278
  257MOL0     N33843   3.211   0.939   7.797 -0.8505 -0.2468  0.8957
  257MOL0     C33844   2.320   1.912   8.131  0.0383 -0.4228 -0.3545
  257MOL0     C33845   2.225   2.019   8.147  0.2924  0.1120  0.4224
  257MOL0     C33846   1.964   2.387   8.125 -0.4360 -0.8602 -0.2897
  257MOL0     C33847   1.882   2.383   8.014 -0.2154 -0.9983 -0.2580
  257MOL0     C33848   1.787   2.489   7.996 -1.3433 -0.1298  0.8291
  257MOL0     C33849   1.787   2.604   8.089 -0.5468  0.9593  0.1739
  257MOL0     O33850   1.707   2.711   8.079 -0.3025 -0.2286  0.0298
  257MOL0     C33851   1.777   2.820   8.019  0.7404  0.6940  0.2319
  257MOL0     C33852   1.810   2.917   8.127 -0.6453 -0.2008 -0.4670
  257MOL0     C33853   1.826   3.058   8.069  0.3193  0.1688  0.1832
  257MOL0     C33854   1.883   3.163   8.166  0.0213 -0.3835  0.2101
  257MOL0     C33855   1.778   3.221   8.249 -0.0482  0.8595 -0.2137
  257MOL0     C33856   1.711   3.255   8.338  0.3761 -0.0310 -1.0147
  257MOL0     C33857   1.865   2.590   8.200  0.1534 -0.5313  0.7053
  257MOL0     C33858   1.949   2.480   8.228 -0.4790 -0.1062  1.2580
  257MOL0     H33859   2.200   2.099   7.817  0.9637  0.2779 -1.4664
  257MOL0     H33860   2.296   1.895   7.792 -2.9859  1.2461  0.4043
  257MOL0     H33861   2.435   1.716   7.794  1.2452 -3.4651 -1.2409
  257MOL0     H33862   2.494   1.593   7.881 -0.1199  0.0632  0.9540
  257MOL0     H33863   2.653   1.839   7.879 -1.3137  0.2856  1.8261
  257MOL0     H33864   2.672   1.695   7.763 -2.8850  1.0938 -1.3175
  257MOL0     H33865   2.696   1.679   8.068  0.8559 -0.6327  0.2358
  257MOL0     H33866   2.830   1.690   7.961 -0.5040 -0.6162 -2.1131
  257MOL0     H33867   2.668   1.462   8.036 -2.9795 -0.3022 -2.4129
  257MOL0     H33868   2.673   1.471   7.867  0.2903 -1.6435  1.1640
  257MOL0     H33869   2.897   1.464   8.070 -4.9871  2.2299  1.2411
  257MOL0     H33870   2.938   1.525   7.905  0.8486  0.5263  0.8703
  257MOL0     H33871   2.826   1.314   7.823  0.0620 -2.5032 -1.4598
  257MOL0     H33872   2.806   1.258   7.983 -1.3768  1.0358  1.2727
  257MOL0     H33873   3.078   1.313   7.838  0.6803 -0.9479 -0.2738
  257MOL0     H33874   3.081   1.270   8.006  0.0550  1.5211 -0.8209
  257MOL0     H33875   2.994   1.091   7.771  2.8871  3.5545 -1.4605
  257MOL0     H33876   2.975   1.040   7.937  0.9565 -0.6073  0.3365
  257MOL0     H33877   3.300   1.172   8.008  0.4950  0.0842  0.5281
  257MOL0     H33878   3.547   1.106   7.992  1.4998  0.1831 -0.1476
  257MOL0     H33879   3.586   0.959   7.899 -2.4570 -1.2795 -1.0351
  257MOL0     H33880   3.635   0.903   8.126  0.3620 -0.1634 -3.1120
  257MOL0     H33881   3.486   0.817   8.076  0.4021  0.2683 -2.1233
  257MOL0     H33882   3.540   1.030   8.278 -1.1280 -1.1455  3.3452
  257MOL0     H33883   3.397   1.063   8.186  2.2085  3.8674  1.0678
  257MOL0     H33884   3.358   0.959   8.401 -3.3173  0.3860 -0.1269
  257MOL0     H33885   3.429   0.802   8.352 -2.7517 -0.5524  0.2184
  257MOL0     H33886   3.272   0.783   8.534  1.7384 -1.8549 -1.3895
  257MOL0     H33887   3.092   0.673   8.661  1.1636  0.2997 -0.2937
  257MOL0     H33888   2.560   0.473   8.617 -1.9587  0.9546 -1.1902
  257MOL0     H33889   2.381   0.477   8.782 -2.2265  3.2579  0.5597
  257MOL0     H33890   2.454   0.588   9.104  0.3168 -0.6084 -0.2708
  257MOL0     H33891   2.317   0.487   9.046 -4.4129  1.3487  1.0174
  257MOL0     H33892   2.147   0.580   9.169  0.2156  0.2798  0.1701
  257MOL0     H33893   2.222   0.733   9.177 -2.8598 -0.1588 -0.4325
  257MOL0     H33894   2.320   0.476   9.313 -0.2023 -0.4614  1.5712
  257MOL0     H33895   2.196   0.584   9.383  0.8878 -3.9681  1.4144
  257MOL0     H33896   2.493   0.668   9.328 -0.9875  1.9775 -1.6047
  257MOL0     H33897   2.370   0.764   9.411 -2.5671 -0.6007 -0.3861
  257MOL0     H33898   2.506   0.509   9.492 -1.3699 -0.9415 -1.5888
  257MOL0     H33899   2.367   0.577   9.585 -1.0268  2.4934 -0.3651
  257MOL0     H33900   2.563   0.659   9.693 -2.6923 -0.9324 -0.2590
  257MOL0     H33901   2.506   0.798   9.622  0.1477 -0.2642  0.1601
  257MOL0     H33902   2.755   0.648   9.577  0.4288  0.2894  1.0016
  257MOL0     H33903   2.699   0.693   9.424  2.2405  0.9595  1.0121
  257MOL0     H33904   2.642   0.926   9.519  1.8111  0.9033 -2.9831
  257MOL0     H33905   2.818   0.894   9.497  0.2734 -0.8580 -0.1691
  257MOL0     H33906   2.513   0.870   8.908 -1.6543  2.7654 -1.7074
  257MOL0     H33907   2.675   0.861   8.730  0.9056 -0.2937 -1.7435
  257MOL0     H33908   2.833   0.692   8.322  1.6259 -0.0998 -2.3374
  257MOL0     H33909   3.003   0.801   8.192 -3.8566 -3.9465 -0.8439
  257MOL0     H33910   2.345   1.851   8.217  2.1612  1.3955  0.4241
  257MOL0     H33911   2.183   2.037   8.246  0.9393 -1.6460  1.0529
  257MOL0     H33912   1.894   2.297   7.948  0.8284 -0.8800 -0.2448
  257MOL0     H33913   1.710   2.495   7.919  0.7153 -2.8588 -1.6544
  257MOL0     H33914   1.710   2.870   7.948  0.8946  0.2672 -0.2174
  257MOL0     H33915   1.866   2.785   7.965 -0.8532  0.7047 -2.6271
  257MOL0     H33916   1.728   2.926   8.198  0.0592 -0.0418  0.3396
  257MOL0     H33917   1.895   2.887   8.188 -2.4194  0.5778  2.6259
  257MOL0     H33918   1.728   3.091   8.031 -0.5240 -1.1981  1.0865
  257MOL0     H33919   1.906   3.050   7.995  0.7452 -1.0207  0.7493
  257MOL0     H33920   1.958   3.127   8.236  0.0554  2.3812  1.7417
  257MOL0     H33921   1.941   3.237   8.111 -1.8965 -0.6154 -2.3582
  257MOL0     H33922   1.649   3.282   8.421  2.2533 -1.0994  0.8409
  257MOL0     H33923   1.872   2.671   8.272  1.0060 -1.7454  2.0496
  257MOL0     H33924   2.022   2.481   8.309  1.7372  1.2744 -0.6018
  258MOL0     O33925   0.269   5.328   7.797 -0.8468  0.1497 -0.1196
  258MOL0     C33926   0.380   5.278   7.794 -1.1785  0.0964 -0.8201
  258MOL0     O33927   0.413   5.165   7.867  0.0111  0.2760 -0.4453
  258MOL0     C33928   0.308   5.096   7.912  0.1764  0.4624 -0.5425
  258MOL0     C33929   0.239   5.007   7.830 -0.6020  0.4980  0.1594
  258MOL0     C33930   0.130   4.938   7.883 -0.0496  0.8918 -0.0363
  258MOL0     C33931   0.079   4.969   8.009 -0.0826  0.2681  0.5723
  258MOL0     O33932  -0.039   4.921   8.062  0.0751 -0.5260 -0.1130
  258MOL0     C33933  -0.149   4.923   7.967  0.8435 -1.2090 -0.4822
  258MOL0     C33934  -0.287   4.928   8.038  0.8851 -0.2191 -0.0567
  258MOL0     C33935  -0.413   4.894   7.939 -1.0847  0.5996  0.0756
  258MOL0     C33936  -0.434   4.735   7.917 -0.4309  0.1707  0.2944
  258MOL0     C33937  -0.519   4.728   7.785 -0.1035 -0.5503  0.3111
  258MOL0     C33938  -0.664   4.761   7.819 -0.5521 -0.8493  0.5907
  258MOL0     C33939  -0.737   4.816   7.694 -0.0677  0.5233 -0.0345
  258MOL0     C33940  -0.725   4.733   7.561  0.5391  0.3052 -0.7293
  258MOL0     N33941  -0.809   4.612   7.575  0.3134 -0.5115  1.0990
  258MOL0     C33942  -0.789   4.525   7.671 -0.1696 -0.1890 -0.5797
  258MOL0     C33943  -0.908   4.455   7.665 -0.3769 -0.4547  0.2201
  258MOL0     C33944  -0.954   4.350   7.769  0.1601 -0.6733 -0.5890
  258MOL0     C33945  -0.857   4.243   7.783 -1.0012  0.2168 -0.0085
  258MOL0     C33946  -0.897   4.145   7.889 -0.5460 -0.6819  0.4539
  258MOL0     C33947  -0.977   4.035   7.828  0.8239  0.2128 -0.2835
  258MOL0     O33948  -0.922   3.968   7.712 -0.5933  0.1707  0.7051
  258MOL0     C33949  -0.843   3.858   7.734  0.8044 -0.4597 -0.1668
  258MOL0     C33950  -0.874   3.759   7.829  0.0890 -0.1299  0.1868
  258MOL0     C33951  -0.798   3.641   7.827 -0.2625  0.1490 -0.0360
  258MOL0     C33952  -0.683   3.630   7.753  0.5296 -0.0163  0.1380
  258MOL0     C33953  -0.598   3.510   7.761  0.5052 -0.6444 -0.3802
  258MOL0     O33954  -0.466   3.528   7.733  0.5106  0.4839 -0.2372
  258MOL0     C33955  -0.366   3.441   7.764  0.0195 -0.0831 -0.9548
  258MOL0     C33956  -0.374   3.330   7.843 -1.2122 -0.8843  0.5589
  258MOL0     C33957  -0.268   3.246   7.862 -0.7138  0.5881 -0.5808
  258MOL0     C33958  -0.141   3.273   7.801  0.9446  0.1989  0.7803
  258MOL0     O33959  -0.043   3.184   7.839  0.3411 -0.8442 -0.3562
  258MOL0     C33960   0.048   3.151   7.742  0.2747 -0.5032 -0.0194
  258MOL0     C33961   0.130   3.027   7.793 -1.2306  0.2318 -0.8056
  258MOL0     C33962   0.248   2.988   7.709  0.1313  0.1474  0.0039
  258MOL0     C33963   0.295   2.847   7.726  0.3101 -0.0560 -0.8512
  258MOL0     C33964   0.442   2.836   7.692 -0.0709 -0.8966 -0.2509
  258MOL0     C33965   0.492   2.871   7.553 -0.3518 -0.7035  1.1944
  258MOL0     C33966   0.639   2.827   7.528  0.1881 -1.0967 -0.0895
  258MOL0     C33967   0.709   2.899   7.417 -0.9159  0.7956 -0.0121
  258MOL0    Cl33968   0.626   2.857   7.257 -0.1625  0.1652 -0.4145
  258MOL0     C33969  -0.134   3.381   7.710  0.9979 -0.4345 -0.0024
  258MOL0     C33970  -0.245   3.466   7.698 -0.2455  0.0877  0.4986
  258MOL0     O33971  -0.657   3.402   7.796  0.4027 -0.2726 -0.3573
  258MOL0     C33972  -0.638   3.735   7.673 -0.9598 -0.8356 -0.4530
  258MOL0     C33973  -0.724   3.839   7.659  0.3236  0.1143 -0.1011
  258MOL0     N33974  -0.996   4.508   7.567  0.1106 -0.4351 -0.5038
  258MOL0     N33975  -0.926   4.606   7.516  0.2010 -0.1394  0.2806
  258MOL0     C33976   0.147   5.058   8.085  0.0011  0.6521  0.2374
  258MOL0     C33977   0.268   5.110   8.038 -0.3817  0.7284  0.5327
  258MOL0     C33978   0.488   5.347   7.717 -0.3330  0.3709  0.1153
  258MOL0     C33979   0.466   5.469   7.660 -0.5730 -1.1593 -0.7452
  258MOL0     C33980   0.576   5.534   7.586 -0.0618 -1.0102  0.6438
  258MOL0     C33981   0.696   5.473   7.557  0.3541  0.1103 -0.7616
  258MOL0     O33982   0.806   5.521   7.486  1.2030 -0.3205  0.6000
  258MOL0     C33983   0.782   5.646   7.417 -0.1934  0.1390  0.3878
  258MOL0     C33984   0.918   5.695   7.358  0.4908 -0.4233 -0.7071
  258MOL0     C33985   0.984   5.592   7.265  0.2747 -0.8612  0.1427
  258MOL0     C33986   1.124   5.626   7.224  0.1936 -0.6452  0.5635
  258MOL0     C33987   1.121   5.753   7.157  0.5654  0.3461 -0.1025
  258MOL0     C33988   1.121   5.860   7.105  0.1666 -0.6311  0.6371
  258MOL0     C33989   0.716   5.360   7.622 -0.2956 -0.6774  0.3825
  258MOL0     C33990   0.616   5.303   7.702 -1.1191  0.1864  0.1176
  258MOL0     H33991   0.261   4.993   7.724  1.0303  0.8216  0.4236
  258MOL0     H33992   0.087   4.857   7.825  0.0740 -0.7049  1.9929
  258MOL0     H33993  -0.152   4.827   7.913 -1.3973  0.5135 -3.7008
  258MOL0     H33994  -0.140   5.002   7.893  2.2084 -2.1981 -1.4418
  258MOL0     H33995  -0.316   5.025   8.080  0.1567 -1.0115  1.3764
  258MOL0     H33996  -0.283   4.860   8.124  0.1567  1.0985  1.0774
  258MOL0     H33997  -0.401   4.950   7.846  0.4229 -2.8413 -2.0153
  258MOL0     H33998  -0.500   4.931   7.995 -2.6083  2.2539 -3.1443
  258MOL0     H33999  -0.337   4.692   7.890 -1.2137 -0.0075 -2.5566
  258MOL0     H34000  -0.491   4.686   7.996 -0.5561  0.3633  0.3230
  258MOL0     H34001  -0.502   4.623   7.759  0.3018 -0.6047  0.7851
  258MOL0     H34002  -0.479   4.791   7.705 -0.9847  0.1947  0.4457
  258MOL0     H34003  -0.679   4.839   7.894 -1.7162 -1.7704  1.3689
  258MOL0     H34004  -0.708   4.675   7.871  0.3376 -1.3358  0.5533
  258MOL0     H34005  -0.843   4.822   7.719 -1.1205 -1.3807 -3.3806
  258MOL0     H34006  -0.697   4.915   7.667 -0.3936  1.0620  1.3916
  258MOL0     H34007  -0.619   4.705   7.555  0.0879 -1.9290  0.5299
  258MOL0     H34008  -0.742   4.788   7.469 -2.3142  1.1475  0.2140
  258MOL0     H34009  -0.699   4.518   7.731 -1.5687 -3.0857  1.4129
  258MOL0     H34010  -1.049   4.305   7.737 -0.6246 -1.2728  2.3176
  258MOL0     H34011  -0.985   4.400   7.861  0.1503 -2.2592  0.2833
  258MOL0     H34012  -0.770   4.293   7.828 -2.4337  1.2126  1.7976
  258MOL0     H34013  -0.844   4.193   7.687 -0.8549  0.5353 -0.1553
  258MOL0     H34014  -0.801   4.112   7.931 -0.3258 -0.4690  0.1238
  258MOL0     H34015  -0.953   4.196   7.968  0.3133 -0.8498  1.1920
  258MOL0     H34016  -1.073   4.076   7.795 -0.2576 -1.4292  0.6552
  258MOL0     H34017  -0.999   3.975   7.917  1.3363 -3.8403 -2.6251
  258MOL0     H34018  -0.951   3.772   7.905  1.5403  1.0918  1.5085
  258MOL0     H34019  -0.825   3.563   7.897  0.4812  0.9947  1.2360
  258MOL0     H34020  -0.459   3.293   7.900  0.4987  3.0330  6.6895
  258MOL0     H34021  -0.269   3.159   7.927  2.7398 -1.8637 -3.3977
  258MOL0     H34022   0.109   3.240   7.726 -0.1496 -0.6898 -3.2433
  258MOL0     H34023  -0.002   3.126   7.648  0.8473  1.6526 -0.9527
  258MOL0     H34024   0.051   2.952   7.798 -0.5896 -0.4613 -0.9109
  258MOL0     H34025   0.161   3.040   7.898 -1.0410  0.2866 -0.8668
  258MOL0     H34026   0.331   3.057   7.730 -2.4056  2.7596  2.4467
  258MOL0     H34027   0.214   2.998   7.606 -3.7489 -2.7565  0.7479
  258MOL0     H34028   0.279   2.808   7.826 -4.7886  0.9822 -1.0180
  258MOL0     H34029   0.229   2.786   7.664 -0.4826 -1.1693  1.0405
  258MOL0     H34030   0.452   2.728   7.703  1.7903 -0.5973  1.4518
  258MOL0     H34031   0.508   2.875   7.770 -1.3522 -1.4464  1.1552
  258MOL0     H34032   0.478   2.978   7.540 -0.9230 -0.5148  2.9927
  258MOL0     H34033   0.430   2.826   7.475 -0.1155  1.6933 -0.4377
  258MOL0     H34034   0.696   2.858   7.616 -0.7249  2.8652 -0.7021
  258MOL0     H34035   0.640   2.717   7.524  1.9086 -1.0656 -1.8212
  258MOL0     H34036   0.816   2.874   7.420 -0.9197  0.7558 -0.1759
  258MOL0     H34037   0.717   3.006   7.441  0.8228  1.0980 -1.6739
  258MOL0     H34038  -0.046   3.390   7.647  1.5742 -4.7990 -0.1042
  258MOL0     H34039  -0.234   3.553   7.634 -1.9376 -0.7282 -0.9776
  258MOL0     H34040  -0.544   3.718   7.621 -2.3069 -1.0103 -2.9998
  258MOL0     H34041  -0.703   3.922   7.591 -0.3396  1.2563  1.0460
  258MOL0     H34042   0.130   5.078   8.190 -0.7704  1.9253 -0.1157
  258MOL0     H34043   0.318   5.186   8.097 -0.4161  0.4395  0.9360
  258MOL0     H34044   0.379   5.532   7.674  0.4619  0.1148  0.2488
  258MOL0     H34045   0.573   5.636   7.552  0.5566 -0.7731  1.2857
  258MOL0     H34046   0.750   5.718   7.493  2.6088  0.0304  1.8378
  258MOL0     H34047   0.708   5.645   7.337 -0.9657  1.9763  1.0314
  258MOL0     H34048   0.897   5.781   7.294 -0.7262 -0.5118 -0.4603
  258MOL0     H34049   0.982   5.724   7.442 -2.8218  1.9488  1.2345
  258MOL0     H34050   0.915   5.580   7.180  0.1304 -0.1170  0.1444
  258MOL0     H34051   0.992   5.490   7.303  1.0230 -1.9356 -2.6440
  258MOL0     H34052   1.177   5.626   7.320  0.0443 -0.6391  0.6450
  258MOL0     H34053   1.163   5.557   7.149 -0.2015 -0.0700 -0.1789
  258MOL0     H34054   1.116   5.948   7.044  0.9214 -0.6023  0.5975
  258MOL0     H34055   0.811   5.309   7.609  0.0783  0.0596  0.1765
  258MOL0     H34056   0.658   5.214   7.747  3.4033  1.1237 -1.7718
  259MOL0     O34057   0.225   0.737  10.455  0.9822  0.5377  0.3521
  259MOL0     C34058   0.151   0.799  10.375  0.0449  0.5201 -0.7434
  259MOL0     O34059   0.062   0.748  10.287  0.2064  0.4447  0.3645
  259MOL0     C34060   0.051   0.609  10.270  0.0225  0.4692  0.2582
  259MOL0     C34061   0.004   0.528  10.371 -0.3439  0.3482  0.7090
  259MOL0     C34062  -0.014   0.386  10.355  0.1954 -0.5440  0.5863
  259MOL0     C34063   0.012   0.326  10.230 -0.5322  0.0444 -0.4616
  259MOL0     O34064  -0.007   0.191  10.206 -0.0756  0.4948  0.3921
  259MOL0     C34065  -0.002   0.077  10.296 -0.2706  0.2623 -0.3455
  259MOL0     C34066   0.121   0.065  10.378  0.6363 -0.2064 -0.1508
  259MOL0     C34067   0.113  -0.054  10.478  0.5830 -0.2460  0.6326
  259MOL0     C34068   0.095  -0.195  10.424 -0.5687  0.1324  0.5276
  259MOL0     C34069   0.121  -0.314  10.527 -0.8181 -0.2798  0.4018
  259MOL0     C34070   0.027  -0.310  10.646  0.0933 -0.2621 -0.5625
  259MOL0     C34071   0.000  -0.451  10.698 -0.4641 -0.2679  0.6433
  259MOL0     C34072  -0.096  -0.533  10.602  0.8075  0.6012 -0.8621
  259MOL0     N34073  -0.115  -0.672  10.647 -0.6108 -0.7405  0.0063
  259MOL0     C34074  -0.018  -0.764  10.687  0.0673 -0.1451 -0.5331
  259MOL0     C34075  -0.087  -0.867  10.730 -0.7203  0.1417  0.0021
  259MOL0     C34076  -0.033  -0.988  10.794  0.0630  0.1774 -0.6813
  259MOL0     C34077  -0.050  -0.992  10.949  0.1771  0.5135  0.8999
  259MOL0     C34078   0.057  -0.904  11.010 -0.9711  0.4272 -0.4218
  259MOL0     C34079   0.025  -0.884  11.159  0.4231 -0.0305 -0.2763
  259MOL0     O34080  -0.058  -0.772  11.185 -0.3216 -0.9671 -0.6568
  259MOL0     C34081  -0.007  -0.651  11.148  0.1283 -0.3617 -1.1472
  259MOL0     C34082  -0.089  -0.554  11.097  1.4652 -0.1153  0.3482
  259MOL0     C34083  -0.043  -0.426  11.062  0.4360 -0.3483 -0.4102
  259MOL0     C34084   0.093  -0.394  11.062 -0.5597  0.2201 -0.5874
  259MOL0     C34085   0.132  -0.253  11.052 -0.4022 -0.0749 -1.0955
  259MOL0     O34086   0.029  -0.172  11.047 -0.2331  0.0104 -0.0532
  259MOL0     C34087   0.025  -0.048  10.995  0.3669 -0.4495 -1.1226
  259MOL0     C34088  -0.079  -0.004  10.917  0.1346  0.8015 -0.3530
  259MOL0     C34089  -0.088   0.127  10.879  0.2370  0.6501  0.3995
  259MOL0     C34090   0.001   0.225  10.918  0.8038  0.5134 -0.8602
  259MOL0     O34091   0.004   0.355  10.868 -0.2242  0.9415 -0.8100
  259MOL0     C34092   0.041   0.353  10.732  0.0141 -0.1849  1.1714
  259MOL0     C34093   0.200   0.361  10.711 -0.1543  0.3453 -0.1851
  259MOL0     C34094   0.253   0.494  10.776  0.1881 -0.0785 -0.3895
  259MOL0     C34095   0.401   0.515  10.739  0.0538 -0.5923  0.1614
  259MOL0     C34096   0.462   0.636  10.809 -0.0068  0.3894 -0.3101
  259MOL0     C34097   0.487   0.739  10.709  0.1806 -0.4119  0.7713
  259MOL0     C34098   0.496   0.870  10.785  0.3850  0.2347 -0.9297
  259MOL0     C34099   0.532   0.979  10.685 -0.0605  0.6665 -0.0514
  259MOL0    Cl34100   0.707   0.989  10.689 -0.1431 -0.0979 -0.1366
  259MOL0     C34101   0.108   0.177  10.990 -0.2916 -0.2649  0.0715
  259MOL0     C34102   0.119   0.044  11.028 -0.5692 -1.6447 -0.4086
  259MOL0     O34103   0.256  -0.231  11.041 -0.0254 -0.6525 -0.4259
  259MOL0     C34104   0.180  -0.494  11.112 -0.5719 -0.6153 -0.4752
  259MOL0     C34105   0.129  -0.619  11.165 -0.3402 -0.4265 -0.1634
  259MOL0     N34106  -0.223  -0.842  10.717  0.6131 -0.1876 -0.1588
  259MOL0     N34107  -0.238  -0.727  10.664  0.0243 -0.2328 -1.3077
  259MOL0     C34108   0.069   0.407  10.126  0.9246 -0.8037 -0.4257
  259MOL0     C34109   0.083   0.552  10.149  0.3052  0.1082  0.8018
  259MOL0     C34110   0.152   0.959  10.381 -0.6579  0.2354 -0.0165
  259MOL0     C34111   0.088   1.032  10.278  1.2467  0.2718 -0.2614
  259MOL0     C34112   0.092   1.175  10.280  0.0008  0.2857 -1.0105
  259MOL0     C34113   0.179   1.242  10.361  0.2067  0.1929 -0.2527
  259MOL0     O34114   0.196   1.374  10.363  0.3742  0.1101  0.9695
  259MOL0     C34115   0.304   1.407  10.280 -0.3521  0.0507 -0.5244
  259MOL0     C34116   0.255   1.406  10.129 -0.5424 -0.4662 -0.8447
  259MOL0     C34117   0.309   1.521  10.038 -0.7840  0.5741  0.0524
  259MOL0     C34118   0.251   1.533   9.909 -0.1263  0.2784  0.4810
  259MOL0     C34119   0.275   1.420   9.820  0.3644 -0.2122  0.4752
  259MOL0     C34120   0.293   1.335   9.733 -0.8421  0.3658  1.0649
  259MOL0     C34121   0.263   1.162  10.457 -0.5540 -0.2268  0.8440
  259MOL0     C34122   0.244   1.025  10.464  0.2919 -0.0962  0.7606
  259MOL0     H34123  -0.014   0.585  10.462 -1.4826  1.7262 -0.3276
  259MOL0     H34124  -0.063   0.315  10.421 -1.7563  1.6899  1.6807
  259MOL0     H34125  -0.008  -0.011  10.231  1.2952  1.3920 -2.1221
  259MOL0     H34126  -0.085   0.088  10.366  1.3579  1.3164  1.5111
  259MOL0     H34127   0.126   0.161  10.430  1.5454 -0.9997  1.2989
  259MOL0     H34128   0.214   0.043  10.325  0.2064 -2.5877 -0.0326
  259MOL0     H34129   0.034  -0.044  10.552  1.1043 -0.1712  1.1906
  259MOL0     H34130   0.210  -0.045  10.528 -0.2341 -0.9452  2.4015
  259MOL0     H34131  -0.005  -0.205  10.382 -1.0680 -3.3190  2.1897
  259MOL0     H34132   0.172  -0.199  10.346  2.4044 -0.5274  3.2919
  259MOL0     H34133   0.227  -0.308  10.554  0.7664 -1.7955 -4.4726
  259MOL0     H34134   0.116  -0.411  10.477 -0.6145  0.9959 -2.2567
  259MOL0     H34135  -0.070  -0.273  10.614 -1.2224 -1.3807  1.8464
  259MOL0     H34136   0.074  -0.239  10.716 -1.4844  0.3397 -0.0630
  259MOL0     H34137   0.096  -0.497  10.726 -1.7445 -0.5995  5.4101
  259MOL0     H34138  -0.039  -0.444  10.800 -0.1745 -2.9955  1.0041
  259MOL0     H34139  -0.053  -0.538  10.502  0.0347  1.7015 -1.2642
  259MOL0     H34140  -0.195  -0.487  10.600  0.4729 -0.0981 -0.6232
  259MOL0     H34141   0.090  -0.758  10.680 -0.0522  0.0704 -3.5196
  259MOL0     H34142   0.071  -1.014  10.774 -0.0863 -1.9626  0.8666
  259MOL0     H34143  -0.097  -1.064  10.748 -3.0642  2.7828 -1.0126
  259MOL0     H34144  -0.050  -1.093  10.990 -1.8387  0.8266  1.7933
  259MOL0     H34145  -0.147  -0.953  10.982  0.1325  2.7133 -1.4529
  259MOL0     H34146   0.143  -0.970  11.024 -1.8838 -1.4994 -3.2101
  259MOL0     H34147   0.090  -0.814  10.958  2.3686 -2.1542 -3.2653
  259MOL0     H34148   0.119  -0.877  11.215  0.7752 -0.4706 -0.7947
  259MOL0     H34149  -0.026  -0.965  11.212 -0.5555  1.6868  1.5270
  259MOL0     H34150  -0.193  -0.582  11.093  1.2739  0.6339 -0.3122
  259MOL0     H34151  -0.119  -0.361  11.019 -0.6093 -0.6325  0.9535
  259MOL0     H34152  -0.148  -0.085  10.893 -0.3947  1.3798 -0.8260
  259MOL0     H34153  -0.174   0.150  10.817  0.8688  0.3842 -0.5950
  259MOL0     H34154  -0.013   0.433  10.680  1.1571 -1.4479 -2.2071
  259MOL0     H34155   0.004   0.267  10.676  1.6060  1.4844 -2.8834
  259MOL0     H34156   0.235   0.344  10.608  1.5271 -1.0754  0.5744
  259MOL0     H34157   0.241   0.281  10.773 -0.9181  1.0315  1.2487
  259MOL0     H34158   0.249   0.484  10.885  1.5935 -2.1238 -0.4734
  259MOL0     H34159   0.192   0.578  10.740 -0.1700 -0.7257 -1.3479
  259MOL0     H34160   0.461   0.425  10.754 -0.1358 -1.3185 -2.8495
  259MOL0     H34161   0.409   0.525  10.630  2.0683  0.0083  0.3175
  259MOL0     H34162   0.559   0.608  10.852  0.2871  1.8003  0.0210
  259MOL0     H34163   0.399   0.664  10.895 -0.3403 -1.6604  0.1560
  259MOL0     H34164   0.398   0.751  10.647  0.3598  0.6186  0.6947
  259MOL0     H34165   0.567   0.712  10.640 -0.6354 -1.5939  0.2591
  259MOL0     H34166   0.401   0.910  10.821 -1.0230 -1.0985 -2.9168
  259MOL0     H34167   0.574   0.852  10.859 -0.4104  1.8717  0.3663
  259MOL0     H34168   0.485   1.076  10.704 -3.0543 -0.6286 -0.2584
  259MOL0     H34169   0.510   0.944  10.584  4.1811 -0.5024 -0.7395
  259MOL0     H34170   0.201   0.229  11.006  0.7871 -2.2282  0.4797
  259MOL0     H34171   0.211   0.016  11.079 -0.2841 -2.5777 -1.4036
  259MOL0     H34172   0.281  -0.468  11.142  0.3366 -2.2064 -1.9558
  259MOL0     H34173   0.197  -0.688  11.213  0.6363  2.0047  2.2278
  259MOL0     H34174   0.084   0.367  10.026  1.1384  2.4198 -1.8330
  259MOL0     H34175   0.116   0.628  10.080 -2.1926  0.3913 -0.2001
  259MOL0     H34176   0.018   0.988  10.208  1.4059 -1.4072  0.6084
  259MOL0     H34177   0.040   1.241  10.212 -0.2565  1.2062  0.0451
  259MOL0     H34178   0.389   1.338  10.287 -0.7009 -0.4830 -1.4237
  259MOL0     H34179   0.340   1.507  10.308  0.5916 -0.7463  1.3261
  259MOL0     H34180   0.287   1.311  10.085  0.7242 -0.1882 -0.5474
  259MOL0     H34181   0.146   1.399  10.136 -0.4989 -1.0435 -0.6914
  259MOL0     H34182   0.418   1.510  10.031 -0.6422 -1.3114  3.2890
  259MOL0     H34183   0.293   1.609  10.100 -3.9638 -1.6730  2.7731
  259MOL0     H34184   0.144   1.554   9.908  0.0893  1.7481  2.4156
  259MOL0     H34185   0.304   1.616   9.861  0.5264  0.9149  2.2216
  259MOL0     H34186   0.327   1.265   9.659  1.3794  1.6131  0.8093
  259MOL0     H34187   0.332   1.204  10.529 -2.1046  0.5788  1.9162
  259MOL0     H34188   0.299   0.965  10.535 -2.0879 -3.8646 -0.2704
  260MOL0     O34189   8.724   6.882   3.706  0.6130 -0.3408 -0.0111
  260MOL0     C34190   8.689   7.000   3.709 -0.0265  0.0957 -0.7034
  260MOL0     O34191   8.705   7.100   3.609  0.1536  0.2721  0.3872
  260MOL0     C34192   8.754   7.065   3.481  0.1180  0.8845 -0.1257
  260MOL0     C34193   8.670   7.008   3.387  1.1983 -0.4887  0.0078
  260MOL0     C34194   8.731   6.969   3.265  0.7690 -0.1440  0.2111
  260MOL0     C34195   8.869   6.983   3.248 -0.0829 -0.4001  0.0745
  260MOL0     O34196   8.928   6.931   3.134  0.0322 -0.6761 -0.2754
  260MOL0     C34197   8.865   6.930   3.013  0.4468  0.4172  0.4145
  260MOL0     C34198   8.987   6.873   2.928  0.3798 -0.6416  0.2864
  260MOL0     C34199   8.955   6.846   2.780 -0.8442  0.0143 -0.5945
  260MOL0     C34200   8.923   6.977   2.717  0.3138 -0.0241 -0.5827
  260MOL0     C34201   8.872   6.946   2.572 -1.0573 -0.4233  0.4387
  260MOL0     C34202   8.996   6.961   2.483  1.1310 -0.9083  0.0279
  260MOL0     C34203   8.987   6.902   2.345  0.8089 -0.3776  0.0918
  260MOL0     C34204   9.004   6.749   2.334 -0.7534  0.6287 -0.8109
  260MOL0     N34205   8.966   6.695   2.198 -0.7192  0.2056 -0.4797
  260MOL0     C34206   8.908   6.758   2.097 -1.0694 -0.6191  0.6767
  260MOL0     C34207   8.855   6.666   2.018 -0.3021 -0.1328  0.1922
  260MOL0     C34208   8.781   6.685   1.900 -0.0036 -0.1042  0.1117
  260MOL0     C34209   8.632   6.674   1.940  0.5261 -0.1309 -0.1499
  260MOL0     C34210   8.535   6.743   1.849  0.7097 -0.4527  0.6348
  260MOL0     C34211   8.567   6.694   1.702  0.0849  0.7894  0.6461
  260MOL0     O34212   8.475   6.759   1.614 -0.1613  0.0540 -0.1581
  260MOL0     C34213   8.450   6.718   1.488 -0.4249 -0.7576 -0.4769
  260MOL0     C34214   8.477   6.591   1.434  0.7723  0.1698 -0.4959
  260MOL0     C34215   8.455   6.552   1.296  0.2138  1.0109 -0.4577
  260MOL0     C34216   8.375   6.634   1.218  0.2506  1.0991 -0.2764
  260MOL0     C34217   8.331   6.576   1.081 -0.6158 -0.7953 -0.7607
  260MOL0     O34218   8.337   6.435   1.064  0.0430 -0.9007 -0.3843
  260MOL0     C34219   8.322   6.379   0.936  0.9386  1.2187  0.2221
  260MOL0     C34220   8.409   6.416   0.827 -0.3139 -0.4511 -0.5582
  260MOL0     C34221   8.398   6.351   0.707  0.2487  0.3788  0.0723
  260MOL0     C34222   8.296   6.264   0.679  0.1671  0.4071 -0.0837
  260MOL0     O34223   8.292   6.193   0.566 -0.7105 -0.0081  0.0088
  260MOL0     C34224   8.265   6.269   0.449  0.0225  0.3451  0.1849
  260MOL0     C34225   8.217   6.174   0.338 -0.6347  0.9802 -0.1985
  260MOL0     C34226   8.313   6.067   0.300  0.7462  0.1390 -0.5957
  260MOL0     C34227   8.279   6.014   0.163 -0.0759  0.3120  0.2698
  260MOL0     C34228   8.324   5.870   0.160 -0.5154 -0.0859 -0.6781
  260MOL0     C34229   8.353   5.823   0.019  0.1624 -0.5013 -0.0835
  260MOL0     C34230   8.248   5.850  -0.091 -0.0407 -0.2483  0.8935
  260MOL0     C34231   8.108   5.804  -0.055 -0.6196  0.0223 -1.5109
  260MOL0    Cl34232   8.003   5.830  -0.195 -0.0401  0.0685 -0.2698
  260MOL0     C34233   8.196   6.233   0.778  0.4316  0.1060  0.5828
  260MOL0     C34234   8.205   6.296   0.903 -0.5052 -1.4277  0.3593
  260MOL0     O34235   8.296   6.655   0.998  0.0461 -0.0415  0.1803
  260MOL0     C34236   8.345   6.767   1.265  0.5688  0.5175 -0.0189
  260MOL0     C34237   8.385   6.805   1.396 -0.1868 -0.2012  0.8357
  260MOL0     N34238   8.886   6.551   2.074 -1.6229 -1.6597 -0.5122
  260MOL0     N34239   8.951   6.565   2.179  0.4871 -0.0834 -0.1565
  260MOL0     C34240   8.951   7.031   3.353  0.5199 -0.7890  0.0212
  260MOL0     C34241   8.891   7.063   3.476  0.3951 -0.2210  0.6251
  260MOL0     C34242   8.614   7.041   3.825  1.1002  0.1003 -0.6996
  260MOL0     C34243   8.632   6.964   3.945 -0.9763 -0.0354 -0.8265
  260MOL0     C34244   8.579   7.010   4.065 -0.4047 -0.1723  0.0472
  260MOL0     C34245   8.503   7.132   4.066  0.6103  0.4088  0.4765
  260MOL0     O34246   8.465   7.196   4.188  0.5844 -0.0854  0.7864
  260MOL0     C34247   8.509   7.157   4.317 -0.0497  0.2665  0.1345
  260MOL0     C34248   8.407   7.066   4.379  0.3779 -0.7142  0.0536
  260MOL0     C34249   8.399   7.082   4.530 -0.5877 -0.0367 -0.0925
  260MOL0     C34250   8.305   7.192   4.577 -0.2998 -0.5039 -0.3946
  260MOL0     C34251   8.339   7.225   4.715  0.4119 -0.5365  0.0910
  260MOL0     C34252   8.376   7.238   4.834 -0.1931  0.9850  0.0372
  260MOL0     C34253   8.490   7.206   3.951  0.6926  1.0376  0.5448
  260MOL0     C34254   8.537   7.158   3.832 -0.2018 -0.6743  0.0969
  260MOL0     H34255   8.564   6.990   3.401  1.2722 -1.4039 -0.5113
  260MOL0     H34256   8.663   6.925   3.192  2.6818 -0.9524 -1.1543
  260MOL0     H34257   8.827   7.022   2.967 -0.6401  0.6199  1.6561
  260MOL0     H34258   8.779   6.862   3.010 -1.1611  2.3588 -2.6644
  260MOL0     H34259   9.020   6.779   2.973 -3.7343 -3.2108 -1.5002
  260MOL0     H34260   9.077   6.936   2.933  1.7956 -2.3115 -2.1079
  260MOL0     H34261   8.868   6.780   2.791 -0.8040  0.2986  1.9683
  260MOL0     H34262   9.043   6.805   2.730 -0.0472  1.3824 -0.3433
  260MOL0     H34263   8.835   7.022   2.765  0.3355  2.0338 -2.3316
  260MOL0     H34264   9.006   7.049   2.718 -0.1254  0.4856 -0.6464
  260MOL0     H34265   8.796   7.013   2.532  0.8337 -0.0134 -2.8141
  260MOL0     H34266   8.837   6.843   2.560  1.5014 -1.3381  0.0542
  260MOL0     H34267   9.084   6.925   2.538  1.8186  2.4756  1.3613
  260MOL0     H34268   8.998   7.067   2.457 -0.4750 -1.4340 -2.6137
  260MOL0     H34269   8.891   6.934   2.302  0.6660  0.7577  1.2139
  260MOL0     H34270   9.075   6.942   2.292  0.9327  1.0202  1.3001
  260MOL0     H34271   8.951   6.684   2.404  1.4309 -0.3643  0.0320
  260MOL0     H34272   9.109   6.718   2.343 -0.4851  1.0442 -2.1663
  260MOL0     H34273   8.907   6.866   2.082  0.8913 -0.2752  2.5539
  260MOL0     H34274   8.799   6.608   1.824 -1.6305  2.2199 -2.9026
  260MOL0     H34275   8.803   6.786   1.865 -0.6329  0.4072  1.1530
  260MOL0     H34276   8.619   6.721   2.038  0.9600 -1.7059  0.6893
  260MOL0     H34277   8.602   6.570   1.959 -0.6799  0.4301  1.2289
  260MOL0     H34278   8.431   6.717   1.872 -0.7113  4.4706  1.0966
  260MOL0     H34279   8.556   6.850   1.857 -2.9035  0.3551  1.2696
  260MOL0     H34280   8.565   6.585   1.703 -0.6592  0.7886  1.7857
  260MOL0     H34281   8.664   6.733   1.672 -1.4190  3.0678 -1.7017
  260MOL0     H34282   8.535   6.521   1.493 -2.0964 -2.7522 -0.8434
  260MOL0     H34283   8.482   6.451   1.266 -2.7410 -0.4737  1.3570
  260MOL0     H34284   8.484   6.493   0.843  1.1702 -1.8207 -0.7257
  260MOL0     H34285   8.469   6.377   0.629  0.9529 -1.7986 -0.0826
  260MOL0     H34286   8.361   6.317   0.429  0.3024  0.6005  1.9317
  260MOL0     H34287   8.188   6.344   0.468  1.3284  1.9697 -0.7211
  260MOL0     H34288   8.214   6.227   0.243 -0.7624 -3.2080 -2.7638
  260MOL0     H34289   8.120   6.131   0.363 -2.1916  4.4735  0.3518
  260MOL0     H34290   8.307   5.982   0.369 -1.1812  0.5377 -0.2163
  260MOL0     H34291   8.418   6.098   0.303  0.6422  0.4441  1.9430
  260MOL0     H34292   8.174   6.013   0.134 -0.2164 -0.6375  0.7396
  260MOL0     H34293   8.333   6.071   0.087  0.5544  2.0256  1.9289
  260MOL0     H34294   8.250   5.798   0.197  1.8589 -3.3125 -1.7884
  260MOL0     H34295   8.419   5.860   0.213 -0.5852 -0.0362 -0.5446
  260MOL0     H34296   8.369   5.715   0.011  1.3121 -0.5590  2.1696
  260MOL0     H34297   8.448   5.865  -0.014  0.2019  0.1337  0.7995
  260MOL0     H34298   8.256   5.953  -0.129  0.2656 -0.1281  1.2739
  260MOL0     H34299   8.278   5.774  -0.163  0.6933  1.5800 -0.8288
  260MOL0     H34300   8.070   5.863   0.029  2.1242  4.5961 -3.0581
  260MOL0     H34301   8.110   5.699  -0.026 -3.5457  0.6305  1.5762
  260MOL0     H34302   8.117   6.167   0.743 -1.7287  2.8020 -0.0384
  260MOL0     H34303   8.137   6.291   0.988  0.0265 -0.5810  0.8457
  260MOL0     H34304   8.306   6.846   1.202  1.4816  0.4982 -0.6311
  260MOL0     H34305   8.359   6.909   1.413  0.4932  0.0962  0.1327
  260MOL0     H34306   9.059   7.032   3.340  0.6671  0.4005  1.0475
  260MOL0     H34307   8.942   7.101   3.564 -1.5735  1.5980  1.0524
  260MOL0     H34308   8.703   6.882   3.949 -0.2458  0.5656  3.0598
  260MOL0     H34309   8.609   6.950   4.150  2.8877 -1.1497 -1.6239
  260MOL0     H34310   8.533   7.245   4.377  0.7519  0.3305 -0.2567
  260MOL0     H34311   8.602   7.102   4.302 -1.3018 -1.4673 -1.7307
  260MOL0     H34312   8.311   7.075   4.328  0.3746 -0.9475  0.0195
  260MOL0     H34313   8.429   6.960   4.364  1.3361 -0.7535  1.4843
  260MOL0     H34314   8.498   7.097   4.575 -0.8572 -3.2947  1.9244
  260MOL0     H34315   8.375   6.985   4.576  4.0585 -2.2603 -1.7406
  260MOL0     H34316   8.318   7.282   4.516 -1.9126  0.3327  0.4403
  260MOL0     H34317   8.205   7.156   4.555 -0.3267 -2.1299  1.9909
  260MOL0     H34318   8.402   7.242   4.938  1.2065 -4.7616  0.2453
  260MOL0     H34319   8.427   7.293   3.938  0.0220  0.2622 -1.6973
  260MOL0     H34320   8.528   7.222   3.745 -1.6149  0.4547  1.0230
  261MOL0     O34321   0.386   4.629   9.915 -0.5599 -0.6512  0.2852
  261MOL0     C34322   0.344   4.548   9.832 -0.2114 -0.3881 -0.2641
  261MOL0     O34323   0.377   4.539   9.702  0.7543  1.3635 -0.2192
  261MOL0     C34324   0.497   4.581   9.658  0.4146  0.1630  0.1836
  261MOL0     C34325   0.505   4.619   9.522  0.1232 -0.1073 -0.0418
  261MOL0     C34326   0.612   4.681   9.463  0.1616  0.1477 -0.0567
  261MOL0     C34327   0.723   4.709   9.540 -0.6925 -0.2462  0.2075
  261MOL0     O34328   0.832   4.777   9.493  0.0373  0.2179  0.4304
  261MOL0     C34329   0.834   4.811   9.363 -0.3594  0.1102  0.1980
  261MOL0     C34330   0.875   4.693   9.270 -0.1517 -0.2342  0.2009
  261MOL0     C34331   0.913   4.760   9.139 -1.0658  0.0076 -0.4641
  261MOL0     C34332   0.985   4.656   9.040 -0.0327 -0.9679  0.7622
  261MOL0     C34333   1.014   4.717   8.901 -0.0653  0.5404 -0.5307
  261MOL0     C34334   1.070   4.591   8.821  0.1888 -0.0715 -0.2888
  261MOL0     C34335   1.099   4.625   8.678  0.4638  0.1324 -0.1660
  261MOL0     C34336   0.971   4.649   8.592  0.5278  0.0998  1.0305
  261MOL0     N34337   0.986   4.756   8.495 -0.2640 -0.6464  0.4072
  261MOL0     C34338   0.977   4.890   8.526  0.3243 -0.5791 -1.0423
  261MOL0     C34339   1.042   4.958   8.427  0.0217  0.8993  0.7188
  261MOL0     C34340   1.050   5.106   8.414 -0.1594 -0.3872 -0.4744
  261MOL0     C34341   1.160   5.162   8.517  0.2353 -0.6013  1.2872
  261MOL0     C34342   1.111   5.223   8.648  0.5888  0.8269  0.2748
  261MOL0     C34343   1.234   5.269   8.736  0.3561  0.3825  0.6482
  261MOL0     O34344   1.265   5.394   8.686  0.3525 -0.2495 -0.3869
  261MOL0     C34345   1.376   5.464   8.723  0.3823 -0.3162 -0.0225
  261MOL0     C34346   1.367   5.601   8.752 -0.5779 -1.1069  0.0904
  261MOL0     C34347   1.473   5.675   8.785 -0.2223 -0.3029 -0.4979
  261MOL0     C34348   1.601   5.614   8.779  0.5908 -0.1129 -0.2499
  261MOL0     C34349   1.719   5.698   8.818  0.6341 -0.9453  0.3847
  261MOL0     O34350   1.834   5.631   8.820 -0.3555  0.1878 -0.7234
  261MOL0     C34351   1.964   5.689   8.826  0.5601  0.5363 -0.3082
  261MOL0     C34352   2.002   5.814   8.824 -1.0438 -0.4114  0.1963
  261MOL0     C34353   2.140   5.852   8.868 -0.2924 -0.1201 -0.1586
  261MOL0     C34354   2.237   5.754   8.880 -0.8761  0.9613 -0.3588
  261MOL0     O34355   2.373   5.776   8.891  0.0155 -1.1945 -0.5435
  261MOL0     C34356   2.424   5.870   8.984 -1.3442 -0.1083  0.7311
  261MOL0     C34357   2.575   5.863   8.980  1.0097  0.8843 -1.1339
  261MOL0     C34358   2.630   5.922   9.108 -0.8157 -0.3484 -0.8601
  261MOL0     C34359   2.626   6.078   9.114 -0.3201  0.4298  0.4895
  261MOL0     C34360   2.624   6.143   9.252 -0.1583  0.0361  0.6038
  261MOL0     C34361   2.736   6.106   9.348  0.1005  0.7258  0.6424
  261MOL0     C34362   2.724   6.180   9.486  0.5565  0.6205  0.0104
  261MOL0     C34363   2.779   6.324   9.486  0.9456 -0.4140 -0.2934
  261MOL0    Cl34364   2.801   6.383   9.653  0.0216 -0.1574  0.4918
  261MOL0     C34365   2.186   5.612   8.882 -0.1539 -0.7409 -0.3873
  261MOL0     C34366   2.055   5.587   8.854  0.4160 -0.0492  0.1767
  261MOL0     O34367   1.693   5.816   8.843  0.0768  0.7085 -0.4413
  261MOL0     C34368   1.611   5.479   8.742 -0.5121  0.2424 -0.3094
  261MOL0     C34369   1.494   5.400   8.730 -0.5098 -0.3537 -0.0631
  261MOL0     N34370   1.092   4.865   8.337 -0.3784  0.2351 -0.4535
  261MOL0     N34371   1.057   4.750   8.384  0.1743  0.4157  0.5825
  261MOL0     C34372   0.725   4.683   9.681  0.3124  0.3723  0.6806
  261MOL0     C34373   0.616   4.607   9.734  1.0604  1.0415  0.4944
  261MOL0     C34374   0.226   4.460   9.869  0.5431 -0.5915 -0.9108
  261MOL0     C34375   0.147   4.398   9.783  0.1658 -0.0537 -0.4483
  261MOL0     C34376   0.035   4.331   9.838 -0.0834  0.6824  0.3754
  261MOL0     C34377   0.003   4.323   9.972  0.9544  0.0511  0.5889
  261MOL0     O34378  -0.108   4.258  10.027  0.8083 -0.3383  0.4288
  261MOL0     C34379  -0.225   4.267   9.944  0.5510 -0.4297  0.2696
  261MOL0     C34380  -0.334   4.170   9.987 -0.9001  0.4604 -0.3178
  261MOL0     C34381  -0.369   4.178  10.141 -0.0908  0.4891  0.1750
  261MOL0     C34382  -0.460   4.302  10.172  0.3179 -0.3612  0.4663
  261MOL0     C34383  -0.594   4.266  10.128  0.2689  0.5305  0.0929
  261MOL0     C34384  -0.709   4.232  10.096 -0.3515  0.2829 -0.2002
  261MOL0     C34385   0.085   4.384  10.062  0.0430 -0.2096  0.4442
  261MOL0     C34386   0.196   4.445  10.008 -0.2802 -0.2947 -0.1373
  261MOL0     H34387   0.415   4.612   9.462 -1.8416  1.0396  2.5702
  261MOL0     H34388   0.597   4.713   9.360 -2.1073  1.8451  0.7051
  261MOL0     H34389   0.920   4.878   9.350  1.4929 -2.1956 -0.1334
  261MOL0     H34390   0.738   4.857   9.336 -2.0232 -1.9354  2.2126
  261MOL0     H34391   0.783   4.637   9.255 -0.3910  0.9445 -3.6832
  261MOL0     H34392   0.957   4.642   9.321  0.5222  1.1896  0.5994
  261MOL0     H34393   0.989   4.838   9.153  1.3087 -1.6047 -3.3183
  261MOL0     H34394   0.817   4.792   9.099 -1.3495  0.9007  0.8683
  261MOL0     H34395   1.088   4.644   9.075  1.6168  0.4178 -3.0725
  261MOL0     H34396   0.929   4.563   9.043  1.1591 -1.6841  2.1176
  261MOL0     H34397   1.092   4.794   8.911 -1.0025  1.2895  1.5996
  261MOL0     H34398   0.926   4.753   8.847 -0.2298  1.8463  0.5364
  261MOL0     H34399   1.004   4.504   8.832 -1.5963  1.2511 -0.1338
  261MOL0     H34400   1.169   4.577   8.867  0.3599 -0.1726 -0.6829
  261MOL0     H34401   1.178   4.700   8.661  1.3312 -1.2046 -2.4983
  261MOL0     H34402   1.157   4.539   8.644  1.4837  1.1487 -1.1005
  261MOL0     H34403   0.878   4.675   8.643 -0.7193  2.0450 -1.9355
  261MOL0     H34404   0.956   4.557   8.536  0.4510  1.8903 -2.1630
  261MOL0     H34405   0.919   4.935   8.607 -2.6136 -0.5122 -3.0149
  261MOL0     H34406   0.955   5.157   8.433 -0.0135  0.1587 -1.1694
  261MOL0     H34407   1.069   5.122   8.308 -3.5783  1.4527 -0.9557
  261MOL0     H34408   1.202   5.244   8.458 -1.8165  1.8721  3.0516
  261MOL0     H34409   1.232   5.082   8.537  1.1418 -0.3983 -0.8605
  261MOL0     H34410   1.033   5.299   8.634 -0.3579 -0.0955  0.4078
  261MOL0     H34411   1.063   5.145   8.707  0.8979 -0.7385 -1.4642
  261MOL0     H34412   1.307   5.189   8.722  2.1798  2.3163 -1.8795
  261MOL0     H34413   1.206   5.273   8.841 -2.3698  0.9354 -0.0145
  261MOL0     H34414   1.273   5.653   8.769 -0.5939 -2.0138  3.5402
  261MOL0     H34415   1.455   5.771   8.832  2.5729  0.4253 -0.7338
  261MOL0     H34416   1.938   5.897   8.798 -0.2736  0.2788  0.4622
  261MOL0     H34417   2.155   5.959   8.858  1.6179 -0.4208 -0.8871
  261MOL0     H34418   2.396   5.844   9.086  0.1013  1.2132  1.4968
  261MOL0     H34419   2.387   5.971   8.967 -2.1569  0.0623  3.1528
  261MOL0     H34420   2.608   5.921   8.894  0.3103  1.4738 -1.0125
  261MOL0     H34421   2.610   5.760   8.975 -0.6430  0.3308 -2.0861
  261MOL0     H34422   2.737   5.904   9.122 -1.2343 -1.0678  1.8175
  261MOL0     H34423   2.602   5.878   9.204  4.5751 -0.5689  0.9901
  261MOL0     H34424   2.713   6.125   9.067 -0.9291  1.7189  0.6301
  261MOL0     H34425   2.535   6.109   9.063  0.5236 -1.1144 -2.1243
  261MOL0     H34426   2.527   6.123   9.300  0.0278  1.5450  1.6762
  261MOL0     H34427   2.634   6.251   9.238  2.1593 -0.4866 -3.5075
  261MOL0     H34428   2.837   6.123   9.311 -0.2657  1.0034 -0.2415
  261MOL0     H34429   2.717   6.000   9.370  0.0733  0.9297  1.6850
  261MOL0     H34430   2.619   6.180   9.513 -0.9473  1.3434 -4.8380
  261MOL0     H34431   2.788   6.133   9.561  0.3272  3.1060  1.8598
  261MOL0     H34432   2.697   6.379   9.438  1.3649  0.2711 -0.2421
  261MOL0     H34433   2.863   6.338   9.418  0.9915  1.0278  0.0223
  261MOL0     H34434   2.236   5.515   8.884 -0.1232 -0.7152  0.5142
  261MOL0     H34435   2.012   5.487   8.860 -0.9748  0.6103  2.7060
  261MOL0     H34436   1.711   5.439   8.755 -0.7968 -0.6127 -0.6870
  261MOL0     H34437   1.501   5.294   8.705  3.4211  0.2599 -2.4649
  261MOL0     H34438   0.820   4.693   9.732  1.1433 -2.5944 -0.1141
  261MOL0     H34439   0.634   4.571   9.834  2.7164 -0.0918 -0.1752
  261MOL0     H34440   0.168   4.404   9.677 -1.3675  2.7175 -0.6911
  261MOL0     H34441  -0.034   4.272   9.779  0.6671  0.2701 -0.1162
  261MOL0     H34442  -0.212   4.247   9.837 -0.5554  0.7562 -0.1138
  261MOL0     H34443  -0.261   4.370   9.941  2.4567  0.2659 -2.6518
  261MOL0     H34444  -0.419   4.179   9.919 -0.9458 -0.1077 -0.3367
  261MOL0     H34445  -0.308   4.066   9.968 -4.0314 -0.3222 -0.8949
  261MOL0     H34446  -0.276   4.185  10.199 -0.4702  1.3379  0.6988
  261MOL0     H34447  -0.421   4.084  10.165  0.3975  0.5196  1.4438
  261MOL0     H34448  -0.476   4.323  10.278 -0.6518  2.3252 -0.1447
  261MOL0     H34449  -0.421   4.395  10.131 -2.6371  3.4987  5.3084
  261MOL0     H34450  -0.804   4.189  10.070  1.2719 -2.4793 -2.0313
  261MOL0     H34451   0.082   4.379  10.171 -2.1919 -0.5692  0.4121
  261MOL0     H34452   0.269   4.484  10.079 -3.3871  1.1812  2.5143
  262MOL0     O34453   7.241   1.417  10.682 -0.1522  0.0454  0.1165
  262MOL0     C34454   7.189   1.498  10.608 -0.2042  0.8960 -0.1060
  262MOL0     O34455   7.056   1.515  10.589 -0.2206  0.2293 -0.0128
  262MOL0     C34456   6.959   1.426  10.636  0.3296 -0.5439 -0.2705
  262MOL0     C34457   6.828   1.485  10.644  0.4716  0.1778 -0.8175
  262MOL0     C34458   6.716   1.417  10.692 -0.0700 -0.4794 -0.5099
  262MOL0     C34459   6.739   1.283  10.745 -0.0474  0.2157  0.3178
  262MOL0     O34460   6.641   1.202  10.790  0.5012  1.0702  0.6524
  262MOL0     C34461   6.565   1.143  10.682 -0.4221 -0.1550  0.4470
  262MOL0     C34462   6.460   1.051  10.733  1.1897  0.3387 -0.2033
  262MOL0     C34463   6.348   1.035  10.630  1.3479 -0.4235  0.2252
  262MOL0     C34464   6.244   1.146  10.628  0.2685 -0.0372  0.1598
  262MOL0     C34465   6.208   1.198  10.491  0.3045 -0.0777  0.0359
  262MOL0     C34466   6.315   1.283  10.422  0.2050 -0.6037  0.4322
  262MOL0     C34467   6.276   1.330  10.290  0.1372 -0.0782 -0.3991
  262MOL0     C34468   6.373   1.454  10.248 -0.5163  0.5985  0.6126
  262MOL0     N34469   6.512   1.427  10.221 -0.0802  0.0593 -0.4468
  262MOL0     C34470   6.562   1.432  10.093 -0.2905  0.3842 -0.6579
  262MOL0     C34471   6.689   1.397  10.107 -0.9123  0.2590 -1.1146
  262MOL0     C34472   6.773   1.369   9.993 -0.4560  0.3381 -0.0637
  262MOL0     C34473   6.759   1.228   9.953  0.0973 -0.4497 -0.2022
  262MOL0     C34474   6.859   1.190   9.845  0.4541  0.3695  0.2419
  262MOL0     C34475   6.864   1.269   9.717  0.8216  1.4186  0.2099
  262MOL0     O34476   6.930   1.389   9.740 -0.0062 -0.0597  0.6990
  262MOL0     C34477   6.905   1.499   9.657  1.5375  0.8871 -0.7288
  262MOL0     C34478   6.953   1.625   9.705  0.0642  1.8074 -0.3478
  262MOL0     C34479   6.950   1.740   9.630 -0.3199  0.0916 -0.2660
  262MOL0     C34480   6.893   1.739   9.506 -0.4609  0.3131  0.0406
  262MOL0     C34481   6.886   1.858   9.417 -0.0752  0.2196 -0.4943
  262MOL0     O34482   7.008   1.926   9.408  1.4815  0.0359 -0.4671
  262MOL0     C34483   7.004   2.030   9.319 -0.6560 -0.0325 -0.1567
  262MOL0     C34484   7.006   2.011   9.178 -0.7240 -0.1766 -0.0377
  262MOL0     C34485   7.038   2.114   9.091  0.2889  0.1312  0.9464
  262MOL0     C34486   7.063   2.238   9.140 -0.3614  0.2240  0.1053
  262MOL0     O34487   7.093   2.347   9.062 -0.5424 -0.5011  0.1948
  262MOL0     C34488   6.993   2.440   9.037 -0.4078 -0.2835  0.2802
  262MOL0     C34489   6.993   2.498   8.896 -0.1895 -1.3808  0.5055
  262MOL0     C34490   6.984   2.388   8.792 -0.3142  0.0657  0.7724
  262MOL0     C34491   7.011   2.473   8.667 -0.3871 -0.6589  0.3260
  262MOL0     C34492   6.959   2.408   8.537 -0.4428  0.5510 -0.2620
  262MOL0     C34493   7.052   2.283   8.498  0.1286  0.2335 -0.6889
  262MOL0     C34494   7.006   2.221   8.365  0.7956  0.5317 -0.3286
  262MOL0     C34495   7.053   2.079   8.360  0.4311 -0.0314 -0.0147
  262MOL0    Cl34496   7.236   2.114   8.340  0.2926  0.2456  0.3141
  262MOL0     C34497   7.055   2.262   9.279  0.2268  0.8439 -0.4759
  262MOL0     C34498   7.039   2.158   9.376  0.5754 -0.1754 -0.1329
  262MOL0     O34499   6.780   1.879   9.353 -0.5853  0.0579 -1.4450
  262MOL0     C34500   6.821   1.619   9.462  0.2993  0.3358 -1.0996
  262MOL0     C34501   6.836   1.496   9.537 -0.5233 -0.2727 -0.4673
  262MOL0     N34502   6.718   1.377  10.241 -0.5557 -0.2840  0.2639
  262MOL0     N34503   6.610   1.386  10.310  0.7459 -0.5871  0.5808
  262MOL0     C34504   6.868   1.228  10.744 -0.5113  0.0895  0.2378
  262MOL0     C34505   6.971   1.301  10.684 -1.5393  0.7115 -0.8670
  262MOL0     C34506   7.273   1.603  10.539 -0.1569  0.3514 -0.1719
  262MOL0     C34507   7.215   1.690  10.439 -0.7711 -0.7120 -0.1249
  262MOL0     C34508   7.309   1.777  10.383  0.3059 -0.9986  0.0724
  262MOL0     C34509   7.440   1.797  10.424 -0.8395 -1.2551 -0.2491
  262MOL0     O34510   7.508   1.900  10.364  0.5028 -0.3276  0.1998
  262MOL0     C34511   7.652   1.911  10.381 -0.1608  0.5947 -0.7828
  262MOL0     C34512   7.716   2.033  10.314  0.3634 -0.3050  0.0673
  262MOL0     C34513   7.862   2.031  10.289  0.4317  0.4804  0.4434
  262MOL0     C34514   7.897   2.158  10.207 -0.0580 -0.4749 -0.3813
  262MOL0     C34515   7.862   2.279  10.272  0.0109 -0.6211  0.4604
  262MOL0     C34516   7.823   2.386  10.314  0.7344  0.7524 -0.1515
  262MOL0     C34517   7.490   1.717  10.528  0.2487  0.6363 -0.6681
  262MOL0     C34518   7.402   1.629  10.590 -0.1054 -0.0754  0.1604
  262MOL0     H34519   6.820   1.585  10.602 -2.0689  1.2370  1.8052
  262MOL0     H34520   6.618   1.457  10.665 -0.1123 -1.6199 -2.1449
  262MOL0     H34521   6.638   1.082  10.627 -0.6557 -0.5522  0.5775
  262MOL0     H34522   6.515   1.213  10.615  0.2582 -0.6335 -0.5931
  262MOL0     H34523   6.420   1.080  10.831 -2.0724 -3.0949 -0.2871
  262MOL0     H34524   6.511   0.955  10.745  0.3734  0.0226  0.9718
  262MOL0     H34525   6.297   0.938  10.632  3.4621 -1.6914 -1.8858
  262MOL0     H34526   6.392   1.017  10.531 -0.9588  2.5767 -1.5038
  262MOL0     H34527   6.156   1.114  10.684 -0.5052  3.1193  0.9171
  262MOL0     H34528   6.284   1.234  10.678  1.3320  0.6195 -1.7431
  262MOL0     H34529   6.122   1.266  10.501  0.5181  0.6205 -2.2385
  262MOL0     H34530   6.181   1.123  10.416  1.0732  2.1880 -2.7007
  262MOL0     H34531   6.405   1.222  10.425  1.2211  0.7817 -0.7052
  262MOL0     H34532   6.331   1.376  10.476 -3.3427  1.3097 -1.3856
  262MOL0     H34533   6.284   1.249  10.217 -4.2007  0.3902 -1.6458
  262MOL0     H34534   6.178   1.378  10.294  0.8670  1.3822  1.2886
  262MOL0     H34535   6.377   1.533  10.323  0.5619  1.9297 -0.7682
  262MOL0     H34536   6.335   1.485  10.150 -2.3117 -2.4528  0.2278
  262MOL0     H34537   6.516   1.457   9.998 -0.1981  1.7421 -0.3613
  262MOL0     H34538   6.874   1.377  10.032 -0.2822 -3.7745  0.7546
  262MOL0     H34539   6.750   1.441   9.913  0.9355  0.0906 -0.7100
  262MOL0     H34540   6.657   1.209   9.918  0.3092 -0.8641 -0.6077
  262MOL0     H34541   6.783   1.158  10.034  2.2455 -0.2329 -0.6024
  262MOL0     H34542   6.962   1.182   9.881  1.3457  2.2762 -1.6776
  262MOL0     H34543   6.838   1.085   9.820  0.5464  1.2537 -4.3502
  262MOL0     H34544   6.758   1.286   9.696  0.6046 -1.8684 -2.1709
  262MOL0     H34545   6.909   1.217   9.632  0.8397  1.6724  0.0632
  262MOL0     H34546   6.997   1.619   9.804 -1.7589 -0.7504  0.4337
  262MOL0     H34547   6.985   1.834   9.673 -1.1758  0.0427  0.5617
  262MOL0     H34548   6.988   1.912   9.140  0.6145 -0.3182 -0.3785
  262MOL0     H34549   7.032   2.105   8.983 -0.1040  1.3318  0.8547
  262MOL0     H34550   7.003   2.518   9.113 -0.5849 -1.0483  1.1115
  262MOL0     H34551   6.898   2.387   9.049 -0.3942 -0.7704 -1.4333
  262MOL0     H34552   7.080   2.564   8.890  0.8547 -2.8291 -2.4205
  262MOL0     H34553   6.918   2.576   8.882  2.0162  0.5635 -1.1156
  262MOL0     H34554   6.888   2.336   8.801 -0.1826  0.0183  1.9928
  262MOL0     H34555   7.059   2.310   8.809  1.1882  1.2151 -0.2968
  262MOL0     H34556   6.940   2.556   8.674 -3.7270 -3.3394  0.9103
  262MOL0     H34557   7.110   2.519   8.665 -0.6135  0.1451 -4.8573
  262MOL0     H34558   6.959   2.477   8.452  1.9452  1.6287  0.5589
  262MOL0     H34559   6.853   2.381   8.550 -0.1769 -0.3283  0.1726
  262MOL0     H34560   7.052   2.211   8.580 -3.3556  1.2035  0.3274
  262MOL0     H34561   7.152   2.326   8.496  1.2099 -1.7757  2.6131
  262MOL0     H34562   6.897   2.219   8.366  0.6882 -1.2948  3.3882
  262MOL0     H34563   7.037   2.281   8.279 -0.3963  0.6920 -0.6509
  262MOL0     H34564   7.009   2.035   8.270  0.5811  2.7129 -1.5598
  262MOL0     H34565   7.033   2.021   8.451 -2.6465  0.2588 -0.3952
  262MOL0     H34566   7.070   2.361   9.319 -2.2175  1.3334 -0.6374
  262MOL0     H34567   7.054   2.179   9.481  0.3906  1.7973 -0.4564
  262MOL0     H34568   6.772   1.624   9.366 -1.1657  0.6870 -0.3620
  262MOL0     H34569   6.792   1.400   9.514 -2.2271  0.1753  0.7223
  262MOL0     H34570   6.898   1.135  10.790  2.4249  1.0881  0.5536
  262MOL0     H34571   7.072   1.263  10.697 -0.1528  4.7364  2.1381
  262MOL0     H34572   7.114   1.667  10.405 -1.3725 -0.4093  1.3715
  262MOL0     H34573   7.267   1.839  10.304 -3.0230 -1.5257  1.2610
  262MOL0     H34574   7.689   1.818  10.337  0.3923 -0.1947  1.2354
  262MOL0     H34575   7.669   1.906  10.489 -2.2587  1.3861 -0.3651
  262MOL0     H34576   7.659   2.062  10.225 -1.9708  3.8604  2.5964
  262MOL0     H34577   7.694   2.113  10.386  0.8605 -1.0833  1.0962
  262MOL0     H34578   7.891   1.939  10.237 -2.7432 -0.5354  0.2620
  262MOL0     H34579   7.915   2.023  10.384  1.6556 -3.4147 -0.3903
  262MOL0     H34580   8.003   2.184  10.219 -0.8665  2.3885  1.6702
  262MOL0     H34581   7.874   2.169  10.101 -3.5697  2.8669  0.5106
  262MOL0     H34582   7.794   2.486  10.343 -1.3423  0.2515 -0.3555
  262MOL0     H34583   7.590   1.729  10.568  0.0388 -0.2720  0.1661
  262MOL0     H34584   7.443   1.572  10.672 -0.9943  0.3649  0.9351
  263MOL0     O34585   2.407   6.466   2.403  0.3001 -0.8155 -0.0855
  263MOL0     C34586   2.410   6.347   2.373  0.3665  0.3375  0.3579
  263MOL0     O34587   2.442   6.247   2.449 -0.2922 -0.1442  0.1673
  263MOL0     C34588   2.424   6.259   2.584 -0.0351  0.0887 -0.7181
  263MOL0     C34589   2.537   6.224   2.661  0.1537 -0.1668  0.6025
  263MOL0     C34590   2.539   6.214   2.800 -0.4837 -0.4254  0.4499
  263MOL0     C34591   2.428   6.239   2.872 -0.1101  0.0836 -0.4715
  263MOL0     O34592   2.412   6.243   3.010  0.4950 -0.5439 -0.0961
  263MOL0     C34593   2.508   6.174   3.093 -0.0527 -0.1458  0.5340
  263MOL0     C34594   2.525   6.021   3.067 -0.1594 -0.3555  0.6898
  263MOL0     C34595   2.405   5.944   3.131  1.2601  0.4607  0.2876
  263MOL0     C34596   2.263   5.993   3.080 -0.9669 -0.1614  0.4025
  263MOL0     C34597   2.160   5.890   3.124  0.0114  0.3875 -0.1538
  263MOL0     C34598   2.027   5.906   3.045  0.2627 -0.0621 -0.5069
  263MOL0     C34599   1.955   6.030   3.085 -0.7130 -0.6881  0.0657
  263MOL0     C34600   1.802   6.022   3.059  0.3971 -0.0273  0.2680
  263MOL0     N34601   1.775   6.031   2.916 -0.6323  0.3453 -0.0428
  263MOL0     C34602   1.794   6.142   2.834  0.2393 -0.8216  0.5075
  263MOL0     C34603   1.763   6.106   2.707  0.6370 -0.2039  0.5657
  263MOL0     C34604   1.763   6.170   2.569  0.0827 -0.9918 -0.3212
  263MOL0     C34605   1.897   6.239   2.516 -0.4936  0.3672 -1.0186
  263MOL0     C34606   1.994   6.146   2.458 -1.4245 -0.3736 -0.5204
  263MOL0     C34607   2.050   6.027   2.543  0.0625  1.0323 -0.2079
  263MOL0     O34608   2.190   6.006   2.515  0.0888  0.1702  0.5003
  263MOL0     C34609   2.243   5.878   2.518  0.7403 -0.4417 -1.0532
  263MOL0     C34610   2.198   5.787   2.418 -0.4992 -0.5596  0.2250
  263MOL0     C34611   2.263   5.664   2.415  0.0721 -0.3160 -0.2530
  263MOL0     C34612   2.361   5.619   2.514 -0.1293 -1.0202  0.3205
  263MOL0     C34613   2.430   5.492   2.514  0.8319  0.4443 -0.2438
  263MOL0     O34614   2.485   5.447   2.631 -0.6802 -0.3986 -0.2577
  263MOL0     C34615   2.542   5.324   2.637 -0.1102 -0.4324 -0.0038
  263MOL0     C34616   2.490   5.200   2.588  0.2377  0.4541 -0.2156
  263MOL0     C34617   2.551   5.073   2.618  0.0573  0.0706 -0.5920
  263MOL0     C34618   2.666   5.077   2.705 -0.2973  0.1384  0.0124
  263MOL0     O34619   2.726   4.969   2.765  0.2566 -0.7815  0.6479
  263MOL0     C34620   2.669   4.837   2.755 -0.6988 -0.5078 -0.2887
  263MOL0     C34621   2.532   4.825   2.829  0.7053 -0.2565 -0.4162
  263MOL0     C34622   2.522   4.679   2.901 -1.0630 -0.8442 -0.9754
  263MOL0     C34623   2.618   4.690   3.024  0.8535 -0.6287 -0.0658
  263MOL0     C34624   2.613   4.561   3.099 -0.4468  0.1786 -0.1143
  263MOL0     C34625   2.726   4.466   3.052 -0.1239 -0.3702  1.0389
  263MOL0     C34626   2.675   4.330   3.017 -0.4406 -0.0307 -0.2580
  263MOL0     C34627   2.603   4.247   3.130 -0.3942 -0.4039 -0.2107
  263MOL0    Cl34628   2.707   4.194   3.271  0.1664  0.2124 -0.4848
  263MOL0     C34629   2.720   5.200   2.752 -1.0967  0.1126 -0.0444
  263MOL0     C34630   2.661   5.324   2.715  0.3664 -0.5871 -0.8898
  263MOL0     O34631   2.424   5.429   2.409  0.2431 -0.2366 -0.8911
  263MOL0     C34632   2.398   5.709   2.622 -0.5044 -0.1925 -0.5349
  263MOL0     C34633   2.333   5.837   2.626  0.4317  0.6906  0.4396
  263MOL0     N34634   1.740   5.974   2.711  0.1826  0.1251 -0.1518
  263MOL0     N34635   1.740   5.934   2.828 -1.0070  0.7800  0.2023
  263MOL0     C34636   2.315   6.272   2.803  0.7525 -0.7021 -0.5649
  263MOL0     C34637   2.308   6.284   2.661  0.3985 -0.4080 -0.7113
  263MOL0     C34638   2.378   6.308   2.233  0.3860 -0.0761 -0.9565
  263MOL0     C34639   2.304   6.194   2.208  0.2715 -0.2362  0.5368
  263MOL0     C34640   2.268   6.162   2.076  0.3031  0.5161 -0.3414
  263MOL0     C34641   2.296   6.254   1.967  0.4184  0.3473  0.3192
  263MOL0     O34642   2.248   6.229   1.843  0.2348  0.0098  0.1702
  263MOL0     C34643   2.305   6.303   1.737  0.7252  0.3542  0.6781
  263MOL0     C34644   2.274   6.249   1.594 -0.5527  0.6817 -0.2689
  263MOL0     C34645   2.355   6.121   1.561 -0.3294 -0.3716  0.0712
  263MOL0     C34646   2.461   6.147   1.449 -1.0032  0.5043 -0.1401
  263MOL0     C34647   2.413   6.136   1.316  0.3953  0.5971  0.1540
  263MOL0     C34648   2.399   6.109   1.199 -0.7709 -0.3882  0.0083
  263MOL0     C34649   2.378   6.361   1.996  0.2390 -1.0122  0.6325
  263MOL0     C34650   2.414   6.387   2.129  0.8524  0.1423  0.2145
  263MOL0     H34651   2.620   6.207   2.593 -0.4709 -1.1846  0.0830
  263MOL0     H34652   2.627   6.203   2.864 -0.0478  1.6760  0.2638
  263MOL0     H34653   2.485   6.177   3.200  1.5794  0.0938  0.9076
  263MOL0     H34654   2.602   6.229   3.084  0.9236 -1.9308 -1.0264
  263MOL0     H34655   2.607   5.977   3.125  0.8571 -1.7772 -1.6301
  263MOL0     H34656   2.542   5.999   2.961 -0.0828 -0.0560  0.6386
  263MOL0     H34657   2.409   5.953   3.240  1.0969 -1.0730  0.4485
  263MOL0     H34658   2.420   5.841   3.097  1.5223  1.1531 -1.8553
  263MOL0     H34659   2.233   6.087   3.127 -2.8852  0.5222 -2.0047
  263MOL0     H34660   2.255   6.001   2.971 -0.6919 -1.7767  0.2337
  263MOL0     H34661   2.140   5.914   3.229 -1.1192 -0.9635 -0.0354
  263MOL0     H34662   2.205   5.792   3.107  3.0294  1.5804  0.2722
  263MOL0     H34663   1.977   5.822   3.095  0.6255 -0.4114 -0.7279
  263MOL0     H34664   2.038   5.883   2.938  2.6721 -0.9582 -0.1217
  263MOL0     H34665   1.970   6.050   3.192  0.3022  2.1116 -0.5093
  263MOL0     H34666   2.003   6.119   3.043  0.4100 -0.9343  0.7968
  263MOL0     H34667   1.738   6.098   3.104  2.6105  1.5540  0.8630
  263MOL0     H34668   1.764   5.924   3.090 -0.1802 -1.2342 -3.6484
  263MOL0     H34669   1.835   6.239   2.860  0.0741 -0.9030  1.0956
  263MOL0     H34670   1.698   6.257   2.575  0.9941 -0.3835  2.8705
  263MOL0     H34671   1.714   6.107   2.494 -0.2635 -0.8053 -0.2543
  263MOL0     H34672   1.948   6.305   2.586 -1.1106 -1.8132  1.6502
  263MOL0     H34673   1.871   6.307   2.434  0.9562 -1.0173 -2.7042
  263MOL0     H34674   1.930   6.097   2.384 -1.5019 -1.2004  0.0772
  263MOL0     H34675   2.071   6.211   2.414 -4.4100  2.2241 -2.2851
  263MOL0     H34676   1.990   5.938   2.524 -0.3500  0.9749  1.2190
  263MOL0     H34677   2.029   6.034   2.650 -2.9634 -1.8627 -0.4754
  263MOL0     H34678   2.131   5.830   2.344  2.0124  1.7772 -0.8696
  263MOL0     H34679   2.235   5.597   2.334  0.1011 -0.6671  0.0253
  263MOL0     H34680   2.403   5.206   2.523  1.1401  2.5173 -1.3255
  263MOL0     H34681   2.522   4.974   2.585  1.4186 -0.9876  1.1672
  263MOL0     H34682   2.738   4.762   2.794  0.8546  1.7755  1.7030
  263MOL0     H34683   2.661   4.814   2.649 -0.4434 -0.8477 -0.2356
  263MOL0     H34684   2.446   4.845   2.763 -0.9172  1.1381  1.9786
  263MOL0     H34685   2.516   4.906   2.901 -0.8539 -0.3431 -0.6239
  263MOL0     H34686   2.546   4.600   2.829  1.9586 -0.3789 -0.6230
  263MOL0     H34687   2.420   4.669   2.939  0.6171 -3.2392  3.6182
  263MOL0     H34688   2.719   4.722   2.996  0.1819  1.0288 -0.7663
  263MOL0     H34689   2.585   4.773   3.089 -0.9147 -0.5490 -1.0046
  263MOL0     H34690   2.522   4.508   3.071  0.7300 -2.6199  1.0072
  263MOL0     H34691   2.609   4.582   3.207  0.1660  1.8944 -0.3838
  263MOL0     H34692   2.812   4.455   3.119  0.9187  0.7350 -0.0806
  263MOL0     H34693   2.759   4.516   2.961  0.4227  0.4516  1.6693
  263MOL0     H34694   2.600   4.340   2.938 -2.7181 -0.5017  1.7168
  263MOL0     H34695   2.758   4.277   2.970  0.5975  2.2190 -1.0795
  263MOL0     H34696   2.546   4.169   3.078 -1.4183  1.4617 -2.0076
  263MOL0     H34697   2.525   4.310   3.174  1.7121  1.7617  0.6496
  263MOL0     H34698   2.809   5.203   2.815 -0.2272 -2.9321 -0.9848
  263MOL0     H34699   2.687   5.421   2.755  0.8526 -1.7252  1.7534
  263MOL0     H34700   2.463   5.690   2.706  0.8413  2.5058 -0.8376
  263MOL0     H34701   2.357   5.906   2.706 -2.2509  0.5022  1.5278
  263MOL0     H34702   2.224   6.272   2.863  0.4115 -0.1162 -1.0669
  263MOL0     H34703   2.214   6.294   2.607  0.2393  2.7786 -0.0370
  263MOL0     H34704   2.279   6.125   2.288  1.6164 -2.2414 -0.6569
  263MOL0     H34705   2.205   6.076   2.056  0.3100  1.1227 -3.6315
  263MOL0     H34706   2.413   6.316   1.748  0.9000  1.3434 -1.7711
  263MOL0     H34707   2.256   6.399   1.752  1.2815  0.1025  5.8099
  263MOL0     H34708   2.164   6.243   1.590 -0.6817  1.9321  0.9339
  263MOL0     H34709   2.281   6.318   1.509 -2.0810  1.7739  0.4354
  263MOL0     H34710   2.287   6.045   1.522  1.4845 -1.8288 -0.3909
  263MOL0     H34711   2.399   6.084   1.654 -2.2621  2.0037  2.0870
  263MOL0     H34712   2.512   6.244   1.453 -0.5936  0.7683 -5.3130
  263MOL0     H34713   2.542   6.074   1.455 -0.7761  0.5809 -1.8425
  263MOL0     H34714   2.387   6.078   1.098 -0.1720  0.7744 -0.4383
  263MOL0     H34715   2.396   6.435   1.918 -0.4363 -0.0169  1.3890
  263MOL0     H34716   2.460   6.484   2.144  0.7937  0.4340 -1.3421
  264MOL0     O34717  10.421   9.107   8.841 -0.2255 -0.0114 -0.1590
  264MOL0     C34718  10.353   9.005   8.825  0.1032  0.3805  0.0665
  264MOL0     O34719  10.258   8.989   8.714  0.1134 -0.0426 -0.1784
  264MOL0     C34720  10.238   9.089   8.624  0.0730  0.6751 -0.2940
  264MOL0     C34721  10.217   9.052   8.486 -0.3207 -0.4142 -0.7663
  264MOL0     C34722  10.199   9.156   8.396  0.4343 -0.0705  0.1306
  264MOL0     C34723  10.192   9.293   8.435  0.6718  0.5667  1.1631
  264MOL0     O34724  10.150   9.394   8.342  0.5654  0.2414 -0.1313
  264MOL0     C34725  10.099   9.359   8.213  0.0767 -0.8626 -0.7629
  264MOL0     C34726  10.045   9.484   8.159 -0.4221 -0.1649  0.6396
  264MOL0     C34727   9.990   9.461   8.023 -0.4573  0.5293 -0.0246
  264MOL0     C34728   9.918   9.591   7.964 -0.5700  0.2814 -0.3247
  264MOL0     C34729   9.856   9.560   7.827  0.6087 -0.8001 -0.4289
  264MOL0     C34730   9.777   9.685   7.782 -0.7882  0.4043  0.3915
  264MOL0     C34731   9.698   9.669   7.645  0.0400 -1.6077 -0.4983
  264MOL0     C34732   9.593   9.567   7.647  0.2101 -0.4482 -1.1093
  264MOL0     N34733   9.493   9.584   7.757 -0.7572  0.0635  0.4270
  264MOL0     C34734   9.474   9.486   7.845  0.7481  0.2474 -0.0499
  264MOL0     C34735   9.399   9.548   7.938  0.5554 -1.2311 -0.5535
  264MOL0     C34736   9.350   9.489   8.065 -0.3969 -1.2396  0.0281
  264MOL0     C34737   9.206   9.450   8.054  0.8790  1.0497 -1.1802
  264MOL0     C34738   9.133   9.397   8.182  0.2050  0.3864 -0.9552
  264MOL0     C34739   9.199   9.273   8.238  0.6534  0.7024 -0.9469
  264MOL0     O34740   9.313   9.303   8.324  0.1152  0.0782 -0.2729
  264MOL0     C34741   9.345   9.219   8.428  0.4382 -0.1631  1.1972
  264MOL0     C34742   9.259   9.160   8.516  0.1395  0.4087 -0.3894
  264MOL0     C34743   9.308   9.064   8.608 -0.6087  0.1857  0.3741
  264MOL0     C34744   9.446   9.023   8.615 -0.6174 -0.1810  0.2685
  264MOL0     C34745   9.498   8.932   8.710 -0.2009 -0.6000 -0.4990
  264MOL0     O34746   9.609   8.858   8.672  0.3349  0.0896 -0.3314
  264MOL0     C34747   9.690   8.786   8.759 -0.1054 -1.0369 -0.7250
  264MOL0     C34748   9.785   8.704   8.699 -0.3145  0.1483  0.5668
  264MOL0     C34749   9.879   8.630   8.762 -0.4769  0.4280  0.8327
  264MOL0     C34750   9.891   8.648   8.903  1.2941  0.4469 -1.0535
  264MOL0     O34751   9.982   8.576   8.985  0.4987  0.4140  0.3343
  264MOL0     C34752   9.973   8.441   8.998  0.1309  0.7237  0.4342
  264MOL0     C34753   9.870   8.401   9.101  1.0670 -0.0579 -0.2913
  264MOL0     C34754   9.926   8.419   9.244 -0.4864 -0.0649 -0.2259
  264MOL0     C34755   9.821   8.413   9.349 -0.2234 -0.2327 -0.3678
  264MOL0     C34756   9.862   8.446   9.492  0.0030 -0.1614 -0.0816
  264MOL0     C34757   9.990   8.361   9.520  0.4705 -0.2929  0.3816
  264MOL0     C34758  10.046   8.376   9.657 -0.9619  0.0701 -0.5523
  264MOL0     C34759  10.184   8.314   9.697 -0.0047  0.3607  0.1288
  264MOL0    Cl34760  10.324   8.418   9.664  0.3750 -0.2171  0.2057
  264MOL0     C34761   9.795   8.729   8.972 -0.6411  0.2382  1.2264
  264MOL0     C34762   9.707   8.806   8.893  0.1238  0.8950 -0.2937
  264MOL0     O34763   9.437   8.920   8.816 -0.2540  0.6701  0.0990
  264MOL0     C34764   9.528   9.088   8.524 -0.1122  0.5954 -0.2897
  264MOL0     C34765   9.473   9.179   8.428  0.4835  0.0290 -0.5899
  264MOL0     N34766   9.385   9.677   7.905  0.2659  0.2197  0.0904
  264MOL0     N34767   9.433   9.697   7.788  0.5984  0.8737  0.3090
  264MOL0     C34768  10.207   9.324   8.562  0.2295  0.5821 -0.2207
  264MOL0     C34769  10.224   9.224   8.656  0.3374  0.1264  0.0881
  264MOL0     C34770  10.382   8.876   8.885  0.0739 -0.7685 -0.4756
  264MOL0     C34771  10.280   8.773   8.886 -0.1853 -0.1126 -1.0381
  264MOL0     C34772  10.318   8.648   8.941  0.5892 -0.2879 -1.1177
  264MOL0     C34773  10.444   8.630   9.005  0.5276 -0.0471 -0.3062
  264MOL0     O34774  10.451   8.514   9.079 -0.2053 -0.1509 -0.2663
  264MOL0     C34775  10.568   8.502   9.172 -0.6074 -0.0396  0.4559
  264MOL0     C34776  10.535   8.389   9.270  0.2096  0.5147 -0.5413
  264MOL0     C34777  10.500   8.264   9.187 -0.0475 -0.1687 -0.1728
  264MOL0     C34778  10.486   8.142   9.277 -0.0534 -0.0455 -1.1730
  264MOL0     C34779  10.355   8.136   9.332  0.3924  1.0830  0.9315
  264MOL0     C34780  10.254   8.116   9.388  0.1686  0.4175  0.4240
  264MOL0     C34781  10.536   8.735   9.007 -0.1796  0.0725  0.5770
  264MOL0     C34782  10.501   8.852   8.948  0.5669 -0.6913 -1.0624
  264MOL0     H34783  10.228   8.946   8.466  2.4262 -0.2411 -0.5697
  264MOL0     H34784  10.167   9.127   8.296  0.5355  0.4938 -0.0698
  264MOL0     H34785  10.024   9.281   8.221  0.0330 -0.8408 -0.9416
  264MOL0     H34786  10.184   9.321   8.154  2.3591  1.5045  0.7783
  264MOL0     H34787  10.135   9.546   8.143 -0.0119 -1.0067 -0.4641
  264MOL0     H34788   9.975   9.534   8.227  1.2834  0.1686  2.2506
  264MOL0     H34789   9.928   9.372   8.034  2.8961 -2.0619 -0.5980
  264MOL0     H34790  10.065   9.412   7.961  1.4661 -0.1274  2.6561
  264MOL0     H34791   9.851   9.636   8.038  3.5504  0.3385  3.8857
  264MOL0     H34792   9.985   9.675   7.944  0.3752  0.6508  3.5117
  264MOL0     H34793   9.783   9.480   7.839 -1.3846  0.8426 -0.9306
  264MOL0     H34794   9.934   9.535   7.755  0.8438 -3.5538  0.6647
  264MOL0     H34795   9.841   9.772   7.762 -0.4919 -0.5132 -3.5989
  264MOL0     H34796   9.710   9.719   7.861 -3.1763  2.1115 -2.1677
  264MOL0     H34797   9.654   9.768   7.628 -2.2751 -2.0255  2.3219
  264MOL0     H34798   9.769   9.649   7.564  0.4198  0.1847 -0.6416
  264MOL0     H34799   9.637   9.468   7.639 -3.4608 -2.1926 -2.0535
  264MOL0     H34800   9.538   9.583   7.554 -0.6185  2.5869 -0.2198
  264MOL0     H34801   9.485   9.378   7.841  0.0312  0.2055 -1.3340
  264MOL0     H34802   9.358   9.572   8.137 -0.3492  0.8167 -2.2129
  264MOL0     H34803   9.417   9.411   8.101 -0.2103 -1.1845 -0.1953
  264MOL0     H34804   9.200   9.372   7.977 -0.9185  0.5041 -0.5418
  264MOL0     H34805   9.153   9.542   8.027  0.6756  1.6911  1.1736
  264MOL0     H34806   9.130   9.479   8.255  6.1921  1.7196 -1.6869
  264MOL0     H34807   9.028   9.376   8.161 -0.5164 -0.3230  2.6551
  264MOL0     H34808   9.241   9.218   8.153  1.8266 -0.7938  0.5348
  264MOL0     H34809   9.128   9.206   8.288  1.0331  0.4982 -0.6745
  264MOL0     H34810   9.154   9.185   8.507 -0.3116 -1.6302 -1.3109
  264MOL0     H34811   9.239   9.025   8.683  1.1024 -2.2450  0.8020
  264MOL0     H34812   9.774   8.709   8.591 -1.3468  2.9600  0.7317
  264MOL0     H34813   9.946   8.565   8.706  0.3558  2.7779 -1.0646
  264MOL0     H34814  10.070   8.406   9.035  1.6405  2.9836 -1.1134
  264MOL0     H34815   9.945   8.408   8.898 -1.8208  1.2255  0.7624
  264MOL0     H34816   9.837   8.297   9.096 -0.7078  0.3983  1.0511
  264MOL0     H34817   9.775   8.454   9.091  1.1857  0.1783 -0.1765
  264MOL0     H34818   9.971   8.517   9.260 -3.4363  1.6560 -1.5782
  264MOL0     H34819  10.006   8.346   9.261  1.0168  1.7544  0.9744
  264MOL0     H34820   9.726   8.461   9.322 -0.6619 -0.6502  0.3742
  264MOL0     H34821   9.792   8.308   9.362  0.1977 -0.8361 -3.5699
  264MOL0     H34822   9.776   8.418   9.552 -0.9697 -1.9328 -2.1498
  264MOL0     H34823   9.889   8.552   9.496 -1.9135  0.5881 -3.2412
  264MOL0     H34824  10.070   8.385   9.449 -0.8875  0.8948 -0.7980
  264MOL0     H34825   9.974   8.253   9.509  2.1981 -0.5705  0.2623
  264MOL0     H34826  10.050   8.483   9.675  0.3280  0.4329 -2.6209
  264MOL0     H34827   9.971   8.332   9.722  0.1793 -3.5741 -1.4418
  264MOL0     H34828  10.190   8.218   9.645  2.5607  1.5596 -2.0488
  264MOL0     H34829  10.184   8.291   9.804  1.2850  1.7345  0.4614
  264MOL0     H34830   9.808   8.746   9.079  2.8432 -1.5531  1.2450
  264MOL0     H34831   9.632   8.873   8.935 -2.5128 -1.1273 -1.4796
  264MOL0     H34832   9.635   9.071   8.532 -0.2849 -0.1050  0.7493
  264MOL0     H34833   9.532   9.224   8.349 -1.5199 -0.7052 -2.6076
  264MOL0     H34834  10.200   9.427   8.595  0.2179  0.5777 -0.2095
  264MOL0     H34835  10.228   9.247   8.763 -2.3177  1.5736 -0.0355
  264MOL0     H34836  10.176   8.781   8.855 -1.2156 -0.1240  2.1128
  264MOL0     H34837  10.240   8.574   8.953  1.0070 -0.6534 -0.5997
  264MOL0     H34838  10.578   8.596   9.227  1.6476  0.0960 -0.1100
  264MOL0     H34839  10.659   8.482   9.115 -0.7772  3.9794 -1.5017
  264MOL0     H34840  10.624   8.381   9.332 -1.1140 -1.0123  1.2991
  264MOL0     H34841  10.444   8.406   9.329 -1.8163 -1.7606 -2.7382
  264MOL0     H34842  10.592   8.251   9.130  2.2677  3.5056  2.3645
  264MOL0     H34843  10.413   8.280   9.121 -2.0915 -0.3518  2.3177
  264MOL0     H34844  10.513   8.049   9.226  1.1600  0.1078 -0.8458
  264MOL0     H34845  10.557   8.158   9.358  0.5904  1.5213 -1.9989
  264MOL0     H34846  10.157   8.114   9.432 -0.8243  0.7288 -1.6121
  264MOL0     H34847  10.630   8.717   9.058 -0.2061 -3.0272 -0.2718
  264MOL0     H34848  10.570   8.936   8.941 -1.6780  1.2121 -1.4807
  265MOL0     O34849  10.934   2.882   4.775  0.4421 -1.3474  0.1868
  265MOL0     C34850  11.020   2.824   4.827 -0.1554  0.4272 -0.1955
  265MOL0     O34851  11.118   2.874   4.908  0.4048 -0.1517  0.3631
  265MOL0     C34852  11.096   3.002   4.954  0.2887  0.0109 -0.3707
  265MOL0     C34853  11.180   3.102   4.923  0.1183  0.6155 -0.2162
  265MOL0     C34854  11.153   3.236   4.971 -0.1930  0.5941 -0.4246
  265MOL0     C34855  11.057   3.259   5.064  0.3429 -0.1509 -0.4418
  265MOL0     O34856  11.056   3.389   5.127 -0.5354 -0.1232  0.6932
  265MOL0     C34857  11.123   3.499   5.058  0.0578 -0.1458  0.3184
  265MOL0     C34858  11.075   3.630   5.129  0.2650 -0.3422  0.0493
  265MOL0     C34859  10.929   3.662   5.100 -0.9055  0.4083 -0.2504
  265MOL0     C34860  10.877   3.797   5.152 -0.1819  0.8509  0.5331
  265MOL0     C34861  10.755   3.824   5.070 -0.2189  0.6323 -0.1069
  265MOL0     C34862  10.633   3.747   5.110 -0.8356 -0.5541 -1.3359
  265MOL0     C34863  10.507   3.796   5.040 -1.3148  0.5784  0.0299
  265MOL0     C34864  10.388   3.742   5.101  0.9347 -0.4953 -0.6895
  265MOL0     N34865  10.281   3.721   5.001  0.5581 -1.0848 -0.1834
  265MOL0     C34866  10.235   3.596   4.962 -0.0126  0.4454 -0.8685
  265MOL0     C34867  10.156   3.614   4.856 -0.5444 -0.0724 -0.8141
  265MOL0     C34868  10.089   3.516   4.772 -0.4276 -0.0404  0.9751
  265MOL0     C34869  10.164   3.383   4.741 -0.8765  0.0905  1.0966
  265MOL0     C34870  10.102   3.322   4.613  0.8191 -0.0734  0.1215
  265MOL0     C34871  10.191   3.220   4.548 -0.5587  0.5017 -0.7100
  265MOL0     O34872  10.133   3.172   4.428  1.2117  0.1244 -0.1230
  265MOL0     C34873  10.214   3.091   4.346 -0.3971  0.0047 -0.4932
  265MOL0     C34874  10.176   3.061   4.213 -0.6015 -0.5009  0.3583
  265MOL0     C34875  10.261   2.994   4.130  0.3026  0.7951 -0.3759
  265MOL0     C34876  10.385   2.945   4.180  0.4423  0.4449 -0.1844
  265MOL0     C34877  10.467   2.864   4.095 -0.2785  0.1774  0.5311
  265MOL0     O34878  10.541   2.764   4.157 -0.1461 -0.2972 -0.0051
  265MOL0     C34879  10.630   2.686   4.084  0.6964  0.2679 -0.5211
  265MOL0     C34880  10.601   2.550   4.092 -0.0299  0.6373 -0.1598
  265MOL0     C34881  10.671   2.467   4.013 -0.8630  1.0240 -0.6393
  265MOL0     C34882  10.802   2.499   3.974 -0.1086 -0.6898  0.0041
  265MOL0     O34883  10.872   2.406   3.902  0.1851 -0.2311 -0.0338
  265MOL0     C34884  10.900   2.437   3.761 -0.0018 -0.1957  0.4496
  265MOL0     C34885  10.796   2.360   3.682 -0.4031  0.6798 -0.1893
  265MOL0     C34886  10.817   2.371   3.532  0.6522  0.8062  0.1180
  265MOL0     C34887  10.948   2.319   3.481 -0.2410  1.1880 -0.5209
  265MOL0     C34888  10.954   2.317   3.320  0.0234  0.4941 -0.7467
  265MOL0     C34889  11.089   2.276   3.258 -0.3888 -0.3267  0.2334
  265MOL0     C34890  11.092   2.267   3.102  1.1026 -0.2128  0.5437
  265MOL0     C34891  11.217   2.216   3.043 -0.2684  0.1848  0.4955
  265MOL0    Cl34892  11.355   2.308   3.090 -0.1847  0.4023 -0.3699
  265MOL0     C34893  10.831   2.629   3.975  0.7723  0.1502 -0.6045
  265MOL0     C34894  10.747   2.725   4.030  0.6704  0.5380  0.0979
  265MOL0     O34895  10.478   2.889   3.976 -0.1109 -0.0508  0.3356
  265MOL0     C34896  10.419   2.969   4.314  0.5179  0.5274  0.0155
  265MOL0     C34897  10.333   3.045   4.396  1.0962 -0.5355  0.0029
  265MOL0     N34898  10.154   3.756   4.845  0.3101 -0.0408  1.1136
  265MOL0     N34899  10.242   3.820   4.921  0.0730  0.4643  0.1473
  265MOL0     C34900  10.981   3.150   5.108  0.3769  1.1082 -0.1641
  265MOL0     C34901  11.006   3.020   5.056  0.1646  0.5959 -0.1429
  265MOL0     C34902  11.007   2.675   4.814 -1.4597 -0.8518 -0.4522
  265MOL0     C34903  11.086   2.594   4.891 -0.2342 -0.1483  0.6977
  265MOL0     C34904  11.096   2.455   4.858  0.2792 -0.1424 -0.3192
  265MOL0     C34905  11.015   2.395   4.757  0.0542 -0.7279 -0.5300
  265MOL0     O34906  11.028   2.258   4.737 -0.5423  0.1739  0.3540
  265MOL0     C34907  10.975   2.207   4.618  0.9585 -0.2173  0.0255
  265MOL0     C34908  11.075   2.101   4.565  0.1424  0.3085  0.3270
  265MOL0     C34909  11.035   2.050   4.434 -0.2003  0.3198  0.1248
  265MOL0     C34910  11.113   1.933   4.388  0.3506  0.0403 -0.0199
  265MOL0     C34911  11.076   1.865   4.258  1.1822 -1.0541 -0.3831
  265MOL0     C34912  11.071   1.823   4.148 -0.3343 -0.5992  0.0618
  265MOL0     C34913  10.940   2.487   4.687 -0.2401  0.8969 -0.0578
  265MOL0     C34914  10.940   2.620   4.708  0.3624 -0.4378 -0.2019
  265MOL0     H34915  11.263   3.079   4.856 -2.4793 -1.2457 -3.0135
  265MOL0     H34916  11.230   3.304   4.936  1.7232 -0.9670  0.6132
  265MOL0     H34917  11.098   3.505   4.952 -0.7443  0.3069  0.5262
  265MOL0     H34918  11.230   3.499   5.077 -0.0731 -1.6904  1.2453
  265MOL0     H34919  11.138   3.711   5.092  2.5948 -1.3085  1.6830
  265MOL0     H34920  11.087   3.634   5.237  0.0353  0.9459  0.0439
  265MOL0     H34921  10.873   3.580   5.146  0.4913 -0.5606 -0.2248
  265MOL0     H34922  10.914   3.641   4.993 -1.4982  3.5548 -0.8766
  265MOL0     H34923  10.847   3.777   5.255 -0.7215 -1.8629 -0.0605
  265MOL0     H34924  10.942   3.884   5.142 -1.8228  2.2436  1.5834
  265MOL0     H34925  10.774   3.827   4.962  1.7117  6.9401 -0.0164
  265MOL0     H34926  10.724   3.926   5.094 -0.6869  1.1841 -2.7162
  265MOL0     H34927  10.630   3.759   5.219  0.8982 -2.2941 -1.0287
  265MOL0     H34928  10.653   3.642   5.088  1.6148 -0.5540  0.4864
  265MOL0     H34929  10.506   3.905   5.030  4.2722  1.1954  2.3835
  265MOL0     H34930  10.523   3.755   4.940  0.5532 -1.5079  1.0821
  265MOL0     H34931  10.348   3.803   5.183  1.2609 -0.2656 -0.7027
  265MOL0     H34932  10.404   3.648   5.155 -1.0062 -1.5869 -1.8842
  265MOL0     H34933  10.261   3.503   5.011  2.4161  1.4381 -0.0675
  265MOL0     H34934  10.042   3.566   4.687 -3.4059  3.0575  4.1349
  265MOL0     H34935  10.005   3.482   4.833 -0.0410 -2.7595  0.1383
  265MOL0     H34936  10.159   3.303   4.815 -0.5274 -0.7317  0.2561
  265MOL0     H34937  10.269   3.399   4.714 -0.9796  0.5949  0.9927
  265MOL0     H34938  10.006   3.283   4.650  0.9689 -0.3277  0.2491
  265MOL0     H34939  10.075   3.398   4.540 -0.4646  0.4565  1.1075
  265MOL0     H34940  10.216   3.137   4.615 -3.2852  1.6223  1.8539
  265MOL0     H34941  10.284   3.269   4.517  0.2776 -2.0792 -2.7247
  265MOL0     H34942  10.078   3.093   4.181 -0.7154 -0.0550  1.1371
  265MOL0     H34943  10.251   2.992   4.022 -0.5367  0.2566 -0.2974
  265MOL0     H34944  10.510   2.507   4.132  0.3978  1.4972  1.8653
  265MOL0     H34945  10.646   2.362   4.001 -1.6702  1.0418  0.6800
  265MOL0     H34946  11.003   2.407   3.743  0.1930  0.5060  0.3581
  265MOL0     H34947  10.895   2.543   3.736 -1.7808 -0.2785  0.2897
  265MOL0     H34948  10.699   2.408   3.702 -0.3010  0.3305  1.2520
  265MOL0     H34949  10.789   2.255   3.711  1.8141 -0.2505 -2.6385
  265MOL0     H34950  10.814   2.478   3.506 -1.3445  1.4677  2.6542
  265MOL0     H34951  10.732   2.329   3.478 -1.2485  1.7823  2.1954
  265MOL0     H34952  11.015   2.401   3.508 -0.1585 -0.1798  4.3166
  265MOL0     H34953  10.992   2.233   3.531  2.2881  0.2942 -3.9310
  265MOL0     H34954  10.924   2.419   3.295  1.7636  1.6135  1.4518
  265MOL0     H34955  10.883   2.246   3.276 -0.3666  0.3322  0.1239
  265MOL0     H34956  11.131   2.178   3.285  2.5311  0.0348 -2.3368
  265MOL0     H34957  11.165   2.346   3.293  0.0825 -0.2901 -0.8270
  265MOL0     H34958  11.013   2.200   3.066 -0.9429  2.3249  0.0412
  265MOL0     H34959  11.076   2.368   3.064  0.5286 -1.6923 -3.7388
  265MOL0     H34960  11.217   2.203   2.934  4.4331 -0.2488  0.3203
  265MOL0     H34961  11.243   2.112   3.065 -1.9827 -0.9324 -2.2665
  265MOL0     H34962  10.922   2.663   3.926  2.6604 -2.6565  0.7015
  265MOL0     H34963  10.764   2.832   4.035 -0.1691  0.7061 -0.4665
  265MOL0     H34964  10.502   2.920   4.365 -0.5360 -2.9442 -1.2975
  265MOL0     H34965  10.363   3.057   4.500 -0.1066  0.4305  0.2590
  265MOL0     H34966  10.903   3.166   5.182 -1.1980  2.3695 -2.0035
  265MOL0     H34967  10.959   2.927   5.085  0.6061  0.2486 -0.5103
  265MOL0     H34968  11.156   2.638   4.961  2.2252  0.7393 -2.1037
  265MOL0     H34969  11.170   2.407   4.922 -0.0347  1.6673  1.4964
  265MOL0     H34970  10.935   2.283   4.550 -0.5331  0.6552  1.8033
  265MOL0     H34971  10.876   2.164   4.634 -0.1767  1.2304 -2.4467
  265MOL0     H34972  11.174   2.144   4.546  0.4431 -0.0854  0.9521
  265MOL0     H34973  11.093   2.019   4.635  3.7450  2.2317  1.9822
  265MOL0     H34974  11.030   2.127   4.357 -2.1648 -0.9975 -1.1743
  265MOL0     H34975  10.931   2.016   4.444  0.0017 -0.5216 -0.5365
  265MOL0     H34976  11.220   1.953   4.390  0.3235  1.0795  5.4302
  265MOL0     H34977  11.097   1.865   4.472 -1.0581  0.7052  0.2818
  265MOL0     H34978  11.056   1.782   4.051  0.3278 -1.7163  0.4186
  265MOL0     H34979  10.874   2.446   4.611  0.9932 -2.0425  0.3024
  265MOL0     H34980  10.881   2.680   4.640 -3.3402 -0.9268  2.2936
  266MOL0     O34981   9.515   0.543   4.753  0.4475 -0.0298  0.1715
  266MOL0     C34982   9.609   0.551   4.834  0.7643  1.0218 -0.4841
  266MOL0     O34983   9.711   0.465   4.842  0.4770 -0.6676  0.2128
  266MOL0     C34984   9.724   0.362   4.746 -0.5825 -0.0467 -0.1654
  266MOL0     C34985   9.841   0.340   4.672 -1.1875 -1.0066 -0.5781
  266MOL0     C34986   9.871   0.227   4.594 -0.0426  0.0802  0.5681
  266MOL0     C34987   9.774   0.125   4.598 -0.9901  0.6526  0.0213
  266MOL0     O34988   9.819   0.021   4.523  0.3594 -0.1136  0.1486
  266MOL0     C34989   9.735  -0.093   4.504 -0.1877  0.4242 -0.7640
  266MOL0     C34990   9.790  -0.220   4.430  0.4913 -0.4217  0.2493
  266MOL0     C34991   9.682  -0.327   4.398  0.6795 -0.0182  0.3201
  266MOL0     C34992   9.744  -0.460   4.370 -1.3813 -0.0999  0.0775
  266MOL0     C34993   9.658  -0.574   4.317  0.7215  0.7446  0.8128
  266MOL0     C34994   9.573  -0.529   4.209  0.5194 -0.0193 -0.4150
  266MOL0     C34995   9.513  -0.641   4.125 -0.0021 -0.6016  0.1911
  266MOL0     C34996   9.420  -0.581   4.020 -0.1597  0.2000  0.0657
  266MOL0     N34997   9.360  -0.697   3.938  0.6488 -0.4680  0.4192
  266MOL0     C34998   9.284  -0.788   4.008  0.8865 -0.8133  0.7444
  266MOL0     C34999   9.225  -0.855   3.895  0.1553  0.7652  0.2742
  266MOL0     C35000   9.146  -0.984   3.910 -0.4535  0.5232 -0.8037
  266MOL0     C35001   9.213  -1.108   3.842 -0.4666  0.1107 -1.3904
  266MOL0     C35002   9.120  -1.229   3.860  0.7853  0.3661  0.4614
  266MOL0     C35003   9.013  -1.224   3.741  0.3626 -0.9154  0.1089
  266MOL0     O35004   9.049  -1.286   3.614  0.1207  0.4260  0.1625
  266MOL0     C35005   9.002  -1.408   3.592  0.4877 -0.5201 -0.7828
  266MOL0     C35006   8.895  -1.425   3.502 -0.2794 -0.8008 -0.1034
  266MOL0     C35007   8.854  -1.549   3.460 -0.2359  0.0661 -0.0864
  266MOL0     C35008   8.926  -1.664   3.515  0.2038  0.3546 -0.1839
  266MOL0     C35009   8.875  -1.797   3.488 -0.1934  0.9934  0.3353
  266MOL0     O35010   8.786  -1.827   3.387 -0.1632 -0.1865  0.5260
  266MOL0     C35011   8.763  -1.957   3.343 -1.1580 -0.5598  0.0629
  266MOL0     C35012   8.857  -2.055   3.354 -0.4390  0.5051 -0.2461
  266MOL0     C35013   8.841  -2.180   3.297 -0.5083  1.0078 -0.2927
  266MOL0     C35014   8.728  -2.216   3.221  0.8295 -0.5306 -0.9230
  266MOL0     O35015   8.707  -2.345   3.165  0.4597  0.3024  0.3488
  266MOL0     C35016   8.736  -2.340   3.031 -0.1118  0.0718  0.1363
  266MOL0     C35017   8.755  -2.487   2.959  1.0845  0.3173 -0.7989
  266MOL0     C35018   8.658  -2.600   3.001 -0.4568 -0.1659 -0.0859
  266MOL0     C35019   8.746  -2.707   3.083  0.7084 -0.4693  0.3513
  266MOL0     C35020   8.649  -2.828   3.096 -1.0051 -0.0231  0.1872
  266MOL0     C35021   8.710  -2.935   3.172 -0.8936 -0.7192  0.9728
  266MOL0     C35022   8.639  -3.068   3.134  0.7794 -1.1743 -0.9753
  266MOL0     C35023   8.691  -3.179   3.223 -0.1739 -0.1184  0.7198
  266MOL0    Cl35024   8.653  -3.135   3.396 -0.1246  0.3249 -0.1437
  266MOL0     C35025   8.631  -2.121   3.216  0.5081  0.3685  0.8579
  266MOL0     C35026   8.646  -1.988   3.274 -0.5219 -0.0446 -0.4072
  266MOL0     O35027   8.921  -1.884   3.568  0.4606 -0.1017  0.2610
  266MOL0     C35028   9.026  -1.639   3.602 -1.2891 -0.0281 -0.6580
  266MOL0     C35029   9.066  -1.513   3.642  0.2785  0.4438 -0.5439
  266MOL0     N35030   9.267  -0.800   3.776 -0.2450 -0.4462 -0.5569
  266MOL0     N35031   9.339  -0.700   3.807  0.1610  0.2763  0.5762
  266MOL0     C35032   9.647   0.144   4.660  0.3403  0.2627 -1.0021
  266MOL0     C35033   9.631   0.261   4.738  1.1124  0.0891 -0.4092
  266MOL0     C35034   9.587   0.640   4.950  0.3772 -0.7542  0.1819
  266MOL0     C35035   9.677   0.649   5.049 -0.3246  0.0187 -0.3794
  266MOL0     C35036   9.650   0.722   5.163  0.1699 -0.2846 -0.9236
  266MOL0     C35037   9.537   0.804   5.173 -0.1152  0.8262  0.4788
  266MOL0     O35038   9.517   0.872   5.287  0.2064 -0.4468 -0.0344
  266MOL0     C35039   9.467   1.003   5.283  0.4219  0.2876  0.0971
  266MOL0     C35040   9.390   1.018   5.411 -0.1718 -0.1182 -0.3826
  266MOL0     C35041   9.254   0.943   5.409 -0.6278 -0.4499  0.1905
  266MOL0     C35042   9.170   0.964   5.540  0.2904  0.0674  0.6273
  266MOL0     C35043   9.226   0.896   5.655  0.0118  0.1959 -0.2500
  266MOL0     C35044   9.264   0.825   5.752 -1.1950 -0.3483  0.3912
  266MOL0     C35045   9.442   0.795   5.067 -0.6061 -0.3318 -0.1764
  266MOL0     C35046   9.469   0.711   4.958  0.2276 -0.0454  0.3351
  266MOL0     H35047   9.917   0.418   4.682 -3.4034  1.2301 -0.2977
  266MOL0     H35048   9.965   0.221   4.539  0.0090 -0.0914  0.6748
  266MOL0     H35049   9.643  -0.067   4.450  0.0117 -0.5418 -1.5976
  266MOL0     H35050   9.693  -0.132   4.597 -0.3768  0.7501 -0.7103
  266MOL0     H35051   9.868  -0.265   4.491  0.4412 -1.5474 -0.5007
  266MOL0     H35052   9.841  -0.181   4.342  0.2201  2.6959  1.3309
  266MOL0     H35053   9.610  -0.292   4.323  1.1768 -0.5168 -0.4126
  266MOL0     H35054   9.616  -0.351   4.482 -0.6531  0.0330 -0.6756
  266MOL0     H35055   9.833  -0.455   4.307  1.1438 -1.4048  3.2886
  266MOL0     H35056   9.789  -0.490   4.465  2.1743 -0.9041 -1.7004
  266MOL0     H35057   9.595  -0.612   4.398  1.5480  0.9107  1.5516
  266MOL0     H35058   9.728  -0.654   4.290 -1.4290 -0.9792  0.0048
  266MOL0     H35059   9.618  -0.463   4.134  1.8059 -0.9709 -0.5142
  266MOL0     H35060   9.489  -0.479   4.258  0.6603 -0.6983  0.5390
  266MOL0     H35061   9.600  -0.694   4.087  0.9255  0.6859  0.4636
  266MOL0     H35062   9.453  -0.717   4.176  0.2924 -0.6324  0.4863
  266MOL0     H35063   9.482  -0.517   3.957 -0.3969 -1.7525 -2.2981
  266MOL0     H35064   9.346  -0.513   4.064  1.6633  1.2528  1.6677
  266MOL0     H35065   9.263  -0.806   4.113  2.9004 -2.9644  0.8710
  266MOL0     H35066   9.042  -0.969   3.879 -0.6744 -0.8140 -0.7588
  266MOL0     H35067   9.133  -1.014   4.014 -0.8842  2.5230 -0.2460
  266MOL0     H35068   9.307  -1.135   3.890 -1.7426 -2.4342 -0.0943
  266MOL0     H35069   9.228  -1.089   3.736  1.8524  3.5150 -0.6088
  266MOL0     H35070   9.176  -1.323   3.853  2.2403  1.3394 -2.2694
  266MOL0     H35071   9.061  -1.226   3.952 -0.8629 -0.6595 -0.5183
  266MOL0     H35072   8.989  -1.119   3.723 -1.4129 -0.5197  3.7801
  266MOL0     H35073   8.918  -1.268   3.775 -0.3784 -2.0419 -3.0047
  266MOL0     H35074   8.839  -1.339   3.467  1.6146 -0.5577 -2.8592
  266MOL0     H35075   8.765  -1.554   3.398  0.8040  1.3073 -1.7949
  266MOL0     H35076   8.955  -2.030   3.394 -0.7772  2.4398 -0.5449
  266MOL0     H35077   8.918  -2.251   3.325 -1.2256  0.7926  1.2065
  266MOL0     H35078   8.835  -2.296   3.016 -0.1893  1.5441  3.2854
  266MOL0     H35079   8.663  -2.279   2.977  0.4502  2.0027  1.4462
  266MOL0     H35080   8.858  -2.509   2.985  0.8550 -0.2968 -0.3882
  266MOL0     H35081   8.755  -2.470   2.851 -0.4745  3.5654 -0.4074
  266MOL0     H35082   8.609  -2.650   2.917  2.8617 -0.5906 -1.9781
  266MOL0     H35083   8.575  -2.548   3.049  0.6581  2.1777 -0.5539
  266MOL0     H35084   8.836  -2.738   3.029  1.1667  1.1997  0.1052
  266MOL0     H35085   8.783  -2.677   3.181  4.2368 -3.2334  0.0388
  266MOL0     H35086   8.650  -2.860   2.991 -0.3475  2.5533 -0.6585
  266MOL0     H35087   8.552  -2.812   3.144 -1.0701  1.3741 -0.3741
  266MOL0     H35088   8.701  -2.907   3.277 -2.3095  3.3061 -0.0300
  266MOL0     H35089   8.815  -2.954   3.148 -1.3913  0.0441 -2.3460
  266MOL0     H35090   8.530  -3.061   3.141  0.9344  4.9666  0.4397
  266MOL0     H35091   8.655  -3.094   3.029 -2.2604  0.1400 -1.8918
  266MOL0     H35092   8.798  -3.198   3.222  0.0920  1.3040  0.7083
  266MOL0     H35093   8.639  -3.271   3.197  0.6573 -1.0981  2.3288
  266MOL0     H35094   8.540  -2.147   3.163 -0.4338  1.0488  2.0913
  266MOL0     H35095   8.565  -1.917   3.264 -2.6946 -2.3953 -0.6114
  266MOL0     H35096   9.067  -1.715   3.667 -0.9276  1.0693  0.4131
  266MOL0     H35097   9.151  -1.513   3.709  0.4967 -1.9662 -0.7570
  266MOL0     H35098   9.566   0.073   4.667  1.7751 -1.3911 -0.3090
  266MOL0     H35099   9.542   0.271   4.801 -0.8743  0.6360 -3.0983
  266MOL0     H35100   9.766   0.586   5.049 -0.0184  0.1263 -4.7911
  266MOL0     H35101   9.725   0.709   5.241 -0.4193 -3.4878 -0.7796
  266MOL0     H35102   9.389   1.022   5.208 -2.7327  0.8723  3.2307
  266MOL0     H35103   9.546   1.077   5.271 -0.1090  0.4108 -3.9048
  266MOL0     H35104   9.465   0.986   5.484  2.8790  2.0980 -2.3006
  266MOL0     H35105   9.375   1.124   5.432 -2.1101 -0.7828  2.0802
  266MOL0     H35106   9.264   0.837   5.384 -4.3869 -0.9578  0.2377
  266MOL0     H35107   9.204   0.977   5.318 -0.9615 -1.8938 -0.1956
  266MOL0     H35108   9.157   1.069   5.569 -0.0324  0.4902 -0.9310
  266MOL0     H35109   9.072   0.917   5.524 -1.1542  3.2281 -0.8204
  266MOL0     H35110   9.298   0.762   5.832  1.1767  1.7325  1.1538
  266MOL0     H35111   9.352   0.853   5.082  0.7595  2.1993 -1.0910
  266MOL0     H35112   9.389   0.700   4.887  1.6282 -2.1033 -1.0288
  267MOL0     O35113   3.901   7.948   0.041 -0.6326 -0.3905  0.0476
  267MOL0     C35114   3.931   8.070   0.031 -0.0841  0.1155 -0.6212
  267MOL0     O35115   4.010   8.115  -0.065 -0.6579 -0.2086  0.3283
  267MOL0     C35116   4.026   8.048  -0.189 -0.3908  0.2624  0.2580
  267MOL0     C35117   4.155   8.064  -0.260  0.1094 -0.2582  0.7612
  267MOL0     C35118   4.157   8.014  -0.389  1.3604  0.1223 -0.0032
  267MOL0     C35119   4.042   7.937  -0.442  0.0111 -0.3901 -0.1923
  267MOL0     O35120   4.061   7.866  -0.559 -0.7837 -0.0048  0.0188
  267MOL0     C35121   4.019   7.944  -0.669 -0.3239 -0.5335  0.0942
  267MOL0     C35122   4.126   8.016  -0.745  0.9646 -0.1445 -0.3878
  267MOL0     C35123   4.232   7.914  -0.772  1.0277  0.0317  0.0801
  267MOL0     C35124   4.351   7.979  -0.855  0.3260 -0.6398 -0.2987
  267MOL0     C35125   4.486   7.891  -0.863  0.0965 -0.0590  0.0267
  267MOL0     C35126   4.473   7.763  -0.940  1.1477 -0.0266 -0.6119
  267MOL0     C35127   4.380   7.767  -1.062 -0.1784 -0.2378 -0.3746
  267MOL0     C35128   4.417   7.638  -1.146  0.5731 -1.2741  0.6972
  267MOL0     N35129   4.320   7.533  -1.126 -0.1853 -0.1959  0.6777
  267MOL0     C35130   4.258   7.454  -1.221 -0.0734  0.2005  0.2850
  267MOL0     C35131   4.185   7.368  -1.138 -0.1773 -0.7394  0.2292
  267MOL0     C35132   4.088   7.266  -1.193 -0.0160 -1.1340 -1.2232
  267MOL0     C35133   3.971   7.331  -1.274 -0.5816  0.9971  0.5464
  267MOL0     C35134   3.996   7.366  -1.425  0.1705  0.5870 -0.2416
  267MOL0     C35135   3.873   7.404  -1.496  0.1387  0.3993  0.0515
  267MOL0     O35136   3.903   7.476  -1.620 -0.8177 -0.5653 -0.4187
  267MOL0     C35137   3.810   7.573  -1.638 -0.0331 -0.4724  0.0956
  267MOL0     C35138   3.864   7.694  -1.689  0.8233  0.5892 -0.1915
  267MOL0     C35139   3.771   7.791  -1.743  0.6828 -0.8532 -0.2796
  267MOL0     C35140   3.630   7.772  -1.741  0.7811  0.0986  0.0095
  267MOL0     C35141   3.536   7.868  -1.798 -0.7855 -0.4103 -0.6797
  267MOL0     O35142   3.593   7.982  -1.838 -0.5357  0.0250  0.7273
  267MOL0     C35143   3.539   8.068  -1.927  0.3732  0.4709  0.1710
  267MOL0     C35144   3.562   8.200  -1.889 -0.8453 -0.6425  0.0126
  267MOL0     C35145   3.480   8.297  -1.946 -0.7987  0.2860 -0.0263
  267MOL0     C35146   3.393   8.259  -2.050 -0.0125  0.6052 -0.0732
  267MOL0     O35147   3.314   8.354  -2.101  1.4306 -0.1109 -0.5076
  267MOL0     C35148   3.301   8.349  -2.245 -0.3320 -0.2614  0.1570
  267MOL0     C35149   3.207   8.444  -2.289  0.5565 -0.1753 -0.6382
  267MOL0     C35150   3.178   8.437  -2.441  0.6221  0.3298  0.4811
  267MOL0     C35151   3.100   8.552  -2.500  0.9150 -0.6765  0.1794
  267MOL0     C35152   2.942   8.538  -2.466 -0.9188  0.5026  0.0493
  267MOL0     C35153   2.860   8.423  -2.529 -0.7752  0.3942  0.8397
  267MOL0     C35154   2.716   8.450  -2.527 -0.0716 -0.0245  0.5150
  267MOL0     C35155   2.635   8.354  -2.612  0.1463 -1.0298  0.1677
  267MOL0    Cl35156   2.647   8.182  -2.552  0.1763  0.1893 -0.4651
  267MOL0     C35157   3.381   8.126  -2.087 -0.3039  0.8361 -0.0414
  267MOL0     C35158   3.455   8.028  -2.027 -0.1377  0.4195 -0.5839
  267MOL0     O35159   3.423   7.839  -1.801  0.5328  0.6108  0.5505
  267MOL0     C35160   3.583   7.653  -1.699 -0.6259  0.3192 -0.7025
  267MOL0     C35161   3.672   7.555  -1.641 -0.1164  0.5708 -0.5262
  267MOL0     N35162   4.212   7.404  -1.005 -1.2625 -0.1773  0.2264
  267MOL0     N35163   4.297   7.497  -0.998  0.1881 -0.2227 -0.2851
  267MOL0     C35164   3.926   7.915  -0.363  0.5712 -0.1004  0.2927
  267MOL0     C35165   3.919   7.976  -0.244  0.6649  0.2066 -0.2544
  267MOL0     C35166   3.886   8.138   0.152 -0.7116  0.5733 -0.1800
  267MOL0     C35167   3.832   8.261   0.126  0.4651 -0.1049  0.2350
  267MOL0     C35168   3.790   8.338   0.229 -0.3738 -0.3255 -0.6315
  267MOL0     C35169   3.801   8.294   0.358 -0.1600  0.3826 -0.2758
  267MOL0     O35170   3.755   8.373   0.463  0.0755  0.1348 -0.0998
  267MOL0     C35171   3.626   8.320   0.520  0.3385  0.0949 -0.2784
  267MOL0     C35172   3.521   8.433   0.521  1.0014 -0.0369  0.1082
  267MOL0     C35173   3.552   8.566   0.606 -0.9195 -0.5057  0.4489
  267MOL0     C35174   3.530   8.531   0.756 -0.9610  0.1458 -0.7621
  267MOL0     C35175   3.400   8.571   0.800  0.2260 -0.3872  0.4710
  267MOL0     C35176   3.286   8.584   0.844 -1.0504  0.1307 -0.5734
  267MOL0     C35177   3.853   8.166   0.385  0.8667  0.6164  0.2165
  267MOL0     C35178   3.904   8.088   0.284 -0.2215  0.2873 -0.1947
  267MOL0     H35179   4.235   8.120  -0.213  0.8757  0.5013 -1.3071
  267MOL0     H35180   4.258   8.001  -0.426  2.6766 -1.5621  3.7519
  267MOL0     H35181   3.938   8.012  -0.640 -1.1789 -1.4810 -0.0387
  267MOL0     H35182   3.960   7.884  -0.738 -1.0224  1.0264 -0.7183
  267MOL0     H35183   4.164   8.095  -0.679  0.6164 -0.8347  0.6676
  267MOL0     H35184   4.084   8.054  -0.838 -2.8442 -0.0005  1.2276
  267MOL0     H35185   4.202   7.815  -0.807  1.2214  0.2629 -0.7730
  267MOL0     H35186   4.273   7.883  -0.676 -0.1756  3.2621  1.7579
  267MOL0     H35187   4.315   7.996  -0.957 -0.4590  2.9794  0.4413
  267MOL0     H35188   4.380   8.078  -0.817 -1.3970  0.6757 -2.2178
  267MOL0     H35189   4.520   7.870  -0.761 -1.9383 -0.9558  0.5722
  267MOL0     H35190   4.567   7.951  -0.906  1.1953 -2.2163 -1.0843
  267MOL0     H35191   4.426   7.693  -0.869  0.7151 -0.6960 -1.5244
  267MOL0     H35192   4.571   7.725  -0.969 -0.3421 -3.3250 -1.9350
  267MOL0     H35193   4.274   7.764  -1.035 -0.0975  0.5882  0.0645
  267MOL0     H35194   4.403   7.862  -1.111  3.1864 -1.5425 -1.6332
  267MOL0     H35195   4.523   7.611  -1.137  0.8901 -1.1274 -1.8448
  267MOL0     H35196   4.407   7.672  -1.250  1.2705 -0.5150  0.8685
  267MOL0     H35197   4.260   7.456  -1.330 -0.8728 -0.5719  0.2472
  267MOL0     H35198   4.051   7.190  -1.123 -1.7035 -0.4111 -1.2949
  267MOL0     H35199   4.145   7.200  -1.259  4.1023 -0.8676  1.6938
  267MOL0     H35200   3.945   7.428  -1.228  1.3074  1.0847  1.5101
  267MOL0     H35201   3.888   7.260  -1.264 -0.1049  0.5888  1.7972
  267MOL0     H35202   4.057   7.456  -1.438  1.0188 -0.3375 -3.6298
  267MOL0     H35203   4.042   7.279  -1.473  1.6704  0.2842  1.6105
  267MOL0     H35204   3.811   7.473  -1.439 -1.7022 -0.1293 -1.2256
  267MOL0     H35205   3.806   7.323  -1.527 -1.8116  2.5283 -1.6134
  267MOL0     H35206   3.971   7.714  -1.695  0.9741  0.4302  1.6139
  267MOL0     H35207   3.812   7.886  -1.778  1.6725 -0.6892  1.2468
  267MOL0     H35208   3.638   8.229  -1.817 -1.3879  0.5991  0.1120
  267MOL0     H35209   3.486   8.404  -1.925 -1.4338  0.0669  1.3937
  267MOL0     H35210   3.271   8.250  -2.280 -0.0100  0.3033 -1.8229
  267MOL0     H35211   3.405   8.358  -2.276  0.4671 -0.6039  2.5170
  267MOL0     H35212   3.244   8.543  -2.261 -2.4203  1.3007 -1.4603
  267MOL0     H35213   3.116   8.429  -2.230  0.8096  1.8155  0.3371
  267MOL0     H35214   3.122   8.344  -2.459  1.2456 -0.0283  0.3649
  267MOL0     H35215   3.272   8.436  -2.498  1.3808 -0.7427  1.6968
  267MOL0     H35216   3.132   8.642  -2.448  2.3077  0.4451 -2.4355
  267MOL0     H35217   3.126   8.574  -2.604 -2.9599  0.0610 -0.8030
  267MOL0     H35218   2.911   8.638  -2.498  0.0283  0.8995  0.3119
  267MOL0     H35219   2.921   8.546  -2.359  1.0314  1.9500  0.4001
  267MOL0     H35220   2.881   8.326  -2.484 -0.4841  0.1877  0.2802
  267MOL0     H35221   2.888   8.417  -2.635 -2.7338  0.1243  0.3086
  267MOL0     H35222   2.669   8.443  -2.428 -1.1690  2.1430  0.2120
  267MOL0     H35223   2.695   8.545  -2.577 -3.4240 -1.4891 -1.2194
  267MOL0     H35224   2.686   8.349  -2.708  3.0985 -1.9280  1.6498
  267MOL0     H35225   2.528   8.379  -2.618  0.5042  0.6361  0.4291
  267MOL0     H35226   3.305   8.083  -2.151 -0.3541 -0.2762  0.7451
  267MOL0     H35227   3.443   7.922  -2.044 -1.9742  0.2979  1.1587
  267MOL0     H35228   3.477   7.628  -1.699 -0.4953 -0.5549  2.3196
  267MOL0     H35229   3.631   7.467  -1.592  0.3612  1.1105  0.9057
  267MOL0     H35230   3.856   7.855  -0.419 -0.6733  1.0498  0.5656
  267MOL0     H35231   3.822   7.965  -0.197  1.0339 -0.8871  0.2898
  267MOL0     H35232   3.804   8.298   0.027 -1.2810 -2.5625 -0.2990
  267MOL0     H35233   3.743   8.435   0.237  0.2320 -0.1143  0.5873
  267MOL0     H35234   3.637   8.270   0.617  1.2727 -2.4795 -1.6329
  267MOL0     H35235   3.582   8.238   0.461 -0.3318  0.6713 -0.5976
  267MOL0     H35236   3.500   8.465   0.418 -1.1389  2.2914  1.1702
  267MOL0     H35237   3.429   8.387   0.557 -0.2775  1.4417 -1.0894
  267MOL0     H35238   3.484   8.646   0.574 -2.0493 -1.5057  0.2588
  267MOL0     H35239   3.655   8.603   0.608 -1.9382  3.0392 -1.6449
  267MOL0     H35240   3.552   8.425   0.772  1.8617  0.6355 -0.9603
  267MOL0     H35241   3.599   8.600   0.804  0.1886 -1.3809 -0.1728
  267MOL0     H35242   3.197   8.602   0.901  0.1626  0.8655  1.1819
  267MOL0     H35243   3.858   8.133   0.488  1.9885  1.9694  0.6237
  267MOL0     H35244   3.964   7.997   0.292  1.8797  1.5881 -0.4619
  268MOL0     O35245   3.719  10.590   0.126 -0.4528 -0.1361 -0.0796
  268MOL0     C35246   3.729  10.617   0.243  0.3786 -0.1696  0.9906
  268MOL0     O35247   3.751  10.740   0.295 -0.3576  0.3482  0.8414
  268MOL0     C35248   3.822  10.853   0.238 -0.6274  0.8141  0.5037
  268MOL0     C35249   3.835  10.971   0.316 -0.2756 -0.7280  0.3674
  268MOL0     C35250   3.878  11.087   0.251 -0.6255 -1.1667  0.3131
  268MOL0     C35251   3.918  11.091   0.117  0.0455 -0.1663  0.4187
  268MOL0     O35252   3.942  11.216   0.075 -0.0425 -0.9957 -0.2614
  268MOL0     C35253   3.914  11.248  -0.057  1.4101 -0.1546 -0.5226
  268MOL0     C35254   4.046  11.257  -0.148 -0.0657 -0.1885 -0.7915
  268MOL0     C35255   4.032  11.381  -0.226 -0.4571  0.3906  0.6947
  268MOL0     C35256   4.133  11.390  -0.345 -0.3849 -0.2237  0.4508
  268MOL0     C35257   4.285  11.379  -0.312  0.4803  1.4682  0.4760
  268MOL0     C35258   4.374  11.382  -0.433 -0.0590 -1.1607  0.0949
  268MOL0     C35259   4.412  11.536  -0.468 -0.2782 -0.0207 -0.6446
  268MOL0     C35260   4.503  11.556  -0.596 -0.5369 -0.1846  0.2933
  268MOL0     N35261   4.638  11.496  -0.565  0.2674 -1.2583  0.5952
  268MOL0     C35262   4.673  11.360  -0.571  0.3998  0.3413  0.1785
  268MOL0     C35263   4.805  11.353  -0.541 -0.0984 -1.2712  1.2889
  268MOL0     C35264   4.895  11.245  -0.512  0.8833  0.5350 -0.0029
  268MOL0     C35265   4.906  11.199  -0.362  0.0272 -0.6304 -0.0606
  268MOL0     C35266   4.987  11.308  -0.279  0.5783 -0.6543  0.7432
  268MOL0     C35267   4.990  11.282  -0.120  0.1461  0.0292  0.2338
  268MOL0     O35268   5.103  11.203  -0.085 -0.5717 -0.6802 -0.0070
  268MOL0     C35269   5.185  11.261   0.004 -1.0792 -1.1998 -0.4827
  268MOL0     C35270   5.235  11.203   0.116  0.8887 -0.2312 -0.1846
  268MOL0     C35271   5.317  11.276   0.200  0.1878  0.7504 -0.4566
  268MOL0     C35272   5.388  11.388   0.158 -0.7421  0.8966 -0.0794
  268MOL0     C35273   5.490  11.447   0.253 -0.2250 -0.0755  0.1120
  268MOL0     O35274   5.500  11.389   0.380 -0.5903 -0.1414 -0.6534
  268MOL0     C35275   5.571  11.446   0.484  1.0846 -1.6896  0.1810
  268MOL0     C35276   5.515  11.482   0.602  0.4531  0.8110  0.3402
  268MOL0     C35277   5.582  11.508   0.720  0.1482 -0.0907  0.3860
  268MOL0     C35278   5.718  11.525   0.720 -0.8757  0.2239  0.2378
  268MOL0     O35279   5.789  11.544   0.828  0.4316 -1.1081 -0.4253
  268MOL0     C35280   5.868  11.659   0.823 -0.5572 -0.1613 -0.7936
  268MOL0     C35281   5.972  11.679   0.937  0.7969  0.3062  0.1642
  268MOL0     C35282   5.978  11.835   0.962  0.8070 -0.2801 -0.6546
  268MOL0     C35283   6.095  11.881   1.034 -0.2314 -0.3731  0.1907
  268MOL0     C35284   6.054  11.992   1.132  0.0901 -0.6072  0.5129
  268MOL0     C35285   5.998  11.950   1.268 -0.5110 -0.0372  0.7263
  268MOL0     C35286   6.121  11.889   1.346  0.4080 -1.1008 -0.8937
  268MOL0     C35287   6.101  11.913   1.501 -0.0454 -0.3052  0.3393
  268MOL0    Cl35288   6.166  12.074   1.541 -0.5648  0.1359  0.0481
  268MOL0     C35289   5.776  11.507   0.594 -0.1613  0.0429 -0.1485
  268MOL0     C35290   5.706  11.467   0.480  0.7176  0.8464  0.5841
  268MOL0     O35291   5.558  11.549   0.212  0.3041 -0.0068 -0.2955
  268MOL0     C35292   5.349  11.442   0.034  0.7148 -0.5355 -0.8838
  268MOL0     C35293   5.238  11.388  -0.026 -0.2932 -0.2304  0.2771
  268MOL0     N35294   4.849  11.490  -0.530 -0.0803 -0.1519 -0.1487
  268MOL0     N35295   4.747  11.570  -0.541 -0.4891 -0.0400 -0.2115
  268MOL0     C35296   3.918  10.972   0.043  0.1307 -0.3798  0.1014
  268MOL0     C35297   3.866  10.855   0.104  0.7352  0.6086 -0.4159
  268MOL0     C35298   3.712  10.502   0.342  0.1405  0.5798  0.2401
  268MOL0     C35299   3.691  10.372   0.292 -0.7877  1.0697 -0.4909
  268MOL0     C35300   3.701  10.265   0.384  1.0718  0.2735 -0.7054
  268MOL0     C35301   3.719  10.278   0.525  0.3119 -0.6304  0.8176
  268MOL0     O35302   3.739  10.162   0.601  0.7672 -1.4953  0.9523
  268MOL0     C35303   3.805  10.158   0.725  1.1151  0.3888 -0.5890
  268MOL0     C35304   3.730  10.099   0.840  0.1625 -0.2360  0.0143
  268MOL0     C35305   3.816  10.025   0.936 -0.9097 -0.2736 -1.0007
  268MOL0     C35306   3.748  10.015   1.072  0.1307  0.2716  0.3874
  268MOL0     C35307   3.673   9.887   1.086  0.4550 -0.2839 -0.2529
  268MOL0     C35308   3.618   9.780   1.117 -0.1672 -0.0230 -0.2844
  268MOL0     C35309   3.729  10.413   0.572 -0.3610 -0.2238 -0.1546
  268MOL0     C35310   3.732  10.523   0.487 -0.1521  0.0624 -0.0946
  268MOL0     H35311   3.810  10.971   0.422 -0.1949 -2.2400  0.4043
  268MOL0     H35312   3.850  11.173   0.312 -0.6700  0.2368 -1.5843
  268MOL0     H35313   3.875  11.349  -0.047 -2.1360 -1.4838  0.3365
  268MOL0     H35314   3.834  11.187  -0.098  1.4517 -0.1594 -0.5974
  268MOL0     H35315   4.060  11.180  -0.224  1.6277  0.3042 -1.0165
  268MOL0     H35316   4.137  11.265  -0.088 -1.9343  2.3635  1.9873
  268MOL0     H35317   4.033  11.474  -0.168  0.2050  1.3850 -0.8264
  268MOL0     H35318   3.932  11.384  -0.270 -0.6151 -0.4685  0.9671
  268MOL0     H35319   4.105  11.308  -0.412 -2.3115  0.0029  0.8944
  268MOL0     H35320   4.115  11.486  -0.395 -1.2700 -0.6884 -0.1654
  268MOL0     H35321   4.316  11.286  -0.264 -0.9971  0.1240 -1.0375
  268MOL0     H35322   4.314  11.458  -0.243  0.0497  0.3977  1.9404
  268MOL0     H35323   4.326  11.317  -0.507 -0.8677 -0.1868 -0.2648
  268MOL0     H35324   4.467  11.333  -0.405  2.0627 -0.3228 -4.6408
  268MOL0     H35325   4.318  11.584  -0.498  0.4322  0.0156 -2.9724
  268MOL0     H35326   4.471  11.579  -0.386  1.6996 -1.4352 -1.2617
  268MOL0     H35327   4.526  11.658  -0.627  2.7990 -1.2932 -1.4343
  268MOL0     H35328   4.471  11.517  -0.693  0.5441  1.5668 -0.8216
  268MOL0     H35329   4.603  11.278  -0.580  3.1938 -2.2792  0.6335
  268MOL0     H35330   4.992  11.257  -0.559  0.7181 -0.0517 -0.5057
  268MOL0     H35331   4.860  11.154  -0.561  2.4779  1.4873 -3.1321
  268MOL0     H35332   4.956  11.102  -0.351 -3.1929 -2.1576  2.9779
  268MOL0     H35333   4.808  11.198  -0.315  0.9282  1.3668  2.1046
  268MOL0     H35334   5.091  11.305  -0.312  1.0243  2.1302  1.5876
  268MOL0     H35335   4.956  11.411  -0.298  0.2405 -0.6416  1.3362
  268MOL0     H35336   4.898  11.224  -0.107  1.1183 -1.3462  1.4222
  268MOL0     H35337   4.976  11.372  -0.060  0.7570 -0.1442  0.6453
  268MOL0     H35338   5.200  11.103   0.139 -0.7700  0.8865  2.6486
  268MOL0     H35339   5.323  11.236   0.301 -0.1189  2.0639  0.1012
  268MOL0     H35340   5.409  11.461   0.600  0.5926 -0.1766 -3.1870
  268MOL0     H35341   5.524  11.509   0.812  0.1688  0.0601  0.3979
  268MOL0     H35342   5.796  11.742   0.824  0.3516  0.6617 -1.6854
  268MOL0     H35343   5.927  11.665   0.731  1.0214 -1.6820  0.0509
  268MOL0     H35344   6.074  11.648   0.911  0.8534  1.2308 -0.7692
  268MOL0     H35345   5.936  11.625   1.025 -0.8764 -0.6359 -1.0432
  268MOL0     H35346   5.884  11.863   1.010  2.0626  1.4302  0.9566
  268MOL0     H35347   5.979  11.888   0.866  1.1243 -0.0817 -0.5424
  268MOL0     H35348   6.140  11.798   1.090  1.7893  0.5876  0.0815
  268MOL0     H35349   6.164  11.917   0.958  0.4867  1.6720  1.7046
  268MOL0     H35350   5.975  12.057   1.092  0.6729  0.7304  1.4368
  268MOL0     H35351   6.137  12.062   1.147 -3.6861  4.2244  1.5823
  268MOL0     H35352   5.910  11.888   1.249 -1.3046  1.9856 -3.1289
  268MOL0     H35353   5.961  12.036   1.324 -1.8519  0.2025 -0.4729
  268MOL0     H35354   6.137  11.783   1.329 -0.5689 -1.7054  1.4624
  268MOL0     H35355   6.218  11.936   1.326  0.6663 -0.6141  1.2367
  268MOL0     H35356   6.166  11.849   1.561 -1.3376 -0.3051  1.8196
  268MOL0     H35357   5.996  11.892   1.524 -0.7125  1.7422 -0.5280
  268MOL0     H35358   5.883  11.528   0.589 -0.3092  1.0542  0.5183
  268MOL0     H35359   5.771  11.436   0.398 -1.8639 -0.4878 -1.0851
  268MOL0     H35360   5.397  11.535   0.004  2.3170 -1.4684 -1.3253
  268MOL0     H35361   5.220  11.438  -0.121  0.9355  0.9735  0.6468
  268MOL0     H35362   3.958  10.968  -0.058  3.9499 -2.0429  1.4920
  268MOL0     H35363   3.851  10.767   0.042  0.6268 -0.1792  0.7035
  268MOL0     H35364   3.670  10.352   0.187  1.2324  2.2215 -1.1722
  268MOL0     H35365   3.691  10.161   0.352 -1.8847  0.7765 -1.7317
  268MOL0     H35366   3.847  10.258   0.742  0.1060  0.5246  1.3480
  268MOL0     H35367   3.889  10.089   0.711 -0.6594 -1.4432 -3.0722
  268MOL0     H35368   3.670  10.182   0.878  2.0647  2.0302 -1.5847
  268MOL0     H35369   3.664  10.025   0.795 -0.7774  0.8770 -0.4957
  268MOL0     H35370   3.914  10.075   0.940 -1.3609  0.5875  0.8960
  268MOL0     H35371   3.843   9.925   0.902 -1.8077 -1.1492  0.7101
  268MOL0     H35372   3.824  10.016   1.151  0.6235 -1.1968 -0.0379
  268MOL0     H35373   3.663  10.083   1.081  1.1657  1.5478  0.8877
  268MOL0     H35374   3.570   9.695   1.160  0.5891  0.0116  0.6450
  268MOL0     H35375   3.743  10.435   0.677 -1.2711 -1.6105  0.2828
  268MOL0     H35376   3.762  10.619   0.527 -0.3291  0.2454 -0.3954
  269MOL0     O35377   7.135   0.632   8.548 -0.5352 -0.2720 -0.1054
  269MOL0     C35378   7.178   0.735   8.594  0.0399  0.5246 -1.0875
  269MOL0     O35379   7.231   0.753   8.724  0.3413  0.1063  0.0370
  269MOL0     C35380   7.227   0.647   8.800  0.1799  0.3210  0.4133
  269MOL0     C35381   7.118   0.571   8.831  0.7010  0.5786  0.0514
  269MOL0     C35382   7.132   0.461   8.927  0.0891 -0.2358  0.2765
  269MOL0     C35383   7.254   0.436   9.002  0.0777  0.1089  0.1048
  269MOL0     O35384   7.276   0.340   9.096  0.6729 -1.0542 -0.1571
  269MOL0     C35385   7.158   0.281   9.153 -0.2944 -0.1639  1.2443
  269MOL0     C35386   7.175   0.194   9.277 -0.7061 -0.1626  0.6468
  269MOL0     C35387   7.211   0.049   9.254  0.0784  0.9404  0.3424
  269MOL0     C35388   7.249  -0.025   9.391 -0.3060 -0.2015 -0.3114
  269MOL0     C35389   7.229  -0.178   9.376  0.0190 -0.7076 -0.0002
  269MOL0     C35390   7.347  -0.245   9.311 -0.4707 -1.0620 -0.6087
  269MOL0     C35391   7.347  -0.397   9.316 -0.3727 -0.7740 -0.1036
  269MOL0     C35392   7.455  -0.443   9.210 -0.1157  0.3793  0.6362
  269MOL0     N35393   7.482  -0.588   9.210 -0.2618 -0.3316 -0.3500
  269MOL0     C35394   7.403  -0.666   9.130  0.0741 -0.1393  0.8146
  269MOL0     C35395   7.458  -0.785   9.140 -0.2140  0.4535 -0.6058
  269MOL0     C35396   7.384  -0.911   9.102  0.5486 -0.4756 -0.0557
  269MOL0     C35397   7.469  -1.044   9.085 -0.5706  0.2619 -0.5951
  269MOL0     C35398   7.395  -1.156   9.021  0.7522  1.2077 -0.0755
  269MOL0     C35399   7.457  -1.293   9.050 -0.0174 -0.4265 -0.5404
  269MOL0     O35400   7.595  -1.301   8.990 -0.0369 -0.6333 -0.1018
  269MOL0     C35401   7.674  -1.417   8.996 -0.0232  0.4489 -0.3599
  269MOL0     C35402   7.637  -1.534   9.071 -0.6011  0.5388  0.5396
  269MOL0     C35403   7.715  -1.653   9.059 -0.6076  0.1326  0.6256
  269MOL0     C35404   7.830  -1.647   8.977  0.8361 -0.0500 -0.3223
  269MOL0     C35405   7.890  -1.777   8.959  0.9941  0.0481 -0.4412
  269MOL0     O35406   7.963  -1.796   8.850 -0.4441 -0.4492 -0.3989
  269MOL0     C35407   7.985  -1.926   8.809 -0.6101 -0.0256  0.0508
  269MOL0     C35408   8.117  -1.969   8.791  0.3081  0.1793  0.2403
  269MOL0     C35409   8.150  -2.104   8.768 -0.2898 -0.1330 -0.7198
  269MOL0     C35410   8.050  -2.191   8.739  0.3337 -1.3125  1.3505
  269MOL0     O35411   8.059  -2.318   8.695 -0.5043 -0.0669  0.0487
  269MOL0     C35412   8.193  -2.373   8.665  1.4869 -0.0496  0.0240
  269MOL0     C35413   8.183  -2.502   8.584 -0.2836 -0.0707  0.6727
  269MOL0     C35414   8.112  -2.497   8.446  0.3940 -0.7903 -0.2605
  269MOL0     C35415   8.033  -2.624   8.428  0.6765 -0.5693 -0.2305
  269MOL0     C35416   7.973  -2.622   8.286  0.1821  0.2248  0.7934
  269MOL0     C35417   8.083  -2.682   8.194 -0.4217  0.2809 -0.4682
  269MOL0     C35418   8.037  -2.685   8.046  0.4009 -0.5346  0.0238
  269MOL0     C35419   8.159  -2.729   7.963 -0.7450 -0.9111  0.7811
  269MOL0    Cl35420   8.248  -2.586   7.886 -0.1054 -0.0954  0.1437
  269MOL0     C35421   7.919  -2.148   8.755  1.2142  0.3685  0.4317
  269MOL0     C35422   7.883  -2.019   8.789  1.1596  0.7428  0.1566
  269MOL0     O35423   7.879  -1.858   9.053 -0.4010 -0.0394  0.0381
  269MOL0     C35424   7.866  -1.535   8.911  0.0178  0.1388  1.7895
  269MOL0     C35425   7.790  -1.413   8.916  0.0619 -0.5015 -0.0577
  269MOL0     N35426   7.573  -0.786   9.213  1.2704 -0.6217 -0.4832
  269MOL0     N35427   7.586  -0.659   9.243 -0.4178 -0.1467  0.1622
  269MOL0     C35428   7.349   0.526   8.974 -0.2210  0.7134  0.6577
  269MOL0     C35429   7.341   0.627   8.881  0.0940  0.0397 -0.3318
  269MOL0     C35430   7.164   0.860   8.524  0.2257  0.8819  0.2563
  269MOL0     C35431   7.198   0.988   8.584  1.3233 -0.9508  0.9837
  269MOL0     C35432   7.194   1.111   8.514 -0.2936  0.3091  0.0496
  269MOL0     C35433   7.161   1.109   8.382  0.5204  0.6204  0.1042
  269MOL0     O35434   7.162   1.212   8.285 -1.0296  0.8315 -0.3767
  269MOL0     C35435   7.244   1.320   8.330 -0.5501 -0.0172  0.5193
  269MOL0     C35436   7.197   1.439   8.240 -0.0008  0.1952  1.3015
  269MOL0     C35437   7.302   1.552   8.233 -0.0560  0.7071 -0.1709
  269MOL0     C35438   7.259   1.680   8.306  0.1070 -0.6370 -0.4602
  269MOL0     C35439   7.271   1.668   8.451  0.0116  0.7395 -0.6039
  269MOL0     C35440   7.266   1.665   8.572 -0.0840  0.4257 -0.0120
  269MOL0     C35441   7.136   0.986   8.321 -0.4826  0.1694  1.0990
  269MOL0     C35442   7.127   0.863   8.387 -0.6563 -0.7000  0.8427
  269MOL0     H35443   7.023   0.591   8.783 -0.3017 -0.2522  1.5811
  269MOL0     H35444   7.043   0.410   8.963 -0.3912  1.3440  1.5126
  269MOL0     H35445   7.102   0.225   9.077 -2.0635  2.5123  0.4551
  269MOL0     H35446   7.082   0.356   9.174 -1.3963 -0.2734 -1.9083
  269MOL0     H35447   7.085   0.204   9.338  0.6426  2.3719  2.4522
  269MOL0     H35448   7.259   0.237   9.333 -0.8379  0.9291  0.0302
  269MOL0     H35449   7.292   0.035   9.181 -0.4119  0.0768 -0.0590
  269MOL0     H35450   7.114   0.008   9.222  0.0645 -0.9847  2.6090
  269MOL0     H35451   7.353  -0.003   9.414 -0.5736  3.6107 -2.0797
  269MOL0     H35452   7.194   0.014   9.477  0.7060 -2.0273  1.2373
  269MOL0     H35453   7.134  -0.190   9.324 -0.0355 -1.9310  0.3505
  269MOL0     H35454   7.216  -0.224   9.474  0.4172  0.7635  0.7719
  269MOL0     H35455   7.442  -0.224   9.362  0.4339 -0.7872 -2.3247
  269MOL0     H35456   7.361  -0.204   9.210  1.0091  0.2066  0.0577
  269MOL0     H35457   7.375  -0.435   9.414  1.9629  1.6142  0.2644
  269MOL0     H35458   7.249  -0.441   9.298 -0.7569 -0.4395  1.0901
  269MOL0     H35459   7.547  -0.405   9.255 -0.0517 -0.9305  1.6960
  269MOL0     H35460   7.457  -0.402   9.109  1.5274  2.1021  1.2988
  269MOL0     H35461   7.305  -0.632   9.098  1.4365  0.9898 -2.6646
  269MOL0     H35462   7.314  -0.887   9.022 -2.4371 -1.3227  2.1292
  269MOL0     H35463   7.318  -0.927   9.188 -1.3983  1.8668 -1.0317
  269MOL0     H35464   7.497  -1.069   9.188  2.1631  3.8700 -0.2858
  269MOL0     H35465   7.558  -1.024   9.024  1.6722  2.1956  2.9368
  269MOL0     H35466   7.291  -1.171   9.051  0.0045 -1.7730 -3.4707
  269MOL0     H35467   7.389  -1.153   8.912  3.4815  0.9135 -0.2973
  269MOL0     H35468   7.393  -1.367   9.001 -2.0027  1.9097 -1.6369
  269MOL0     H35469   7.456  -1.311   9.158  0.5844  3.0134  0.1463
  269MOL0     H35470   7.550  -1.541   9.136  0.7609  0.0986  2.3688
  269MOL0     H35471   7.684  -1.742   9.114  1.1123  1.3217  3.7800
  269MOL0     H35472   8.185  -1.892   8.826 -3.0592  3.5231  0.0622
  269MOL0     H35473   8.256  -2.128   8.761 -0.8112 -2.2065 -2.4306
  269MOL0     H35474   8.256  -2.391   8.753  2.4592  1.8925 -0.2132
  269MOL0     H35475   8.251  -2.306   8.601 -0.3150 -1.7753 -3.7563
  269MOL0     H35476   8.144  -2.582   8.649 -3.7091  0.8080 -0.1082
  269MOL0     H35477   8.289  -2.521   8.566 -0.0895 -0.6842  2.2824
  269MOL0     H35478   8.183  -2.470   8.367  0.5446  1.6089  0.6140
  269MOL0     H35479   8.043  -2.413   8.456 -1.2332 -2.0098 -0.9453
  269MOL0     H35480   8.093  -2.713   8.450  2.4150  1.3617  3.9582
  269MOL0     H35481   7.951  -2.622   8.500 -1.0681 -1.2342 -2.1072
  269MOL0     H35482   7.949  -2.524   8.244  2.0717  0.2559 -0.3341
  269MOL0     H35483   7.882  -2.682   8.295 -0.5651  0.9716 -1.2699
  269MOL0     H35484   8.101  -2.785   8.229 -2.7866  0.2004  0.7274
  269MOL0     H35485   8.177  -2.630   8.214  0.3768 -1.2295 -0.1471
  269MOL0     H35486   7.949  -2.749   8.028 -1.7951  2.7193 -1.9085
  269MOL0     H35487   8.011  -2.590   7.998  0.9982 -1.4411 -2.2392
  269MOL0     H35488   8.121  -2.792   7.882 -0.2618  1.0459 -1.0280
  269MOL0     H35489   8.234  -2.773   8.029  1.2893  1.0842 -0.0902
  269MOL0     H35490   7.840  -2.216   8.724  1.2900  1.7072 -3.1309
  269MOL0     H35491   7.782  -1.987   8.814  0.2013 -3.5585  2.8992
  269MOL0     H35492   7.958  -1.535   8.854 -0.2226  3.8617  1.2009
  269MOL0     H35493   7.805  -1.320   8.863 -5.3635  0.5108 -0.3203
  269MOL0     H35494   7.445   0.512   9.023 -0.0464 -0.0585  0.1172
  269MOL0     H35495   7.428   0.689   8.863 -0.8017  0.8756 -2.0513
  269MOL0     H35496   7.214   0.993   8.692  0.5983 -0.4987  1.0764
  269MOL0     H35497   7.219   1.204   8.565  2.2048 -0.4348  0.3434
  269MOL0     H35498   7.349   1.289   8.316 -0.2405 -0.0252  2.5339
  269MOL0     H35499   7.219   1.354   8.431 -1.0060  0.2955  0.3018
  269MOL0     H35500   7.177   1.400   8.140 -1.0987 -1.7899  2.2404
  269MOL0     H35501   7.104   1.475   8.285 -0.9456 -0.2308 -0.2585
  269MOL0     H35502   7.326   1.569   8.127  4.5795  1.6089  0.7875
  269MOL0     H35503   7.399   1.523   8.274 -0.6682  1.1323  1.6392
  269MOL0     H35504   7.320   1.763   8.270 -1.5721  0.1395 -1.6323
  269MOL0     H35505   7.159   1.709   8.275  1.3750  2.3994 -2.1431
  269MOL0     H35506   7.264   1.643   8.677 -1.1762 -2.1579 -0.4880
  269MOL0     H35507   7.109   0.993   8.216  0.2925  0.3291  0.9019
  269MOL0     H35508   7.092   0.778   8.330 -0.0559 -1.3686  1.4667
  270MOL0     O35509  11.224   2.755   1.173  0.5428  0.0984  0.1635
  270MOL0     C35510  11.344   2.775   1.172 -0.3288  0.5796 -0.2719
  270MOL0     O35511  11.430   2.743   1.081  0.2976 -0.0395  0.2581
  270MOL0     C35512  11.403   2.662   0.971  0.1378  0.6845 -0.3883
  270MOL0     C35513  11.502   2.643   0.875  0.2657  0.5500 -0.3196
  270MOL0     C35514  11.485   2.567   0.762  0.0971  0.1496 -0.9248
  270MOL0     C35515  11.365   2.491   0.742  0.1967  0.2779  0.2040
  270MOL0     O35516  11.368   2.401   0.641 -0.0134 -0.8440  0.7115
  270MOL0     C35517  11.233   2.398   0.578 -0.3028 -0.0588  0.7554
  270MOL0     C35518  11.269   2.339   0.449  0.5860  0.4302  0.2182
  270MOL0     C35519  11.354   2.425   0.353  0.4855 -0.3866  0.2376
  270MOL0     C35520  11.398   2.352   0.218 -0.6332 -0.1953 -0.3605
  270MOL0     C35521  11.547   2.306   0.215 -0.0819 -0.2272 -0.6429
  270MOL0     C35522  11.584   2.240   0.074  0.1150  0.8393  1.2873
  270MOL0     C35523  11.725   2.169   0.067  0.2576  0.4640  0.3602
  270MOL0     C35524  11.734   2.101  -0.066  0.1601 -1.3432 -0.3750
  270MOL0     N35525  11.861   2.033  -0.108  0.0934 -0.8589 -0.8376
  270MOL0     C35526  11.917   1.939  -0.029  0.2464  0.0196  0.4076
  270MOL0     C35527  11.961   1.847  -0.109  0.4292 -0.4790  0.3074
  270MOL0     C35528  12.008   1.711  -0.074  0.4379 -1.2183  0.2249
  270MOL0     C35529  11.892   1.609  -0.105  0.0389  0.4698  0.2784
  270MOL0     C35530  11.932   1.527  -0.231  0.2928  0.6303  0.0097
  270MOL0     C35531  12.062   1.457  -0.233 -0.3921 -0.2989  0.2510
  270MOL0     O35532  12.074   1.332  -0.308  0.2562 -0.1620 -0.0968
  270MOL0     C35533  12.045   1.211  -0.245  0.5531 -0.4114 -0.1180
  270MOL0     C35534  11.995   1.186  -0.113  0.1010 -0.0572 -0.4625
  270MOL0     C35535  11.984   1.054  -0.073  0.4022  0.2260  0.0063
  270MOL0     C35536  12.035   0.942  -0.154 -0.7236 -0.9906  1.2014
  270MOL0     C35537  12.032   0.798  -0.117 -0.0083 -1.0762  0.4787
  270MOL0     O35538  12.105   0.709  -0.192 -0.3601 -0.0101  0.5106
  270MOL0     C35539  12.078   0.579  -0.177 -1.2244  1.2234  0.6513
  270MOL0     C35540  12.043   0.510  -0.290  0.2701 -0.3271 -0.5742
  270MOL0     C35541  11.989   0.385  -0.285  0.4185 -0.8617  0.6564
  270MOL0     C35542  11.991   0.318  -0.164  0.1276  0.7814 -0.2200
  270MOL0     O35543  11.964   0.182  -0.148 -0.2307 -0.6743  0.5192
  270MOL0     C35544  11.936   0.116  -0.262  0.0509  0.8772  0.4466
  270MOL0     C35545  12.062   0.076  -0.343 -0.2495 -0.0439 -0.4566
  270MOL0     C35546  12.153  -0.024  -0.262  0.8099  0.1271 -0.3384
  270MOL0     C35547  12.088  -0.159  -0.254  0.4201 -0.7570 -0.2417
  270MOL0     C35548  12.179  -0.279  -0.212  0.3125 -0.2146 -0.3394
  270MOL0     C35549  12.248  -0.348  -0.329 -0.0654  0.1486 -1.1062
  270MOL0     C35550  12.391  -0.300  -0.351  0.2296  0.3153 -0.1079
  270MOL0     C35551  12.458  -0.388  -0.455 -0.6796 -0.0429 -0.1980
  270MOL0    Cl35552  12.357  -0.435  -0.592 -0.3849 -0.0651 -0.2141
  270MOL0     C35553  12.035   0.384  -0.045  0.8250  0.4924 -0.7752
  270MOL0     C35554  12.072   0.509  -0.050 -0.5934  0.9146 -0.0981
  270MOL0     O35555  11.954   0.775  -0.030  0.5080 -0.9582 -0.4630
  270MOL0     C35556  12.071   0.973  -0.287 -0.4141  0.1057  0.5564
  270MOL0     C35557  12.074   1.108  -0.332 -0.1830  1.0577 -0.7213
  270MOL0     N35558  11.951   1.904  -0.235 -0.2121 -0.0167  0.8497
  270MOL0     N35559  11.892   2.019  -0.234  0.2268  0.1992  0.0966
  270MOL0     C35560  11.270   2.499   0.843  0.0418  0.5302 -0.9334
  270MOL0     C35561  11.291   2.584   0.957  0.2130  0.2279 -0.1556
  270MOL0     C35562  11.406   2.838   1.289  0.5745 -0.7919  1.2034
  270MOL0     C35563  11.340   2.836   1.411 -0.2887 -0.1446  0.0270
  270MOL0     C35564  11.405   2.882   1.528  0.4379 -0.0090  0.5030
  270MOL0     C35565  11.540   2.916   1.528  0.2104  1.0472  1.2192
  270MOL0     O35566  11.635   2.930   1.635  0.6287  0.6930  0.3771
  270MOL0     C35567  11.587   2.915   1.769  0.1553  0.0265 -0.1993
  270MOL0     C35568  11.709   2.950   1.862  0.0564 -0.2512  0.1685
  270MOL0     C35569  11.661   3.072   1.941  0.6101 -0.1755  0.1570
  270MOL0     C35570  11.752   3.144   2.033  0.2170  0.9436  0.2000
  270MOL0     C35571  11.855   3.210   1.961 -1.4794  0.3523  0.6826
  270MOL0     C35572  11.948   3.266   1.904  0.0428 -0.1137  0.7500
  270MOL0     C35573  11.606   2.921   1.410  0.1747  0.3852  0.4845
  270MOL0     C35574  11.539   2.883   1.292  0.0786 -0.5595 -0.7479
  270MOL0     H35575  11.598   2.687   0.901 -0.2537 -0.6659  4.9619
  270MOL0     H35576  11.566   2.559   0.691  1.7148  0.7567  0.7612
  270MOL0     H35577  11.186   2.497   0.576 -0.9986 -0.3646  1.3507
  270MOL0     H35578  11.153   2.345   0.631 -1.7649  1.8885  0.6160
  270MOL0     H35579  11.176   2.309   0.398  0.6569  1.3696 -0.4959
  270MOL0     H35580  11.327   2.249   0.472 -0.8794  0.1706  3.4903
  270MOL0     H35581  11.443   2.465   0.402  1.5453 -3.8098  1.3784
  270MOL0     H35582  11.292   2.511   0.327 -1.2730 -1.9798 -1.1406
  270MOL0     H35583  11.332   2.271   0.187 -1.3515  0.4688 -0.6106
  270MOL0     H35584  11.384   2.422   0.135  1.1844 -2.6548 -2.9586
  270MOL0     H35585  11.560   2.233   0.295  2.4128 -1.3737 -1.9856
  270MOL0     H35586  11.607   2.395   0.237 -0.2746  0.3330 -2.2499
  270MOL0     H35587  11.581   2.323   0.003 -0.7286  0.4740  0.8813
  270MOL0     H35588  11.500   2.171   0.057  0.6857 -0.0242  1.8664
  270MOL0     H35589  11.805   2.243   0.078  1.9949 -0.4116 -4.0564
  270MOL0     H35590  11.729   2.098   0.150 -1.6418  1.5250  1.4172
  270MOL0     H35591  11.709   2.175  -0.143  0.0514 -1.0172 -0.0294
  270MOL0     H35592  11.656   2.026  -0.075  0.9731 -2.2654  0.1106
  270MOL0     H35593  11.899   1.906   0.073  0.7045 -1.6211 -0.0058
  270MOL0     H35594  12.025   1.722   0.034 -2.6983 -0.3304  0.7360
  270MOL0     H35595  12.097   1.687  -0.132  0.4744 -1.7431  0.4922
  270MOL0     H35596  11.799   1.662  -0.123  0.5125  1.9442  1.8799
  270MOL0     H35597  11.860   1.542  -0.025  2.8478 -0.7092  0.5666
  270MOL0     H35598  11.852   1.454  -0.242  2.2109 -1.6553  0.4236
  270MOL0     H35599  11.938   1.592  -0.319  0.8252 -1.2033 -1.3547
  270MOL0     H35600  12.097   1.445  -0.130  0.9005 -0.3457 -0.1775
  270MOL0     H35601  12.122   1.527  -0.292 -0.7518 -0.3224 -0.1473
  270MOL0     H35602  11.955   1.269  -0.056 -1.3566 -1.1336  0.1513
  270MOL0     H35603  11.947   1.034   0.027  0.9497  1.2363  0.4210
  270MOL0     H35604  12.043   0.565  -0.384 -1.0068 -2.4962 -1.9455
  270MOL0     H35605  11.949   0.336  -0.374  0.1817 -1.3680  1.0396
  270MOL0     H35606  11.871   0.181  -0.320  0.0476  0.5225  0.0494
  270MOL0     H35607  11.877   0.027  -0.239  1.9065 -0.2572  1.0896
  270MOL0     H35608  12.112   0.169  -0.371 -0.1960  1.0970  3.0320
  270MOL0     H35609  12.032   0.026  -0.436  1.4501 -2.5610  0.2530
  270MOL0     H35610  12.161   0.022  -0.163 -0.6120 -1.5136  0.5881
  270MOL0     H35611  12.249  -0.039  -0.313  1.9134 -2.8655  2.2688
  270MOL0     H35612  12.013  -0.156  -0.175 -0.5931 -1.0394 -1.1674
  270MOL0     H35613  12.030  -0.180  -0.344  0.3012  0.5329 -0.4801
  270MOL0     H35614  12.110  -0.348  -0.163  1.1591 -0.1970  0.9111
  270MOL0     H35615  12.253  -0.258  -0.134  0.0059  0.7062 -0.2851
  270MOL0     H35616  12.189  -0.332  -0.419  3.0673 -0.7926 -3.5342
  270MOL0     H35617  12.247  -0.454  -0.302  1.6815  0.3461 -0.0876
  270MOL0     H35618  12.385  -0.195  -0.382  0.9246  0.4693  0.2802
  270MOL0     H35619  12.461  -0.314  -0.269  1.5233 -2.3295 -1.5362
  270MOL0     H35620  12.495  -0.478  -0.404  1.8587  1.5522  0.9855
  270MOL0     H35621  12.551  -0.340  -0.488  1.6022 -1.0757  3.9526
  270MOL0     H35622  12.039   0.327   0.048  0.5825  2.2568  0.3548
  270MOL0     H35623  12.091   0.543   0.051  2.0441 -3.4656  1.1312
  270MOL0     H35624  12.089   0.893  -0.358 -4.2920  0.9793 -1.7082
  270MOL0     H35625  12.094   1.114  -0.438 -0.5319 -1.3787 -0.9900
  270MOL0     H35626  11.183   2.435   0.842  1.5731 -2.1173  4.0017
  270MOL0     H35627  11.208   2.578   1.027  2.1226 -0.4390  2.1783
  270MOL0     H35628  11.241   2.795   1.425 -0.9494  1.9239  2.2390
  270MOL0     H35629  11.343   2.860   1.614  0.7177  0.9681  0.9758
  270MOL0     H35630  11.531   2.822   1.788 -0.7583  0.5357 -0.3413
  270MOL0     H35631  11.516   2.995   1.787 -1.1258 -1.0501 -0.2823
  270MOL0     H35632  11.742   2.863   1.921  0.5453 -3.7784 -4.6985
  270MOL0     H35633  11.786   2.979   1.791 -1.0417  1.3894 -0.3877
  270MOL0     H35634  11.578   3.039   2.004  0.8935  0.9262  1.1456
  270MOL0     H35635  11.626   3.151   1.874  3.4212  0.0712 -1.1652
  270MOL0     H35636  11.694   3.221   2.085  1.4028 -0.3306  3.7039
  270MOL0     H35637  11.791   3.072   2.105 -5.2024 -1.5512  1.1585
  270MOL0     H35638  12.023   3.334   1.869 -0.2265  0.5350  1.4120
  270MOL0     H35639  11.709   2.955   1.401 -0.1853  2.3673  2.8130
  270MOL0     H35640  11.607   2.888   1.207 -2.1470 -2.8422 -2.8477
  271MOL0     O35641   2.920  11.207   9.239 -0.1662  0.2040 -0.1821
  271MOL0     C35642   2.985  11.139   9.319  0.5728 -1.1722  0.2648
  271MOL0     O35643   2.942  11.027   9.371  0.4995 -0.2036 -0.4131
  271MOL0     C35644   2.816  10.972   9.355 -0.6809  0.3485 -0.4959
  271MOL0     C35645   2.800  10.831   9.385  0.8277  1.0221  1.2585
  271MOL0     C35646   2.677  10.766   9.355 -0.0973  0.1978  0.0586
  271MOL0     C35647   2.571  10.827   9.299  0.3914  0.0938  0.0509
  271MOL0     O35648   2.455  10.758   9.276 -0.4384 -0.6201  0.5678
  271MOL0     C35649   2.328  10.808   9.316  0.0638  0.0468  0.3801
  271MOL0     C35650   2.227  10.699   9.283 -0.2165 -0.1243 -0.5318
  271MOL0     C35651   2.249  10.570   9.373 -0.5218  0.0463  0.4026
  271MOL0     C35652   2.134  10.464   9.353 -0.6893  0.0384 -0.1708
  271MOL0     C35653   2.151  10.369   9.237 -0.4602  0.6130  0.4868
  271MOL0     C35654   2.032  10.271   9.239 -0.7414  0.0825  0.5493
  271MOL0     C35655   2.015  10.222   9.093  1.8368 -0.5774  0.4571
  271MOL0     C35656   1.880  10.137   9.089 -0.1314 -0.3125  0.1001
  271MOL0     N35657   1.753  10.203   9.116 -0.3099  1.3139  0.9104
  271MOL0     C35658   1.657  10.211   9.026  0.8951 -0.3777  0.2403
  271MOL0     C35659   1.548  10.253   9.089  0.3285 -0.0243  0.7251
  271MOL0     C35660   1.410  10.273   9.032 -0.0402  0.0450 -0.2208
  271MOL0     C35661   1.332  10.144   8.979  0.1740 -1.6058 -1.0717
  271MOL0     C35662   1.191  10.186   8.933  0.6432 -0.6226  0.2235
  271MOL0     C35663   1.112  10.080   8.860  0.1724 -0.2232  0.5732
  271MOL0     O35664   1.028  10.011   8.950 -0.0106  0.2650 -0.2243
  271MOL0     C35665   0.970   9.889   8.911  0.0890  0.4645 -0.3655
  271MOL0     C35666   0.938   9.858   8.784 -0.5667  0.6411  1.1460
  271MOL0     C35667   0.888   9.728   8.749 -0.2173 -0.0611  0.4029
  271MOL0     C35668   0.842   9.644   8.855  0.4690 -0.1474 -0.1238
  271MOL0     C35669   0.769   9.510   8.823 -1.1286  0.3982 -0.0060
  271MOL0     O35670   0.716   9.450   8.936  0.1712 -0.2646  0.2707
  271MOL0     C35671   0.621   9.350   8.907 -0.5349 -0.6558 -0.1713
  271MOL0     C35672   0.660   9.214   8.916 -0.3658  0.0080  0.2043
  271MOL0     C35673   0.557   9.132   8.887 -0.3070  1.0596  0.4315
  271MOL0     C35674   0.428   9.165   8.841 -0.3456  0.1982 -0.5128
  271MOL0     O35675   0.314   9.084   8.810 -0.4142 -0.0490 -1.4959
  271MOL0     C35676   0.321   8.947   8.850 -0.3378 -0.9999 -0.1151
  271MOL0     C35677   0.198   8.869   8.809  0.5976  0.5036 -0.2687
  271MOL0     C35678   0.210   8.711   8.841  0.1233  0.1283 -0.4184
  271MOL0     C35679   0.140   8.623   8.737  0.0049  0.0646  0.2329
  271MOL0     C35680  -0.003   8.661   8.697 -0.4476 -0.3956  0.2442
  271MOL0     C35681  -0.060   8.544   8.620 -0.2226 -0.0902 -0.6474
  271MOL0     C35682   0.013   8.512   8.490  0.2531 -0.9413 -0.1617
  271MOL0     C35683  -0.041   8.385   8.421  0.8829  0.9770  0.2272
  271MOL0    Cl35684   0.004   8.240   8.532 -0.4995 -0.0072  0.0940
  271MOL0     C35685   0.403   9.307   8.824  0.6858  0.3620 -0.9091
  271MOL0     C35686   0.497   9.396   8.858 -0.5424  0.1337  0.0972
  271MOL0     O35687   0.758   9.472   8.708 -0.4364 -0.3127  0.0821
  271MOL0     C35688   0.870   9.683   8.982 -0.1763 -0.8959 -0.8606
  271MOL0     C35689   0.929   9.803   9.011 -0.7063 -0.0445 -0.3270
  271MOL0     N35690   1.576  10.249   9.221  0.4990  0.9305 -0.4572
  271MOL0     N35691   1.706  10.229   9.244 -0.9687 -0.1048 -0.0227
  271MOL0     C35692   2.585  10.967   9.270 -0.4802 -1.0226  0.0206
  271MOL0     C35693   2.702  11.034   9.303  0.6104  0.0570  0.5254
  271MOL0     C35694   3.125  11.185   9.354  0.5468  0.4270  0.3907
  271MOL0     C35695   3.201  11.108   9.445 -0.6219 -0.4150 -0.2181
  271MOL0     C35696   3.336  11.146   9.471 -0.7972  0.4278 -0.5290
  271MOL0     C35697   3.395  11.258   9.416 -0.2126  0.6763  0.0424
  271MOL0     O35698   3.532  11.270   9.423  0.4103  0.4910 -0.8418
  271MOL0     C35699   3.600  11.391   9.378  0.5346 -0.3657 -0.2678
  271MOL0     C35700   3.749  11.397   9.410 -0.8576 -0.7071  0.0175
  271MOL0     C35701   3.819  11.296   9.325  0.0359  0.1837 -0.2246
  271MOL0     C35702   3.876  11.340   9.192  0.4097  0.2760  0.0299
  271MOL0     C35703   3.986  11.430   9.222  0.8243 -0.2929  0.7915
  271MOL0     C35704   4.067  11.509   9.259  0.7920 -0.0412 -0.4183
  271MOL0     C35705   3.307  11.340   9.337  0.0265  0.5215  0.3759
  271MOL0     C35706   3.176  11.306   9.312 -0.2480  0.6224  1.0441
  271MOL0     H35707   2.882  10.775   9.428  1.6300 -0.8038 -2.2729
  271MOL0     H35708   2.673  10.659   9.370  1.6834 -0.3340 -2.4845
  271MOL0     H35709   2.306  10.888   9.245  0.7257  0.4800  0.6523
  271MOL0     H35710   2.319  10.839   9.420 -1.0411 -2.1514  0.9967
  271MOL0     H35711   2.244  10.672   9.178  1.6510  0.6444 -0.4530
  271MOL0     H35712   2.126  10.732   9.309 -0.5468 -2.6739  2.0075
  271MOL0     H35713   2.265  10.610   9.473 -4.6947 -0.0381  1.2671
  271MOL0     H35714   2.340  10.515   9.348 -1.2019 -1.5075  1.2053
  271MOL0     H35715   2.148  10.388   9.430  1.1129  2.4025  2.0383
  271MOL0     H35716   2.036  10.510   9.366 -1.1376  0.0107 -2.8729
  271MOL0     H35717   2.245  10.316   9.253 -2.5321 -2.8994  2.3052
  271MOL0     H35718   2.148  10.434   9.148 -3.8378  0.4441  0.3165
  271MOL0     H35719   1.939  10.325   9.260 -0.1498  2.1839 -1.7648
  271MOL0     H35720   2.044  10.187   9.308 -0.0197 -0.4410 -0.1828
  271MOL0     H35721   1.993  10.310   9.031 -1.6157 -1.6289 -0.0345
  271MOL0     H35722   2.095  10.162   9.048  0.0222 -0.4637 -3.3991
  271MOL0     H35723   1.883  10.051   9.156 -2.5360 -1.5718 -1.2885
  271MOL0     H35724   1.881  10.099   8.986  2.2914  0.2615 -0.1517
  271MOL0     H35725   1.653  10.202   8.918 -0.4003  2.2830 -0.0112
  271MOL0     H35726   1.420  10.349   8.954 -0.6032  0.1590 -0.1855
  271MOL0     H35727   1.343  10.325   9.101 -0.6457  0.1189 -0.8463
  271MOL0     H35728   1.323  10.073   9.061 -3.7503 -0.8000 -0.6159
  271MOL0     H35729   1.395  10.102   8.899  0.7260 -0.6705 -1.1443
  271MOL0     H35730   1.136  10.216   9.023  1.7683 -1.4813  1.2394
  271MOL0     H35731   1.200  10.264   8.856  0.1192 -0.9356 -0.1588
  271MOL0     H35732   1.183  10.018   8.806  3.7279  3.0738  1.0016
  271MOL0     H35733   1.061  10.132   8.779  0.6108 -0.3918  0.1911
  271MOL0     H35734   0.951   9.928   8.702  1.3089 -0.7414  0.1786
  271MOL0     H35735   0.864   9.697   8.648  1.3571  0.6971 -0.2416
  271MOL0     H35736   0.762   9.188   8.942 -0.1956  0.3904 -0.0603
  271MOL0     H35737   0.569   9.029   8.917  0.1106  1.6082  2.2895
  271MOL0     H35738   0.349   8.945   8.955 -0.8889 -0.2964  0.0517
  271MOL0     H35739   0.403   8.900   8.795 -0.1697  0.2403 -0.9461
  271MOL0     H35740   0.192   8.893   8.703 -0.1179  1.5968  0.0020
  271MOL0     H35741   0.109   8.915   8.854  0.7004  0.3126  0.1418
  271MOL0     H35742   0.170   8.699   8.942 -1.3953 -0.3107 -1.0494
  271MOL0     H35743   0.318   8.690   8.838  0.0812 -0.4678  1.3039
  271MOL0     H35744   0.201   8.626   8.646  0.1409  1.5905  0.3520
  271MOL0     H35745   0.138   8.518   8.768  4.1147 -0.4490 -0.6460
  271MOL0     H35746  -0.006   8.752   8.635 -0.7053 -0.0981  0.6871
  271MOL0     H35747  -0.056   8.658   8.792  0.4844 -2.4712  0.7577
  271MOL0     H35748  -0.163   8.574   8.597 -0.0495 -1.0273 -2.8438
  271MOL0     H35749  -0.068   8.451   8.678  2.6376  0.4818  0.8665
  271MOL0     H35750   0.002   8.589   8.413  0.8410 -0.5981  0.0896
  271MOL0     H35751   0.118   8.489   8.510 -0.8420 -3.1357  4.6701
  271MOL0     H35752  -0.005   8.368   8.319 -0.3877 -0.5543 -0.0162
  271MOL0     H35753  -0.150   8.391   8.416  0.7385 -0.8471 -4.2780
  271MOL0     H35754   0.301   9.345   8.820  0.8159  0.8923  0.3238
  271MOL0     H35755   0.482   9.503   8.864 -2.2396  0.0768 -2.0518
  271MOL0     H35756   0.844   9.621   9.067  0.5103 -1.9045 -1.3649
  271MOL0     H35757   0.960   9.818   9.114  0.2370 -0.8266 -0.4767
  271MOL0     H35758   2.512  11.035   9.229  0.0022 -1.5285 -1.7611
  271MOL0     H35759   2.693  11.140   9.284 -0.5541 -0.4004 -1.8433
  271MOL0     H35760   3.170  11.010   9.481 -0.3721  0.9859  4.3669
  271MOL0     H35761   3.392  11.076   9.532  0.9577  2.5051  0.3343
  271MOL0     H35762   3.552  11.476   9.428  0.1405  0.5369 -2.0589
  271MOL0     H35763   3.585  11.407   9.270  1.6276 -2.1283 -0.7267
  271MOL0     H35764   3.778  11.499   9.386  1.9513 -1.3490  0.3747
  271MOL0     H35765   3.764  11.387   9.518  1.2627 -2.6945 -0.3809
  271MOL0     H35766   3.745  11.217   9.306 -2.3367  1.8445  1.5505
  271MOL0     H35767   3.899  11.255   9.387  0.6120  0.6034 -0.6790
  271MOL0     H35768   3.914  11.252   9.140  0.5542 -0.0548  0.6912
  271MOL0     H35769   3.796  11.390   9.135  1.4849  0.0382 -1.7702
  271MOL0     H35770   4.150  11.574   9.282  0.9960 -0.7536  0.9238
  271MOL0     H35771   3.354  11.427   9.294  2.0695 -1.2736 -1.2554
  271MOL0     H35772   3.111  11.370   9.253  1.7335 -0.5730 -2.7148
  272MOL0     O35773  10.760  11.320   5.552  0.4175  0.6048 -0.2866
  272MOL0     C35774  10.763  11.212   5.616 -0.8062 -0.4687 -0.1537
  272MOL0     O35775  10.807  11.091   5.571  0.0364 -0.6283  0.2314
  272MOL0     C35776  10.819  11.061   5.433  0.8613  0.1208  0.1403
  272MOL0     C35777  10.782  10.941   5.377  0.2270  0.3003 -0.0971
  272MOL0     C35778  10.800  10.904   5.245  0.9674  0.6366  1.2548
  272MOL0     C35779  10.859  10.992   5.158  0.3392 -0.2293  0.0037
  272MOL0     O35780  10.877  10.979   5.020 -0.1395  0.1699  0.5451
  272MOL0     C35781  10.825  10.857   4.961 -0.6486 -0.9811 -0.2686
  272MOL0     C35782  10.861  10.852   4.814 -0.0257 -0.3295  0.0842
  272MOL0     C35783  10.858  10.707   4.768  0.0924 -0.7531 -0.6257
  272MOL0     C35784  10.931  10.690   4.634 -0.2488 -0.7166  0.7130
  272MOL0     C35785  10.907  10.549   4.584 -0.2132 -0.3640  1.3026
  272MOL0     C35786  11.008  10.453   4.648  0.6949  0.7157 -0.5319
  272MOL0     C35787  10.971  10.310   4.600 -0.1078  0.2638  0.1286
  272MOL0     C35788  11.056  10.205   4.658  0.3283 -0.5600 -0.9909
  272MOL0     N35789  11.183  10.183   4.586  0.1846  0.3641 -1.0233
  272MOL0     C35790  11.306  10.247   4.601 -0.2599 -0.1829  1.0747
  272MOL0     C35791  11.389  10.167   4.531 -0.1533 -0.3685 -0.3594
  272MOL0     C35792  11.537  10.176   4.544 -0.7509 -0.4072 -0.5467
  272MOL0     C35793  11.588  10.214   4.692 -0.7790 -0.2662 -0.5312
  272MOL0     C35794  11.739  10.226   4.708  0.9287  0.6076  0.6828
  272MOL0     C35795  11.769  10.376   4.666 -0.5224  0.5468  0.6354
  272MOL0     O35796  11.700  10.471   4.753  0.1318  0.1715  0.3468
  272MOL0     C35797  11.762  10.592   4.762 -0.7240 -0.2372 -1.1579
  272MOL0     C35798  11.849  10.617   4.873 -0.5835  0.4386  0.3512
  272MOL0     C35799  11.927  10.737   4.884 -1.5638  0.8797  0.6215
  272MOL0     C35800  11.909  10.838   4.791  0.4921 -0.2764  0.2547
  272MOL0     C35801  11.980  10.970   4.803 -0.1013  0.2959 -0.1695
  272MOL0     O35802  11.931  11.074   4.720 -0.4342  0.2254  1.0960
  272MOL0     C35803  11.986  11.200   4.715  0.6338  0.2230  0.4261
  272MOL0     C35804  11.885  11.294   4.665 -1.2358 -0.0666 -0.1745
  272MOL0     C35805  11.930  11.427   4.627  0.1752 -0.4102 -0.1154
  272MOL0     C35806  12.063  11.467   4.658  0.5411  0.0205  0.2791
  272MOL0     O35807  12.098  11.601   4.669  0.2345 -0.4946 -0.4868
  272MOL0     C35808  11.993  11.696   4.704  0.8074  0.2554  0.2093
  272MOL0     C35809  12.059  11.816   4.759  0.0205 -0.1772 -0.9931
  272MOL0     C35810  11.959  11.922   4.804  0.1721 -0.2080  1.0175
  272MOL0     C35811  11.926  11.918   4.948  0.9157 -0.9608 -0.1698
  272MOL0     C35812  11.875  12.059   4.994 -0.5774  1.6310 -0.4396
  272MOL0     C35813  11.742  12.105   4.931 -0.0210  0.0708  0.6096
  272MOL0     C35814  11.696  12.246   4.979  0.3855 -0.2247 -0.5233
  272MOL0     C35815  11.612  12.237   5.112 -0.5883  0.0008 -0.0891
  272MOL0    Cl35816  11.447  12.189   5.071  0.4716  0.0357 -0.3802
  272MOL0     C35817  12.149  11.372   4.716 -0.1776 -0.4688 -0.0463
  272MOL0     C35818  12.118  11.235   4.734 -0.7025  0.5722 -0.7272
  272MOL0     O35819  12.056  10.986   4.901  0.4720 -0.6488 -0.4266
  272MOL0     C35820  11.809  10.822   4.689  0.6603  0.3640 -0.6517
  272MOL0     C35821  11.742  10.698   4.674  0.4577  0.4755  0.2998
  272MOL0     N35822  11.320  10.060   4.479  0.0963  0.1244 -0.5547
  272MOL0     N35823  11.202  10.067   4.510 -0.3065  0.5331 -0.2335
  272MOL0     C35824  10.899  11.115   5.211 -0.0916 -0.1380 -0.1805
  272MOL0     C35825  10.885  11.150   5.349  0.2908  0.6366  0.4804
  272MOL0     C35826  10.714  11.229   5.760 -0.0445 -0.2941  1.4249
  272MOL0     C35827  10.720  11.113   5.838 -0.0693  0.3394  0.1966
  272MOL0     C35828  10.657  11.118   5.961 -0.5774 -0.0604  1.1589
  272MOL0     C35829  10.595  11.236   6.013 -0.5501  0.4327  0.1891
  272MOL0     O35830  10.521  11.241   6.137  0.3908 -0.0352  0.2695
  272MOL0     C35831  10.540  11.149   6.248  0.2371  0.2983  0.1410
  272MOL0     C35832  10.679  11.149   6.304  0.0341  0.0823  0.2494
  272MOL0     C35833  10.679  11.075   6.440  0.0974  0.0906  0.3231
  272MOL0     C35834  10.826  11.078   6.494  0.1426 -0.8903  0.5595
  272MOL0     C35835  10.851  11.225   6.523  0.1458 -0.1892 -0.4021
  272MOL0     C35836  10.880  11.342   6.552  0.1444 -0.2125  0.4165
  272MOL0     C35837  10.594  11.346   5.928 -0.9957  0.7044  0.1285
  272MOL0     C35838  10.656  11.343   5.806 -0.9874 -0.1885  0.8439
  272MOL0     H35839  10.722  10.877   5.441  1.7410 -1.0044  0.0620
  272MOL0     H35840  10.747  10.820   5.200  2.2449  0.4905 -0.0756
  272MOL0     H35841  10.719  10.832   4.974 -1.1219 -0.9824 -3.3236
  272MOL0     H35842  10.875  10.776   5.014 -2.3753  0.6813  4.3614
  272MOL0     H35843  10.958  10.899   4.796 -0.0018  0.1746  1.4355
  272MOL0     H35844  10.795  10.915   4.753  1.6357 -0.8026 -2.2988
  272MOL0     H35845  10.758  10.664   4.772 -0.4628  0.5698  0.6077
  272MOL0     H35846  10.909  10.651   4.847 -0.9703  2.6696  2.8324
  272MOL0     H35847  10.894  10.762   4.561  3.1843 -2.0484 -2.6514
  272MOL0     H35848  11.034  10.727   4.640 -1.2963  2.5685  0.3215
  272MOL0     H35849  10.934  10.548   4.478  3.0552 -1.4241  2.0191
  272MOL0     H35850  10.804  10.519   4.605 -0.6926 -0.3772 -0.9005
  272MOL0     H35851  10.978  10.452   4.753 -2.7311 -2.5668 -1.3238
  272MOL0     H35852  11.114  10.466   4.626  0.9864 -3.0894 -2.1131
  272MOL0     H35853  10.870  10.302   4.642 -0.4288  0.9706 -0.4919
  272MOL0     H35854  10.964  10.308   4.491 -2.8247 -1.5203  0.2359
  272MOL0     H35855  11.008  10.107   4.665 -2.1095  0.2332 -4.0759
  272MOL0     H35856  11.077  10.225   4.763  1.5914 -0.9394 -1.1592
  272MOL0     H35857  11.332  10.332   4.664  1.1340  1.7487 -1.8603
  272MOL0     H35858  11.572  10.260   4.484 -1.4596  0.5288  0.3100
  272MOL0     H35859  11.571  10.080   4.504  1.1335 -0.8733  1.8716
  272MOL0     H35860  11.571  10.130   4.760  2.8639 -0.8692 -0.1680
  272MOL0     H35861  11.534  10.297   4.738 -1.5661 -2.1465  2.1706
  272MOL0     H35862  11.770  10.213   4.812  2.4474 -1.1786  0.0796
  272MOL0     H35863  11.782  10.147   4.645 -0.7958 -1.5846  2.1035
  272MOL0     H35864  11.745  10.392   4.560 -1.9206  0.7839  0.9619
  272MOL0     H35865  11.878  10.377   4.672 -0.4662 -1.3257  0.4286
  272MOL0     H35866  11.866  10.538   4.946 -1.2065 -1.4270 -1.4174
  272MOL0     H35867  12.001  10.749   4.962  1.7158 -1.3460 -1.8954
  272MOL0     H35868  11.786  11.259   4.640 -2.9287  3.5529  0.7251
  272MOL0     H35869  11.864  11.508   4.595  1.8649  1.5814  1.1507
  272MOL0     H35870  11.913  11.667   4.772  1.3479  0.0934  0.7825
  272MOL0     H35871  11.935  11.712   4.612  1.1951 -2.1686 -0.5266
  272MOL0     H35872  12.118  11.864   4.681  2.3670  1.3945  1.5806
  272MOL0     H35873  12.131  11.786   4.835 -0.3194 -0.8357 -0.9141
  272MOL0     H35874  11.869  11.920   4.743  1.0676  0.8595 -0.4131
  272MOL0     H35875  12.014  12.015   4.783  1.1400 -1.3763 -2.2212
  272MOL0     H35876  11.849  11.842   4.962  0.6437 -0.6263  0.1723
  272MOL0     H35877  12.019  11.900   5.003 -0.3721 -1.7389  1.8399
  272MOL0     H35878  11.947  12.138   4.972  0.7207  0.7719  0.6229
  272MOL0     H35879  11.849  12.045   5.099  0.7223  2.8559  0.0687
  272MOL0     H35880  11.671  12.027   4.961  0.2942  0.0567  1.3519
  272MOL0     H35881  11.754  12.112   4.823 -2.0395  0.4533  0.3637
  272MOL0     H35882  11.777  12.315   5.007  0.4601 -0.8117  0.8151
  272MOL0     H35883  11.633  12.279   4.897  1.9339  0.4829 -1.4700
  272MOL0     H35884  11.607  12.339   5.151  0.1739  0.8522 -2.0776
  272MOL0     H35885  11.650  12.175   5.193 -0.6788  0.9778  0.7259
  272MOL0     H35886  12.250  11.402   4.740  0.6669 -3.2391  0.2325
  272MOL0     H35887  12.201  11.170   4.762 -0.5767 -0.3928 -3.0779
  272MOL0     H35888  11.774  10.902   4.625 -1.5418  0.7882  0.9774
  272MOL0     H35889  11.687  10.678   4.583  0.3726  3.5988 -0.4624
  272MOL0     H35890  10.955  11.189   5.155  1.5982  1.1615  2.9948
  272MOL0     H35891  10.928  11.239   5.394 -1.4289  0.0527  3.5334
  272MOL0     H35892  10.754  11.013   5.812 -0.0249  0.4653 -0.2346
  272MOL0     H35893  10.646  11.023   6.013  0.8365 -0.8342  0.1202
  272MOL0     H35894  10.508  11.048   6.220 -1.3758  1.0069 -0.7249
  272MOL0     H35895  10.467  11.179   6.323  0.9570  1.4787  0.4002
  272MOL0     H35896  10.739  11.101   6.227  0.2815  0.4426  0.2137
  272MOL0     H35897  10.725  11.248   6.292 -1.0756  0.6504  0.5378
  272MOL0     H35898  10.672  10.966   6.431  2.4618 -0.2389  1.5703
  272MOL0     H35899  10.611  11.118   6.513  1.0586  3.3536 -0.5399
  272MOL0     H35900  10.835  11.013   6.582 -1.8309 -1.0582  0.6888
  272MOL0     H35901  10.905  11.043   6.427  1.3222  1.5304  0.5759
  272MOL0     H35902  10.892  11.437   6.601 -1.9028  0.5546 -0.4799
  272MOL0     H35903  10.559  11.443   5.962  0.4125  1.5362 -0.6866
  272MOL0     H35904  10.651  11.428   5.739 -0.3138 -1.6353 -1.1276
  273MOL0     O35905   1.723   2.042   4.457 -0.6123  0.4945  0.6347
  273MOL0     C35906   1.733   1.937   4.505  0.3840  1.3650 -0.3429
  273MOL0     O35907   1.824   1.829   4.475  0.6956 -0.4178  0.4982
  273MOL0     C35908   1.908   1.854   4.373  0.5640  0.9575 -0.2703
  273MOL0     C35909   2.037   1.845   4.411  0.3285 -0.5913  0.0124
  273MOL0     C35910   2.144   1.870   4.320  0.0596 -0.7124 -0.2216
  273MOL0     C35911   2.107   1.891   4.186  0.1042 -0.0734 -0.3356
  273MOL0     O35912   2.190   1.891   4.077 -0.2844 -0.1471  0.6900
  273MOL0     C35913   2.325   1.939   4.091 -0.2160  0.1393  0.0615
  273MOL0     C35914   2.374   1.995   3.953 -0.5260 -0.0960  0.0218
  273MOL0     C35915   2.524   2.021   3.949 -0.3882  1.0372  1.7631
  273MOL0     C35916   2.557   2.091   3.819 -0.7704  0.2387 -0.6196
  273MOL0     C35917   2.701   2.110   3.793  0.7193  0.2372  0.5391
  273MOL0     C35918   2.721   2.138   3.639 -0.1066  0.0887  0.3927
  273MOL0     C35919   2.873   2.152   3.591 -0.5455 -0.1990  0.6540
  273MOL0     C35920   2.942   2.014   3.604  0.6866 -0.3954  0.0347
  273MOL0     N35921   3.085   2.027   3.572 -0.1518 -0.7301  0.2509
  273MOL0     C35922   3.142   2.098   3.472 -0.8535 -0.0769  0.3829
  273MOL0     C35923   3.273   2.041   3.457  0.2438  0.2548  0.7012
  273MOL0     C35924   3.378   2.077   3.358  0.2307  0.8568 -0.9200
  273MOL0     C35925   3.491   2.106   3.443 -0.6509 -0.1344  0.3437
  273MOL0     C35926   3.600   2.140   3.351 -0.2223 -0.3342  0.3211
  273MOL0     C35927   3.740   2.175   3.403  0.6670 -0.9862  0.0427
  273MOL0     O35928   3.738   2.311   3.460  0.4235 -0.9026  0.5523
  273MOL0     C35929   3.807   2.401   3.390  0.0451  0.4458 -0.4404
  273MOL0     C35930   3.881   2.500   3.461 -0.2147 -0.0678  0.5446
  273MOL0     C35931   3.953   2.597   3.392 -0.0797 -0.0957 -0.2259
  273MOL0     C35932   3.945   2.604   3.254  0.3065  0.8924  0.1850
  273MOL0     C35933   4.034   2.699   3.187 -0.9686 -0.1111  0.3507
  273MOL0     O35934   4.045   2.818   3.256 -0.2412  1.1536  0.2437
  273MOL0     C35935   4.151   2.896   3.214 -0.5198  1.4274  0.0611
  273MOL0     C35936   4.124   2.994   3.119 -0.1414 -0.9694  0.2633
  273MOL0     C35937   4.220   3.089   3.078  0.4062  0.5884 -0.3544
  273MOL0     C35938   4.350   3.074   3.125  0.1820  0.2430  0.5910
  273MOL0     O35939   4.450   3.157   3.095  0.2633  0.2467  1.1409
  273MOL0     C35940   4.437   3.287   3.020 -0.0688  0.4364 -0.8310
  273MOL0     C35941   4.572   3.356   2.984 -0.6942  0.4023 -0.0119
  273MOL0     C35942   4.684   3.278   2.925  0.4240 -0.4391 -0.3771
  273MOL0     C35943   4.650   3.229   2.789  0.1646 -1.6373  0.5736
  273MOL0     C35944   4.758   3.142   2.736  0.6457 -0.0972 -0.7655
  273MOL0     C35945   4.786   3.010   2.797  0.5382  0.1599 -0.6586
  273MOL0     C35946   4.812   2.890   2.708  0.5518  0.8078  0.0137
  273MOL0     C35947   4.928   2.907   2.602  0.3383 -0.7423 -0.1205
  273MOL0    Cl35948   4.953   2.750   2.526  0.0968  0.2278  0.1630
  273MOL0     C35949   4.380   2.975   3.221  0.1731  1.1182 -0.6210
  273MOL0     C35950   4.285   2.884   3.265  0.4085  0.4908 -0.4534
  273MOL0     O35951   4.105   2.660   3.091  0.1557  0.4367  1.0498
  273MOL0     C35952   3.869   2.509   3.179  0.1755  0.3372 -0.2125
  273MOL0     C35953   3.797   2.409   3.254 -0.1095  0.8538 -0.5469
  273MOL0     N35954   3.287   1.945   3.556 -0.5590 -1.1774  0.8339
  273MOL0     N35955   3.176   1.941   3.621 -0.4641  0.0586  0.2451
  273MOL0     C35956   1.972   1.898   4.149 -0.3318  0.3833 -0.6263
  273MOL0     C35957   1.870   1.860   4.238  0.2411 -0.0368 -0.4476
  273MOL0     C35958   1.653   1.915   4.633 -0.1089  0.7452  0.5155
  273MOL0     C35959   1.689   1.805   4.716  1.3377  0.5789  0.4133
  273MOL0     C35960   1.631   1.793   4.848 -0.6097 -0.1608 -0.5500
  273MOL0     C35961   1.535   1.885   4.892  0.0201 -0.8950 -0.5714
  273MOL0     O35962   1.486   1.894   5.025  0.5615  0.2900  0.4853
  273MOL0     C35963   1.530   1.804   5.125  0.2142 -0.0612 -0.4322
  273MOL0     C35964   1.426   1.793   5.240 -0.8669 -0.4163 -0.6564
  273MOL0     C35965   1.488   1.724   5.366  0.9356 -0.0886 -0.6715
  273MOL0     C35966   1.566   1.597   5.332  0.9144 -0.3620 -0.4674
  273MOL0     C35967   1.627   1.539   5.454 -0.6332  0.0538  1.2155
  273MOL0     C35968   1.659   1.489   5.557 -1.1755 -0.4592 -0.9147
  273MOL0     C35969   1.497   1.998   4.813 -0.6488  0.5428 -0.8041
  273MOL0     C35970   1.563   2.014   4.685  0.2821 -0.2856  0.2073
  273MOL0     H35971   2.071   1.820   4.511  2.5568 -1.5884 -0.9147
  273MOL0     H35972   2.243   1.875   4.364  0.9601 -2.9407 -1.8232
  273MOL0     H35973   2.384   1.850   4.112 -3.1116 -2.7428 -2.8231
  273MOL0     H35974   2.334   2.020   4.164 -0.1706 -0.4958  0.7715
  273MOL0     H35975   2.325   2.090   3.929 -1.1684 -0.2859  0.5677
  273MOL0     H35976   2.344   1.926   3.873  1.0003 -2.2488  1.1924
  273MOL0     H35977   2.582   1.930   3.970 -0.8749  0.7187  1.7342
  273MOL0     H35978   2.549   2.085   4.034 -2.5510  1.2140  2.3268
  273MOL0     H35979   2.520   2.020   3.744 -1.9750 -0.2215  0.3834
  273MOL0     H35980   2.502   2.185   3.811 -3.8717 -1.5056 -1.2613
  273MOL0     H35981   2.750   2.019   3.827 -0.2856 -0.1855  0.9104
  273MOL0     H35982   2.735   2.198   3.848 -0.3976  1.3417 -0.4598
  273MOL0     H35983   2.663   2.230   3.628 -0.5230 -0.1619  0.4778
  273MOL0     H35984   2.669   2.054   3.592  4.3122 -0.2773 -4.9356
  273MOL0     H35985   2.891   2.199   3.494  1.0087  2.8562  2.2849
  273MOL0     H35986   2.916   2.223   3.662 -1.2122  2.1432 -1.1687
  273MOL0     H35987   2.889   1.933   3.552  1.4135 -1.5116  0.9679
  273MOL0     H35988   2.925   1.996   3.711  1.0782 -1.2669 -0.0389
  273MOL0     H35989   3.101   2.167   3.399 -3.9405 -2.7072 -0.5818
  273MOL0     H35990   3.353   2.165   3.298  1.2883  1.8626  0.0680
  273MOL0     H35991   3.392   1.991   3.292  1.0100 -2.3679  3.0719
  273MOL0     H35992   3.522   2.024   3.509 -1.8151 -1.1602 -0.3325
  273MOL0     H35993   3.471   2.191   3.509 -2.8138  0.4692 -0.9797
  273MOL0     H35994   3.606   2.058   3.278  1.5246  2.6454 -3.2189
  273MOL0     H35995   3.569   2.228   3.295 -0.5376 -0.7534 -0.1696
  273MOL0     H35996   3.785   2.177   3.303 -3.8170 -1.2035 -2.2491
  273MOL0     H35997   3.775   2.103   3.477  1.3954 -1.9554 -1.2011
  273MOL0     H35998   3.860   2.501   3.568  1.4315  0.3948  0.8886
  273MOL0     H35999   4.011   2.669   3.447  0.2546 -1.6572  1.5688
  273MOL0     H36000   4.019   2.984   3.093 -0.3705 -2.1860  1.5352
  273MOL0     H36001   4.208   3.176   3.015  4.2588  2.0683  0.6561
  273MOL0     H36002   4.375   3.347   3.088  0.5580  1.7965 -1.4297
  273MOL0     H36003   4.383   3.255   2.931 -0.0325 -2.1299 -0.0276
  273MOL0     H36004   4.605   3.389   3.083  0.4358 -0.0215 -0.2362
  273MOL0     H36005   4.545   3.431   2.909  1.4356  0.2251 -0.9975
  273MOL0     H36006   4.715   3.191   2.984  0.2808 -2.2660 -2.8608
  273MOL0     H36007   4.770   3.345   2.924  1.8677 -2.0826  1.9388
  273MOL0     H36008   4.564   3.161   2.793 -0.6423 -0.6341  0.5437
  273MOL0     H36009   4.650   3.320   2.729  2.1851 -0.9811  1.5000
  273MOL0     H36010   4.850   3.199   2.719  1.7792 -2.2959 -2.4794
  273MOL0     H36011   4.713   3.123   2.639  2.1420 -0.5090 -1.4068
  273MOL0     H36012   4.699   2.978   2.856  1.1902 -1.1254 -0.3706
  273MOL0     H36013   4.868   2.996   2.868 -0.2228 -1.6957 -0.0668
  273MOL0     H36014   4.851   2.806   2.766 -1.7409  0.2309  0.8132
  273MOL0     H36015   4.718   2.857   2.663  0.2506  2.1339 -0.3804
  273MOL0     H36016   5.016   2.949   2.651  0.1050 -1.3362  0.8290
  273MOL0     H36017   4.913   2.985   2.527  3.4756 -0.1503 -0.2546
  273MOL0     H36018   4.478   2.979   3.269 -0.7769 -3.1541  2.2198
  273MOL0     H36019   4.315   2.816   3.344  0.4372 -1.2151 -1.8661
  273MOL0     H36020   3.887   2.505   3.072  3.7487 -0.1383  0.2825
  273MOL0     H36021   3.733   2.337   3.204  0.9123 -0.9935  0.6705
  273MOL0     H36022   1.952   1.899   4.043  4.5701  0.1458 -1.8113
  273MOL0     H36023   1.764   1.857   4.212 -0.9063  2.4215  3.1815
  273MOL0     H36024   1.755   1.724   4.690  0.1533  0.7079 -3.5579
  273MOL0     H36025   1.653   1.703   4.904  0.4668 -0.0802 -0.8169
  273MOL0     H36026   1.628   1.838   5.161 -0.6368 -0.0654  2.0785
  273MOL0     H36027   1.561   1.708   5.082  0.0751 -0.3955  0.2061
  273MOL0     H36028   1.383   1.892   5.259  0.2036 -0.3752  1.9466
  273MOL0     H36029   1.347   1.736   5.192  0.3526  0.0755 -3.4285
  273MOL0     H36030   1.404   1.714   5.436 -0.9024  0.6328 -2.6859
  273MOL0     H36031   1.565   1.789   5.409  0.5221  0.4887 -0.8006
  273MOL0     H36032   1.490   1.535   5.284 -0.8579  0.3075  1.3507
  273MOL0     H36033   1.657   1.611   5.272  0.7489  3.9320 -0.0346
  273MOL0     H36034   1.694   1.437   5.644 -1.0887  1.2118  0.0952
  273MOL0     H36035   1.447   2.082   4.860  0.3150 -0.2306  1.8401
  273MOL0     H36036   1.538   2.102   4.627 -2.0114 -1.7994 -1.2676
  274MOL0     O36037   6.711  11.152   4.755  0.6572 -0.3306 -0.2237
  274MOL0     C36038   6.652  11.068   4.688 -0.3811  0.5120 -1.3190
  274MOL0     O36039   6.548  10.999   4.728  0.4624  0.1680  0.0852
  274MOL0     C36040   6.506  10.998   4.855  0.2698  0.7139  0.3717
  274MOL0     C36041   6.482  10.886   4.924 -0.9913  0.4706 -0.0562
  274MOL0     C36042   6.434  10.867   5.059  0.8593  0.0187  0.0523
  274MOL0     C36043   6.406  10.988   5.142  0.4830  0.4836  0.6285
  274MOL0     O36044   6.351  11.002   5.264 -1.0484  0.1702 -0.8453
  274MOL0     C36045   6.326  10.884   5.340 -0.9899  1.3221 -0.1141
  274MOL0     C36046   6.325  10.924   5.491  0.1784 -0.1581  0.8679
  274MOL0     C36047   6.220  11.038   5.514 -0.4899  0.0109  0.0655
  274MOL0     C36048   6.214  11.095   5.655  0.4665 -0.9012 -0.0890
  274MOL0     C36049   6.343  11.168   5.687 -0.5680 -0.0550  0.7921
  274MOL0     C36050   6.395  11.269   5.585  0.0580  0.0918  0.3587
  274MOL0     C36051   6.506  11.365   5.642 -1.0550  0.3252  0.4122
  274MOL0     C36052   6.646  11.308   5.641 -0.8858 -0.1503 -0.3479
  274MOL0     N36053   6.746  11.386   5.727 -1.3157 -0.2633  0.2195
  274MOL0     C36054   6.746  11.493   5.817  1.2040  0.3590 -0.4317
  274MOL0     C36055   6.867  11.501   5.860  0.0405 -0.0591  0.1193
  274MOL0     C36056   6.919  11.599   5.958  0.2069 -0.0869 -0.4927
  274MOL0     C36057   7.040  11.680   5.905 -0.4301 -0.3320 -0.3159
  274MOL0     C36058   7.177  11.614   5.884 -0.2061  0.4176 -0.3192
  274MOL0     C36059   7.240  11.554   6.016 -0.2193 -0.4187  0.4113
  274MOL0     O36060   7.270  11.660   6.107  0.4151 -0.3925  0.3766
  274MOL0     C36061   7.346  11.635   6.218 -0.0518  0.2509  0.4708
  274MOL0     C36062   7.370  11.500   6.269  0.1240 -0.6762  0.9283
  274MOL0     C36063   7.449  11.487   6.376  0.4709  0.9211 -1.1396
  274MOL0     C36064   7.498  11.590   6.458  0.5586 -0.7355  0.5688
  274MOL0     C36065   7.583  11.565   6.569  0.0176 -0.6495  0.7463
  274MOL0     O36066   7.604  11.434   6.608 -1.0133 -0.1634  0.1064
  274MOL0     C36067   7.694  11.413   6.708 -0.4961  0.0772  0.2372
  274MOL0     C36068   7.831  11.413   6.682  0.3536  0.0159  0.7402
  274MOL0     C36069   7.924  11.380   6.787 -0.1867  0.0301 -0.2530
  274MOL0     C36070   7.869  11.365   6.914 -0.1258 -1.1140 -0.3620
  274MOL0     O36071   7.961  11.336   7.015  0.9693 -0.2545  0.5377
  274MOL0     C36072   7.925  11.332   7.147  0.7333 -0.0827 -0.9199
  274MOL0     C36073   8.045  11.272   7.224 -0.8474 -0.3965  0.6897
  274MOL0     C36074   8.171  11.358   7.230  1.0056 -0.0555  0.0844
  274MOL0     C36075   8.281  11.281   7.299  0.7506 -1.3035 -0.1908
  274MOL0     C36076   8.376  11.365   7.384  0.1608 -0.6283 -0.4696
  274MOL0     C36077   8.402  11.316   7.520  0.2889 -0.1481  0.0725
  274MOL0     C36078   8.443  11.171   7.517 -0.3869 -0.1142 -0.3855
  274MOL0     C36079   8.578  11.141   7.431  0.5680 -0.1781 -0.5795
  274MOL0    Cl36080   8.715  11.245   7.473  0.0974 -0.1906  0.1070
  274MOL0     C36081   7.729  11.365   6.930 -1.1039  0.2893  0.4067
  274MOL0     C36082   7.638  11.379   6.832 -0.5303 -0.5941 -0.7236
  274MOL0     O36083   7.636  11.666   6.625  0.2946  0.8123 -0.9889
  274MOL0     C36084   7.459  11.720   6.416 -0.7571  0.0857  0.8135
  274MOL0     C36085   7.390  11.738   6.298  0.1209 -0.2181 -0.3569
  274MOL0     N36086   6.941  11.391   5.821 -0.1919 -0.2901  0.1693
  274MOL0     N36087   6.867  11.325   5.742  0.4422  0.7406 -0.5564
  274MOL0     C36088   6.408  11.104   5.055 -0.5246 -0.1892  0.0430
  274MOL0     C36089   6.460  11.110   4.926  0.7385 -0.2308  0.2358
  274MOL0     C36090   6.680  11.057   4.533  0.1209  0.0176 -0.2841
  274MOL0     C36091   6.790  11.131   4.486  0.1954  0.0179  0.3798
  274MOL0     C36092   6.812  11.143   4.350  0.4039  0.4301 -0.0468
  274MOL0     C36093   6.730  11.084   4.251 -0.0246  0.5863  0.1805
  274MOL0     O36094   6.745  11.079   4.110  0.2263  0.0502 -0.0638
  274MOL0     C36095   6.805  11.195   4.050  0.1596 -0.3013 -0.2712
  274MOL0     C36096   6.850  11.159   3.916 -0.3076  0.0849  0.1571
  274MOL0     C36097   6.739  11.142   3.808 -0.0719 -0.3231  1.1195
  274MOL0     C36098   6.793  11.127   3.660 -0.4338  0.1270 -0.6305
  274MOL0     C36099   6.872  11.003   3.642  0.2481 -0.8895  0.3402
  274MOL0     C36100   6.938  10.895   3.650 -0.6336 -0.5913  0.2460
  274MOL0     C36101   6.624  11.003   4.298  0.0706  0.1353 -0.4675
  274MOL0     C36102   6.599  10.987   4.441 -0.2802  0.1796  0.3898
  274MOL0     H36103   6.516  10.798   4.872  1.1850  1.2510 -0.0834
  274MOL0     H36104   6.424  10.762   5.087 -2.7600 -0.5208 -2.5978
  274MOL0     H36105   6.403  10.810   5.320 -0.4055  1.8807  0.0332
  274MOL0     H36106   6.238  10.833   5.300  0.4837  0.5109 -2.5414
  274MOL0     H36107   6.425  10.947   5.529  1.3886 -0.6868 -1.7423
  274MOL0     H36108   6.300  10.834   5.548 -1.6514 -0.2380  0.0037
  274MOL0     H36109   6.128  10.983   5.494 -0.4823  0.3075 -0.8117
  274MOL0     H36110   6.233  11.117   5.440 -2.4551 -1.3148 -1.8068
  274MOL0     H36111   6.129  11.160   5.679  0.2224 -1.3401  0.2485
  274MOL0     H36112   6.194  11.019   5.731 -0.7768 -2.5335 -1.9393
  274MOL0     H36113   6.427  11.099   5.693 -0.1159  0.4323  0.2012
  274MOL0     H36114   6.339  11.225   5.780  1.9690 -0.2860  1.1135
  274MOL0     H36115   6.317  11.339   5.555  1.1888  0.1567 -2.7289
  274MOL0     H36116   6.425  11.221   5.492 -1.2760  0.4432 -0.2765
  274MOL0     H36117   6.499  11.460   5.590  0.6998 -0.0897 -0.6646
  274MOL0     H36118   6.475  11.399   5.742  2.2097  2.9646  0.7134
  274MOL0     H36119   6.674  11.308   5.535 -0.4978 -0.5635 -0.2429
  274MOL0     H36120   6.651  11.206   5.680 -0.5728 -0.0022  0.0026
  274MOL0     H36121   6.655  11.549   5.839  1.2280  1.1503 -2.1604
  274MOL0     H36122   6.938  11.540   6.048  1.3122  0.9703 -0.0046
  274MOL0     H36123   6.842  11.670   5.989  1.0838  1.2126 -1.1934
  274MOL0     H36124   7.070  11.757   5.976  2.3369 -1.4309 -0.1520
  274MOL0     H36125   7.010  11.733   5.813 -1.0273 -0.6376 -0.3011
  274MOL0     H36126   7.170  11.540   5.803  2.6862 -2.3449  1.6909
  274MOL0     H36127   7.255  11.687   5.861  0.7975 -0.2280  0.9606
  274MOL0     H36128   7.328  11.500   5.982  0.3943  1.7813 -1.7954
  274MOL0     H36129   7.159  11.497   6.063 -1.5026 -0.2839 -1.5403
  274MOL0     H36130   7.332  11.413   6.217  0.2409  0.8451 -1.9554
  274MOL0     H36131   7.452  11.384   6.409 -3.1379  0.2807 -2.3538
  274MOL0     H36132   7.860  11.432   6.579 -2.2531 -1.0384 -0.2998
  274MOL0     H36133   8.032  11.372   6.775 -0.0745  1.3220 -0.2344
  274MOL0     H36134   7.837  11.269   7.163 -0.2539  0.8258 -2.4756
  274MOL0     H36135   7.908  11.435   7.179  0.1724 -0.2725 -0.6043
  274MOL0     H36136   8.078  11.173   7.190  4.3285  0.3835  2.4350
  274MOL0     H36137   8.008  11.268   7.327  0.7460  1.2035  1.3778
  274MOL0     H36138   8.138  11.447   7.286  0.1243 -1.8481  2.6065
  274MOL0     H36139   8.197  11.398   7.131  3.7341 -0.4195  0.5788
  274MOL0     H36140   8.232  11.206   7.362 -1.6695  0.8442  0.6671
  274MOL0     H36141   8.325  11.221   7.219  1.2800  0.3976 -1.2232
  274MOL0     H36142   8.339  11.466   7.400  0.3682 -0.2898 -1.9922
  274MOL0     H36143   8.461  11.373   7.316  1.1875  3.0779  1.0278
  274MOL0     H36144   8.308  11.340   7.570 -0.4246 -0.0640 -1.2609
  274MOL0     H36145   8.480  11.372   7.573 -2.3215  3.9145  0.0860
  274MOL0     H36146   8.452  11.136   7.620  0.1399  2.0678  0.3702
  274MOL0     H36147   8.369  11.103   7.475  1.7828 -1.9010 -1.5256
  274MOL0     H36148   8.550  11.142   7.325  0.9339  0.6356 -0.6834
  274MOL0     H36149   8.598  11.037   7.457  1.3970  0.6012  2.2949
  274MOL0     H36150   7.701  11.348   7.034  3.1568  0.4011  1.7814
  274MOL0     H36151   7.533  11.382   6.857 -0.7337 -0.5607 -1.5592
  274MOL0     H36152   7.493  11.806   6.473 -0.0605  1.1557 -1.1147
  274MOL0     H36153   7.359  11.840   6.276 -0.1777 -0.3475 -0.5388
  274MOL0     H36154   6.374  11.197   5.099 -1.7314 -0.3918 -0.3947
  274MOL0     H36155   6.459  11.202   4.868  1.3424 -1.2102 -1.4067
  274MOL0     H36156   6.854  11.184   4.556  1.8534 -1.9883  0.4605
  274MOL0     H36157   6.909  11.186   4.328  0.5972  0.4664  0.8358
  274MOL0     H36158   6.876  11.252   4.111 -0.9327  0.6360  0.1447
  274MOL0     H36159   6.722  11.264   4.031  1.8614  1.4764 -1.8270
  274MOL0     H36160   6.928  11.230   3.887 -0.6484  0.0323 -0.9014
  274MOL0     H36161   6.891  11.058   3.908 -0.7401 -0.0428 -0.5159
  274MOL0     H36162   6.681  11.234   3.802 -0.8643 -0.9109 -1.5790
  274MOL0     H36163   6.675  11.061   3.844 -2.7424  3.2223  5.3996
  274MOL0     H36164   6.713  11.116   3.586  0.1625 -0.5774 -1.1967
  274MOL0     H36165   6.849  11.218   3.634  1.3603 -1.1392 -1.4595
  274MOL0     H36166   7.000  10.808   3.665  0.2153 -0.3795 -1.7270
  274MOL0     H36167   6.565  10.935   4.237 -0.4598 -1.0811  1.3141
  274MOL0     H36168   6.518  10.917   4.461  1.4088 -1.2913  2.7327
  275MOL0     O36169  10.764   1.718   7.466 -0.9835  0.1637  0.1460
  275MOL0     C36170  10.700   1.821   7.484  0.3076  1.0462 -0.5783
  275MOL0     O36171  10.676   1.879   7.609  0.2074  0.1481  0.2734
  275MOL0     C36172  10.743   1.852   7.724 -0.9583  0.1125  0.8622
  275MOL0     C36173  10.846   1.757   7.736  0.5207 -0.4079  0.0883
  275MOL0     C36174  10.928   1.736   7.838 -0.4646  0.5607 -0.3139
  275MOL0     C36175  10.910   1.810   7.956 -0.3753 -0.9086  0.1101
  275MOL0     O36176  10.990   1.776   8.064 -0.1221 -0.0582  0.4009
  275MOL0     C36177  10.983   1.857   8.177  0.6356 -0.0699  0.0519
  275MOL0     C36178  11.112   1.850   8.266  0.5844  0.5563 -1.2693
  275MOL0     C36179  11.229   1.903   8.192 -0.5591 -0.6368  0.3399
  275MOL0     C36180  11.333   1.947   8.295 -0.1458  0.6758  0.4357
  275MOL0     C36181  11.457   2.017   8.239 -0.7612  0.8992 -0.4272
  275MOL0     C36182  11.426   2.161   8.200  0.1943  0.2729 -0.0577
  275MOL0     C36183  11.542   2.254   8.167 -0.1608  0.0004  0.0967
  275MOL0     C36184  11.602   2.251   8.017  1.0310 -0.3641 -0.4695
  275MOL0     N36185  11.501   2.281   7.917 -0.4627  0.5984  0.1531
  275MOL0     C36186  11.518   2.388   7.828 -0.2427  0.1210  0.7392
  275MOL0     C36187  11.410   2.380   7.751  0.4390 -0.3816 -0.2785
  275MOL0     C36188  11.370   2.484   7.649  0.4203  0.3391  1.1502
  275MOL0     C36189  11.265   2.580   7.680  0.3517 -0.0647 -0.5770
  275MOL0     C36190  11.314   2.706   7.763  0.8075 -0.3908 -0.0415
  275MOL0     C36191  11.203   2.806   7.800  0.1572 -0.5598  0.6135
  275MOL0     O36192  11.160   2.852   7.665  0.6528 -0.0566 -0.2353
  275MOL0     C36193  11.053   2.939   7.657 -1.0539  1.4538  0.1288
  275MOL0     C36194  10.925   2.904   7.710 -0.7088 -0.6464 -1.2030
  275MOL0     C36195  10.811   2.985   7.687  0.9391 -0.1121  0.8213
  275MOL0     C36196  10.820   3.101   7.604  0.4059 -1.4755 -0.7321
  275MOL0     C36197  10.702   3.180   7.566 -0.6679 -0.8879 -0.0782
  275MOL0     O36198  10.726   3.284   7.478  0.5843  0.5234  0.0121
  275MOL0     C36199  10.644   3.383   7.454  0.0557 -0.6550  0.0289
  275MOL0     C36200  10.653   3.432   7.326  0.0034  0.7111 -1.5312
  275MOL0     C36201  10.580   3.545   7.291  0.8382  0.0684 -0.0170
  275MOL0     C36202  10.486   3.601   7.382 -0.7495  0.0170  0.4204
  275MOL0     O36203  10.435   3.718   7.333  0.0069  0.5006 -0.7103
  275MOL0     C36204  10.345   3.787   7.423 -0.7408 -0.0719 -1.0169
  275MOL0     C36205  10.307   3.903   7.346 -1.3961 -0.3151 -0.1252
  275MOL0     C36206  10.242   3.996   7.446 -0.2438  0.3081  0.2461
  275MOL0     C36207  10.170   4.102   7.375  0.0737  0.5684  0.5016
  275MOL0     C36208  10.118   4.200   7.477  0.1498  0.6972 -0.2641
  275MOL0     C36209  10.024   4.302   7.413  0.3808  0.6550  0.0251
  275MOL0     C36210  10.118   4.411   7.360  0.4404 -0.1313 -0.2588
  275MOL0     C36211  10.037   4.518   7.283 -0.4185 -1.0490  1.3646
  275MOL0    Cl36212  10.126   4.676   7.302 -0.2650 -0.0014 -0.0977
  275MOL0     C36213  10.477   3.549   7.504  0.8051  0.0371 -0.2054
  275MOL0     C36214  10.560   3.441   7.554  0.0407  0.5670 -0.5472
  275MOL0     O36215  10.593   3.156   7.612  0.7347  0.2030 -0.1658
  275MOL0     C36216  10.948   3.143   7.574 -0.6117  0.0853 -0.6861
  275MOL0     C36217  11.062   3.063   7.603  0.3054 -0.4245  0.2684
  275MOL0     N36218  11.331   2.263   7.783 -1.0836  0.7601 -0.0320
  275MOL0     N36219  11.388   2.208   7.889  0.1025 -1.2409  0.7383
  275MOL0     C36220  10.801   1.903   7.958  0.6805  0.4786  0.3279
  275MOL0     C36221  10.711   1.919   7.848 -0.4805  0.3808  0.2217
  275MOL0     C36222  10.620   1.879   7.373  0.5201  0.3894  0.4180
  275MOL0     C36223  10.561   2.011   7.380 -0.4895  0.2438  0.7023
  275MOL0     C36224  10.484   2.064   7.272 -0.3334 -0.1958 -0.2704
  275MOL0     C36225  10.469   1.988   7.155 -0.0472 -0.8014 -1.1868
  275MOL0     O36226  10.399   2.055   7.056 -0.3186 -0.8204 -0.5504
  275MOL0     C36227  10.417   2.005   6.922  1.1239 -0.1160 -0.2929
  275MOL0     C36228  10.399   2.126   6.830  0.1374 -0.5005 -0.8963
  275MOL0     C36229  10.341   2.109   6.682 -0.1240  0.1636 -0.0705
  275MOL0     C36230  10.189   2.075   6.671  0.9775 -0.8364  0.5466
  275MOL0     C36231  10.133   2.047   6.537  0.6954 -0.1816  1.0972
  275MOL0     C36232  10.088   1.998   6.434 -0.5967  0.1088 -0.1872
  275MOL0     C36233  10.524   1.858   7.155 -0.1026  0.5679  0.2376
  275MOL0     C36234  10.594   1.799   7.255 -1.3448  0.9390 -0.4256
  275MOL0     H36235  10.880   1.698   7.652  1.8625 -0.7474  0.8195
  275MOL0     H36236  11.010   1.664   7.839 -1.8874 -1.1442  1.2139
  275MOL0     H36237  10.893   1.820   8.228  2.9409 -0.2905  4.5269
  275MOL0     H36238  10.965   1.962   8.153  1.0844 -0.1546 -0.6870
  275MOL0     H36239  11.129   1.746   8.297 -0.3285  0.5814 -0.6473
  275MOL0     H36240  11.097   1.906   8.358  0.9589  0.8233 -1.3684
  275MOL0     H36241  11.202   1.979   8.118  1.5971  1.0410  1.1547
  275MOL0     H36242  11.275   1.824   8.133  0.9948  1.0943 -0.8896
  275MOL0     H36243  11.281   2.015   8.362 -0.7284  2.0310 -1.3087
  275MOL0     H36244  11.366   1.853   8.341  0.1139  0.8628  0.6274
  275MOL0     H36245  11.487   1.961   8.150 -2.3177  0.8496 -0.9415
  275MOL0     H36246  11.536   2.004   8.314  0.5209 -1.7064 -2.1073
  275MOL0     H36247  11.377   2.209   8.285 -0.1554  2.1646 -1.2607
  275MOL0     H36248  11.359   2.165   8.114 -0.7038  0.1345  0.6311
  275MOL0     H36249  11.507   2.356   8.182  0.2159  0.2986 -1.0098
  275MOL0     H36250  11.621   2.234   8.240 -1.8914 -2.0784  1.5346
  275MOL0     H36251  11.638   2.150   7.997  0.1495 -0.5721 -1.0179
  275MOL0     H36252  11.677   2.328   7.998 -0.0927  0.6830 -0.7740
  275MOL0     H36253  11.594   2.464   7.841 -0.1651  0.0895  0.4599
  275MOL0     H36254  11.336   2.434   7.558 -0.3354  1.9454  0.5175
  275MOL0     H36255  11.454   2.533   7.598 -0.5517  1.0827  0.2112
  275MOL0     H36256  11.192   2.532   7.745 -0.3609  3.1582  1.2182
  275MOL0     H36257  11.221   2.614   7.586  2.5561  1.3055 -1.2044
  275MOL0     H36258  11.354   2.667   7.857  1.0284 -1.3122 -0.5128
  275MOL0     H36259  11.381   2.765   7.700 -0.6448  0.9281 -0.4217
  275MOL0     H36260  11.248   2.888   7.857 -1.3513  0.3713  0.5264
  275MOL0     H36261  11.127   2.750   7.854 -2.0452  1.0068 -0.6787
  275MOL0     H36262  10.905   2.826   7.782 -3.1613  0.5619 -0.4760
  275MOL0     H36263  10.721   2.938   7.727  2.0830 -3.1720  0.0778
  275MOL0     H36264  10.709   3.369   7.258  0.4515 -0.5096 -0.0763
  275MOL0     H36265  10.602   3.587   7.194 -0.0830 -0.2052 -0.3525
  275MOL0     H36266  10.395   3.816   7.516 -2.2475 -0.6721  0.0240
  275MOL0     H36267  10.261   3.723   7.448 -0.0849 -0.2876  0.7629
  275MOL0     H36268  10.238   3.864   7.271 -2.6891  1.4695  0.0588
  275MOL0     H36269  10.393   3.955   7.304 -1.9154  1.5269  0.9788
  275MOL0     H36270  10.305   4.039   7.524 -0.0829  2.3701 -0.9697
  275MOL0     H36271  10.168   3.928   7.491  0.9422 -1.4526 -0.3386
  275MOL0     H36272  10.226   4.139   7.289  0.5695 -1.1696  0.0325
  275MOL0     H36273  10.078   4.057   7.336  0.0340 -0.7331  2.0227
  275MOL0     H36274  10.201   4.249   7.529  0.2157  1.1938 -0.8228
  275MOL0     H36275  10.053   4.140   7.541 -0.0243  1.4912  0.3051
  275MOL0     H36276   9.954   4.325   7.493  0.7731 -0.8061  0.8380
  275MOL0     H36277   9.961   4.252   7.339  0.6380  0.4490 -0.0550
  275MOL0     H36278  10.173   4.457   7.443  1.3841 -0.3457 -0.7578
  275MOL0     H36279  10.198   4.368   7.299 -0.1304 -1.4638 -0.1053
  275MOL0     H36280   9.943   4.530   7.337 -1.0328 -4.5471  1.2778
  275MOL0     H36281  10.020   4.491   7.178 -1.4037 -0.3989  1.3502
  275MOL0     H36282  10.399   3.571   7.576 -1.8529 -1.1263 -2.4947
  275MOL0     H36283  10.558   3.386   7.647  2.1580  1.0755 -0.1476
  275MOL0     H36284  10.976   3.230   7.515  4.8520 -2.8659 -3.2243
  275MOL0     H36285  11.161   3.092   7.568  0.7938 -0.5035  1.5195
  275MOL0     H36286  10.772   1.965   8.042  2.1755  1.5997  0.0566
  275MOL0     H36287  10.633   1.995   7.847 -1.5539 -0.5511  2.9898
  275MOL0     H36288  10.585   2.066   7.470 -1.2008 -0.7477  1.5259
  275MOL0     H36289  10.432   2.159   7.284 -1.0830 -0.8604  2.5920
  275MOL0     H36290  10.337   1.933   6.904  1.4780 -0.3612 -0.9160
  275MOL0     H36291  10.506   1.942   6.910 -0.2169 -1.7730 -1.9374
  275MOL0     H36292  10.339   2.195   6.890 -1.6031 -2.1772 -0.5873
  275MOL0     H36293  10.498   2.167   6.811 -0.3961  1.6092  0.4204
  275MOL0     H36294  10.393   2.028   6.631  1.5042 -0.2789  2.1873
  275MOL0     H36295  10.358   2.211   6.644  0.8659  1.3222  3.1675
  275MOL0     H36296  10.186   1.989   6.738 -1.3467 -2.6977 -1.7817
  275MOL0     H36297  10.131   2.156   6.716  2.1772  0.1941  0.3083
  275MOL0     H36298  10.024   1.977   6.350 -0.1497  1.0261 -0.7716
  275MOL0     H36299  10.486   1.794   7.076  0.6916 -0.7572  0.8836
  275MOL0     H36300  10.632   1.697   7.247 -2.7453  0.4527 -1.1635
  276MOL0     O36301   9.081   3.819   0.865 -0.8383 -0.8424 -0.1851
  276MOL0     C36302   8.960   3.831   0.837 -0.3659  0.7883  0.8522
  276MOL0     O36303   8.883   3.726   0.781  0.1598  0.3104  1.9865
  276MOL0     C36304   8.939   3.603   0.761 -0.1742  0.7829  0.2718
  276MOL0     C36305   9.014   3.567   0.646  0.0254  0.0202 -1.0124
  276MOL0     C36306   9.073   3.439   0.642 -0.1535  0.6000 -0.4719
  276MOL0     C36307   9.073   3.354   0.749 -0.0348 -1.2985  1.3272
  276MOL0     O36308   9.155   3.237   0.743  0.9846  0.0568 -0.5449
  276MOL0     C36309   9.104   3.117   0.816  0.3697  1.4921 -0.7931
  276MOL0     C36310   9.169   3.098   0.952  0.2718  0.8725  0.4167
  276MOL0     C36311   9.081   3.003   1.041  0.1670 -0.6663 -0.5180
  276MOL0     C36312   9.154   2.953   1.166  0.4238 -0.0261  0.0792
  276MOL0     C36313   9.066   2.854   1.235 -0.1618 -0.3856 -1.1730
  276MOL0     C36314   9.147   2.761   1.335  0.2654  0.9173  0.3419
  276MOL0     C36315   9.217   2.836   1.446 -0.4205 -1.2524 -0.1789
  276MOL0     C36316   9.275   2.748   1.563 -0.2502 -0.6233 -0.3797
  276MOL0     N36317   9.371   2.652   1.519 -0.4340  0.2833  0.6769
  276MOL0     C36318   9.407   2.529   1.586 -0.7928 -0.3382  0.5600
  276MOL0     C36319   9.526   2.501   1.534 -0.4103 -1.0894  0.1709
  276MOL0     C36320   9.620   2.387   1.567 -0.1470 -0.5580 -0.1037
  276MOL0     C36321   9.771   2.422   1.533  0.2582 -0.1477  0.1427
  276MOL0     C36322   9.888   2.325   1.584  0.7871 -0.5257  0.4960
  276MOL0     C36323   9.857   2.179   1.558  0.0528  0.1604 -0.0388
  276MOL0     O36324   9.761   2.116   1.651 -0.2195 -0.5046 -0.3933
  276MOL0     C36325   9.651   2.042   1.602 -0.0601 -0.1489  0.1717
  276MOL0     C36326   9.680   1.949   1.503 -0.1207  0.1720 -0.2999
  276MOL0     C36327   9.576   1.878   1.446 -0.1364  0.2990  0.5076
  276MOL0     C36328   9.445   1.879   1.489  0.0329  0.4070 -0.2872
  276MOL0     C36329   9.340   1.792   1.442  0.1697  0.3788 -0.1980
  276MOL0     O36330   9.373   1.695   1.354 -0.1799  0.2520  0.1310
  276MOL0     C36331   9.269   1.625   1.295 -0.3030 -1.3341 -0.0251
  276MOL0     C36332   9.195   1.671   1.185 -0.0117 -0.5922  0.6141
  276MOL0     C36333   9.116   1.585   1.110  0.5748  0.1088 -1.3187
  276MOL0     C36334   9.097   1.449   1.160 -1.4668  0.2541 -0.2262
  276MOL0     O36335   9.025   1.368   1.073 -0.3331  0.3401  0.2723
  276MOL0     C36336   9.014   1.233   1.116  0.8660  0.0111  0.1989
  276MOL0     C36337   8.947   1.153   0.994  0.2249  0.0847  0.4654
  276MOL0     C36338   8.965   1.003   0.976  0.1160  0.2000 -0.2112
  276MOL0     C36339   8.841   0.937   1.037  0.1605 -0.2473 -1.1285
  276MOL0     C36340   8.837   0.793   1.017  0.0512  0.2191  0.0818
  276MOL0     C36341   8.720   0.716   1.071 -0.9088  0.0101  0.3497
  276MOL0     C36342   8.713   0.560   1.045  1.0722  0.3561 -0.4646
  276MOL0     C36343   8.810   0.486   1.129  0.0543 -0.4063 -0.6261
  276MOL0    Cl36344   8.812   0.302   1.108 -0.2617 -0.1145 -0.0545
  276MOL0     C36345   9.168   1.401   1.270  0.7820  0.9663 -0.5532
  276MOL0     C36346   9.251   1.492   1.333 -0.7071  0.7710 -0.8067
  276MOL0     O36347   9.230   1.809   1.491 -0.4264 -0.0286  0.0669
  276MOL0     C36348   9.413   1.977   1.589 -1.2181  1.1263  0.1518
  276MOL0     C36349   9.519   2.055   1.652  0.2059 -0.2693  0.8592
  276MOL0     N36350   9.559   2.590   1.442 -1.1222 -1.0816  0.3640
  276MOL0     N36351   9.469   2.679   1.429 -0.1442 -0.4859  0.4022
  276MOL0     C36352   8.988   3.387   0.853  0.5768 -0.5770  0.4892
  276MOL0     C36353   8.924   3.510   0.864  1.1526  0.5795  0.2502
  276MOL0     C36354   8.887   3.966   0.861 -0.3247 -0.5583  1.0076
  276MOL0     C36355   8.962   4.077   0.893 -0.6119  0.2044  0.7699
  276MOL0     C36356   8.895   4.202   0.918  0.2720 -0.8109 -0.2094
  276MOL0     C36357   8.755   4.203   0.930  0.1614  1.0101 -0.1349
  276MOL0     O36358   8.687   4.310   0.970  0.0645 -0.2306  0.1778
  276MOL0     C36359   8.547   4.303   1.014 -1.4170 -0.1200 -0.9140
  276MOL0     C36360   8.524   4.436   1.094 -0.5529  0.4799 -0.2090
  276MOL0     C36361   8.523   4.558   0.995 -0.2304 -0.1167 -0.3349
  276MOL0     C36362   8.380   4.563   0.921  0.1041 -1.1035 -0.2653
  276MOL0     C36363   8.363   4.693   0.846  0.0566  1.1306 -0.4715
  276MOL0     C36364   8.329   4.797   0.800  0.1708 -0.5687 -0.3982
  276MOL0     C36365   8.684   4.084   0.906 -0.6207  1.0359 -0.8184
  276MOL0     C36366   8.750   3.972   0.858  0.0604 -0.6437  0.3526
  276MOL0     H36367   9.034   3.627   0.558  3.0236 -0.5401 -0.8143
  276MOL0     H36368   9.133   3.432   0.552 -0.0703 -1.7023 -0.3038
  276MOL0     H36369   9.124   3.031   0.751  0.4439  0.3746  0.6611
  276MOL0     H36370   8.997   3.125   0.836  0.4976  2.1179 -0.3153
  276MOL0     H36371   9.203   3.192   0.995  0.0666  1.9927 -1.7562
  276MOL0     H36372   9.266   3.047   0.938 -0.0222  0.5870 -0.7300
  276MOL0     H36373   9.056   2.913   0.984 -0.1669 -0.6253 -0.4370
  276MOL0     H36374   8.992   3.055   1.077  0.3806  1.3251 -2.6837
  276MOL0     H36375   9.239   2.903   1.119 -1.7814 -2.0398 -2.0814
  276MOL0     H36376   9.170   3.038   1.233 -2.2696  2.0644 -1.6851
  276MOL0     H36377   8.997   2.793   1.175 -4.0734  0.1475  2.2911
  276MOL0     H36378   9.006   2.919   1.300  0.6244 -0.4397 -0.3745
  276MOL0     H36379   9.219   2.705   1.274  2.8049  1.5782  2.5456
  276MOL0     H36380   9.081   2.689   1.385  0.0150  0.6391 -0.3768
  276MOL0     H36381   9.306   2.884   1.404  1.0141 -3.8738 -0.3529
  276MOL0     H36382   9.159   2.917   1.491  2.7466  1.2795 -0.2718
  276MOL0     H36383   9.191   2.700   1.614  0.9907  1.0534  3.5879
  276MOL0     H36384   9.335   2.817   1.623  0.7666 -0.7871 -1.1777
  276MOL0     H36385   9.350   2.480   1.663 -1.4088  0.5322  0.6733
  276MOL0     H36386   9.591   2.308   1.497 -1.6382 -0.5566  0.4897
  276MOL0     H36387   9.609   2.356   1.671  0.7283  1.2940  0.5788
  276MOL0     H36388   9.782   2.521   1.578 -1.9191  0.1320  0.1432
  276MOL0     H36389   9.791   2.429   1.425 -0.4463 -1.4799 -0.0976
  276MOL0     H36390   9.983   2.360   1.544  0.8174  0.3818  1.3031
  276MOL0     H36391   9.893   2.342   1.692  2.2051  2.2606  0.0632
  276MOL0     H36392   9.955   2.132   1.563 -0.5892 -1.4916 -1.8778
  276MOL0     H36393   9.821   2.170   1.456  2.9402  0.0858 -1.1351
  276MOL0     H36394   9.777   1.935   1.456 -0.4717  0.5218 -1.1395
  276MOL0     H36395   9.599   1.815   1.360  0.0968  2.8963 -1.4460
  276MOL0     H36396   9.222   1.774   1.164  0.9503 -1.0219 -0.3360
  276MOL0     H36397   9.058   1.624   1.027 -1.2003  5.2775  1.8835
  276MOL0     H36398   8.949   1.229   1.204 -1.8262  1.0890 -1.6145
  276MOL0     H36399   9.112   1.189   1.139 -1.2117 -3.2869  4.2525
  276MOL0     H36400   8.988   1.193   0.901  0.0555  3.5000  1.6882
  276MOL0     H36401   8.843   1.186   0.993  0.1088 -0.2647  0.6838
  276MOL0     H36402   9.050   0.970   1.037  1.1966 -0.3581 -1.9327
  276MOL0     H36403   8.989   0.988   0.870  0.2147 -1.4954  0.0317
  276MOL0     H36404   8.826   0.968   1.141  1.7013 -0.1125 -0.9202
  276MOL0     H36405   8.750   0.978   0.992  1.0425  4.2225  0.6099
  276MOL0     H36406   8.936   0.753   1.042  0.2266  2.3077  3.2663
  276MOL0     H36407   8.824   0.786   0.908  1.1115  2.6062 -0.2475
  276MOL0     H36408   8.635   0.758   1.016 -0.2514 -2.7848 -3.1172
  276MOL0     H36409   8.719   0.729   1.180  0.5408  1.3888  0.2453
  276MOL0     H36410   8.610   0.524   1.056  1.0197 -0.5784 -3.2813
  276MOL0     H36411   8.737   0.542   0.940  2.9528 -3.1786  0.3822
  276MOL0     H36412   8.814   0.510   1.236 -0.4568 -0.8167 -0.5085
  276MOL0     H36413   8.908   0.530   1.107  0.3183  0.0197  1.1997
  276MOL0     H36414   9.173   1.297   1.303 -0.5345  0.0744 -2.9036
  276MOL0     H36415   9.318   1.460   1.412 -0.0213  1.2557 -1.1828
  276MOL0     H36416   9.313   1.976   1.632 -1.5315 -0.3237 -0.5417
  276MOL0     H36417   9.489   2.128   1.727  0.6857 -1.1843  1.9798
  276MOL0     H36418   8.986   3.311   0.931 -2.3672  0.2576  1.3670
  276MOL0     H36419   8.887   3.542   0.961  4.1993 -1.9995  2.4618
  276MOL0     H36420   9.070   4.073   0.892 -0.6552 -1.8801  0.2634
  276MOL0     H36421   8.945   4.295   0.942 -0.6354 -0.5807  0.8323
  276MOL0     H36422   8.531   4.224   1.088 -0.1165 -1.9726 -2.5167
  276MOL0     H36423   8.481   4.301   0.927 -0.8233  2.4942 -1.5192
  276MOL0     H36424   8.429   4.423   1.148 -0.0910 -2.2568  0.1333
  276MOL0     H36425   8.595   4.449   1.176 -1.3096  0.6911  0.4361
  276MOL0     H36426   8.610   4.547   0.930 -1.1254  0.4677 -1.6798
  276MOL0     H36427   8.559   4.656   1.030  1.7136  0.1387 -2.7991
  276MOL0     H36428   8.381   4.483   0.846  0.9997  0.2347 -1.7517
  276MOL0     H36429   8.302   4.545   0.996 -1.1723  3.6331 -0.1262
  276MOL0     H36430   8.290   4.883   0.749  0.0205 -1.3242 -1.5681
  276MOL0     H36431   8.576   4.072   0.916 -0.5459  1.9901  1.8059
  276MOL0     H36432   8.686   3.889   0.829  2.2502 -2.1921 -0.3009
  277MOL0     O36433   1.385   5.846  10.455 -0.5971  0.8966  0.2268
  277MOL0     C36434   1.420   5.756  10.371 -0.2851  0.5066  0.1885
  277MOL0     O36435   1.443   5.765  10.236  0.9438  0.6147  0.1487
  277MOL0     C36436   1.471   5.881  10.177  0.5264  0.3296 -0.2005
  277MOL0     C36437   1.464   5.888  10.038  1.5058 -0.0807  0.0539
  277MOL0     C36438   1.499   6.009   9.973 -0.4741  0.3647  0.7707
  277MOL0     C36439   1.540   6.132  10.044 -0.1818  1.0673  0.0876
  277MOL0     O36440   1.582   6.237   9.976 -0.0874  0.0686  0.8924
  277MOL0     C36441   1.601   6.362  10.044  1.0521 -0.1892 -0.6603
  277MOL0     C36442   1.650   6.481   9.950 -0.5218  0.2456 -0.3412
  277MOL0     C36443   1.794   6.445   9.904 -0.1122  0.3370  1.3794
  277MOL0     C36444   1.877   6.564   9.864 -0.0957  0.0488 -0.1817
  277MOL0     C36445   1.923   6.669   9.977 -0.1649 -0.1134 -0.4778
  277MOL0     C36446   1.878   6.797   9.931  0.1978 -0.8067  0.1854
  277MOL0     C36447   1.904   6.904  10.044  0.1871 -0.4883  0.5635
  277MOL0     C36448   1.882   7.044   9.987 -1.0886 -0.1523 -0.0255
  277MOL0     N36449   1.918   7.156  10.075 -0.9094  0.0022  0.2036
  277MOL0     C36450   2.043   7.198  10.109 -0.6035 -0.3879 -0.9867
  277MOL0     C36451   2.030   7.328  10.164 -1.0594  0.6843  0.2255
  277MOL0     C36452   2.133   7.416  10.227 -0.0099 -0.3912  0.2967
  277MOL0     C36453   2.196   7.532  10.140  0.4784 -0.4369 -0.3263
  277MOL0     C36454   2.084   7.623  10.097  0.7438 -1.2337 -0.0837
  277MOL0     C36455   2.140   7.763  10.049 -0.5887 -0.2097 -0.4978
  277MOL0     O36456   2.245   7.733   9.955 -0.0798 -0.6179  0.6590
  277MOL0     C36457   2.262   7.826   9.848  0.1064  0.3918 -0.2197
  277MOL0     C36458   2.320   7.777   9.730  0.2556  0.5803 -0.9172
  277MOL0     C36459   2.361   7.861   9.629 -0.2562 -0.4637 -0.9112
  277MOL0     C36460   2.331   8.000   9.628 -0.6203 -0.7164  0.1329
  277MOL0     C36461   2.361   8.097   9.521 -1.1033  0.5004 -0.0088
  277MOL0     O36462   2.271   8.205   9.517 -0.7225  0.3689 -0.2516
  277MOL0     C36463   2.298   8.307   9.425 -0.5340 -0.8996  0.2988
  277MOL0     C36464   2.306   8.437   9.479 -0.0477 -1.0864 -0.4070
  277MOL0     C36465   2.345   8.537   9.390 -0.6047 -0.4681 -0.5542
  277MOL0     C36466   2.382   8.510   9.252  0.0308 -0.7006  0.5172
  277MOL0     O36467   2.423   8.602   9.152  0.1930 -0.0483 -0.2149
  277MOL0     C36468   2.514   8.710   9.189  0.3808 -0.5011  0.9608
  277MOL0     C36469   2.476   8.846   9.134 -0.2337  0.4408 -0.2748
  277MOL0     C36470   2.597   8.945   9.147  0.5119  0.0037  0.5402
  277MOL0     C36471   2.692   8.953   9.027  0.9890  0.4423 -0.1429
  277MOL0     C36472   2.727   9.096   9.013 -0.1472 -0.3571  0.3391
  277MOL0     C36473   2.861   9.113   8.919  0.3045 -0.2963 -0.1603
  277MOL0     C36474   2.893   9.261   8.890  0.4936 -0.1423  0.6192
  277MOL0     C36475   2.962   9.337   9.007  0.2117 -0.5808  0.0179
  277MOL0    Cl36476   3.115   9.262   9.050  0.2862  0.3594  0.1936
  277MOL0     C36477   2.372   8.377   9.206  0.1683  0.2564  0.0698
  277MOL0     C36478   2.330   8.282   9.291  0.1021 -0.1810  0.5514
  277MOL0     O36479   2.473   8.086   9.465 -0.1767 -0.3915  0.0727
  277MOL0     C36480   2.251   8.047   9.732  0.0512  0.2044 -0.1042
  277MOL0     C36481   2.227   7.961   9.842 -0.4967  0.0195 -0.4600
  277MOL0     N36482   1.893   7.355  10.166  0.1674 -0.5863 -0.9258
  277MOL0     N36483   1.830   7.257  10.096 -0.7030 -0.5511 -0.0491
  277MOL0     C36484   1.539   6.119  10.183 -1.0403  0.0021 -0.4256
  277MOL0     C36485   1.510   6.003  10.246 -0.0656  0.5473  0.5420
  277MOL0     C36486   1.443   5.625  10.427 -0.4931  0.4812 -1.2555
  277MOL0     C36487   1.475   5.618  10.568  0.8366  0.3963 -0.1161
  277MOL0     C36488   1.479   5.497  10.632 -0.9513 -0.4492 -0.3573
  277MOL0     C36489   1.480   5.380  10.563 -0.0444  1.2172  0.3245
  277MOL0     O36490   1.518   5.268  10.632  0.3154  0.5422  0.3679
  277MOL0     C36491   1.525   5.140  10.560  0.6219 -0.1139 -0.5642
  277MOL0     C36492   1.619   5.060  10.656  0.5870  0.3616  0.0676
  277MOL0     C36493   1.599   4.914  10.619 -0.1316  0.3986 -0.1735
  277MOL0     C36494   1.675   4.819  10.713  0.3644 -0.0656  0.3435
  277MOL0     C36495   1.584   4.802  10.829 -0.2907  0.3403  0.4460
  277MOL0     C36496   1.517   4.780  10.923  0.5143 -0.1523  0.1776
  277MOL0     C36497   1.465   5.379  10.421 -0.6015 -0.0966  0.0456
  277MOL0     C36498   1.443   5.504  10.360 -0.1251 -0.2219  0.5427
  277MOL0     H36499   1.425   5.813   9.970 -0.0568  2.7354 -2.3993
  277MOL0     H36500   1.485   6.022   9.867 -2.0843 -0.7239  0.8082
  277MOL0     H36501   1.667   6.351  10.130  3.9975 -2.2136 -2.9700
  277MOL0     H36502   1.498   6.380  10.075  1.3193 -0.2560  0.2855
  277MOL0     H36503   1.641   6.576  10.004 -0.5946  1.0457 -1.7236
  277MOL0     H36504   1.586   6.477   9.862  0.4141  0.5524 -1.0561
  277MOL0     H36505   1.785   6.372   9.823 -2.5512 -0.7399  2.5141
  277MOL0     H36506   1.847   6.408   9.992 -2.6611  1.6075  3.6116
  277MOL0     H36507   1.968   6.521   9.820 -0.5270  0.7618 -1.8451
  277MOL0     H36508   1.822   6.612   9.783 -2.1500 -1.2377  0.3845
  277MOL0     H36509   2.030   6.662   9.998 -0.5177 -2.1331  0.9051
  277MOL0     H36510   1.869   6.645  10.069  1.4652  0.4598  0.6745
  277MOL0     H36511   1.770   6.786   9.914  0.1038  2.6634 -2.6013
  277MOL0     H36512   1.928   6.816   9.836 -2.2676 -2.3530 -1.5362
  277MOL0     H36513   1.845   6.884  10.134 -0.1258  2.5150  1.1418
  277MOL0     H36514   2.009   6.915  10.072  1.2652 -2.7678 -2.1718
  277MOL0     H36515   1.782   7.055   9.944 -1.9547 -0.9531  1.7208
  277MOL0     H36516   1.959   7.052   9.909  0.6949  2.4004  1.8026
  277MOL0     H36517   2.139   7.153  10.082  1.7139  3.6371 -0.2271
  277MOL0     H36518   2.212   7.361  10.277  0.7822  3.5715  4.0357
  277MOL0     H36519   2.083   7.459  10.315  1.1578 -2.2335  1.9312
  277MOL0     H36520   2.248   7.482  10.058 -1.9701 -2.1796 -0.9245
  277MOL0     H36521   2.262   7.595  10.201  2.0041  0.5179 -2.8261
  277MOL0     H36522   2.025   7.580  10.016 -2.1375  3.3565 -0.8186
  277MOL0     H36523   2.015   7.637  10.181  1.8238  1.3312  0.4989
  277MOL0     H36524   2.173   7.821  10.135  1.2778 -0.9583 -0.6774
  277MOL0     H36525   2.066   7.820   9.991  0.5160  3.5533  1.4861
  277MOL0     H36526   2.341   7.670   9.736  4.1209  1.2844  1.5925
  277MOL0     H36527   2.414   7.824   9.542 -1.0289 -0.2747 -1.4703
  277MOL0     H36528   2.295   8.465   9.584  0.1660  2.3218 -1.1673
  277MOL0     H36529   2.355   8.637   9.431  1.1446 -1.4420  1.5865
  277MOL0     H36530   2.612   8.690   9.146  0.3748  3.1554 -1.1311
  277MOL0     H36531   2.530   8.712   9.298  1.0243  0.4666  0.8627
  277MOL0     H36532   2.388   8.882   9.189  0.0086  0.5562  0.0405
  277MOL0     H36533   2.448   8.842   9.029 -1.4806  5.0095 -0.3294
  277MOL0     H36534   2.646   8.922   9.242 -2.3271  0.5574  2.2992
  277MOL0     H36535   2.543   9.039   9.164 -1.8655 -1.3107  0.7137
  277MOL0     H36536   2.781   8.892   9.049 -1.0357 -2.1691  1.3725
  277MOL0     H36537   2.647   8.906   8.939  0.1799 -0.6139  0.8025
  277MOL0     H36538   2.764   9.149   9.102  0.6764  2.6358 -1.6150
  277MOL0     H36539   2.648   9.155   8.967  0.7974 -0.3508 -1.3588
  277MOL0     H36540   2.837   9.071   8.821  0.4631  4.9635 -2.8396
  277MOL0     H36541   2.943   9.056   8.964  0.0917  1.2052  2.3035
  277MOL0     H36542   2.958   9.254   8.801  0.1577 -2.3981  0.4769
  277MOL0     H36543   2.809   9.320   8.853  3.4134  3.6843 -0.5288
  277MOL0     H36544   2.894   9.330   9.092  2.0819 -0.3193  1.5979
  277MOL0     H36545   2.970   9.439   8.970 -1.8845  0.0386  1.1052
  277MOL0     H36546   2.407   8.356   9.105  1.9127  3.2113 -0.0389
  277MOL0     H36547   2.337   8.181   9.252 -0.1069  0.7698 -2.1983
  277MOL0     H36548   2.205   8.145   9.734  0.0615  0.2115 -0.1689
  277MOL0     H36549   2.175   7.993   9.932  3.7296 -0.4083  2.4134
  277MOL0     H36550   1.564   6.203  10.247  2.2156 -3.5778  3.6209
  277MOL0     H36551   1.499   6.015  10.353  0.1085  0.3995  0.5746
  277MOL0     H36552   1.475   5.712  10.623 -2.2191  0.3487  0.1165
  277MOL0     H36553   1.511   5.498  10.735  0.3238  1.5575 -0.7200
  277MOL0     H36554   1.565   5.131  10.459  0.4356 -3.0208 -0.4664
  277MOL0     H36555   1.423   5.101  10.569  0.6575 -0.1726 -0.3940
  277MOL0     H36556   1.721   5.096  10.640 -0.2317  2.7610 -0.2051
  277MOL0     H36557   1.593   5.079  10.761 -0.2984 -0.3874 -0.0017
  277MOL0     H36558   1.666   4.919  10.533  2.9307  2.4639  2.1069
  277MOL0     H36559   1.497   4.881  10.596  0.4946 -2.1941  0.4680
  277MOL0     H36560   1.685   4.725  10.659 -1.2051 -0.6315  0.9633
  277MOL0     H36561   1.777   4.852  10.733  0.0152  0.4080  1.4210
  277MOL0     H36562   1.461   4.755  11.011  0.0303 -1.4470 -0.4812
  277MOL0     H36563   1.443   5.288  10.366 -1.1570  0.0269  0.0575
  277MOL0     H36564   1.423   5.503  10.253  3.2621 -1.1569 -0.2137
  278MOL0     O36565   0.278   5.341   8.621  0.1204 -0.1404  0.9682
  278MOL0     C36566   0.276   5.316   8.736 -0.2003 -0.1258  0.4919
  278MOL0     O36567   0.372   5.334   8.824  0.4929 -0.0917 -0.6176
  278MOL0     C36568   0.477   5.422   8.811 -0.2829  0.2559 -0.5470
  278MOL0     C36569   0.594   5.363   8.793  0.2043  0.4253 -0.1871
  278MOL0     C36570   0.714   5.429   8.816 -1.0634 -0.4476  0.8520
  278MOL0     C36571   0.719   5.574   8.818 -0.0206  0.3723 -0.1186
  278MOL0     O36572   0.837   5.644   8.829  0.5201 -0.7065 -0.3477
  278MOL0     C36573   0.963   5.585   8.840  0.2206  0.7608  0.0573
  278MOL0     C36574   1.000   5.570   8.991  0.4269 -0.6081 -0.0247
  278MOL0     C36575   0.970   5.694   9.080  0.3133 -0.2603  0.3101
  278MOL0     C36576   1.071   5.804   9.050  0.4001  0.1453 -0.1715
  278MOL0     C36577   1.137   5.856   9.181  0.5895  0.8175 -0.3394
  278MOL0     C36578   1.210   5.983   9.150 -0.3259 -0.0710 -0.5719
  278MOL0     C36579   1.291   6.057   9.255  0.4226 -0.4177  0.2130
  278MOL0     C36580   1.192   6.089   9.377 -0.9529  1.1020 -1.5471
  278MOL0     N36581   1.069   6.143   9.329  0.2131  0.2051  1.0790
  278MOL0     C36582   1.061   6.276   9.294 -0.3232 -0.6358 -0.7562
  278MOL0     C36583   0.937   6.288   9.232  0.1341 -0.2745  0.3513
  278MOL0     C36584   0.878   6.394   9.139  0.0549  0.2803 -0.0385
  278MOL0     C36585   0.815   6.507   9.218  0.1718 -0.6854  0.7821
  278MOL0     C36586   0.670   6.489   9.237  0.1824  0.4545  0.6873
  278MOL0     C36587   0.591   6.613   9.294  0.3076  0.2408 -1.0111
  278MOL0     O36588   0.624   6.737   9.226  0.0411  0.4696 -0.0381
  278MOL0     C36589   0.544   6.847   9.249  1.2224  0.3074 -0.2996
  278MOL0     C36590   0.433   6.855   9.337 -0.4781  0.3506 -0.3836
  278MOL0     C36591   0.365   6.983   9.343  0.0201 -0.9754 -0.0652
  278MOL0     C36592   0.407   7.094   9.271  0.0209  0.4996  0.1289
  278MOL0     C36593   0.335   7.220   9.277 -0.4715 -1.0530 -0.2605
  278MOL0     O36594   0.209   7.214   9.319  0.5454  0.3319  0.5157
  278MOL0     C36595   0.141   7.334   9.336  0.2849 -0.2369  0.4800
  278MOL0     C36596   0.032   7.353   9.255  0.4067  0.5076 -0.9264
  278MOL0     C36597  -0.028   7.480   9.247  0.4060 -0.5262 -0.0069
  278MOL0     C36598   0.011   7.584   9.332  0.1213 -0.3587  0.1198
  278MOL0     O36599  -0.054   7.709   9.331  0.9326 -1.2832  0.0683
  278MOL0     C36600  -0.112   7.744   9.459 -0.3602 -0.1859 -0.1843
  278MOL0     C36601  -0.226   7.851   9.449  0.2723  0.0833  0.6676
  278MOL0     C36602  -0.215   7.952   9.557 -0.4975 -0.4884  0.0710
  278MOL0     C36603  -0.319   8.064   9.561 -0.1318  0.1002 -1.4177
  278MOL0     C36604  -0.318   8.130   9.707  0.0089 -0.3314 -0.3091
  278MOL0     C36605  -0.367   8.044   9.820  0.5552  0.1008  0.1657
  278MOL0     C36606  -0.420   8.128   9.935  0.2599  0.1268  0.2372
  278MOL0     C36607  -0.309   8.208  10.006 -0.3667  0.3165  0.0866
  278MOL0    Cl36608  -0.378   8.321  10.120  0.4652  0.3529 -0.5690
  278MOL0     C36609   0.119   7.566   9.420 -0.3856 -0.1914 -0.7248
  278MOL0     C36610   0.183   7.437   9.413  0.4962 -0.0140 -0.0662
  278MOL0     O36611   0.395   7.321   9.226 -0.4623 -0.0670 -0.2000
  278MOL0     C36612   0.515   7.081   9.189  0.0261 -0.2129 -0.5516
  278MOL0     C36613   0.586   6.958   9.172  0.3080  0.5376 -0.3221
  278MOL0     N36614   0.863   6.174   9.272 -0.1063 -0.0037  0.2538
  278MOL0     N36615   0.950   6.088   9.321  0.2598  0.2905 -0.0084
  278MOL0     C36616   0.599   5.638   8.796  0.1014  0.0037 -0.3858
  278MOL0     C36617   0.477   5.563   8.798 -0.2195  0.0634 -0.0165
  278MOL0     C36618   0.152   5.247   8.788 -0.0191 -0.4347 -0.3016
  278MOL0     C36619   0.157   5.157   8.891 -0.1770 -0.2860 -0.4505
  278MOL0     C36620   0.043   5.077   8.928 -0.0748 -0.3636  0.2631
  278MOL0     C36621  -0.076   5.101   8.852 -0.3043 -0.3488 -0.5825
  278MOL0     O36622  -0.180   5.027   8.897  0.1751  0.3074  0.1606
  278MOL0     C36623  -0.282   5.081   8.990 -0.4643  0.1193 -0.4539
  278MOL0     C36624  -0.405   4.990   8.965 -0.8217  0.0745 -0.0215
  278MOL0     C36625  -0.510   5.042   8.860  0.9781  0.3183  0.2490
  278MOL0     C36626  -0.616   4.946   8.845  0.5130 -0.5130  0.1665
  278MOL0     C36627  -0.744   5.008   8.791 -0.3569 -0.5558 -0.4311
  278MOL0     C36628  -0.844   5.057   8.746  0.4084  0.2289 -0.5661
  278MOL0     C36629  -0.079   5.191   8.741  0.0999  0.5877 -1.2653
  278MOL0     C36630   0.032   5.265   8.715  0.5213  0.9444 -0.0284
  278MOL0     H36631   0.596   5.255   8.780  0.2587  0.1380  1.9399
  278MOL0     H36632   0.808   5.375   8.825 -0.3593  0.8025  1.1307
  278MOL0     H36633   1.033   5.655   8.793 -0.7107  1.0748 -0.8982
  278MOL0     H36634   0.967   5.491   8.784 -1.8047  1.6153 -1.6500
  278MOL0     H36635   1.105   5.542   9.005 -0.3698 -2.9156  2.0126
  278MOL0     H36636   0.944   5.481   9.022  0.9100 -1.3718 -1.2852
  278MOL0     H36637   0.986   5.665   9.184  1.8569 -2.1496 -0.3879
  278MOL0     H36638   0.866   5.724   9.064  0.9799  1.0489 -2.0887
  278MOL0     H36639   1.145   5.765   8.980 -1.1464 -4.4275  0.3378
  278MOL0     H36640   1.019   5.876   8.986 -0.5611 -1.1333 -0.8810
  278MOL0     H36641   1.209   5.787   9.227 -2.3847 -1.8438  0.6633
  278MOL0     H36642   1.068   5.881   9.262  1.3136  1.1736  0.1855
  278MOL0     H36643   1.142   6.059   9.109  0.1837  2.3523  2.6564
  278MOL0     H36644   1.289   5.960   9.078  2.2487  0.4115  1.9227
  278MOL0     H36645   1.384   6.006   9.280  1.1325  0.3419 -0.7908
  278MOL0     H36646   1.333   6.155   9.230  1.6837 -0.8010  0.7639
  278MOL0     H36647   1.240   6.160   9.446 -1.1790 -0.2366  0.0617
  278MOL0     H36648   1.181   5.994   9.431  1.9892  0.6741 -1.5028
  278MOL0     H36649   1.141   6.349   9.301 -0.4111 -0.4174 -1.7972
  278MOL0     H36650   0.807   6.347   9.071 -0.9696  0.4866  0.8517
  278MOL0     H36651   0.964   6.433   9.084  1.5576  0.2153  2.1534
  278MOL0     H36652   0.828   6.602   9.165 -1.0280  0.0239  1.6839
  278MOL0     H36653   0.868   6.512   9.313  2.8281 -0.0204 -0.6259
  278MOL0     H36654   0.619   6.478   9.141  1.8472  1.4203 -0.3662
  278MOL0     H36655   0.661   6.393   9.287 -0.9070 -0.3213 -0.9094
  278MOL0     H36656   0.615   6.625   9.400  5.7613 -5.5296 -1.0203
  278MOL0     H36657   0.487   6.582   9.279  0.8157 -2.0710 -0.1269
  278MOL0     H36658   0.386   6.770   9.385  1.1817  0.5518  1.7398
  278MOL0     H36659   0.272   7.006   9.395 -1.5823  0.2139 -3.2099
  278MOL0     H36660  -0.015   7.275   9.196 -0.5330 -1.0048  1.6734
  278MOL0     H36661  -0.107   7.505   9.177  0.3063 -2.5639 -0.6723
  278MOL0     H36662  -0.028   7.790   9.512  0.9718 -1.1025 -1.4399
  278MOL0     H36663  -0.138   7.670   9.535 -0.0150  1.8330  2.0404
  278MOL0     H36664  -0.326   7.808   9.460  0.6558 -0.5579  1.7301
  278MOL0     H36665  -0.215   7.894   9.348 -0.9460 -0.2178  0.3931
  278MOL0     H36666  -0.119   8.003   9.567  0.0768 -1.9169  3.1078
  278MOL0     H36667  -0.221   7.890   9.648  1.5991  0.3550  0.8287
  278MOL0     H36668  -0.297   8.137   9.483 -0.8471  1.8752 -0.0372
  278MOL0     H36669  -0.417   8.016   9.552  0.5544 -2.4211  2.1441
  278MOL0     H36670  -0.382   8.219   9.699 -1.8872 -1.5625  0.3595
  278MOL0     H36671  -0.217   8.166   9.728  0.5550 -0.9787 -1.7011
  278MOL0     H36672  -0.298   7.967   9.856 -2.0520 -1.3835  2.3345
  278MOL0     H36673  -0.445   7.983   9.775 -0.5340 -0.5796  2.8139
  278MOL0     H36674  -0.493   8.200   9.897  2.6823  1.4259 -2.2668
  278MOL0     H36675  -0.470   8.070  10.012 -0.4487  0.1387 -0.2060
  278MOL0     H36676  -0.258   8.266   9.929 -5.9155  1.7973 -2.9779
  278MOL0     H36677  -0.243   8.140  10.061 -0.8556 -0.6041 -0.4496
  278MOL0     H36678   0.167   7.633   9.490  1.9071 -1.5503 -0.8866
  278MOL0     H36679   0.259   7.411   9.486 -1.2251 -0.0334  1.8008
  278MOL0     H36680   0.543   7.168   9.131  0.1450  1.1130  1.4309
  278MOL0     H36681   0.672   6.957   9.106  0.0579  1.0735 -0.6627
  278MOL0     H36682   0.593   5.745   8.776  0.0362 -0.2905 -2.1622
  278MOL0     H36683   0.396   5.633   8.781 -0.1254  0.1728 -0.0062
  278MOL0     H36684   0.244   5.133   8.951 -1.9032 -0.0557  2.3542
  278MOL0     H36685   0.052   5.008   9.012 -2.8023 -0.0571  0.9077
  278MOL0     H36686  -0.294   5.186   8.959  3.4731  0.6856 -0.6448
  278MOL0     H36687  -0.248   5.081   9.094 -0.8298 -0.7065 -0.3311
  278MOL0     H36688  -0.373   4.891   8.931 -3.0381  0.6187 -4.5916
  278MOL0     H36689  -0.448   4.982   9.065  1.3661  1.8076  1.1545
  278MOL0     H36690  -0.465   5.077   8.767 -0.7701  0.5986 -0.5333
  278MOL0     H36691  -0.553   5.134   8.902 -2.0294 -0.0976 -1.6485
  278MOL0     H36692  -0.595   4.863   8.777  2.2154  0.4475 -0.5416
  278MOL0     H36693  -0.647   4.911   8.944  0.6191 -1.3669 -0.0906
  278MOL0     H36694  -0.944   5.087   8.719 -0.2178 -1.0207  0.2556
  278MOL0     H36695  -0.174   5.209   8.692  0.9954  3.2041 -2.1691
  278MOL0     H36696   0.027   5.345   8.643  0.4940  0.3846 -0.6527
  279MOL0     O36697   6.693   1.200   7.479 -0.2816  0.1469  0.1461
  279MOL0     C36698   6.572   1.166   7.460 -0.2229  0.4963 -0.5364
  279MOL0     O36699   6.500   1.097   7.552 -0.4252 -0.0228  0.1926
  279MOL0     C36700   6.560   1.063   7.672 -0.2143 -0.3340 -0.0228
  279MOL0     C36701   6.576   0.928   7.689  0.5107 -0.0559  0.0534
  279MOL0     C36702   6.636   0.872   7.801  0.4170  0.2448  0.7988
  279MOL0     C36703   6.692   0.957   7.894  0.6390  1.2900 -0.3933
  279MOL0     O36704   6.777   0.910   7.990 -0.3948 -0.6286 -0.1981
  279MOL0     C36705   6.777   0.775   8.036  0.8326  1.4639  0.1215
  279MOL0     C36706   6.834   0.778   8.177 -0.4972  0.6373 -1.2046
  279MOL0     C36707   6.791   0.661   8.254  0.3013  0.8238  0.8796
  279MOL0     C36708   6.842   0.677   8.399  0.4407 -0.1351  0.0447
  279MOL0     C36709   6.771   0.567   8.476 -0.1971 -0.8410  0.4014
  279MOL0     C36710   6.807   0.564   8.621 -0.8784  0.0008  0.4557
  279MOL0     C36711   6.725   0.462   8.705 -0.1972  0.1217 -0.1149
  279MOL0     C36712   6.764   0.452   8.858  0.1593 -0.9174  0.3319
  279MOL0     N36713   6.639   0.449   8.940 -1.1101  0.1037  0.1980
  279MOL0     C36714   6.579   0.341   8.987  0.8551 -0.7091  0.4276
  279MOL0     C36715   6.466   0.391   9.037 -1.0645  0.4780  0.0619
  279MOL0     C36716   6.363   0.317   9.111 -0.6194  0.1541 -0.4469
  279MOL0     C36717   6.397   0.308   9.254  0.6297 -0.0851  0.0529
  279MOL0     C36718   6.408   0.448   9.331  0.0841 -0.0160 -0.0924
  279MOL0     C36719   6.452   0.440   9.472  0.7948 -1.1111 -0.6443
  279MOL0     O36720   6.362   0.362   9.552 -0.2018  0.4862  0.5552
  279MOL0     C36721   6.359   0.392   9.687  0.2236 -0.8348  0.9240
  279MOL0     C36722   6.241   0.408   9.747  0.6625 -0.3864  0.4358
  279MOL0     C36723   6.221   0.438   9.883 -0.6344 -0.3933 -1.0657
  279MOL0     C36724   6.327   0.453   9.967  0.6698 -0.2341  0.4778
  279MOL0     C36725   6.312   0.506  10.100 -0.7073 -0.0758 -0.0648
  279MOL0     O36726   6.186   0.482  10.159 -0.4831  0.2605 -0.0959
  279MOL0     C36727   6.146   0.558  10.270  0.1906 -0.3829  0.5081
  279MOL0     C36728   6.105   0.486  10.386  0.6378 -0.2091  0.3032
  279MOL0     C36729   6.047   0.558  10.494 -0.6587  0.4937 -0.4530
  279MOL0     C36730   6.031   0.697  10.496  0.4939  0.0806 -0.4507
  279MOL0     O36731   5.998   0.757  10.618 -0.5007 -0.7200 -0.4570
  279MOL0     C36732   6.012   0.684  10.740  0.5273 -0.0408  0.6129
  279MOL0     C36733   5.984   0.783  10.858 -0.5443  0.7074 -0.2356
  279MOL0     C36734   6.063   0.780  10.989 -0.0718  0.1897  0.4109
  279MOL0     C36735   6.006   0.876  11.097  0.3720 -0.0711  0.4976
  279MOL0     C36736   5.877   0.826  11.165 -0.9038  0.2769 -0.5824
  279MOL0     C36737   5.813   0.945  11.241  0.9955  0.1558  0.2763
  279MOL0     C36738   5.681   0.912  11.303  0.4502 -1.0852 -0.0619
  279MOL0     C36739   5.570   0.950  11.208 -0.1402 -0.6207 -0.3209
  279MOL0    Cl36740   5.550   1.134  11.182  0.5527  0.0420 -0.0690
  279MOL0     C36741   6.078   0.764  10.388 -0.4715  0.5067  0.1517
  279MOL0     C36742   6.133   0.701  10.273 -0.1260  0.0866  0.0683
  279MOL0     O36743   6.392   0.588  10.145 -0.0811  0.1276  0.1007
  279MOL0     C36744   6.453   0.442   9.906  0.1401 -0.4657  0.2209
  279MOL0     C36745   6.474   0.418   9.768 -0.3797  0.0245  0.4694
  279MOL0     N36746   6.454   0.526   9.028 -0.8289  0.0172 -0.0404
  279MOL0     N36747   6.564   0.556   8.964  0.9199  1.3084  0.3926
  279MOL0     C36748   6.669   1.092   7.885  0.7010 -0.6580  0.7762
  279MOL0     C36749   6.605   1.154   7.775  0.1842 -0.2725  0.2432
  279MOL0     C36750   6.509   1.207   7.339  0.1167  1.0246 -1.3479
  279MOL0     C36751   6.582   1.258   7.236  0.4119  0.8468  0.3950
  279MOL0     C36752   6.519   1.308   7.127  0.6832 -0.3270  0.5013
  279MOL0     C36753   6.379   1.309   7.113  0.1608 -0.3938 -0.0737
  279MOL0     O36754   6.325   1.353   7.000  0.5875  0.6272  0.3030
  279MOL0     C36755   6.366   1.303   6.864 -0.0271  0.5959 -1.0609
  279MOL0     C36756   6.247   1.225   6.799 -0.6924 -0.0276  0.4891
  279MOL0     C36757   6.139   1.325   6.740  0.0294  0.4616  0.1693
  279MOL0     C36758   6.029   1.361   6.835  0.3721 -0.2640 -0.6524
  279MOL0     C36759   6.052   1.472   6.928  1.0980  0.3347  0.8594
  279MOL0     C36760   6.058   1.545   7.021 -0.3926  0.5030  0.3081
  279MOL0     C36761   6.304   1.267   7.215  0.5866  1.1198  1.0022
  279MOL0     C36762   6.371   1.210   7.327  0.0267 -1.5790  0.0131
  279MOL0     H36763   6.532   0.862   7.615 -1.3836  0.2106  0.9044
  279MOL0     H36764   6.642   0.764   7.809 -0.3902  0.2951  2.7647
  279MOL0     H36765   6.841   0.710   7.974  1.1758 -2.2108  3.8754
  279MOL0     H36766   6.678   0.728   8.039  0.9838  1.2069  1.4415
  279MOL0     H36767   6.788   0.863   8.228 -0.8884  0.0790 -0.6111
  279MOL0     H36768   6.942   0.796   8.176 -0.7211  2.4431  1.0685
  279MOL0     H36769   6.839   0.572   8.211  1.7073  1.4075  1.1723
  279MOL0     H36770   6.682   0.654   8.246  0.5179 -2.1883 -1.0445
  279MOL0     H36771   6.949   0.655   8.398  0.1617 -1.5550 -0.2255
  279MOL0     H36772   6.817   0.775   8.442 -0.9781 -0.0027 -0.9971
  279MOL0     H36773   6.802   0.471   8.433 -1.2292 -1.0056  0.0020
  279MOL0     H36774   6.664   0.577   8.459 -0.1877  2.3504  1.5683
  279MOL0     H36775   6.787   0.664   8.660  3.0309  0.6395  1.2425
  279MOL0     H36776   6.911   0.529   8.633 -0.7159  0.4101  0.2405
  279MOL0     H36777   6.621   0.496   8.692  0.2717  1.2980 -0.9436
  279MOL0     H36778   6.724   0.363   8.659  0.8079 -0.2305  0.5965
  279MOL0     H36779   6.833   0.531   8.889 -1.0270  0.0710  0.5481
  279MOL0     H36780   6.818   0.363   8.890  0.3376 -0.8236  0.2908
  279MOL0     H36781   6.601   0.234   8.988 -4.6965 -2.1733  2.0499
  279MOL0     H36782   6.355   0.217   9.065 -2.7055 -0.2744  0.7302
  279MOL0     H36783   6.270   0.371   9.096 -0.3243  0.2788 -2.0579
  279MOL0     H36784   6.496   0.267   9.274  0.9060  2.2133  4.7590
  279MOL0     H36785   6.332   0.239   9.309  2.1239  1.9018  4.8838
  279MOL0     H36786   6.480   0.516   9.283  1.1710 -2.0159 -1.4577
  279MOL0     H36787   6.304   0.482   9.335 -0.3700 -1.2545 -0.7690
  279MOL0     H36788   6.452   0.546   9.500  1.3431 -0.7812 -1.8498
  279MOL0     H36789   6.553   0.403   9.490  0.2176 -1.4114  2.5930
  279MOL0     H36790   6.156   0.407   9.680  1.2489  1.8867 -0.4376
  279MOL0     H36791   6.125   0.477   9.915 -0.5452  1.3984 -2.7763
  279MOL0     H36792   6.130   0.381  10.397  1.3468 -0.2907 -1.7077
  279MOL0     H36793   6.018   0.495  10.578 -1.7252 -0.2136 -1.3189
  279MOL0     H36794   6.114   0.647  10.758  0.7892  0.6175  0.5137
  279MOL0     H36795   5.946   0.598  10.753 -0.2338  0.5628  0.8209
  279MOL0     H36796   5.880   0.769  10.887 -1.0909  1.7688 -1.6159
  279MOL0     H36797   6.004   0.881  10.813  1.4037  0.8172  0.7432
  279MOL0     H36798   6.170   0.801  10.978  0.2574 -1.6344 -0.3300
  279MOL0     H36799   6.049   0.675  11.018 -0.1269 -0.0845 -0.5721
  279MOL0     H36800   6.078   0.874  11.179  0.1398 -5.4624  0.9569
  279MOL0     H36801   5.988   0.975  11.055  0.6843 -0.1696  0.1207
  279MOL0     H36802   5.889   0.753  11.246  0.7195  2.7596  1.5785
  279MOL0     H36803   5.813   0.798  11.081 -0.7387 -4.1424  0.5308
  279MOL0     H36804   5.804   1.036  11.181 -3.8453  0.0506  0.4457
  279MOL0     H36805   5.876   0.962  11.329 -1.3780 -1.6926  2.4933
  279MOL0     H36806   5.679   0.815  11.354  1.1621  0.6668  3.6993
  279MOL0     H36807   5.665   0.984  11.385  2.1500 -0.3239 -0.3526
  279MOL0     H36808   5.484   0.903  11.255 -1.9151  1.9297 -0.7886
  279MOL0     H36809   5.586   0.896  11.114  2.3813 -2.0560  0.8438
  279MOL0     H36810   6.065   0.871  10.372 -1.6406  0.1770 -1.3042
  279MOL0     H36811   6.178   0.753  10.189  1.6530  0.1838  1.0348
  279MOL0     H36812   6.541   0.456   9.968  1.2530  1.1439 -1.6291
  279MOL0     H36813   6.574   0.411   9.726  0.7948  2.4478  2.5689
  279MOL0     H36814   6.719   1.159   7.955 -0.9023  0.4567  0.9182
  279MOL0     H36815   6.612   1.261   7.759  2.5663 -0.6689 -2.2650
  279MOL0     H36816   6.689   1.249   7.250  0.0831  0.3421  3.0583
  279MOL0     H36817   6.568   1.352   7.042 -3.5690 -0.6600 -2.4430
  279MOL0     H36818   6.455   1.241   6.869 -0.2936  0.3173  1.3727
  279MOL0     H36819   6.388   1.391   6.803 -0.2516 -0.4154 -2.6414
  279MOL0     H36820   6.293   1.163   6.722  0.6808 -1.4853  2.3807
  279MOL0     H36821   6.197   1.155   6.866  0.2675 -0.5073  0.7283
  279MOL0     H36822   6.097   1.286   6.647  0.8954 -2.6370  0.9377
  279MOL0     H36823   6.197   1.412   6.706  1.3423 -0.5881 -0.3792
  279MOL0     H36824   5.950   1.396   6.768  2.0979  3.4860 -1.0357
  279MOL0     H36825   6.000   1.275   6.895  0.2931  1.5861  2.1549
  279MOL0     H36826   6.066   1.624   7.092  0.2779  1.0619 -0.3649
  279MOL0     H36827   6.196   1.271   7.215  0.3496 -2.1202 -0.2895
  279MOL0     H36828   6.312   1.180   7.412  0.2654  4.3252  2.7563
  280MOL0     O36829   9.326   5.378   0.566  0.3033 -0.1922  0.2202
  280MOL0     C36830   9.215   5.394   0.615  0.1269 -0.6396  0.0962
  280MOL0     O36831   9.100   5.421   0.552  0.5973  0.0969  0.3707
  280MOL0     C36832   9.115   5.461   0.420 -0.4012 -0.0581 -1.1070
  280MOL0     C36833   9.171   5.385   0.312 -0.0057 -0.5499  0.7055
  280MOL0     C36834   9.187   5.441   0.180  0.2143  0.1844  0.3350
  280MOL0     C36835   9.135   5.571   0.157 -0.6185 -0.9173 -0.1356
  280MOL0     O36836   9.133   5.617   0.021  0.6086  0.4173 -0.9798
  280MOL0     C36837   9.063   5.727  -0.009  0.3002  0.7666  0.2926
  280MOL0     C36838   9.055   5.753  -0.165  0.9895  0.3074 -0.1017
  280MOL0     C36839   8.928   5.829  -0.203 -0.6701  0.2004 -0.3392
  280MOL0     C36840   8.936   5.976  -0.155 -0.0376  0.6795  0.9706
  280MOL0     C36841   8.806   6.051  -0.180 -0.5725  0.1233  0.4500
  280MOL0     C36842   8.840   6.194  -0.196  0.5381  0.1290 -0.4477
  280MOL0     C36843   8.716   6.282  -0.202  0.1906 -0.5867  0.1278
  280MOL0     C36844   8.754   6.433  -0.223  0.2154 -0.4332 -0.3332
  280MOL0     N36845   8.628   6.509  -0.215  0.0821 -0.3361  0.1518
  280MOL0     C36846   8.545   6.514  -0.326  1.2460  0.5535  0.1426
  280MOL0     C36847   8.449   6.606  -0.292 -0.0263  0.5118 -0.1593
  280MOL0     C36848   8.337   6.658  -0.385  0.1733 -0.3784 -0.6716
  280MOL0     C36849   8.332   6.806  -0.373  0.6343 -0.0068 -0.4872
  280MOL0     C36850   8.281   6.856  -0.230 -0.9229  0.3066  1.1538
  280MOL0     C36851   8.133   6.813  -0.205  0.7521 -0.1254 -0.2773
  280MOL0     O36852   8.046   6.877  -0.307  0.6670  0.0241  0.2789
  280MOL0     C36853   7.999   7.005  -0.277  1.3216  0.8946 -0.1192
  280MOL0     C36854   7.977   7.054  -0.144  0.3346  0.2113  0.3994
  280MOL0     C36855   7.918   7.184  -0.128  0.1591 -0.4372 -0.2013
  280MOL0     C36856   7.888   7.265  -0.236  0.9324 -0.3019  0.4982
  280MOL0     C36857   7.836   7.405  -0.215 -0.1399  0.6555  0.5438
  280MOL0     O36858   7.822   7.433  -0.077  0.1944  0.8240 -0.3865
  280MOL0     C36859   7.771   7.552  -0.028 -1.1668 -0.4950 -0.0466
  280MOL0     C36860   7.681   7.637  -0.096 -0.0239  0.5257 -0.1940
  280MOL0     C36861   7.652   7.760  -0.049  0.4836 -0.2696  0.8319
  280MOL0     C36862   7.692   7.796   0.078  0.6536  0.3420  1.4047
  280MOL0     O36863   7.652   7.921   0.136  0.0308 -0.0345  0.4380
  280MOL0     C36864   7.512   7.935   0.169  0.7371 -0.8812 -0.6271
  280MOL0     C36865   7.482   7.890   0.313 -0.0992 -0.1288  0.9254
  280MOL0     C36866   7.539   7.994   0.409 -0.1096 -0.1972  0.4613
  280MOL0     C36867   7.567   7.948   0.548 -0.9591  0.7128  0.3070
  280MOL0     C36868   7.622   8.045   0.639 -0.3883  1.4254 -0.1921
  280MOL0     C36869   7.676   7.962   0.765 -0.1218 -0.4856  0.7509
  280MOL0     C36870   7.742   8.057   0.861 -0.2059 -0.0242  0.4100
  280MOL0     C36871   7.749   8.006   0.998  0.3225 -0.1176 -1.0047
  280MOL0    Cl36872   7.858   7.862   1.005 -0.0883 -0.1567  0.2849
  280MOL0     C36873   7.761   7.701   0.154 -0.2512 -0.5180  1.0008
  280MOL0     C36874   7.811   7.586   0.100  0.3941 -0.4875  0.4288
  280MOL0     O36875   7.798   7.474  -0.310  0.1829 -0.1383  0.3772
  280MOL0     C36876   7.928   7.220  -0.364 -0.0530  0.3878 -0.9381
  280MOL0     C36877   7.977   7.087  -0.382  0.2052 -0.6239  0.6985
  280MOL0     N36878   8.471   6.631  -0.154  0.9542  1.0460  0.2138
  280MOL0     N36879   8.576   6.583  -0.113  0.2240 -0.1368 -0.1735
  280MOL0     C36880   9.077   5.644   0.271 -0.9664  0.0858  0.1238
  280MOL0     C36881   9.067   5.587   0.399 -0.6459  0.1259 -0.0980
  280MOL0     C36882   9.205   5.346   0.757  0.1036 -0.2413 -0.0731
  280MOL0     C36883   9.084   5.303   0.823  0.0139 -0.6026  0.0478
  280MOL0     C36884   9.090   5.266   0.965  0.1423 -0.1501 -0.9226
  280MOL0     C36885   9.223   5.242   1.026 -0.4855  0.0966 -0.3062
  280MOL0     O36886   9.223   5.182   1.150 -0.4667  0.0917  0.5733
  280MOL0     C36887   9.347   5.167   1.219 -0.5659 -0.8893 -0.2462
  280MOL0     C36888   9.319   5.144   1.374  0.0467  0.7581  0.0835
  280MOL0     C36889   9.299   4.992   1.399 -0.2534 -0.2982 -0.3621
  280MOL0     C36890   9.174   4.956   1.474  0.2164 -0.5019 -0.3722
  280MOL0     C36891   9.162   4.816   1.466  0.8682  0.6424 -0.5003
  280MOL0     C36892   9.139   4.695   1.453 -0.5056  0.0778 -0.5723
  280MOL0     C36893   9.336   5.272   0.951 -0.6848  0.8622 -0.6469
  280MOL0     C36894   9.328   5.336   0.827 -0.4216  0.9480 -0.0823
  280MOL0     H36895   9.220   5.289   0.327  1.3007  0.1664  1.1748
  280MOL0     H36896   9.209   5.380   0.093  0.9455  3.3793 -1.9541
  280MOL0     H36897   9.103   5.819   0.034  0.1869  0.0649  1.9478
  280MOL0     H36898   8.960   5.716   0.026  0.7709 -0.4987  1.3536
  280MOL0     H36899   9.042   5.660  -0.221 -0.6764 -1.3805  2.8300
  280MOL0     H36900   9.145   5.801  -0.204  0.1848 -0.1739 -2.7293
  280MOL0     H36901   8.834   5.791  -0.163 -0.7766  2.5664  1.9425
  280MOL0     H36902   8.923   5.826  -0.313  0.1514 -0.7249 -0.3570
  280MOL0     H36903   8.961   5.973  -0.049  1.6485 -1.5506  0.5836
  280MOL0     H36904   9.028   6.016  -0.200  2.2567 -3.3745  1.5408
  280MOL0     H36905   8.735   6.029  -0.099 -0.1836  2.5550  1.5277
  280MOL0     H36906   8.764   6.028  -0.279  2.7006  2.4101 -1.6508
  280MOL0     H36907   8.896   6.207  -0.289 -2.4440 -0.1995 -2.4273
  280MOL0     H36908   8.896   6.220  -0.106  2.9164 -1.6420 -1.2998
  280MOL0     H36909   8.652   6.254  -0.286 -0.4232  0.3866  0.2576
  280MOL0     H36910   8.661   6.272  -0.108 -4.6364  1.4012 -2.1009
  280MOL0     H36911   8.796   6.444  -0.323 -3.0614 -1.6248 -1.9905
  280MOL0     H36912   8.808   6.476  -0.139 -0.9816  0.7549 -0.1338
  280MOL0     H36913   8.558   6.462  -0.420  4.1272 -0.0178  0.7513
  280MOL0     H36914   8.242   6.605  -0.386  0.0519 -0.1873  0.3672
  280MOL0     H36915   8.376   6.643  -0.486  2.4573  0.3074  0.0480
  280MOL0     H36916   8.272   6.853  -0.452 -1.1287  0.8285  1.2670
  280MOL0     H36917   8.429   6.850  -0.401  1.0045 -0.2494  0.3744
  280MOL0     H36918   8.353   6.822  -0.155 -0.0410 -0.0749  0.1626
  280MOL0     H36919   8.298   6.963  -0.217  2.7220  0.4137 -2.4497
  280MOL0     H36920   8.100   6.834  -0.103  0.6613 -0.4217 -0.2436
  280MOL0     H36921   8.110   6.706  -0.216 -0.3938 -0.1294  1.7396
  280MOL0     H36922   8.002   7.005  -0.051 -2.3550  1.6106  2.0053
  280MOL0     H36923   7.901   7.212  -0.024  0.9003  0.6660 -0.3683
  280MOL0     H36924   7.627   7.604  -0.184 -2.8174 -0.8434  1.8253
  280MOL0     H36925   7.586   7.828  -0.101  0.1623  0.5524  2.2527
  280MOL0     H36926   7.449   7.877   0.100  0.1048  0.0116 -0.8214
  280MOL0     H36927   7.474   8.036   0.155  2.1094 -0.1861  0.5023
  280MOL0     H36928   7.540   7.800   0.330 -1.3414 -1.8154 -2.7733
  280MOL0     H36929   7.376   7.862   0.321 -0.0653 -0.0825  1.5847
  280MOL0     H36930   7.471   8.080   0.404 -0.9514 -0.8555  0.5464
  280MOL0     H36931   7.635   8.026   0.366 -0.6544  0.9229  0.0310
  280MOL0     H36932   7.469   7.904   0.572 -1.3804 -0.2748 -2.7394
  280MOL0     H36933   7.638   7.867   0.526 -1.6950 -0.1412  0.9719
  280MOL0     H36934   7.543   8.114   0.671  0.9465  1.5809  3.1288
  280MOL0     H36935   7.721   8.087   0.618  3.1673 -4.1020  3.1872
  280MOL0     H36936   7.758   7.901   0.725 -1.1577 -1.3085 -0.2104
  280MOL0     H36937   7.604   7.898   0.816  1.9757  0.3242  5.1510
  280MOL0     H36938   7.841   8.095   0.835 -0.6295  2.5961  2.2618
  280MOL0     H36939   7.672   8.141   0.861 -0.9423 -0.6216 -0.3151
  280MOL0     H36940   7.651   7.971   1.031  0.0786  2.6406  1.5777
  280MOL0     H36941   7.788   8.086   1.061 -0.7601  1.4619 -2.2673
  280MOL0     H36942   7.773   7.728   0.259 -0.6448 -1.4686  1.3024
  280MOL0     H36943   7.867   7.516   0.162  1.3667 -0.4169 -0.3525
  280MOL0     H36944   7.910   7.281  -0.452 -2.4644  1.2579  0.0787
  280MOL0     H36945   7.997   7.051  -0.482 -1.8151 -0.7212  0.2862
  280MOL0     H36946   9.039   5.745   0.259 -1.1740 -0.1705 -1.7488
  280MOL0     H36947   9.022   5.643   0.480  1.4243  0.0206  1.1904
  280MOL0     H36948   8.987   5.307   0.776 -0.8246  1.2854  1.7896
  280MOL0     H36949   9.000   5.246   1.023  1.1959  1.5445  1.4707
  280MOL0     H36950   9.414   5.252   1.203  1.4446 -2.1131  1.1306
  280MOL0     H36951   9.393   5.071   1.193 -0.6045 -1.3480  1.2783
  280MOL0     H36952   9.407   5.184   1.426  1.1423 -0.2441 -0.9117
  280MOL0     H36953   9.234   5.204   1.408  2.6884  1.9842  5.7125
  280MOL0     H36954   9.387   4.956   1.453 -0.5090  0.1505  0.3725
  280MOL0     H36955   9.289   4.940   1.304  0.1248 -0.7314 -0.1677
  280MOL0     H36956   9.166   4.983   1.579 -1.2896  0.9640 -0.8146
  280MOL0     H36957   9.088   5.000   1.422 -2.1736 -1.6927  2.2866
  280MOL0     H36958   9.119   4.590   1.443 -2.6330 -0.0526  3.0950
  280MOL0     H36959   9.441   5.262   0.978 -0.9752 -0.3301  0.1270
  280MOL0     H36960   9.417   5.348   0.766  1.5107 -2.4262  1.8116
  281MOL0     O36961   3.961   5.089   8.331 -0.2516 -0.3273  0.0109
  281MOL0     C36962   3.867   5.163   8.359  0.0108  0.8023  0.0801
  281MOL0     O36963   3.796   5.156   8.471 -0.3269  0.5383  0.2399
  281MOL0     C36964   3.801   5.053   8.556  0.5069  0.4491  0.1137
  281MOL0     C36965   3.913   5.036   8.637  0.4947 -1.0105 -0.1421
  281MOL0     C36966   3.919   4.928   8.736  0.2146 -0.7117  0.5589
  281MOL0     C36967   3.803   4.856   8.753 -0.0100  0.8649 -0.3817
  281MOL0     O36968   3.804   4.729   8.817 -0.2658  0.2217 -0.3768
  281MOL0     C36969   3.928   4.693   8.890 -0.1129 -0.3047  0.2683
  281MOL0     C36970   3.921   4.555   8.947  0.3333 -0.2879  0.2233
  281MOL0     C36971   3.800   4.523   9.035  0.1609  0.0697  0.1502
  281MOL0     C36972   3.798   4.383   9.099 -0.1985  0.1972 -0.2507
  281MOL0     C36973   3.790   4.279   8.987 -1.1444 -1.2784 -0.1529
  281MOL0     C36974   3.700   4.165   9.021  0.3850 -0.1768 -0.5054
  281MOL0     C36975   3.562   4.196   8.982  0.2742  0.0289 -0.1913
  281MOL0     C36976   3.465   4.090   9.026  0.2345 -0.1533 -0.5921
  281MOL0     N36977   3.371   4.055   8.927  0.3143  0.1003  0.4079
  281MOL0     C36978   3.403   3.976   8.818  0.0638 -0.3019  1.4094
  281MOL0     C36979   3.288   3.988   8.739 -0.6489  0.2754  0.7857
  281MOL0     C36980   3.253   3.907   8.615  0.0213  0.2178 -0.5631
  281MOL0     C36981   3.355   3.905   8.511 -1.0648 -0.2534  0.2183
  281MOL0     C36982   3.305   3.857   8.371 -0.1299 -0.4378  0.5233
  281MOL0     C36983   3.269   3.713   8.380 -0.0038  0.3551  1.1657
  281MOL0     O36984   3.388   3.622   8.374  0.5136  0.4675 -0.7700
  281MOL0     C36985   3.349   3.500   8.418  0.7739  0.8769  0.0314
  281MOL0     C36986   3.316   3.403   8.324  0.0209  0.1189 -0.2794
  281MOL0     C36987   3.286   3.272   8.353 -0.3351 -0.1045  0.5422
  281MOL0     C36988   3.291   3.231   8.485 -0.1965  0.1104 -0.1523
  281MOL0     C36989   3.268   3.089   8.521 -0.1972 -0.2955 -1.5087
  281MOL0     O36990   3.256   2.998   8.419  0.1371 -0.5534 -0.0834
  281MOL0     C36991   3.256   2.863   8.438 -0.1030  0.7635  0.5643
  281MOL0     C36992   3.362   2.792   8.502 -0.4844 -1.2807 -0.3042
  281MOL0     C36993   3.366   2.651   8.507 -0.2217 -0.3703 -0.2144
  281MOL0     C36994   3.260   2.579   8.457  0.5201 -0.5210 -0.1345
  281MOL0     O36995   3.270   2.445   8.485 -0.2955  0.2994  0.4750
  281MOL0     C36996   3.152   2.374   8.443  0.9089  0.5358 -0.4049
  281MOL0     C36997   3.166   2.221   8.452  0.5071  0.9586  0.2943
  281MOL0     C36998   3.035   2.145   8.417  0.2609 -0.3850 -0.0934
  281MOL0     C36999   3.061   1.996   8.402 -0.0920  0.1549  0.6753
  281MOL0     C37000   2.931   1.919   8.371  0.3252 -0.3862 -0.1839
  281MOL0     C37001   2.956   1.764   8.381 -0.0842 -0.5229 -0.6408
  281MOL0     C37002   2.877   1.706   8.503  0.4848  0.0503 -0.0464
  281MOL0     C37003   2.899   1.556   8.525  0.7956 -0.2048 -0.7122
  281MOL0    Cl37004   3.049   1.522   8.613  0.3367  0.2299 -0.2148
  281MOL0     C37005   3.144   2.648   8.399 -0.6166 -0.7922 -0.4292
  281MOL0     C37006   3.150   2.786   8.394  0.7974  0.5813  0.5668
  281MOL0     O37007   3.277   3.054   8.634  0.1439  1.0141 -0.7891
  281MOL0     C37008   3.321   3.328   8.578  0.0532 -0.1306 -0.3721
  281MOL0     C37009   3.344   3.462   8.552 -0.8489  0.1929  0.9263
  281MOL0     N37010   3.201   4.084   8.794 -0.4290  0.3511  0.2536
  281MOL0     N37011   3.248   4.110   8.908  0.5839 -0.3933 -0.0167
  281MOL0     C37012   3.685   4.877   8.680  0.3263 -0.6102  0.0161
  281MOL0     C37013   3.682   4.987   8.587 -0.3817  0.2463 -0.1062
  281MOL0     C37014   3.825   5.270   8.267  0.2862  0.1373 -0.2033
  281MOL0     C37015   3.692   5.320   8.269 -0.5333 -0.6824  0.3318
  281MOL0     C37016   3.655   5.432   8.200  0.1952 -0.0524  0.4591
  281MOL0     C37017   3.746   5.500   8.103  0.2667  0.1119 -0.4052
  281MOL0     O37018   3.723   5.617   8.032  0.3283 -0.5834  0.4000
  281MOL0     C37019   3.590   5.646   7.996  0.1506 -0.1757 -0.3499
  281MOL0     C37020   3.518   5.528   7.931  0.2989  0.0023  0.4143
  281MOL0     C37021   3.411   5.576   7.835  0.5639  0.8033 -0.0566
  281MOL0     C37022   3.292   5.639   7.900  0.1924 -0.5099  0.3721
  281MOL0     C37023   3.251   5.592   8.028 -0.9985 -0.4333  1.2289
  281MOL0     C37024   3.207   5.560   8.135 -0.4035 -0.2764  0.0218
  281MOL0     C37025   3.872   5.440   8.106 -0.9697 -0.2123  0.2820
  281MOL0     C37026   3.918   5.339   8.192 -0.8926 -0.0928 -0.1750
  281MOL0     H37027   4.002   5.097   8.627  1.0628 -2.1518 -2.9642
  281MOL0     H37028   4.012   4.911   8.789 -0.8879  0.2994  2.9300
  281MOL0     H37029   3.947   4.769   8.966 -2.6661 -0.0528  0.7358
  281MOL0     H37030   4.015   4.689   8.824  0.3287 -3.4801  0.8937
  281MOL0     H37031   4.015   4.544   9.002  1.9864  2.5618 -1.7754
  281MOL0     H37032   3.934   4.478   8.871  0.0682 -2.7586  2.5040
  281MOL0     H37033   3.720   4.545   8.965  1.4550  0.4343 -1.2601
  281MOL0     H37034   3.802   4.604   9.109  1.7935 -1.1665  1.5449
  281MOL0     H37035   3.884   4.371   9.165  1.1621 -0.6367 -2.0826
  281MOL0     H37036   3.714   4.356   9.164  0.5204 -1.0858  0.1980
  281MOL0     H37037   3.894   4.251   8.969 -0.2749  1.7562 -0.4067
  281MOL0     H37038   3.752   4.332   8.900 -0.6865  5.2363  3.0338
  281MOL0     H37039   3.701   4.147   9.129  3.7678 -0.7441 -0.5201
  281MOL0     H37040   3.735   4.078   8.965 -1.0744 -0.6674 -0.6792
  281MOL0     H37041   3.537   4.293   9.026 -0.2357 -1.1426  2.3134
  281MOL0     H37042   3.557   4.199   8.873 -0.8799 -1.0391 -0.1950
  281MOL0     H37043   3.408   4.115   9.116  0.0974  2.2469 -1.2854
  281MOL0     H37044   3.523   4.001   9.052  0.3886  0.2936  0.6701
  281MOL0     H37045   3.488   3.913   8.799 -1.1754 -1.8475  0.7708
  281MOL0     H37046   3.163   3.954   8.574  0.3287  1.1790 -0.1693
  281MOL0     H37047   3.236   3.802   8.641 -1.0067  0.4188 -0.3953
  281MOL0     H37048   3.441   3.842   8.537 -1.0014  0.2407  1.2618
  281MOL0     H37049   3.400   4.005   8.506 -0.2010 -0.5741  1.0928
  281MOL0     H37050   3.216   3.917   8.353  0.8016  1.3460  1.6202
  281MOL0     H37051   3.374   3.898   8.297 -0.4709  1.1704  1.0646
  281MOL0     H37052   3.205   3.705   8.292 -0.1730 -1.6015  1.4041
  281MOL0     H37053   3.213   3.684   8.470  1.8600 -2.0015  1.6637
  281MOL0     H37054   3.320   3.430   8.219 -1.3794  4.7349  0.6436
  281MOL0     H37055   3.278   3.208   8.266  1.8532  0.8819 -0.4742
  281MOL0     H37056   3.441   2.851   8.547 -1.7298 -0.0766  0.3664
  281MOL0     H37057   3.456   2.607   8.548 -0.2447  0.5796  0.8970
  281MOL0     H37058   3.130   2.376   8.335  0.7466 -2.9906 -0.5646
  281MOL0     H37059   3.061   2.406   8.495  0.1243  1.3057 -2.1449
  281MOL0     H37060   3.208   2.194   8.549 -0.9394  0.2356  0.7391
  281MOL0     H37061   3.245   2.194   8.381  2.7737 -1.0927  3.3106
  281MOL0     H37062   2.983   2.188   8.331 -0.4178  0.8022  0.8714
  281MOL0     H37063   2.959   2.170   8.491 -1.9891 -0.8250 -2.1321
  281MOL0     H37064   3.131   1.965   8.323 -1.0614  1.1450 -0.6219
  281MOL0     H37065   3.100   1.966   8.499  0.9990  0.0963  0.2369
  281MOL0     H37066   2.905   1.932   8.266 -0.2980  4.2374  0.3315
  281MOL0     H37067   2.853   1.947   8.442  1.9569  1.8660  0.8564
  281MOL0     H37068   3.064   1.746   8.390 -0.3241 -2.3146 -1.0073
  281MOL0     H37069   2.922   1.697   8.302 -2.4483 -2.4234  1.7661
  281MOL0     H37070   2.905   1.758   8.595 -0.4667  0.5332 -0.0168
  281MOL0     H37071   2.775   1.733   8.473  0.7090 -0.5455 -1.4407
  281MOL0     H37072   2.888   1.492   8.437  3.8788 -1.5277 -0.3003
  281MOL0     H37073   2.824   1.527   8.599  2.3134 -0.5300  0.7617
  281MOL0     H37074   3.061   2.599   8.349 -1.6828  0.8752 -0.3805
  281MOL0     H37075   3.069   2.847   8.355  0.5429  0.5765  1.0753
  281MOL0     H37076   3.325   3.304   8.683 -0.0999 -0.0048 -0.3357
  281MOL0     H37077   3.363   3.532   8.633  1.9200 -0.1257  0.6360
  281MOL0     H37078   3.598   4.820   8.711  1.4772 -1.7546  1.2440
  281MOL0     H37079   3.587   4.999   8.535 -0.2726 -2.0909 -0.9446
  281MOL0     H37080   3.612   5.278   8.328 -0.5995  3.5491  3.7133
  281MOL0     H37081   3.556   5.477   8.199 -2.3100 -4.7886 -2.3437
  281MOL0     H37082   3.593   5.729   7.925 -1.0361 -0.6920 -1.0321
  281MOL0     H37083   3.534   5.675   8.085  2.6697 -0.5392  1.4691
  281MOL0     H37084   3.596   5.479   7.871  0.5593 -0.2604  0.9544
  281MOL0     H37085   3.472   5.468   8.010 -3.2956  1.2646 -0.5616
  281MOL0     H37086   3.374   5.483   7.790  0.5095  0.7440  0.1088
  281MOL0     H37087   3.453   5.637   7.755 -0.4232 -0.8997 -1.9690
  281MOL0     H37088   3.320   5.744   7.917  1.4671 -0.8662  0.5940
  281MOL0     H37089   3.199   5.624   7.846 -0.7093 -0.3853  1.8405
  281MOL0     H37090   3.179   5.555   8.239  2.5906 -0.1253  0.9307
  281MOL0     H37091   3.939   5.477   8.030  1.8552 -0.5250  2.4672
  281MOL0     H37092   4.021   5.305   8.192 -1.2439 -1.4313 -2.5341
  282MOL0     O37093   7.515   0.209   2.113  0.7773 -0.0995 -0.9409
  282MOL0     C37094   7.551   0.321   2.084 -1.0361  0.4887 -0.2767
  282MOL0     O37095   7.589   0.366   1.963  1.4815 -0.5249 -0.4394
  282MOL0     C37096   7.550   0.313   1.839 -0.5993  0.5798 -0.0384
  282MOL0     C37097   7.562   0.177   1.808 -1.1375 -0.4719  0.3811
  282MOL0     C37098   7.527   0.127   1.677 -0.9814  1.3136 -0.4127
  282MOL0     C37099   7.475   0.218   1.579  0.2209 -0.4460  0.2195
  282MOL0     O37100   7.432   0.179   1.453  0.3032 -0.0976 -0.5955
  282MOL0     C37101   7.463   0.053   1.400 -0.6195 -0.2598  0.7688
  282MOL0     C37102   7.355   0.041   1.304  0.8111  0.2577  0.4033
  282MOL0     C37103   7.362  -0.087   1.215 -0.1724 -1.1925 -0.2606
  282MOL0     C37104   7.251  -0.085   1.107  0.2938 -0.8596  0.3122
  282MOL0     C37105   7.257  -0.192   1.004  0.5743 -0.2225 -0.4263
  282MOL0     C37106   7.398  -0.188   0.935 -0.2356  0.4649  0.5977
  282MOL0     C37107   7.390  -0.288   0.832  0.3934  0.2703  0.7456
  282MOL0     C37108   7.509  -0.274   0.741  0.2717 -0.4628 -0.0543
  282MOL0     N37109   7.535  -0.401   0.674  0.1157  0.5015 -0.4354
  282MOL0     C37110   7.520  -0.425   0.538  0.0242 -0.6676 -0.7260
  282MOL0     C37111   7.581  -0.549   0.521  0.9941 -0.2156  0.1414
  282MOL0     C37112   7.590  -0.610   0.392  0.4067  0.3662  0.3239
  282MOL0     C37113   7.635  -0.518   0.282 -0.5880 -0.6558  0.5291
  282MOL0     C37114   7.791  -0.511   0.301 -0.7845  0.0969 -0.1117
  282MOL0     C37115   7.863  -0.473   0.167  0.2570  0.2425  0.2257
  282MOL0     O37116   8.003  -0.484   0.189 -0.1997  0.1610 -0.4496
  282MOL0     C37117   8.090  -0.475   0.078  0.4035  1.0438 -1.0387
  282MOL0     C37118   8.223  -0.501   0.115 -1.4810 -1.1511 -0.0479
  282MOL0     C37119   8.314  -0.521   0.008 -0.3475 -0.2789 -0.8304
  282MOL0     C37120   8.279  -0.502  -0.131 -1.2369  0.4212 -0.6003
  282MOL0     C37121   8.383  -0.512  -0.236  0.6507 -0.4196  0.1112
  282MOL0     O37122   8.335  -0.506  -0.367  0.2087  0.0807 -0.7498
  282MOL0     C37123   8.436  -0.496  -0.459 -0.0013 -1.4048  0.0575
  282MOL0     C37124   8.542  -0.597  -0.469  0.6984  0.1369  1.3344
  282MOL0     C37125   8.634  -0.598  -0.572 -0.8041  0.0362 -0.6935
  282MOL0     C37126   8.644  -0.487  -0.661  0.4030 -0.2717  0.8092
  282MOL0     O37127   8.725  -0.489  -0.772 -0.8511 -0.4814  1.5278
  282MOL0     C37128   8.854  -0.433  -0.744  0.2525  0.1527  0.2041
  282MOL0     C37129   8.872  -0.305  -0.829 -0.1848 -0.9530  0.4113
  282MOL0     C37130   8.880  -0.334  -0.974  0.5824 -1.2234 -0.5819
  282MOL0     C37131   8.868  -0.190  -1.040  0.2276 -0.2742  0.3459
  282MOL0     C37132   8.875  -0.206  -1.196 -0.2370 -0.3347 -0.1139
  282MOL0     C37133   8.869  -0.066  -1.258 -0.1521 -1.1004  0.0722
  282MOL0     C37134   8.823  -0.074  -1.403  0.3089 -0.5945  0.0076
  282MOL0     C37135   8.821   0.066  -1.460  0.3078  0.0675 -0.4612
  282MOL0    Cl37136   8.741   0.074  -1.627 -0.0776  0.6725  0.2115
  282MOL0     C37137   8.551  -0.382  -0.642  0.2931 -0.5519  0.1682
  282MOL0     C37138   8.440  -0.394  -0.551  0.2779  0.1084  0.1557
  282MOL0     O37139   8.498  -0.505  -0.196 -0.2198  0.4848 -0.4038
  282MOL0     C37140   8.151  -0.475  -0.161  1.6538  0.5535 -0.7767
  282MOL0     C37141   8.054  -0.460  -0.056  0.2951  0.4425 -0.5007
  282MOL0     N37142   7.649  -0.579   0.636 -0.3668  0.8208  0.7022
  282MOL0     N37143   7.611  -0.497   0.724  0.3511  0.4324  0.2112
  282MOL0     C37144   7.479   0.357   1.604  0.8916  0.0136 -0.7405
  282MOL0     C37145   7.513   0.396   1.738 -0.4696  0.5748 -0.6617
  282MOL0     C37146   7.574   0.412   2.193 -0.3953 -0.4394  0.3689
  282MOL0     C37147   7.583   0.367   2.325  0.3857  0.5117  0.6805
  282MOL0     C37148   7.603   0.456   2.424  0.0558  0.3028 -1.1047
  282MOL0     C37149   7.642   0.585   2.397  0.2682 -0.2020  0.1138
  282MOL0     O37150   7.687   0.667   2.496  0.1471 -0.8537 -0.1154
  282MOL0     C37151   7.762   0.785   2.459 -0.6576  0.2444  0.2346
  282MOL0     C37152   7.857   0.834   2.566 -0.7251  0.9235  0.3075
  282MOL0     C37153   7.943   0.719   2.596 -0.3003 -0.1230 -0.2034
  282MOL0     C37154   8.049   0.743   2.704  0.4304 -0.2787 -0.1279
  282MOL0     C37155   8.170   0.671   2.681 -0.4734  0.8985 -0.6523
  282MOL0     C37156   8.286   0.632   2.672  0.0370 -0.0786  0.6687
  282MOL0     C37157   7.615   0.639   2.268 -0.0091  0.5984 -0.0790
  282MOL0     C37158   7.586   0.546   2.171 -0.3918 -0.5752 -0.3873
  282MOL0     H37159   7.588   0.108   1.888  0.7369 -1.1562 -0.7757
  282MOL0     H37160   7.532   0.019   1.670 -1.3213  1.3542 -1.5078
  282MOL0     H37161   7.443  -0.029   1.470 -1.5027 -2.6090 -1.9843
  282MOL0     H37162   7.561   0.049   1.351 -1.8222  2.3302 -2.1884
  282MOL0     H37163   7.340   0.128   1.239 -1.5521 -0.7131 -0.4377
  282MOL0     H37164   7.267   0.028   1.368  1.9942 -1.0357  1.8449
  282MOL0     H37165   7.349  -0.175   1.279  3.5118 -1.5472  0.2276
  282MOL0     H37166   7.463  -0.086   1.175 -0.7056  1.2757 -1.7690
  282MOL0     H37167   7.148  -0.071   1.142 -0.3666 -1.5011 -1.2815
  282MOL0     H37168   7.261   0.009   1.051 -2.6341 -0.4676  0.2906
  282MOL0     H37169   7.172  -0.167   0.939  0.7737 -2.2729 -1.5595
  282MOL0     H37170   7.229  -0.286   1.052 -4.0463  2.0780  2.0818
  282MOL0     H37171   7.485  -0.211   0.998 -2.2481 -1.9006  2.7227
  282MOL0     H37172   7.402  -0.086   0.894  1.1415 -0.3689 -1.4783
  282MOL0     H37173   7.398  -0.387   0.878 -1.6079 -0.6853 -0.7713
  282MOL0     H37174   7.294  -0.282   0.779  1.2338  0.6139 -0.7820
  282MOL0     H37175   7.598  -0.245   0.798  0.9994 -1.9157 -0.4288
  282MOL0     H37176   7.491  -0.202   0.660  2.5628 -0.8906 -1.0178
  282MOL0     H37177   7.469  -0.364   0.463  1.5033 -1.6109 -2.6041
  282MOL0     H37178   7.484  -0.628   0.370  0.7833  0.5627 -1.8580
  282MOL0     H37179   7.647  -0.702   0.402 -0.6162 -0.2043  1.0525
  282MOL0     H37180   7.597  -0.417   0.300  2.1116  0.1836  2.1448
  282MOL0     H37181   7.592  -0.531   0.182 -0.7746  2.3585  0.1211
  282MOL0     H37182   7.812  -0.443   0.384 -0.5419  1.7957 -1.4907
  282MOL0     H37183   7.838  -0.606   0.326  0.4995  0.3542 -1.4011
  282MOL0     H37184   7.831  -0.378   0.123 -1.9983 -0.8725 -0.7249
  282MOL0     H37185   7.830  -0.542   0.088 -1.6520  0.4688  0.7644
  282MOL0     H37186   8.250  -0.528   0.217 -0.3556 -2.1233 -0.5759
  282MOL0     H37187   8.418  -0.541   0.029  0.2465  1.3879 -1.9427
  282MOL0     H37188   8.538  -0.675  -0.394 -3.2743 -0.4122  0.7554
  282MOL0     H37189   8.712  -0.673  -0.583 -2.1668 -1.8986  1.8322
  282MOL0     H37190   8.923  -0.512  -0.774  0.3391  0.5062 -0.5258
  282MOL0     H37191   8.859  -0.407  -0.637  0.1698 -0.4893  0.3693
  282MOL0     H37192   8.963  -0.254  -0.797  3.2381 -5.9837 -0.1212
  282MOL0     H37193   8.788  -0.236  -0.818  1.1068  1.0726 -1.5328
  282MOL0     H37194   8.799  -0.402  -1.002  1.4715 -2.3036 -0.6062
  282MOL0     H37195   8.973  -0.380  -1.008  1.0661 -0.2446 -0.6158
  282MOL0     H37196   8.770  -0.144  -1.020  0.0265 -0.9557  0.9874
  282MOL0     H37197   8.952  -0.130  -1.004  0.8584 -1.7550  1.4509
  282MOL0     H37198   8.786  -0.262  -1.225 -1.1205  0.3464  1.1835
  282MOL0     H37199   8.963  -0.261  -1.228  1.2480  0.6566  2.0112
  282MOL0     H37200   8.970  -0.025  -1.250  0.1235 -1.2789 -1.9243
  282MOL0     H37201   8.798  -0.004  -1.202 -1.6642 -1.1783 -1.6391
  282MOL0     H37202   8.892  -0.138  -1.459  0.9082 -0.1122  0.1890
  282MOL0     H37203   8.724  -0.120  -1.415 -0.1468 -0.0241  1.4510
  282MOL0     H37204   8.925   0.083  -1.489  0.5571 -3.8381 -2.4730
  282MOL0     H37205   8.780   0.128  -1.379 -2.1193  0.3236 -1.7860
  282MOL0     H37206   8.539  -0.313  -0.724 -0.2764 -1.8466 -0.8820
  282MOL0     H37207   8.366  -0.314  -0.547 -2.4899 -2.3266  0.3282
  282MOL0     H37208   8.110  -0.470  -0.261 -1.0481 -0.6952  0.1728
  282MOL0     H37209   7.947  -0.447  -0.073 -0.2205  0.0878  2.0436
  282MOL0     H37210   7.464   0.437   1.532 -2.6757  0.5604  0.3880
  282MOL0     H37211   7.509   0.500   1.768 -1.5885  0.2654  0.3174
  282MOL0     H37212   7.580   0.264   2.358  4.9165  0.5830  2.0346
  282MOL0     H37213   7.614   0.423   2.527 -0.5058 -1.1054 -1.4827
  282MOL0     H37214   7.705   0.874   2.431  1.0924  0.5177 -2.8770
  282MOL0     H37215   7.819   0.764   2.368  1.0206  0.4339  1.2008
  282MOL0     H37216   7.922   0.915   2.530  1.0332  0.9111  3.0786
  282MOL0     H37217   7.802   0.866   2.655 -0.8790 -0.5706  0.7635
  282MOL0     H37218   7.999   0.678   2.511  0.3967  1.3542 -0.4901
  282MOL0     H37219   7.875   0.640   2.629 -0.3184 -0.0781 -0.1319
  282MOL0     H37220   8.073   0.850   2.708  0.5511 -0.2748 -0.8163
  282MOL0     H37221   8.014   0.724   2.806 -0.2856  2.4138  0.1993
  282MOL0     H37222   8.384   0.590   2.671  0.3742  0.4547  3.3969
  282MOL0     H37223   7.634   0.742   2.239  1.6526  0.3326 -0.0402
  282MOL0     H37224   7.586   0.580   2.068 -0.8056 -2.6257 -1.1101
  283MOL0     O37225   8.010   9.408   1.794 -0.3353 -0.0833  1.1454
  283MOL0     C37226   8.023   9.494   1.879  0.1494 -0.0053  0.5599
  283MOL0     O37227   8.114   9.491   1.978  0.1820  0.2195 -0.7263
  283MOL0     C37228   8.167   9.373   2.024  0.1865 -0.3096  0.4409
  283MOL0     C37229   8.094   9.256   2.035  0.4842  0.2581 -0.4689
  283MOL0     C37230   8.159   9.136   2.068  0.4404  0.3330  0.2548
  283MOL0     C37231   8.297   9.123   2.099  0.6795  0.1239 -0.6413
  283MOL0     O37232   8.363   9.001   2.119 -0.7218 -0.1046  0.3161
  283MOL0     C37233   8.309   8.879   2.046  0.0854 -0.9193 -1.0734
  283MOL0     C37234   8.389   8.765   2.088 -0.1187 -0.3021 -0.4875
  283MOL0     C37235   8.363   8.640   2.013  0.5520  0.2269  0.3299
  283MOL0     C37236   8.424   8.520   2.087  0.0949 -0.6172  0.7671
  283MOL0     C37237   8.410   8.390   2.012 -0.1553 -0.4569 -0.4635
  283MOL0     C37238   8.512   8.379   1.898  0.9336 -1.2184 -0.6608
  283MOL0     C37239   8.516   8.244   1.852 -0.9574 -1.2270 -0.0275
  283MOL0     C37240   8.641   8.217   1.761 -0.6053 -0.6514 -0.3322
  283MOL0     N37241   8.681   8.317   1.667 -0.4873  0.2941 -0.1539
  283MOL0     C37242   8.777   8.418   1.677 -0.5362 -0.5723  0.2673
  283MOL0     C37243   8.766   8.492   1.560  0.3413  0.5680  0.3081
  283MOL0     C37244   8.852   8.609   1.532  0.2287 -1.5537  0.5637
  283MOL0     C37245   8.784   8.741   1.582 -0.3304  0.2064  0.5312
  283MOL0     C37246   8.887   8.855   1.586  0.4990 -0.1737 -0.3482
  283MOL0     C37247   8.989   8.859   1.465 -1.3603 -1.1862  0.0747
  283MOL0     O37248   9.044   8.988   1.479 -0.0402 -0.1964 -0.4159
  283MOL0     C37249   9.123   9.043   1.385  0.3222  0.1810  0.1092
  283MOL0     C37250   9.191   9.166   1.425 -0.7567 -0.5820  0.2413
  283MOL0     C37251   9.287   9.221   1.333  0.7129  0.1161 -1.1711
  283MOL0     C37252   9.319   9.154   1.216 -0.1532  0.0302 -0.5624
  283MOL0     C37253   9.419   9.202   1.129 -0.2343 -0.4113 -0.5319
  283MOL0     O37254   9.534   9.255   1.194  0.9075  0.1232 -0.2443
  283MOL0     C37255   9.631   9.295   1.109  0.1524 -0.3366 -0.3541
  283MOL0     C37256   9.669   9.421   1.053 -0.1859 -0.4123 -0.9927
  283MOL0     C37257   9.762   9.445   0.953 -0.1272  1.0919  0.1884
  283MOL0     C37258   9.847   9.335   0.923  0.2273 -0.1615 -0.7574
  283MOL0     O37259   9.950   9.362   0.838  0.0963 -0.1867  0.3094
  283MOL0     C37260  10.049   9.456   0.885 -0.9570 -0.3163  0.0628
  283MOL0     C37261  10.193   9.433   0.832  0.2740 -0.0032  0.2427
  283MOL0     C37262  10.262   9.333   0.919 -0.7970 -0.2102  0.6918
  283MOL0     C37263  10.407   9.315   0.853  0.3547 -0.3952  1.0161
  283MOL0     C37264  10.498   9.238   0.951  0.0883 -0.8148 -0.1470
  283MOL0     C37265  10.479   9.094   0.954 -0.2380  0.1383 -0.0941
  283MOL0     C37266  10.528   9.010   1.077  0.8249  0.2572 -0.3322
  283MOL0     C37267  10.566   8.868   1.044  0.9474  0.5547  0.0455
  283MOL0    Cl37268  10.710   8.868   0.934 -0.0203  0.5686  0.5240
  283MOL0     C37269   9.836   9.209   0.985 -0.2613 -0.2358 -0.5906
  283MOL0     C37270   9.728   9.192   1.069  0.4969 -1.6610  0.4912
  283MOL0     O37271   9.407   9.192   1.009  0.1421 -0.6230 -0.5513
  283MOL0     C37272   9.241   9.041   1.185  0.3536  0.0577  0.1971
  283MOL0     C37273   9.146   8.984   1.264  0.0070 -0.0346 -0.3720
  283MOL0     N37274   8.654   8.448   1.490  0.0292 -0.2984  0.4585
  283MOL0     N37275   8.610   8.342   1.555 -0.4687  0.1245  0.1849
  283MOL0     C37276   8.370   9.249   2.107 -0.3020 -1.0437 -0.4764
  283MOL0     C37277   8.310   9.370   2.056 -0.3321  0.1008  0.3227
  283MOL0     C37278   7.922   9.600   1.871  0.5823 -1.0242  0.7261
  283MOL0     C37279   7.894   9.687   1.980 -0.1480 -0.5761 -0.5550
  283MOL0     C37280   7.802   9.792   1.970 -0.2320  0.6636  1.2125
  283MOL0     C37281   7.718   9.808   1.856 -0.7200  0.7990  1.1853
  283MOL0     O37282   7.608   9.893   1.849 -0.4002 -0.2165 -0.1374
  283MOL0     C37283   7.590  10.006   1.935  0.1929  0.5536  0.1014
  283MOL0     C37284   7.683  10.124   1.917  0.2340  0.0115  0.8811
  283MOL0     C37285   7.682  10.176   1.764  0.0186 -0.0338 -0.8369
  283MOL0     C37286   7.795  10.133   1.676 -0.8278 -1.0397 -0.0128
  283MOL0     C37287   7.768  10.203   1.547 -0.5715 -0.2901 -0.2152
  283MOL0     C37288   7.743  10.255   1.437 -0.0319  0.8733  0.5027
  283MOL0     C37289   7.740   9.721   1.754 -0.3415  0.2460  0.2967
  283MOL0     C37290   7.836   9.614   1.762 -0.5049 -0.4255  0.4340
  283MOL0     H37291   7.989   9.245   2.010  0.6304 -0.6196 -0.7176
  283MOL0     H37292   8.104   9.045   2.090  1.8934  0.1922  4.2592
  283MOL0     H37293   8.289   8.885   1.939 -2.1163 -2.1303 -0.8027
  283MOL0     H37294   8.206   8.858   2.078 -0.4454 -0.4441 -2.3781
  283MOL0     H37295   8.354   8.741   2.189  0.7948 -0.3727 -0.1786
  283MOL0     H37296   8.496   8.789   2.083  0.3160 -1.7488  1.2063
  283MOL0     H37297   8.404   8.648   1.912 -0.4568 -0.6071 -0.1657
  283MOL0     H37298   8.256   8.619   2.007  0.5201  0.1503  1.0835
  283MOL0     H37299   8.529   8.543   2.107  0.0624  1.5604 -1.1605
  283MOL0     H37300   8.382   8.515   2.188 -1.3588 -0.1331  0.2121
  283MOL0     H37301   8.315   8.386   1.958 -0.3372 -3.1564 -0.1099
  283MOL0     H37302   8.413   8.309   2.085  0.3022 -0.0286 -0.0029
  283MOL0     H37303   8.615   8.399   1.930 -0.4717  2.7251  2.2961
  283MOL0     H37304   8.480   8.449   1.820  0.6519  1.1788  1.4815
  283MOL0     H37305   8.520   8.166   1.929  0.6640 -0.4131  0.7514
  283MOL0     H37306   8.431   8.218   1.789 -0.4898 -0.7063 -0.8968
  283MOL0     H37307   8.625   8.124   1.705 -0.2587  1.0390 -3.5064
  283MOL0     H37308   8.731   8.196   1.821 -0.5627 -1.0517 -0.5320
  283MOL0     H37309   8.843   8.442   1.760 -1.3140 -0.0794  0.7517
  283MOL0     H37310   8.872   8.610   1.424  0.5713  0.0164  0.6104
  283MOL0     H37311   8.951   8.603   1.578  0.4253 -0.5855  0.2959
  283MOL0     H37312   8.753   8.717   1.684 -1.3039  1.3578  0.5292
  283MOL0     H37313   8.711   8.783   1.513  1.1642  2.6253  0.2983
  283MOL0     H37314   8.832   8.949   1.580 -1.4229 -1.1993  0.4556
  283MOL0     H37315   8.959   8.842   1.668  2.5940 -0.7384 -2.1987
  283MOL0     H37316   8.937   8.846   1.369 -0.4921  2.2043 -0.9800
  283MOL0     H37317   9.063   8.780   1.482 -2.5414 -2.0634  1.3392
  283MOL0     H37318   9.173   9.205   1.525 -0.6997 -0.9850  0.4090
  283MOL0     H37319   9.326   9.314   1.373 -0.7069  1.4726 -2.7784
  283MOL0     H37320   9.604   9.507   1.062 -0.6223 -0.7729 -0.5886
  283MOL0     H37321   9.777   9.546   0.915 -3.4646  1.0777 -1.5126
  283MOL0     H37322  10.059   9.441   0.992 -1.4721  0.4082  0.2231
  283MOL0     H37323  10.028   9.559   0.855  1.2147  0.0627 -0.3366
  283MOL0     H37324  10.249   9.526   0.843 -0.6322  0.6312 -0.3410
  283MOL0     H37325  10.188   9.410   0.725  0.4941 -2.0577  0.6258
  283MOL0     H37326  10.212   9.236   0.907 -0.1897 -0.3798 -0.7687
  283MOL0     H37327  10.270   9.355   1.025  0.5377 -3.3595  1.3640
  283MOL0     H37328  10.413   9.275   0.751  0.4209 -0.2217  0.9517
  283MOL0     H37329  10.449   9.415   0.844  0.0321 -0.4032 -0.8559
  283MOL0     H37330  10.503   9.287   1.048 -1.6877  0.9590 -0.8735
  283MOL0     H37331  10.600   9.260   0.917 -0.6329 -0.2159 -2.0390
  283MOL0     H37332  10.548   9.066   0.873 -0.4890  0.3225 -0.3734
  283MOL0     H37333  10.377   9.059   0.934 -1.4760  2.1244  2.2670
  283MOL0     H37334  10.616   9.059   1.119  1.4360 -0.6539 -0.5135
  283MOL0     H37335  10.462   9.005   1.163  2.3744  1.6869  1.0013
  283MOL0     H37336  10.487   8.825   0.981  1.0984  1.1483 -0.5652
  283MOL0     H37337  10.578   8.798   1.127 -4.4555  1.5209  2.0196
  283MOL0     H37338   9.908   9.131   0.961 -0.9283 -0.2748 -2.6303
  283MOL0     H37339   9.713   9.091   1.107  3.3179 -2.0943  0.6261
  283MOL0     H37340   9.256   8.999   1.086  2.4412 -0.3734  0.6462
  283MOL0     H37341   9.087   8.896   1.239 -0.3042  0.5013 -1.5871
  283MOL0     H37342   8.474   9.243   2.136 -0.0961 -3.0036 -1.4386
  283MOL0     H37343   8.377   9.455   2.044 -0.4910  0.3810  1.2797
  283MOL0     H37344   7.967   9.689   2.060 -0.2937 -0.5030 -0.4244
  283MOL0     H37345   7.779   9.866   2.046 -1.3459 -1.7783  3.4632
  283MOL0     H37346   7.588   9.978   2.041 -0.8364 -1.0977 -0.3103
  283MOL0     H37347   7.485  10.031   1.917 -0.9377 -2.0612  2.1741
  283MOL0     H37348   7.652  10.197   1.993  0.0818 -0.5768  1.4007
  283MOL0     H37349   7.781  10.095   1.956  0.5949  0.4725  0.3199
  283MOL0     H37350   7.675  10.285   1.769 -0.1436 -0.1024  2.5405
  283MOL0     H37351   7.589  10.138   1.721 -2.0825  2.5886  1.0794
  283MOL0     H37352   7.886  10.164   1.727 -1.6161 -1.4370  1.6845
  283MOL0     H37353   7.799  10.024   1.669  1.3333 -0.9387 -2.0445
  283MOL0     H37354   7.702  10.304   1.352  0.5649  1.7197  0.6957
  283MOL0     H37355   7.681   9.726   1.664 -2.2806 -0.9134  1.4355
  283MOL0     H37356   7.851   9.555   1.672  0.0177  1.3301 -0.6906
  284MOL0     O37357   7.589   4.973  10.313 -0.2996  0.2864  0.2105
  284MOL0     C37358   7.569   4.997  10.429 -0.8632  0.3601  0.7768
  284MOL0     O37359   7.562   4.897  10.520 -0.2579  0.2674  0.5398
  284MOL0     C37360   7.575   4.760  10.510 -0.3296 -0.2941 -0.1432
  284MOL0     C37361   7.631   4.684  10.407 -0.5764 -0.4001  0.2514
  284MOL0     C37362   7.623   4.550  10.405 -0.4467  0.1766 -0.3006
  284MOL0     C37363   7.555   4.483  10.508 -0.6395  0.0223  0.1801
  284MOL0     O37364   7.545   4.343  10.517  0.3068  0.4470 -0.1956
  284MOL0     C37365   7.518   4.267  10.405 -0.7794  0.5598 -0.6606
  284MOL0     C37366   7.503   4.126  10.454  0.8408 -0.5801  0.1125
  284MOL0     C37367   7.458   4.032  10.337 -0.0094  0.4381  0.3173
  284MOL0     C37368   7.418   3.896  10.395 -0.7070  0.3675 -0.2772
  284MOL0     C37369   7.364   3.797  10.297  0.4051 -0.5710 -0.2304
  284MOL0     C37370   7.472   3.762  10.199  0.4461  0.3542  0.6531
  284MOL0     C37371   7.426   3.630  10.125 -0.4912 -0.0777 -0.7021
  284MOL0     C37372   7.451   3.497  10.206 -0.4297 -0.9589  0.5366
  284MOL0     N37373   7.449   3.380  10.122 -0.3184  0.8244 -0.1318
  284MOL0     C37374   7.567   3.316  10.062  0.5698 -0.2102 -0.0658
  284MOL0     C37375   7.521   3.189  10.023  0.3413  0.2154 -0.5427
  284MOL0     C37376   7.589   3.077   9.943  0.4807  0.4634 -0.8689
  284MOL0     C37377   7.567   3.092   9.793  0.4892  0.0047 -0.6696
  284MOL0     C37378   7.681   3.035   9.710 -0.4011  0.0978  0.7363
  284MOL0     C37379   7.703   2.886   9.740  0.0221 -0.8949  0.2107
  284MOL0     O37380   7.580   2.807   9.725  0.6716 -0.2474 -0.8360
  284MOL0     C37381   7.546   2.709   9.818  0.0034  0.0543 -1.0480
  284MOL0     C37382   7.635   2.660   9.918  0.4908 -0.6021  0.5227
  284MOL0     C37383   7.588   2.563  10.011  0.3641 -0.5657 -0.7010
  284MOL0     C37384   7.463   2.502  10.005  0.2013 -1.4722 -0.0273
  284MOL0     C37385   7.411   2.413  10.102 -0.2317  0.8688 -0.3028
  284MOL0     O37386   7.280   2.432  10.143  0.1647  0.1734 -0.1326
  284MOL0     C37387   7.209   2.339  10.219 -0.1104 -0.5162 -0.5058
  284MOL0     C37388   7.250   2.220  10.281  0.1443 -0.8224 -0.7835
  284MOL0     C37389   7.164   2.127  10.346 -0.1492  0.8223 -0.3043
  284MOL0     C37390   7.032   2.169  10.355 -0.1078 -1.4253 -0.2009
  284MOL0     O37391   6.930   2.095  10.411  1.3258 -0.3499 -0.5617
  284MOL0     C37392   6.892   1.976  10.344  0.6776 -0.7018  0.0790
  284MOL0     C37393   6.817   1.868  10.432 -0.3359  0.2089  0.2166
  284MOL0     C37394   6.686   1.930  10.455  0.9559  1.3318  0.6094
  284MOL0     C37395   6.622   1.841  10.558 -0.7994 -1.0107 -0.7500
  284MOL0     C37396   6.467   1.857  10.545  0.0399  0.9152 -0.5194
  284MOL0     C37397   6.399   1.977  10.614 -1.4463  0.4293  0.2057
  284MOL0     C37398   6.390   1.947  10.765 -0.9587  0.5129  1.1056
  284MOL0     C37399   6.258   2.008  10.814 -0.1664  0.1369 -0.5189
  284MOL0    Cl37400   6.103   1.951  10.724 -0.4336 -0.4512 -0.1511
  284MOL0     C37401   6.989   2.289  10.302 -0.4077  0.1285  0.1042
  284MOL0     C37402   7.077   2.375  10.233 -0.4517 -0.5989 -0.4145
  284MOL0     O37403   7.483   2.316  10.131 -0.1033 -0.7431  0.1052
  284MOL0     C37404   7.370   2.565   9.918 -0.2480  0.5433  0.3013
  284MOL0     C37405   7.411   2.665   9.827 -0.0804  0.4599  0.2250
  284MOL0     N37406   7.390   3.172  10.051  0.3498 -0.9999 -0.1357
  284MOL0     N37407   7.353   3.280  10.112 -0.2726  0.6472  0.4414
  284MOL0     C37408   7.509   4.560  10.620  1.0465  0.4962  0.5220
  284MOL0     C37409   7.519   4.695  10.619 -0.9040  1.3198  0.1414
  284MOL0     C37410   7.566   5.137  10.469  0.3600  0.3979 -0.1150
  284MOL0     C37411   7.528   5.167  10.601  0.4863 -0.6594 -0.0425
  284MOL0     C37412   7.509   5.301  10.636  0.1406  0.1460  0.0277
  284MOL0     C37413   7.535   5.406  10.535 -1.0323  0.6111 -1.0288
  284MOL0     O37414   7.521   5.533  10.557  1.0339 -0.5306 -0.0658
  284MOL0     C37415   7.551   5.583  10.685  0.3357 -0.0730 -0.5512
  284MOL0     C37416   7.567   5.742  10.682  0.3367  0.3039  0.3663
  284MOL0     C37417   7.429   5.801  10.707  0.3419  0.3215 -0.1507
  284MOL0     C37418   7.396   5.947  10.755 -1.2271 -0.0946 -0.6755
  284MOL0     C37419   7.502   5.997  10.848  0.1637 -0.4467 -1.2940
  284MOL0     C37420   7.584   6.027  10.926 -0.3924  0.2403 -0.1923
  284MOL0     C37421   7.565   5.375  10.407  1.1544  0.3502  0.3179
  284MOL0     C37422   7.586   5.242  10.375  0.4672 -0.0414  0.1295
  284MOL0     H37423   7.669   4.738  10.320 -2.8956 -2.0666 -1.9309
  284MOL0     H37424   7.659   4.499  10.317  1.6038  3.3691 -1.4723
  284MOL0     H37425   7.596   4.283  10.331  0.2285 -2.4651 -0.3734
  284MOL0     H37426   7.418   4.292  10.368 -1.6658 -3.7708 -1.7071
  284MOL0     H37427   7.425   4.115  10.531  0.4785 -2.3253 -0.4495
  284MOL0     H37428   7.595   4.098  10.506  1.1473  0.1952 -0.0043
  284MOL0     H37429   7.546   4.020  10.273  2.2548  0.4859  3.1790
  284MOL0     H37430   7.374   4.083  10.289  0.6230  1.0786 -0.1314
  284MOL0     H37431   7.512   3.855  10.431  0.7162  3.2008 -0.5059
  284MOL0     H37432   7.332   3.922  10.458 -1.0581 -0.4133 -0.4204
  284MOL0     H37433   7.276   3.844  10.253  0.7524  0.1202 -0.1935
  284MOL0     H37434   7.325   3.706  10.344  2.6716 -1.4527  0.0909
  284MOL0     H37435   7.574   3.755  10.239  0.6952  1.2818  0.2017
  284MOL0     H37436   7.476   3.843  10.126 -2.1084 -1.4848 -1.7253
  284MOL0     H37437   7.318   3.637  10.109 -0.1784  1.1571 -2.4565
  284MOL0     H37438   7.473   3.618  10.028 -1.1055 -0.2516 -0.9837
  284MOL0     H37439   7.386   3.484  10.293  2.5080 -0.9320  2.8948
  284MOL0     H37440   7.551   3.511  10.248  0.5615  2.8590 -2.5030
  284MOL0     H37441   7.661   3.368  10.046  0.5435 -0.0491  0.2871
  284MOL0     H37442   7.542   2.983   9.975  0.4635  0.4968 -0.7967
  284MOL0     H37443   7.693   3.078   9.978 -1.1912 -0.5324  5.2346
  284MOL0     H37444   7.558   3.199   9.776 -0.1200  0.2832  1.1316
  284MOL0     H37445   7.476   3.035   9.771  0.6639  0.8245 -4.0278
  284MOL0     H37446   7.649   3.018   9.606  0.6131 -1.2765  0.6163
  284MOL0     H37447   7.770   3.098   9.712  0.5264 -1.0886 -0.8780
  284MOL0     H37448   7.746   2.888   9.841  1.7722  2.2010 -0.4539
  284MOL0     H37449   7.782   2.854   9.672  1.5174 -1.8209  2.2548
  284MOL0     H37450   7.742   2.679   9.916  0.8258 -1.9078  2.8051
  284MOL0     H37451   7.664   2.541  10.085  0.8881 -2.6077 -1.7516
  284MOL0     H37452   7.351   2.180  10.273 -0.2760 -1.8144 -1.2251
  284MOL0     H37453   7.188   2.027  10.382  1.5650  1.4708  0.4691
  284MOL0     H37454   6.979   1.923  10.304  1.1622  0.8976 -1.0872
  284MOL0     H37455   6.828   2.008  10.261 -1.4395  2.7534  2.7564
  284MOL0     H37456   6.864   1.831  10.523 -0.6504 -0.0726  0.2701
  284MOL0     H37457   6.814   1.780  10.367  2.7067  1.1279 -1.3455
  284MOL0     H37458   6.627   1.914  10.365  0.4180 -1.6970  1.3718
  284MOL0     H37459   6.691   2.034  10.486 -2.0057  1.0029  2.5879
  284MOL0     H37460   6.643   1.736  10.535  1.9252 -0.6175 -0.4003
  284MOL0     H37461   6.656   1.871  10.657 -0.9195 -1.2352 -0.6390
  284MOL0     H37462   6.426   1.764  10.583 -0.7071  0.1446 -3.0105
  284MOL0     H37463   6.437   1.850  10.440  0.4086 -1.8767 -0.5155
  284MOL0     H37464   6.304   2.004  10.566 -0.9230  0.4064 -0.8760
  284MOL0     H37465   6.453   2.072  10.610 -2.0900  0.7664 -0.9911
  284MOL0     H37466   6.384   1.839  10.783  0.2649  0.4249  1.0402
  284MOL0     H37467   6.475   1.987  10.822  0.6838 -0.8199 -0.2938
  284MOL0     H37468   6.267   2.117  10.824 -1.3130  0.0571  2.6189
  284MOL0     H37469   6.247   1.970  10.916  1.1613 -3.7104 -1.6397
  284MOL0     H37470   6.886   2.318  10.317  0.1564  1.8865  0.8783
  284MOL0     H37471   7.038   2.461  10.178 -0.1492 -0.3557 -0.2527
  284MOL0     H37472   7.266   2.535   9.916  0.1363 -1.1988  2.9815
  284MOL0     H37473   7.337   2.701   9.756 -1.1878 -1.4373  0.3456
  284MOL0     H37474   7.455   4.505  10.696  0.3825  2.0268  1.1952
  284MOL0     H37475   7.488   4.744  10.711 -1.0352 -2.4971  2.3335
  284MOL0     H37476   7.517   5.093  10.679 -1.9712  1.0784  1.3744
  284MOL0     H37477   7.474   5.316  10.737 -3.0209 -0.5479 -0.8467
  284MOL0     H37478   7.650   5.551  10.718  1.2766  3.4625  0.3949
  284MOL0     H37479   7.477   5.546  10.757  1.0547  1.6095  1.1042
  284MOL0     H37480   7.632   5.756  10.769 -1.9537  2.3793  1.8892
  284MOL0     H37481   7.616   5.771  10.589  0.7196 -2.7542 -0.4951
  284MOL0     H37482   7.403   5.739  10.793 -0.7041  3.2544  1.8096
  284MOL0     H37483   7.344   5.776  10.643 -3.3040  0.6322  4.0801
  284MOL0     H37484   7.392   6.016  10.671  5.3246  4.8443  2.1769
  284MOL0     H37485   7.299   5.944  10.806 -0.7430  2.0808  0.5045
  284MOL0     H37486   7.653   6.040  11.008 -0.5457 -1.9807  0.3574
  284MOL0     H37487   7.583   5.451  10.331 -2.3864  0.4843 -0.5503
  284MOL0     H37488   7.614   5.210  10.275  0.3116  0.0552  0.0561
  285MOL0     O37489   9.749   7.655   8.696 -0.4065 -0.8744 -0.1606
  285MOL0     C37490   9.857   7.594   8.724  0.6187 -0.9388  0.2677
  285MOL0     O37491   9.866   7.504   8.820 -0.3512 -0.0885 -0.6264
  285MOL0     C37492   9.765   7.461   8.894 -0.4350  0.1512  0.1438
  285MOL0     C37493   9.665   7.536   8.960  0.8072 -0.2683  0.1348
  285MOL0     C37494   9.550   7.468   9.015 -1.9514  1.1191  0.2842
  285MOL0     C37495   9.555   7.334   9.042  0.1055  0.8117 -0.1764
  285MOL0     O37496   9.462   7.291   9.130  0.1553  0.0424  0.4501
  285MOL0     C37497   9.499   7.170   9.199 -0.4587 -0.0742 -0.2384
  285MOL0     C37498   9.379   7.142   9.292 -0.0237  0.5909 -0.8346
  285MOL0     C37499   9.335   7.254   9.394 -0.8268 -0.0993  0.2544
  285MOL0     C37500   9.447   7.282   9.491 -0.0296  0.9419 -0.3211
  285MOL0     C37501   9.390   7.399   9.583 -0.3950 -0.2372  0.1492
  285MOL0     C37502   9.495   7.422   9.693  0.2194  0.0708 -1.5871
  285MOL0     C37503   9.493   7.553   9.765 -0.5845 -1.0641  0.3419
  285MOL0     C37504   9.533   7.528   9.910 -0.7797  0.4856 -0.6384
  285MOL0     N37505   9.524   7.655   9.991  0.0504 -0.1807  0.6125
  285MOL0     C37506   9.405   7.689  10.057 -0.6628 -0.1861 -0.9968
  285MOL0     C37507   9.410   7.824  10.078 -0.1130  0.2190  0.4844
  285MOL0     C37508   9.321   7.915  10.150  0.2094 -0.1237  0.9893
  285MOL0     C37509   9.248   7.845  10.260 -0.3292  0.2963  0.0353
  285MOL0     C37510   9.121   7.773  10.211  0.5204  0.1268 -0.3431
  285MOL0     C37511   9.014   7.882  10.207  0.3955  0.1701  0.5927
  285MOL0     O37512   8.966   7.918  10.334 -0.1226 -0.3583 -0.2596
  285MOL0     C37513   8.871   7.847  10.410 -0.0364 -0.4160 -1.1026
  285MOL0     C37514   8.830   7.721  10.382 -0.1159  0.4472 -1.1041
  285MOL0     C37515   8.759   7.649  10.478  0.5829  0.6442  0.5796
  285MOL0     C37516   8.709   7.709  10.598 -0.0396 -0.5736  0.0070
  285MOL0     C37517   8.642   7.638  10.712  0.5547 -0.8856 -0.3827
  285MOL0     O37518   8.687   7.504  10.755  0.4085  0.7206  0.1680
  285MOL0     C37519   8.661   7.459  10.885 -0.3517  0.0212 -0.4842
  285MOL0     C37520   8.633   7.536  10.999  0.7801  0.1043 -0.0188
  285MOL0     C37521   8.605   7.474  11.121 -0.0863  0.4486 -0.8017
  285MOL0     C37522   8.629   7.337  11.136 -0.3741  0.2959  1.0665
  285MOL0     O37523   8.614   7.296  11.265  0.5760 -0.6060 -0.0814
  285MOL0     C37524   8.624   7.156  11.286 -0.2965  0.2890 -0.4171
  285MOL0     C37525   8.580   7.106  11.427  0.1053 -0.0077  0.9132
  285MOL0     C37526   8.443   7.152  11.453  0.3130 -0.1274 -0.2747
  285MOL0     C37527   8.374   7.078  11.571  0.6952 -0.3119  0.2029
  285MOL0     C37528   8.250   7.166  11.602 -0.4869 -0.4399 -0.9380
  285MOL0     C37529   8.158   7.102  11.707 -0.9433  0.2160 -1.1560
  285MOL0     C37530   8.016   7.152  11.705  0.0822  0.8645  0.1721
  285MOL0     C37531   7.931   7.056  11.800  0.5141 -0.4317  0.8647
  285MOL0    Cl37532   7.759   7.116  11.795 -0.3341  0.4364 -0.5647
  285MOL0     C37533   8.659   7.247  11.024 -0.3514 -0.1832  0.2856
  285MOL0     C37534   8.668   7.318  10.906  0.0450 -0.0339  0.0433
  285MOL0     O37535   8.536   7.694  10.758  0.4220  0.1953  0.0504
  285MOL0     C37536   8.738   7.847  10.620 -0.3078 -0.4972  1.1542
  285MOL0     C37537   8.819   7.913  10.528  0.0918  0.1665 -1.3996
  285MOL0     N37538   9.528   7.860  10.012  0.0395 -0.2290 -0.3005
  285MOL0     N37539   9.585   7.761   9.949 -0.2442 -0.1520 -0.6383
  285MOL0     C37540   9.662   7.257   8.983  0.4150  0.7159  0.8615
  285MOL0     C37541   9.765   7.320   8.915  0.4894  1.7548  0.7145
  285MOL0     C37542   9.974   7.627   8.646  0.5174 -0.1173  0.7832
  285MOL0     C37543   9.968   7.662   8.511  0.5088  0.1815 -0.2105
  285MOL0     C37544  10.077   7.688   8.441 -0.2182 -0.6714  0.0216
  285MOL0     C37545  10.201   7.702   8.505 -0.2826  0.5881 -0.1236
  285MOL0     O37546  10.318   7.742   8.436  0.1206 -0.2841 -0.1662
  285MOL0     C37547  10.322   7.781   8.298 -0.1126  0.8650  0.7179
  285MOL0     C37548  10.285   7.930   8.302  0.0959  0.0342  0.7938
  285MOL0     C37549  10.303   7.978   8.155 -0.4141  0.6635  0.5503
  285MOL0     C37550  10.260   8.117   8.119  1.4012 -0.9034 -0.5897
  285MOL0     C37551  10.297   8.142   7.987  0.4755  1.1169 -0.9083
  285MOL0     C37552  10.340   8.163   7.873  1.1810 -0.1187  0.4060
  285MOL0     C37553  10.211   7.676   8.645 -0.6935  0.5207  0.6226
  285MOL0     C37554  10.095   7.629   8.709 -0.9442 -0.3910 -0.7600
  285MOL0     H37555   9.681   7.643   8.970  0.1885 -0.3835  3.5097
  285MOL0     H37556   9.474   7.529   9.061 -1.6378  1.7324  0.0086
  285MOL0     H37557   9.586   7.187   9.263  0.3992 -3.4668 -0.3146
  285MOL0     H37558   9.514   7.079   9.140 -2.7466  0.1644 -1.3066
  285MOL0     H37559   9.400   7.056   9.358  3.5263  1.9332  0.0281
  285MOL0     H37560   9.305   7.109   9.219  1.3695  0.0057 -2.0444
  285MOL0     H37561   9.251   7.221   9.456 -0.7899  0.8990  0.8481
  285MOL0     H37562   9.305   7.340   9.333  1.5561  2.8031  2.8912
  285MOL0     H37563   9.482   7.190   9.537 -3.1750 -0.5284 -0.6345
  285MOL0     H37564   9.536   7.310   9.433  0.9200 -0.8731  0.1783
  285MOL0     H37565   9.288   7.387   9.621  0.2611 -2.1174  1.4445
  285MOL0     H37566   9.407   7.492   9.529  3.4717  0.8484  2.8000
  285MOL0     H37567   9.600   7.416   9.664  0.9737 -2.4572  1.1563
  285MOL0     H37568   9.480   7.339   9.763  1.9178  0.7345 -0.3883
  285MOL0     H37569   9.570   7.617   9.722 -3.1664  1.8025 -0.3282
  285MOL0     H37570   9.403   7.614   9.753  1.0909  1.0005 -3.0216
  285MOL0     H37571   9.638   7.499   9.912 -0.5292  1.3933  0.2214
  285MOL0     H37572   9.467   7.453   9.953 -0.1168 -0.6987 -1.6373
  285MOL0     H37573   9.323   7.624  10.086  1.1451 -1.4345  1.7563
  285MOL0     H37574   9.251   7.965  10.082  0.3035 -1.2852 -0.0027
  285MOL0     H37575   9.374   8.003  10.189  0.2606 -0.3566  1.4553
  285MOL0     H37576   9.228   7.923  10.334  0.4471  0.2632  0.2854
  285MOL0     H37577   9.314   7.773  10.309  1.8988  0.3214 -2.6686
  285MOL0     H37578   9.148   7.720  10.120  1.5516  0.2590 -0.1276
  285MOL0     H37579   9.087   7.698  10.283 -2.7936  0.0047 -1.8742
  285MOL0     H37580   8.927   7.842  10.155  1.3644 -2.7415  1.0256
  285MOL0     H37581   9.055   7.972  10.161 -0.6583  0.7276  0.7162
  285MOL0     H37582   8.868   7.666  10.296 -0.8829 -0.8826 -0.6139
  285MOL0     H37583   8.740   7.543  10.465 -0.0290  0.6639  1.2810
  285MOL0     H37584   8.614   7.643  10.992 -3.8435 -0.4116  0.9779
  285MOL0     H37585   8.571   7.533  11.205 -3.0998 -0.6293 -1.1340
  285MOL0     H37586   8.731   7.134  11.277 -0.4367  0.0094 -1.5855
  285MOL0     H37587   8.561   7.099  11.217 -1.3520  1.0222 -0.0868
  285MOL0     H37588   8.653   7.135  11.502  2.1542 -3.2103  0.3869
  285MOL0     H37589   8.571   6.997  11.426  2.3724 -0.3140  3.0932
  285MOL0     H37590   8.393   7.124  11.359 -0.3251 -1.2407  0.3804
  285MOL0     H37591   8.437   7.261  11.467  1.1676 -0.0531 -0.4481
  285MOL0     H37592   8.340   6.980  11.536  2.1639 -0.8422  0.1982
  285MOL0     H37593   8.436   7.067  11.660  1.9427  2.7330 -0.1600
  285MOL0     H37594   8.192   7.180  11.510  1.9470  0.8077 -2.4213
  285MOL0     H37595   8.284   7.264  11.637  0.4868 -1.5922  1.5541
  285MOL0     H37596   8.190   7.130  11.807 -1.7758  1.7304 -1.2862
  285MOL0     H37597   8.177   6.995  11.717 -2.6081  0.0836  1.8260
  285MOL0     H37598   8.009   7.250  11.752  0.3991  1.0529 -0.1748
  285MOL0     H37599   7.971   7.157  11.605 -1.3814  3.0244  0.8706
  285MOL0     H37600   7.960   7.061  11.905  3.5883 -1.0777  0.1273
  285MOL0     H37601   7.933   6.951  11.772 -5.2833 -0.1358 -2.2705
  285MOL0     H37602   8.666   7.139  11.026 -2.1590 -0.4685 -2.7060
  285MOL0     H37603   8.709   7.262  10.823  0.3011 -0.2735  0.3257
  285MOL0     H37604   8.692   7.907  10.698  0.5798  0.8762  0.6588
  285MOL0     H37605   8.848   8.014  10.558  1.3560 -0.5734 -0.0177
  285MOL0     H37606   9.658   7.149   8.975  0.1962  0.7728  0.0998
  285MOL0     H37607   9.849   7.271   8.866 -0.1015 -0.7792  2.0580
  285MOL0     H37608   9.871   7.648   8.465 -0.0702 -1.2087  1.3367
  285MOL0     H37609  10.060   7.712   8.337  3.7718  2.1888 -0.2037
  285MOL0     H37610  10.263   7.718   8.231 -0.6969  0.4078  1.6396
  285MOL0     H37611  10.428   7.786   8.271  1.0013 -2.9434  3.5770
  285MOL0     H37612  10.185   7.956   8.336  0.1320 -2.1979  2.8647
  285MOL0     H37613  10.357   7.974   8.372 -0.7852  2.0344  0.5223
  285MOL0     H37614  10.241   7.907   8.100  0.9323 -3.2064  3.6095
  285MOL0     H37615  10.409   7.978   8.128 -0.9033  1.3159 -1.6101
  285MOL0     H37616  10.153   8.137   8.130  1.9161  1.4638  1.0570
  285MOL0     H37617  10.318   8.196   8.167  1.1923 -0.4352 -1.0972
  285MOL0     H37618  10.350   8.189   7.770  1.2646 -1.3452  0.0901
  285MOL0     H37619  10.304   7.703   8.694  0.5626  0.9807 -1.8513
  285MOL0     H37620  10.097   7.610   8.816  0.7771  0.5215 -0.6098
  286MOL0     O37621   3.276   5.113   5.314  0.5952  0.3997 -0.4850
  286MOL0     C37622   3.190   5.128   5.407  0.0199 -0.1852  0.9019
  286MOL0     O37623   3.177   5.047   5.508  0.1469 -0.9860 -0.8636
  286MOL0     C37624   3.267   4.945   5.542 -0.4216 -0.3115 -0.4627
  286MOL0     C37625   3.404   4.949   5.514 -0.3639 -1.2233  0.7884
  286MOL0     C37626   3.490   4.841   5.551 -0.2386 -0.0510  0.3233
  286MOL0     C37627   3.431   4.722   5.602 -0.1611 -0.4932  0.3067
  286MOL0     O37628   3.521   4.626   5.632  0.1169  0.1060 -0.1896
  286MOL0     C37629   3.484   4.492   5.622 -0.3043  0.5406  0.1392
  286MOL0     C37630   3.427   4.427   5.756  0.6542  0.7484  0.3104
  286MOL0     C37631   3.470   4.274   5.766  0.2483  0.1474 -0.7260
  286MOL0     C37632   3.430   4.232   5.909  0.0619  0.1695 -0.6767
  286MOL0     C37633   3.449   4.074   5.920  0.2647 -0.2798 -0.1605
  286MOL0     C37634   3.594   4.041   5.959 -0.0839 -0.4499 -0.0099
  286MOL0     C37635   3.622   3.895   5.963  0.0639  0.3821  0.4119
  286MOL0     C37636   3.752   3.855   6.042 -0.9302  0.0655  0.0025
  286MOL0     N37637   3.876   3.910   5.969  0.3514  0.1484 -0.7762
  286MOL0     C37638   3.983   3.953   6.030 -0.1184  0.3604  0.9651
  286MOL0     C37639   4.083   3.965   5.946 -0.7841  0.2245  0.6218
  286MOL0     C37640   4.221   4.017   5.980  0.2977 -0.7097  0.3284
  286MOL0     C37641   4.318   4.019   5.857 -0.0543 -1.2761  0.4987
  286MOL0     C37642   4.375   3.889   5.801  0.5534  1.2756 -1.3772
  286MOL0     C37643   4.462   3.819   5.909 -0.2035 -0.0050  0.8379
  286MOL0     O37644   4.550   3.908   5.982  0.2390 -0.8508 -0.7726
  286MOL0     C37645   4.609   3.864   6.095 -0.2092  0.7048  0.3873
  286MOL0     C37646   4.552   3.762   6.174 -0.2391  0.5854 -0.9078
  286MOL0     C37647   4.626   3.717   6.282  0.2397  0.2508 -0.1962
  286MOL0     C37648   4.731   3.782   6.340 -0.4899  0.5757  0.0472
  286MOL0     C37649   4.795   3.745   6.470  1.0375 -0.1343 -0.0548
  286MOL0     O37650   4.919   3.794   6.508 -0.1423  0.3233  0.4134
  286MOL0     C37651   4.957   3.766   6.635 -0.4115 -0.3979 -0.5517
  286MOL0     C37652   5.022   3.646   6.671  0.8223  0.2603  0.1687
  286MOL0     C37653   5.055   3.620   6.801 -0.0228  0.1969  1.4438
  286MOL0     C37654   5.050   3.720   6.898  0.5183 -1.1800 -0.7568
  286MOL0     O37655   5.090   3.685   7.025 -0.4831  0.4837  0.6361
  286MOL0     C37656   5.093   3.766   7.145  0.9440 -0.5818  0.4377
  286MOL0     C37657   5.219   3.864   7.148 -0.2827 -0.7177  0.5484
  286MOL0     C37658   5.187   3.930   7.287  0.0133  0.3767 -0.5297
  286MOL0     C37659   5.319   3.990   7.330  0.6286  0.0751  0.3627
  286MOL0     C37660   5.313   4.081   7.441  0.3367 -0.0015  0.3074
  286MOL0     C37661   5.425   4.172   7.445 -0.0863  1.6184  0.9010
  286MOL0     C37662   5.431   4.247   7.582 -0.5188 -0.2040 -0.9192
  286MOL0     C37663   5.549   4.344   7.587  0.7827 -0.2316 -0.5843
  286MOL0    Cl37664   5.713   4.273   7.575 -0.1571 -0.2106  0.3975
  286MOL0     C37665   4.989   3.847   6.870 -0.7494 -0.5343 -0.1909
  286MOL0     C37666   4.947   3.865   6.736  0.3416 -0.2586 -0.8417
  286MOL0     O37667   4.733   3.663   6.540 -0.2431  0.0404  0.7885
  286MOL0     C37668   4.788   3.886   6.258  0.2537 -0.5420 -0.1987
  286MOL0     C37669   4.721   3.935   6.140 -0.4307  0.5688  0.5675
  286MOL0     N37670   4.026   3.930   5.822  1.0001 -0.5931 -0.0693
  286MOL0     N37671   3.905   3.896   5.840 -0.3563  0.7714  0.0861
  286MOL0     C37672   3.284   4.719   5.621 -0.4229  0.2117 -0.1894
  286MOL0     C37673   3.205   4.824   5.584 -0.3560 -0.0640  0.4971
  286MOL0     C37674   3.085   5.231   5.396 -0.2313  0.3946 -0.2638
  286MOL0     C37675   2.959   5.217   5.447  0.2322 -0.7919 -0.7076
  286MOL0     C37676   2.862   5.314   5.420 -0.5102 -0.4374  0.7152
  286MOL0     C37677   2.896   5.422   5.347  0.0576 -0.9694 -0.0980
  286MOL0     O37678   2.811   5.514   5.302  0.4545  0.0485  0.1182
  286MOL0     C37679   2.666   5.499   5.325 -0.5632  1.0077 -0.1058
  286MOL0     C37680   2.594   5.618   5.284  0.4202  0.0752  0.7118
  286MOL0     C37681   2.438   5.581   5.300 -0.4451 -0.3866  0.8177
  286MOL0     C37682   2.349   5.656   5.206  0.4499 -0.5301  0.6754
  286MOL0     C37683   2.360   5.592   5.079  0.2004  0.5859  0.3169
  286MOL0     C37684   2.361   5.538   4.970 -0.3661  0.6671  0.0249
  286MOL0     C37685   3.028   5.444   5.300  1.0407  0.0747 -0.3934
  286MOL0     C37686   3.116   5.343   5.320 -0.5563 -1.1416 -0.3274
  286MOL0     H37687   3.461   5.030   5.470 -2.6215  0.4264  0.6748
  286MOL0     H37688   3.597   4.849   5.535 -0.5129  0.5717 -1.3400
  286MOL0     H37689   3.567   4.424   5.603 -1.3916 -1.0639  0.8943
  286MOL0     H37690   3.412   4.468   5.542  0.2850 -2.0858  0.3168
  286MOL0     H37691   3.318   4.435   5.764  0.3000 -2.3570 -0.1837
  286MOL0     H37692   3.466   4.466   5.850 -0.2981  0.5262  0.8062
  286MOL0     H37693   3.578   4.259   5.755 -0.0025 -1.3801 -1.4272
  286MOL0     H37694   3.428   4.213   5.685  3.4748 -0.1344 -2.3359
  286MOL0     H37695   3.482   4.294   5.982  1.0743 -1.3727 -0.0452
  286MOL0     H37696   3.326   4.257   5.932  1.0675  0.8666  4.2636
  286MOL0     H37697   3.402   4.022   5.836 -1.8978  0.2728  0.6449
  286MOL0     H37698   3.389   4.040   6.005  0.6292 -2.7015 -0.8107
  286MOL0     H37699   3.611   4.064   6.064 -1.2445 -1.7930  0.5074
  286MOL0     H37700   3.663   4.080   5.883  1.7110 -2.4537  0.5003
  286MOL0     H37701   3.534   3.836   5.988  0.0187  0.9542  1.7212
  286MOL0     H37702   3.634   3.867   5.858 -0.8498 -1.2662  0.7199
  286MOL0     H37703   3.770   3.748   6.055  0.3278  0.2515 -0.0312
  286MOL0     H37704   3.748   3.900   6.141  0.5787 -1.3416  0.7624
  286MOL0     H37705   3.984   3.992   6.132 -0.6334  0.1134  1.0685
  286MOL0     H37706   4.269   3.945   6.048  1.0985  0.6067  1.2077
  286MOL0     H37707   4.223   4.119   6.019  3.9057 -0.2409 -0.6854
  286MOL0     H37708   4.399   4.089   5.879  0.6986 -2.1574  0.6080
  286MOL0     H37709   4.264   4.070   5.776  0.0329  2.4524  2.5611
  286MOL0     H37710   4.295   3.818   5.780  2.0016 -0.7385 -0.3707
  286MOL0     H37711   4.435   3.909   5.712 -0.3587  0.0966 -2.2834
  286MOL0     H37712   4.522   3.744   5.857 -0.9102  0.2358 -0.3626
  286MOL0     H37713   4.388   3.771   5.974 -0.7473  0.2573  0.4236
  286MOL0     H37714   4.460   3.716   6.139 -0.4609  2.9473 -3.7345
  286MOL0     H37715   4.597   3.623   6.328 -0.7005 -0.1544 -1.5469
  286MOL0     H37716   5.033   3.573   6.592 -3.1713 -2.0682  1.4926
  286MOL0     H37717   5.083   3.519   6.831 -4.8563 -1.7706  0.2581
  286MOL0     H37718   5.106   3.696   7.228  0.0563 -3.1356 -1.4245
  286MOL0     H37719   5.000   3.822   7.151  1.4861  0.2082  2.0482
  286MOL0     H37720   5.213   3.944   7.072  1.9605  2.5527  3.4951
  286MOL0     H37721   5.317   3.816   7.156  1.1339  2.2400  2.9627
  286MOL0     H37722   5.149   3.857   7.359  1.9427 -1.8428 -1.5967
  286MOL0     H37723   5.113   4.007   7.264  0.0586  0.7799  0.6363
  286MOL0     H37724   5.388   3.911   7.361  0.1760 -0.9251 -1.0503
  286MOL0     H37725   5.349   4.042   7.239 -3.5693  2.2389 -0.0058
  286MOL0     H37726   5.300   4.022   7.533 -3.0635  0.9051  0.5218
  286MOL0     H37727   5.225   4.146   7.439  1.0682  0.9940 -1.7061
  286MOL0     H37728   5.418   4.240   7.360 -0.5253  0.2820 -0.1733
  286MOL0     H37729   5.521   4.120   7.438 -1.4034 -0.8746  0.1245
  286MOL0     H37730   5.334   4.296   7.593  0.2306  1.1462  0.0039
  286MOL0     H37731   5.447   4.166   7.654  0.1567  1.9869  1.5720
  286MOL0     H37732   5.549   4.409   7.675  2.2275  0.3150 -0.9644
  286MOL0     H37733   5.526   4.419   7.511 -2.9296  1.8532  2.2375
  286MOL0     H37734   4.987   3.929   6.941  0.4608 -0.7670  0.1465
  286MOL0     H37735   4.902   3.959   6.707 -0.2851  0.1269  1.1874
  286MOL0     H37736   4.883   3.932   6.285  0.3757  0.5963 -2.3790
  286MOL0     H37737   4.765   4.016   6.083  0.2579  0.4388  0.9168
  286MOL0     H37738   3.242   4.630   5.667  0.5999 -0.8370 -1.2243
  286MOL0     H37739   3.096   4.821   5.586 -0.4763  2.2691 -0.1357
  286MOL0     H37740   2.920   5.130   5.499 -0.3722  0.0149  0.2035
  286MOL0     H37741   2.762   5.298   5.458 -0.7452  0.5707  0.5304
  286MOL0     H37742   2.643   5.504   5.432  1.3870 -1.3668  0.5075
  286MOL0     H37743   2.617   5.406   5.292 -0.6824  1.6920 -1.9509
  286MOL0     H37744   2.625   5.708   5.337  1.4776  0.4688 -0.5585
  286MOL0     H37745   2.622   5.636   5.180 -0.5221  1.4858  0.6796
  286MOL0     H37746   2.428   5.630   5.398 -0.8051  2.0964 -0.3666
  286MOL0     H37747   2.419   5.474   5.306 -1.7155 -0.1364  1.7974
  286MOL0     H37748   2.247   5.649   5.243  1.7992 -2.2400  4.6917
  286MOL0     H37749   2.390   5.756   5.224 -0.1316 -0.0325 -0.6953
  286MOL0     H37750   2.357   5.494   4.872 -4.9004  0.2798  0.2068
  286MOL0     H37751   3.046   5.531   5.237 -3.4015  1.3006 -0.3278
  286MOL0     H37752   3.216   5.362   5.285 -0.9926  2.5571  0.0343
  287MOL0     O37753   2.511   3.001   5.179  0.3226 -0.0349 -0.6465
  287MOL0     C37754   2.472   3.000   5.067  0.3429  0.3980 -0.2231
  287MOL0     O37755   2.338   2.997   5.033 -0.2503  0.0751 -0.2819
  287MOL0     C37756   2.242   3.000   5.128 -0.4298 -0.2908  0.1519
  287MOL0     C37757   2.142   3.106   5.127 -0.3541  0.1836 -0.3179
  287MOL0     C37758   2.046   3.127   5.227  0.5261 -0.2155 -0.5050
  287MOL0     C37759   2.031   3.030   5.328 -1.3330  1.1188  0.2296
  287MOL0     O37760   1.925   3.032   5.426  0.1009  0.7771  0.4129
  287MOL0     C37761   1.963   3.009   5.570  0.8698 -1.0111  0.1500
  287MOL0     C37762   1.994   3.148   5.632  0.7012 -0.1921 -0.7110
  287MOL0     C37763   1.990   3.140   5.790  0.6756 -0.6036 -1.0181
  287MOL0     C37764   1.854   3.099   5.846  0.9131  1.4605 -0.7119
  287MOL0     C37765   1.817   3.127   5.994 -0.2903  0.2439  0.0442
  287MOL0     C37766   1.678   3.084   6.022  0.3205 -0.0087 -0.3984
  287MOL0     C37767   1.664   2.955   6.089  0.0887  0.7579  0.1689
  287MOL0     C37768   1.697   2.822   6.002 -0.5157 -0.3209 -0.5225
  287MOL0     N37769   1.631   2.710   6.070 -0.2415  1.1974 -1.2145
  287MOL0     C37770   1.528   2.623   6.021 -0.8334  1.2335  0.1927
  287MOL0     C37771   1.508   2.536   6.124 -0.2069 -1.6046  0.2966
  287MOL0     C37772   1.436   2.400   6.143  0.8958  0.7804  0.0188
  287MOL0     C37773   1.274   2.426   6.147 -0.3263  1.1182  0.1513
  287MOL0     C37774   1.194   2.292   6.143 -0.3956 -1.1778 -0.3701
  287MOL0     C37775   1.042   2.327   6.158  0.8265  0.4029 -0.9124
  287MOL0     O37776   1.016   2.403   6.282  0.7062 -0.3936  0.1912
  287MOL0     C37777   0.949   2.342   6.386  0.5420 -0.6919 -0.2043
  287MOL0     C37778   0.816   2.382   6.422 -0.4623  0.0198 -0.0271
  287MOL0     C37779   0.739   2.306   6.511  0.2225 -0.0570  0.5333
  287MOL0     C37780   0.781   2.185   6.570 -0.2775  0.4118  0.4519
  287MOL0     C37781   0.689   2.096   6.648  0.0554 -0.3312 -0.2833
  287MOL0     O37782   0.732   1.973   6.670  0.3083 -0.7596  0.6050
  287MOL0     C37783   0.677   1.883   6.760  0.0859  0.0599 -0.4788
  287MOL0     C37784   0.606   1.913   6.880  0.7231 -0.2463 -0.3503
  287MOL0     C37785   0.574   1.820   6.978 -0.2839  1.4548  0.3713
  287MOL0     C37786   0.593   1.679   6.954 -0.5030 -0.3679  0.8457
  287MOL0     O37787   0.552   1.593   7.044  0.1905 -0.3002 -0.6839
  287MOL0     C37788   0.598   1.457   7.044 -0.3373  0.2060  0.0823
  287MOL0     C37789   0.504   1.354   6.998 -0.2479 -0.1279  0.6602
  287MOL0     C37790   0.576   1.220   6.982 -0.4660  0.3950 -0.4441
  287MOL0     C37791   0.476   1.114   6.929 -0.3271 -0.1325 -0.4440
  287MOL0     C37792   0.529   0.989   6.862  0.1667 -0.2039 -0.1253
  287MOL0     C37793   0.632   0.917   6.955 -0.2763  0.9846 -0.7388
  287MOL0     C37794   0.776   0.970   6.948 -0.7442  0.6210 -0.2943
  287MOL0     C37795   0.863   0.860   7.003  0.8259 -0.0070 -0.3220
  287MOL0    Cl37796   1.034   0.882   6.956  0.1010  0.1483 -0.2414
  287MOL0     C37797   0.649   1.646   6.831 -0.1704  1.0735  0.2379
  287MOL0     C37798   0.694   1.743   6.741 -0.0517  0.0797 -0.3944
  287MOL0     O37799   0.586   2.148   6.684  0.5379 -0.3775 -0.3061
  287MOL0     C37800   0.914   2.144   6.539  0.6488  0.0050  0.4413
  287MOL0     C37801   0.999   2.223   6.447 -0.5099  0.0317 -0.3063
  287MOL0     N37802   1.588   2.581   6.233  0.4419  0.2228  0.2935
  287MOL0     N37803   1.675   2.664   6.198  0.2804 -0.1737  0.6636
  287MOL0     C37804   2.126   2.923   5.335  0.9290 -0.7984 -0.4720
  287MOL0     C37805   2.225   2.909   5.240 -0.2177  0.8737 -0.0296
  287MOL0     C37806   2.590   2.998   4.968 -0.2184  0.3997 -0.7627
  287MOL0     C37807   2.727   3.004   5.013 -0.1553  0.3805  0.7949
  287MOL0     C37808   2.826   3.013   4.906  0.1492 -0.2070  0.7524
  287MOL0     C37809   2.804   2.997   4.767 -0.5248  0.6477 -0.3067
  287MOL0     O37810   2.901   2.988   4.666 -0.3201  0.4169  0.5179
  287MOL0     C37811   3.043   2.998   4.702  0.8315  1.1244 -0.3594
  287MOL0     C37812   3.090   3.138   4.726 -0.2478  0.1868  0.5429
  287MOL0     C37813   3.120   3.209   4.597  0.4426 -1.0295  0.2322
  287MOL0     C37814   3.198   3.333   4.608  0.2764 -0.5206 -0.3483
  287MOL0     C37815   3.123   3.439   4.685 -0.0202 -0.1637  0.3346
  287MOL0     C37816   3.067   3.529   4.749  0.9943  0.6613  1.1337
  287MOL0     C37817   2.673   2.989   4.730 -0.3127  0.7654 -0.5794
  287MOL0     C37818   2.567   2.991   4.827 -0.5827 -0.6265 -0.8024
  287MOL0     H37819   2.150   3.172   5.041  2.4779 -1.3328 -1.3647
  287MOL0     H37820   1.983   3.216   5.231  2.5966  1.2992  0.3145
  287MOL0     H37821   2.058   2.955   5.576  2.0206  0.7997 -1.0598
  287MOL0     H37822   1.872   2.971   5.618  1.8074 -0.3425  2.6487
  287MOL0     H37823   1.912   3.214   5.603  0.9395  0.3937 -0.0778
  287MOL0     H37824   2.083   3.193   5.586  0.3715  0.5853 -0.6150
  287MOL0     H37825   2.021   3.235   5.835 -0.5187  0.2101 -1.8599
  287MOL0     H37826   2.059   3.062   5.824  0.2344 -0.5424  0.0458
  287MOL0     H37827   1.776   3.136   5.779 -1.5032 -0.9800  0.5772
  287MOL0     H37828   1.856   2.990   5.846 -0.8084  1.3104  2.2210
  287MOL0     H37829   1.832   3.234   6.011  2.6476 -0.4213  2.7258
  287MOL0     H37830   1.885   3.076   6.062 -3.3703  0.4825  3.6237
  287MOL0     H37831   1.611   3.085   5.935 -1.3471 -1.1289  0.8072
  287MOL0     H37832   1.644   3.159   6.093 -3.3421 -1.7041 -0.1225
  287MOL0     H37833   1.727   2.963   6.179  0.2954  1.0495 -0.0016
  287MOL0     H37834   1.561   2.932   6.117 -0.8760 -2.3804 -4.7018
  287MOL0     H37835   1.806   2.807   6.002  0.0090  2.4392  2.1687
  287MOL0     H37836   1.659   2.826   5.900 -0.4655 -2.8251 -0.6873
  287MOL0     H37837   1.485   2.611   5.922 -0.4853 -2.7732  0.3924
  287MOL0     H37838   1.478   2.353   6.232  2.2494 -0.6016 -1.2987
  287MOL0     H37839   1.453   2.333   6.058 -0.3132  1.2876 -0.6585
  287MOL0     H37840   1.240   2.487   6.063 -1.0611  0.5871  0.0577
  287MOL0     H37841   1.248   2.484   6.237  0.1438  0.6698  0.5799
  287MOL0     H37842   1.205   2.234   6.051  1.0892  0.4300 -1.2630
  287MOL0     H37843   1.228   2.231   6.228 -0.2511  0.3631  0.7222
  287MOL0     H37844   0.989   2.231   6.161 -0.8327  1.2916  0.6345
  287MOL0     H37845   1.002   2.387   6.076  0.1574  1.3524  0.0626
  287MOL0     H37846   0.785   2.480   6.391  2.8668  1.0632 -0.4990
  287MOL0     H37847   0.639   2.343   6.533  1.0752  1.0685  2.7947
  287MOL0     H37848   0.583   2.014   6.912 -0.7210 -0.2209 -1.3593
  287MOL0     H37849   0.518   1.848   7.066 -0.7124 -0.1318  0.6172
  287MOL0     H37850   0.594   1.434   7.151  0.3607 -1.9593 -0.3032
  287MOL0     H37851   0.703   1.440   7.017 -0.1123  0.6312  0.6554
  287MOL0     H37852   0.455   1.374   6.902  2.1878  0.5510 -0.5036
  287MOL0     H37853   0.426   1.331   7.071  0.2353 -3.0480  0.3793
  287MOL0     H37854   0.619   1.192   7.078 -2.3159  1.5287  0.7734
  287MOL0     H37855   0.653   1.225   6.905 -0.6267  1.9621 -0.5290
  287MOL0     H37856   0.406   1.086   7.008 -0.3723 -1.9275 -1.0857
  287MOL0     H37857   0.425   1.173   6.852  1.3543  3.5333  0.9738
  287MOL0     H37858   0.573   1.020   6.767  0.5444  0.5155  0.2850
  287MOL0     H37859   0.443   0.921   6.854 -0.1221 -0.1545  1.9495
  287MOL0     H37860   0.630   0.814   6.918 -0.8221  0.6075  0.3052
  287MOL0     H37861   0.603   0.910   7.060 -1.1411 -0.5885 -1.0608
  287MOL0     H37862   0.804   1.000   6.847 -2.0459  6.8000  0.7922
  287MOL0     H37863   0.804   1.067   6.991  1.9480  1.0117 -2.6110
  287MOL0     H37864   0.838   0.762   6.961  1.5414 -0.6147  0.6402
  287MOL0     H37865   0.858   0.859   7.112 -1.3358  1.8976 -0.3293
  287MOL0     H37866   0.661   1.545   6.791 -0.3305  1.5986 -1.1892
  287MOL0     H37867   0.736   1.712   6.646  1.1252  1.6226 -0.4061
  287MOL0     H37868   0.951   2.045   6.565 -3.4426 -2.1412 -0.8993
  287MOL0     H37869   1.101   2.190   6.429  0.0410  1.6322 -0.2470
  287MOL0     H37870   2.120   2.848   5.414 -0.3308 -2.0848 -1.7293
  287MOL0     H37871   2.297   2.830   5.258 -0.0805  2.0142  6.7192
  287MOL0     H37872   2.756   3.015   5.117 -2.6221  3.3946  1.2971
  287MOL0     H37873   2.932   3.011   4.931  0.4853  0.2446 -0.5600
  287MOL0     H37874   3.101   2.945   4.627  1.6829  0.9256  0.4221
  287MOL0     H37875   3.067   2.937   4.790 -1.8089 -1.5393 -1.3182
  287MOL0     H37876   3.027   3.200   4.790  0.8868  3.3677 -1.2105
  287MOL0     H37877   3.188   3.128   4.774  0.6630  0.8082 -1.0954
  287MOL0     H37878   3.022   3.228   4.552  2.0054 -1.8132 -3.8714
  287MOL0     H37879   3.172   3.155   4.517 -1.3200  0.2733 -1.9021
  287MOL0     H37880   3.293   3.307   4.656  0.6839  0.9540 -0.3034
  287MOL0     H37881   3.226   3.379   4.513  1.2388 -0.5273 -0.0745
  287MOL0     H37882   3.024   3.609   4.806  0.3137 -0.2099  1.8814
  287MOL0     H37883   2.644   2.976   4.627 -0.1862 -1.7378 -0.3590
  287MOL0     H37884   2.466   2.981   4.788 -0.0257  0.7190 -2.7027
  288MOL0     O37885   2.708   8.418   4.357 -0.1469 -0.2312 -0.3386
  288MOL0     C37886   2.739   8.349   4.255  0.5019  0.4769  0.8398
  288MOL0     O37887   2.830   8.384   4.157 -0.6608 -0.8284 -0.3802
  288MOL0     C37888   2.902   8.499   4.181  0.2250 -0.1670  0.4148
  288MOL0     C37889   3.041   8.486   4.190 -0.2211 -0.0212 -0.1972
  288MOL0     C37890   3.122   8.600   4.176  0.9502 -0.5980 -0.4381
  288MOL0     C37891   3.066   8.721   4.167  1.0352 -0.2486  0.1824
  288MOL0     O37892   3.147   8.831   4.194 -0.2472  0.0313  0.0899
  288MOL0     C37893   3.113   8.948   4.114 -0.0941  0.3768 -0.7509
  288MOL0     C37894   3.194   9.067   4.170 -0.2319  0.2619  0.0996
  288MOL0     C37895   3.156   9.109   4.321  0.4873 -0.0121 -0.0184
  288MOL0     C37896   3.030   9.197   4.317 -0.7284  0.2318  0.1230
  288MOL0     C37897   3.004   9.261   4.454 -0.0756  0.0520 -0.5097
  288MOL0     C37898   2.900   9.376   4.448  0.4353 -0.0355  0.2975
  288MOL0     C37899   2.868   9.448   4.581 -1.0344 -0.5562 -0.9245
  288MOL0     C37900   2.995   9.534   4.611  0.3372  0.2228 -0.1906
  288MOL0     N37901   3.055   9.512   4.742 -0.6196  0.5577  0.6976
  288MOL0     C37902   3.119   9.399   4.787 -0.4815 -0.5724 -0.0516
  288MOL0     C37903   3.135   9.411   4.927 -0.0444 -0.3043  0.0216
  288MOL0     C37904   3.199   9.310   5.028 -0.5483 -0.2848  0.6442
  288MOL0     C37905   3.092   9.233   5.102 -1.0747  0.3677  0.7543
  288MOL0     C37906   3.156   9.148   5.227  0.6850 -0.1439  0.1016
  288MOL0     C37907   3.230   9.029   5.164  0.3429 -0.5319  0.2150
  288MOL0     O37908   3.169   8.972   5.055  0.1022 -1.0305 -0.3353
  288MOL0     C37909   3.233   8.855   5.024  0.8431  0.1490  1.2334
  288MOL0     C37910   3.351   8.854   4.948 -0.1574  0.9014 -0.7682
  288MOL0     C37911   3.412   8.742   4.903  0.9706 -0.3320  0.4916
  288MOL0     C37912   3.364   8.612   4.939 -0.0970  1.2079  0.9880
  288MOL0     C37913   3.430   8.486   4.890  0.0124  0.2261  0.3709
  288MOL0     O37914   3.545   8.515   4.830  0.5749 -0.0628  0.3635
  288MOL0     C37915   3.625   8.415   4.772 -0.5675 -1.3878 -0.3178
  288MOL0     C37916   3.678   8.438   4.639  0.4593 -0.7360 -0.6993
  288MOL0     C37917   3.785   8.371   4.597 -0.0521 -0.2856 -0.1249
  288MOL0     C37918   3.831   8.253   4.670  0.6034  0.1003  0.3186
  288MOL0     O37919   3.941   8.193   4.616  0.2332 -0.2443 -0.5936
  288MOL0     C37920   4.022   8.109   4.701  0.1601 -0.4088  0.8240
  288MOL0     C37921   4.107   8.009   4.627 -0.5173  0.1320  1.1676
  288MOL0     C37922   4.027   7.894   4.552  0.1152  0.2215  0.4693
  288MOL0     C37923   4.112   7.789   4.485  0.3749  1.4136  0.3897
  288MOL0     C37924   4.032   7.661   4.443 -0.3412  0.7092  0.5046
  288MOL0     C37925   4.132   7.578   4.348  0.4715  0.5142 -0.8635
  288MOL0     C37926   4.071   7.438   4.310 -0.2531 -0.3868  0.1266
  288MOL0     C37927   3.987   7.457   4.196  0.2956  0.5392  0.2764
  288MOL0    Cl37928   3.878   7.329   4.144 -0.1278  0.0530  0.1187
  288MOL0     C37929   3.755   8.216   4.779  1.2234 -0.5971 -0.7564
  288MOL0     C37930   3.658   8.295   4.841 -0.3939 -0.3869  0.3418
  288MOL0     O37931   3.378   8.373   4.893 -0.2043 -0.2178  0.1055
  288MOL0     C37932   3.245   8.613   5.009 -0.0840  0.6291  0.0741
  288MOL0     C37933   3.172   8.729   5.044  0.4085 -0.1234  0.1761
  288MOL0     N37934   3.064   9.522   4.962  0.6371 -0.9648 -0.6235
  288MOL0     N37935   3.021   9.580   4.856  0.6046 -1.0488 -1.0471
  288MOL0     C37936   2.923   8.745   4.172 -0.2981 -0.8009 -0.4349
  288MOL0     C37937   2.846   8.631   4.176 -0.0108 -0.0383 -1.1952
  288MOL0     C37938   2.665   8.219   4.237  0.2199  0.0774  0.3425
  288MOL0     C37939   2.555   8.198   4.316  0.4471 -0.0134  0.9126
  288MOL0     C37940   2.461   8.093   4.296 -0.2694  0.3597 -0.0522
  288MOL0     C37941   2.490   8.003   4.191 -0.3745 -0.0292  0.9242
  288MOL0     O37942   2.431   7.879   4.161  0.0657  0.1472  0.0085
  288MOL0     C37943   2.300   7.845   4.208  0.7363 -0.2947  0.7340
  288MOL0     C37944   2.303   7.722   4.281  0.8891  0.5238  0.4272
  288MOL0     C37945   2.339   7.596   4.197 -0.2082 -0.4446 -0.0004
  288MOL0     C37946   2.240   7.564   4.091 -0.4164  0.6779 -0.4991
  288MOL0     C37947   2.293   7.465   3.991  0.4049  0.7243  0.0844
  288MOL0     C37948   2.347   7.392   3.910  0.4197 -0.0387  0.7913
  288MOL0     C37949   2.607   8.019   4.118  0.3466 -1.1304  0.3315
  288MOL0     C37950   2.691   8.128   4.134  0.3151 -0.3550 -0.6640
  288MOL0     H37951   3.090   8.389   4.186 -1.6270 -0.7820  0.4545
  288MOL0     H37952   3.228   8.580   4.184  0.7922 -1.5076 -0.5179
  288MOL0     H37953   3.006   8.966   4.100 -0.0385  1.3798 -0.0166
  288MOL0     H37954   3.155   8.926   4.016  1.8157 -2.8791  0.6265
  288MOL0     H37955   3.202   9.154   4.104 -3.2088  0.9652  0.4873
  288MOL0     H37956   3.298   9.036   4.181  0.0213  1.0220 -0.0745
  288MOL0     H37957   3.236   9.168   4.366  0.2290 -0.6647  1.3538
  288MOL0     H37958   3.140   9.029   4.394  1.8345  1.1364  1.6149
  288MOL0     H37959   3.041   9.272   4.238  0.8986 -1.0831 -0.9698
  288MOL0     H37960   2.968   9.120   4.270  0.8514 -0.4651 -0.9278
  288MOL0     H37961   3.092   9.294   4.511 -0.0978 -3.5965  1.9676
  288MOL0     H37962   2.953   9.179   4.506 -3.1260 -0.0352 -3.3248
  288MOL0     H37963   2.801   9.348   4.408 -0.8582  0.9471  2.6534
  288MOL0     H37964   2.934   9.443   4.368 -0.0881 -0.9703 -0.7509
  288MOL0     H37965   2.788   9.521   4.569 -0.7433 -0.3188 -1.4702
  288MOL0     H37966   2.860   9.372   4.659  1.4043 -2.4637 -2.3485
  288MOL0     H37967   2.977   9.641   4.596  1.8312  0.9576  2.4775
  288MOL0     H37968   3.081   9.511   4.548  0.8230 -1.9408  1.1468
  288MOL0     H37969   3.142   9.306   4.736 -0.0878 -0.1354 -0.6890
  288MOL0     H37970   3.257   9.368   5.100  0.4816  0.6662 -0.8758
  288MOL0     H37971   3.267   9.241   4.978  0.0856  0.9785 -0.3153
  288MOL0     H37972   3.047   9.175   5.021  0.2392 -0.7891  0.8188
  288MOL0     H37973   3.016   9.299   5.145 -1.2806  0.8826 -0.3547
  288MOL0     H37974   3.223   9.212   5.286 -1.4740  0.5293  1.9360
  288MOL0     H37975   3.090   9.108   5.304  0.9576 -2.2695 -0.6752
  288MOL0     H37976   3.252   8.952   5.239  0.2509  0.4225  1.2337
  288MOL0     H37977   3.335   9.054   5.147  0.8139 -2.0954  0.6191
  288MOL0     H37978   3.402   8.944   4.918  2.1940  0.0324  0.3628
  288MOL0     H37979   3.505   8.756   4.848  1.6521 -0.0479  1.6782
  288MOL0     H37980   3.644   8.526   4.586  1.0905 -1.2906 -2.0815
  288MOL0     H37981   3.835   8.402   4.505  1.1875 -1.0317  0.2802
  288MOL0     H37982   3.959   8.049   4.768 -1.3917  2.0290  1.6531
  288MOL0     H37983   4.085   8.167   4.769 -0.4318  2.6979 -1.1257
  288MOL0     H37984   4.190   7.964   4.683 -1.2319 -3.1183 -0.1420
  288MOL0     H37985   4.160   8.067   4.552 -1.0167 -0.5684  0.2556
  288MOL0     H37986   3.959   7.930   4.473  3.7021 -2.5463 -4.4543
  288MOL0     H37987   3.956   7.852   4.624 -0.4022  0.5530  0.1666
  288MOL0     H37988   4.143   7.832   4.390 -2.9510  0.2893 -1.3371
  288MOL0     H37989   4.196   7.765   4.552  1.5340  0.6158 -1.2869
  288MOL0     H37990   3.936   7.684   4.397  0.2117  2.0644 -0.0177
  288MOL0     H37991   4.011   7.605   4.534 -2.3749  0.7169  0.0889
  288MOL0     H37992   4.215   7.547   4.413 -0.7903 -2.7568 -0.6548
  288MOL0     H37993   4.171   7.637   4.264  0.2269 -0.9439 -2.0543
  288MOL0     H37994   4.150   7.365   4.287 -1.4060 -1.5263 -0.3416
  288MOL0     H37995   4.014   7.408   4.398  0.0204 -1.8224 -0.1541
  288MOL0     H37996   4.048   7.461   4.105  1.4228 -0.5293  0.9672
  288MOL0     H37997   3.916   7.540   4.193 -4.4505 -3.0890  0.5461
  288MOL0     H37998   3.774   8.127   4.838 -0.6864 -0.8243 -0.4339
  288MOL0     H37999   3.630   8.265   4.942  0.5923  0.8422  1.0015
  288MOL0     H38000   3.208   8.513   5.030 -0.5261  0.6696 -0.4864
  288MOL0     H38001   3.074   8.736   5.092  0.7680  3.7404  0.6686
  288MOL0     H38002   2.865   8.836   4.158  2.1091  0.8084 -0.5187
  288MOL0     H38003   2.738   8.632   4.163 -0.2912  2.7368  0.6804
  288MOL0     H38004   2.534   8.254   4.407  1.4281  0.4362  0.8725
  288MOL0     H38005   2.382   8.087   4.369  1.9747  0.3684  2.5246
  288MOL0     H38006   2.227   7.843   4.126 -0.0949 -2.4600  1.4387
  288MOL0     H38007   2.256   7.920   4.274  0.4484 -1.1146  1.4882
  288MOL0     H38008   2.380   7.735   4.357  2.6929 -2.0969 -0.8108
  288MOL0     H38009   2.205   7.705   4.328  1.1676  1.0385  1.2075
  288MOL0     H38010   2.355   7.514   4.267  3.3186  2.0817  2.4525
  288MOL0     H38011   2.437   7.607   4.151  0.4647  0.0083  1.4866
  288MOL0     H38012   2.155   7.515   4.140 -0.1715  0.6859 -0.0591
  288MOL0     H38013   2.212   7.656   4.039 -1.0578  3.4298  4.1572
  288MOL0     H38014   2.394   7.336   3.832 -0.5874  0.5112 -0.2445
  288MOL0     H38015   2.634   7.952   4.037 -2.1022 -0.2744 -1.2918
  288MOL0     H38016   2.779   8.150   4.075 -0.8906  5.0384 -0.9898
  289MOL0     O38017   5.158   4.239   7.771  0.5813 -0.1893 -0.4402
  289MOL0     C38018   5.054   4.283   7.833 -0.3478  0.4984 -0.2977
  289MOL0     O38019   4.933   4.284   7.786  0.8806 -0.6223 -0.6548
  289MOL0     C38020   4.903   4.239   7.664 -0.7036  0.2445 -0.0542
  289MOL0     C38021   4.933   4.108   7.642  1.1273  0.1758  0.3305
  289MOL0     C38022   4.901   4.063   7.507 -0.4168  0.5650 -0.7287
  289MOL0     C38023   4.827   4.140   7.416  0.0810  0.1536 -0.1838
  289MOL0     O38024   4.806   4.085   7.297 -0.1314  1.2920  0.5759
  289MOL0     C38025   4.700   4.135   7.213 -0.3892  0.5430  0.3269
  289MOL0     C38026   4.659   4.013   7.130 -0.1000  0.2079  0.7719
  289MOL0     C38027   4.501   3.987   7.145 -0.0284 -0.7614 -0.4861
  289MOL0     C38028   4.481   3.933   7.288  1.1098  0.5010 -0.0090
  289MOL0     C38029   4.336   3.963   7.342 -0.2813  1.5363 -0.7092
  289MOL0     C38030   4.348   3.911   7.492  0.2339  0.1465  0.8433
  289MOL0     C38031   4.212   3.898   7.562 -0.1374 -0.1036 -0.4468
  289MOL0     C38032   4.234   3.827   7.695 -0.1968 -0.0619 -0.5500
  289MOL0     N38033   4.110   3.810   7.770 -0.7216 -0.3705  0.5005
  289MOL0     C38034   4.034   3.697   7.754 -0.7811  0.5894  0.2284
  289MOL0     C38035   3.966   3.689   7.870  0.5315  0.5306 -0.5364
  289MOL0     C38036   3.891   3.564   7.912 -1.0840 -0.1391  0.4741
  289MOL0     C38037   3.742   3.591   7.930  0.2557 -0.6375 -0.3111
  289MOL0     C38038   3.696   3.648   8.053  0.2844  0.1274 -1.6006
  289MOL0     C38039   3.537   3.680   8.052 -1.3794  0.5796 -0.8252
  289MOL0     O38040   3.474   3.565   8.014 -0.3617 -0.0054  0.5350
  289MOL0     C38041   3.338   3.588   8.009  0.0849  1.5216 -0.1631
  289MOL0     C38042   3.272   3.467   7.980  0.4690  0.6752 -0.6709
  289MOL0     C38043   3.136   3.468   7.958 -0.3392  0.4878 -0.1831
  289MOL0     C38044   3.065   3.583   7.985  0.7233  0.1383 -0.7479
  289MOL0     C38045   2.917   3.583   7.955 -0.7196  1.2610 -0.4835
  289MOL0     O38046   2.883   3.667   7.858 -0.7231 -0.6996  0.2271
  289MOL0     C38047   2.755   3.684   7.807 -0.5946  0.0920  0.3151
  289MOL0     C38048   2.734   3.814   7.754  0.1985 -0.1775  0.1394
  289MOL0     C38049   2.595   3.855   7.736 -0.3438  0.5515  0.1067
  289MOL0     C38050   2.490   3.757   7.738 -0.5563 -0.2429  0.6562
  289MOL0     O38051   2.362   3.781   7.708  0.5295  0.1084 -0.1645
  289MOL0     C38052   2.283   3.847   7.801 -0.3633 -0.1332 -0.5335
  289MOL0     C38053   2.134   3.870   7.753 -0.4273 -0.2602  0.0352
  289MOL0     C38054   2.058   3.951   7.860 -0.8103 -0.0116 -0.0722
  289MOL0     C38055   2.023   4.090   7.811 -0.2686  0.4934 -0.3234
  289MOL0     C38056   1.929   4.160   7.910 -0.9594  0.7714  0.2308
  289MOL0     C38057   1.920   4.310   7.896  0.6457 -0.0944 -0.4234
  289MOL0     C38058   2.063   4.365   7.904  0.1699 -0.2326 -0.1682
  289MOL0     C38059   2.067   4.512   7.951  0.0238  0.5479  1.0199
  289MOL0    Cl38060   2.227   4.560   8.025 -0.1311 -0.1640  0.0936
  289MOL0     C38061   2.516   3.626   7.783 -0.5317 -0.5450  0.1826
  289MOL0     C38062   2.647   3.594   7.820  0.4288 -0.2741 -1.1807
  289MOL0     O38063   2.837   3.511   8.024  0.8918  1.0106 -0.3217
  289MOL0     C38064   3.130   3.707   8.010  0.7623  0.5620  0.4716
  289MOL0     C38065   3.265   3.707   8.019 -0.8861 -1.1643  1.2824
  289MOL0     N38066   3.986   3.810   7.946 -0.5020  0.5121  0.2492
  289MOL0     N38067   4.073   3.871   7.891 -0.0989  0.2710  0.0490
  289MOL0     C38068   4.798   4.270   7.451  1.4894 -0.7663  0.1507
  289MOL0     C38069   4.831   4.324   7.581 -0.1971  0.0846 -0.2527
  289MOL0     C38070   5.060   4.333   7.977  0.0217 -0.1218  0.9367
  289MOL0     C38071   4.937   4.368   8.048 -0.8557 -0.1148 -0.7352
  289MOL0     C38072   4.953   4.410   8.186 -0.3548  0.6248  0.1917
  289MOL0     C38073   5.080   4.424   8.247 -0.3350 -0.4786  0.3217
  289MOL0     O38074   5.095   4.442   8.380  0.5412  0.4363  0.5540
  289MOL0     C38075   5.021   4.558   8.431 -0.0205 -0.5434  0.4728
  289MOL0     C38076   4.955   4.525   8.556  0.7771 -1.5135 -0.0259
  289MOL0     C38077   5.069   4.510   8.663 -0.1456 -0.6463 -0.3309
  289MOL0     C38078   4.994   4.493   8.803  0.3569 -0.4885 -0.5143
  289MOL0     C38079   5.076   4.430   8.908 -0.7171 -0.0943 -0.3117
  289MOL0     C38080   5.138   4.370   8.990 -0.2815 -0.4424  0.1666
  289MOL0     C38081   5.191   4.381   8.175 -0.4141 -0.2642 -0.3524
  289MOL0     C38082   5.183   4.333   8.047 -0.5101 -1.0917  0.4195
  289MOL0     H38083   4.988   4.042   7.709  3.2423  0.5765 -0.9126
  289MOL0     H38084   4.948   3.967   7.492  2.0999  1.1633  2.2680
  289MOL0     H38085   4.745   4.226   7.171 -1.1901  1.7747  1.9923
  289MOL0     H38086   4.615   4.180   7.265  0.6559  0.6516  1.9969
  289MOL0     H38087   4.710   3.929   7.176  0.5405 -0.0197 -0.3169
  289MOL0     H38088   4.690   4.026   7.026  3.7061 -1.6379  1.4975
  289MOL0     H38089   4.467   3.903   7.084  0.4218 -1.1328 -0.2310
  289MOL0     H38090   4.436   4.069   7.113 -0.3472 -1.0243 -0.5200
  289MOL0     H38091   4.478   3.824   7.284 -0.4989  0.5104  0.1769
  289MOL0     H38092   4.558   3.955   7.362 -0.2298 -0.3788  1.7256
  289MOL0     H38093   4.266   3.910   7.277  4.5608 -2.9206 -3.0096
  289MOL0     H38094   4.304   4.068   7.347 -0.7686  1.3245  2.0153
  289MOL0     H38095   4.415   3.964   7.560 -1.2445 -1.0167  3.3136
  289MOL0     H38096   4.387   3.810   7.480 -0.2707  0.0004  0.3647
  289MOL0     H38097   4.177   3.997   7.591 -1.5415 -1.0433  1.2764
  289MOL0     H38098   4.142   3.842   7.499 -0.4745  2.3522 -2.4396
  289MOL0     H38099   4.309   3.881   7.754 -0.3318 -0.8080  0.3205
  289MOL0     H38100   4.287   3.732   7.678  1.9319  1.1665 -1.2015
  289MOL0     H38101   4.049   3.621   7.678  1.4880  0.5011  0.6976
  289MOL0     H38102   3.930   3.527   8.007 -1.6822  0.0867  0.8080
  289MOL0     H38103   3.909   3.487   7.836 -1.6024  3.2739 -3.4985
  289MOL0     H38104   3.680   3.505   7.903  1.1629 -1.4034  0.0161
  289MOL0     H38105   3.734   3.671   7.855  2.0916  0.3757  0.5141
  289MOL0     H38106   3.716   3.585   8.140 -0.9152  2.0754  0.1773
  289MOL0     H38107   3.752   3.740   8.067 -0.4262  0.1845  1.5202
  289MOL0     H38108   3.533   3.766   7.984 -3.4894 -1.2456 -3.2538
  289MOL0     H38109   3.510   3.709   8.154 -0.2354 -0.0653 -0.3273
  289MOL0     H38110   3.333   3.380   7.964  1.4789  0.7682  2.0270
  289MOL0     H38111   3.092   3.371   7.939  0.0135  0.2609  0.1446
  289MOL0     H38112   2.816   3.882   7.734 -0.9783  0.5515 -2.6068
  289MOL0     H38113   2.565   3.955   7.705 -2.5077 -0.4600 -1.3972
  289MOL0     H38114   2.325   3.947   7.819 -0.1840 -0.4414  0.9127
  289MOL0     H38115   2.287   3.804   7.901  0.1056 -0.5380 -0.7232
  289MOL0     H38116   2.087   3.775   7.726  0.2110 -0.8080  0.8201
  289MOL0     H38117   2.145   3.932   7.664 -0.5175  2.9590  2.1242
  289MOL0     H38118   2.104   3.937   7.958 -0.2730 -2.7668 -0.6203
  289MOL0     H38119   1.956   3.911   7.863 -0.9995  0.3891 -0.9740
  289MOL0     H38120   2.118   4.143   7.817 -1.8236  3.5389 -0.2784
  289MOL0     H38121   1.982   4.097   7.710 -1.5931  0.3118  0.1750
  289MOL0     H38122   1.970   4.141   8.010  5.5628  1.1002 -1.8878
  289MOL0     H38123   1.835   4.104   7.908  1.2515 -3.3540 -0.4261
  289MOL0     H38124   1.861   4.349   7.980 -0.8841 -2.5169 -0.2743
  289MOL0     H38125   1.867   4.321   7.801 -0.7483  1.1652  0.4475
  289MOL0     H38126   2.128   4.309   7.972  3.6541  1.8600 -1.4848
  289MOL0     H38127   2.108   4.358   7.804  0.4590  2.1775 -0.2736
  289MOL0     H38128   1.988   4.527   8.025  0.0409 -3.0340  1.9516
  289MOL0     H38129   2.063   4.570   7.858  2.0054 -1.1104 -0.1847
  289MOL0     H38130   2.440   3.549   7.784 -1.7187  0.5637  2.6690
  289MOL0     H38131   2.666   3.492   7.849  4.6432  0.9208  1.1584
  289MOL0     H38132   3.069   3.796   8.001  1.1904  0.9259  1.0752
  289MOL0     H38133   3.303   3.808   8.030 -2.2501 -0.5495  0.5040
  289MOL0     H38134   4.748   4.335   7.380  2.2074 -0.4278 -0.0508
  289MOL0     H38135   4.808   4.427   7.607 -0.2324 -0.7756  3.8452
  289MOL0     H38136   4.835   4.382   8.012 -1.7228 -1.1213  1.2137
  289MOL0     H38137   4.862   4.428   8.243  2.1274 -0.7291  5.0647
  289MOL0     H38138   4.933   4.595   8.378  0.7215  0.7804  0.1243
  289MOL0     H38139   5.087   4.643   8.447 -1.8466  0.9238  0.5855
  289MOL0     H38140   4.886   4.601   8.593  2.2504 -0.4572  0.6636
  289MOL0     H38141   4.898   4.434   8.537 -1.6971 -0.2941  1.1807
  289MOL0     H38142   5.134   4.596   8.646  1.3511 -2.0053 -1.9094
  289MOL0     H38143   5.121   4.417   8.636 -0.8072 -0.7583 -1.2871
  289MOL0     H38144   4.955   4.591   8.832  1.5093 -0.4096  0.9199
  289MOL0     H38145   4.911   4.424   8.791  0.2327 -0.3444 -0.4809
  289MOL0     H38146   5.170   4.303   9.067 -0.9105 -1.7393 -0.6706
  289MOL0     H38147   5.289   4.392   8.221  0.8024  1.6489 -3.1516
  289MOL0     H38148   5.277   4.300   8.004 -0.6234 -0.3806 -0.3790
  290MOL0     O38149   9.283   5.527   5.484 -0.2807 -0.1002  0.4059
  290MOL0     C38150   9.274   5.412   5.448  0.0502  0.5995 -0.2785
  290MOL0     O38151   9.283   5.353   5.325  0.4911 -1.0167 -0.1676
  290MOL0     C38152   9.314   5.431   5.215 -0.0415 -0.3277  0.7785
  290MOL0     C38153   9.241   5.423   5.091  0.1961 -0.8612  0.0013
  290MOL0     C38154   9.255   5.511   4.990  1.0529  0.3159  0.7705
  290MOL0     C38155   9.343   5.619   4.999 -1.2047 -0.1978 -0.2864
  290MOL0     O38156   9.342   5.717   4.904  0.0539  0.4566  0.2800
  290MOL0     C38157   9.413   5.846   4.929  0.3988 -0.1206  0.0392
  290MOL0     C38158   9.407   5.936   4.814  0.7750 -0.9895 -0.6978
  290MOL0     C38159   9.266   5.976   4.763 -0.1969  1.0192  0.3129
  290MOL0     C38160   9.168   6.061   4.852  0.2487  0.3594  1.1198
  290MOL0     C38161   9.068   6.126   4.763 -0.5199  0.0366  0.0541
  290MOL0     C38162   8.981   6.230   4.842 -0.6481 -1.2049 -0.0614
  290MOL0     C38163   8.851   6.251   4.770 -0.4562  0.0495 -0.5174
  290MOL0     C38164   8.746   6.146   4.777 -0.1937  0.2190 -0.1859
  290MOL0     N38165   8.644   6.158   4.671  0.4640 -0.6909 -0.3844
  290MOL0     C38166   8.616   6.076   4.566  0.2545  0.4576 -0.1330
  290MOL0     C38167   8.514   6.131   4.494  0.2708 -0.3319  0.2751
  290MOL0     C38168   8.460   6.085   4.355 -0.4689  1.1238 -0.3008
  290MOL0     C38169   8.482   6.184   4.246  0.8968  0.3323 -0.4838
  290MOL0     C38170   8.443   6.120   4.111 -0.0012 -0.5471 -0.4830
  290MOL0     C38171   8.543   6.158   4.002  0.4498  0.1711 -0.4745
  290MOL0     O38172   8.487   6.126   3.871 -0.0652  1.1245  0.0426
  290MOL0     C38173   8.540   6.185   3.768  0.4567 -1.1308  0.6987
  290MOL0     C38174   8.633   6.291   3.769  0.4351 -1.3357 -0.9061
  290MOL0     C38175   8.667   6.360   3.658  0.6124  0.1929 -0.0523
  290MOL0     C38176   8.612   6.330   3.534 -0.3647 -0.2418 -0.1834
  290MOL0     C38177   8.660   6.401   3.409 -0.0455 -0.4469 -0.1607
  290MOL0     O38178   8.619   6.349   3.286 -0.0107 -0.4926 -0.1551
  290MOL0     C38179   8.665   6.383   3.165  0.8229  0.5068  0.6458
  290MOL0     C38180   8.590   6.326   3.060  0.6188  0.1781  0.5181
  290MOL0     C38181   8.616   6.359   2.932  0.1061 -0.3911  0.7805
  290MOL0     C38182   8.724   6.449   2.897 -0.0633  0.2197 -0.3570
  290MOL0     O38183   8.753   6.501   2.778 -0.0768 -0.6845  0.6300
  290MOL0     C38184   8.650   6.491   2.663 -0.0597 -0.2636 -0.5084
  290MOL0     C38185   8.690   6.402   2.550 -0.6977 -0.1180  0.7313
  290MOL0     C38186   8.751   6.260   2.572  0.7241 -0.4219 -0.1166
  290MOL0     C38187   8.774   6.184   2.446  0.0623 -0.1933 -0.1815
  290MOL0     C38188   8.648   6.136   2.367 -0.4730 -0.2882 -0.4354
  290MOL0     C38189   8.565   6.041   2.457 -0.3646  0.3754  0.2157
  290MOL0     C38190   8.446   5.987   2.381  0.4448  0.0264 -0.0581
  290MOL0     C38191   8.402   5.847   2.430  0.3350  0.0097  0.5612
  290MOL0    Cl38192   8.335   5.835   2.595  0.1138 -0.0563 -0.1085
  290MOL0     C38193   8.797   6.498   3.002 -0.0421  0.3934 -0.2768
  290MOL0     C38194   8.767   6.467   3.139  0.0117 -0.0029  0.0171
  290MOL0     O38195   8.715   6.511   3.421  0.5876  0.0708  0.4987
  290MOL0     C38196   8.537   6.209   3.519 -0.5026  0.0117 -0.4042
  290MOL0     C38197   8.511   6.141   3.634  0.1804  0.7851  0.2795
  290MOL0     N38198   8.479   6.241   4.570  0.6755  0.5464  0.3793
  290MOL0     N38199   8.548   6.252   4.679 -0.2872  0.2642 -0.8001
  290MOL0     C38200   9.414   5.632   5.124  0.0223 -0.4018  0.2449
  290MOL0     C38201   9.407   5.536   5.215  0.2540  0.3870 -0.1317
  290MOL0     C38202   9.276   5.307   5.551  0.0840 -0.3963 -0.2438
  290MOL0     C38203   9.288   5.167   5.521  0.5146  0.5381  0.1270
  290MOL0     C38204   9.312   5.066   5.613 -0.2057 -0.1812  0.3788
  290MOL0     C38205   9.321   5.101   5.749  0.3958  0.9721 -1.0673
  290MOL0     O38206   9.342   5.013   5.851 -0.6150 -0.4925 -0.1288
  290MOL0     C38207   9.453   4.918   5.831 -0.3770 -1.1059 -0.0597
  290MOL0     C38208   9.442   4.804   5.937 -0.0693  0.0200 -0.7465
  290MOL0     C38209   9.314   4.725   5.934  0.5132  0.0873  0.2730
  290MOL0     C38210   9.300   4.637   6.055 -0.2062 -0.1003 -0.1086
  290MOL0     C38211   9.252   4.710   6.167 -0.2530  0.1053 -0.2946
  290MOL0     C38212   9.211   4.778   6.254  0.1504  0.7799 -0.7776
  290MOL0     C38213   9.309   5.239   5.783 -0.5566  0.8209  0.0706
  290MOL0     C38214   9.284   5.340   5.685 -0.2251  0.5791 -0.1975
  290MOL0     H38215   9.180   5.335   5.077  2.4250 -2.6027  0.5812
  290MOL0     H38216   9.189   5.502   4.905  4.3312 -0.0956 -1.9556
  290MOL0     H38217   9.516   5.815   4.949 -0.1865 -0.7276  2.4809
  290MOL0     H38218   9.359   5.910   4.999 -0.3761 -1.0724  0.3376
  290MOL0     H38219   9.471   5.894   4.736 -0.3273  0.0917 -2.2366
  290MOL0     H38220   9.459   6.028   4.840 -0.5810  0.1314 -1.8315
  290MOL0     H38221   9.206   5.885   4.761  1.6950 -0.3651  2.3722
  290MOL0     H38222   9.275   6.025   4.665 -2.9334  1.0807  0.0045
  290MOL0     H38223   9.122   6.006   4.934 -1.3875 -0.3313 -0.2023
  290MOL0     H38224   9.219   6.138   4.910  0.6679  2.0692 -1.3237
  290MOL0     H38225   9.004   6.040   4.740 -1.5942  0.6352  0.7369
  290MOL0     H38226   9.119   6.162   4.673  0.4573  2.4455  1.4829
  290MOL0     H38227   9.034   6.323   4.861 -1.1792 -0.4985 -1.7799
  290MOL0     H38228   8.957   6.202   4.945  0.8354  1.3616  1.0818
  290MOL0     H38229   8.797   6.344   4.791 -3.3646 -1.0731 -2.4516
  290MOL0     H38230   8.880   6.256   4.664 -0.8229 -1.5037 -0.7067
  290MOL0     H38231   8.704   6.169   4.876  0.5353 -0.1110  0.2133
  290MOL0     H38232   8.791   6.046   4.776  0.5092  0.2472 -6.1293
  290MOL0     H38233   8.666   5.982   4.546 -0.9391 -0.2880  0.2766
  290MOL0     H38234   8.353   6.067   4.369 -0.3593  2.6853  3.8321
  290MOL0     H38235   8.515   5.993   4.334  0.8373  2.1074 -1.3245
  290MOL0     H38236   8.589   6.204   4.239  0.9594 -0.4446 -2.5018
  290MOL0     H38237   8.419   6.272   4.265 -4.3302 -2.9712 -0.4599
  290MOL0     H38238   8.425   6.012   4.115  2.4331 -1.0082 -0.6713
  290MOL0     H38239   8.343   6.158   4.088 -0.2880 -2.1073 -2.1124
  290MOL0     H38240   8.641   6.113   4.018  1.2904  2.4108  1.1999
  290MOL0     H38241   8.542   6.267   4.010  0.4575  0.5411 -4.0478
  290MOL0     H38242   8.678   6.325   3.862  4.2459 -3.2905 -1.8459
  290MOL0     H38243   8.741   6.438   3.673  0.7876  0.1507 -0.6921
  290MOL0     H38244   8.509   6.256   3.081 -0.2584  1.1443  0.4584
  290MOL0     H38245   8.559   6.322   2.847  0.2318  1.6224 -0.2264
  290MOL0     H38246   8.629   6.590   2.621 -1.0548  0.2304  1.0664
  290MOL0     H38247   8.549   6.469   2.698 -1.4320  1.3443 -3.1332
  290MOL0     H38248   8.763   6.456   2.488 -1.1534  1.9639  1.8948
  290MOL0     H38249   8.598   6.391   2.493  0.1299 -0.0188 -0.6708
  290MOL0     H38250   8.690   6.203   2.643 -1.2104  1.8254  0.1443
  290MOL0     H38251   8.848   6.271   2.622  2.5656 -2.3560 -2.9565
  290MOL0     H38252   8.816   6.248   2.369 -1.4622 -1.9050 -2.6040
  290MOL0     H38253   8.838   6.097   2.462 -0.3281 -0.7237 -1.3928
  290MOL0     H38254   8.691   6.082   2.281  0.5795  0.2448 -0.2520
  290MOL0     H38255   8.585   6.221   2.340  1.5064  1.9145  1.4604
  290MOL0     H38256   8.538   6.093   2.549  0.1381 -0.1850  0.6868
  290MOL0     H38257   8.633   5.957   2.472 -0.9590 -0.2393 -0.4522
  290MOL0     H38258   8.371   6.065   2.363  2.1116  1.9176  0.7799
  290MOL0     H38259   8.493   5.975   2.283 -1.9070  1.6225 -1.4926
  290MOL0     H38260   8.485   5.776   2.417  0.6315  0.5235 -0.4879
  290MOL0     H38261   8.319   5.813   2.367  0.0751  1.7953 -0.1325
  290MOL0     H38262   8.871   6.571   2.973  1.4598 -1.6787 -1.9681
  290MOL0     H38263   8.832   6.518   3.210  2.5323 -2.9680  0.0751
  290MOL0     H38264   8.501   6.160   3.429  1.0123  0.6743 -1.4321
  290MOL0     H38265   8.460   6.046   3.618 -0.3181  1.3004 -1.4198
  290MOL0     H38266   9.481   5.714   5.147  1.6040 -1.9881  1.4739
  290MOL0     H38267   9.470   5.550   5.303 -0.8045  0.5830  0.6118
  290MOL0     H38268   9.267   5.130   5.421  0.2429  0.8346  0.0724
  290MOL0     H38269   9.324   4.964   5.577 -0.9920 -0.5946  1.2474
  290MOL0     H38270   9.544   4.979   5.823 -0.3720 -1.3473 -2.7433
  290MOL0     H38271   9.449   4.861   5.738  0.8117  0.5273 -1.1679
  290MOL0     H38272   9.535   4.749   5.919 -2.1813 -3.5449 -1.7703
  290MOL0     H38273   9.446   4.853   6.035 -2.2509  2.7060 -1.8587
  290MOL0     H38274   9.327   4.661   5.846 -3.2134  2.8725 -2.6610
  290MOL0     H38275   9.229   4.783   5.898  1.6527  0.6449 -1.6540
  290MOL0     H38276   9.228   4.558   6.030 -0.5104  0.9879 -2.9910
  290MOL0     H38277   9.393   4.585   6.078  0.1329  1.1029  1.4285
  290MOL0     H38278   9.176   4.837   6.336  0.1026 -2.0166  1.3695
  290MOL0     H38279   9.317   5.262   5.888 -0.9253  0.0884  0.2610
  290MOL0     H38280   9.276   5.444   5.717 -0.4585  1.3812 -2.6515
  291MOL0     O38281  10.511   7.948   4.719 -0.4657  0.6844  0.0931
  291MOL0     C38282  10.518   7.986   4.606  0.3472  0.5516  1.0882
  291MOL0     O38283  10.521   7.897   4.506  0.7405  0.2695  0.1284
  291MOL0     C38284  10.506   7.760   4.528 -0.1825 -0.1737 -0.7699
  291MOL0     C38285  10.610   7.679   4.492 -0.5495 -0.7554 -0.1864
  291MOL0     C38286  10.587   7.539   4.499 -1.2767 -0.2982  0.9477
  291MOL0     C38287  10.483   7.476   4.570 -0.2450 -0.1252 -0.2094
  291MOL0     O38288  10.472   7.341   4.604 -0.4136 -0.6613 -1.0053
  291MOL0     C38289  10.535   7.226   4.538  0.1049 -0.0205 -0.1162
  291MOL0     C38290  10.450   7.103   4.562 -1.0186 -0.7187 -0.1143
  291MOL0     C38291  10.339   7.099   4.458  0.4210 -0.5467 -0.1358
  291MOL0     C38292  10.261   6.966   4.479  0.0529 -0.0769  0.8909
  291MOL0     C38293  10.146   6.968   4.384 -0.1452  0.8577  1.0364
  291MOL0     C38294  10.080   6.827   4.373 -0.0460  0.0206 -0.9508
  291MOL0     C38295   9.953   6.835   4.299  0.3560 -0.3049 -0.0122
  291MOL0     C38296   9.860   6.724   4.323 -0.6981  0.5635 -0.1923
  291MOL0     N38297   9.800   6.717   4.458 -0.1927  0.7141  1.0389
  291MOL0     C38298   9.716   6.808   4.516  0.4749 -0.6303  0.4035
  291MOL0     C38299   9.706   6.757   4.644 -0.2675  0.0590  0.1033
  291MOL0     C38300   9.623   6.830   4.739  0.0136  0.0018 -0.5677
  291MOL0     C38301   9.713   6.844   4.863  0.4809  0.0344 -0.8289
  291MOL0     C38302   9.642   6.921   4.971  0.0499 -0.0048 -0.8537
  291MOL0     C38303   9.709   6.906   5.109 -0.8947  0.0592  0.1252
  291MOL0     O38304   9.643   6.984   5.204 -0.2966  0.7672  0.0401
  291MOL0     C38305   9.716   7.094   5.255 -0.1034  0.6795  0.9825
  291MOL0     C38306   9.850   7.131   5.245  0.7188 -0.0346 -0.0967
  291MOL0     C38307   9.898   7.266   5.284 -0.5315 -0.6016 -0.1028
  291MOL0     C38308   9.809   7.354   5.346  0.8348  0.2592 -0.4341
  291MOL0     C38309   9.847   7.485   5.406 -0.8529  0.4399 -0.4056
  291MOL0     O38310   9.751   7.549   5.482 -0.2967 -0.9964 -0.1738
  291MOL0     C38311   9.772   7.665   5.553 -0.4294 -0.2535  0.2671
  291MOL0     C38312   9.673   7.718   5.634 -0.3986  0.2820 -0.7067
  291MOL0     C38313   9.689   7.831   5.716  0.6372 -0.9004 -0.3999
  291MOL0     C38314   9.814   7.893   5.725 -0.2225  0.2788 -0.2885
  291MOL0     O38315   9.848   7.966   5.832  0.3842 -0.0617  1.1115
  291MOL0     C38316   9.753   8.007   5.922  0.4333 -0.4361 -1.0614
  291MOL0     C38317   9.810   8.108   6.023  0.5254 -1.5927 -0.9543
  291MOL0     C38318   9.703   8.220   6.064 -0.6631 -0.4253  0.1230
  291MOL0     C38319   9.710   8.325   5.954 -1.3043  1.6149  0.0409
  291MOL0     C38320   9.610   8.434   5.960  0.0883 -0.8877 -0.3596
  291MOL0     C38321   9.468   8.398   5.936  0.5114  0.2887  0.6777
  291MOL0     C38322   9.386   8.517   5.892  1.1333 -0.0282 -0.6486
  291MOL0     C38323   9.309   8.487   5.764 -0.8152  0.6265  0.3982
  291MOL0    Cl38324   9.218   8.637   5.708  0.5013 -0.2950 -0.2173
  291MOL0     C38325   9.913   7.851   5.639 -0.5325  0.8906  0.2009
  291MOL0     C38326   9.896   7.742   5.551  0.1123 -0.5019 -0.3951
  291MOL0     O38327   9.958   7.517   5.382  0.7143 -0.0600 -0.0387
  291MOL0     C38328   9.686   7.300   5.376  0.2682  0.0218  0.0135
  291MOL0     C38329   9.640   7.176   5.329 -0.2175  0.1864  0.0080
  291MOL0     N38330   9.802   6.654   4.670 -0.7759 -0.0737  0.0338
  291MOL0     N38331   9.845   6.627   4.555 -0.2646 -0.5813 -0.5217
  291MOL0     C38332  10.388   7.560   4.626 -0.2637 -1.3403 -0.2949
  291MOL0     C38333  10.398   7.697   4.595 -0.5963 -0.6229 -0.0853
  291MOL0     C38334  10.526   8.129   4.574 -0.5009  0.5575 -1.0888
  291MOL0     C38335  10.570   8.163   4.448  0.3142  0.3317  0.4089
  291MOL0     C38336  10.564   8.293   4.399  0.7232  1.0380 -0.0077
  291MOL0     C38337  10.527   8.400   4.489 -0.3137 -0.7831 -0.3122
  291MOL0     O38338  10.514   8.532   4.452 -0.8638  0.0451 -0.9167
  291MOL0     C38339  10.571   8.578   4.324  0.7709  1.1377 -0.1855
  291MOL0     C38340  10.621   8.720   4.338  0.9105  0.8431 -0.0267
  291MOL0     C38341  10.768   8.732   4.380 -0.0777 -0.6791 -0.7520
  291MOL0     C38342  10.800   8.661   4.518 -0.1345  0.1777 -0.5212
  291MOL0     C38343  10.937   8.687   4.572  0.3665 -0.1765 -0.5948
  291MOL0     C38344  11.053   8.696   4.604 -0.5531 -0.1567 -0.7731
  291MOL0     C38345  10.505   8.370   4.626 -0.0180  0.0139 -0.4651
  291MOL0     C38346  10.501   8.238   4.668 -0.8372  0.1012  0.0668
  291MOL0     H38347  10.703   7.722   4.456 -1.9832  1.0387 -1.9847
  291MOL0     H38348  10.654   7.470   4.448  0.0810  0.8503  1.1068
  291MOL0     H38349  10.637   7.217   4.576 -0.1101 -0.6390  0.3228
  291MOL0     H38350  10.518   7.231   4.430 -3.2403 -1.9770  0.1914
  291MOL0     H38351  10.420   7.106   4.667  0.7467 -0.6223  0.4208
  291MOL0     H38352  10.507   7.013   4.535 -0.9737  0.0701 -2.9759
  291MOL0     H38353  10.369   7.119   4.354 -0.8274  1.0549 -0.2315
  291MOL0     H38354  10.271   7.180   4.484  0.2021  0.4611 -3.3696
  291MOL0     H38355  10.322   6.880   4.450  1.0268  1.1952 -1.0794
  291MOL0     H38356  10.226   6.964   4.583  2.8841  1.3602  1.9912
  291MOL0     H38357  10.183   6.992   4.284 -0.9820 -1.2841  0.1437
  291MOL0     H38358  10.073   7.045   4.411  1.7958  5.3464 -4.4385
  291MOL0     H38359  10.053   6.799   4.475  1.1635 -2.8033 -1.3144
  291MOL0     H38360  10.144   6.745   4.339 -1.3869 -2.2767  1.6714
  291MOL0     H38361   9.901   6.925   4.333 -3.2624 -2.7369  1.4858
  291MOL0     H38362   9.970   6.849   4.192 -0.9256  0.4049 -0.1486
  291MOL0     H38363   9.919   6.633   4.307 -1.0654  0.3110 -0.1175
  291MOL0     H38364   9.776   6.727   4.254 -1.8489 -0.6420  1.0828
  291MOL0     H38365   9.676   6.898   4.470 -1.0489 -1.4974 -0.0455
  291MOL0     H38366   9.530   6.777   4.761 -0.1428  1.5096  3.0029
  291MOL0     H38367   9.581   6.921   4.695  0.4651  0.3233 -0.3485
  291MOL0     H38368   9.787   6.911   4.817 -2.0449  2.8431 -1.1214
  291MOL0     H38369   9.754   6.750   4.900 -0.2065  0.5816  1.4522
  291MOL0     H38370   9.628   7.025   4.938 -1.5904  0.0005 -0.2262
  291MOL0     H38371   9.545   6.876   4.991  0.4617 -0.8574 -0.7437
  291MOL0     H38372   9.817   6.911   5.097 -0.9546  1.6760 -0.0353
  291MOL0     H38373   9.697   6.804   5.145  2.7981 -0.8767 -0.9271
  291MOL0     H38374   9.914   7.058   5.196  0.4372 -0.7040  0.5080
  291MOL0     H38375  10.000   7.301   5.287 -1.1520  1.3645 -0.2077
  291MOL0     H38376   9.582   7.659   5.629  0.1910 -0.7776  0.4685
  291MOL0     H38377   9.614   7.858   5.790  1.0654 -0.9694  0.0655
  291MOL0     H38378   9.703   7.922   5.970  1.2729  0.0747  0.7989
  291MOL0     H38379   9.672   8.051   5.864 -0.3882  1.2992  1.2694
  291MOL0     H38380   9.903   8.150   5.982  0.4889  1.3405  1.6122
  291MOL0     H38381   9.840   8.053   6.112 -0.3478 -2.5679 -1.2422
  291MOL0     H38382   9.716   8.257   6.166 -0.4619 -1.7726  0.6118
  291MOL0     H38383   9.605   8.173   6.052 -3.0396  3.7624  1.2596
  291MOL0     H38384   9.801   8.383   5.974  0.1030 -1.0361  1.9522
  291MOL0     H38385   9.716   8.286   5.852 -3.9397  1.5244 -0.1326
  291MOL0     H38386   9.643   8.514   5.893 -1.0244 -1.8122 -2.0822
  291MOL0     H38387   9.606   8.484   6.058  0.9850 -0.2427 -0.6423
  291MOL0     H38388   9.428   8.360   6.030  0.1987 -1.0063  0.0466
  291MOL0     H38389   9.456   8.310   5.872 -0.9541  1.9452 -1.4859
  291MOL0     H38390   9.320   8.539   5.977 -0.9759 -4.4849 -0.8575
  291MOL0     H38391   9.443   8.603   5.855 -0.9727  1.7575 -0.0313
  291MOL0     H38392   9.241   8.405   5.786  2.2235 -1.7023  1.9287
  291MOL0     H38393   9.377   8.459   5.683 -1.3175  1.1374 -0.2138
  291MOL0     H38394  10.013   7.892   5.646 -1.3554  2.7324  2.3986
  291MOL0     H38395   9.982   7.719   5.488 -0.4074 -0.0098 -1.3143
  291MOL0     H38396   9.622   7.361   5.438  2.9922  0.1047  2.9971
  291MOL0     H38397   9.539   7.149   5.360  0.1079 -0.0169  0.9168
  291MOL0     H38398  10.310   7.512   4.684  2.1565  0.2588  4.8390
  291MOL0     H38399  10.328   7.769   4.636  2.3665  2.0054  0.7000
  291MOL0     H38400  10.598   8.076   4.389  2.7565 -0.0530  1.9689
  291MOL0     H38401  10.590   8.326   4.299  2.7135  2.7769  1.0028
  291MOL0     H38402  10.500   8.568   4.242  1.2575 -2.1856 -0.3427
  291MOL0     H38403  10.660   8.519   4.301 -0.3042  0.6116 -3.4512
  291MOL0     H38404  10.621   8.774   4.243  1.6987  0.9106  0.0057
  291MOL0     H38405  10.554   8.781   4.399  5.0069  2.2290  3.5874
  291MOL0     H38406  10.792   8.838   4.390  1.0403 -0.9896  0.0388
  291MOL0     H38407  10.833   8.686   4.306  1.9367  0.8393 -0.0050
  291MOL0     H38408  10.727   8.701   4.589 -2.3178  2.2619 -3.6928
  291MOL0     H38409  10.780   8.554   4.510  0.5489  0.1525 -2.3558
  291MOL0     H38410  11.152   8.702   4.644 -0.0828 -2.6436 -1.4013
  291MOL0     H38411  10.496   8.452   4.695 -1.5010  2.3450 -3.1886
  291MOL0     H38412  10.475   8.210   4.770  2.0394  2.0755  1.4962
  292MOL0     O38413   7.772   0.144   9.696 -0.2108  0.6608  0.0840
  292MOL0     C38414   7.684   0.154   9.615 -0.4051 -0.1104  0.1041
  292MOL0     O38415   7.578   0.072   9.600  0.4886 -0.7003  0.6353
  292MOL0     C38416   7.593  -0.042   9.669 -0.4514 -0.8508  0.4417
  292MOL0     C38417   7.633  -0.159   9.605 -0.6468  0.7776  0.4922
  292MOL0     C38418   7.650  -0.279   9.664  0.5518 -1.4079  0.0567
  292MOL0     C38419   7.602  -0.294   9.797  0.6218 -0.6723 -0.5074
  292MOL0     O38420   7.603  -0.417   9.857 -0.5811  0.9661  0.4222
  292MOL0     C38421   7.564  -0.435   9.987  0.1793  0.3992  0.0442
  292MOL0     C38422   7.531  -0.581  10.031  0.9629 -0.1607  0.2152
  292MOL0     C38423   7.420  -0.636   9.940  0.1431  1.1553 -0.5929
  292MOL0     C38424   7.400  -0.775   9.985 -0.1526  0.9891 -0.2169
  292MOL0     C38425   7.317  -0.858   9.891 -0.3441  0.4186  0.2927
  292MOL0     C38426   7.378  -0.865   9.747  0.1040  0.2023  0.9313
  292MOL0     C38427   7.285  -0.957   9.650  0.7192 -0.3832 -0.5167
  292MOL0     C38428   7.361  -0.979   9.515 -0.4737  0.1927 -0.0358
  292MOL0     N38429   7.312  -1.097   9.462 -0.3832  0.0052 -0.2323
  292MOL0     C38430   7.352  -1.224   9.491 -0.2478  0.3264  0.0975
  292MOL0     C38431   7.291  -1.307   9.404 -0.4549 -0.2419  0.1654
  292MOL0     C38432   7.282  -1.453   9.406  0.4436 -0.3552 -0.6818
  292MOL0     C38433   7.147  -1.488   9.472  0.2300  0.4448 -0.4536
  292MOL0     C38434   7.155  -1.642   9.522  0.0884 -0.7008  0.5787
  292MOL0     C38435   7.184  -1.667   9.668 -0.0298  0.1903 -0.0028
  292MOL0     O38436   7.121  -1.797   9.692 -0.0348 -0.4120  0.2384
  292MOL0     C38437   7.185  -1.917   9.696  1.1561 -0.0905  0.8134
  292MOL0     C38438   7.091  -2.020   9.712  0.0127  1.2839  0.2041
  292MOL0     C38439   7.141  -2.152   9.722 -0.2627 -1.0492 -0.2544
  292MOL0     C38440   7.286  -2.181   9.717  0.0705  1.2240  0.3368
  292MOL0     C38441   7.337  -2.313   9.743  1.1586 -0.8451  0.1751
  292MOL0     O38442   7.462  -2.331   9.810 -0.0796 -0.5969  0.0564
  292MOL0     C38443   7.505  -2.455   9.819  0.6735  0.2247 -0.4330
  292MOL0     C38444   7.448  -2.542   9.909  0.3247  0.0210 -0.0968
  292MOL0     C38445   7.493  -2.675   9.921  0.7369  0.0461 -0.3874
  292MOL0     C38446   7.591  -2.726   9.837  0.2127 -0.5418  1.5500
  292MOL0     O38447   7.629  -2.854   9.840  0.8665  0.3858  0.4504
  292MOL0     C38448   7.704  -2.900   9.945  0.7298  0.1310  1.2691
  292MOL0     C38449   7.727  -3.047   9.940 -0.0693 -0.5977  0.0191
  292MOL0     C38450   7.595  -3.122   9.964  0.4489  0.4418 -1.0183
  292MOL0     C38451   7.541  -3.117  10.112  0.3591  0.4462  0.1085
  292MOL0     C38452   7.423  -3.219  10.133  0.7492 -0.1847 -0.2481
  292MOL0     C38453   7.364  -3.230  10.280 -0.0645 -0.1894  0.3330
  292MOL0     C38454   7.234  -3.301  10.285 -0.5493 -0.3351  0.0845
  292MOL0     C38455   7.184  -3.294  10.423 -0.5374 -0.7185  0.0285
  292MOL0    Cl38456   7.276  -3.403  10.543  0.2228 -0.2935  0.2596
  292MOL0     C38457   7.651  -2.632   9.752 -0.6117  0.3464 -0.2460
  292MOL0     C38458   7.608  -2.499   9.740 -0.3899  0.4236  0.4204
  292MOL0     O38459   7.260  -2.400   9.705  0.5655  0.2395 -0.2082
  292MOL0     C38460   7.366  -2.076   9.675  0.3584  0.1802 -0.0646
  292MOL0     C38461   7.319  -1.947   9.670  0.1741  0.3108 -0.5215
  292MOL0     N38462   7.224  -1.223   9.318  0.2433  0.0463 -0.0260
  292MOL0     N38463   7.237  -1.102   9.353  0.9719 -0.2491  0.9992
  292MOL0     C38464   7.564  -0.177   9.869  0.7339  0.2503 -0.3647
  292MOL0     C38465   7.562  -0.048   9.806  0.5153  0.2622 -1.1514
  292MOL0     C38466   7.693   0.277   9.526 -0.1244 -0.4428 -0.2425
  292MOL0     C38467   7.613   0.286   9.410 -0.2314  0.0098  0.8854
  292MOL0     C38468   7.619   0.395   9.323  0.0228 -0.5480 -0.1576
  292MOL0     C38469   7.729   0.484   9.339  0.4269  0.0084 -0.1619
  292MOL0     O38470   7.765   0.552   9.231 -0.2894 -0.2266  0.9089
  292MOL0     C38471   7.861   0.662   9.239 -0.6828 -0.4870 -0.0334
  292MOL0     C38472   7.807   0.796   9.309  0.1502  0.1162 -0.0224
  292MOL0     C38473   7.879   0.919   9.257  0.3141  0.5158  0.5975
  292MOL0     C38474   7.817   1.036   9.333  0.2705 -0.7166  0.5310
  292MOL0     C38475   7.878   1.159   9.287  0.5003 -0.2061  0.3142
  292MOL0     C38476   7.917   1.254   9.220 -0.3975  0.2605  0.7842
  292MOL0     C38477   7.808   0.479   9.454 -0.5765 -0.6475 -0.3766
  292MOL0     C38478   7.791   0.373   9.540 -0.4343 -0.8839 -0.2080
  292MOL0     H38479   7.665  -0.157   9.501 -2.7451 -1.6556 -0.2826
  292MOL0     H38480   7.689  -0.361   9.603 -0.9957 -1.5474 -0.7828
  292MOL0     H38481   7.480  -0.370  10.015  0.5422  0.5734  0.7662
  292MOL0     H38482   7.649  -0.400  10.047  1.2905 -1.7332 -0.2169
  292MOL0     H38483   7.487  -0.567  10.130  2.1611 -1.8396  1.0275
  292MOL0     H38484   7.626  -0.636  10.022  1.4084  0.7119 -0.6362
  292MOL0     H38485   7.456  -0.626   9.837 -2.4456  1.3285 -1.5533
  292MOL0     H38486   7.326  -0.579   9.943  0.4926  1.7656 -1.1069
  292MOL0     H38487   7.500  -0.816   9.999  0.2609  1.5429 -1.4671
  292MOL0     H38488   7.338  -0.765  10.075  0.4829 -0.4563  0.4154
  292MOL0     H38489   7.216  -0.817   9.881 -0.1136  1.2932  1.3136
  292MOL0     H38490   7.307  -0.960   9.931 -3.0778  0.2340 -0.6506
  292MOL0     H38491   7.474  -0.917   9.747 -1.3671 -2.7122 -0.1852
  292MOL0     H38492   7.396  -0.771   9.694 -0.3399 -1.6786 -2.8786
  292MOL0     H38493   7.273  -1.052   9.703 -0.9081  1.2172  2.2683
  292MOL0     H38494   7.191  -0.914   9.615  0.9276 -1.2366 -2.1893
  292MOL0     H38495   7.468  -0.995   9.533 -0.4445  2.9900  3.2677
  292MOL0     H38496   7.345  -0.896   9.445 -0.9575 -0.9608 -1.3520
  292MOL0     H38497   7.399  -1.275   9.573 -1.6488 -0.0193  0.7184
  292MOL0     H38498   7.365  -1.491   9.466 -0.2661  0.5842  0.9728
  292MOL0     H38499   7.292  -1.502   9.308  1.7887 -1.0923 -0.2059
  292MOL0     H38500   7.070  -1.475   9.396  3.0737  1.5759 -3.4332
  292MOL0     H38501   7.123  -1.416   9.550 -1.0182  0.5775 -0.9510
  292MOL0     H38502   7.058  -1.684   9.493 -0.6162  0.6489  0.8983
  292MOL0     H38503   7.217  -1.702   9.454 -2.2952 -1.0119 -1.4739
  292MOL0     H38504   7.132  -1.586   9.720 -3.2830 -0.9411 -1.2520
  292MOL0     H38505   7.293  -1.668   9.684  0.4677  1.0235 -2.7632
  292MOL0     H38506   6.987  -1.990   9.713 -0.6024 -0.7553  0.3983
  292MOL0     H38507   7.072  -2.234   9.736 -2.6949  0.4688 -2.5295
  292MOL0     H38508   7.369  -2.505   9.974 -2.7058 -0.3716 -3.2752
  292MOL0     H38509   7.463  -2.733  10.008  2.6366  2.1022  1.7857
  292MOL0     H38510   7.647  -2.882  10.036 -1.4404 -0.2673  0.0619
  292MOL0     H38511   7.795  -2.839   9.941 -0.3042  1.7088 -1.5335
  292MOL0     H38512   7.810  -3.075  10.006 -1.0121  1.7517  2.4214
  292MOL0     H38513   7.757  -3.082   9.841 -0.7797  1.1454 -0.8507
  292MOL0     H38514   7.608  -3.226   9.935 -3.0385 -0.1273 -0.9577
  292MOL0     H38515   7.510  -3.082   9.908  2.5052  0.6414 -4.2693
  292MOL0     H38516   7.624  -3.140  10.180  1.0187 -0.4553 -0.9603
  292MOL0     H38517   7.512  -3.017  10.144  0.7860 -0.0455  2.2048
  292MOL0     H38518   7.453  -3.320  10.103 -1.5087 -0.8349 -0.4937
  292MOL0     H38519   7.333  -3.195  10.076  0.0874 -3.3487 -0.6787
  292MOL0     H38520   7.351  -3.125  10.309  1.5761 -0.5125  2.4588
  292MOL0     H38521   7.433  -3.276  10.350 -0.2100 -1.3247 -0.2474
  292MOL0     H38522   7.158  -3.255  10.221 -0.8061  0.5267  0.9839
  292MOL0     H38523   7.234  -3.407  10.256 -2.0952 -0.1392 -0.7964
  292MOL0     H38524   7.079  -3.319  10.439 -1.4616  2.6556  0.1067
  292MOL0     H38525   7.189  -3.191  10.461  0.8444 -1.0312  0.7463
  292MOL0     H38526   7.722  -2.682   9.686 -3.0754 -1.8053 -1.4429
  292MOL0     H38527   7.648  -2.426   9.671 -4.0512  4.7266  2.3598
  292MOL0     H38528   7.472  -2.087   9.655  0.7653  2.7239  0.3803
  292MOL0     H38529   7.389  -1.868   9.641  0.4527  0.2988  0.1074
  292MOL0     H38530   7.561  -0.159   9.975  4.3162  0.4063 -0.1408
  292MOL0     H38531   7.506   0.035   9.849 -5.3426 -3.0188 -1.3689
  292MOL0     H38532   7.540   0.211   9.382 -0.3664  0.6939 -0.7642
  292MOL0     H38533   7.562   0.385   9.230  2.0585 -1.9464 -1.3363
  292MOL0     H38534   7.885   0.694   9.137 -1.8243 -1.0237 -0.4783
  292MOL0     H38535   7.956   0.630   9.283 -0.1498  1.1047  0.0610
  292MOL0     H38536   7.705   0.792   9.268  2.3492 -1.3387 -6.5135
  292MOL0     H38537   7.807   0.777   9.417 -0.7336 -3.5517 -0.5421
  292MOL0     H38538   7.866   0.920   9.149 -0.3465  0.8335  0.6731
  292MOL0     H38539   7.984   0.918   9.287  0.8504 -0.1140 -1.2220
  292MOL0     H38540   7.711   1.027   9.308  0.2865  4.4590 -2.9115
  292MOL0     H38541   7.840   1.014   9.437  1.1775 -3.4895 -0.1666
  292MOL0     H38542   7.953   1.346   9.181  1.4775  0.2041  2.2360
  292MOL0     H38543   7.894   0.545   9.459 -1.4158  0.6147 -1.7263
  292MOL0     H38544   7.864   0.381   9.620  0.5852 -1.0832 -1.0980
  293MOL0     O38545   2.904   9.937  10.175  0.1623 -1.1567 -0.0391
  293MOL0     C38546   2.844  10.046  10.166  0.0899  0.3743  0.4610
  293MOL0     O38547   2.720  10.070  10.204 -0.4174 -0.7291  0.4173
  293MOL0     C38548   2.648   9.977  10.269  1.4527  0.1090  0.2147
  293MOL0     C38549   2.592   9.869  10.200 -0.3750  0.6490 -0.0955
  293MOL0     C38550   2.507   9.783  10.265  1.1978  0.3425 -0.0267
  293MOL0     C38551   2.486   9.786  10.411  0.8979  0.6571 -0.0321
  293MOL0     O38552   2.392   9.710  10.483 -0.5485  0.2014  0.5565
  293MOL0     C38553   2.270   9.679  10.421  0.4524 -0.8097 -0.8658
  293MOL0     C38554   2.161   9.690  10.521  0.3854 -0.0182 -0.3145
  293MOL0     C38555   2.127   9.834  10.550  0.6915 -0.5116 -0.0135
  293MOL0     C38556   2.029   9.835  10.664  0.6305 -0.2229  0.2823
  293MOL0     C38557   1.989   9.976  10.690 -1.2254 -0.3761  1.3103
  293MOL0     C38558   1.894  10.030  10.581  0.1953  0.2012 -0.0715
  293MOL0     C38559   1.807  10.151  10.629 -0.1740  0.1090  0.0413
  293MOL0     C38560   1.727  10.215  10.520  0.0365 -0.4734 -0.7571
  293MOL0     N38561   1.800  10.309  10.432  0.3920 -0.7096 -0.1221
  293MOL0     C38562   1.804  10.445  10.446  0.2142 -0.6986 -0.6228
  293MOL0     C38563   1.890  10.494  10.347  0.4306  0.3554 -0.5789
  293MOL0     C38564   1.917  10.636  10.297  0.1414  0.3765  0.3367
  293MOL0     C38565   1.819  10.677  10.194 -0.4211  0.0089  0.9063
  293MOL0     C38566   1.830  10.827  10.156  0.2483  0.6953 -0.9243
  293MOL0     C38567   1.937  10.877  10.064 -0.4684  0.1284  0.2723
  293MOL0     O38568   2.067  10.836  10.107 -0.9285 -0.1003 -0.2501
  293MOL0     C38569   2.170  10.914  10.073  1.0170  0.6667 -0.3572
  293MOL0     C38570   2.164  11.054  10.049  0.3239  0.2286  0.0671
  293MOL0     C38571   2.270  11.130  10.004  0.0837  0.7219 -0.8793
  293MOL0     C38572   2.395  11.075  10.020  0.0816  0.3239 -0.7069
  293MOL0     C38573   2.516  11.162   9.992  0.6876  0.4283 -0.3186
  293MOL0     O38574   2.499  11.294   9.950 -0.0496  0.2379 -0.3654
  293MOL0     C38575   2.593  11.386   9.944  0.5099  0.4443 -0.7030
  293MOL0     C38576   2.565  11.493   9.855  0.3905  1.4388  0.5247
  293MOL0     C38577   2.656  11.603   9.853 -0.0800 -0.1000 -0.4692
  293MOL0     C38578   2.763  11.620   9.941  1.0715 -0.0926 -0.9985
  293MOL0     O38579   2.848  11.732   9.932  0.2601  0.5107  0.7034
  293MOL0     C38580   2.953  11.749  10.025  0.1099  0.2978  0.1450
  293MOL0     C38581   3.010  11.887  10.011  0.4591 -0.2920  0.4222
  293MOL0     C38582   3.043  11.909   9.867 -0.2065  0.2818 -0.5162
  293MOL0     C38583   3.140  12.019   9.840 -0.4809 -0.2843  0.4160
  293MOL0     C38584   3.189  12.031   9.693  0.6310  0.1447 -0.5367
  293MOL0     C38585   3.229  12.185   9.662 -0.3793  0.4310 -0.2484
  293MOL0     C38586   3.140  12.307   9.697 -0.3032 -0.0202  0.5405
  293MOL0     C38587   3.202  12.421   9.608 -0.2691 -1.0953 -0.1430
  293MOL0    Cl38588   3.163  12.387   9.426 -0.0829  0.3954  0.0111
  293MOL0     C38589   2.782  11.512  10.032 -1.2333  0.2868  1.3106
  293MOL0     C38590   2.700  11.399  10.031 -0.0544 -0.1156  0.9504
  293MOL0     O38591   2.621  11.107  10.016  0.8379 -0.0827 -0.0327
  293MOL0     C38592   2.403  10.936  10.045 -0.0400 -0.4578  1.3936
  293MOL0     C38593   2.287  10.854  10.061  1.0163  1.5380  0.0656
  293MOL0     N38594   1.950  10.387  10.283 -0.0268  0.0561  0.5277
  293MOL0     N38595   1.885  10.281  10.332 -0.1808 -0.0994  0.0009
  293MOL0     C38596   2.558   9.882  10.485 -0.0183  0.6476 -0.6170
  293MOL0     C38597   2.632   9.976  10.409 -0.4830 -0.3611  0.3534
  293MOL0     C38598   2.920  10.167  10.112 -0.3544 -0.0251 -0.5764
  293MOL0     C38599   2.844  10.287  10.069  0.7985  0.2852  0.6871
  293MOL0     C38600   2.913  10.398  10.008  0.1084 -0.6508  0.1094
  293MOL0     C38601   3.051  10.385   9.980 -0.8912 -0.1443  0.4403
  293MOL0     O38602   3.124  10.499   9.935  0.3664 -0.1215 -0.2577
  293MOL0     C38603   3.048  10.598   9.869 -0.6460 -0.1075 -0.3267
  293MOL0     C38604   3.162  10.679   9.804  0.2819  0.4545  1.4436
  293MOL0     C38605   3.251  10.758   9.897 -0.1424  0.5265 -0.0351
  293MOL0     C38606   3.344  10.847   9.815 -1.0158  0.0364 -0.0651
  293MOL0     C38607   3.403  10.958   9.898 -0.5256  0.2027  0.1629
  293MOL0     C38608   3.456  11.043   9.964 -0.4292  1.1106 -0.7683
  293MOL0     C38609   3.121  10.270  10.013  0.0125 -0.4270 -0.4918
  293MOL0     C38610   3.054  10.158  10.069  0.2860  0.8124 -0.8179
  293MOL0     H38611   2.598   9.865  10.092  2.4294 -1.1689  0.0176
  293MOL0     H38612   2.445   9.715  10.207 -1.1016  2.0836  0.2184
  293MOL0     H38613   2.278   9.575  10.388  2.8897 -0.4645 -1.5428
  293MOL0     H38614   2.237   9.748  10.343  0.6080 -0.4327 -0.6028
  293MOL0     H38615   2.210   9.648  10.609 -1.7485 -0.0098  0.9660
  293MOL0     H38616   2.068   9.638  10.495 -0.6005 -0.4544  3.5210
  293MOL0     H38617   2.077   9.882  10.465  1.5885  0.2044 -0.1483
  293MOL0     H38618   2.214   9.891  10.582  1.3351 -1.6939  0.4097
  293MOL0     H38619   1.938   9.789  10.623  1.2135 -1.4249  0.3093
  293MOL0     H38620   2.072   9.774  10.743  4.5890 -1.6116 -2.6139
  293MOL0     H38621   2.069  10.050  10.701  0.2842 -0.8910 -3.8054
  293MOL0     H38622   1.941   9.972  10.788 -2.5948  1.3148  0.7707
  293MOL0     H38623   1.819   9.959  10.545 -0.4104  2.3711 -3.5665
  293MOL0     H38624   1.962  10.067  10.504  1.1602  2.2903  1.6624
  293MOL0     H38625   1.730  10.112  10.696 -0.2570  0.1529 -0.0280
  293MOL0     H38626   1.879  10.218  10.677 -1.1122  1.4071 -0.3319
  293MOL0     H38627   1.645  10.266  10.571  0.1701 -1.4429  0.4806
  293MOL0     H38628   1.680  10.134  10.462 -1.4929  0.1673 -0.4676
  293MOL0     H38629   1.752  10.521  10.503  0.4833 -0.2732 -0.9374
  293MOL0     H38630   2.011  10.615  10.245 -0.2144 -2.3013  0.6369
  293MOL0     H38631   1.936  10.705  10.380  0.9547  0.6787 -0.0863
  293MOL0     H38632   1.717  10.651  10.224  0.8360 -4.4320  2.1134
  293MOL0     H38633   1.852  10.618  10.108 -0.6384  2.2187 -0.7956
  293MOL0     H38634   1.737  10.849  10.104 -0.9083  1.5452  1.3713
  293MOL0     H38635   1.831  10.883  10.250 -2.0690 -1.0081  0.2186
  293MOL0     H38636   1.927  10.985  10.053 -2.0457  0.0935  1.1963
  293MOL0     H38637   1.906  10.837   9.967 -4.2235  0.5938  1.1307
  293MOL0     H38638   2.078  11.119  10.053  0.0305 -0.0415 -1.3871
  293MOL0     H38639   2.241  11.230   9.974 -2.0116  0.3143 -0.3826
  293MOL0     H38640   2.481  11.496   9.785 -1.5649 -3.4010  2.1830
  293MOL0     H38641   2.627  11.685   9.789 -1.4039  0.0872  0.3300
  293MOL0     H38642   3.037  11.682  10.011  0.4921  0.9464 -0.8164
  293MOL0     H38643   2.921  11.747  10.129  1.2884  1.9721  0.5860
  293MOL0     H38644   3.099  11.879  10.074 -0.9629  2.1476  2.9413
  293MOL0     H38645   2.948  11.961  10.062  0.3010 -0.5987  0.6762
  293MOL0     H38646   2.944  11.932   9.827 -0.5911 -0.5216 -0.0534
  293MOL0     H38647   3.067  11.820   9.808 -2.6879 -0.3575 -0.6732
  293MOL0     H38648   3.099  12.114   9.876 -1.2262 -0.1471 -0.7390
  293MOL0     H38649   3.237  12.009   9.889  0.5227  1.4686 -1.0899
  293MOL0     H38650   3.101  12.004   9.634  1.0907 -1.5870 -0.4952
  293MOL0     H38651   3.269  11.957   9.680  0.7996 -0.3430  2.4626
  293MOL0     H38652   3.235  12.170   9.554  0.1171 -2.5986  0.1166
  293MOL0     H38653   3.326  12.198   9.711 -0.5369  1.3834 -0.1670
  293MOL0     H38654   3.036  12.284   9.672 -1.6455  3.9539  1.7060
  293MOL0     H38655   3.145  12.342   9.801  0.5395 -2.6350  1.4683
  293MOL0     H38656   3.310  12.431   9.615 -0.1250 -1.2985 -1.6574
  293MOL0     H38657   3.157  12.516   9.639  0.8221 -1.2141  1.9343
  293MOL0     H38658   2.864  11.512  10.103  1.1383 -0.1933 -1.2687
  293MOL0     H38659   2.738  11.328  10.103 -0.0454  1.1157  2.1936
  293MOL0     H38660   2.505  10.901  10.057 -0.6648 -2.1418  2.2167
  293MOL0     H38661   2.294  10.746  10.068  0.1805  1.4006 -1.0903
  293MOL0     H38662   2.544   9.883  10.593  2.4800 -0.9486 -0.1830
  293MOL0     H38663   2.671  10.062  10.463 -1.0549 -1.6077  2.8990
  293MOL0     H38664   2.740  10.303  10.092  0.6427 -0.8096  0.8020
  293MOL0     H38665   2.864  10.489   9.973  1.0805 -0.2910 -0.3397
  293MOL0     H38666   2.998  10.657   9.946  0.1302 -1.3292  1.1681
  293MOL0     H38667   2.975  10.560   9.797  0.6436  1.3479 -2.5572
  293MOL0     H38668   3.233  10.616   9.750  0.2414 -0.4000  2.3509
  293MOL0     H38669   3.116  10.741   9.727  0.6138 -2.4842 -1.3364
  293MOL0     H38670   3.323  10.697   9.953  0.5890 -0.5487 -2.0351
  293MOL0     H38671   3.187  10.822   9.958  0.0411 -2.0788  3.1782
  293MOL0     H38672   3.424  10.784   9.775 -1.4794  0.6074 -1.9782
  293MOL0     H38673   3.291  10.883   9.727 -2.3596  0.0448  0.7215
  293MOL0     H38674   3.507  11.099  10.039  1.5353 -2.1164  0.4938
  293MOL0     H38675   3.225  10.269   9.982  0.1564  0.6794 -0.0995
  293MOL0     H38676   3.093  10.057  10.071 -2.8757 -0.5277 -0.5967
  294MOL0     O38677  10.952   3.969   9.448  0.0460 -0.0470  0.6077
  294MOL0     C38678  10.954   4.058   9.535 -0.5879 -1.1330 -0.0757
  294MOL0     O38679  11.070   4.114   9.587 -0.2003  0.0584 -0.0322
  294MOL0     C38680  11.194   4.101   9.527 -0.4087  0.9469  0.0428
  294MOL0     C38681  11.280   4.212   9.523  0.5117  0.0499 -0.2372
  294MOL0     C38682  11.401   4.212   9.451 -0.4583 -0.0659 -0.4659
  294MOL0     C38683  11.448   4.107   9.374 -0.1589  0.3459 -0.6450
  294MOL0     O38684  11.561   4.092   9.294 -0.3461 -0.2039 -0.2642
  294MOL0     C38685  11.648   4.210   9.287  0.1122  0.2213 -0.9622
  294MOL0     C38686  11.766   4.189   9.208  0.4394 -0.0685  0.5110
  294MOL0     C38687  11.861   4.310   9.202 -0.5101 -0.0957  0.0321
  294MOL0     C38688  11.788   4.427   9.142  0.1871 -0.6454 -0.2465
  294MOL0     C38689  11.896   4.531   9.101 -0.3143 -0.3585 -0.5589
  294MOL0     C38690  11.842   4.666   9.030 -0.2039  0.0941 -0.7898
  294MOL0     C38691  11.970   4.757   9.006  0.0279  0.6610  0.2612
  294MOL0     C38692  11.947   4.891   8.939 -0.2178  0.9057  0.2480
  294MOL0     N38693  12.065   4.973   8.926  0.4190 -0.0858 -0.2363
  294MOL0     C38694  12.097   5.068   9.016 -1.1559 -0.8329 -0.3468
  294MOL0     C38695  12.224   5.098   8.977 -0.2551 -0.7751 -0.2824
  294MOL0     C38696  12.306   5.197   9.058 -0.7148 -1.0374 -0.7847
  294MOL0     C38697  12.355   5.145   9.202 -0.4861  0.0860  0.5039
  294MOL0     C38698  12.381   5.246   9.311 -0.2362  1.5979  0.7677
  294MOL0     C38699  12.367   5.172   9.450 -0.1771 -0.0977  0.0956
  294MOL0     O38700  12.386   5.255   9.566  0.1333 -0.4612 -0.8234
  294MOL0     C38701  12.311   5.218   9.674 -0.0661  0.0675  0.0070
  294MOL0     C38702  12.311   5.312   9.773  0.6683  0.0686 -0.1702
  294MOL0     C38703  12.270   5.287   9.899 -1.0401  0.4543  0.7978
  294MOL0     C38704  12.212   5.156   9.925  1.3794 -0.1544 -0.5201
  294MOL0     C38705  12.183   5.118  10.059 -0.6583 -0.1607 -0.4745
  294MOL0     O38706  12.162   4.986  10.079 -0.0073 -0.0242 -0.6140
  294MOL0     C38707  12.106   4.931  10.192 -1.1627  1.5179  0.2747
  294MOL0     C38708  12.109   4.978  10.322 -0.5806  0.9014  0.1011
  294MOL0     C38709  12.045   4.910  10.421  0.9836 -0.6494 -0.6794
  294MOL0     C38710  11.974   4.795  10.407 -0.3362 -0.9943 -0.0164
  294MOL0     O38711  11.921   4.736  10.518 -1.0134  0.1506  0.2578
  294MOL0     C38712  11.837   4.618  10.507  0.7675 -0.0156  0.2914
  294MOL0     C38713  11.904   4.485  10.473 -0.2288  0.3867 -0.1199
  294MOL0     C38714  11.973   4.434  10.598 -0.0225  0.9138  0.6606
  294MOL0     C38715  12.086   4.330  10.555 -0.6996  0.8296 -1.0952
  294MOL0     C38716  12.143   4.273  10.679  0.2388 -0.3201  1.4024
  294MOL0     C38717  12.245   4.171  10.668 -1.0099  0.7441 -0.5357
  294MOL0     C38718  12.388   4.210  10.622 -0.0005 -0.1118 -0.2252
  294MOL0     C38719  12.476   4.089  10.620 -0.1817 -0.0535 -0.4659
  294MOL0    Cl38720  12.530   4.054  10.787 -0.3271  0.2204  0.1447
  294MOL0     C38721  11.976   4.745  10.279 -0.4276  0.3535 -0.5199
  294MOL0     C38722  12.044   4.808  10.175 -0.0169 -0.2408  0.3313
  294MOL0     O38723  12.138   5.207  10.139  0.4442 -0.6197  0.0618
  294MOL0     C38724  12.211   5.053   9.828  0.0306 -0.3459  0.5746
  294MOL0     C38725  12.268   5.085   9.705  0.2110  1.1135 -0.1077
  294MOL0     N38726  12.261   5.025   8.871 -0.4161 -1.4227 -0.1442
  294MOL0     N38727  12.172   4.945   8.847 -0.5587  0.2060 -0.3127
  294MOL0     C38728  11.366   3.997   9.386  0.1869 -0.1064  0.6154
  294MOL0     C38729  11.241   3.992   9.454  0.2397 -0.4970 -0.5654
  294MOL0     C38730  10.826   4.101   9.595  0.8841  0.0573  0.8883
  294MOL0     C38731  10.823   4.209   9.691  0.0803  0.8113  0.3799
  294MOL0     C38732  10.696   4.255   9.731  0.0250  0.0105 -0.7410
  294MOL0     C38733  10.575   4.187   9.695  0.3385  0.2193  0.9575
  294MOL0     O38734  10.457   4.228   9.753  0.5933  0.2717 -0.3394
  294MOL0     C38735  10.332   4.160   9.726  0.2815  0.1968  0.0580
  294MOL0     C38736  10.292   4.062   9.844 -0.2346  0.4016  0.0871
  294MOL0     C38737  10.140   4.039   9.854 -1.2902 -0.6965 -0.8027
  294MOL0     C38738  10.083   3.963   9.743 -0.1458 -0.3974 -0.0796
  294MOL0     C38739   9.935   3.940   9.770 -0.7670  0.1068 -0.0288
  294MOL0     C38740   9.818   3.934   9.773 -0.3132 -0.0078  0.0754
  294MOL0     C38741  10.588   4.076   9.603  1.1028  0.4567  0.2177
  294MOL0     C38742  10.707   4.035   9.563 -0.4969 -0.4881  0.0949
  294MOL0     H38743  11.237   4.300   9.571 -5.3189 -2.1449 -0.6131
  294MOL0     H38744  11.464   4.300   9.457 -0.8394  0.3083 -1.6635
  294MOL0     H38745  11.664   4.237   9.392  0.4993  1.0318 -1.2249
  294MOL0     H38746  11.579   4.290   9.256 -0.4344  0.1421  0.0169
  294MOL0     H38747  11.734   4.158   9.108  1.3191  2.0243 -0.4757
  294MOL0     H38748  11.816   4.100   9.246  1.0080 -0.1817 -0.4623
  294MOL0     H38749  11.941   4.286   9.131  1.0426 -2.9738  2.5295
  294MOL0     H38750  11.914   4.334   9.295 -2.0421  1.4005  0.5840
  294MOL0     H38751  11.716   4.407   9.062  1.0447 -1.3532 -0.8576
  294MOL0     H38752  11.723   4.477   9.214 -0.1679 -1.9084  0.3330
  294MOL0     H38753  11.968   4.476   9.039  1.6817 -0.3988  1.6466
  294MOL0     H38754  11.945   4.559   9.194  0.4028 -2.0970 -0.3821
  294MOL0     H38755  11.772   4.721   9.094 -0.4421 -0.9939 -0.1010
  294MOL0     H38756  11.791   4.651   8.935 -1.2525  1.5570 -0.5027
  294MOL0     H38757  12.027   4.781   9.096  0.4691  0.1277  0.1317
  294MOL0     H38758  12.034   4.705   8.934 -0.7400 -1.1288  0.8114
  294MOL0     H38759  11.859   4.941   8.979  1.0840  2.2693  1.5114
  294MOL0     H38760  11.919   4.863   8.837 -0.1930  0.3502  0.3910
  294MOL0     H38761  12.034   5.098   9.099 -2.0989 -3.2002 -0.1344
  294MOL0     H38762  12.255   5.293   9.071  3.3418  1.5407 -2.2436
  294MOL0     H38763  12.394   5.224   8.999 -0.1546 -2.4495 -0.6386
  294MOL0     H38764  12.450   5.096   9.182 -1.2759 -0.1448 -3.4417
  294MOL0     H38765  12.277   5.074   9.232 -0.3726 -0.4626 -0.4581
  294MOL0     H38766  12.483   5.283   9.295  0.7032 -0.3312  1.8973
  294MOL0     H38767  12.317   5.334   9.311 -0.1674  1.6878  2.5249
  294MOL0     H38768  12.430   5.083   9.451 -0.8254 -0.5682 -0.3292
  294MOL0     H38769  12.266   5.130   9.452  0.2062 -1.0645 -0.5820
  294MOL0     H38770  12.341   5.414   9.754  0.6465 -0.4532 -3.6076
  294MOL0     H38771  12.284   5.367   9.970  0.1552  0.0144  1.0751
  294MOL0     H38772  12.171   5.063  10.349 -0.4736 -0.2441  4.1101
  294MOL0     H38773  12.041   4.939  10.526 -0.4830  0.4868 -1.0152
  294MOL0     H38774  11.757   4.645  10.437  2.1329  1.5127 -0.7498
  294MOL0     H38775  11.785   4.609  10.603  0.3623  1.3484  0.2202
  294MOL0     H38776  11.977   4.487  10.391 -0.0405  0.0366  0.0367
  294MOL0     H38777  11.822   4.418  10.442 -0.3378  0.7897 -0.7323
  294MOL0     H38778  11.900   4.384  10.662 -1.1854  4.7845  2.6844
  294MOL0     H38779  12.026   4.518  10.646 -0.8968  2.7425 -1.3995
  294MOL0     H38780  12.042   4.246  10.501  0.5123 -2.4298  2.5424
  294MOL0     H38781  12.168   4.377  10.500  0.3786  1.7061  1.1301
  294MOL0     H38782  12.061   4.228  10.736  1.0286 -2.4248  0.9632
  294MOL0     H38783  12.186   4.356  10.736 -0.4383 -1.8084  4.2891
  294MOL0     H38784  12.202   4.095  10.601  0.0709 -0.9854  0.6684
  294MOL0     H38785  12.248   4.129  10.768 -5.4465 -1.2210 -0.9896
  294MOL0     H38786  12.381   4.245  10.518 -3.0272 -1.7703 -0.7057
  294MOL0     H38787  12.412   4.300  10.680  1.4221  0.2224 -1.2818
  294MOL0     H38788  12.566   4.094  10.558  2.6672 -0.1182  3.3012
  294MOL0     H38789  12.422   3.996  10.605  0.4557 -1.1578  3.2058
  294MOL0     H38790  11.922   4.652  10.264 -1.1549  0.9032 -1.4696
  294MOL0     H38791  12.048   4.750  10.083 -0.9758 -2.5443  1.6454
  294MOL0     H38792  12.193   4.950   9.858  0.4279 -1.4145 -2.5101
  294MOL0     H38793  12.289   5.005   9.634  0.6720 -0.9718  2.2507
  294MOL0     H38794  11.403   3.912   9.329  1.3354  0.8341 -0.0765
  294MOL0     H38795  11.185   3.899   9.458  0.3314 -0.5647 -0.8766
  294MOL0     H38796  10.912   4.258   9.729  0.1597 -0.0633  1.3602
  294MOL0     H38797  10.678   4.343   9.792  1.6485  0.6165 -1.0793
  294MOL0     H38798  10.322   4.105   9.632  1.3906 -0.9255  0.5582
  294MOL0     H38799  10.257   4.240   9.725 -1.1817 -1.1224 -0.6597
  294MOL0     H38800  10.344   3.966   9.836 -1.1395 -0.3373  2.4006
  294MOL0     H38801  10.324   4.108   9.938 -2.1042 -1.2958  1.6440
  294MOL0     H38802  10.088   4.134   9.871  0.9409  0.5635 -0.5479
  294MOL0     H38803  10.113   3.977   9.940 -0.4092 -2.8600 -2.0013
  294MOL0     H38804  10.111   4.026   9.657 -0.7549 -1.2158 -0.8936
  294MOL0     H38805  10.147   3.875   9.732  1.5622  0.9777 -1.9153
  294MOL0     H38806   9.711   3.937   9.780 -0.2413  1.6208  1.1461
  294MOL0     H38807  10.493   4.031   9.574 -0.0044  3.0901 -0.6008
  294MOL0     H38808  10.723   3.949   9.498 -1.9652 -0.3054 -0.5460
  295MOL0     O38809   2.162  10.006   2.763 -0.2551  0.0086  0.4122
  295MOL0     C38810   2.271   9.955   2.785  0.3193 -0.1609  0.6050
  295MOL0     O38811   2.389  10.015   2.774 -0.3170  0.2480 -0.5860
  295MOL0     C38812   2.406  10.151   2.742  0.9339  0.2966 -0.3658
  295MOL0     C38813   2.309  10.253   2.745 -0.6037 -0.6487 -0.3203
  295MOL0     C38814   2.343  10.385   2.721  0.0495  0.4253  0.3365
  295MOL0     C38815   2.474  10.427   2.697  0.7987  0.1368  0.9691
  295MOL0     O38816   2.518  10.562   2.669  0.1141  0.1636 -0.0735
  295MOL0     C38817   2.407  10.655   2.660  0.5791 -0.2674  0.3133
  295MOL0     C38818   2.461  10.797   2.677  0.7809  0.6811  0.1021
  295MOL0     C38819   2.348  10.898   2.662  0.0495  0.2705  0.5887
  295MOL0     C38820   2.293  10.920   2.801 -0.4067  0.5559  1.2760
  295MOL0     C38821   2.162  10.998   2.801  0.4517  0.9733 -0.3604
  295MOL0     C38822   2.030  10.919   2.826 -0.0173 -0.6561 -0.6961
  295MOL0     C38823   1.911  11.015   2.841  1.0979 -0.4114  0.7211
  295MOL0     C38824   1.781  10.946   2.894  0.0584 -0.1988 -0.4089
  295MOL0     N38825   1.794  10.911   3.035  0.1682 -0.2431 -0.2831
  295MOL0     C38826   1.821  10.999   3.138 -0.1357 -0.3733  0.1209
  295MOL0     C38827   1.801  10.925   3.253  0.6097 -0.0667  0.2947
  295MOL0     C38828   1.844  10.978   3.396  0.6358  0.9335  0.1180
  295MOL0     C38829   1.714  10.976   3.477  0.4646  0.0043 -0.8857
  295MOL0     C38830   1.756  10.939   3.623  0.8443  0.2422  0.0519
  295MOL0     C38831   1.835  11.048   3.705  0.0390 -0.8074  0.1766
  295MOL0     O38832   1.970  11.042   3.659  0.6379 -0.1151  0.6409
  295MOL0     C38833   2.061  10.994   3.744  1.0924 -0.4772  0.0312
  295MOL0     C38834   2.147  11.083   3.803 -0.0252 -0.4247 -0.0747
  295MOL0     C38835   2.244  11.048   3.890  0.2186  0.9066  0.0719
  295MOL0     C38836   2.258  10.916   3.920  0.2515 -0.5546 -0.8350
  295MOL0     C38837   2.342  10.885   4.040  0.0860 -0.0800  0.1044
  295MOL0     O38838   2.454  10.959   4.055 -0.2866  0.6411  0.2316
  295MOL0     C38839   2.562  10.906   4.123 -0.7445 -0.2685 -0.0239
  295MOL0     C38840   2.645  11.002   4.190  0.1929  0.5211 -0.3536
  295MOL0     C38841   2.755  10.956   4.273  0.4224  0.3491  0.5312
  295MOL0     C38842   2.785  10.817   4.286  0.1832  0.7013 -0.0120
  295MOL0     O38843   2.894  10.768   4.359  0.7545  0.7915  0.7280
  295MOL0     C38844   3.010  10.843   4.409  0.3684  0.1923  0.4043
  295MOL0     C38845   3.116  10.867   4.298  0.4102  0.0155 -0.6232
  295MOL0     C38846   3.150  10.744   4.219 -0.0586  0.4188  0.2373
  295MOL0     C38847   3.150  10.774   4.064 -0.5038  0.1072 -0.9345
  295MOL0     C38848   3.199  10.648   3.992 -0.1894 -0.3733  0.8190
  295MOL0     C38849   3.230  10.670   3.841 -0.1916 -0.1303  0.2947
  295MOL0     C38850   3.333  10.776   3.807 -0.8770  0.7752  0.0545
  295MOL0     C38851   3.362  10.813   3.664 -0.1046  0.0499  0.3406
  295MOL0    Cl38852   3.535  10.867   3.624  0.0465  0.7525  0.2195
  295MOL0     C38853   2.701  10.729   4.219 -0.2719 -0.3614  0.1972
  295MOL0     C38854   2.594  10.769   4.138  0.6988  0.0961  2.1317
  295MOL0     O38855   2.311  10.809   4.126  0.3926  0.3200  0.8147
  295MOL0     C38856   2.182  10.821   3.848 -0.2449  0.1029  0.2188
  295MOL0     C38857   2.082  10.862   3.762 -0.5236 -0.4514 -0.1684
  295MOL0     N38858   1.780  10.798   3.221  0.2467 -0.2206 -0.3564
  295MOL0     N38859   1.780  10.790   3.092  0.5124  0.1857 -0.4685
  295MOL0     C38860   2.567  10.324   2.674 -1.0151  0.7423 -0.5108
  295MOL0     C38861   2.539  10.189   2.714  0.6948 -0.8631 -0.4210
  295MOL0     C38862   2.271   9.820   2.829  0.1827  0.5277 -0.3031
  295MOL0     C38863   2.376   9.738   2.803 -0.6814 -1.0252 -0.3295
  295MOL0     C38864   2.373   9.615   2.862  0.9556 -0.8695  0.4792
  295MOL0     C38865   2.267   9.569   2.939 -0.7570  1.3450  0.0967
  295MOL0     O38866   2.265   9.441   2.999 -0.2999  0.0996 -0.3732
  295MOL0     C38867   2.315   9.329   2.928 -0.1653  1.2297  0.2512
  295MOL0     C38868   2.332   9.204   3.021  0.8061 -0.2005  0.3975
  295MOL0     C38869   2.193   9.159   3.068  0.1360  0.9217 -1.2666
  295MOL0     C38870   2.195   9.051   3.176 -0.2399  0.1846  0.0321
  295MOL0     C38871   2.237   8.918   3.127 -0.2901 -0.9078 -0.2424
  295MOL0     C38872   2.253   8.806   3.077  0.1442  0.5192 -0.1422
  295MOL0     C38873   2.168   9.656   2.974 -0.1081  0.2760 -0.6202
  295MOL0     C38874   2.165   9.772   2.908 -0.4536  1.4052 -0.2376
  295MOL0     H38875   2.204  10.239   2.768 -0.6842  0.8383  0.3121
  295MOL0     H38876   2.267  10.462   2.717  0.6895  1.2266  2.2829
  295MOL0     H38877   2.335  10.655   2.742 -0.5028  2.6703 -0.4987
  295MOL0     H38878   2.345  10.642   2.571  0.9421 -0.0300  0.0218
  295MOL0     H38879   2.524  10.811   2.589 -1.1941 -0.2743 -1.5357
  295MOL0     H38880   2.531  10.813   2.760  2.4933  2.2494 -1.5283
  295MOL0     H38881   2.262  10.876   2.598 -1.1859 -0.9163  2.5743
  295MOL0     H38882   2.382  10.993   2.619 -2.7825  0.8833 -0.5554
  295MOL0     H38883   2.285  10.827   2.858  5.1589  0.4473  2.4971
  295MOL0     H38884   2.370  10.970   2.861  0.8526 -0.7918  0.8258
  295MOL0     H38885   2.144  11.062   2.714 -0.7699  2.6938  1.0799
  295MOL0     H38886   2.192  11.069   2.879  2.2259  0.0644 -0.1654
  295MOL0     H38887   2.046  10.869   2.923  0.4287  3.6895  1.7139
  295MOL0     H38888   2.012  10.840   2.753 -0.0901 -2.4535  1.1397
  295MOL0     H38889   1.939  11.101   2.902 -1.7849  1.0068  0.2031
  295MOL0     H38890   1.892  11.047   2.738 -1.8053 -1.3670  0.8824
  295MOL0     H38891   1.758  10.846   2.854  0.5900 -0.9184  1.0012
  295MOL0     H38892   1.694  11.011   2.882 -0.1645 -0.0799  1.5366
  295MOL0     H38893   1.834  11.106   3.135 -1.8545  0.0552  3.4661
  295MOL0     H38894   1.890  11.077   3.403 -0.6693  1.5790 -0.2202
  295MOL0     H38895   1.919  10.902   3.420 -0.7779 -1.5732 -2.8098
  295MOL0     H38896   1.650  10.894   3.443 -0.8252 -0.1697  1.7051
  295MOL0     H38897   1.660  11.070   3.474 -0.2017 -0.3493 -0.1662
  295MOL0     H38898   1.667  10.917   3.682  1.1414 -1.4699 -0.0734
  295MOL0     H38899   1.810  10.844   3.615 -0.0124 -0.1933 -0.7647
  295MOL0     H38900   1.849  11.027   3.811  1.7995  2.7351  0.7800
  295MOL0     H38901   1.794  11.149   3.702 -0.4108 -0.9346  1.4301
  295MOL0     H38902   2.162  11.190   3.794  1.4483 -0.6274 -0.3509
  295MOL0     H38903   2.292  11.131   3.941 -0.7833 -0.1527  2.9246
  295MOL0     H38904   2.605  11.102   4.198 -2.7615 -0.4293 -1.9333
  295MOL0     H38905   2.827  11.026   4.317  1.1180  0.1371 -0.2439
  295MOL0     H38906   3.056  10.786   4.490  0.4981 -2.1051 -1.1734
  295MOL0     H38907   2.970  10.936   4.450 -2.3079 -1.0353  0.7902
  295MOL0     H38908   3.211  10.882   4.350  0.1537 -1.6700  0.4308
  295MOL0     H38909   3.085  10.953   4.238 -0.1949 -0.2548 -0.7032
  295MOL0     H38910   3.071  10.670   4.231 -2.8030  2.9663 -0.7243
  295MOL0     H38911   3.244  10.700   4.254  1.1410  1.3545 -1.6298
  295MOL0     H38912   3.052  10.798   4.023 -0.4152 -0.1308 -1.2989
  295MOL0     H38913   3.214  10.862   4.060 -1.2578  0.7590  0.6804
  295MOL0     H38914   3.113  10.580   4.001 -0.2307 -0.8639 -2.2890
  295MOL0     H38915   3.282  10.608   4.050  1.8093  3.0018  0.5175
  295MOL0     H38916   3.147  10.712   3.784  2.8799  2.0354 -3.0435
  295MOL0     H38917   3.257  10.573   3.798  0.8156  0.7039 -1.0518
  295MOL0     H38918   3.292  10.868   3.852 -0.9008  1.1959 -0.8134
  295MOL0     H38919   3.425  10.738   3.854  0.0243  1.4187 -1.1400
  295MOL0     H38920   3.290  10.885   3.623 -0.4183  0.4902  1.6225
  295MOL0     H38921   3.330  10.721   3.614 -2.9457 -2.8038  6.4198
  295MOL0     H38922   2.716  10.623   4.231  1.9576 -0.1206 -0.1902
  295MOL0     H38923   2.534  10.695   4.086  0.8606 -0.8213  3.2256
  295MOL0     H38924   2.182  10.715   3.872 -0.4560 -0.0586 -0.4783
  295MOL0     H38925   2.012  10.796   3.713 -1.9603  1.7306 -1.2573
  295MOL0     H38926   2.666  10.356   2.641 -1.0100  1.1708 -0.0901
  295MOL0     H38927   2.604  10.102   2.707  1.3314 -0.3150 -1.5588
  295MOL0     H38928   2.460   9.774   2.743 -2.4001 -2.1016 -3.6473
  295MOL0     H38929   2.454   9.545   2.843 -1.4991 -3.5915 -0.8087
  295MOL0     H38930   2.418   9.349   2.899  0.4465 -2.1563 -0.2913
  295MOL0     H38931   2.243   9.319   2.846  0.3022  0.2705 -0.0543
  295MOL0     H38932   2.387   9.129   2.964 -1.7493 -0.8536 -1.3533
  295MOL0     H38933   2.400   9.224   3.105 -0.1729  2.5486  0.6450
  295MOL0     H38934   2.142   9.122   2.978  1.5538 -1.8657 -1.0319
  295MOL0     H38935   2.132   9.242   3.106  1.6480  0.7546  1.8904
  295MOL0     H38936   2.269   9.086   3.250  1.9378 -0.5928 -1.6544
  295MOL0     H38937   2.095   9.040   3.218  0.5697 -0.9734  1.8210
  295MOL0     H38938   2.276   8.705   3.051 -0.6220  1.1367 -3.6358
  295MOL0     H38939   2.094   9.631   3.050  2.3638 -0.0049  1.8401
  295MOL0     H38940   2.092   9.853   2.916 -0.1205  1.5482  2.1750
  296MOL0     O38941   5.986  10.937   6.415  0.0067 -0.0129  0.6154
  296MOL0     C38942   6.072  10.964   6.501 -0.1857 -0.4837  0.0743
  296MOL0     O38943   6.045  11.040   6.614 -0.1068 -0.5613  0.8474
  296MOL0     C38944   5.928  11.110   6.614 -0.3025 -0.8171 -0.2086
  296MOL0     C38945   5.918  11.237   6.556  0.0963  0.3909  0.2486
  296MOL0     C38946   5.809  11.315   6.578 -0.0474  0.1791 -0.4547
  296MOL0     C38947   5.695  11.270   6.651  1.3853  0.4655 -0.6445
  296MOL0     O38948   5.586  11.353   6.683 -0.2087 -0.2383  0.1995
  296MOL0     C38949   5.464  11.297   6.656  0.3086  0.6606  0.0859
  296MOL0     C38950   5.367  11.419   6.612 -0.3212  0.6809  0.7791
  296MOL0     C38951   5.232  11.363   6.583  0.0137 -0.7154  0.6201
  296MOL0     C38952   5.160  11.461   6.497 -0.0859  0.3598  0.1456
  296MOL0     C38953   5.030  11.409   6.444 -0.4297 -0.2667  0.1009
  296MOL0     C38954   4.970  11.494   6.336  0.2538  0.1229  0.1402
  296MOL0     C38955   4.852  11.425   6.261 -0.1298 -0.3167 -0.2310
  296MOL0     C38956   4.880  11.301   6.170  0.3874 -0.0416 -0.1651
  296MOL0     N38957   5.002  11.302   6.086  0.3874  0.3708 -0.3667
  296MOL0     C38958   5.047  11.408   6.016  0.0912  0.4060 -0.8982
  296MOL0     C38959   5.167  11.365   5.973  0.3022 -1.0391  0.7304
  296MOL0     C38960   5.260  11.436   5.868  0.1190  0.2766 -0.2780
  296MOL0     C38961   5.225  11.583   5.864 -0.1868 -0.2626 -0.8102
  296MOL0     C38962   5.298  11.648   5.748  0.1228 -0.0190 -1.0779
  296MOL0     C38963   5.247  11.790   5.734 -0.6891 -1.1735 -0.1305
  296MOL0     O38964   5.196  11.855   5.855 -0.2231  0.3677 -0.0741
  296MOL0     C38965   5.280  11.905   5.949 -0.1795 -0.3841  0.6705
  296MOL0     C38966   5.420  11.901   5.945 -0.9477 -0.6394  0.0287
  296MOL0     C38967   5.500  11.957   6.043 -0.0660 -0.1585  0.0088
  296MOL0     C38968   5.446  12.014   6.157  0.6957 -0.7544  0.2159
  296MOL0     C38969   5.526  12.084   6.253  0.2395 -0.4967  0.1066
  296MOL0     O38970   5.473  12.139   6.374  0.8770 -0.2224 -0.1506
  296MOL0     C38971   5.563  12.189   6.461  1.0268 -0.6357 -1.2699
  296MOL0     C38972   5.610  12.317   6.460  0.7927  0.1977 -0.5744
  296MOL0     C38973   5.656  12.376   6.574 -0.6072  0.4225 -0.5480
  296MOL0     C38974   5.672  12.307   6.690  0.6646 -0.2748 -0.4220
  296MOL0     O38975   5.717  12.362   6.808 -0.8282 -0.5124 -0.2273
  296MOL0     C38976   5.659  12.309   6.938  0.6516 -0.8151 -0.1609
  296MOL0     C38977   5.680  12.402   7.047 -0.1759  0.5178  0.0272
  296MOL0     C38978   5.631  12.344   7.189 -0.0637  0.1537 -0.0949
  296MOL0     C38979   5.653  12.449   7.292  0.0465  0.3388  0.3510
  296MOL0     C38980   5.572  12.441   7.418 -0.4103  0.1907  0.5355
  296MOL0     C38981   5.622  12.316   7.491  0.3540  0.2669  0.5957
  296MOL0     C38982   5.583  12.321   7.641 -0.6132 -0.7102  0.0111
  296MOL0     C38983   5.589  12.180   7.697  0.0541  0.4395 -0.6151
  296MOL0    Cl38984   5.430  12.101   7.683 -0.0977  0.2050  0.2294
  296MOL0     C38985   5.641  12.163   6.684 -1.1659  0.8206 -0.2773
  296MOL0     C38986   5.584  12.115   6.573  0.6436  0.1017 -0.0062
  296MOL0     O38987   5.649  12.065   6.244 -0.0330 -0.2387 -0.0832
  296MOL0     C38988   5.307  12.002   6.177 -0.3035  0.2572  0.4021
  296MOL0     C38989   5.225  11.965   6.064  0.3072 -0.3103 -0.3723
  296MOL0     N38990   5.205  11.244   6.031 -0.7608 -0.5629 -0.2796
  296MOL0     N38991   5.100  11.208   6.107 -0.3592 -0.6843 -0.0365
  296MOL0     C38992   5.696  11.136   6.708  0.5797  0.5915  1.0715
  296MOL0     C38993   5.814  11.061   6.677  0.0533  0.8552 -1.2494
  296MOL0     C38994   6.210  10.899   6.494  0.1864  0.3824 -0.3418
  296MOL0     C38995   6.328  10.960   6.554 -0.3520  0.4786  0.5830
  296MOL0     C38996   6.453  10.911   6.531 -0.7326  0.8945  0.0535
  296MOL0     C38997   6.478  10.803   6.446 -0.1426 -0.8241  0.2007
  296MOL0     O38998   6.601  10.758   6.425 -0.6190 -0.1271 -0.4153
  296MOL0     C38999   6.676  10.835   6.325 -0.3437  0.1398  0.5482
  296MOL0     C39000   6.830  10.835   6.359  0.2731  0.0086 -0.7085
  296MOL0     C39001   6.860  10.908   6.493 -0.1306  0.0129  0.7004
  296MOL0     C39002   6.873  10.807   6.606 -0.6010  0.2816  1.1025
  296MOL0     C39003   6.933  10.883   6.720 -0.2026 -0.3001  0.2977
  296MOL0     C39004   7.005  10.938   6.803  0.1582 -0.5891  0.8445
  296MOL0     C39005   6.369  10.745   6.391  0.1732 -0.5400  0.2263
  296MOL0     C39006   6.240  10.789   6.417  0.5202  0.8364 -0.6934
  296MOL0     H39007   6.007  11.277   6.508  0.6208  0.2299  1.0633
  296MOL0     H39008   5.809  11.410   6.526  2.2414 -0.9761 -2.7737
  296MOL0     H39009   5.423  11.255   6.749 -0.1818  1.1336  0.0863
  296MOL0     H39010   5.473  11.224   6.575 -0.8919 -0.0808  0.5920
  296MOL0     H39011   5.418  11.472   6.531  1.0018  1.4532  2.0760
  296MOL0     H39012   5.350  11.479   6.701 -0.5113  1.3160  0.3222
  296MOL0     H39013   5.180  11.328   6.672  2.6523 -1.5495  1.9592
  296MOL0     H39014   5.241  11.277   6.516  2.6017 -0.4844  0.5489
  296MOL0     H39015   5.142  11.547   6.563 -0.3238 -0.8738  1.7729
  296MOL0     H39016   5.232  11.496   6.422 -1.1338 -1.5322 -1.8541
  296MOL0     H39017   4.952  11.388   6.518 -1.4493  0.5453 -0.7129
  296MOL0     H39018   5.050  11.313   6.394 -1.7103 -0.7050  0.4014
  296MOL0     H39019   5.057  11.518   6.274  0.1789 -0.6884 -0.2913
  296MOL0     H39020   4.935  11.589   6.379  0.2986  0.0581  0.3211
  296MOL0     H39021   4.774  11.398   6.332 -0.6871  0.6477 -0.4608
  296MOL0     H39022   4.806  11.504   6.201 -0.5962 -0.8774 -0.6203
  296MOL0     H39023   4.798  11.291   6.098  1.3888 -2.6289 -1.0796
  296MOL0     H39024   4.876  11.209   6.229  0.3618  1.0604  1.6158
  296MOL0     H39025   5.001  11.506   6.004 -2.8447 -0.6149  0.7565
  296MOL0     H39026   5.241  11.381   5.775 -1.2558  3.3539 -1.9742
  296MOL0     H39027   5.369  11.428   5.881  0.7135  0.1524 -4.1072
  296MOL0     H39028   5.255  11.624   5.961 -1.5631  1.4923 -1.0812
  296MOL0     H39029   5.117  11.587   5.849 -0.6473 -0.8371  1.8595
  296MOL0     H39030   5.405  11.637   5.768 -0.1005 -0.9410 -0.3418
  296MOL0     H39031   5.272  11.601   5.653  0.5992  1.1706 -1.8301
  296MOL0     H39032   5.185  11.790   5.644  2.8992 -3.1353 -2.8765
  296MOL0     H39033   5.341  11.841   5.709  1.4986 -2.7381  4.0074
  296MOL0     H39034   5.468  11.841   5.868  0.4398 -0.7091  0.9156
  296MOL0     H39035   5.606  11.970   6.027  0.3775  1.1259  3.2709
  296MOL0     H39036   5.615  12.373   6.367  1.1833  1.1483  0.0020
  296MOL0     H39037   5.699  12.476   6.579 -0.2779  0.3715 -1.8995
  296MOL0     H39038   5.727  12.227   6.964 -0.9908 -2.4110 -0.7337
  296MOL0     H39039   5.560  12.265   6.928  1.3163 -2.0699 -1.7990
  296MOL0     H39040   5.616  12.483   7.009 -2.2194 -0.2278  1.6645
  296MOL0     H39041   5.786  12.428   7.046  0.2928 -1.2417 -1.7776
  296MOL0     H39042   5.699  12.263   7.218  0.5183 -0.3809 -2.6987
  296MOL0     H39043   5.529  12.306   7.179 -0.1739  0.8419 -2.2127
  296MOL0     H39044   5.762  12.453   7.304  0.6754 -2.4128 -2.9995
  296MOL0     H39045   5.622  12.543   7.245 -0.3526  0.5540  1.0282
  296MOL0     H39046   5.465  12.439   7.396 -0.0558  1.5199 -1.5612
  296MOL0     H39047   5.589  12.531   7.478  5.0238 -1.9987  2.9689
  296MOL0     H39048   5.730  12.297   7.484  0.2751  0.3105 -3.3605
  296MOL0     H39049   5.568  12.245   7.428 -0.3068  0.8652  0.4759
  296MOL0     H39050   5.656  12.382   7.694 -0.8716 -2.4983  2.6429
  296MOL0     H39051   5.485  12.362   7.668 -0.0460 -1.6033  4.0430
  296MOL0     H39052   5.627  12.170   7.799 -0.6118  0.3896 -0.3675
  296MOL0     H39053   5.664  12.124   7.640 -0.0598 -0.1471 -0.1951
  296MOL0     H39054   5.663  12.086   6.757 -0.5168 -1.3644 -2.6251
  296MOL0     H39055   5.561  12.009   6.565 -2.2756  0.7741 -3.4908
  296MOL0     H39056   5.256  12.054   6.257  0.8710  0.4844  1.0335
  296MOL0     H39057   5.118  11.961   6.082 -0.1338  2.0617 -2.0329
  296MOL0     H39058   5.615  11.090   6.765 -0.0930 -2.5243 -2.0288
  296MOL0     H39059   5.843  10.966   6.720  1.2204  2.0919  0.8838
  296MOL0     H39060   6.319  11.051   6.613 -2.7991 -0.0547  1.1124
  296MOL0     H39061   6.527  10.973   6.583 -3.7798  5.7531 -0.7851
  296MOL0     H39062   6.630  10.933   6.309 -1.5812 -0.3066  1.2367
  296MOL0     H39063   6.670  10.783   6.229 -3.0968  0.3820  0.5207
  296MOL0     H39064   6.867  10.733   6.361 -3.2608 -1.3969  0.6087
  296MOL0     H39065   6.887  10.881   6.277  1.3553  0.9633  0.5433
  296MOL0     H39066   6.790  10.988   6.518  2.9677  2.7876  1.2190
  296MOL0     H39067   6.958  10.957   6.491 -0.0489 -0.1773 -0.1306
  296MOL0     H39068   6.774  10.776   6.638 -1.2040 -2.6473 -2.7993
  296MOL0     H39069   6.937  10.721   6.582 -1.4460  0.2916 -1.5449
  296MOL0     H39070   7.044  10.988   6.889 -1.6072 -2.4882  2.8786
  296MOL0     H39071   6.392  10.664   6.322  2.3562  1.1886 -1.2165
  296MOL0     H39072   6.158  10.737   6.368  1.0363 -1.9743  1.1644
  297MOL0     O39073   9.636   0.267   4.191 -0.4848 -0.3109  0.2071
  297MOL0     C39074   9.757   0.242   4.216  0.2588 -1.3633 -0.6018
  297MOL0     O39075   9.838   0.327   4.292  0.6572 -0.0780  0.1312
  297MOL0     C39076   9.799   0.454   4.332  0.6733 -0.3994  0.2373
  297MOL0     C39077   9.666   0.498   4.344 -0.0619  0.3664  0.3899
  297MOL0     C39078   9.632   0.621   4.394  0.5867  0.0176  0.7215
  297MOL0     C39079   9.732   0.713   4.436  0.4032 -0.7750  0.1009
  297MOL0     O39080   9.701   0.833   4.472  0.2259  0.4020  0.1000
  297MOL0     C39081   9.705   0.855   4.615 -0.8944  0.0394  0.4829
  297MOL0     C39082   9.580   0.940   4.639  0.7404 -0.0638 -0.4004
  297MOL0     C39083   9.589   1.019   4.769  0.3319  0.4851 -0.1277
  297MOL0     C39084   9.466   1.096   4.798 -0.4198  0.1125  1.4238
  297MOL0     C39085   9.482   1.210   4.902  0.0118 -0.6092  0.9277
  297MOL0     C39086   9.346   1.274   4.953  0.2420  1.2625 -0.4407
  297MOL0     C39087   9.381   1.374   5.065 -0.5334  0.3773 -0.2113
  297MOL0     C39088   9.286   1.392   5.181 -0.3882 -0.4034 -0.0025
  297MOL0     N39089   9.154   1.454   5.138  0.1163  0.0474  0.2380
  297MOL0     C39090   9.120   1.586   5.157  0.8534 -0.2763 -0.3791
  297MOL0     C39091   8.977   1.585   5.145  0.3713  0.9144  0.2895
  297MOL0     C39092   8.882   1.688   5.144  0.2940  1.7548  0.9515
  297MOL0     C39093   8.901   1.796   5.254  0.2715 -0.6953  0.1729
  297MOL0     C39094   8.864   1.743   5.398 -0.6325 -1.0931 -0.2610
  297MOL0     C39095   8.935   1.823   5.506 -0.5892 -0.7712  0.0373
  297MOL0     O39096   8.960   1.964   5.474  0.5104 -0.0370  0.6232
  297MOL0     C39097   8.869   2.070   5.492  0.2411 -0.4689  0.1099
  297MOL0     C39098   8.904   2.191   5.442 -0.3373  0.8914 -0.9491
  297MOL0     C39099   8.817   2.300   5.454  0.0228 -0.2797 -0.2870
  297MOL0     C39100   8.699   2.301   5.525 -0.3951  0.5615 -0.9156
  297MOL0     C39101   8.617   2.422   5.540  0.6345 -0.1340 -0.3287
  297MOL0     O39102   8.672   2.536   5.484 -0.2420 -0.2069 -0.5474
  297MOL0     C39103   8.626   2.666   5.506 -0.4062 -1.0636  0.0772
  297MOL0     C39104   8.664   2.759   5.408 -0.2689  0.6923  0.5773
  297MOL0     C39105   8.607   2.885   5.404 -0.7549 -0.5782  0.1472
  297MOL0     C39106   8.510   2.928   5.490  0.3318  1.0794 -0.5231
  297MOL0     O39107   8.466   3.058   5.476  0.8521  0.2024 -0.1547
  297MOL0     C39108   8.468   3.141   5.586 -0.2388 -0.6791 -0.7186
  297MOL0     C39109   8.421   3.279   5.552 -0.5092  1.1065  0.5294
  297MOL0     C39110   8.458   3.390   5.660 -0.0595 -0.1509  0.2692
  297MOL0     C39111   8.390   3.530   5.623  0.6405  0.1158 -0.2026
  297MOL0     C39112   8.431   3.635   5.719  0.1949 -0.1932  0.6261
  297MOL0     C39113   8.332   3.763   5.699  0.0053 -0.2773 -0.3421
  297MOL0     C39114   8.377   3.880   5.795  0.8872  0.6433 -0.4554
  297MOL0     C39115   8.460   3.843   5.926  0.8875  0.0743  0.0399
  297MOL0    Cl39116   8.502   4.002   6.002  0.2349  0.3756  0.2891
  297MOL0     C39117   8.468   2.840   5.593 -0.2703 -0.1777 -0.2864
  297MOL0     C39118   8.535   2.706   5.594  0.5322 -0.1569  0.1413
  297MOL0     O39119   8.508   2.414   5.593 -0.4841 -0.9017 -0.6184
  297MOL0     C39120   8.661   2.179   5.571  0.4143  0.1603 -1.2081
  297MOL0     C39121   8.739   2.061   5.558 -1.2810  0.0023 -0.1687
  297MOL0     N39122   8.949   1.452   5.132  0.0256  0.6636 -0.4354
  297MOL0     N39123   9.051   1.373   5.131  0.4739  0.0888 -0.1114
  297MOL0     C39124   9.870   0.675   4.418 -0.3063  0.6671  0.3247
  297MOL0     C39125   9.896   0.542   4.375 -0.7051 -0.1759 -0.4120
  297MOL0     C39126   9.820   0.125   4.169  1.0107  0.5835  0.2164
  297MOL0     C39127   9.954   0.101   4.198 -0.0489  0.4783 -0.5035
  297MOL0     C39128  10.019  -0.002   4.140 -0.2701 -0.6510  0.0988
  297MOL0     C39129   9.952  -0.093   4.056 -0.5622  0.2718 -1.0905
  297MOL0     O39130  10.018  -0.200   4.012 -0.0903 -0.0727  0.2535
  297MOL0     C39131   9.985  -0.268   3.890 -0.1948  0.1711  0.7406
  297MOL0     C39132   9.958  -0.173   3.777  0.6139 -1.2417  0.0668
  297MOL0     C39133  10.068  -0.077   3.714 -0.1752 -0.6447  0.0865
  297MOL0     C39134  10.055   0.060   3.779  0.5694  0.0937  1.0714
  297MOL0     C39135  10.182   0.136   3.760 -0.0109 -0.5740 -0.1165
  297MOL0     C39136  10.279   0.211   3.761  0.3440 -0.2778  0.6144
  297MOL0     C39137   9.807  -0.075   4.039 -0.3062  0.0017 -0.2691
  297MOL0     C39138   9.745   0.038   4.089 -0.3768  0.0231 -0.0487
  297MOL0     H39139   9.576   0.438   4.337 -1.0938  1.6864  1.6689
  297MOL0     H39140   9.525   0.641   4.396  0.4805 -0.4693  0.2451
  297MOL0     H39141   9.783   0.927   4.639 -1.3692  0.4210  0.8954
  297MOL0     H39142   9.720   0.762   4.672 -0.0334 -1.6666 -2.3118
  297MOL0     H39143   9.486   0.885   4.627  1.3516 -1.3643  0.4286
  297MOL0     H39144   9.583   1.007   4.553  1.6929  0.1483 -0.2158
  297MOL0     H39145   9.666   1.097   4.761 -0.5470  1.4013  0.2026
  297MOL0     H39146   9.618   0.970   4.862  1.6706  2.9665  0.8556
  297MOL0     H39147   9.434   1.141   4.704 -0.0956 -0.0040  1.2573
  297MOL0     H39148   9.395   1.021   4.835  1.7887 -3.3235 -0.7831
  297MOL0     H39149   9.525   1.302   4.862 -2.0185  0.1592  0.3732
  297MOL0     H39150   9.539   1.159   4.981 -0.3712 -1.4036  0.7015
  297MOL0     H39151   9.280   1.195   4.989 -3.7806  3.6752 -1.7887
  297MOL0     H39152   9.289   1.329   4.877 -0.5589  1.0104 -0.0261
  297MOL0     H39153   9.476   1.361   5.117 -0.2196  1.1520 -0.5680
  297MOL0     H39154   9.407   1.466   5.012  2.0724  0.5768  1.2483
  297MOL0     H39155   9.326   1.470   5.246  1.8307 -0.7481 -0.8860
  297MOL0     H39156   9.270   1.300   5.238  0.1484 -0.6503 -0.2492
  297MOL0     H39157   9.193   1.666   5.169 -2.1498  2.1744  4.7984
  297MOL0     H39158   8.784   1.642   5.156  0.5599  0.6631 -0.6968
  297MOL0     H39159   8.883   1.726   5.041  2.8903  1.0537  0.6553
  297MOL0     H39160   8.829   1.875   5.230  0.6774 -0.9948 -2.3020
  297MOL0     H39161   9.004   1.833   5.250 -0.3979  1.5542  1.8069
  297MOL0     H39162   8.755   1.750   5.408 -0.5559  1.0324 -0.3477
  297MOL0     H39163   8.887   1.637   5.409 -0.0597 -0.8994  0.5229
  297MOL0     H39164   9.032   1.774   5.521  1.5129  2.9270 -0.3089
  297MOL0     H39165   8.878   1.815   5.599  2.0122 -3.8811  1.5890
  297MOL0     H39166   8.996   2.184   5.385 -1.2201  2.2084 -2.6556
  297MOL0     H39167   8.860   2.391   5.415 -0.5521 -0.3765 -1.1741
  297MOL0     H39168   8.737   2.714   5.341 -2.0235 -0.1343 -0.8753
  297MOL0     H39169   8.647   2.961   5.337 -2.6423  1.7436  1.4958
  297MOL0     H39170   8.571   3.145   5.622 -0.8332  2.0392  1.0124
  297MOL0     H39171   8.403   3.093   5.659 -1.4062  1.2009 -0.4503
  297MOL0     H39172   8.313   3.285   5.534 -0.4841 -0.7484 -0.3924
  297MOL0     H39173   8.476   3.311   5.464  1.6596  0.3403  1.5493
  297MOL0     H39174   8.564   3.415   5.671 -0.4078  2.6120 -1.6573
  297MOL0     H39175   8.431   3.358   5.761  4.3933 -1.7902  1.1631
  297MOL0     H39176   8.418   3.569   5.524 -1.2059  2.4884  0.1437
  297MOL0     H39177   8.281   3.518   5.627  0.4849  1.6494  0.7870
  297MOL0     H39178   8.537   3.660   5.714  0.0233  0.9517  2.0909
  297MOL0     H39179   8.408   3.601   5.821  4.0147  0.3640  1.8385
  297MOL0     H39180   8.229   3.741   5.730 -0.0564  1.4807  0.8224
  297MOL0     H39181   8.336   3.787   5.593  2.0477 -0.4743 -0.3552
  297MOL0     H39182   8.454   3.940   5.747  1.0649  1.3616  0.6820
  297MOL0     H39183   8.290   3.941   5.822  0.4301 -0.5279  0.8716
  297MOL0     H39184   8.557   3.796   5.909  2.3665  1.4034  3.6584
  297MOL0     H39185   8.397   3.788   5.998 -2.2297  1.3611 -1.5242
  297MOL0     H39186   8.382   2.867   5.654 -1.5017 -1.1731 -1.5166
  297MOL0     H39187   8.492   2.637   5.665 -1.0736 -1.0270 -1.6008
  297MOL0     H39188   8.567   2.175   5.626  1.2723  4.4855  1.0884
  297MOL0     H39189   8.711   1.965   5.599 -0.4316 -0.3450 -0.3834
  297MOL0     H39190   9.965   0.726   4.430  1.5274 -2.2292 -0.8552
  297MOL0     H39191   9.995   0.503   4.360 -1.5947 -1.8717 -2.1707
  297MOL0     H39192  10.010   0.162   4.268 -2.8022 -0.1571  2.4867
  297MOL0     H39193  10.124  -0.025   4.151 -0.7522 -2.9638  0.1874
  297MOL0     H39194   9.892  -0.325   3.901 -0.8240  1.3802  1.8537
  297MOL0     H39195  10.069  -0.338   3.876 -0.6970 -0.4915  0.9697
  297MOL0     H39196   9.937  -0.241   3.694  1.9782 -1.4581 -0.1359
  297MOL0     H39197   9.868  -0.113   3.792 -0.3472 -2.7203  0.5144
  297MOL0     H39198  10.067  -0.067   3.605 -2.4134  1.8753  0.2170
  297MOL0     H39199  10.162  -0.124   3.742  0.2783 -0.9277 -1.7718
  297MOL0     H39200   9.973   0.119   3.736  1.5946  0.3906 -0.6021
  297MOL0     H39201  10.047   0.049   3.887  1.7499 -3.4966  0.9156
  297MOL0     H39202  10.368   0.270   3.751  0.6849 -0.6015  1.5856
  297MOL0     H39203   9.752  -0.137   3.969  0.6887  1.5379 -2.5276
  297MOL0     H39204   9.639   0.060   4.078  0.3057  2.9855 -1.9972
  298MOL0     O39205  11.388  11.325   8.156  0.7999  0.2121 -0.5120
  298MOL0     C39206  11.431  11.360   8.053  0.1440 -0.3925  0.1274
  298MOL0     O39207  11.500  11.471   8.028  0.1259  0.2439  0.4574
  298MOL0     C39208  11.475  11.581   8.106  0.3326  0.6717  0.7808
  298MOL0     C39209  11.385  11.684   8.073 -0.3149 -0.7158  0.7845
  298MOL0     C39210  11.384  11.788   8.170 -0.1226 -1.1663  0.5195
  298MOL0     C39211  11.454  11.796   8.295 -0.2359 -0.2073  1.2354
  298MOL0     O39212  11.456  11.922   8.363 -0.2709  0.7991  0.2443
  298MOL0     C39213  11.530  11.942   8.492  0.0598 -0.1549 -0.3358
  298MOL0     C39214  11.464  12.044   8.582  0.4710 -0.8867 -0.6429
  298MOL0     C39215  11.352  11.972   8.667 -0.8967 -0.0969  1.0922
  298MOL0     C39216  11.255  12.069   8.727 -0.4639 -0.2436  0.7985
  298MOL0     C39217  11.118  12.006   8.744  0.2858  0.4787 -0.5052
  298MOL0     C39218  11.142  11.898   8.850  0.5420  0.3761 -0.0691
  298MOL0     C39219  11.006  11.822   8.871  0.3757  0.3019 -0.4696
  298MOL0     C39220  10.987  11.770   9.013 -0.0574  1.1155  0.3059
  298MOL0     N39221  10.953  11.868   9.110 -0.1038 -0.3726  0.0559
  298MOL0     C39222  10.863  11.836   9.199  0.4625 -0.0183 -0.3334
  298MOL0     C39223  10.827  11.947   9.258 -0.1362 -0.1832 -1.8201
  298MOL0     C39224  10.723  11.971   9.370 -0.2766 -0.0315  0.5475
  298MOL0     C39225  10.587  11.903   9.347 -0.7370 -0.7602  0.0956
  298MOL0     C39226  10.506  11.897   9.484  0.8577 -0.1735  0.7780
  298MOL0     C39227  10.359  11.944   9.482 -0.3983  0.8840  0.3338
  298MOL0     O39228  10.341  12.088   9.467 -0.1914 -0.4234 -0.2915
  298MOL0     C39229  10.210  12.123   9.488  0.1578  0.8550 -0.8056
  298MOL0     C39230  10.182  12.255   9.471  0.3315 -0.6418  0.0022
  298MOL0     C39231  10.060  12.312   9.493 -0.1962 -0.1733 -0.2622
  298MOL0     C39232   9.948  12.234   9.521  0.5134 -0.0608  1.3217
  298MOL0     C39233   9.815  12.291   9.539 -0.1169  0.0639  0.8969
  298MOL0     O39234   9.816  12.426   9.571  0.5652 -0.6091  0.4519
  298MOL0     C39235   9.684  12.486   9.563 -0.3539 -0.2681 -0.0876
  298MOL0     C39236   9.613  12.483   9.444  0.8330  1.2010  0.3634
  298MOL0     C39237   9.488  12.539   9.432 -0.5338 -0.4046  0.1003
  298MOL0     C39238   9.424  12.587   9.552 -0.0423  0.9142  0.0646
  298MOL0     O39239   9.287  12.620   9.552  0.4743  0.3393  0.1402
  298MOL0     C39240   9.239  12.724   9.624  0.6927 -0.7300 -0.4002
  298MOL0     C39241   9.104  12.759   9.565  0.3964 -0.1196  0.6074
  298MOL0     C39242   9.131  12.825   9.426  0.2309 -0.3992 -0.6380
  298MOL0     C39243   9.160  12.972   9.441  0.4639 -0.0261  0.0735
  298MOL0     C39244   9.179  13.027   9.306  0.7261 -0.3525  0.4355
  298MOL0     C39245   9.255  13.167   9.306 -0.3391 -0.3194  0.0477
  298MOL0     C39246   9.278  13.198   9.152 -0.0612  0.7133 -0.9944
  298MOL0     C39247   9.366  13.317   9.124  0.0862 -0.9131 -0.1799
  298MOL0    Cl39248   9.288  13.469   9.163 -0.2528 -0.3550  0.0069
  298MOL0     C39249   9.496  12.597   9.672 -0.7099  0.4049  0.0906
  298MOL0     C39250   9.627  12.544   9.683 -0.3017  0.5913 -1.0725
  298MOL0     O39251   9.715  12.221   9.520 -0.4350  1.0181 -0.3433
  298MOL0     C39252   9.969  12.097   9.521  0.2269  0.1282  0.4705
  298MOL0     C39253  10.093  12.042   9.503  0.0175  0.1092  0.1298
  298MOL0     N39254  10.905  12.051   9.205  0.0340  0.2064 -0.3993
  298MOL0     N39255  10.980  11.999   9.113  0.2002 -0.0033 -0.1557
  298MOL0     C39256  11.534  11.681   8.325 -0.0650 -0.1555  0.0325
  298MOL0     C39257  11.546  11.585   8.227 -0.1726 -0.2240  0.0621
  298MOL0     C39258  11.411  11.272   7.941 -0.3279 -0.1830 -0.5072
  298MOL0     C39259  11.481  11.286   7.824 -0.2490  0.1767 -1.0381
  298MOL0     C39260  11.476  11.196   7.718 -0.0556 -0.3782  0.4702
  298MOL0     C39261  11.394  11.084   7.726  0.3891  0.6349  0.1632
  298MOL0     O39262  11.384  11.002   7.615  0.1711 -0.2260  0.2557
  298MOL0     C39263  11.321  10.876   7.615 -0.2050  1.0346  0.5448
  298MOL0     C39264  11.167  10.889   7.601 -0.1515 -0.1142  0.4109
  298MOL0     C39265  11.137  10.940   7.462 -0.0693  0.0509 -0.1822
  298MOL0     C39266  11.132  11.092   7.447 -0.6462  0.4331 -0.1193
  298MOL0     C39267  11.038  11.145   7.343  0.7263  0.2498 -0.4579
  298MOL0     C39268  10.952  11.188   7.268 -0.6022 -0.6482  0.6258
  298MOL0     C39269  11.328  11.060   7.845  0.1576 -0.0757 -1.0972
  298MOL0     C39270  11.339  11.149   7.951  0.6378 -0.6319 -0.5806
  298MOL0     H39271  11.328  11.672   7.981 -0.0901  0.0326  0.5365
  298MOL0     H39272  11.320  11.874   8.149 -0.4320 -0.8834  2.3994
  298MOL0     H39273  11.633  11.966   8.467 -0.2561  1.4859 -0.1263
  298MOL0     H39274  11.533  11.849   8.550 -0.0488 -1.3317 -2.1314
  298MOL0     H39275  11.414  12.131   8.537 -3.1887 -1.5879  1.6313
  298MOL0     H39276  11.532  12.073   8.662 -1.2002  1.6147  0.0126
  298MOL0     H39277  11.395  11.905   8.742 -1.5044  0.6982  2.1649
  298MOL0     H39278  11.300  11.913   8.590 -0.0206  0.8270 -0.2545
  298MOL0     H39279  11.288  12.107   8.824  0.6710 -1.4604  0.9236
  298MOL0     H39280  11.253  12.154   8.658  0.0528 -0.1945  0.8418
  298MOL0     H39281  11.085  11.962   8.650  1.8594  1.6724 -1.6598
  298MOL0     H39282  11.038  12.072   8.778 -0.0077  0.2248 -0.6988
  298MOL0     H39283  11.170  11.942   8.946 -1.0301  0.7311  0.2645
  298MOL0     H39284  11.218  11.823   8.827 -1.2954 -0.4130 -4.6813
  298MOL0     H39285  10.924  11.890   8.848 -1.0079 -0.5782  1.5567
  298MOL0     H39286  11.026  11.741   8.799  0.0829  1.4134 -1.8581
  298MOL0     H39287  11.080  11.720   9.040 -0.8282 -1.0499 -0.7872
  298MOL0     H39288  10.904  11.698   9.014  0.0141  0.3412 -6.0864
  298MOL0     H39289  10.806  11.746   9.222 -0.5504  0.2022 -1.8269
  298MOL0     H39290  10.717  12.080   9.382  2.2141  0.5708 -2.4147
  298MOL0     H39291  10.770  11.941   9.464  1.4443  2.0008  0.4116
  298MOL0     H39292  10.608  11.804   9.306 -2.4119 -1.1161  0.0183
  298MOL0     H39293  10.528  11.959   9.273  3.5328  2.1503 -1.4567
  298MOL0     H39294  10.493  11.796   9.524  1.0666  0.0344  1.3770
  298MOL0     H39295  10.554  11.945   9.569  1.7357  0.5622 -0.1081
  298MOL0     H39296  10.317  11.920   9.580  0.1054  0.9464  0.5670
  298MOL0     H39297  10.313  11.894   9.396 -0.8430 -0.2744  1.2161
  298MOL0     H39298  10.269  12.308   9.433  1.6400 -0.8412  2.5050
  298MOL0     H39299  10.046  12.420   9.492  1.7543  0.1148  0.5432
  298MOL0     H39300   9.666  12.451   9.355 -0.5411 -2.0351  0.5548
  298MOL0     H39301   9.434  12.553   9.340 -2.1757  0.7936  1.1971
  298MOL0     H39302   9.292  12.817   9.603 -0.1104 -0.7486 -2.7406
  298MOL0     H39303   9.230  12.702   9.731  1.8303  3.9183  0.8603
  298MOL0     H39304   9.047  12.832   9.623 -0.7201  1.0610 -1.8076
  298MOL0     H39305   9.042  12.669   9.561 -1.2968  1.0210 -0.1539
  298MOL0     H39306   9.050  12.810   9.354 -2.0977  2.1304  1.2174
  298MOL0     H39307   9.219  12.781   9.379  2.8434  0.0520  3.3583
  298MOL0     H39308   9.078  13.025   9.490  0.6262  1.8020 -1.5200
  298MOL0     H39309   9.257  12.977   9.491  0.4660  3.1669 -0.0484
  298MOL0     H39310   9.085  13.031   9.250 -0.2642  2.5762  2.0937
  298MOL0     H39311   9.247  12.966   9.245 -1.7563 -1.4996 -1.3552
  298MOL0     H39312   9.355  13.162   9.350 -0.1934  1.9698  0.1149
  298MOL0     H39313   9.193  13.246   9.351  2.1555  2.2584 -0.7179
  298MOL0     H39314   9.322  13.111   9.102  1.8197  0.3053  1.1976
  298MOL0     H39315   9.187  13.222   9.096  0.6787  0.8757 -2.1530
  298MOL0     H39316   9.413  13.327   9.026  1.8078  3.2666  0.8677
  298MOL0     H39317   9.449  13.319   9.196 -1.5175  2.2290  1.8223
  298MOL0     H39318   9.449  12.639   9.760 -1.6792  1.0739 -0.7186
  298MOL0     H39319   9.681  12.551   9.777  0.3545 -0.6623 -1.3361
  298MOL0     H39320   9.887  12.027   9.524  1.2217 -1.2523 -1.9725
  298MOL0     H39321  10.098  11.934   9.505 -0.5713  0.0183 -1.5854
  298MOL0     H39322  11.593  11.675   8.416 -3.3298  1.8839  2.4961
  298MOL0     H39323  11.602  11.494   8.243 -1.2934 -0.8997  0.2804
  298MOL0     H39324  11.543  11.372   7.803 -1.0349  0.2719 -3.3255
  298MOL0     H39325  11.536  11.205   7.629 -1.2099 -1.9225 -0.5324
  298MOL0     H39326  11.344  10.817   7.704 -0.0078 -1.4938 -1.0878
  298MOL0     H39327  11.363  10.823   7.530 -3.2031 -1.1636  0.3133
  298MOL0     H39328  11.105  10.799   7.612 -3.4195  2.1220  1.7955
  298MOL0     H39329  11.132  10.963   7.673 -1.2913  2.3461 -2.4750
  298MOL0     H39330  11.042  10.894   7.434 -0.6381  1.8745 -1.4883
  298MOL0     H39331  11.213  10.900   7.395  1.4566  0.2741  1.3559
  298MOL0     H39332  11.108  11.146   7.539  0.8178 -1.1768  1.2951
  298MOL0     H39333  11.235  11.119   7.421 -0.4161  1.7770  1.9130
  298MOL0     H39334  10.862  11.214   7.217 -0.9504 -0.0329  1.5325
  298MOL0     H39335  11.265  10.973   7.854 -0.9350  0.8248  0.3030
  298MOL0     H39336  11.307  11.121   8.051 -2.9373  1.7880 -0.8513
  299MOL0     O39337   2.187   2.632   5.587  0.2841  0.2078 -0.0509
  299MOL0     C39338   2.165   2.592   5.472  0.7558 -0.0035  0.1549
  299MOL0     O39339   2.046   2.593   5.406 -0.3825  0.4660 -0.4307
  299MOL0     C39340   1.932   2.635   5.469  0.2996  0.4560  0.4990
  299MOL0     C39341   1.865   2.735   5.402  0.9922  0.1383  0.3986
  299MOL0     C39342   1.738   2.773   5.451 -0.8202 -0.1427  0.4731
  299MOL0     C39343   1.688   2.717   5.572 -0.0640 -0.9333  0.4126
  299MOL0     O39344   1.559   2.731   5.623 -0.9730  0.1251  0.3688
  299MOL0     C39345   1.471   2.822   5.551  0.6656  0.2634  1.0486
  299MOL0     C39346   1.417   2.741   5.433  0.6727 -0.9056  0.1545
  299MOL0     C39347   1.368   2.606   5.472 -0.0691 -0.1083 -0.0627
  299MOL0     C39348   1.254   2.608   5.579 -0.6583 -0.3846 -0.1865
  299MOL0     C39349   1.225   2.469   5.630  0.5319  0.2046 -0.1883
  299MOL0     C39350   1.110   2.473   5.733  0.5547  0.3611 -0.6522
  299MOL0     C39351   1.076   2.325   5.771  1.0739 -0.3619 -1.1514
  299MOL0     C39352   0.960   2.269   5.680 -0.3927 -0.6321  0.4182
  299MOL0     N39353   0.930   2.128   5.710 -0.1978 -0.7677 -0.1061
  299MOL0     C39354   0.912   2.012   5.633 -0.2749 -0.2516 -0.2146
  299MOL0     C39355   0.865   1.911   5.716  0.6114 -0.3806 -0.1035
  299MOL0     C39356   0.835   1.772   5.679  0.1161  0.2406 -0.1366
  299MOL0     C39357   0.939   1.712   5.582  0.0701 -0.0056  0.3201
  299MOL0     C39358   0.874   1.578   5.525 -0.5804 -0.9056 -0.7475
  299MOL0     C39359   0.982   1.505   5.453 -0.5109  0.4797  0.3665
  299MOL0     O39360   1.014   1.571   5.331 -0.4226 -0.6663  0.4019
  299MOL0     C39361   1.118   1.514   5.259  0.2681 -0.4089  0.3474
  299MOL0     C39362   1.156   1.574   5.130  0.3389 -0.0550 -0.8336
  299MOL0     C39363   1.262   1.533   5.050 -0.1619 -0.5038 -0.3737
  299MOL0     C39364   1.333   1.414   5.087 -0.7200  0.1842  1.1919
  299MOL0     C39365   1.458   1.368   5.013 -0.1468 -0.3900  0.8312
  299MOL0     O39366   1.526   1.266   5.065  0.1284 -0.2493  0.3802
  299MOL0     C39367   1.637   1.227   5.001  0.8500  0.4924  0.4128
  299MOL0     C39368   1.650   1.099   4.951 -0.3556  0.5280  0.0766
  299MOL0     C39369   1.773   1.056   4.895 -0.4928  0.2522  0.4409
  299MOL0     C39370   1.884   1.146   4.895  0.2308  1.2897  0.5399
  299MOL0     O39371   1.989   1.108   4.818  0.1331 -0.3344  0.2048
  299MOL0     C39372   2.108   1.181   4.805 -1.2183 -0.3240 -0.5694
  299MOL0     C39373   2.084   1.272   4.682 -0.8005  0.7810  0.3734
  299MOL0     C39374   2.199   1.372   4.677 -0.0016 -0.6198 -0.2004
  299MOL0     C39375   2.190   1.488   4.578 -0.0128  0.8162 -0.0258
  299MOL0     C39376   2.260   1.616   4.615  0.3952  0.7007  0.2011
  299MOL0     C39377   2.408   1.588   4.640  1.3108  0.3230 -0.1616
  299MOL0     C39378   2.501   1.698   4.585  0.3929 -0.0627 -0.3538
  299MOL0     C39379   2.487   1.840   4.654 -1.2210  0.5531  0.0960
  299MOL0    Cl39380   2.352   1.930   4.629 -0.4620  0.2957  0.1228
  299MOL0     C39381   1.860   1.283   4.935  0.2899 -0.9704  0.6137
  299MOL0     C39382   1.744   1.319   4.999  0.1312 -0.0847 -0.5884
  299MOL0     O39383   1.499   1.444   4.922 -0.1553 -0.1805 -0.8124
  299MOL0     C39384   1.293   1.349   5.208  0.2775  0.2352 -0.1632
  299MOL0     C39385   1.194   1.404   5.295 -0.4949 -0.1813  0.0376
  299MOL0     N39386   0.845   1.972   5.834 -0.3355 -0.4641 -0.5356
  299MOL0     N39387   0.872   2.104   5.833 -0.6084  0.1590  0.6299
  299MOL0     C39388   1.761   2.628   5.637 -0.1391 -0.7896  0.1528
  299MOL0     C39389   1.881   2.577   5.584 -0.4834  0.5004  0.2253
  299MOL0     C39390   2.287   2.565   5.394  0.8152 -0.9487  0.7252
  299MOL0     C39391   2.415   2.618   5.427  0.2904  0.0916 -0.6747
  299MOL0     C39392   2.521   2.567   5.349 -0.2860 -0.1838  0.1976
  299MOL0     C39393   2.506   2.500   5.241 -0.5592  0.2071  0.6818
  299MOL0     O39394   2.611   2.448   5.162 -0.2440  0.1389  1.2216
  299MOL0     C39395   2.730   2.514   5.161 -0.3687 -0.0149  1.0877
  299MOL0     C39396   2.789   2.492   5.026  0.3710 -0.0634  0.2941
  299MOL0     C39397   2.919   2.406   5.036  1.2692 -0.2465 -1.3675
  299MOL0     C39398   3.010   2.428   4.915 -0.1458 -0.2343 -0.1648
  299MOL0     C39399   3.104   2.314   4.888  0.6282  0.1315 -0.1170
  299MOL0     C39400   3.180   2.219   4.892 -1.4977  0.0332  0.5807
  299MOL0     C39401   2.380   2.469   5.194  0.1964 -0.8838 -0.3355
  299MOL0     C39402   2.272   2.503   5.272  0.4449  0.0639 -0.5801
  299MOL0     H39403   1.901   2.784   5.312  2.3702 -3.5752 -1.2996
  299MOL0     H39404   1.690   2.854   5.397 -1.7920 -0.4173  0.9075
  299MOL0     H39405   1.522   2.915   5.524 -3.8352  3.4375  2.4157
  299MOL0     H39406   1.381   2.850   5.606 -0.7737 -0.2047 -0.9459
  299MOL0     H39407   1.486   2.732   5.350 -2.0609  0.6910 -2.5018
  299MOL0     H39408   1.344   2.805   5.382  0.9189 -2.1292 -1.8394
  299MOL0     H39409   1.452   2.552   5.516 -0.2899 -1.0574 -0.7538
  299MOL0     H39410   1.332   2.557   5.380 -3.0683  2.8326 -0.6566
  299MOL0     H39411   1.292   2.665   5.664  2.0326  0.3686 -1.7952
  299MOL0     H39412   1.166   2.666   5.547 -2.0999  0.7333  4.9347
  299MOL0     H39413   1.321   2.438   5.671  1.5448  2.2172 -0.8730
  299MOL0     H39414   1.206   2.412   5.538  2.4318  1.1034 -1.2095
  299MOL0     H39415   1.030   2.536   5.695  0.6329  0.3991 -0.7555
  299MOL0     H39416   1.140   2.531   5.820 -1.9157 -0.4438  0.8089
  299MOL0     H39417   1.160   2.255   5.764  0.5132 -1.6272  2.4399
  299MOL0     H39418   1.047   2.314   5.876 -3.0476 -1.3841 -2.2189
  299MOL0     H39419   0.990   2.287   5.576 -0.3729  0.3223  0.5762
  299MOL0     H39420   0.868   2.326   5.698 -2.4054 -3.1372 -1.3047
  299MOL0     H39421   0.955   1.986   5.536 -2.3455 -2.5706 -0.6168
  299MOL0     H39422   0.742   1.777   5.621 -1.0594  2.6557  1.7298
  299MOL0     H39423   0.818   1.702   5.761 -1.9599 -2.4690 -2.6972
  299MOL0     H39424   1.032   1.683   5.631  0.6637 -0.4619 -1.0360
  299MOL0     H39425   0.949   1.779   5.496 -3.1018  0.7858  0.4262
  299MOL0     H39426   0.847   1.512   5.608 -0.6799 -1.2626 -1.0607
  299MOL0     H39427   0.784   1.600   5.466  1.6151  0.6852 -3.7990
  299MOL0     H39428   0.948   1.402   5.436  3.7111 -1.0261 -0.3809
  299MOL0     H39429   1.069   1.499   5.519 -0.7990 -0.1799  0.6978
  299MOL0     H39430   1.099   1.659   5.093 -0.2798  0.3345  0.8939
  299MOL0     H39431   1.301   1.586   4.964  0.2683 -2.2665 -1.2995
  299MOL0     H39432   1.569   1.027   4.949  0.0657 -0.0186  1.4914
  299MOL0     H39433   1.786   0.960   4.847  2.2188  0.9908 -0.5222
  299MOL0     H39434   2.204   1.130   4.800 -1.7053 -1.3023 -0.1201
  299MOL0     H39435   2.119   1.231   4.902  2.3294  0.3079 -1.1631
  299MOL0     H39436   1.985   1.320   4.684  0.4261  3.5178 -0.6247
  299MOL0     H39437   2.083   1.213   4.590 -0.2033 -0.5397  1.1839
  299MOL0     H39438   2.298   1.324   4.671  0.2947  0.0209 -0.5792
  299MOL0     H39439   2.189   1.418   4.775  0.0586 -0.4937 -0.2522
  299MOL0     H39440   2.226   1.459   4.478 -4.7252 -0.0185 -1.7560
  299MOL0     H39441   2.084   1.514   4.570 -0.7578 -1.6239  0.9946
  299MOL0     H39442   2.211   1.648   4.707 -0.5830  1.0198 -0.4118
  299MOL0     H39443   2.235   1.676   4.527 -0.6225  1.3856  0.9207
  299MOL0     H39444   2.429   1.491   4.594 -0.6283 -0.1135 -0.2101
  299MOL0     H39445   2.422   1.579   4.748  0.5366 -1.1933 -0.1663
  299MOL0     H39446   2.606   1.673   4.604 -0.0331 -0.9595  0.9255
  299MOL0     H39447   2.491   1.698   4.476 -3.3631 -1.3750 -0.1252
  299MOL0     H39448   2.566   1.902   4.610 -0.4847  0.3495  1.1043
  299MOL0     H39449   2.517   1.836   4.759 -0.6572  3.1187  0.1044
  299MOL0     H39450   1.936   1.357   4.914  0.5782  0.0040  4.3626
  299MOL0     H39451   1.743   1.419   5.042  4.5344 -0.6962  1.5891
  299MOL0     H39452   1.335   1.253   5.238 -1.1053 -0.2481  0.3387
  299MOL0     H39453   1.170   1.353   5.387  2.4673 -0.2444  0.8647
  299MOL0     H39454   1.719   2.592   5.731  0.2958 -1.8303 -0.0345
  299MOL0     H39455   1.944   2.506   5.636 -0.0320 -1.7671 -3.1032
  299MOL0     H39456   2.431   2.662   5.525 -3.6896  0.8905 -0.2122
  299MOL0     H39457   2.623   2.582   5.384 -1.3188  1.4371  2.7501
  299MOL0     H39458   2.783   2.471   5.247  0.5461  0.1744  0.6321
  299MOL0     H39459   2.728   2.622   5.178  2.7902  1.0058 -3.3488
  299MOL0     H39460   2.712   2.442   4.966  1.7214 -3.3522  1.0659
  299MOL0     H39461   2.804   2.582   4.966  1.0283  1.5687  2.7478
  299MOL0     H39462   2.893   2.301   5.051  2.1986 -0.1661  1.2170
  299MOL0     H39463   2.964   2.427   5.133 -3.4777 -1.0958  1.3438
  299MOL0     H39464   2.959   2.452   4.822  3.7149  0.0811 -2.3965
  299MOL0     H39465   3.089   2.502   4.934  1.2056 -1.1454 -1.9980
  299MOL0     H39466   3.249   2.137   4.885  3.3338  3.7350 -2.0908
  299MOL0     H39467   2.363   2.413   5.103  0.3932 -1.4520 -0.0270
  299MOL0     H39468   2.174   2.481   5.230  0.2060  2.6509 -1.6005
  300MOL0     O39469   2.574   4.533   2.534 -0.0573 -0.0892 -0.7621
  300MOL0     C39470   2.575   4.427   2.604  0.0427 -0.3058  0.0007
  300MOL0     O39471   2.684   4.353   2.619  0.1435 -0.9515  0.0482
  300MOL0     C39472   2.794   4.388   2.541  0.5618  0.4880 -0.4051
  300MOL0     C39473   2.894   4.481   2.585  0.2125 -0.7084 -0.4648
  300MOL0     C39474   2.993   4.530   2.503  0.9350  0.3448  0.0082
  300MOL0     C39475   2.995   4.497   2.365  0.0953 -0.3033 -0.1875
  300MOL0     O39476   3.097   4.546   2.276  0.4356  0.6710  0.1338
  300MOL0     C39477   3.121   4.682   2.298  0.4811 -0.1504 -0.4816
  300MOL0     C39478   3.209   4.740   2.195  0.4037  0.8147  0.2417
  300MOL0     C39479   3.355   4.689   2.189 -0.3201  0.2504  0.2014
  300MOL0     C39480   3.425   4.715   2.323 -0.2491 -0.3348 -0.9093
  300MOL0     C39481   3.578   4.666   2.330  0.2384  0.4717 -0.5561
  300MOL0     C39482   3.652   4.755   2.234 -0.9801  0.0835  0.2312
  300MOL0     C39483   3.796   4.755   2.266  0.4408  0.9897  0.0399
  300MOL0     C39484   3.885   4.818   2.156 -0.3388 -0.1368 -0.3426
  300MOL0     N39485   3.842   4.949   2.108 -0.0314  0.9162  0.0869
  300MOL0     C39486   3.853   5.058   2.181 -0.0095 -0.0008  0.1992
  300MOL0     C39487   3.823   5.160   2.097 -0.8084  0.5856 -0.6435
  300MOL0     C39488   3.830   5.311   2.138 -0.5602  0.0130 -0.2883
  300MOL0     C39489   3.697   5.395   2.086  0.1681 -0.9161 -0.6491
  300MOL0     C39490   3.713   5.546   2.112 -0.2304  0.0831  0.5708
  300MOL0     C39491   3.753   5.593   2.252 -1.1705 -0.0685 -1.0316
  300MOL0     O39492   3.700   5.509   2.357  0.0627  0.0950 -1.1995
  300MOL0     C39493   3.711   5.556   2.491 -0.4305  0.5107 -0.1392
  300MOL0     C39494   3.666   5.474   2.598 -0.4324  1.0815  0.6439
  300MOL0     C39495   3.664   5.510   2.731 -0.3721 -0.2334  0.2856
  300MOL0     C39496   3.695   5.646   2.769  0.7602  0.3423  0.2666
  300MOL0     C39497   3.672   5.691   2.910 -0.5538  0.1675 -0.8054
  300MOL0     O39498   3.713   5.819   2.950 -0.7179  0.8898  1.1410
  300MOL0     C39499   3.677   5.887   3.055  0.0300 -0.0442  0.1805
  300MOL0     C39500   3.770   5.962   3.113 -0.0552 -0.8368  0.1457
  300MOL0     C39501   3.759   6.036   3.230  0.5080  0.3307 -0.0306
  300MOL0     C39502   3.647   6.015   3.302  0.0966  0.7033  0.1788
  300MOL0     O39503   3.617   6.078   3.420 -0.5005  0.9577 -0.6263
  300MOL0     C39504   3.735   6.116   3.495  0.4126 -0.8832 -0.6376
  300MOL0     C39505   3.681   6.194   3.619 -0.6160  0.8579  0.1906
  300MOL0     C39506   3.808   6.236   3.702 -0.7779 -0.9551  1.3666
  300MOL0     C39507   3.911   6.340   3.634 -0.4349 -0.0627  0.3798
  300MOL0     C39508   3.982   6.427   3.741 -0.1505  0.1969  0.6617
  300MOL0     C39509   3.922   6.570   3.744  0.2386  0.0485  0.0580
  300MOL0     C39510   3.938   6.643   3.876  0.5150  0.5255 -0.7252
  300MOL0     C39511   3.845   6.753   3.846  0.6531 -0.9257 -0.3535
  300MOL0    Cl39512   3.680   6.708   3.867  0.7177  0.1051 -0.3851
  300MOL0     C39513   3.541   5.944   3.250  0.2904  0.8746 -1.3656
  300MOL0     C39514   3.555   5.878   3.126  0.1127 -0.5012  0.3337
  300MOL0     O39515   3.612   5.614   2.981  0.0825  0.4607  0.0698
  300MOL0     C39516   3.757   5.729   2.668  0.1387 -0.3205  0.2965
  300MOL0     C39517   3.760   5.680   2.535  0.0239 -0.6222  0.1410
  300MOL0     N39518   3.773   5.112   1.982 -0.0300  0.1168  0.4973
  300MOL0     N39519   3.792   4.979   1.987 -0.3916  0.6388 -0.4697
  300MOL0     C39520   2.908   4.393   2.323  0.8158 -0.8652  0.0472
  300MOL0     C39521   2.811   4.329   2.411  0.1066  0.0668  0.1254
  300MOL0     C39522   2.454   4.381   2.653  0.5667 -0.4073 -0.8810
  300MOL0     C39523   2.444   4.266   2.738  0.5519  0.1711  0.0023
  300MOL0     C39524   2.323   4.208   2.771  0.1405 -0.0732  0.7374
  300MOL0     C39525   2.204   4.278   2.743 -0.9192  0.6047  0.6190
  300MOL0     O39526   2.085   4.223   2.764  0.2068 -0.9648 -0.5649
  300MOL0     C39527   2.067   4.153   2.894  0.3484 -0.1278  0.3317
  300MOL0     C39528   1.916   4.170   2.929 -0.6086  0.3489 -0.0589
  300MOL0     C39529   1.806   4.163   2.818  0.3962 -0.2045  0.2698
  300MOL0     C39530   1.674   4.133   2.882 -0.7207 -1.6288  0.4940
  300MOL0     C39531   1.685   4.003   2.947  0.3799 -0.5450 -0.7724
  300MOL0     C39532   1.680   3.886   2.990  1.0072 -0.9182 -0.1202
  300MOL0     C39533   2.213   4.393   2.673 -0.6960 -0.8558  0.2504
  300MOL0     C39534   2.338   4.448   2.639  0.7703  0.2852 -0.0821
  300MOL0     H39535   2.877   4.516   2.686  0.1410 -2.2786  0.1064
  300MOL0     H39536   3.058   4.602   2.552 -0.6015  0.2973  2.2477
  300MOL0     H39537   3.156   4.701   2.400  0.4865  2.1681 -0.8492
  300MOL0     H39538   3.028   4.739   2.294  0.8292  0.6913  1.9228
  300MOL0     H39539   3.212   4.847   2.219  2.9057  0.9219 -0.2415
  300MOL0     H39540   3.162   4.722   2.098  1.1281  1.1875 -0.1910
  300MOL0     H39541   3.401   4.748   2.108 -2.8423 -0.5948 -1.9955
  300MOL0     H39542   3.351   4.581   2.172  1.1183 -0.7803  4.8848
  300MOL0     H39543   3.427   4.821   2.351  1.2693 -1.3095  3.5826
  300MOL0     H39544   3.371   4.677   2.410  1.4261  0.7708  0.6976
  300MOL0     H39545   3.584   4.567   2.285  2.9792  1.9760 -4.0103
  300MOL0     H39546   3.612   4.668   2.433 -4.4642  1.5332  1.2273
  300MOL0     H39547   3.602   4.852   2.224 -1.2538 -0.0557  0.2286
  300MOL0     H39548   3.650   4.713   2.133 -1.0394 -0.7709  0.5803
  300MOL0     H39549   3.823   4.804   2.359  1.1451  0.5233  0.0904
  300MOL0     H39550   3.826   4.650   2.276  0.9769  1.0950 -0.3855
  300MOL0     H39551   3.885   4.756   2.067 -0.6507 -0.6402  0.0045
  300MOL0     H39552   3.987   4.821   2.195 -0.2261 -0.6393 -0.5930
  300MOL0     H39553   3.893   5.066   2.282  1.7477  1.9893 -0.5717
  300MOL0     H39554   3.924   5.337   2.090 -0.5892  1.6699  0.5029
  300MOL0     H39555   3.847   5.326   2.245  0.3129 -0.4574 -0.3550
  300MOL0     H39556   3.611   5.363   2.146  1.5247  0.4597  2.2057
  300MOL0     H39557   3.696   5.380   1.977  2.1420  2.4201 -1.2423
  300MOL0     H39558   3.786   5.582   2.039 -0.0804 -0.5743  0.3932
  300MOL0     H39559   3.617   5.592   2.088 -0.3154 -0.6212 -0.5154
  300MOL0     H39560   3.718   5.696   2.249  0.6493  0.6215  0.2300
  300MOL0     H39561   3.861   5.593   2.269 -1.6837  0.2909  3.2569
  300MOL0     H39562   3.625   5.378   2.571  0.6569  1.0365 -1.0136
  300MOL0     H39563   3.638   5.432   2.802  0.1444  0.9685  1.8706
  300MOL0     H39564   3.863   5.968   3.057  0.3500  2.0402  1.0084
  300MOL0     H39565   3.850   6.065   3.280  0.9879  0.8542 -1.1858
  300MOL0     H39566   3.802   6.188   3.448  2.2100 -2.0515  0.0223
  300MOL0     H39567   3.790   6.024   3.519  0.1922 -0.9758 -0.4904
  300MOL0     H39568   3.615   6.129   3.677 -0.5929  3.8739  4.0798
  300MOL0     H39569   3.627   6.279   3.577 -1.0891  1.0588  1.1796
  300MOL0     H39570   3.864   6.151   3.741  3.7191 -0.1697 -2.5019
  300MOL0     H39571   3.762   6.282   3.790  2.8951  1.8680  2.0641
  300MOL0     H39572   3.980   6.283   3.571 -0.4447 -2.1406  2.1392
  300MOL0     H39573   3.868   6.419   3.572 -1.0415 -0.3186  0.4647
  300MOL0     H39574   4.090   6.427   3.719 -0.2902  0.3514 -0.0583
  300MOL0     H39575   3.970   6.386   3.841 -1.8051  1.0169  0.8321
  300MOL0     H39576   3.817   6.581   3.715  0.6141  2.0907 -0.6751
  300MOL0     H39577   3.981   6.627   3.672 -0.8332 -0.3573 -1.1706
  300MOL0     H39578   3.894   6.601   3.967 -1.0192 -0.3716 -1.8361
  300MOL0     H39579   4.040   6.677   3.892  0.1480  1.7470 -0.8709
  300MOL0     H39580   3.863   6.798   3.748  3.8733 -0.3532  0.3722
  300MOL0     H39581   3.866   6.841   3.908  0.9552 -0.2909 -1.3333
  300MOL0     H39582   3.443   5.932   3.296  1.9766  0.2797  2.4039
  300MOL0     H39583   3.470   5.833   3.075 -0.9386  0.8469  0.8351
  300MOL0     H39584   3.787   5.828   2.700  0.7281 -0.0938 -0.8870
  300MOL0     H39585   3.785   5.752   2.458 -0.8359 -1.5325 -1.0436
  300MOL0     H39586   2.921   4.363   2.219  3.2370  2.5324 -0.8353
  300MOL0     H39587   2.759   4.240   2.378  0.7788 -1.0046  1.8544
  300MOL0     H39588   2.535   4.208   2.749 -0.3027 -1.2758 -0.3570
  300MOL0     H39589   2.332   4.108   2.813 -1.7399 -0.6043  0.0381
  300MOL0     H39590   2.127   4.201   2.973 -0.0813  0.9426  0.0143
  300MOL0     H39591   2.109   4.052   2.890  0.0916 -0.2274 -3.4537
  300MOL0     H39592   1.901   4.095   3.007  0.6577  0.3693  0.2302
  300MOL0     H39593   1.897   4.267   2.977  0.4687  0.0881  0.9704
  300MOL0     H39594   1.836   4.089   2.744 -2.5057 -0.4745 -0.7665
  300MOL0     H39595   1.788   4.263   2.776  1.1118  0.6009  1.8049
  300MOL0     H39596   1.651   4.214   2.952 -1.9552 -0.0776 -1.5818
  300MOL0     H39597   1.598   4.123   2.804  0.4171  1.6187 -1.2594
  300MOL0     H39598   1.657   3.784   3.015 -0.1637 -0.9783 -1.3619
  300MOL0     H39599   2.119   4.443   2.655 -0.1065  0.4524  0.7134
  300MOL0     H39600   2.333   4.537   2.576  2.4780 -0.4827 -1.3671
  301MOL0     O39601   7.001  10.287   2.630 -0.6709 -0.1450 -0.6513
  301MOL0     C39602   6.923  10.287   2.531 -0.5088 -0.0291 -0.1798
  301MOL0     O39603   6.947  10.343   2.412  0.0037 -0.6200 -0.3302
  301MOL0     C39604   7.073  10.382   2.368 -0.0840  0.0301 -0.9078
  301MOL0     C39605   7.193  10.311   2.389 -0.1096 -0.4884  1.3283
  301MOL0     C39606   7.316  10.344   2.324 -0.0752  0.4115 -0.3740
  301MOL0     C39607   7.315  10.467   2.245 -0.3087  0.6471  0.2138
  301MOL0     O39608   7.429  10.528   2.196 -0.9432 -0.0646  0.3837
  301MOL0     C39609   7.550  10.459   2.242  0.6877 -0.3363 -0.2673
  301MOL0     C39610   7.677  10.529   2.202 -0.4454  0.5448  0.1841
  301MOL0     C39611   7.696  10.528   2.054 -0.3890 -0.1715  0.0567
  301MOL0     C39612   7.816  10.620   2.005  1.3328  0.2639 -1.0600
  301MOL0     C39613   7.853  10.623   1.860  0.0625  0.5602  0.3013
  301MOL0     C39614   7.753  10.719   1.797 -0.0312 -0.1548 -0.3645
  301MOL0     C39615   7.767  10.722   1.648 -0.3112 -0.4148  0.6599
  301MOL0     C39616   7.748  10.586   1.578 -0.5518  0.2316  0.3983
  301MOL0     N39617   7.606  10.539   1.578 -1.3209  0.9071 -0.1903
  301MOL0     C39618   7.533  10.506   1.693 -1.1077  0.5257  0.2142
  301MOL0     C39619   7.416  10.484   1.634  0.7253 -1.2645 -0.5213
  301MOL0     C39620   7.283  10.462   1.721 -0.5908  0.8113  0.5164
  301MOL0     C39621   7.215  10.589   1.772  0.2291  0.0052  0.2275
  301MOL0     C39622   7.181  10.684   1.657  0.6950 -0.2775  0.1655
  301MOL0     C39623   7.094  10.805   1.681  0.2832 -0.1224  0.8067
  301MOL0     O39624   6.971  10.739   1.732 -0.2883 -0.2523 -0.2018
  301MOL0     C39625   6.876  10.829   1.782  0.1723  0.5486  0.8889
  301MOL0     C39626   6.885  10.953   1.813  0.3171 -0.2600 -0.1869
  301MOL0     C39627   6.772  11.024   1.850 -0.1739 -0.0419  0.1829
  301MOL0     C39628   6.643  10.969   1.862  0.7687  0.7418 -0.2320
  301MOL0     C39629   6.516  11.031   1.900  0.5116 -0.3582 -0.3940
  301MOL0     O39630   6.403  10.961   1.938  0.2754 -0.4084  1.0067
  301MOL0     C39631   6.299  11.040   1.972 -0.0296  0.4126 -0.6841
  301MOL0     C39632   6.278  11.087   2.095 -0.1967  0.6471  0.2186
  301MOL0     C39633   6.165  11.167   2.129 -0.4045 -0.3787  1.2621
  301MOL0     C39634   6.078  11.220   2.034 -1.0657  0.4973 -0.0648
  301MOL0     O39635   5.974  11.303   2.070  0.3681  0.1388 -0.2989
  301MOL0     C39636   5.989  11.400   2.178  0.4930  1.0433  0.2732
  301MOL0     C39637   5.870  11.490   2.165 -0.5907 -0.1723 -0.0759
  301MOL0     C39638   5.883  11.603   2.271  0.9853 -0.6963 -0.2499
  301MOL0     C39639   5.985  11.725   2.233 -0.0741 -0.1317 -0.1719
  301MOL0     C39640   5.982  11.846   2.335 -1.1632  0.7823 -0.2992
  301MOL0     C39641   6.111  11.929   2.302  0.8433  0.2215 -0.2006
  301MOL0     C39642   6.101  11.976   2.154  0.5483 -0.2849 -0.5430
  301MOL0     C39643   6.195  12.090   2.149 -0.8615 -0.1735 -0.8127
  301MOL0    Cl39644   6.196  12.169   1.988 -0.3990  0.0788 -0.0574
  301MOL0     C39645   6.109  11.179   1.895  0.8173  0.2065 -0.0830
  301MOL0     C39646   6.215  11.087   1.876 -0.8590 -0.4582  1.4312
  301MOL0     O39647   6.518  11.158   1.903 -0.3410  0.0513  0.5581
  301MOL0     C39648   6.629  10.835   1.821 -0.4608  0.0875 -0.2682
  301MOL0     C39649   6.751  10.769   1.776  0.4556 -0.2871  0.1492
  301MOL0     N39650   7.410  10.508   1.500 -0.1526 -1.0846  0.0035
  301MOL0     N39651   7.526  10.545   1.470  0.2158  0.0579  0.5221
  301MOL0     C39652   7.186  10.529   2.217  0.5887  0.4054 -0.0022
  301MOL0     C39653   7.065  10.479   2.270 -0.5138  0.0770 -0.4427
  301MOL0     C39654   6.791  10.216   2.548 -0.0713 -0.2806 -0.4089
  301MOL0     C39655   6.691  10.234   2.444 -0.4173  0.7900  0.3621
  301MOL0     C39656   6.586  10.148   2.424  0.8494  0.9662 -0.1619
  301MOL0     C39657   6.567  10.045   2.518 -0.2937 -0.1945  0.2893
  301MOL0     O39658   6.466   9.950   2.492 -0.0118 -0.2207  0.7154
  301MOL0     C39659   6.458   9.829   2.569 -1.0080  0.5772  0.1963
  301MOL0     C39660   6.328   9.750   2.562 -0.1244  0.0382 -0.6308
  301MOL0     C39661   6.307   9.707   2.413 -0.3258 -0.1072 -0.2886
  301MOL0     C39662   6.168   9.654   2.395  0.7698  0.0509  0.4119
  301MOL0     C39663   6.142   9.546   2.494  0.9053  0.8033 -0.0436
  301MOL0     C39664   6.103   9.449   2.564 -0.4905 -0.3403  0.1383
  301MOL0     C39665   6.656  10.042   2.628  0.4807  0.4030 -0.4915
  301MOL0     C39666   6.763  10.134   2.645  0.3964  0.0471 -0.1531
  301MOL0     H39667   7.207  10.231   2.460 -2.6262 -1.3021  0.9955
  301MOL0     H39668   7.408  10.299   2.359  0.6386 -0.2630 -2.9534
  301MOL0     H39669   7.549  10.353   2.216  0.5556 -1.0566  2.3933
  301MOL0     H39670   7.563  10.464   2.350  3.1276 -0.0196 -0.5232
  301MOL0     H39671   7.762  10.480   2.250 -0.7967  0.6731  0.9520
  301MOL0     H39672   7.684  10.634   2.233  1.7310  0.4703  0.0680
  301MOL0     H39673   7.604  10.556   2.002 -0.0013 -0.3499 -0.7470
  301MOL0     H39674   7.724  10.428   2.020  1.4811  0.9176 -1.9281
  301MOL0     H39675   7.803  10.726   2.031  0.5905  0.2962 -1.5349
  301MOL0     H39676   7.895  10.585   2.072 -1.7569  0.9163  3.3394
  301MOL0     H39677   7.853  10.521   1.821 -1.4953  1.3981 -2.1452
  301MOL0     H39678   7.953  10.660   1.837  0.1666 -0.6505 -1.3942
  301MOL0     H39679   7.774  10.822   1.827 -0.7687  0.1697 -0.9190
  301MOL0     H39680   7.650  10.696   1.827  0.4857  2.6574  4.8989
  301MOL0     H39681   7.714  10.799   1.590 -0.9456 -2.2888 -1.3856
  301MOL0     H39682   7.871  10.750   1.628 -0.5132 -0.9177 -1.3044
  301MOL0     H39683   7.823  10.517   1.617  0.2910  1.8957  1.8920
  301MOL0     H39684   7.780  10.600   1.474  0.9579  3.9950  1.2118
  301MOL0     H39685   7.558  10.502   1.798 -0.5852  3.7707  0.3171
  301MOL0     H39686   7.310  10.413   1.815 -1.3175  0.6805  0.6611
  301MOL0     H39687   7.214  10.395   1.671 -0.2201 -0.3869  1.5510
  301MOL0     H39688   7.285  10.639   1.839  2.6621 -2.1170 -0.5724
  301MOL0     H39689   7.118  10.556   1.810  0.3527  0.3212  0.8366
  301MOL0     H39690   7.277  10.717   1.616  0.7720  0.5048  0.9564
  301MOL0     H39691   7.122  10.627   1.584 -0.2991 -1.4026  1.7888
  301MOL0     H39692   7.085  10.867   1.591  1.0348  0.7373  1.3036
  301MOL0     H39693   7.146  10.869   1.753  1.5648  2.0876 -1.8895
  301MOL0     H39694   6.983  11.000   1.816  2.0130 -3.5556  0.0418
  301MOL0     H39695   6.771  11.132   1.844 -1.0753 -0.1152 -2.6527
  301MOL0     H39696   6.348  11.045   2.167 -0.3478 -2.8279 -1.4666
  301MOL0     H39697   6.149  11.183   2.236 -3.0317 -1.4958  1.1265
  301MOL0     H39698   6.076  11.463   2.154  0.0937  1.8187  0.8036
  301MOL0     H39699   6.006  11.352   2.275 -0.3702  0.7799  0.2966
  301MOL0     H39700   5.785  11.428   2.195 -0.7343  0.9535  1.9978
  301MOL0     H39701   5.861  11.538   2.067 -2.1269  0.7868  0.5087
  301MOL0     H39702   5.913  11.569   2.370  2.0063 -0.5258 -0.4933
  301MOL0     H39703   5.785  11.650   2.280  0.7450 -1.2438  0.0356
  301MOL0     H39704   6.085  11.688   2.256 -0.6700 -1.0843  1.0381
  301MOL0     H39705   5.963  11.750   2.129 -3.1870 -1.7271 -0.0257
  301MOL0     H39706   5.978  11.809   2.438  3.1134 -0.4703 -0.4067
  301MOL0     H39707   5.898  11.914   2.316 -1.0172  0.6612 -1.4538
  301MOL0     H39708   6.202  11.873   2.321  1.5769  0.4218 -2.7516
  301MOL0     H39709   6.103  12.014   2.371  1.7695  0.7853 -0.7758
  301MOL0     H39710   6.124  11.896   2.083 -2.4274  1.9211 -4.4142
  301MOL0     H39711   5.998  12.008   2.136  1.0841  1.7935 -0.1378
  301MOL0     H39712   6.292  12.050   2.181 -0.1264  3.2315  1.8135
  301MOL0     H39713   6.172  12.168   2.223  0.5499 -0.6041  0.1305
  301MOL0     H39714   6.046  11.198   1.809  0.5886 -0.6211 -0.1066
  301MOL0     H39715   6.227  11.051   1.775  1.3038  1.2476  1.0002
  301MOL0     H39716   6.534  10.783   1.827 -1.2451  1.4893 -0.0570
  301MOL0     H39717   6.748  10.666   1.741 -2.3897  0.2520 -1.5097
  301MOL0     H39718   7.182  10.620   2.157 -4.4429  2.1615  2.4251
  301MOL0     H39719   6.971  10.532   2.256 -0.9101  0.6099  3.1611
  301MOL0     H39720   6.692  10.304   2.361  0.4823 -1.1898 -1.4296
  301MOL0     H39721   6.510  10.165   2.349  3.0539 -0.3381 -2.8540
  301MOL0     H39722   6.490   9.843   2.672  0.2126  0.1631 -0.1127
  301MOL0     H39723   6.538   9.770   2.522 -1.3622 -0.7282  1.1516
  301MOL0     H39724   6.320   9.668   2.634 -0.9067  0.7350  0.1043
  301MOL0     H39725   6.255   9.820   2.605  0.8411 -0.2062  1.5779
  301MOL0     H39726   6.383   9.635   2.381  1.3926  1.5716 -0.0974
  301MOL0     H39727   6.305   9.797   2.351 -0.8838 -0.5258 -0.8934
  301MOL0     H39728   6.102   9.741   2.408 -1.8674 -1.4566 -1.8723
  301MOL0     H39729   6.164   9.609   2.296 -2.3157 -1.9333  1.2925
  301MOL0     H39730   6.070   9.370   2.629 -1.4188  2.0748  2.8659
  301MOL0     H39731   6.638   9.972   2.710  3.6427  1.3924  1.2261
  301MOL0     H39732   6.823  10.113   2.733 -2.7787  1.8353  2.6987
  302MOL0     O39733   1.432   5.138  10.150  0.3037  0.1628  0.1664
  302MOL0     C39734   1.338   5.145  10.067  0.3396  0.1963 -0.0433
  302MOL0     O39735   1.207   5.161  10.094  0.2102  0.9387  0.6339
  302MOL0     C39736   1.152   5.140  10.221 -0.6019 -0.4996 -0.2880
  302MOL0     C39737   1.198   5.039  10.299  0.0832  0.2301  0.1990
  302MOL0     C39738   1.158   5.036  10.435 -0.1962  0.8343  0.3972
  302MOL0     C39739   1.083   5.138  10.493 -0.2550  0.4257 -0.0243
  302MOL0     O39740   1.072   5.124  10.627  0.5650  0.0826  0.7268
  302MOL0     C39741   0.969   5.215  10.683  0.3325  0.6076  0.6220
  302MOL0     C39742   0.970   5.183  10.833  0.9326  0.3186  0.2317
  302MOL0     C39743   1.099   5.218  10.900 -0.5635  0.4121  0.0700
  302MOL0     C39744   1.170   5.347  10.858 -0.2585 -0.2985 -0.2127
  302MOL0     C39745   1.292   5.384  10.945 -0.3104  0.2226  0.1068
  302MOL0     C39746   1.256   5.480  11.059  0.4627 -0.7141 -1.2257
  302MOL0     C39747   1.376   5.511  11.145 -0.0833 -0.0934 -0.3730
  302MOL0     C39748   1.343   5.560  11.291  0.2311 -0.7225  0.1789
  302MOL0     N39749   1.322   5.708  11.311 -0.1287 -0.3954  0.4700
  302MOL0     C39750   1.312   5.774  11.428 -0.6550 -0.9978  0.0568
  302MOL0     C39751   1.259   5.899  11.397 -1.2076 -1.6426  0.3486
  302MOL0     C39752   1.229   6.014  11.486  0.7102  0.0801  0.8490
  302MOL0     C39753   1.262   6.146  11.413 -0.1131 -0.1834 -0.7486
  302MOL0     C39754   1.242   6.281  11.492 -0.7112 -0.3430 -0.0659
  302MOL0     C39755   1.099   6.324  11.478 -0.4813 -0.4047  0.7285
  302MOL0     O39756   1.029   6.254  11.578 -0.2292  0.2029  0.3966
  302MOL0     C39757   0.914   6.319  11.627 -0.5561 -0.5591 -0.6943
  302MOL0     C39758   0.880   6.301  11.764  0.8779  0.0035 -0.1215
  302MOL0     C39759   0.779   6.372  11.818 -0.3782  0.4407 -0.0238
  302MOL0     C39760   0.691   6.456  11.744  0.2130 -0.0241 -0.8073
  302MOL0     C39761   0.573   6.524  11.806 -0.1634 -0.5805  0.6621
  302MOL0     O39762   0.472   6.569  11.723 -0.1775  0.2144  0.5569
  302MOL0     C39763   0.355   6.595  11.785  0.5972 -0.0621  0.3266
  302MOL0     C39764   0.270   6.506  11.860  0.9361 -0.4112  0.3902
  302MOL0     C39765   0.154   6.553  11.917 -0.4885 -0.4860 -0.4394
  302MOL0     C39766   0.121   6.690  11.922 -0.4411 -0.0664  0.0172
  302MOL0     O39767   0.008   6.744  11.979 -0.6433  0.1628 -0.5299
  302MOL0     C39768  -0.085   6.647  12.041 -0.3214 -0.6237  0.0903
  302MOL0     C39769  -0.188   6.584  11.949  0.6907  0.5009 -0.4380
  302MOL0     C39770  -0.225   6.654  11.820  0.0589 -1.2961 -0.7946
  302MOL0     C39771  -0.293   6.791  11.847 -0.0739 -1.0379  0.0737
  302MOL0     C39772  -0.304   6.877  11.713  0.5798  0.0577 -0.3690
  302MOL0     C39773  -0.439   6.836  11.648 -0.0133  0.6106  0.1230
  302MOL0     C39774  -0.477   6.910  11.516 -0.4615  0.0721 -0.7152
  302MOL0     C39775  -0.612   6.871  11.474  0.0511  0.0216  0.7719
  302MOL0    Cl39776  -0.624   6.927  11.302 -0.3363  0.6653  0.2986
  302MOL0     C39777   0.206   6.783  11.845  0.3996  0.1068  0.2503
  302MOL0     C39778   0.315   6.731  11.774 -0.1576 -0.6245  0.5945
  302MOL0     O39779   0.559   6.526  11.933  0.4240 -0.3550  0.6645
  302MOL0     C39780   0.710   6.461  11.606  0.2595  0.7403  0.3221
  302MOL0     C39781   0.834   6.405  11.553  0.2633 -0.1617 -0.2491
  302MOL0     N39782   1.238   5.904  11.260 -0.0308  0.1886  0.3041
  302MOL0     N39783   1.290   5.798  11.207 -0.6247 -0.2636  0.8800
  302MOL0     C39784   1.032   5.230  10.403  0.0350  0.2514 -0.4854
  302MOL0     C39785   1.072   5.231  10.275 -1.1183 -0.8145 -0.1325
  302MOL0     C39786   1.376   5.180   9.930 -0.3038  0.2536 -1.1305
  302MOL0     C39787   1.509   5.170   9.890  0.3496 -0.3949 -0.1854
  302MOL0     C39788   1.544   5.211   9.760  0.2041 -0.2254  1.3903
  302MOL0     C39789   1.450   5.262   9.678  1.5188 -0.9107  0.3804
  302MOL0     O39790   1.487   5.307   9.552 -0.1515 -0.5178  0.2033
  302MOL0     C39791   1.399   5.390   9.473 -0.3213  1.2356  0.1689
  302MOL0     C39792   1.489   5.442   9.363 -0.5651 -0.9701  0.7998
  302MOL0     C39793   1.535   5.333   9.264  0.8236 -0.1136 -0.2302
  302MOL0     C39794   1.410   5.295   9.174  0.5814 -0.5725  0.0087
  302MOL0     C39795   1.445   5.179   9.090  0.1287 -0.1728  1.2647
  302MOL0     C39796   1.465   5.081   9.025  0.3364  0.8860  0.3312
  302MOL0     C39797   1.313   5.269   9.719 -1.3825 -0.6003  0.2294
  302MOL0     C39798   1.276   5.223   9.841  1.2757  0.5414  0.5718
  302MOL0     H39799   1.259   4.957  10.262  0.1973  1.2010 -1.8900
  302MOL0     H39800   1.190   4.948  10.490  3.1827  0.2888 -2.1343
  302MOL0     H39801   0.873   5.180  10.643  0.3901  1.7384 -0.5724
  302MOL0     H39802   0.973   5.322  10.665  0.5724  0.8899  2.1705
  302MOL0     H39803   0.952   5.078  10.857  0.6267  1.1568  4.5020
  302MOL0     H39804   0.888   5.241  10.876 -1.0179 -1.1064 -1.3912
  302MOL0     H39805   1.169   5.136  10.884 -1.7583 -0.4074 -1.2005
  302MOL0     H39806   1.080   5.224  11.007  1.1856  2.2683  0.3457
  302MOL0     H39807   1.203   5.329  10.756 -0.0650  3.1703 -0.8882
  302MOL0     H39808   1.102   5.431  10.842 -0.4508 -0.0624  1.5881
  302MOL0     H39809   1.363   5.435  10.879  1.2712 -0.8248  0.9374
  302MOL0     H39810   1.345   5.294  10.979 -0.2768 -0.0416 -0.6241
  302MOL0     H39811   1.166   5.455  11.116 -0.1903  1.9535 -0.9566
  302MOL0     H39812   1.221   5.569  11.005 -1.3830 -0.3670  0.4387
  302MOL0     H39813   1.441   5.423  11.148 -0.3245 -0.2748 -0.3657
  302MOL0     H39814   1.427   5.591  11.091 -1.1069 -1.5611 -3.8174
  302MOL0     H39815   1.419   5.520  11.358 -0.8759 -2.6136  0.3905
  302MOL0     H39816   1.260   5.495  11.319 -0.1602 -0.1458  0.3937
  302MOL0     H39817   1.331   5.729  11.525 -0.5588 -2.4682 -0.6222
  302MOL0     H39818   1.280   6.019  11.583  1.0191  1.1906  0.6374
  302MOL0     H39819   1.125   6.009  11.519  1.2786  1.9595  3.1015
  302MOL0     H39820   1.214   6.146  11.315  1.7192 -3.2696 -1.7830
  302MOL0     H39821   1.365   6.148  11.375 -1.3551 -1.3794 -4.5998
  302MOL0     H39822   1.279   6.274  11.595  1.2846  0.3028 -0.6882
  302MOL0     H39823   1.295   6.357  11.434 -2.5366  0.7672 -0.3555
  302MOL0     H39824   1.063   6.296  11.379  2.0918 -0.7971 -0.1792
  302MOL0     H39825   1.082   6.431  11.492  0.2391  0.0858 -1.6341
  302MOL0     H39826   0.926   6.223  11.823 -3.3468 -2.5841  0.1456
  302MOL0     H39827   0.774   6.376  11.927  2.6082 -2.7652  0.3846
  302MOL0     H39828   0.287   6.399  11.859 -3.0102 -1.2058 -1.2184
  302MOL0     H39829   0.102   6.475  11.970  2.1315 -2.2844 -0.3184
  302MOL0     H39830  -0.155   6.696  12.108 -0.7973 -3.3553  1.7430
  302MOL0     H39831  -0.026   6.585  12.109 -1.5452 -0.0042  1.7691
  302MOL0     H39832  -0.285   6.569  11.995  0.0970  1.3106 -1.3738
  302MOL0     H39833  -0.166   6.478  11.933  2.4048 -0.0267  4.0171
  302MOL0     H39834  -0.302   6.605  11.760 -3.4893  1.7157  0.8965
  302MOL0     H39835  -0.131   6.666  11.765  1.8547 -1.8332  1.9825
  302MOL0     H39836  -0.386   6.766  11.898 -0.1255 -4.0072 -1.2810
  302MOL0     H39837  -0.224   6.838  11.918  3.1252 -2.9407 -1.5516
  302MOL0     H39838  -0.217   6.854  11.650 -0.0077  1.8219 -1.9391
  302MOL0     H39839  -0.297   6.985  11.730 -0.6821  0.1996 -0.6382
  302MOL0     H39840  -0.521   6.861  11.716 -1.9796 -0.0113 -1.8803
  302MOL0     H39841  -0.446   6.730  11.622 -0.8731  1.6432 -4.8194
  302MOL0     H39842  -0.471   7.019  11.526 -1.3481 -0.0225  1.3449
  302MOL0     H39843  -0.408   6.893  11.433  0.6022 -2.0278  0.5242
  302MOL0     H39844  -0.696   6.917  11.528 -0.1745  1.5951 -0.8268
  302MOL0     H39845  -0.623   6.763  11.486  2.6078 -0.2813  0.9091
  302MOL0     H39846   0.199   6.891  11.837  1.3485  0.4082  2.6243
  302MOL0     H39847   0.381   6.793  11.714 -1.6460 -0.4818 -0.9770
  302MOL0     H39848   0.644   6.504  11.531  0.3131 -1.1291 -0.8521
  302MOL0     H39849   0.844   6.411  11.445 -0.4063  0.2053 -0.2962
  302MOL0     H39850   0.980   5.316  10.444 -0.8589 -0.5325  0.0554
  302MOL0     H39851   1.037   5.315  10.215 -1.8560 -0.0663  1.3076
  302MOL0     H39852   1.587   5.114   9.940  0.2399 -4.2734 -3.7268
  302MOL0     H39853   1.645   5.216   9.720 -1.2887  4.0992 -2.7888
  302MOL0     H39854   1.369   5.480   9.527  1.7099  1.6989  0.6001
  302MOL0     H39855   1.314   5.334   9.432 -1.0323  0.9977  1.9062
  302MOL0     H39856   1.444   5.527   9.312  0.9393 -2.4020 -3.3009
  302MOL0     H39857   1.582   5.493   9.391 -0.1208  0.1246 -2.3291
  302MOL0     H39858   1.566   5.238   9.309 -0.8092 -0.7823 -0.4338
  302MOL0     H39859   1.616   5.365   9.198  1.5574  3.3671  2.1056
  302MOL0     H39860   1.316   5.280   9.228  0.4683  1.9897  0.6669
  302MOL0     H39861   1.389   5.378   9.107 -0.2350 -1.3054 -0.6646
  302MOL0     H39862   1.497   4.997   8.967  0.9793  0.2007  1.6386
  302MOL0     H39863   1.237   5.288   9.643 -1.3055 -1.3166 -0.0283
  302MOL0     H39864   1.171   5.209   9.861  1.3588 -1.1425  0.0213
  303MOL0     O39865   3.013   6.738   4.885 -0.2262  0.0377 -0.1690
  303MOL0     C39866   3.073   6.845   4.912  0.8958 -0.1267  0.6530
  303MOL0     O39867   3.117   6.889   5.032  0.3662  0.0997 -0.1728
  303MOL0     C39868   3.120   6.801   5.147 -0.4396  0.2461  0.7039
  303MOL0     C39869   3.238   6.794   5.225  0.6999 -0.2042 -0.0881
  303MOL0     C39870   3.246   6.708   5.327  0.0556 -0.9439  0.1883
  303MOL0     C39871   3.131   6.645   5.371  1.1849  0.8085 -0.1197
  303MOL0     O39872   3.107   6.559   5.482  0.4872  0.2602 -0.8235
  303MOL0     C39873   3.227   6.503   5.547 -0.3035 -0.7846 -0.5203
  303MOL0     C39874   3.287   6.371   5.476 -0.6469 -0.2446  0.5413
  303MOL0     C39875   3.357   6.400   5.343 -0.9763 -0.1464 -0.5299
  303MOL0     C39876   3.441   6.288   5.284  0.6097 -0.2209 -0.6084
  303MOL0     C39877   3.559   6.347   5.214  0.1028 -0.1787  0.3760
  303MOL0     C39878   3.535   6.416   5.092  0.4584  0.4281 -0.8630
  303MOL0     C39879   3.433   6.342   4.989 -0.7056 -0.0587 -0.5198
  303MOL0     C39880   3.417   6.423   4.854  0.3005  1.2575  0.0019
  303MOL0     N39881   3.314   6.362   4.771 -0.2565 -0.1630  0.6017
  303MOL0     C39882   3.178   6.384   4.787 -0.0253 -0.3337  0.3102
  303MOL0     C39883   3.104   6.289   4.720 -0.7281  0.0045  0.8018
  303MOL0     C39884   2.960   6.255   4.719  0.3454  0.2985 -0.1027
  303MOL0     C39885   2.861   6.345   4.794  0.4669  0.2612  0.4156
  303MOL0     C39886   2.840   6.481   4.718  0.2889  0.4695 -0.2701
  303MOL0     C39887   2.767   6.463   4.589  0.3322  0.0518  0.1252
  303MOL0     O39888   2.633   6.414   4.617  0.7861 -0.6518  0.1275
  303MOL0     C39889   2.551   6.378   4.513  0.0864  0.7777  0.5750
  303MOL0     C39890   2.578   6.383   4.372  0.1796 -0.7399  0.1813
  303MOL0     C39891   2.491   6.317   4.280 -0.1760 -0.4340 -0.3014
  303MOL0     C39892   2.377   6.252   4.323 -0.7581 -0.8582 -0.1257
  303MOL0     C39893   2.279   6.197   4.221 -0.8903  0.1862  0.4798
  303MOL0     O39894   2.160   6.142   4.256 -0.8060  0.8246  0.1132
  303MOL0     C39895   2.089   6.082   4.162  0.5624 -0.5127 -0.4486
  303MOL0     C39896   2.070   5.942   4.161  0.0254  0.0513 -0.2968
  303MOL0     C39897   1.991   5.885   4.061  0.3673  0.0954 -0.9291
  303MOL0     C39898   1.926   5.973   3.972 -0.7226  0.6910 -0.0587
  303MOL0     O39899   1.865   5.925   3.864 -0.4674 -1.0173 -0.4928
  303MOL0     C39900   1.742   5.865   3.891  0.3719  0.1436 -0.0278
  303MOL0     C39901   1.676   5.824   3.761 -0.4980 -0.2334 -0.5960
  303MOL0     C39902   1.519   5.833   3.751  0.0502 -0.1749 -0.1622
  303MOL0     C39903   1.466   5.971   3.762  1.4355 -0.6073 -0.2331
  303MOL0     C39904   1.313   5.991   3.728  0.7343  0.1192  0.0253
  303MOL0     C39905   1.211   5.913   3.811  0.5765  0.7329 -0.0738
  303MOL0     C39906   1.222   5.942   3.955 -0.1974  0.5494 -0.9905
  303MOL0     C39907   1.108   5.877   4.032  0.0815 -0.6184 -0.4368
  303MOL0    Cl39908   1.060   5.710   3.968 -0.4535 -0.2664  0.0063
  303MOL0     C39909   1.936   6.109   3.987 -0.0983 -0.1283 -0.5914
  303MOL0     C39910   2.010   6.167   4.078 -0.9758  0.4157 -0.1388
  303MOL0     O39911   2.321   6.191   4.106  0.2370 -0.0443 -0.8799
  303MOL0     C39912   2.351   6.258   4.463  0.4073  0.4576  0.4175
  303MOL0     C39913   2.438   6.316   4.554 -0.3466  0.0503  0.0767
  303MOL0     N39914   3.212   6.218   4.651 -0.9068 -0.0617 -0.3637
  303MOL0     N39915   3.328   6.261   4.688 -1.1905 -0.6155  0.5839
  303MOL0     C39916   3.008   6.657   5.303 -1.1880 -0.2413 -0.1669
  303MOL0     C39917   3.003   6.740   5.196 -1.0360  0.9774 -0.2670
  303MOL0     C39918   3.078   6.940   4.792  0.2231 -0.0288  0.0966
  303MOL0     C39919   3.026   6.900   4.671  0.1049  0.1982 -0.9114
  303MOL0     C39920   3.041   6.987   4.564  0.0588  0.5389 -0.5548
  303MOL0     C39921   3.124   7.100   4.567 -0.5753 -0.2923  0.9367
  303MOL0     O39922   3.151   7.183   4.460 -0.1039 -0.1010 -0.1668
  303MOL0     C39923   3.087   7.147   4.346  0.3334  0.3694 -0.0815
  303MOL0     C39924   3.088   7.253   4.225 -0.0299 -0.5912 -1.2771
  303MOL0     C39925   3.020   7.392   4.258  0.1156 -0.2262  0.4257
  303MOL0     C39926   3.063   7.487   4.147 -0.2252  0.5257 -0.0642
  303MOL0     C39927   2.988   7.604   4.162  0.3317  0.4959  0.6749
  303MOL0     C39928   2.936   7.714   4.181  0.3581 -0.9415 -0.3886
  303MOL0     C39929   3.164   7.142   4.688  0.3856 -0.2365  0.1049
  303MOL0     C39930   3.142   7.065   4.803 -0.6917  0.8506 -0.3291
  303MOL0     H39931   3.322   6.850   5.184  0.9033 -0.9829 -0.7507
  303MOL0     H39932   3.341   6.688   5.377  0.9201  3.3236  0.6534
  303MOL0     H39933   3.211   6.489   5.654  2.2005  0.5846  0.1237
  303MOL0     H39934   3.304   6.580   5.543  2.1137 -3.0925 -1.5305
  303MOL0     H39935   3.204   6.302   5.459 -1.0533  0.7540 -2.0064
  303MOL0     H39936   3.367   6.321   5.530  1.8598  0.9096 -1.8593
  303MOL0     H39937   3.406   6.498   5.345 -2.2311  0.4987  2.1965
  303MOL0     H39938   3.282   6.414   5.265  2.1651  0.2934 -3.7799
  303MOL0     H39939   3.473   6.211   5.355 -2.8828 -1.0974  0.2463
  303MOL0     H39940   3.370   6.239   5.217 -0.8332 -0.5384  1.0688
  303MOL0     H39941   3.637   6.271   5.198  0.6324  0.8750 -2.7559
  303MOL0     H39942   3.603   6.418   5.285  0.2717  1.1049 -0.9744
  303MOL0     H39943   3.629   6.417   5.037  0.6499  2.8095 -0.5667
  303MOL0     H39944   3.507   6.520   5.108  1.4060  0.2518  2.7650
  303MOL0     H39945   3.477   6.245   4.966 -0.2024 -0.0655  0.4215
  303MOL0     H39946   3.336   6.330   5.039 -0.3936 -0.9123 -0.1074
  303MOL0     H39947   3.509   6.403   4.798 -0.5357 -2.4954 -0.2443
  303MOL0     H39948   3.418   6.530   4.877 -1.9407  1.0643  1.2910
  303MOL0     H39949   3.128   6.462   4.843  2.2460  3.3198 -2.2310
  303MOL0     H39950   2.959   6.153   4.759 -3.3821  1.4113  3.3712
  303MOL0     H39951   2.915   6.243   4.621 -2.6478  2.5749  0.8558
  303MOL0     H39952   2.895   6.374   4.894  2.5290 -0.6137  0.0142
  303MOL0     H39953   2.762   6.300   4.810  0.6872 -0.4830 -0.2739
  303MOL0     H39954   2.795   6.558   4.781  1.4440  0.5606  0.4518
  303MOL0     H39955   2.941   6.522   4.708  0.5176 -0.0308 -0.0584
  303MOL0     H39956   2.813   6.385   4.527 -0.6065 -1.3727  1.1720
  303MOL0     H39957   2.755   6.558   4.536  3.4688  0.3768 -0.1507
  303MOL0     H39958   2.676   6.423   4.349  0.3231  0.9383  3.1496
  303MOL0     H39959   2.522   6.311   4.176  0.2013 -1.6131 -0.1312
  303MOL0     H39960   2.121   5.884   4.237  0.5772  0.9947  0.0764
  303MOL0     H39961   1.960   5.781   4.073 -0.1826  0.4595  1.0542
  303MOL0     H39962   1.687   5.945   3.940  2.3617  2.8995 -1.9970
  303MOL0     H39963   1.757   5.773   3.949  2.6432 -1.7612 -3.2653
  303MOL0     H39964   1.720   5.725   3.744  0.9855  0.5366 -1.5378
  303MOL0     H39965   1.707   5.892   3.681 -2.3252 -2.3570 -3.3053
  303MOL0     H39966   1.482   5.787   3.843 -2.5358  2.2800  0.1500
  303MOL0     H39967   1.488   5.772   3.666 -0.7963  0.9296 -0.6629
  303MOL0     H39968   1.488   6.009   3.862 -1.7625 -1.9865  1.1403
  303MOL0     H39969   1.516   6.041   3.694 -4.8396  1.6695 -3.3113
  303MOL0     H39970   1.298   5.961   3.624 -2.1612  0.7332  0.1790
  303MOL0     H39971   1.294   6.099   3.733  3.1020  0.6024 -0.3253
  303MOL0     H39972   1.225   5.805   3.798  1.7647  0.7756  0.7277
  303MOL0     H39973   1.111   5.938   3.772 -0.5688 -2.2490  0.7010
  303MOL0     H39974   1.317   5.895   3.984  0.7368  0.4456 -3.9202
  303MOL0     H39975   1.224   6.050   3.971 -1.2678  0.4285  0.1164
  303MOL0     H39976   1.025   5.947   4.045  0.3929 -0.7285  2.9870
  303MOL0     H39977   1.145   5.866   4.134 -2.3681 -1.9924  0.3773
  303MOL0     H39978   1.886   6.169   3.911  1.2519 -1.5911 -2.7327
  303MOL0     H39979   2.006   6.275   4.071 -0.9464  0.3779 -0.7844
  303MOL0     H39980   2.260   6.219   4.506  0.2084  1.0649  0.5606
  303MOL0     H39981   2.416   6.321   4.661 -0.5848  0.2753  0.0181
  303MOL0     H39982   2.914   6.623   5.345 -0.9597 -0.7362 -0.0384
  303MOL0     H39983   2.915   6.733   5.133 -1.4933 -0.2090  0.4643
  303MOL0     H39984   2.965   6.813   4.652 -0.8154  1.3410 -3.6070
  303MOL0     H39985   3.003   6.952   4.469 -1.8647  2.3895 -0.5253
  303MOL0     H39986   2.985   7.109   4.358 -0.1542  1.5110 -0.4914
  303MOL0     H39987   3.150   7.063   4.314  0.3972  0.5861 -0.5312
  303MOL0     H39988   3.193   7.256   4.195  0.2583 -0.9296 -0.3372
  303MOL0     H39989   3.034   7.201   4.145 -2.9936 -2.2628  1.5601
  303MOL0     H39990   3.046   7.416   4.362  3.3532  0.2711 -0.4111
  303MOL0     H39991   2.912   7.387   4.242  0.2302 -2.3407  0.0799
  303MOL0     H39992   3.172   7.501   4.151 -0.1536 -0.2056  1.3249
  303MOL0     H39993   3.050   7.443   4.048 -1.5319 -0.8931  0.6928
  303MOL0     H39994   2.899   7.814   4.189  1.4111 -0.0457 -4.5680
  303MOL0     H39995   3.208   7.241   4.697  0.3211  0.1222 -2.6636
  303MOL0     H39996   3.171   7.105   4.899  0.2475 -1.4943  0.4247
  304MOL0     O39997   1.665   7.373   5.682  0.5781 -0.3097 -0.8214
  304MOL0     C39998   1.598   7.282   5.723 -0.5462  0.4839 -0.4202
  304MOL0     O39999   1.485   7.285   5.790  0.2591 -0.1921 -0.1467
  304MOL0     C40000   1.418   7.397   5.829  0.4524  0.9789 -0.7919
  304MOL0     C40001   1.333   7.365   5.936  0.8077 -0.2500  0.0128
  304MOL0     C40002   1.248   7.460   6.008 -0.1298 -0.4075 -0.2998
  304MOL0     C40003   1.254   7.598   5.970 -0.3285  0.6686 -1.3479
  304MOL0     O40004   1.176   7.685   6.051  0.4757 -0.3627 -0.1479
  304MOL0     C40005   1.214   7.825   6.041 -0.3408  0.9267  0.1983
  304MOL0     C40006   1.349   7.873   6.101 -0.9398  0.1763 -0.6094
  304MOL0     C40007   1.377   7.808   6.239  0.2672  0.3540 -0.1210
  304MOL0     C40008   1.258   7.791   6.333  0.3757 -0.4853  1.0514
  304MOL0     C40009   1.305   7.765   6.477  0.4964 -0.5489 -1.0005
  304MOL0     C40010   1.190   7.763   6.581 -0.2142  0.4118 -0.8501
  304MOL0     C40011   1.226   7.701   6.721 -0.0377  0.1351 -0.0117
  304MOL0     C40012   1.099   7.647   6.795 -0.3378 -0.0521  0.0350
  304MOL0     N40013   1.049   7.728   6.905 -0.7272 -0.5842 -0.2542
  304MOL0     C40014   0.986   7.850   6.884  0.4666  0.7746  0.5601
  304MOL0     C40015   0.957   7.895   7.007  0.3940 -0.3794 -0.1375
  304MOL0     C40016   0.906   8.027   7.037 -0.6620 -0.1062  0.0596
  304MOL0     C40017   0.752   8.027   7.063 -0.6384  0.1409  0.2112
  304MOL0     C40018   0.744   8.007   7.219  0.1820 -0.2976 -0.1782
  304MOL0     C40019   0.607   7.972   7.266  0.4703 -0.1308  0.0517
  304MOL0     O40020   0.585   7.833   7.241 -0.6979  0.5342  0.0948
  304MOL0     C40021   0.463   7.789   7.275  1.2784  0.0333 -0.1480
  304MOL0     C40022   0.369   7.849   7.361 -0.6307 -0.2350 -0.7200
  304MOL0     C40023   0.247   7.798   7.392  0.3681 -0.3550 -0.1002
  304MOL0     C40024   0.206   7.672   7.337 -0.7954  0.2679  1.4998
  304MOL0     C40025   0.080   7.619   7.364 -0.6444 -0.1481 -0.7424
  304MOL0     O40026   0.073   7.480   7.358  0.8513 -0.4025  0.1326
  304MOL0     C40027  -0.040   7.424   7.415  1.1171 -0.3937 -0.5865
  304MOL0     C40028  -0.125   7.340   7.339  0.2197  0.1288  0.4950
  304MOL0     C40029  -0.230   7.272   7.388 -0.0193 -0.5464  0.2520
  304MOL0     C40030  -0.265   7.297   7.523 -0.5995  0.7150  0.2254
  304MOL0     O40031  -0.378   7.232   7.561 -0.3462  0.2943 -0.4080
  304MOL0     C40032  -0.432   7.227   7.696  0.1242 -0.0235 -0.3005
  304MOL0     C40033  -0.503   7.092   7.714 -0.0659  0.3984 -0.1560
  304MOL0     C40034  -0.650   7.090   7.656 -0.8267  0.8850 -0.3422
  304MOL0     C40035  -0.704   6.950   7.664 -0.7855 -0.8520 -0.4077
  304MOL0     C40036  -0.843   6.937   7.600  0.6953 -0.8735 -0.0703
  304MOL0     C40037  -0.898   6.798   7.601 -0.3905 -0.3493  1.0155
  304MOL0     C40038  -1.050   6.793   7.583 -0.3590 -0.0348  0.0095
  304MOL0     C40039  -1.092   6.660   7.537  0.2919  0.3060  0.2698
  304MOL0    Cl40040  -1.280   6.657   7.538  0.0502  0.0210 -0.3153
  304MOL0     C40041  -0.189   7.393   7.591  1.2343  0.5145 -1.1534
  304MOL0     C40042  -0.070   7.451   7.550  0.2335 -0.6789  0.3672
  304MOL0     O40043  -0.006   7.694   7.411 -0.0255 -0.2309 -0.0642
  304MOL0     C40044   0.303   7.605   7.259 -0.7837  0.0493 -1.2643
  304MOL0     C40045   0.424   7.664   7.229 -0.8538  0.3541 -0.0334
  304MOL0     N40046   0.997   7.815   7.109  0.0533  0.6703  0.5534
  304MOL0     N40047   1.057   7.719   7.045 -0.3754  1.1063  0.5770
  304MOL0     C40048   1.330   7.625   5.856 -0.3450 -0.5508  0.0798
  304MOL0     C40049   1.413   7.533   5.787  1.0013 -0.4489 -0.2110
  304MOL0     C40050   1.650   7.149   5.690 -0.5571 -0.4697  0.3953
  304MOL0     C40051   1.611   7.035   5.767 -0.5961 -0.0985 -0.4085
  304MOL0     C40052   1.658   6.910   5.721 -0.5887  0.8259  0.2652
  304MOL0     C40053   1.740   6.891   5.610  0.1006  0.4848 -0.6782
  304MOL0     O40054   1.794   6.777   5.562 -0.4103 -0.0384 -0.1766
  304MOL0     C40055   1.737   6.662   5.622 -1.2055  1.4481  0.1985
  304MOL0     C40056   1.829   6.537   5.607  0.2941  0.6019  0.3170
  304MOL0     C40057   1.835   6.476   5.456  1.1089  0.1825  0.2775
  304MOL0     C40058   1.709   6.509   5.368  0.2706  0.3092  0.0663
  304MOL0     C40059   1.592   6.445   5.430  0.2010 -0.0836 -0.5483
  304MOL0     C40060   1.495   6.389   5.466  0.0567 -0.7444  0.0500
  304MOL0     C40061   1.777   7.003   5.531  0.2484 -0.6638 -0.7825
  304MOL0     C40062   1.734   7.130   5.578 -0.5596 -0.4049  0.4713
  304MOL0     H40063   1.335   7.268   5.984  1.1220 -0.0165  0.4811
  304MOL0     H40064   1.191   7.427   6.094 -1.0441 -0.2963 -0.8557
  304MOL0     H40065   1.151   7.894   6.098 -1.4736 -0.4035  0.6169
  304MOL0     H40066   1.213   7.852   5.936  1.9698  0.6931  0.0712
  304MOL0     H40067   1.347   7.982   6.112 -0.1864  0.2079 -0.7135
  304MOL0     H40068   1.426   7.850   6.027 -1.3546  2.6494 -1.9268
  304MOL0     H40069   1.450   7.869   6.292  0.4341 -0.1854  0.2700
  304MOL0     H40070   1.423   7.709   6.239  2.9792  1.4769  1.8071
  304MOL0     H40071   1.203   7.885   6.332  1.2503  0.0927 -1.7153
  304MOL0     H40072   1.192   7.713   6.292 -1.4235  1.3506  0.2607
  304MOL0     H40073   1.393   7.821   6.511  2.2600 -1.8180 -3.2231
  304MOL0     H40074   1.345   7.663   6.469 -0.2081 -0.9300  0.1223
  304MOL0     H40075   1.114   7.700   6.535  1.0731 -2.6689  0.9436
  304MOL0     H40076   1.147   7.864   6.583 -2.9512 -0.6176 -2.5073
  304MOL0     H40077   1.303   7.626   6.701  1.5532  2.0641 -1.4803
  304MOL0     H40078   1.275   7.780   6.779  1.5463  0.1830 -1.3334
  304MOL0     H40079   1.129   7.552   6.841 -1.7615 -0.3794  0.3652
  304MOL0     H40080   1.018   7.625   6.724 -0.0359  2.7385 -1.2638
  304MOL0     H40081   0.981   7.911   6.794  0.8270 -1.2685 -0.9241
  304MOL0     H40082   0.925   8.086   6.947 -0.3361  0.4930  0.5136
  304MOL0     H40083   0.966   8.074   7.116  1.4507 -2.0466 -0.2845
  304MOL0     H40084   0.695   7.957   7.001 -1.1361  1.5401 -0.9540
  304MOL0     H40085   0.714   8.126   7.036 -2.6953 -0.9254 -1.1176
  304MOL0     H40086   0.812   7.926   7.247 -0.3016 -1.2492 -1.6069
  304MOL0     H40087   0.780   8.097   7.268 -2.1450  0.6610 -0.1039
  304MOL0     H40088   0.536   8.042   7.221 -0.2662  0.1253  1.5456
  304MOL0     H40089   0.604   7.993   7.373 -2.9776 -2.2758  0.5179
  304MOL0     H40090   0.381   7.944   7.412  0.6772 -0.3539 -0.7694
  304MOL0     H40091   0.183   7.853   7.461  0.0765 -1.7098  0.7555
  304MOL0     H40092  -0.096   7.320   7.237 -0.8823 -1.4139  0.4554
  304MOL0     H40093  -0.275   7.204   7.317  0.1239 -0.4617  0.0801
  304MOL0     H40094  -0.499   7.313   7.706  0.0160  0.1242 -2.0090
  304MOL0     H40095  -0.350   7.245   7.766 -0.5224  1.0944  0.1952
  304MOL0     H40096  -0.501   7.061   7.818 -0.3304 -0.2246 -0.3308
  304MOL0     H40097  -0.443   7.018   7.660  2.1753  2.0681 -0.1284
  304MOL0     H40098  -0.637   7.103   7.548  3.5900 -1.0905 -0.2596
  304MOL0     H40099  -0.715   7.168   7.697  0.2529  1.3511  0.5506
  304MOL0     H40100  -0.621   6.892   7.623  1.9727  1.8679  0.9471
  304MOL0     H40101  -0.703   6.911   7.766 -1.4941  0.4501  0.1234
  304MOL0     H40102  -0.838   6.977   7.499  0.9902 -1.3404 -0.2437
  304MOL0     H40103  -0.921   7.000   7.644 -1.8951 -0.1737 -5.0234
  304MOL0     H40104  -0.868   6.753   7.695  1.1329  1.0200  1.2286
  304MOL0     H40105  -0.856   6.745   7.515  0.6478  1.4564  0.3538
  304MOL0     H40106  -1.081   6.811   7.686 -0.8402  2.0281 -0.4577
  304MOL0     H40107  -1.091   6.878   7.528  0.0948  1.3433  1.6973
  304MOL0     H40108  -1.049   6.581   7.600 -0.1768  0.2662  0.5426
  304MOL0     H40109  -1.061   6.653   7.432  1.3325  1.1736  0.4975
  304MOL0     H40110  -0.218   7.415   7.693  0.3599  1.7830 -1.6617
  304MOL0     H40111  -0.010   7.516   7.613  0.0758  0.2236 -0.3890
  304MOL0     H40112   0.280   7.507   7.217  0.5339 -0.4949 -0.7441
  304MOL0     H40113   0.484   7.602   7.163  0.2347 -0.3665  1.5856
  304MOL0     H40114   1.331   7.730   5.826  0.6336  0.8934  4.4053
  304MOL0     H40115   1.466   7.574   5.702  2.8152 -1.9199  0.1477
  304MOL0     H40116   1.573   7.064   5.865  3.0417  4.6490 -0.0498
  304MOL0     H40117   1.635   6.826   5.786  0.6570 -0.2710 -0.6394
  304MOL0     H40118   1.633   6.634   5.600 -0.9542 -0.0382  0.7594
  304MOL0     H40119   1.740   6.679   5.730  4.1073 -0.4652  0.6401
  304MOL0     H40120   1.926   6.568   5.647  1.4248 -0.3922 -1.5202
  304MOL0     H40121   1.793   6.459   5.674 -0.4531  0.5671 -0.1141
  304MOL0     H40122   1.856   6.369   5.456  1.2517  0.1977 -0.8791
  304MOL0     H40123   1.925   6.516   5.409  0.9099  2.3160  1.5366
  304MOL0     H40124   1.700   6.618   5.373  0.8237  0.2849  2.1827
  304MOL0     H40125   1.721   6.482   5.262  1.4632 -2.5283  0.8417
  304MOL0     H40126   1.404   6.349   5.507 -1.8901 -1.5733 -4.4779
  304MOL0     H40127   1.845   7.000   5.446  0.1305 -2.7256 -0.8551
  304MOL0     H40128   1.790   7.208   5.528  2.6700 -1.0013  2.8029
  305MOL0     O40129   0.363   2.588   0.945  0.4231  0.2521 -0.6398
  305MOL0     C40130   0.366   2.476   0.996  0.2533  0.3960 -0.1951
  305MOL0     O40131   0.402   2.366   0.928 -0.0983  0.8749 -0.3225
  305MOL0     C40132   0.414   2.363   0.797 -1.0172  0.0391  0.1770
  305MOL0     C40133   0.305   2.316   0.720  0.0325 -1.3331  0.2405
  305MOL0     C40134   0.308   2.330   0.580 -0.0341  0.5442  0.4360
  305MOL0     C40135   0.423   2.389   0.517  0.0944 -0.2450 -0.2487
  305MOL0     O40136   0.412   2.414   0.379  0.6829 -0.7795 -0.3210
  305MOL0     C40137   0.519   2.501   0.321 -0.1259 -0.5626 -0.4083
  305MOL0     C40138   0.517   2.509   0.168  0.0663 -0.5781  0.5397
  305MOL0     C40139   0.621   2.413   0.106  0.3907 -0.3746 -0.7901
  305MOL0     C40140   0.599   2.402  -0.041  0.3633 -0.1277  0.3849
  305MOL0     C40141   0.709   2.355  -0.128 -0.0210 -0.5437  0.6662
  305MOL0     C40142   0.755   2.210  -0.097  0.3072 -0.1144  0.4527
  305MOL0     C40143   0.857   2.182  -0.205  0.7449 -0.4873  0.0083
  305MOL0     C40144   0.890   2.034  -0.207  0.3788 -0.1805  0.1273
  305MOL0     N40145   1.022   2.014  -0.127  0.3392 -1.4426 -0.0196
  305MOL0     C40146   1.130   1.953  -0.189 -0.2740 -0.7325  0.4638
  305MOL0     C40147   1.213   1.925  -0.088 -0.6496  0.3122 -0.4073
  305MOL0     C40148   1.340   1.837  -0.111  0.2366  0.5426 -0.0339
  305MOL0     C40149   1.433   1.856   0.013  0.4132  0.6093  0.2186
  305MOL0     C40150   1.575   1.823  -0.022  0.0398 -0.3365 -0.8461
  305MOL0     C40151   1.671   1.906   0.060 -0.8837  0.2778 -0.6177
  305MOL0     O40152   1.802   1.901   0.011  0.3458 -0.1611 -0.1410
  305MOL0     C40153   1.902   1.830   0.072  0.7015  0.1352 -0.2039
  305MOL0     C40154   1.893   1.746   0.183  0.0407 -0.5520  0.1494
  305MOL0     C40155   2.017   1.710   0.251 -0.2159  0.2689 -0.4535
  305MOL0     C40156   2.150   1.758   0.209  0.6498  0.9326 -0.3060
  305MOL0     C40157   2.271   1.718   0.280  0.7349 -1.2318  0.4973
  305MOL0     O40158   2.260   1.642   0.394  0.3861 -0.3152 -0.1124
  305MOL0     C40159   2.384   1.631   0.451  0.7771 -0.2822 -0.0488
  305MOL0     C40160   2.453   1.516   0.446  0.1302  0.1550 -0.1433
  305MOL0     C40161   2.580   1.499   0.509  0.2232 -0.0259  1.5424
  305MOL0     C40162   2.633   1.600   0.587 -0.1341 -0.3719 -0.0047
  305MOL0     O40163   2.756   1.581   0.642  0.5655  0.0422 -0.8585
  305MOL0     C40164   2.798   1.657   0.756 -0.1563 -0.2223 -0.6422
  305MOL0     C40165   2.933   1.605   0.796 -0.1619  0.2728  0.0169
  305MOL0     C40166   3.038   1.649   0.689  0.2718  0.1881  0.3456
  305MOL0     C40167   3.177   1.582   0.718 -0.0254  0.0308  0.7949
  305MOL0     C40168   3.253   1.588   0.588  0.1587 -0.3157 -1.0550
  305MOL0     C40169   3.394   1.534   0.615 -0.1694 -0.2323  0.7845
  305MOL0     C40170   3.412   1.390   0.666  0.2054 -0.0873  0.0363
  305MOL0     C40171   3.370   1.280   0.566 -0.5150 -0.3908  0.1768
  305MOL0    Cl40172   3.445   1.298   0.401 -0.2618 -0.5738 -0.1811
  305MOL0     C40173   2.562   1.719   0.598 -0.4143 -0.4517 -0.7286
  305MOL0     C40174   2.437   1.732   0.529  0.6962  0.4033  1.2634
  305MOL0     O40175   2.373   1.767   0.224  0.5068 -0.2625  0.5647
  305MOL0     C40176   2.143   1.827   0.081  0.2672  0.6831  0.2332
  305MOL0     C40177   2.024   1.863   0.023 -0.2652  0.0860 -0.1010
  305MOL0     N40178   1.157   1.980   0.031  0.7028 -0.4181  0.1958
  305MOL0     N40179   1.044   2.033   0.005  0.9069  0.7084 -0.8823
  305MOL0     C40180   0.537   2.423   0.597  0.7299  0.0975 -0.1510
  305MOL0     C40181   0.535   2.413   0.734 -0.7453  0.5315  0.3296
  305MOL0     C40182   0.345   2.467   1.146 -0.9603  0.5192  0.0258
  305MOL0     C40183   0.385   2.349   1.220 -0.1771  0.1167 -0.1488
  305MOL0     C40184   0.346   2.330   1.358  0.2614 -0.1003 -0.7376
  305MOL0     C40185   0.269   2.437   1.415  0.1395 -0.3433  1.0888
  305MOL0     O40186   0.218   2.412   1.541 -0.6357 -0.4874  0.1663
  305MOL0     C40187   0.147   2.514   1.616 -0.3080  0.4443  0.7722
  305MOL0     C40188   0.102   2.444   1.743  0.7288 -0.4428  0.8902
  305MOL0     C40189   0.194   2.482   1.857  0.5472  0.1605  0.3878
  305MOL0     C40190   0.170   2.393   1.991 -0.1134  0.1384  0.6459
  305MOL0     C40191   0.249   2.268   1.993  0.7419  0.5588  0.2014
  305MOL0     C40192   0.339   2.186   2.007  0.3625  0.1155 -0.1822
  305MOL0     C40193   0.241   2.554   1.348 -0.3104 -0.9832 -0.4845
  305MOL0     C40194   0.280   2.564   1.213 -0.5067  0.3584 -0.2065
  305MOL0     H40195   0.227   2.270   0.781  1.3213 -1.4512  1.8706
  305MOL0     H40196   0.213   2.318   0.529 -0.6253 -0.8107  1.7949
  305MOL0     H40197   0.611   2.450   0.352  0.8201  0.2365 -1.8136
  305MOL0     H40198   0.518   2.601   0.367 -0.0704 -1.5585  1.9084
  305MOL0     H40199   0.536   2.610   0.131 -1.4613  0.2194  1.8033
  305MOL0     H40200   0.418   2.488   0.125 -0.2224  0.6317  0.5805
  305MOL0     H40201   0.622   2.314   0.152  1.8321 -0.8447 -1.7610
  305MOL0     H40202   0.721   2.456   0.114  1.5603 -2.9038 -0.7747
  305MOL0     H40203   0.516   2.335  -0.063  0.2772 -0.0736  0.5442
  305MOL0     H40204   0.577   2.501  -0.081  3.6694  0.4354 -0.3818
  305MOL0     H40205   0.791   2.427  -0.138  1.5049 -2.5412 -2.9822
  305MOL0     H40206   0.659   2.354  -0.225  0.8493 -2.9843  0.1667
  305MOL0     H40207   0.671   2.140  -0.085 -0.6701  0.8541 -0.5117
  305MOL0     H40208   0.814   2.207  -0.005  1.4877  0.6687 -0.2686
  305MOL0     H40209   0.822   2.213  -0.304  2.8912 -0.1341 -0.6839
  305MOL0     H40210   0.940   2.250  -0.185 -0.9344  1.0687  2.2875
  305MOL0     H40211   0.918   2.016  -0.311  1.1482  0.3338  0.2423
  305MOL0     H40212   0.821   1.962  -0.160  0.1544 -0.1313 -0.1280
  305MOL0     H40213   1.139   1.925  -0.293 -2.6714  1.3445 -0.4011
  305MOL0     H40214   1.392   1.864  -0.204  2.4000 -3.8437 -0.4228
  305MOL0     H40215   1.308   1.734  -0.131  1.0044  1.0256 -5.3181
  305MOL0     H40216   1.398   1.785   0.089  1.0579  1.4795  1.3576
  305MOL0     H40217   1.426   1.956   0.057 -0.9716  0.8120 -0.3996
  305MOL0     H40218   1.602   1.718  -0.007  1.1516  0.0559  0.0922
  305MOL0     H40219   1.592   1.843  -0.128  2.2469  2.8392 -0.0359
  305MOL0     H40220   1.655   1.864   0.160 -0.6651  2.1665  0.2718
  305MOL0     H40221   1.639   2.010   0.052 -1.4304 -0.0218 -3.5364
  305MOL0     H40222   1.800   1.711   0.226  0.2211 -1.1908  0.0251
  305MOL0     H40223   2.015   1.658   0.346 -1.7413 -0.2696 -0.7580
  305MOL0     H40224   2.414   1.425   0.400 -0.8398  0.8576 -0.7551
  305MOL0     H40225   2.626   1.402   0.491  3.3239  1.6098  0.0190
  305MOL0     H40226   2.736   1.656   0.846  3.0996 -0.3026  1.7656
  305MOL0     H40227   2.815   1.762   0.728  1.0713 -0.0395  0.6699
  305MOL0     H40228   2.932   1.496   0.806  0.3282  0.0684 -1.7665
  305MOL0     H40229   2.950   1.645   0.896  2.7020 -1.4553  0.3443
  305MOL0     H40230   3.053   1.757   0.692 -0.9079  0.3613  1.9939
  305MOL0     H40231   3.015   1.619   0.586  0.0841 -1.3690  0.8076
  305MOL0     H40232   3.223   1.632   0.804 -2.2388  1.0249  1.4723
  305MOL0     H40233   3.165   1.476   0.745  1.9153 -1.2353 -2.6888
  305MOL0     H40234   3.251   1.687   0.542 -0.0880 -1.2388 -3.1667
  305MOL0     H40235   3.198   1.527   0.515 -0.9690 -0.9153  0.2372
  305MOL0     H40236   3.443   1.595   0.692 -0.5429 -1.2549  1.8537
  305MOL0     H40237   3.453   1.543   0.524  4.0481  1.1618  3.3432
  305MOL0     H40238   3.518   1.394   0.694  0.3848  2.6803 -0.7725
  305MOL0     H40239   3.363   1.382   0.763 -1.6324  2.1593 -0.6356
  305MOL0     H40240   3.261   1.282   0.554 -0.5218 -0.7741  0.1521
  305MOL0     H40241   3.393   1.181   0.604 -2.1522 -0.3698  1.3097
  305MOL0     H40242   2.596   1.799   0.663 -2.0659 -0.9273  0.7844
  305MOL0     H40243   2.377   1.821   0.546  0.7914  0.3707  1.8035
  305MOL0     H40244   2.235   1.858   0.031 -0.0251  1.6490  0.2803
  305MOL0     H40245   2.033   1.939  -0.055 -0.0782 -0.4798 -0.6353
  305MOL0     H40246   0.619   2.479   0.553 -0.0496  2.8306  1.6201
  305MOL0     H40247   0.614   2.456   0.794 -0.0795 -0.3354  0.0901
  305MOL0     H40248   0.415   2.265   1.160 -0.6157  0.1291 -0.3955
  305MOL0     H40249   0.362   2.237   1.412  0.5034  0.6312  0.4873
  305MOL0     H40250   0.055   2.543   1.563 -1.2718 -3.5535 -0.0535
  305MOL0     H40251   0.200   2.607   1.635 -0.6500  0.5499  1.2286
  305MOL0     H40252   0.004   2.477   1.778  0.7844 -1.3764  1.9844
  305MOL0     H40253   0.099   2.335   1.732  0.4906 -0.4161  0.6775
  305MOL0     H40254   0.167   2.584   1.888  3.2380  1.2338 -0.4366
  305MOL0     H40255   0.295   2.474   1.815 -0.2034  2.4827 -2.1677
  305MOL0     H40256   0.194   2.456   2.076  3.1733 -1.2223  0.8516
  305MOL0     H40257   0.062   2.372   1.990 -0.3721  1.3189 -0.9793
  305MOL0     H40258   0.427   2.127   2.019  2.5958  2.8898 -1.8775
  305MOL0     H40259   0.167   2.627   1.379  0.2271  0.4733 -2.4412
  305MOL0     H40260   0.261   2.656   1.158  1.9560  1.1958  0.2324
  306MOL0     O40261   8.491   0.596   1.526  0.0233  0.0167 -0.4275
  306MOL0     C40262   8.403   0.609   1.446 -0.3534 -0.3329  1.2268
  306MOL0     O40263   8.301   0.704   1.447 -0.0400 -0.5403 -0.0597
  306MOL0     C40264   8.282   0.800   1.542  0.2253 -0.5486  0.6432
  306MOL0     C40265   8.157   0.836   1.582  0.0617  0.1740 -1.3542
  306MOL0     C40266   8.130   0.942   1.688 -0.6391 -0.0922  0.6175
  306MOL0     C40267   8.240   1.010   1.748  0.6644  0.0982 -0.1326
  306MOL0     O40268   8.207   1.099   1.855 -0.3413  0.4699 -0.4943
  306MOL0     C40269   8.302   1.142   1.942 -0.9419 -0.3922 -0.5430
  306MOL0     C40270   8.237   1.237   2.043  0.2116  0.2503 -0.0234
  306MOL0     C40271   8.317   1.285   2.164  0.8124  0.5094 -0.1081
  306MOL0     C40272   8.397   1.183   2.235 -0.3853 -0.1552  0.1440
  306MOL0     C40273   8.400   1.219   2.386  0.1854  0.9326  0.3039
  306MOL0     C40274   8.448   1.108   2.476 -0.5732  0.0543 -0.1106
  306MOL0     C40275   8.477   1.137   2.627  0.0096 -0.0313  0.3260
  306MOL0     C40276   8.586   1.235   2.679  0.2129  0.7171 -0.5582
  306MOL0     N40277   8.616   1.200   2.822  0.5062  1.2172  0.5387
  306MOL0     C40278   8.529   1.221   2.917 -0.1376  0.2111 -0.7286
  306MOL0     C40279   8.559   1.131   3.023  0.2375 -0.5818  1.3968
  306MOL0     C40280   8.480   1.104   3.146  1.1667 -0.0941  0.3795
  306MOL0     C40281   8.325   1.091   3.132 -0.0248 -0.5368 -0.7411
  306MOL0     C40282   8.266   0.994   3.019  0.5784  0.0581  0.3003
  306MOL0     C40283   8.114   0.982   3.013 -0.4749  0.4899 -0.3809
  306MOL0     O40284   8.041   1.040   2.905 -0.3437  0.5770 -0.1372
  306MOL0     C40285   7.912   1.006   2.883  0.3082 -0.0464 -0.3328
  306MOL0     C40286   7.859   1.101   2.793 -0.0685 -1.1734 -1.0691
  306MOL0     C40287   7.723   1.097   2.761 -0.3188 -0.1146  0.0973
  306MOL0     C40288   7.642   1.001   2.810 -0.5873 -0.2927 -0.9966
  306MOL0     C40289   7.502   0.996   2.769 -0.2503 -0.8712 -0.3617
  306MOL0     O40290   7.443   0.879   2.794  0.1270 -0.1803  0.3027
  306MOL0     C40291   7.327   0.857   2.729 -0.9766  0.2270  0.5345
  306MOL0     C40292   7.232   0.788   2.803  0.3529  0.0719 -0.2996
  306MOL0     C40293   7.107   0.773   2.747 -0.1859  0.2766 -0.4365
  306MOL0     C40294   7.075   0.808   2.616 -1.3848  0.7001 -0.3523
  306MOL0     O40295   6.951   0.780   2.565 -0.8417 -0.0549 -0.2810
  306MOL0     C40296   6.900   0.847   2.449  0.2713  0.0263 -0.3038
  306MOL0     C40297   6.951   0.782   2.327  1.0703 -0.6516 -0.3608
  306MOL0     C40298   6.893   0.841   2.202 -0.1215  0.5019  0.1241
  306MOL0     C40299   6.988   0.801   2.079 -0.0587 -0.0785 -0.5386
  306MOL0     C40300   6.968   0.652   2.054 -0.1430  0.1526  0.6897
  306MOL0     C40301   7.052   0.608   1.933  0.3154 -0.2251 -0.1173
  306MOL0     C40302   7.026   0.458   1.912  0.4018  0.1449 -0.7856
  306MOL0     C40303   7.063   0.406   1.771  0.3398  0.5715 -0.4624
  306MOL0    Cl40304   7.067   0.226   1.769  0.0126  0.3120  0.0236
  306MOL0     C40305   7.183   0.862   2.542  0.0189 -0.6927 -0.2871
  306MOL0     C40306   7.306   0.893   2.595 -0.6099  0.3758  0.0317
  306MOL0     O40307   7.450   1.090   2.712  0.0868  0.6682  0.4806
  306MOL0     C40308   7.700   0.904   2.901  0.2012  0.8598 -0.4510
  306MOL0     C40309   7.832   0.904   2.942  0.5371 -0.2754 -0.0049
  306MOL0     N40310   8.668   1.060   2.973  0.0662 -0.1668 -0.6154
  306MOL0     N40311   8.703   1.104   2.859 -0.8844  0.6788  0.2825
  306MOL0     C40312   8.369   0.959   1.707  0.0362 -0.1075 -0.2172
  306MOL0     C40313   8.389   0.861   1.608 -0.2082 -0.5497 -0.0417
  306MOL0     C40314   8.405   0.507   1.338 -0.1075  1.0918  0.3579
  306MOL0     C40315   8.303   0.508   1.241  0.1099  0.6851 -0.0106
  306MOL0     C40316   8.303   0.403   1.140  0.0014  0.5074  0.2875
  306MOL0     C40317   8.392   0.300   1.144 -0.6113  0.0909 -0.5786
  306MOL0     O40318   8.387   0.180   1.071 -0.2366 -0.4175  0.4209
  306MOL0     C40319   8.483   0.195   0.964  0.4655 -0.2476  0.1783
  306MOL0     C40320   8.459   0.304   0.856 -0.5175 -0.3895  0.3826
  306MOL0     C40321   8.315   0.313   0.804  0.1617 -0.6930 -0.4371
  306MOL0     C40322   8.259   0.175   0.776  0.6357  0.4020 -0.4659
  306MOL0     C40323   8.328   0.101   0.676 -0.0411 -0.1185  0.4562
  306MOL0     C40324   8.392   0.046   0.595  0.1210 -0.0784 -0.3392
  306MOL0     C40325   8.491   0.314   1.240 -0.6241 -0.2264 -0.1667
  306MOL0     C40326   8.505   0.416   1.333  0.1998  0.3427 -0.9600
  306MOL0     H40327   8.063   0.792   1.548 -0.3976 -0.0856  0.1954
  306MOL0     H40328   8.029   0.969   1.717 -0.8771 -0.4043  0.0897
  306MOL0     H40329   8.384   1.193   1.890 -1.1316  1.4030  0.8238
  306MOL0     H40330   8.330   1.052   1.998  0.4644 -0.6260 -1.5601
  306MOL0     H40331   8.156   1.180   2.090  1.7608  0.5325  3.2071
  306MOL0     H40332   8.202   1.327   1.992  1.5895  0.5486 -0.4832
  306MOL0     H40333   8.240   1.314   2.235  0.1225 -1.4622 -0.0000
  306MOL0     H40334   8.383   1.369   2.137 -1.0838  1.0730 -3.7054
  306MOL0     H40335   8.341   1.090   2.217 -1.7447  0.8539 -1.0894
  306MOL0     H40336   8.492   1.172   2.183  0.1812  2.8894  0.3373
  306MOL0     H40337   8.294   1.231   2.410  0.0996 -1.1961  1.2032
  306MOL0     H40338   8.452   1.314   2.406 -0.7755  1.6445 -0.4570
  306MOL0     H40339   8.543   1.072   2.436  0.3277  1.7544  0.4138
  306MOL0     H40340   8.367   1.035   2.486 -0.6395  0.2579  0.9893
  306MOL0     H40341   8.384   1.172   2.671  0.9618 -0.1027  2.5173
  306MOL0     H40342   8.510   1.036   2.654 -0.6183  0.4115  3.0258
  306MOL0     H40343   8.573   1.343   2.667  3.2434  1.1608 -0.5016
  306MOL0     H40344   8.676   1.217   2.620  0.3974  0.2942 -0.1570
  306MOL0     H40345   8.442   1.285   2.913  0.7668  1.4748 -0.9837
  306MOL0     H40346   8.486   1.186   3.219  0.3875 -0.3717  0.7693
  306MOL0     H40347   8.526   1.017   3.194  2.2484  1.1846  1.7636
  306MOL0     H40348   8.285   1.189   3.105 -0.6562 -0.3729  0.6956
  306MOL0     H40349   8.280   1.049   3.222 -1.1041 -1.8875 -1.8661
  306MOL0     H40350   8.299   1.013   2.917 -2.8678 -0.4400 -1.0315
  306MOL0     H40351   8.289   0.889   3.037 -0.8035 -0.1479  1.0492
  306MOL0     H40352   8.065   0.998   3.110  0.2646 -0.6984  0.2145
  306MOL0     H40353   8.093   0.878   2.987 -1.5233  0.7894 -0.7793
  306MOL0     H40354   7.918   1.183   2.753 -0.5131 -0.8786 -1.1283
  306MOL0     H40355   7.686   1.165   2.684 -0.5363 -0.7954 -0.4110
  306MOL0     H40356   7.250   0.742   2.900  1.7537 -1.4189 -1.1958
  306MOL0     H40357   7.029   0.719   2.800 -1.1383  0.7477 -1.3005
  306MOL0     H40358   6.921   0.953   2.432  2.8946 -0.9714 -4.7428
  306MOL0     H40359   6.790   0.847   2.453  0.2835 -0.1168  0.1349
  306MOL0     H40360   6.922   0.677   2.326  1.3256 -0.8216  2.5184
  306MOL0     H40361   7.059   0.795   2.330  0.8046  1.8709  1.8205
  306MOL0     H40362   6.887   0.949   2.218 -0.7119  0.4385  0.3717
  306MOL0     H40363   6.791   0.813   2.174 -0.3426 -0.5686  1.8536
  306MOL0     H40364   6.968   0.850   1.984  2.4294 -2.2504 -2.3329
  306MOL0     H40365   7.096   0.813   2.097 -0.0259  1.0002 -1.3484
  306MOL0     H40366   6.860   0.634   2.045 -0.1628  0.5512  0.1190
  306MOL0     H40367   7.006   0.595   2.139 -3.7899 -4.2200 -0.1877
  306MOL0     H40368   7.159   0.628   1.947  0.4487 -0.6191 -0.5070
  306MOL0     H40369   7.021   0.654   1.839 -3.2625 -2.7073 -0.3411
  306MOL0     H40370   7.098   0.419   1.984  1.6300  2.0083 -0.9379
  306MOL0     H40371   6.928   0.428   1.952 -0.2828  0.6896 -2.0039
  306MOL0     H40372   7.157   0.446   1.732  1.9538 -0.4185  2.1593
  306MOL0     H40373   6.979   0.434   1.707 -0.8647 -0.8758  0.3995
  306MOL0     H40374   7.147   0.911   2.452 -1.0997 -0.9954 -0.0227
  306MOL0     H40375   7.376   0.952   2.537  1.8200 -1.5373  0.8754
  306MOL0     H40376   7.643   0.827   2.951  2.5017 -0.2209  0.6383
  306MOL0     H40377   7.867   0.831   3.014  2.3736  0.1607 -0.4041
  306MOL0     H40378   8.450   1.011   1.758 -0.3321  0.3904 -0.1289
  306MOL0     H40379   8.490   0.849   1.571 -0.8937 -2.2782 -1.4838
  306MOL0     H40380   8.221   0.579   1.249 -1.6516 -0.9482 -2.2385
  306MOL0     H40381   8.227   0.407   1.063  1.2739  0.9713 -1.0039
  306MOL0     H40382   8.482   0.096   0.918 -0.4558  0.5928 -1.7487
  306MOL0     H40383   8.587   0.197   0.998  0.3812 -1.4126  0.5419
  306MOL0     H40384   8.490   0.401   0.895 -1.8985 -0.0363  0.6503
  306MOL0     H40385   8.523   0.279   0.771 -0.2812 -3.5715  1.3569
  306MOL0     H40386   8.317   0.384   0.721  0.6325  3.1185  2.5437
  306MOL0     H40387   8.241   0.371   0.860 -0.6017 -2.1585  0.1285
  306MOL0     H40388   8.233   0.119   0.866  0.3849 -0.2565 -0.9310
  306MOL0     H40389   8.161   0.190   0.730 -0.9509  1.4777  2.9739
  306MOL0     H40390   8.436  -0.003   0.510  4.5379 -0.2436  1.7689
  306MOL0     H40391   8.559   0.230   1.237 -1.5188 -0.9342 -2.3087
  306MOL0     H40392   8.587   0.423   1.404 -0.4014 -1.3874 -0.0352
  307MOL0     O40393   5.954   1.394   7.612  0.1091  0.1670 -0.2553
  307MOL0     C40394   5.889   1.495   7.585  0.9856  0.1158  0.7955
  307MOL0     O40395   5.875   1.608   7.655  0.5862  0.8310 -1.0467
  307MOL0     C40396   5.922   1.607   7.784 -0.1363  0.0537 -0.8409
  307MOL0     C40397   5.870   1.537   7.884 -0.3424 -0.4021  0.2871
  307MOL0     C40398   5.930   1.537   8.009 -0.6097  0.1554 -0.2887
  307MOL0     C40399   6.046   1.609   8.042 -0.2124  0.9863  0.1165
  307MOL0     O40400   6.087   1.609   8.174  0.7129  0.3913  0.9483
  307MOL0     C40401   5.988   1.641   8.272  0.1848 -0.5352 -0.0195
  307MOL0     C40402   6.067   1.702   8.388  0.3007 -0.2074  0.0848
  307MOL0     C40403   6.154   1.592   8.454  0.3870  0.3266 -0.2230
  307MOL0     C40404   6.237   1.655   8.555 -0.0410 -0.2605 -0.2355
  307MOL0     C40405   6.325   1.560   8.645  0.1678 -0.5940  0.8004
  307MOL0     C40406   6.416   1.656   8.719 -0.0515  0.4931 -0.2203
  307MOL0     C40407   6.504   1.579   8.820 -0.0654  0.1161  0.4675
  307MOL0     C40408   6.421   1.490   8.924  0.0039 -0.1155 -1.0191
  307MOL0     N40409   6.513   1.454   9.029  0.5027  0.4443  0.3959
  307MOL0     C40410   6.607   1.348   9.024 -0.1034  0.7369  0.2722
  307MOL0     C40411   6.671   1.361   9.149 -0.3843  0.3180  0.7223
  307MOL0     C40412   6.772   1.254   9.186 -0.8768 -0.2749  0.3303
  307MOL0     C40413   6.725   1.155   9.285  0.4414  0.5261  0.8383
  307MOL0     C40414   6.852   1.113   9.359 -0.3732  0.5446  0.5029
  307MOL0     C40415   6.814   0.992   9.443  0.0868 -0.1447 -1.0936
  307MOL0     O40416   6.920   0.954   9.538 -0.3736 -0.3387  0.2902
  307MOL0     C40417   6.892   0.856   9.633 -0.6705  0.3563  0.2468
  307MOL0     C40418   6.775   0.786   9.653 -0.1761 -0.4857 -0.6336
  307MOL0     C40419   6.769   0.693   9.754  0.7001 -0.4923  0.5488
  307MOL0     C40420   6.879   0.656   9.832 -0.2179 -0.1171 -0.4526
  307MOL0     C40421   6.878   0.532   9.914 -0.2774  0.0312  0.7714
  307MOL0     O40422   6.963   0.528  10.018 -0.2488 -0.6194  0.4124
  307MOL0     C40423   6.953   0.457  10.132  0.3679  0.1890  0.7839
  307MOL0     C40424   7.069   0.394  10.176  0.2452 -0.0016  0.2416
  307MOL0     C40425   7.057   0.319  10.293  0.6667  0.0613 -0.2920
  307MOL0     C40426   6.940   0.290  10.362  0.2390 -0.6326 -0.2062
  307MOL0     O40427   6.944   0.204  10.465  0.9755  0.1952 -0.1567
  307MOL0     C40428   6.820   0.192  10.540  0.2606 -0.3725 -0.0233
  307MOL0     C40429   6.847   0.133  10.677  0.5886  1.3076  1.0481
  307MOL0     C40430   6.919   0.226  10.774 -0.4944  0.2222 -0.0246
  307MOL0     C40431   6.850   0.368  10.804 -0.1382  0.6057 -1.2009
  307MOL0     C40432   6.868   0.491  10.713 -0.8796  0.1447  0.1502
  307MOL0     C40433   7.007   0.510  10.648 -0.0162 -0.3041 -0.7414
  307MOL0     C40434   7.116   0.541  10.761 -0.7524 -0.3295  0.4206
  307MOL0     C40435   7.259   0.522  10.715  1.0049  0.3966  0.0420
  307MOL0    Cl40436   7.286   0.351  10.729  0.0400  0.2070  0.4286
  307MOL0     C40437   6.823   0.345  10.314 -0.6724 -0.0638  0.0124
  307MOL0     C40438   6.838   0.428  10.195  0.1478  0.2527 -0.1062
  307MOL0     O40439   6.792   0.453   9.894 -0.1679  0.8836 -0.7622
  307MOL0     C40440   6.994   0.730   9.814 -0.6009 -0.1712  0.1068
  307MOL0     C40441   7.000   0.829   9.719 -0.2237  0.5082  1.4188
  307MOL0     N40442   6.621   1.464   9.223  0.8039  0.0969 -0.6879
  307MOL0     N40443   6.521   1.513   9.154 -0.8446 -0.3118  0.6021
  307MOL0     C40444   6.098   1.677   7.937 -0.7142 -0.7106 -0.1468
  307MOL0     C40445   6.043   1.677   7.808 -0.2205 -0.0988 -0.4246
  307MOL0     C40446   5.824   1.495   7.444  0.7194  0.3538  0.3006
  307MOL0     C40447   5.760   1.605   7.390  0.1802  0.6373 -0.5303
  307MOL0     C40448   5.692   1.595   7.268  0.7587 -0.1668 -0.3259
  307MOL0     C40449   5.704   1.482   7.190 -0.4945 -0.0310  1.6815
  307MOL0     O40450   5.644   1.487   7.068 -0.7176 -0.4610  0.4051
  307MOL0     C40451   5.607   1.364   7.002  0.9349 -0.7681  0.6938
  307MOL0     C40452   5.480   1.356   6.915 -0.1164 -0.2578  0.6642
  307MOL0     C40453   5.366   1.416   6.992  0.9592  0.2726 -0.0397
  307MOL0     C40454   5.337   1.341   7.122 -0.6535 -0.8434  0.1551
  307MOL0     C40455   5.204   1.380   7.176 -1.1472  0.5988  0.7695
  307MOL0     C40456   5.088   1.379   7.212 -0.5943 -0.2301 -0.4783
  307MOL0     C40457   5.771   1.370   7.243  0.5352 -0.6103  0.9625
  307MOL0     C40458   5.825   1.384   7.366  0.6800  0.4295  1.3983
  307MOL0     H40459   5.781   1.474   7.881 -1.5050  1.1192  1.3894
  307MOL0     H40460   5.885   1.475   8.086 -1.4579  2.4084  1.1222
  307MOL0     H40461   5.936   1.553   8.310 -4.3762  2.1423  0.6793
  307MOL0     H40462   5.919   1.716   8.232  1.3192  1.6090  1.7640
  307MOL0     H40463   6.002   1.751   8.461 -0.0544 -3.5059  2.1732
  307MOL0     H40464   6.135   1.777   8.345 -4.5252  3.2219 -2.5283
  307MOL0     H40465   6.217   1.539   8.383  1.7637  1.3453  0.2006
  307MOL0     H40466   6.080   1.521   8.493 -0.6281  2.3431  1.7878
  307MOL0     H40467   6.302   1.722   8.498 -1.4941  3.6107  2.2837
  307MOL0     H40468   6.177   1.725   8.613  0.6417  1.7845 -1.8596
  307MOL0     H40469   6.369   1.477   8.590  0.5945  0.1571 -0.0328
  307MOL0     H40470   6.247   1.514   8.705 -2.6719  0.4821 -1.7761
  307MOL0     H40471   6.351   1.727   8.771  0.5275  1.5176 -0.8481
  307MOL0     H40472   6.493   1.710   8.663 -1.4250  1.8662 -0.8659
  307MOL0     H40473   6.564   1.505   8.766  0.0386 -0.2323  1.0510
  307MOL0     H40474   6.561   1.655   8.874 -0.8433 -0.0977  1.6198
  307MOL0     H40475   6.377   1.408   8.867  1.2657 -0.9013 -0.8812
  307MOL0     H40476   6.331   1.532   8.971 -0.7213 -2.0834 -0.5857
  307MOL0     H40477   6.615   1.270   8.949  0.6762  0.5723  0.5215
  307MOL0     H40478   6.861   1.313   9.209 -0.4406 -0.3318 -1.1085
  307MOL0     H40479   6.798   1.211   9.089 -0.5212 -0.9584  0.7234
  307MOL0     H40480   6.677   1.071   9.233  0.3003  2.1993 -1.9549
  307MOL0     H40481   6.649   1.195   9.353  0.1737  0.8530  0.3537
  307MOL0     H40482   6.922   1.083   9.280 -1.8843 -0.5710 -0.4746
  307MOL0     H40483   6.899   1.192   9.417 -0.6827 -0.5770  2.3458
  307MOL0     H40484   6.803   0.899   9.385  3.1003 -1.2607 -0.0798
  307MOL0     H40485   6.715   1.001   9.487  0.6155 -1.6652  0.5356
  307MOL0     H40486   6.686   0.804   9.594 -1.1927 -5.9807 -1.2935
  307MOL0     H40487   6.672   0.645   9.760 -0.0256  0.7359 -0.7009
  307MOL0     H40488   7.162   0.414  10.125 -1.6934  0.9259 -3.2773
  307MOL0     H40489   7.154   0.291  10.333  1.6462  1.6087 -1.4491
  307MOL0     H40490   6.756   0.133  10.474 -2.1768  3.7216 -1.6947
  307MOL0     H40491   6.773   0.289  10.560  2.0889  0.7334 -0.8146
  307MOL0     H40492   6.905   0.042  10.658 -0.1372  1.2503 -1.0927
  307MOL0     H40493   6.748   0.110  10.716  0.2415  0.4697 -0.2916
  307MOL0     H40494   7.018   0.234  10.728  1.4898 -4.0005  2.9175
  307MOL0     H40495   6.921   0.177  10.872 -1.8886  0.0059 -0.0828
  307MOL0     H40496   6.742   0.354  10.809 -0.0789  0.6780  1.0385
  307MOL0     H40497   6.886   0.407  10.900  1.4210  0.4944 -1.7018
  307MOL0     H40498   6.849   0.576  10.778  0.0503 -0.3577  1.1193
  307MOL0     H40499   6.787   0.494  10.639  2.0320 -0.9593 -3.3549
  307MOL0     H40500   7.007   0.583  10.566  1.8122 -0.8083 -1.2262
  307MOL0     H40501   7.040   0.418  10.600  1.7028  0.5741 -1.3207
  307MOL0     H40502   7.103   0.645  10.792 -0.2444 -0.3874  0.8506
  307MOL0     H40503   7.097   0.484  10.852 -3.6215  2.0125  1.4616
  307MOL0     H40504   7.320   0.588  10.779  0.7471 -0.0098  0.7206
  307MOL0     H40505   7.250   0.547  10.609 -1.4347  0.2843  0.1646
  307MOL0     H40506   6.726   0.331  10.361 -1.1880  1.1364 -0.6361
  307MOL0     H40507   6.742   0.458  10.153 -0.4643  0.1020  1.1517
  307MOL0     H40508   7.081   0.708   9.876  1.1914 -1.1359 -2.5605
  307MOL0     H40509   7.090   0.888   9.709  0.0478 -0.0450  0.4994
  307MOL0     H40510   6.189   1.733   7.958 -0.9430  0.6157 -2.3758
  307MOL0     H40511   6.094   1.735   7.731 -0.1515  2.3260  1.3239
  307MOL0     H40512   5.767   1.690   7.456  4.3817  2.6355 -3.1255
  307MOL0     H40513   5.638   1.682   7.231 -1.3514 -1.0187  0.5708
  307MOL0     H40514   5.592   1.291   7.082 -3.1123  1.1423  1.9785
  307MOL0     H40515   5.694   1.335   6.941  2.0883 -3.0207  3.1950
  307MOL0     H40516   5.504   1.416   6.826  1.4337  2.0397  2.5062
  307MOL0     H40517   5.455   1.258   6.875 -3.3803  1.6730 -2.7098
  307MOL0     H40518   5.278   1.400   6.928  1.5159  3.2130 -1.7287
  307MOL0     H40519   5.376   1.525   6.993  0.9586  0.2770 -0.2608
  307MOL0     H40520   5.353   1.233   7.124  1.6555 -0.6848 -2.7220
  307MOL0     H40521   5.409   1.388   7.190 -0.3651  2.5050 -2.1927
  307MOL0     H40522   4.989   1.385   7.252 -0.6202 -0.4514 -0.5067
  307MOL0     H40523   5.788   1.273   7.198  2.9120 -0.3977  1.2629
  307MOL0     H40524   5.881   1.299   7.404 -0.8106 -0.4693  1.6638
  308MOL0     O40525   6.092   5.457   0.039  0.1454 -0.7223 -0.4844
  308MOL0     C40526   6.132   5.342   0.021  0.0378  0.4439 -0.8661
  308MOL0     O40527   6.050   5.238   0.041  0.2543  0.3037  0.4742
  308MOL0     C40528   5.924   5.244   0.101  0.3091 -1.1628 -1.2673
  308MOL0     C40529   5.838   5.361   0.113  0.3818  0.1560 -1.0311
  308MOL0     C40530   5.716   5.362   0.183  0.7851  0.3391  0.8400
  308MOL0     C40531   5.674   5.246   0.250  0.1812 -0.6716 -0.2505
  308MOL0     O40532   5.554   5.225   0.313  0.1447  0.1294  0.0111
  308MOL0     C40533   5.522   5.327   0.406  0.2091 -0.4904  0.9585
  308MOL0     C40534   5.381   5.390   0.392  0.8976  0.3250  0.4202
  308MOL0     C40535   5.278   5.272   0.442  0.6290  0.4948  0.7190
  308MOL0     C40536   5.137   5.326   0.432 -0.3553 -0.5054  0.1877
  308MOL0     C40537   5.046   5.239   0.520  0.9991 -0.9744 -0.1550
  308MOL0     C40538   4.894   5.255   0.519  0.2702 -0.0115 -0.5416
  308MOL0     C40539   4.837   5.159   0.620  0.4433 -0.3760 -1.0670
  308MOL0     C40540   4.687   5.135   0.594 -0.3921  0.3441  0.3609
  308MOL0     N40541   4.635   5.042   0.687  0.6531 -0.0252 -0.3358
  308MOL0     C40542   4.572   4.922   0.655 -0.4052  1.0449 -0.2525
  308MOL0     C40543   4.531   4.864   0.771  0.1360 -0.9889  0.8660
  308MOL0     C40544   4.452   4.747   0.798 -0.7908  0.3777 -0.4060
  308MOL0     C40545   4.304   4.773   0.777 -0.3478 -0.3986  0.9254
  308MOL0     C40546   4.234   4.641   0.793  0.7635  1.3686  0.5598
  308MOL0     C40547   4.083   4.641   0.767 -0.6328 -0.8018  0.1534
  308MOL0     O40548   4.041   4.724   0.649 -0.0614  0.5634  0.6626
  308MOL0     C40549   3.927   4.679   0.581 -0.3841  0.0630 -0.4305
  308MOL0     C40550   3.921   4.710   0.451 -0.0357  0.3730  0.0843
  308MOL0     C40551   3.824   4.655   0.363  0.2375 -0.0960  0.6577
  308MOL0     C40552   3.715   4.592   0.417  0.1498  0.3216  0.0079
  308MOL0     C40553   3.604   4.554   0.335 -0.3668 -1.0857 -0.0113
  308MOL0     O40554   3.495   4.506   0.396 -0.7877  0.4840 -1.1192
  308MOL0     C40555   3.370   4.515   0.340  0.1087 -0.6361 -0.3605
  308MOL0     C40556   3.284   4.408   0.345 -0.1973 -0.1353  0.1587
  308MOL0     C40557   3.158   4.416   0.296 -0.1303  1.0078  1.8266
  308MOL0     C40558   3.100   4.527   0.231 -0.7083  0.0081  0.7185
  308MOL0     O40559   2.967   4.519   0.212  0.2500  0.4937 -0.0611
  308MOL0     C40560   2.899   4.637   0.187 -0.6555  0.0715  0.6986
  308MOL0     C40561   2.757   4.602   0.153  0.9766  0.5130 -0.6403
  308MOL0     C40562   2.689   4.735   0.128 -0.4960 -0.1004 -0.3239
  308MOL0     C40563   2.534   4.708   0.147  1.0553  0.6486 -0.2666
  308MOL0     C40564   2.461   4.835   0.105  0.4449 -0.4629  0.4410
  308MOL0     C40565   2.315   4.825   0.141  0.7852  1.0152  0.2019
  308MOL0     C40566   2.233   4.943   0.087  0.3960  0.5705 -0.1589
  308MOL0     C40567   2.090   4.926   0.113 -0.2369  0.1781 -0.5711
  308MOL0    Cl40568   2.013   5.092   0.099  0.1839  0.0362  0.0444
  308MOL0     C40569   3.184   4.636   0.221 -0.3044  0.0960 -0.7257
  308MOL0     C40570   3.321   4.631   0.270  0.3576  0.4344  0.6357
  308MOL0     O40571   3.620   4.567   0.213  0.3779  0.2238 -0.7555
  308MOL0     C40572   3.711   4.581   0.561  0.3490 -0.1009 -0.2251
  308MOL0     C40573   3.818   4.615   0.648  0.0411 -0.4070  0.5989
  308MOL0     N40574   4.583   4.948   0.867 -0.5203  0.6310 -0.6269
  308MOL0     N40575   4.637   5.050   0.823 -0.7384 -0.7783 -0.5106
  308MOL0     C40576   5.751   5.135   0.236 -0.8353  1.4696  0.7335
  308MOL0     C40577   5.878   5.130   0.167 -0.6503 -0.4777 -0.6706
  308MOL0     C40578   6.270   5.316  -0.018 -0.1793  0.4405 -0.0490
  308MOL0     C40579   6.337   5.196   0.005 -1.3535 -0.4597 -0.0472
  308MOL0     C40580   6.472   5.176  -0.023  0.4961  0.2848 -0.5335
  308MOL0     C40581   6.547   5.285  -0.076  0.3849  0.3555 -0.3211
  308MOL0     O40582   6.675   5.261  -0.100 -1.2860  0.0106  0.5714
  308MOL0     C40583   6.741   5.338  -0.207 -0.2064  0.4616 -0.9985
  308MOL0     C40584   6.896   5.312  -0.188 -0.6612  0.1066 -0.0691
  308MOL0     C40585   6.987   5.400  -0.271 -0.4728 -0.1810 -0.4198
  308MOL0     C40586   6.955   5.396  -0.421 -0.7740 -0.2526  0.7631
  308MOL0     C40587   7.033   5.503  -0.491 -0.2280  0.2394  0.9343
  308MOL0     C40588   7.095   5.585  -0.551  0.3305 -0.0299  0.4113
  308MOL0     C40589   6.481   5.406  -0.086 -1.2018  0.8849 -1.7282
  308MOL0     C40590   6.348   5.423  -0.058 -1.0263 -0.1407 -0.3499
  308MOL0     H40591   5.868   5.446   0.051  2.1330 -0.3341 -0.8955
  308MOL0     H40592   5.650   5.449   0.176 -1.1546 -1.1151  0.2812
  308MOL0     H40593   5.583   5.417   0.392 -3.0888  1.6881 -0.6833
  308MOL0     H40594   5.533   5.274   0.501 -1.9967 -3.8417 -0.4729
  308MOL0     H40595   5.371   5.409   0.284 -1.0405 -1.6590  0.1812
  308MOL0     H40596   5.367   5.480   0.453 -2.1596 -1.4388  2.5900
  308MOL0     H40597   5.306   5.236   0.541  0.3710  0.6741  0.8551
  308MOL0     H40598   5.301   5.183   0.382  0.0923 -1.0492  2.7209
  308MOL0     H40599   5.143   5.425   0.477 -1.8976  0.2388 -1.1375
  308MOL0     H40600   5.094   5.337   0.332 -0.6903 -0.3659  0.3480
  308MOL0     H40601   5.079   5.239   0.625 -5.6881  3.7532  2.6224
  308MOL0     H40602   5.065   5.134   0.493 -0.9161 -2.1565  2.6412
  308MOL0     H40603   4.847   5.236   0.421  1.0684 -0.3297 -0.8747
  308MOL0     H40604   4.873   5.356   0.553 -1.6290  0.3580 -2.5403
  308MOL0     H40605   4.896   5.068   0.630  1.3392  0.4765  3.6191
  308MOL0     H40606   4.845   5.204   0.720  2.3005 -3.8093  0.5084
  308MOL0     H40607   4.679   5.092   0.494  1.3908 -0.2713  0.4416
  308MOL0     H40608   4.633   5.229   0.605  0.8290  0.9165  2.0228
  308MOL0     H40609   4.549   4.887   0.554 -0.1212 -0.5678  0.2038
  308MOL0     H40610   4.470   4.733   0.905  2.1251 -0.7755 -0.9531
  308MOL0     H40611   4.489   4.670   0.728 -1.1780  0.1189 -0.3310
  308MOL0     H40612   4.289   4.820   0.679 -1.6428  0.2570  1.4090
  308MOL0     H40613   4.273   4.854   0.843 -2.8650  0.9850 -1.7128
  308MOL0     H40614   4.279   4.569   0.723 -1.6364  0.5077 -0.1838
  308MOL0     H40615   4.249   4.585   0.886  2.8839  1.3696  0.2752
  308MOL0     H40616   4.019   4.670   0.851 -0.3022  4.5866 -1.1087
  308MOL0     H40617   4.059   4.535   0.752 -2.9696 -0.2691 -0.2128
  308MOL0     H40618   4.003   4.760   0.401 -1.0213  2.3700  0.3536
  308MOL0     H40619   3.839   4.666   0.256  1.3700  2.2739  0.9884
  308MOL0     H40620   3.306   4.320   0.405 -0.9153  0.1044  0.7917
  308MOL0     H40621   3.088   4.334   0.302 -1.0941  1.3468 -2.0929
  308MOL0     H40622   2.946   4.686   0.101 -1.8149  0.1090  0.0547
  308MOL0     H40623   2.896   4.701   0.275 -1.5634 -1.0267  1.4969
  308MOL0     H40624   2.717   4.547   0.240  0.7327 -0.4700 -1.3500
  308MOL0     H40625   2.740   4.545   0.061  0.9544 -1.3741  0.4743
  308MOL0     H40626   2.707   4.786   0.033  0.2793 -0.7870 -0.5564
  308MOL0     H40627   2.718   4.816   0.196  2.3392  0.0248 -1.5390
  308MOL0     H40628   2.495   4.619   0.098 -3.9878  2.3733  0.0473
  308MOL0     H40629   2.516   4.696   0.254 -6.1078  0.8111 -0.9821
  308MOL0     H40630   2.471   4.844  -0.003  3.9359  2.5026  0.7907
  308MOL0     H40631   2.495   4.929   0.151 -2.6800  1.0741 -0.1133
  308MOL0     H40632   2.304   4.822   0.250  0.1613 -1.8709  0.1460
  308MOL0     H40633   2.275   4.727   0.114  1.1052  0.8709  0.2458
  308MOL0     H40634   2.260   5.041   0.129 -0.1418  0.4877  0.3827
  308MOL0     H40635   2.262   4.958  -0.018  1.1007 -0.5816 -0.1427
  308MOL0     H40636   2.086   4.890   0.216  3.3608  0.6866 -0.1143
  308MOL0     H40637   2.040   4.857   0.043  0.0362  0.5138 -1.1071
  308MOL0     H40638   3.144   4.723   0.169 -2.2474 -0.8624 -0.9261
  308MOL0     H40639   3.386   4.718   0.278  0.7008  0.1088  1.5242
  308MOL0     H40640   3.621   4.533   0.596  1.4096 -0.1100  2.7276
  308MOL0     H40641   3.820   4.604   0.756 -0.0741  0.4694  0.6990
  308MOL0     H40642   5.724   5.040   0.282 -0.4597  0.8612 -0.2611
  308MOL0     H40643   5.937   5.039   0.174 -0.7182 -0.6141 -1.8175
  308MOL0     H40644   6.280   5.106   0.025 -3.5779  1.1359  1.2984
  308MOL0     H40645   6.503   5.072  -0.015  2.2153  0.6077 -2.2631
  308MOL0     H40646   6.731   5.446  -0.194  3.3325  0.6404  1.6790
  308MOL0     H40647   6.708   5.299  -0.304 -1.2504 -0.7354 -0.1902
  308MOL0     H40648   6.919   5.307  -0.081 -1.0902 -0.7291 -0.0105
  308MOL0     H40649   6.913   5.211  -0.226 -1.7672  0.4378 -1.5445
  308MOL0     H40650   7.094   5.378  -0.261 -0.8595 -1.5822  0.9954
  308MOL0     H40651   6.984   5.502  -0.231  2.1089 -0.1767 -0.0437
  308MOL0     H40652   6.981   5.307  -0.478 -0.2189  0.5445 -0.2558
  308MOL0     H40653   6.849   5.423  -0.426 -0.6557 -0.0452 -1.5864
  308MOL0     H40654   7.146   5.664  -0.601  2.1825 -0.9821  0.7029
  308MOL0     H40655   6.556   5.482  -0.108  1.9672 -1.8604 -1.1277
  308MOL0     H40656   6.312   5.525  -0.063 -1.3319 -0.2733 -0.9309
  309MOL0     O40657   8.807   3.150   5.822 -0.2930  0.3050 -0.2198
  309MOL0     C40658   8.913   3.207   5.834 -0.5839 -0.1180  0.0099
  309MOL0     O40659   9.029   3.174   5.772 -0.4485  0.2719  0.0213
  309MOL0     C40660   9.046   3.057   5.694 -0.8740 -1.0262  0.9283
  309MOL0     C40661   9.171   3.031   5.628 -0.8665 -0.3131  0.0789
  309MOL0     C40662   9.202   2.898   5.584  0.2122 -0.6871 -0.2897
  309MOL0     C40663   9.100   2.806   5.567  0.1517  0.2809  0.4440
  309MOL0     O40664   9.128   2.682   5.512 -0.3166  0.1856 -0.0485
  309MOL0     C40665   9.144   2.574   5.609  0.0539  0.8144 -0.4364
  309MOL0     C40666   9.136   2.437   5.542  0.0712  1.1542 -0.0094
  309MOL0     C40667   9.262   2.355   5.569 -0.0144 -1.3072  0.1011
  309MOL0     C40668   9.286   2.222   5.495 -0.0185  0.6382  0.3735
  309MOL0     C40669   9.422   2.161   5.539 -0.2293  0.1549 -0.0143
  309MOL0     C40670   9.443   2.026   5.485 -1.1811 -0.0599 -0.2765
  309MOL0     C40671   9.564   1.949   5.545  0.4060 -0.1753  0.5151
  309MOL0     C40672   9.708   1.980   5.479  0.3236 -0.6501  0.2859
  309MOL0     N40673   9.809   1.909   5.559  0.7968  0.9482 -0.3990
  309MOL0     C40674   9.846   1.937   5.690 -0.2379 -0.7238  0.2692
  309MOL0     C40675   9.926   1.833   5.722 -0.9036  0.3101 -0.7789
  309MOL0     C40676  10.002   1.844   5.848  0.0645 -0.0361  0.5296
  309MOL0     C40677   9.928   1.876   5.978 -0.2754 -0.4153 -0.2969
  309MOL0     C40678   9.874   1.751   6.053 -0.6253 -0.3212  0.6839
  309MOL0     C40679   9.786   1.780   6.174 -0.5426  0.9619  0.1490
  309MOL0     O40680   9.693   1.880   6.162  0.4019 -0.3076  1.4589
  309MOL0     C40681   9.640   1.935   6.280  0.0845 -0.4496 -0.0871
  309MOL0     C40682   9.548   2.035   6.261  0.4074  0.6128  0.3435
  309MOL0     C40683   9.484   2.105   6.367 -0.5881 -0.4205 -0.1933
  309MOL0     C40684   9.517   2.067   6.495  0.5865  0.6007 -0.5533
  309MOL0     C40685   9.469   2.147   6.610 -0.0178  0.1462 -0.6699
  309MOL0     O40686   9.490   2.094   6.735 -0.6089  0.0569 -0.3836
  309MOL0     C40687   9.449   2.160   6.845 -0.5467 -0.7654 -1.0791
  309MOL0     C40688   9.318   2.201   6.851 -0.0517  0.1359 -0.6613
  309MOL0     C40689   9.267   2.260   6.970  0.8973  0.1102  0.1081
  309MOL0     C40690   9.339   2.288   7.084 -0.5070 -0.3482  1.0928
  309MOL0     O40691   9.295   2.385   7.168 -0.1696  0.0802 -0.5653
  309MOL0     C40692   9.381   2.495   7.201  0.2783 -0.1904 -0.1294
  309MOL0     C40693   9.323   2.596   7.307  0.0798  0.1385 -0.1121
  309MOL0     C40694   9.301   2.532   7.442  0.0745 -0.4914 -0.2890
  309MOL0     C40695   9.211   2.623   7.529  0.0496  0.0388  0.0504
  309MOL0     C40696   9.207   2.579   7.678  0.4313  0.4164 -0.0954
  309MOL0     C40697   9.075   2.497   7.718 -0.1461  0.2292 -0.8390
  309MOL0     C40698   9.090   2.420   7.852 -0.5102  0.0469  0.1148
  309MOL0     C40699   8.961   2.398   7.916 -1.2253 -0.6054 -0.5908
  309MOL0    Cl40700   8.989   2.332   8.082  0.0301 -0.4472 -0.4766
  309MOL0     C40701   9.476   2.240   7.081  0.3012 -0.0857  0.7427
  309MOL0     C40702   9.529   2.186   6.959  0.3852  0.6710 -0.2590
  309MOL0     O40703   9.432   2.265   6.591  0.8755  0.5547  0.0301
  309MOL0     C40704   9.610   1.966   6.521  0.6573 -0.3629 -0.0710
  309MOL0     C40705   9.664   1.900   6.408 -0.8440  0.4437  0.6487
  309MOL0     N40706   9.930   1.740   5.624  0.8628  0.3175 -0.8475
  309MOL0     N40707   9.869   1.786   5.532  1.0053 -0.3198 -0.0903
  309MOL0     C40708   8.970   2.836   5.597  0.4400  0.3885  0.2788
  309MOL0     C40709   8.946   2.963   5.660 -0.8250  0.3961  0.8100
  309MOL0     C40710   8.915   3.337   5.921  0.9990  0.6070  0.6770
  309MOL0     C40711   8.793   3.413   5.934  0.0947  0.3486 -1.0640
  309MOL0     C40712   8.797   3.541   6.003 -0.3222  1.1568 -0.4307
  309MOL0     C40713   8.917   3.576   6.067 -0.3219 -1.4567  0.3586
  309MOL0     O40714   8.924   3.701   6.126 -0.1537  0.9188 -0.1513
  309MOL0     C40715   9.039   3.744   6.204  0.5301  0.3081  0.2246
  309MOL0     C40716   9.002   3.875   6.283  0.2057  0.5355  0.6769
  309MOL0     C40717   8.880   3.832   6.375 -0.6611 -0.0694 -0.0738
  309MOL0     C40718   8.818   3.945   6.453 -0.8346 -1.7162  0.2406
  309MOL0     C40719   8.910   4.002   6.551  0.5232 -0.1202 -0.4647
  309MOL0     C40720   8.975   4.047   6.643  1.0643 -0.0176  0.0998
  309MOL0     C40721   9.033   3.502   6.049 -0.2645 -0.2124  0.2946
  309MOL0     C40722   9.034   3.385   5.973  0.5867  0.2855  0.0804
  309MOL0     H40723   9.245   3.109   5.640 -0.3560 -0.7610 -0.1423
  309MOL0     H40724   9.297   2.867   5.542  2.3260 -0.4939  3.8309
  309MOL0     H40725   9.055   2.560   5.670  0.1036 -1.3657 -0.7943
  309MOL0     H40726   9.217   2.586   5.690  0.4769 -2.2819 -0.2364
  309MOL0     H40727   9.130   2.440   5.433  0.1988 -0.9004 -0.1088
  309MOL0     H40728   9.050   2.379   5.577 -0.6786  1.4372 -1.3302
  309MOL0     H40729   9.265   2.330   5.675  0.2596 -0.2290  0.3563
  309MOL0     H40730   9.346   2.423   5.551  0.9263 -2.0692  1.4976
  309MOL0     H40731   9.212   2.144   5.515  0.0391  0.7178  0.8993
  309MOL0     H40732   9.276   2.233   5.387  2.4861  1.1227  0.1098
  309MOL0     H40733   9.435   2.172   5.647 -2.4934 -2.8828  0.6882
  309MOL0     H40734   9.494   2.230   5.493  0.1982  0.6190  1.3008
  309MOL0     H40735   9.458   2.036   5.377  1.8661  0.6480  0.1452
  309MOL0     H40736   9.357   1.966   5.517  1.3812 -2.9051  1.7942
  309MOL0     H40737   9.576   1.964   5.653  2.1211  0.3340  0.2709
  309MOL0     H40738   9.537   1.845   5.526  0.7666 -0.1341 -0.2756
  309MOL0     H40739   9.729   2.086   5.464  2.8485 -1.2064 -0.5758
  309MOL0     H40740   9.702   1.938   5.378  0.5537 -2.0909  0.8461
  309MOL0     H40741   9.811   2.014   5.759 -1.1822 -0.5775 -0.3531
  309MOL0     H40742  10.080   1.921   5.837 -1.0773  0.9064 -1.4286
  309MOL0     H40743  10.051   1.749   5.867  1.3031 -0.0846 -2.3878
  309MOL0     H40744   9.845   1.944   5.958  0.7605  1.2578  0.8199
  309MOL0     H40745   9.985   1.945   6.041 -0.7699 -0.6294  0.3917
  309MOL0     H40746   9.815   1.692   5.982  3.3352  3.6294 -7.1387
  309MOL0     H40747   9.962   1.691   6.079  1.3205  0.9931 -2.3008
  309MOL0     H40748   9.855   1.807   6.254 -1.2473  0.8604  0.7971
  309MOL0     H40749   9.745   1.688   6.215  0.4697  1.4425  2.3878
  309MOL0     H40750   9.514   2.050   6.158 -2.5541 -0.8954  0.9707
  309MOL0     H40751   9.426   2.190   6.335  1.3633  0.6007 -1.2104
  309MOL0     H40752   9.259   2.202   6.760 -2.0467  3.0381  0.5022
  309MOL0     H40753   9.163   2.289   6.984  0.7986 -0.6080  0.9473
  309MOL0     H40754   9.396   2.554   7.110 -0.1095  1.1286  0.6184
  309MOL0     H40755   9.478   2.457   7.234  0.7004 -0.6669 -1.8349
  309MOL0     H40756   9.231   2.636   7.262  0.4444  1.9052  0.6582
  309MOL0     H40757   9.389   2.682   7.302 -1.1321  1.1869  1.1427
  309MOL0     H40758   9.400   2.516   7.484 -0.1138  2.7731  1.7520
  309MOL0     H40759   9.238   2.442   7.438 -2.5012  1.2413 -1.6144
  309MOL0     H40760   9.252   2.725   7.530 -0.1683  0.1489  1.9855
  309MOL0     H40761   9.111   2.642   7.488 -0.8744  2.4813  3.0251
  309MOL0     H40762   9.230   2.667   7.740 -0.9833 -0.5572  1.9125
  309MOL0     H40763   9.293   2.519   7.706  0.5669  1.2949  1.5022
  309MOL0     H40764   9.029   2.448   7.632 -1.2437  2.7851 -1.8224
  309MOL0     H40765   9.002   2.576   7.736 -1.0145 -0.7933  0.2559
  309MOL0     H40766   9.151   2.333   7.827 -1.4120 -0.3510 -0.7605
  309MOL0     H40767   9.139   2.493   7.917 -1.3655  0.4002  0.3674
  309MOL0     H40768   8.916   2.319   7.855 -1.1225 -1.6346  0.6066
  309MOL0     H40769   8.893   2.483   7.915  0.6115  1.0798 -4.4748
  309MOL0     H40770   9.549   2.261   7.159  2.6370  2.5450 -1.8585
  309MOL0     H40771   9.633   2.153   6.963  0.0120 -0.4343  1.2368
  309MOL0     H40772   9.642   1.919   6.613 -1.0531 -4.1622 -1.1886
  309MOL0     H40773   9.728   1.815   6.423  0.6475  1.0914 -1.5309
  309MOL0     H40774   8.889   2.773   5.562  0.4550  0.3996  0.2245
  309MOL0     H40775   8.841   2.990   5.661 -0.7056  0.8839  0.5249
  309MOL0     H40776   8.705   3.383   5.878  0.4618 -1.3015 -0.8094
  309MOL0     H40777   8.710   3.605   5.993  0.7893  2.4207 -2.7304
  309MOL0     H40778   9.117   3.766   6.131 -1.8410  2.7183 -1.8357
  309MOL0     H40779   9.070   3.663   6.270  0.7453  1.3961  1.5082
  309MOL0     H40780   9.091   3.900   6.341  0.7444  1.1340 -0.3796
  309MOL0     H40781   8.972   3.960   6.220 -0.8535 -0.1160  0.2726
  309MOL0     H40782   8.920   3.763   6.449  0.1353  0.0535 -0.3848
  309MOL0     H40783   8.805   3.774   6.321 -0.2969 -0.1926 -0.4456
  309MOL0     H40784   8.793   4.027   6.384 -0.9801  1.5865  3.9062
  309MOL0     H40785   8.724   3.905   6.493  0.9054 -4.6380  1.7500
  309MOL0     H40786   9.022   4.087   6.730  1.0570  0.8221 -0.2723
  309MOL0     H40787   9.132   3.518   6.090  0.6039  0.4858 -1.9136
  309MOL0     H40788   9.118   3.316   5.964 -0.0551 -1.1912  3.6639
  310MOL0     O40789   8.101   8.987  10.016 -0.1063 -0.1335  0.1649
  310MOL0     C40790   8.171   8.983  10.120 -0.3184 -0.6614 -0.0837
  310MOL0     O40791   8.135   8.930  10.244 -0.3856 -0.1547  0.1590
  310MOL0     C40792   8.008   8.892  10.260  0.5220  0.4207 -1.0140
  310MOL0     C40793   7.888   8.949  10.208  0.3185 -0.9104 -0.0648
  310MOL0     C40794   7.768   8.882  10.230  1.1743  1.1886  0.2025
  310MOL0     C40795   7.764   8.758  10.300  0.0320 -0.4152  0.5522
  310MOL0     O40796   7.654   8.682  10.306  0.2747 -0.3493 -0.0982
  310MOL0     C40797   7.543   8.747  10.372  1.2396 -0.1999  0.3281
  310MOL0     C40798   7.415   8.660  10.408  0.0013  0.3436 -0.0897
  310MOL0     C40799   7.284   8.716  10.340 -0.3332 -0.0867 -0.1737
  310MOL0     C40800   7.158   8.619  10.357 -0.8493 -0.2899 -0.0142
  310MOL0     C40801   7.025   8.667  10.279 -0.7045 -0.8243 -0.8458
  310MOL0     C40802   7.057   8.703  10.125  0.5067  0.9289  0.3864
  310MOL0     C40803   7.098   8.583  10.042 -0.4208 -0.2939  0.1648
  310MOL0     C40804   6.994   8.476  10.044  0.2722  0.2339 -0.7663
  310MOL0     N40805   7.036   8.358   9.962  0.3043 -1.2102  0.0878
  310MOL0     C40806   7.044   8.367   9.826  0.2586  0.8779  1.0460
  310MOL0     C40807   7.036   8.241   9.781 -0.3597  0.1866 -0.3603
  310MOL0     C40808   7.010   8.191   9.636  0.3390 -1.3005 -0.0591
  310MOL0     C40809   6.879   8.099   9.629 -0.1471 -0.3230  0.6092
  310MOL0     C40810   6.759   8.167   9.693  1.7225  0.0692  0.1068
  310MOL0     C40811   6.627   8.084   9.674 -0.7625  0.8739  0.4104
  310MOL0     O40812   6.514   8.146   9.738 -0.5328  0.1025  0.1366
  310MOL0     C40813   6.392   8.090   9.742  0.0358 -0.5774 -0.2552
  310MOL0     C40814   6.288   8.153   9.804 -0.4928 -0.5522  0.8288
  310MOL0     C40815   6.154   8.104   9.808 -0.5012  0.4791  0.6614
  310MOL0     C40816   6.119   7.982   9.766 -0.6822  0.2675 -0.8727
  310MOL0     C40817   5.992   7.917   9.797 -0.3858  0.9415 -1.3797
  310MOL0     O40818   5.978   7.787   9.757  0.2415  0.3438  0.8765
  310MOL0     C40819   5.864   7.713   9.771  0.1274  0.2623  0.3080
  310MOL0     C40820   5.884   7.579   9.731 -0.3108  0.5998 -0.4511
  310MOL0     C40821   5.781   7.491   9.710  0.2881 -0.1729  0.7878
  310MOL0     C40822   5.649   7.523   9.747 -0.4515  0.0208 -0.0453
  310MOL0     O40823   5.538   7.446   9.752 -0.6883  0.6475 -0.6213
  310MOL0     C40824   5.555   7.313   9.790  0.3881 -0.4342  0.0806
  310MOL0     C40825   5.460   7.282   9.904 -0.8738 -0.6094 -0.6402
  310MOL0     C40826   5.316   7.271   9.847  0.6750  1.1999  0.1571
  310MOL0     C40827   5.196   7.261   9.949  0.2109 -0.4616  1.0110
  310MOL0     C40828   5.065   7.208   9.896 -0.6167  0.0470 -0.5168
  310MOL0     C40829   4.995   7.316   9.823  0.0278  0.3693  0.5160
  310MOL0     C40830   4.840   7.310   9.805  0.0236  0.1364 -0.1007
  310MOL0     C40831   4.784   7.165   9.791 -0.1331  0.1605  0.4002
  310MOL0    Cl40832   4.607   7.166   9.758 -0.2100 -0.5068 -0.0849
  310MOL0     C40833   5.629   7.649   9.808 -0.3008  0.5880  0.4179
  310MOL0     C40834   5.736   7.744   9.814 -0.2206  1.1932 -0.2806
  310MOL0     O40835   5.915   7.972   9.867 -0.1034  0.1027 -0.7376
  310MOL0     C40836   6.222   7.911   9.695  0.3717  0.5083 -0.5156
  310MOL0     C40837   6.357   7.970   9.681  0.3990  0.9220 -0.3505
  310MOL0     N40838   7.023   8.153   9.891 -0.2869  0.1133 -0.0098
  310MOL0     N40839   7.018   8.228  10.000  0.0602 -0.6448  0.8036
  310MOL0     C40840   7.887   8.705  10.347  1.3949  0.2701 -0.8365
  310MOL0     C40841   8.008   8.780  10.338 -0.4887 -0.5767 -0.3220
  310MOL0     C40842   8.303   9.046  10.108  0.0252 -0.0423 -0.0047
  310MOL0     C40843   8.338   9.125  10.004  0.5386 -0.0877  0.9318
  310MOL0     C40844   8.469   9.176   9.981  0.0037  0.5536 -0.0988
  310MOL0     C40845   8.568   9.149  10.087  0.7114 -0.0552 -0.5964
  310MOL0     O40846   8.695   9.198  10.067  0.3256  0.8841 -0.1008
  310MOL0     C40847   8.797   9.178  10.161  1.2672  0.2378 -0.5985
  310MOL0     C40848   8.923   9.254  10.130 -0.0524  0.2722 -0.4540
  310MOL0     C40849   8.894   9.395  10.144 -0.2591  1.0112 -1.2618
  310MOL0     C40850   9.031   9.461  10.125  0.1999 -0.4988 -0.4200
  310MOL0     C40851   9.028   9.593  10.181 -0.3969 -1.0794  0.4310
  310MOL0     C40852   9.026   9.714  10.222 -0.5898  0.2791 -0.0549
  310MOL0     C40853   8.528   9.074  10.198  0.1159 -0.0374  0.5318
  310MOL0     C40854   8.398   9.028  10.211  0.4096 -0.5976  0.0294
  310MOL0     H40855   7.902   9.042  10.154  0.0113  0.7571  2.5393
  310MOL0     H40856   7.678   8.923  10.186 -0.5634 -1.1361  1.3864
  310MOL0     H40857   7.509   8.829  10.309 -0.7000 -0.3112  1.1479
  310MOL0     H40858   7.583   8.785  10.466  1.4883 -0.6666  0.4174
  310MOL0     H40859   7.398   8.661  10.516 -0.3618  1.2923 -0.1469
  310MOL0     H40860   7.436   8.558  10.377 -0.4549  0.5120 -0.9655
  310MOL0     H40861   7.301   8.719  10.232  1.0559 -3.4575 -0.1585
  310MOL0     H40862   7.240   8.806  10.384 -0.7196 -1.4326  2.3590
  310MOL0     H40863   7.184   8.533  10.296  0.0072  1.3674 -2.1268
  310MOL0     H40864   7.139   8.595  10.462 -1.8451 -0.3366 -0.1898
  310MOL0     H40865   6.990   8.757  10.331  3.5091  0.9269 -0.6011
  310MOL0     H40866   6.950   8.590  10.300 -1.2299  0.3201  1.9589
  310MOL0     H40867   7.134   8.780  10.117  1.5884 -0.1924 -0.3965
  310MOL0     H40868   6.966   8.743  10.078  0.6273  0.1742 -0.5353
  310MOL0     H40869   7.111   8.625   9.942 -2.3126 -1.9565 -0.8668
  310MOL0     H40870   7.194   8.539  10.073 -1.7638 -2.3799  1.6135
  310MOL0     H40871   6.899   8.514  10.005  0.2500  1.9778  0.8335
  310MOL0     H40872   6.995   8.432  10.144 -1.0583 -1.3533 -1.4080
  310MOL0     H40873   7.032   8.458   9.768  2.8378  1.8553  1.8924
  310MOL0     H40874   7.094   8.139   9.588  2.1613  3.1991 -2.3684
  310MOL0     H40875   6.992   8.278   9.572 -0.0385 -0.5418  1.0582
  310MOL0     H40876   6.904   8.004   9.677 -4.4395 -3.5021 -2.6878
  310MOL0     H40877   6.851   8.076   9.526 -1.1679  1.8290  0.3349
  310MOL0     H40878   6.782   8.194   9.796  1.1942  1.0816 -0.0324
  310MOL0     H40879   6.735   8.256   9.635 -2.1404 -0.8641  0.0036
  310MOL0     H40880   6.638   7.984   9.718 -3.0229  0.3293 -0.1105
  310MOL0     H40881   6.603   8.072   9.568 -0.9051 -1.8249  0.6792
  310MOL0     H40882   6.312   8.257   9.826 -0.7659 -0.1081 -0.8046
  310MOL0     H40883   6.080   8.168   9.854 -0.0849  0.3215  1.5677
  310MOL0     H40884   5.987   7.548   9.716  0.5037  2.4061  0.9918
  310MOL0     H40885   5.819   7.393   9.682  0.2907  0.2074 -0.6571
  310MOL0     H40886   5.658   7.289   9.819  1.1588  0.7840 -1.4872
  310MOL0     H40887   5.543   7.259   9.696 -0.2686  0.2430 -0.2294
  310MOL0     H40888   5.467   7.356   9.984 -0.6011  0.6406 -1.7784
  310MOL0     H40889   5.498   7.187   9.940 -0.9200 -0.8161 -1.1290
  310MOL0     H40890   5.326   7.186   9.779  4.9052  2.2693 -0.8868
  310MOL0     H40891   5.299   7.356   9.781 -1.0127  0.0092 -1.0132
  310MOL0     H40892   5.226   7.192  10.029 -1.2459 -0.1883  1.8402
  310MOL0     H40893   5.187   7.357  10.002 -0.2347  0.2369 -0.2771
  310MOL0     H40894   4.997   7.186   9.978 -0.2928  0.6325 -0.0863
  310MOL0     H40895   5.092   7.122   9.835  0.4090  0.0874 -0.1309
  310MOL0     H40896   5.033   7.322   9.720  3.4609 -1.8117  1.4926
  310MOL0     H40897   5.024   7.413   9.865  0.8372  0.4976 -0.2960
  310MOL0     H40898   4.783   7.346   9.891 -3.5315 -0.5792 -1.9567
  310MOL0     H40899   4.823   7.381   9.724 -0.7117  0.1899  0.0960
  310MOL0     H40900   4.795   7.116   9.888 -3.4920 -1.1337  0.2696
  310MOL0     H40901   4.837   7.099   9.721 -1.9794  0.3088 -1.2402
  310MOL0     H40902   5.524   7.663   9.832 -0.5809  0.3196 -0.5589
  310MOL0     H40903   5.710   7.843   9.850  0.5468  1.0008  0.8664
  310MOL0     H40904   6.197   7.812   9.659  0.4554  0.5608 -0.7166
  310MOL0     H40905   6.432   7.911   9.630  1.3335 -0.9170  2.8705
  310MOL0     H40906   7.869   8.614  10.404 -0.9656 -0.2699 -2.2780
  310MOL0     H40907   8.093   8.751  10.398 -0.6826  0.1838  0.3293
  310MOL0     H40908   8.257   9.134   9.933 -0.2474  2.7928  2.0472
  310MOL0     H40909   8.494   9.221   9.886  0.5121 -0.2654 -0.3644
  310MOL0     H40910   8.818   9.071  10.168 -4.6346 -1.1507  4.4810
  310MOL0     H40911   8.755   9.198  10.260  1.1596 -2.6725  0.0430
  310MOL0     H40912   9.008   9.221  10.191  1.2710  1.3564 -1.6420
  310MOL0     H40913   8.950   9.235  10.025  0.2313 -0.0330 -0.3281
  310MOL0     H40914   8.856   9.411  10.245 -1.1126  0.5788 -1.5070
  310MOL0     H40915   8.820   9.428  10.069 -1.9243 -1.6647 -0.9083
  310MOL0     H40916   9.116   9.413  10.174  0.3641 -1.5840 -1.6947
  310MOL0     H40917   9.054   9.471  10.019 -2.0575  1.3230 -0.8111
  310MOL0     H40918   9.035   9.812  10.264  0.7626 -0.5176  1.6780
  310MOL0     H40919   8.597   9.040  10.274  0.9206 -0.6343 -0.4342
  310MOL0     H40920   8.376   8.982  10.307  0.2434  0.8058  0.6902
  311MOL0     O40921   2.523   1.100   7.522  0.7724  0.5182  0.6308
  311MOL0     C40922   2.532   1.214   7.488  0.1983  0.0450 -0.6255
  311MOL0     O40923   2.614   1.258   7.392 -0.1542  0.4379  0.2746
  311MOL0     C40924   2.708   1.170   7.336  0.6780  0.2193  0.6394
  311MOL0     C40925   2.792   1.101   7.420 -0.4904 -0.2111  0.9272
  311MOL0     C40926   2.891   1.017   7.366 -1.1760  1.2373 -0.2634
  311MOL0     C40927   2.901   1.001   7.223  1.6123  0.1119  0.3475
  311MOL0     O40928   3.006   0.926   7.171  0.5461 -0.8056 -0.6778
  311MOL0     C40929   3.064   0.952   7.042  0.0770 -0.6323  1.1676
  311MOL0     C40930   3.219   0.932   7.031 -0.6241 -0.6112  0.5215
  311MOL0     C40931   3.262   0.957   6.893  0.3656 -0.1799  0.0244
  311MOL0     C40932   3.399   1.026   6.892 -0.8928 -0.9150 -0.0058
  311MOL0     C40933   3.518   0.942   6.952 -0.1441 -0.4488  0.5135
  311MOL0     C40934   3.646   1.024   6.958  0.2674 -0.6794  1.2784
  311MOL0     C40935   3.753   0.907   6.963 -0.7077 -0.7332  0.0829
  311MOL0     C40936   3.901   0.958   6.960 -0.2764 -0.5539 -1.3123
  311MOL0     N40937   3.950   1.002   7.094 -0.2638  0.2118  0.2000
  311MOL0     C40938   4.012   0.911   7.177 -0.1183  1.4324  0.3462
  311MOL0     C40939   4.021   0.976   7.292  0.2597 -0.3643 -0.9753
  311MOL0     C40940   4.079   0.931   7.428  0.8695  0.4004 -0.0634
  311MOL0     C40941   4.201   1.028   7.471  0.2104  0.0967  0.2972
  311MOL0     C40942   4.264   0.996   7.614  0.7017 -0.3760 -0.7710
  311MOL0     C40943   4.178   1.024   7.741  0.1162  0.4702 -0.1090
  311MOL0     O40944   4.221   0.917   7.825  0.1152  0.2211 -0.8723
  311MOL0     C40945   4.136   0.916   7.936 -0.3888  0.6678  0.1746
  311MOL0     C40946   4.094   0.793   7.976 -0.0200 -0.1779 -0.8494
  311MOL0     C40947   3.998   0.766   8.075 -0.4384 -0.1195  0.2530
  311MOL0     C40948   3.938   0.870   8.146 -0.0809  0.1895 -0.1455
  311MOL0     C40949   3.839   0.839   8.253 -0.9066 -0.4514  0.6774
  311MOL0     O40950   3.785   0.720   8.257  0.6783 -0.2943 -0.1715
  311MOL0     C40951   3.699   0.691   8.360  0.5374  0.2922  0.2780
  311MOL0     C40952   3.730   0.728   8.489  0.2513  0.1348 -0.0421
  311MOL0     C40953   3.646   0.695   8.593 -0.4455  0.3158  0.0715
  311MOL0     C40954   3.525   0.621   8.566 -0.3396  0.6363 -1.3535
  311MOL0     O40955   3.444   0.555   8.661 -0.4481 -0.2008 -0.0931
  311MOL0     C40956   3.491   0.544   8.792 -0.2471 -0.3317 -0.3591
  311MOL0     C40957   3.365   0.532   8.884 -0.4130  0.1291 -0.6908
  311MOL0     C40958   3.298   0.669   8.912 -0.2563  0.1553 -0.4266
  311MOL0     C40959   3.171   0.649   8.987  0.2004 -0.2504  0.3006
  311MOL0     C40960   3.203   0.619   9.134  0.6219  0.1368  0.4928
  311MOL0     C40961   3.080   0.566   9.215  0.0724  0.3171  0.2261
  311MOL0     C40962   3.043   0.414   9.191 -0.1498  0.4574 -0.4250
  311MOL0     C40963   2.913   0.382   9.275 -0.3071 -0.2426  1.2055
  311MOL0    Cl40964   2.884   0.205   9.290  0.3194 -0.2515  0.2453
  311MOL0     C40965   3.495   0.583   8.435  0.3790  0.3216 -0.7739
  311MOL0     C40966   3.578   0.615   8.331 -1.9047 -0.9907  0.0958
  311MOL0     O40967   3.810   0.935   8.323  0.7769  0.7767  0.3988
  311MOL0     C40968   3.963   0.998   8.102  0.2744 -0.1260  0.4925
  311MOL0     C40969   4.057   1.021   8.001  0.5465 -1.3281 -0.1894
  311MOL0     N40970   3.961   1.105   7.277 -0.2497  0.5199 -0.0547
  311MOL0     N40971   3.926   1.117   7.154  0.0552  0.9185  0.9578
  311MOL0     C40972   2.810   1.074   7.137 -0.1235  0.6321 -0.1789
  311MOL0     C40973   2.707   1.158   7.189  1.1006  0.5891 -0.2655
  311MOL0     C40974   2.458   1.325   7.562  0.7882 -0.2117  0.9797
  311MOL0     C40975   2.381   1.289   7.671  0.7803  0.2242  0.5556
  311MOL0     C40976   2.288   1.381   7.731  0.0504  1.1087  0.4063
  311MOL0     C40977   2.283   1.517   7.693  0.3280  0.2827  0.3585
  311MOL0     O40978   2.197   1.610   7.761 -0.5219  0.3485 -0.3095
  311MOL0     C40979   2.102   1.544   7.856 -0.6598 -0.5285  0.8699
  311MOL0     C40980   2.008   1.656   7.888 -0.9016 -0.7534  0.7517
  311MOL0     C40981   1.917   1.683   7.767 -0.7087  0.4840 -0.6108
  311MOL0     C40982   1.822   1.795   7.776  0.9207 -0.8436  0.3840
  311MOL0     C40983   1.690   1.740   7.802  0.3225  0.9693 -0.0431
  311MOL0     C40984   1.585   1.680   7.810  0.7535  0.3258  0.3709
  311MOL0     C40985   2.362   1.551   7.580 -0.4747  0.3550  0.7164
  311MOL0     C40986   2.445   1.451   7.518  0.5518 -1.2220  0.2655
  311MOL0     H40987   2.800   1.134   7.523 -1.8615  2.6747  0.2179
  311MOL0     H40988   2.971   0.985   7.433  0.6848  2.2418 -1.9005
  311MOL0     H40989   3.043   1.055   7.011 -0.5054 -1.5693 -1.8885
  311MOL0     H40990   3.013   0.889   6.969 -0.2814  1.0601 -0.1110
  311MOL0     H40991   3.238   0.831   7.067 -1.7313 -2.1351 -2.7510
  311MOL0     H40992   3.268   1.002   7.099 -0.6401  0.6350 -0.7095
  311MOL0     H40993   3.200   1.039   6.854  0.0013 -0.7636 -0.6470
  311MOL0     H40994   3.263   0.875   6.821 -1.3484 -0.2094 -0.0060
  311MOL0     H40995   3.426   1.061   6.792  2.6066  1.3634  1.5118
  311MOL0     H40996   3.392   1.118   6.952 -3.9383  0.7650 -2.6673
  311MOL0     H40997   3.542   0.852   6.894 -2.2770  0.4312 -1.8963
  311MOL0     H40998   3.485   0.913   7.052  2.6002 -0.4260  1.5343
  311MOL0     H40999   3.663   1.097   7.037  3.9513 -0.2493  0.2683
  311MOL0     H41000   3.661   1.075   6.862 -1.2325 -3.6515 -0.7010
  311MOL0     H41001   3.745   0.838   7.047 -3.0163 -0.9151 -0.2457
  311MOL0     H41002   3.755   0.858   6.865  3.3365 -1.3842  0.3005
  311MOL0     H41003   3.917   1.032   6.881  2.0690 -0.1330 -0.5225
  311MOL0     H41004   3.969   0.875   6.938  2.5835  0.9296  1.2659
  311MOL0     H41005   4.036   0.808   7.153  0.3939  1.4040  0.9400
  311MOL0     H41006   4.112   0.827   7.421 -1.2464 -0.2640 -1.0433
  311MOL0     H41007   4.000   0.939   7.503 -0.9400  2.9152 -2.0673
  311MOL0     H41008   4.148   1.123   7.482 -0.2131 -0.0931 -0.0481
  311MOL0     H41009   4.267   1.036   7.384  2.3113 -1.2302  1.6897
  311MOL0     H41010   4.286   0.889   7.605  4.3079  0.2771 -1.3131
  311MOL0     H41011   4.361   1.045   7.629 -1.1099  2.9176  1.2402
  311MOL0     H41012   4.070   1.012   7.731  0.3798 -3.2704 -0.1237
  311MOL0     H41013   4.194   1.111   7.805 -3.3339 -1.0509  3.1904
  311MOL0     H41014   4.130   0.703   7.928  0.7567 -0.4135  0.1616
  311MOL0     H41015   3.976   0.663   8.100  0.7309 -0.2689  0.7516
  311MOL0     H41016   3.818   0.784   8.521 -1.1367  1.3804  1.9052
  311MOL0     H41017   3.679   0.725   8.691 -2.0036  1.8503  0.1665
  311MOL0     H41018   3.545   0.635   8.822  0.5171 -1.1294  0.7687
  311MOL0     H41019   3.554   0.457   8.810 -4.0143 -3.4172 -0.8929
  311MOL0     H41020   3.388   0.472   8.973 -0.3418  1.4903  0.2348
  311MOL0     H41021   3.296   0.473   8.822  0.5621 -0.4997 -1.1944
  311MOL0     H41022   3.272   0.722   8.819 -0.4873  1.9731  0.6198
  311MOL0     H41023   3.368   0.723   8.976  0.0274  0.8349 -1.2784
  311MOL0     H41024   3.121   0.746   8.979  4.7504  2.3719  0.4673
  311MOL0     H41025   3.114   0.567   8.941 -0.0361 -0.1548  0.4226
  311MOL0     H41026   3.234   0.714   9.177  0.6006 -1.4299  4.3246
  311MOL0     H41027   3.284   0.545   9.133  3.1507  2.6823 -2.1176
  311MOL0     H41028   2.993   0.627   9.191 -1.8477 -2.1600  0.4414
  311MOL0     H41029   3.094   0.598   9.319 -1.2099  3.9308 -0.5848
  311MOL0     H41030   3.013   0.390   9.088 -2.4070 -0.5390  0.4055
  311MOL0     H41031   3.132   0.355   9.214 -0.8032 -1.0965 -1.6735
  311MOL0     H41032   2.836   0.449   9.238  2.5511  0.7996 -3.7933
  311MOL0     H41033   2.944   0.432   9.367  3.7198  1.9727 -1.0719
  311MOL0     H41034   3.419   0.507   8.417  1.1402 -1.4718  2.8102
  311MOL0     H41035   3.551   0.593   8.228 -0.7252 -2.0952 -0.0166
  311MOL0     H41036   3.921   1.085   8.151 -2.2712  0.9163 -3.1516
  311MOL0     H41037   4.058   1.122   7.961 -2.5987 -0.5110  1.5018
  311MOL0     H41038   2.813   1.057   7.030  2.8109  1.1827 -0.2603
  311MOL0     H41039   2.630   1.197   7.124 -1.3319 -2.2134  0.7219
  311MOL0     H41040   2.375   1.182   7.693  0.3198 -0.5664 -2.8342
  311MOL0     H41041   2.228   1.341   7.812 -1.4351  1.6415 -0.3759
  311MOL0     H41042   2.139   1.508   7.952  0.5119 -2.0774 -0.1147
  311MOL0     H41043   2.039   1.468   7.809 -0.9606 -0.4011  1.0642
  311MOL0     H41044   1.948   1.626   7.975  1.9195  0.5711  3.3348
  311MOL0     H41045   2.059   1.746   7.924 -2.2445 -0.5398  2.2271
  311MOL0     H41046   1.866   1.590   7.741 -1.1347  1.7924 -5.4806
  311MOL0     H41047   1.986   1.700   7.685  2.3532 -1.7677  1.2933
  311MOL0     H41048   1.840   1.874   7.849 -1.2678 -1.5179  1.7660
  311MOL0     H41049   1.814   1.837   7.675  3.1280 -0.4828  0.3191
  311MOL0     H41050   1.516   1.600   7.830  2.0066 -0.8226  0.2809
  311MOL0     H41051   2.358   1.656   7.555  4.0608  1.0256  1.8985
  311MOL0     H41052   2.516   1.485   7.443  0.4552  0.2575  0.8025
  312MOL0     O41053   5.497   2.078   0.013  0.3522  0.2471  0.6813
  312MOL0     C41054   5.514   2.176   0.087 -0.2499 -0.3812  0.6735
  312MOL0     O41055   5.635   2.208   0.149 -0.2815  0.4507 -0.3510
  312MOL0     C41056   5.749   2.127   0.138  0.8620 -0.2639  0.1082
  312MOL0     C41057   5.791   2.069   0.018  0.0216  0.1611  0.2951
  312MOL0     C41058   5.904   1.981   0.032 -0.2279 -0.2193 -0.0243
  312MOL0     C41059   5.974   1.962   0.152  0.3532  0.0250  0.0461
  312MOL0     O41060   6.096   1.897   0.148 -0.2400 -0.1706 -0.4444
  312MOL0     C41061   6.202   1.962   0.228  1.2129  0.7367  0.3864
  312MOL0     C41062   6.331   1.887   0.187 -0.8404  0.6612  0.3017
  312MOL0     C41063   6.389   1.925   0.050  0.6975  0.3649 -0.0600
  312MOL0     C41064   6.418   2.074   0.031 -0.3897 -0.0358 -0.0948
  312MOL0     C41065   6.574   2.093   0.031  0.6370 -0.4972  0.4641
  312MOL0     C41066   6.615   2.238  -0.018 -0.2872  0.3433  0.0930
  312MOL0     C41067   6.582   2.350   0.089 -1.3013  0.4017 -0.0876
  312MOL0     C41068   6.553   2.490   0.043 -0.0680 -0.6462  0.1254
  312MOL0     N41069   6.646   2.555  -0.046 -0.4331  0.1351 -0.5025
  312MOL0     C41070   6.667   2.525  -0.185 -1.0845 -0.0842  0.0803
  312MOL0     C41071   6.765   2.615  -0.223  0.4293 -0.1080  0.8598
  312MOL0     C41072   6.832   2.637  -0.352 -0.8144 -1.1068 -0.1125
  312MOL0     C41073   6.754   2.670  -0.477 -0.2951  0.2420  0.6902
  312MOL0     C41074   6.631   2.754  -0.460  0.9617 -0.0943  0.3295
  312MOL0     C41075   6.671   2.900  -0.417 -0.3613 -0.2954  0.0345
  312MOL0     O41076   6.754   2.967  -0.507 -0.5665 -0.0381 -0.8583
  312MOL0     C41077   6.844   3.064  -0.462 -0.4065 -0.9491 -0.2985
  312MOL0     C41078   6.920   3.120  -0.558 -0.7097 -0.6622  0.4613
  312MOL0     C41079   7.020   3.224  -0.538 -0.4456 -0.2809  0.0856
  312MOL0     C41080   7.033   3.268  -0.409  1.2000 -1.4221 -0.7641
  312MOL0     C41081   7.121   3.391  -0.380  0.1545 -0.5283  0.9095
  312MOL0     O41082   7.135   3.423  -0.252  0.6425 -1.1384 -0.2473
  312MOL0     C41083   7.223   3.515  -0.203 -0.0736  0.3439 -1.2719
  312MOL0     C41084   7.327   3.579  -0.267  0.5259  0.1539 -0.0735
  312MOL0     C41085   7.421   3.660  -0.198 -0.1077 -0.4244 -0.5900
  312MOL0     C41086   7.404   3.694  -0.061  1.6227 -0.4805 -0.1891
  312MOL0     O41087   7.491   3.772   0.016 -0.8299 -1.1143 -0.9147
  312MOL0     C41088   7.435   3.856   0.122 -0.2270 -0.3512 -0.4538
  312MOL0     C41089   7.541   3.934   0.202 -0.0231 -0.1627  0.4688
  312MOL0     C41090   7.484   3.955   0.342 -0.6989 -0.5587 -0.0935
  312MOL0     C41091   7.566   4.073   0.411 -0.1838 -0.5061  0.8295
  312MOL0     C41092   7.520   4.127   0.550  0.8781 -0.0208 -0.4758
  312MOL0     C41093   7.560   4.270   0.594 -0.4653  0.0428  1.2437
  312MOL0     C41094   7.476   4.324   0.709  0.1870 -0.2477 -1.1095
  312MOL0     C41095   7.554   4.439   0.769 -0.5530  0.3260 -0.4666
  312MOL0    Cl41096   7.709   4.407   0.849  0.2472  0.0823  0.5084
  312MOL0     C41097   7.295   3.635  -0.002  0.7384  1.1894  0.3885
  312MOL0     C41098   7.209   3.548  -0.066  0.2743  0.2808 -0.8284
  312MOL0     O41099   7.166   3.464  -0.472  0.4310  0.6974 -0.4021
  312MOL0     C41100   6.958   3.211  -0.304  0.9892  0.9160  0.8145
  312MOL0     C41101   6.859   3.115  -0.332 -0.4162 -0.0039 -0.1092
  312MOL0     N41102   6.789   2.705  -0.119  0.0786  0.0178  0.0245
  312MOL0     N41103   6.731   2.658  -0.017 -0.3119  0.1464  0.1936
  312MOL0     C41104   5.927   2.026   0.265 -0.3822  0.6338  1.6980
  312MOL0     C41105   5.805   2.099   0.257 -0.1413  0.1445 -0.5277
  312MOL0     C41106   5.393   2.264   0.107 -0.2747 -0.3369 -0.1928
  312MOL0     C41107   5.422   2.382   0.180  0.5043  0.5381  0.6243
  312MOL0     C41108   5.317   2.468   0.205 -1.1149 -0.1544 -0.5974
  312MOL0     C41109   5.184   2.430   0.170  0.6340  0.3329 -0.6158
  312MOL0     O41110   5.081   2.507   0.211  0.0997  0.3780 -0.8223
  312MOL0     C41111   5.095   2.603   0.314 -0.3891 -0.2591 -0.1875
  312MOL0     C41112   4.967   2.686   0.342 -0.0514  0.8801 -0.0444
  312MOL0     C41113   4.999   2.768   0.475  0.2822  0.0739 -0.0164
  312MOL0     C41114   4.896   2.865   0.524  0.1728  0.2799 -0.1198
  312MOL0     C41115   4.775   2.789   0.572 -0.3943  0.3349  0.0647
  312MOL0     C41116   4.696   2.719   0.626  0.0647 -0.6675 -0.8045
  312MOL0     C41117   5.160   2.314   0.092  0.2626 -0.4175 -1.4166
  312MOL0     C41118   5.269   2.231   0.066 -0.4795 -0.9022  0.6430
  312MOL0     H41119   5.750   2.076  -0.082  3.0004  0.4677 -1.0058
  312MOL0     H41120   5.951   1.915  -0.040  0.2153 -0.0606  0.1193
  312MOL0     H41121   6.192   1.943   0.336 -0.0901  1.9564  0.5150
  312MOL0     H41122   6.214   2.069   0.211  1.1916  0.4591 -1.5276
  312MOL0     H41123   6.300   1.782   0.178  0.7673  0.2196 -0.5829
  312MOL0     H41124   6.400   1.902   0.271 -0.6673 -2.3920  0.8170
  312MOL0     H41125   6.320   1.894  -0.029 -1.7958  2.8588  0.9468
  312MOL0     H41126   6.484   1.872   0.039  0.9446  0.9505 -0.8758
  312MOL0     H41127   6.378   2.124  -0.057  0.1545  1.0826  0.2790
  312MOL0     H41128   6.379   2.128   0.118 -2.4016 -1.4399 -0.0517
  312MOL0     H41129   6.599   2.032  -0.057 -1.1329 -1.4753  0.5808
  312MOL0     H41130   6.629   2.064   0.121  0.0784  1.2380  1.4012
  312MOL0     H41131   6.558   2.250  -0.110  2.1410 -0.6901 -1.6525
  312MOL0     H41132   6.723   2.244  -0.035  0.1470 -2.6098  1.2340
  312MOL0     H41133   6.504   2.324   0.162 -1.5272 -0.1988 -0.5386
  312MOL0     H41134   6.678   2.372   0.136 -1.2681  1.2476 -0.5303
  312MOL0     H41135   6.556   2.550   0.135  0.2113 -3.6270  2.1890
  312MOL0     H41136   6.457   2.491  -0.010  0.9845  0.9041 -1.9097
  312MOL0     H41137   6.614   2.454  -0.247 -0.4043  0.5297 -1.2495
  312MOL0     H41138   6.883   2.543  -0.378  0.2553 -0.0055 -2.2971
  312MOL0     H41139   6.898   2.723  -0.336 -1.0654 -1.3878  2.9813
  312MOL0     H41140   6.709   2.575  -0.508 -1.4659  1.1045 -0.3631
  312MOL0     H41141   6.828   2.700  -0.552  2.9241 -0.3230  3.3832
  312MOL0     H41142   6.576   2.762  -0.554  0.3509  1.7033  0.7973
  312MOL0     H41143   6.561   2.708  -0.389  0.1141 -0.3080 -0.6224
  312MOL0     H41144   6.720   2.892  -0.319  1.6174  0.0777 -0.8733
  312MOL0     H41145   6.581   2.957  -0.393 -2.1979 -2.0238 -2.2407
  312MOL0     H41146   6.890   3.083  -0.656 -0.7861 -1.2309  0.6941
  312MOL0     H41147   7.088   3.259  -0.615 -0.2319 -0.6882  0.0883
  312MOL0     H41148   7.352   3.555  -0.370 -0.3204  0.8196 -0.4515
  312MOL0     H41149   7.502   3.690  -0.263 -1.5060  0.8780 -1.8262
  312MOL0     H41150   7.373   3.813   0.200  1.8417  1.6259  2.4948
  312MOL0     H41151   7.366   3.928   0.079  1.5996  3.9130  2.9928
  312MOL0     H41152   7.550   4.028   0.146  1.2651  0.1716  1.2045
  312MOL0     H41153   7.640   3.889   0.186  1.9837  3.1612  2.4795
  312MOL0     H41154   7.502   3.860   0.393  0.8486  0.5747  1.6289
  312MOL0     H41155   7.377   3.973   0.342 -0.9077 -1.6134 -1.8357
  312MOL0     H41156   7.674   4.051   0.417  0.5109  2.7250  2.0578
  312MOL0     H41157   7.570   4.161   0.348  2.0737 -1.6575 -0.8049
  312MOL0     H41158   7.540   4.062   0.636  4.1910 -3.2306 -3.3270
  312MOL0     H41159   7.411   4.134   0.542  0.6380 -1.4071  1.1335
  312MOL0     H41160   7.554   4.342   0.512 -1.9026 -1.2836  0.1344
  312MOL0     H41161   7.667   4.269   0.619 -0.7117 -0.8432  2.3462
  312MOL0     H41162   7.371   4.348   0.690 -0.7280 -2.1066  1.1634
  312MOL0     H41163   7.463   4.244   0.782  0.5447  0.4576 -0.2552
  312MOL0     H41164   7.481   4.459   0.849  0.4666  1.0466  0.3091
  312MOL0     H41165   7.561   4.528   0.706  3.1509 -0.0599 -0.7731
  312MOL0     H41166   7.293   3.643   0.106  2.3472  2.5900  0.3544
  312MOL0     H41167   7.132   3.497  -0.009 -0.5140  1.2277 -1.0220
  312MOL0     H41168   6.982   3.249  -0.205  2.2406 -0.1462  0.9510
  312MOL0     H41169   6.797   3.080  -0.250  3.3696 -0.5801  2.8001
  312MOL0     H41170   5.954   2.018   0.369 -0.4037  0.3784  1.6842
  312MOL0     H41171   5.775   2.140   0.352  2.3163 -1.3167  0.9897
  312MOL0     H41172   5.516   2.419   0.219 -1.5777  2.7442  4.1446
  312MOL0     H41173   5.340   2.564   0.251 -3.0595 -0.9167  2.2328
  312MOL0     H41174   5.175   2.676   0.296 -1.2012  0.5701 -0.4941
  312MOL0     H41175   5.123   2.551   0.406  1.6031  1.0463  0.0022
  312MOL0     H41176   4.937   2.740   0.252 -0.6271 -1.8874 -1.6272
  312MOL0     H41177   4.883   2.618   0.359 -0.8418  1.7664 -0.3444
  312MOL0     H41178   5.078   2.837   0.444 -0.6521  1.2861  0.2183
  312MOL0     H41179   5.015   2.703   0.562  0.7464 -0.6439 -0.6312
  312MOL0     H41180   4.949   2.917   0.604  3.5287 -3.2433  0.2101
  312MOL0     H41181   4.871   2.936   0.444  2.4504  1.8690  0.5124
  312MOL0     H41182   4.625   2.673   0.691  2.6258 -4.8489 -0.5807
  312MOL0     H41183   5.058   2.297   0.058 -0.3125  1.7747 -0.9026
  312MOL0     H41184   5.264   2.133   0.021  2.7436 -1.6023  1.5392
  313MOL0     O41185   2.242  10.726   8.440 -0.1169 -0.2158 -0.5111
  313MOL0     C41186   2.177  10.829   8.461  0.5059 -0.7166  0.2844
  313MOL0     O41187   2.178  10.936   8.377 -0.8185 -0.2246  0.5425
  313MOL0     C41188   2.276  10.947   8.278  0.3994  0.9439  0.2299
  313MOL0     C41189   2.232  10.919   8.149 -0.1023  0.5293  0.3903
  313MOL0     C41190   2.313  10.955   8.041 -0.6036  0.4406 -0.1551
  313MOL0     C41191   2.437  11.016   8.069  0.2222 -0.7959  0.0988
  313MOL0     O41192   2.516  11.052   7.957  0.2679 -0.3752  0.5549
  313MOL0     C41193   2.554  11.184   7.950 -0.3012  0.1319 -0.3417
  313MOL0     C41194   2.507  11.242   7.811 -0.8537 -0.1110  0.0313
  313MOL0     C41195   2.425  11.374   7.818 -0.2706 -0.0297 -0.4588
  313MOL0     C41196   2.293  11.371   7.888 -0.1712 -0.0306  0.7698
  313MOL0     C41197   2.197  11.479   7.851 -0.3325 -0.6220 -0.4990
  313MOL0     C41198   2.246  11.617   7.907  0.2189  0.1418  0.3114
  313MOL0     C41199   2.138  11.707   7.881 -0.5702  0.0414 -0.8319
  313MOL0     C41200   2.188  11.849   7.883  0.4944 -0.4826 -0.0555
  313MOL0     N41201   2.079  11.955   7.860 -0.1130  0.3233 -1.4697
  313MOL0     C41202   1.982  11.954   7.761  0.3473  0.1534  0.7287
  313MOL0     C41203   1.891  12.046   7.793  0.3539  0.2626 -0.2518
  313MOL0     C41204   1.759  12.107   7.749 -0.4409  0.3693 -0.0598
  313MOL0     C41205   1.702  12.021   7.632  0.2828 -0.7521  0.3573
  313MOL0     C41206   1.628  11.893   7.677 -0.7268 -0.0320  0.5812
  313MOL0     C41207   1.623  11.782   7.568  0.5533  0.1128  0.4315
  313MOL0     O41208   1.735  11.695   7.581  0.0032 -0.4530 -0.3259
  313MOL0     C41209   1.829  11.704   7.482  0.1014  0.5669  0.1433
  313MOL0     C41210   1.805  11.746   7.351 -0.0096 -0.8366  0.4089
  313MOL0     C41211   1.911  11.750   7.257  0.9469  0.0852 -0.4918
  313MOL0     C41212   2.040  11.706   7.291  0.4521  0.2127  0.0611
  313MOL0     C41213   2.148  11.702   7.195  0.2042  0.0787  0.4782
  313MOL0     O41214   2.253  11.616   7.212  0.1343  0.1845 -0.7906
  313MOL0     C41215   2.355  11.627   7.131 -0.3247 -0.6556  0.1485
  313MOL0     C41216   2.360  11.548   7.015 -0.9940  0.4959 -1.9117
  313MOL0     C41217   2.456  11.573   6.916  0.7965  0.9730  0.8436
  313MOL0     C41218   2.549  11.676   6.934 -0.9494 -1.1000 -0.4888
  313MOL0     O41219   2.655  11.698   6.857 -0.2508  0.5260 -0.2255
  313MOL0     C41220   2.767  11.614   6.900 -0.2383  1.1639  0.2819
  313MOL0     C41221   2.839  11.563   6.771 -0.0812 -0.0406 -0.7963
  313MOL0     C41222   2.754  11.495   6.666  0.4214 -0.4221 -1.0324
  313MOL0     C41223   2.766  11.349   6.656  0.2272 -0.5106 -0.1269
  313MOL0     C41224   2.660  11.297   6.554  0.1315 -1.6157 -1.1678
  313MOL0     C41225   2.642  11.142   6.562  0.6370  0.0369 -0.0691
  313MOL0     C41226   2.763  11.060   6.529  0.7564 -0.8978  0.1554
  313MOL0     C41227   2.738  10.915   6.554  0.2634 -0.8324  0.1371
  313MOL0    Cl41228   2.607  10.838   6.447  0.0779 -0.5968 -0.2904
  313MOL0     C41229   2.539  11.760   7.049 -0.0651  0.4517  0.7523
  313MOL0     C41230   2.443  11.736   7.139  0.3638  0.6621 -0.2579
  313MOL0     O41231   2.151  11.794   7.106  0.2124 -0.2541  0.4183
  313MOL0     C41232   2.060  11.657   7.422  0.5176  0.6349 -0.0065
  313MOL0     C41233   1.956  11.652   7.513  0.4437 -0.5644  0.6659
  313MOL0     N41234   1.926  12.105   7.910  0.1226 -0.7947  0.1792
  313MOL0     N41235   2.044  12.055   7.941 -0.2137  0.0776 -0.1666
  313MOL0     C41236   2.482  11.024   8.202 -0.4362 -0.2333  1.1458
  313MOL0     C41237   2.400  10.994   8.310 -0.3818 -0.0787 -0.3492
  313MOL0     C41238   2.096  10.833   8.584 -0.5504  0.5639  0.0390
  313MOL0     C41239   2.026  10.942   8.628  0.1119 -0.4725 -0.2135
  313MOL0     C41240   1.955  10.943   8.747 -0.4559  0.2693 -0.2648
  313MOL0     C41241   1.940  10.824   8.817  0.7000 -0.0233 -1.2567
  313MOL0     O41242   1.862  10.835   8.933 -0.2093  0.0930 -0.0749
  313MOL0     C41243   1.746  10.752   8.948  0.7828 -0.3616  0.1210
  313MOL0     C41244   1.752  10.618   9.033 -0.3876 -0.2137 -0.2611
  313MOL0     C41245   1.842  10.639   9.161 -0.7383 -0.2427 -0.0223
  313MOL0     C41246   1.813  10.765   9.247  0.0059 -0.6065  0.0174
  313MOL0     C41247   1.673  10.752   9.305  0.0870  0.1953 -0.8444
  313MOL0     C41248   1.556  10.724   9.329 -0.0980 -0.3964 -0.4949
  313MOL0     C41249   2.007  10.712   8.778  1.1418 -0.0096 -0.6663
  313MOL0     C41250   2.086  10.714   8.665 -0.3694 -0.8054 -0.2660
  313MOL0     H41251   2.130  10.898   8.119  0.7489 -1.5089 -1.3153
  313MOL0     H41252   2.284  10.938   7.937 -1.8141  0.6985  0.1216
  313MOL0     H41253   2.663  11.178   7.959 -0.2675  2.5755  5.1179
  313MOL0     H41254   2.523  11.228   8.045 -1.3896 -4.2261  1.5820
  313MOL0     H41255   2.447  11.168   7.758 -0.6108 -0.8054  0.7100
  313MOL0     H41256   2.589  11.265   7.743 -1.0368  2.5624  0.5977
  313MOL0     H41257   2.406  11.403   7.715  1.3902 -1.2670 -1.1563
  313MOL0     H41258   2.496  11.439   7.869  1.1290  1.4442 -3.9805
  313MOL0     H41259   2.259  11.271   7.858  1.5983 -1.0730  2.0543
  313MOL0     H41260   2.308  11.367   7.996 -0.3643 -1.8935  0.7662
  313MOL0     H41261   2.099  11.450   7.892  1.1255 -2.8520  1.6688
  313MOL0     H41262   2.180  11.482   7.743  0.9885  1.3688 -0.6934
  313MOL0     H41263   2.347  11.637   7.870  0.2076 -1.0763 -0.4186
  313MOL0     H41264   2.268  11.604   8.013  3.7937 -1.3371 -0.4481
  313MOL0     H41265   2.083  11.691   7.788 -2.2083 -0.4811  0.1958
  313MOL0     H41266   2.065  11.684   7.959  0.4094  2.1854  0.8222
  313MOL0     H41267   2.264  11.868   7.808  0.1638 -4.1363 -1.5426
  313MOL0     H41268   2.233  11.878   7.978 -2.9528  2.2399  0.9605
  313MOL0     H41269   1.955  11.869   7.698 -0.1791  2.0607 -1.7936
  313MOL0     H41270   1.775  12.210   7.714  1.5565 -0.4970 -1.8889
  313MOL0     H41271   1.690  12.109   7.834  1.2308 -5.6472  1.9449
  313MOL0     H41272   1.784  12.004   7.562  2.5807 -2.0722  3.1411
  313MOL0     H41273   1.617  12.080   7.597  1.9960  2.0238  0.5965
  313MOL0     H41274   1.689  11.848   7.756  0.5186  2.0732  0.9152
  313MOL0     H41275   1.528  11.924   7.708 -0.1645  5.3111 -1.8126
  313MOL0     H41276   1.592  11.822   7.471 -2.9664 -1.9856  0.5357
  313MOL0     H41277   1.540  11.717   7.597 -0.9072  1.4696 -0.4961
  313MOL0     H41278   1.703  11.767   7.319  0.1868 -2.2905 -1.2892
  313MOL0     H41279   1.890  11.770   7.152 -2.8761 -1.5455 -0.1979
  313MOL0     H41280   2.295  11.462   7.003  2.4834 -2.3603 -2.0422
  313MOL0     H41281   2.457  11.495   6.841  2.6773 -0.1256  1.9368
  313MOL0     H41282   2.756  11.520   6.955 -3.8136  1.3355  0.0736
  313MOL0     H41283   2.834  11.680   6.955  1.0058  0.9433 -0.9252
  313MOL0     H41284   2.916  11.488   6.793  1.4693  1.5377 -0.6471
  313MOL0     H41285   2.890  11.645   6.720  2.4283 -1.6350 -0.9926
  313MOL0     H41286   2.778  11.540   6.569  0.5389  0.2651 -0.6931
  313MOL0     H41287   2.649  11.517   6.687  0.4432 -0.1646 -1.1853
  313MOL0     H41288   2.865  11.318   6.620 -0.6025 -1.5214 -1.6492
  313MOL0     H41289   2.760  11.305   6.755  3.8852 -0.7083  0.1360
  313MOL0     H41290   2.674  11.329   6.450 -3.1944 -2.7432 -2.1110
  313MOL0     H41291   2.562  11.341   6.577  0.2706 -1.4071 -0.9815
  313MOL0     H41292   2.558  11.114   6.497  1.0381 -0.8002 -0.2496
  313MOL0     H41293   2.618  11.134   6.668  2.0781  1.6148  0.4137
  313MOL0     H41294   2.784  11.080   6.424 -1.8648  1.2666 -0.0536
  313MOL0     H41295   2.843  11.096   6.594  1.1916  1.5722 -1.6032
  313MOL0     H41296   2.718  10.891   6.658 -0.0524 -0.9454  0.0519
  313MOL0     H41297   2.836  10.872   6.530  1.1254  0.3894  1.2819
  313MOL0     H41298   2.607  11.844   7.058  0.4688  0.2702 -1.0818
  313MOL0     H41299   2.430  11.796   7.229  0.6742  2.8359 -1.5752
  313MOL0     H41300   2.160  11.622   7.443 -0.3441 -2.2467 -0.2786
  313MOL0     H41301   1.972  11.616   7.614 -1.6550 -0.0816  1.2070
  313MOL0     H41302   2.586  11.055   8.211  0.5971 -0.6963 -4.7967
  313MOL0     H41303   2.438  10.997   8.412  0.9764 -2.9172 -0.6815
  313MOL0     H41304   2.015  11.031   8.567  1.5371 -0.1882 -0.0906
  313MOL0     H41305   1.924  11.036   8.795 -1.4117 -0.0642 -0.2095
  313MOL0     H41306   1.714  10.730   8.846 -2.1004  1.6044  0.5003
  313MOL0     H41307   1.663  10.811   8.988  0.7558  1.4005 -2.3348
  313MOL0     H41308   1.658  10.594   9.083  0.4740  2.3869  3.0010
  313MOL0     H41309   1.779  10.536   8.966 -1.2242  0.1520 -1.0690
  313MOL0     H41310   1.950  10.645   9.146 -0.6529  1.6377  1.0586
  313MOL0     H41311   1.823  10.554   9.228  0.1287 -0.0208  0.5233
  313MOL0     H41312   1.891  10.799   9.315  2.5437 -2.9516 -1.5264
  313MOL0     H41313   1.787  10.842   9.175 -5.1663 -1.1993  0.8406
  313MOL0     H41314   1.454  10.695   9.344  0.5918 -5.6338 -3.2637
  313MOL0     H41315   1.987  10.624   8.838 -1.6765 -0.4285 -2.0732
  313MOL0     H41316   2.129  10.617   8.640  0.9789  0.5449 -3.8467
  314MOL0     O41317   1.880   2.990   1.144 -0.0043  0.7842  0.3648
  314MOL0     C41318   1.789   2.923   1.195  0.3761 -0.9241 -0.5107
  314MOL0     O41319   1.650   2.936   1.176  0.0033  0.0741 -1.0309
  314MOL0     C41320   1.615   3.055   1.123 -0.8913 -0.1303 -1.1630
  314MOL0     C41321   1.589   3.061   0.988  1.2522  0.0612 -0.9103
  314MOL0     C41322   1.565   3.188   0.925 -0.1858  0.0040  0.2092
  314MOL0     C41323   1.567   3.312   1.004 -0.4512  0.6990  0.1918
  314MOL0     O41324   1.545   3.438   0.956 -0.2338 -0.6650  0.7377
  314MOL0     C41325   1.638   3.462   0.848  0.2965 -0.0932 -0.1841
  314MOL0     C41326   1.636   3.606   0.803  0.4600  0.8383  0.6025
  314MOL0     C41327   1.515   3.650   0.712 -0.8972  0.6197 -0.4789
  314MOL0     C41328   1.534   3.781   0.651 -0.0681 -0.2709 -0.0359
  314MOL0     C41329   1.618   3.767   0.523  0.0205  0.7606  0.0762
  314MOL0     C41330   1.616   3.892   0.439 -0.4075  0.1481  0.2337
  314MOL0     C41331   1.728   3.876   0.329 -0.3248  0.3815 -0.1662
  314MOL0     C41332   1.780   4.007   0.272  0.7770  0.5338  0.0647
  314MOL0     N41333   1.673   4.099   0.219 -0.3982  0.7372  0.8854
  314MOL0     C41334   1.591   4.079   0.105 -0.0518  0.1244 -0.8615
  314MOL0     C41335   1.485   4.157   0.126 -0.3668 -0.1748  0.0480
  314MOL0     C41336   1.360   4.174   0.045 -0.0347  0.3447 -0.9172
  314MOL0     C41337   1.365   4.280  -0.074  0.1639  0.4774 -0.0053
  314MOL0     C41338   1.384   4.212  -0.205 -0.0705  0.4349 -0.0430
  314MOL0     C41339   1.314   4.285  -0.316  0.9594  0.4134  1.0940
  314MOL0     O41340   1.343   4.420  -0.321 -0.6314 -0.7913 -0.4233
  314MOL0     C41341   1.472   4.455  -0.360  0.0472  0.3325 -0.3739
  314MOL0     C41342   1.536   4.395  -0.467 -0.1262 -0.6552  0.8781
  314MOL0     C41343   1.673   4.421  -0.488  0.7020  0.1454 -0.3625
  314MOL0     C41344   1.743   4.512  -0.411  0.1130 -0.5649  0.0236
  314MOL0     C41345   1.883   4.550  -0.454 -0.1996 -0.7037 -0.0288
  314MOL0     O41346   1.949   4.635  -0.373 -0.0127 -0.4403  0.4053
  314MOL0     C41347   2.085   4.650  -0.384 -0.5487  0.3045 -0.3282
  314MOL0     C41348   2.170   4.550  -0.425 -0.7884 -0.4137 -0.5929
  314MOL0     C41349   2.311   4.575  -0.405 -0.0378 -0.1508 -0.0719
  314MOL0     C41350   2.358   4.697  -0.346 -0.4021 -0.2462  0.2822
  314MOL0     O41351   2.491   4.718  -0.318  0.5734 -0.0775  0.3583
  314MOL0     C41352   2.589   4.620  -0.334  0.5434  0.3296  0.3550
  314MOL0     C41353   2.725   4.678  -0.326 -0.9898  0.9309 -0.1929
  314MOL0     C41354   2.840   4.581  -0.316 -0.8579  0.5059  0.2196
  314MOL0     C41355   2.986   4.640  -0.314 -0.1934 -0.1449  0.3050
  314MOL0     C41356   3.007   4.727  -0.190 -0.3035  1.1633 -0.2820
  314MOL0     C41357   3.139   4.803  -0.203  0.6709  0.7179  1.1882
  314MOL0     C41358   3.185   4.889  -0.086 -0.0964 -0.4576  0.2451
  314MOL0     C41359   3.266   5.014  -0.140  0.6807 -0.7654  0.2792
  314MOL0    Cl41360   3.394   4.953  -0.250 -0.9083  0.0528 -0.2866
  314MOL0     C41361   2.264   4.786  -0.302  0.4261  0.6926 -0.0428
  314MOL0     C41362   2.127   4.765  -0.323 -1.1181 -0.0942 -0.2278
  314MOL0     O41363   1.921   4.518  -0.566 -0.4456 -0.3733  0.2020
  314MOL0     C41364   1.671   4.581  -0.312  0.5712 -0.1768 -0.1475
  314MOL0     C41365   1.540   4.559  -0.294 -0.3427 -0.7947  0.7844
  314MOL0     N41366   1.502   4.222   0.243 -0.0541  1.5583 -0.4594
  314MOL0     N41367   1.616   4.189   0.302 -0.1382  0.2686  0.3575
  314MOL0     C41368   1.565   3.300   1.140 -0.4895 -0.4271 -0.2184
  314MOL0     C41369   1.596   3.176   1.196  0.6428  0.2658 -0.3022
  314MOL0     C41370   1.822   2.802   1.275 -0.0422 -0.1786 -0.0269
  314MOL0     C41371   1.721   2.748   1.352  0.3574  1.3792  0.7540
  314MOL0     C41372   1.746   2.639   1.435  0.8499 -0.4704  1.8089
  314MOL0     C41373   1.868   2.583   1.442  0.5659 -0.4536 -0.5889
  314MOL0     O41374   1.870   2.469   1.519  0.2207 -0.4654  0.1766
  314MOL0     C41375   1.990   2.400   1.536 -0.3743  0.6066  0.3880
  314MOL0     C41376   1.990   2.312   1.658 -0.4805 -0.0945 -0.3779
  314MOL0     C41377   2.128   2.263   1.692  0.1982  0.1822 -0.4019
  314MOL0     C41378   2.142   2.202   1.833 -0.9041  0.0699  0.8599
  314MOL0     C41379   2.034   2.101   1.864  0.0860 -0.2271 -0.3391
  314MOL0     C41380   1.932   2.029   1.894  0.4764 -0.6230 -0.2063
  314MOL0     C41381   1.970   2.628   1.359 -0.1996 -0.4708  0.3153
  314MOL0     C41382   1.953   2.737   1.273 -0.1671  0.0715  0.1891
  314MOL0     H41383   1.599   2.968   0.934  1.5482 -1.3552  1.4581
  314MOL0     H41384   1.553   3.180   0.818  0.4884 -3.1942  0.2805
  314MOL0     H41385   1.610   3.401   0.761 -0.2161 -0.4298  0.2142
  314MOL0     H41386   1.736   3.433   0.886 -1.0716 -1.6387  2.4632
  314MOL0     H41387   1.721   3.604   0.734 -1.6970  2.6010 -2.3298
  314MOL0     H41388   1.646   3.671   0.890 -1.6391 -0.0430  1.5602
  314MOL0     H41389   1.427   3.644   0.778  0.3624 -1.1154  1.1414
  314MOL0     H41390   1.497   3.576   0.633  0.1505  0.2932 -0.4256
  314MOL0     H41391   1.436   3.823   0.627  0.7843  2.0206  0.2592
  314MOL0     H41392   1.576   3.857   0.717 -0.5698  0.3197 -0.3804
  314MOL0     H41393   1.584   3.691   0.452  2.4097  0.3395 -0.6762
  314MOL0     H41394   1.722   3.763   0.555  0.1880 -0.3367 -0.5578
  314MOL0     H41395   1.606   3.987   0.492  0.9577  0.3543  0.1745
  314MOL0     H41396   1.525   3.889   0.379 -0.0491  1.7510 -0.4258
  314MOL0     H41397   1.815   3.823   0.368  1.3476  1.0352 -2.7107
  314MOL0     H41398   1.695   3.807   0.251  0.1714 -1.7564  1.4237
  314MOL0     H41399   1.852   3.984   0.193 -1.1185 -0.6782 -1.3862
  314MOL0     H41400   1.840   4.067   0.341  1.0502  3.1983 -2.3063
  314MOL0     H41401   1.604   4.012   0.021  0.4842 -0.2261 -0.5023
  314MOL0     H41402   1.291   4.214   0.120  0.2948 -1.6957  0.5621
  314MOL0     H41403   1.330   4.074   0.015 -0.7445 -1.2100  4.0164
  314MOL0     H41404   1.437   4.360  -0.055 -2.1609  3.2820 -2.1258
  314MOL0     H41405   1.266   4.324  -0.084 -0.2168 -0.8917 -3.3039
  314MOL0     H41406   1.488   4.189  -0.229 -0.2962 -0.8538  0.1434
  314MOL0     H41407   1.341   4.113  -0.188 -1.0527  1.0830  1.4818
  314MOL0     H41408   1.206   4.282  -0.299 -0.3057  2.5590 -4.4660
  314MOL0     H41409   1.341   4.225  -0.404  0.7761 -3.1978  3.2846
  314MOL0     H41410   1.485   4.337  -0.543  0.1908  2.8588 -2.2924
  314MOL0     H41411   1.726   4.374  -0.569 -0.0778 -3.8436  1.2280
  314MOL0     H41412   2.137   4.452  -0.456 -3.8260 -0.4889  2.3569
  314MOL0     H41413   2.369   4.500  -0.458  1.0006 -0.0105  0.8246
  314MOL0     H41414   2.587   4.582  -0.437 -0.2387  0.9191  0.1468
  314MOL0     H41415   2.584   4.538  -0.261  2.6591 -0.2868 -0.1330
  314MOL0     H41416   2.726   4.743  -0.237 -3.1590  1.3495 -0.4389
  314MOL0     H41417   2.737   4.743  -0.413  0.1401  0.7208 -0.2160
  314MOL0     H41418   2.837   4.516  -0.404  1.8576  1.8414 -0.9926
  314MOL0     H41419   2.815   4.526  -0.224  1.9269  2.4417  2.3288
  314MOL0     H41420   3.061   4.562  -0.328  1.0680  0.7750  1.6379
  314MOL0     H41421   2.996   4.701  -0.404 -1.1375  0.5411  0.6439
  314MOL0     H41422   3.014   4.667  -0.099  1.0193  0.9067 -0.5364
  314MOL0     H41423   2.922   4.794  -0.169 -0.8346  0.3367  0.3044
  314MOL0     H41424   3.120   4.874  -0.284  1.9735  0.2144  0.3950
  314MOL0     H41425   3.217   4.729  -0.227 -0.0149 -0.3362  2.0990
  314MOL0     H41426   3.095   4.932  -0.043 -0.6587  0.2611 -1.5732
  314MOL0     H41427   3.252   4.835  -0.018 -0.9889 -1.6304  0.2259
  314MOL0     H41428   3.306   5.072  -0.056  3.3347 -0.9244 -0.7839
  314MOL0     H41429   3.190   5.079  -0.185  2.0180  1.3505  0.9223
  314MOL0     H41430   2.313   4.874  -0.262  2.3625 -0.6179  0.6289
  314MOL0     H41431   2.057   4.834  -0.279  1.8872  0.1498  5.0688
  314MOL0     H41432   1.721   4.665  -0.264  0.4913 -0.9763  1.3914
  314MOL0     H41433   1.477   4.623  -0.233  0.3992 -1.4595  2.3064
  314MOL0     H41434   1.558   3.393   1.196  1.2787  0.1089 -0.8109
  314MOL0     H41435   1.603   3.179   1.304  1.2623 -1.5176 -0.2707
  314MOL0     H41436   1.622   2.791   1.357  0.5683  2.1635 -1.2033
  314MOL0     H41437   1.664   2.609   1.500 -0.9894  1.7320  0.6853
  314MOL0     H41438   2.080   2.463   1.532  1.1183 -1.3593  1.5157
  314MOL0     H41439   1.999   2.332   1.451 -3.3200  0.2481  0.2596
  314MOL0     H41440   1.944   2.354   1.748 -0.4140 -1.9364  0.5811
  314MOL0     H41441   1.926   2.223   1.645  0.8245 -1.0847 -0.2465
  314MOL0     H41442   2.199   2.345   1.678  3.7738 -2.7000 -0.9553
  314MOL0     H41443   2.160   2.180   1.627  0.8708 -1.2965  1.6878
  314MOL0     H41444   2.243   2.161   1.842 -0.8185  0.3765  1.3031
  314MOL0     H41445   2.127   2.281   1.907  2.5714  2.1017 -0.3629
  314MOL0     H41446   1.835   1.994   1.923 -0.6876  1.8051 -0.8405
  314MOL0     H41447   2.060   2.568   1.346 -1.1265 -1.7310 -0.6147
  314MOL0     H41448   2.020   2.767   1.194  1.0982  1.3255  1.6695
  315MOL0     O41449   5.596   1.885   1.635 -0.0969 -0.4910  0.1337
  315MOL0     C41450   5.592   1.947   1.527 -1.2478 -0.1834 -0.4509
  315MOL0     O41451   5.487   2.011   1.479 -0.3140  0.2418  0.5724
  315MOL0     C41452   5.369   2.031   1.547  0.2788  1.1249  0.1490
  315MOL0     C41453   5.366   2.059   1.682 -0.0863  0.9966  0.8848
  315MOL0     C41454   5.260   2.095   1.753 -0.1333  0.1105 -0.6582
  315MOL0     C41455   5.135   2.105   1.692  0.4152 -0.0844  0.6567
  315MOL0     O41456   5.011   2.143   1.742  0.6483  0.8952 -0.3603
  315MOL0     C41457   4.997   2.224   1.861 -0.0537  0.2917  0.6326
  315MOL0     C41458   4.865   2.304   1.860  0.2876 -0.4188  0.1717
  315MOL0     C41459   4.843   2.385   1.728 -0.0242  0.5910 -0.6153
  315MOL0     C41460   4.941   2.500   1.716 -0.1091 -0.0215  0.0703
  315MOL0     C41461   4.882   2.610   1.617 -0.9528  0.1223 -0.4044
  315MOL0     C41462   5.002   2.712   1.598  0.5966 -0.1023  0.9178
  315MOL0     C41463   4.952   2.834   1.517  1.0292  0.8144  0.5022
  315MOL0     C41464   4.925   2.964   1.601  0.4818  0.4129 -0.7052
  315MOL0     N41465   4.871   3.063   1.512 -0.6402 -0.3424 -0.4755
  315MOL0     C41466   4.862   3.195   1.551 -1.1775 -0.4940 -0.3174
  315MOL0     C41467   4.812   3.258   1.436 -0.7145  0.3431  0.3014
  315MOL0     C41468   4.818   3.411   1.440  0.4379 -0.7962 -0.4488
  315MOL0     C41469   4.699   3.461   1.530  0.4833  0.1719  0.7468
  315MOL0     C41470   4.726   3.612   1.566  0.1295  0.8996 -0.0416
  315MOL0     C41471   4.586   3.659   1.614 -0.0235 -0.5542  0.2114
  315MOL0     O41472   4.578   3.798   1.592 -0.4591  0.4076  0.0707
  315MOL0     C41473   4.466   3.869   1.585  0.0731 -0.2298  0.0118
  315MOL0     C41474   4.463   3.999   1.546 -0.0755 -0.5048 -0.4638
  315MOL0     C41475   4.343   4.068   1.526 -0.8218 -0.7082 -1.0717
  315MOL0     C41476   4.217   4.006   1.537  0.2891 -0.9094 -0.0712
  315MOL0     C41477   4.090   4.078   1.539  0.0994  0.0108 -0.3379
  315MOL0     O41478   3.984   4.005   1.576  0.1367  0.4416  0.1960
  315MOL0     C41479   3.871   4.077   1.609 -0.1304  0.7193  0.0544
  315MOL0     C41480   3.857   4.155   1.727 -0.7796  1.3134 -0.0738
  315MOL0     C41481   3.739   4.220   1.755  0.9211  0.6526 -0.1961
  315MOL0     C41482   3.631   4.209   1.665  0.5014 -0.0277 -0.3259
  315MOL0     O41483   3.516   4.284   1.685 -0.4996  0.7066  0.0658
  315MOL0     C41484   3.451   4.271   1.808 -0.6599 -0.1223  0.5235
  315MOL0     C41485   3.336   4.367   1.810  0.3169  0.2264 -0.7706
  315MOL0     C41486   3.395   4.504   1.811 -1.1261 -0.3632  0.7029
  315MOL0     C41487   3.292   4.616   1.816 -0.1601 -0.5042  0.6304
  315MOL0     C41488   3.354   4.755   1.789  1.2003 -1.4048  0.0490
  315MOL0     C41489   3.256   4.871   1.794 -0.7824  0.1777 -0.7231
  315MOL0     C41490   3.170   4.853   1.665  1.5556 -0.0545 -0.5658
  315MOL0     C41491   3.063   4.968   1.643  0.1589  0.1197  0.3109
  315MOL0    Cl41492   2.888   4.927   1.685  0.0689 -0.1706 -0.3102
  315MOL0     C41493   3.639   4.138   1.543  0.1504 -0.7072  0.2312
  315MOL0     C41494   3.763   4.075   1.506  0.2359  0.2298  0.2993
  315MOL0     O41495   4.087   4.196   1.513  0.5320 -0.3836  0.8836
  315MOL0     C41496   4.224   3.873   1.580  0.5707 -0.7682 -0.3176
  315MOL0     C41497   4.344   3.809   1.606  1.3998  0.3207 -0.3594
  315MOL0     N41498   4.779   3.159   1.333 -0.4331 -0.0928 -0.1131
  315MOL0     N41499   4.811   3.047   1.391  0.1518  0.2752 -0.3175
  315MOL0     C41500   5.122   2.072   1.552  0.2476  0.5757 -0.3392
  315MOL0     C41501   5.241   2.038   1.483  0.0383 -0.4224 -0.8558
  315MOL0     C41502   5.711   1.955   1.435  1.1173 -0.1548 -0.1268
  315MOL0     C41503   5.701   1.960   1.298  1.1439 -0.8378 -0.1207
  315MOL0     C41504   5.814   1.969   1.211  0.2134 -0.0650 -0.6865
  315MOL0     C41505   5.947   1.964   1.267  0.1279 -0.2764 -0.7196
  315MOL0     O41506   6.057   1.950   1.183 -0.4448 -1.1427 -0.4679
  315MOL0     C41507   6.180   1.896   1.238  0.2181 -0.1038 -0.5018
  315MOL0     C41508   6.290   1.885   1.125  0.4435 -0.8332 -0.9100
  315MOL0     C41509   6.247   1.816   0.989 -0.4233  0.0621 -0.0626
  315MOL0     C41510   6.185   1.676   0.992  0.0974  0.9406  0.3369
  315MOL0     C41511   6.280   1.580   1.053 -0.6007  0.1647  0.2419
  315MOL0     C41512   6.353   1.486   1.075  0.2479  0.0219 -0.0990
  315MOL0     C41513   5.956   1.955   1.409  0.0633  0.1652  0.1356
  315MOL0     C41514   5.841   1.948   1.496 -0.0323 -0.1646 -0.4395
  315MOL0     H41515   5.459   2.040   1.735 -0.3428  2.0513  1.7531
  315MOL0     H41516   5.260   2.137   1.853 -4.1052  3.5054 -1.7895
  315MOL0     H41517   5.079   2.297   1.856  1.2399 -1.1364  0.3525
  315MOL0     H41518   5.003   2.164   1.952  1.7227 -0.4072  0.0941
  315MOL0     H41519   4.874   2.386   1.932  0.6290 -0.3048 -0.0055
  315MOL0     H41520   4.783   2.233   1.878  1.2600 -2.3523 -2.3626
  315MOL0     H41521   4.741   2.425   1.723 -0.5019 -0.7164 -3.5224
  315MOL0     H41522   4.856   2.321   1.640  1.0641  2.4162 -1.8580
  315MOL0     H41523   4.960   2.548   1.812 -0.3597 -1.2642  0.7579
  315MOL0     H41524   5.036   2.465   1.674 -0.3467  0.0175 -0.5195
  315MOL0     H41525   4.793   2.658   1.657 -1.6944 -1.3846 -0.1617
  315MOL0     H41526   4.849   2.557   1.527 -0.8500  0.0728 -0.4139
  315MOL0     H41527   5.074   2.650   1.544  2.2090  0.0464  2.8121
  315MOL0     H41528   5.043   2.740   1.695 -1.4383  1.3152  1.4437
  315MOL0     H41529   5.040   2.849   1.454  0.7217  0.5091 -0.0011
  315MOL0     H41530   4.864   2.816   1.455  1.8653  2.0116 -1.1093
  315MOL0     H41531   5.016   3.011   1.639  0.3633 -1.3304  2.0231
  315MOL0     H41532   4.872   2.954   1.696  1.1093 -2.4150 -0.5930
  315MOL0     H41533   4.898   3.235   1.645  2.1009  0.2143 -1.7196
  315MOL0     H41534   4.813   3.463   1.343  4.0689  2.0308  0.6594
  315MOL0     H41535   4.913   3.448   1.479  0.8217  0.0609 -2.0645
  315MOL0     H41536   4.702   3.400   1.620  1.8037 -1.6128 -0.4337
  315MOL0     H41537   4.601   3.445   1.483 -0.2775  1.1154  1.9625
  315MOL0     H41538   4.799   3.603   1.646  1.7115 -0.6494 -1.5630
  315MOL0     H41539   4.757   3.671   1.480 -1.5414  0.3800 -1.0586
  315MOL0     H41540   4.575   3.649   1.722  2.2610 -0.0229  0.5343
  315MOL0     H41541   4.507   3.597   1.570  0.4326 -1.6777  0.9243
  315MOL0     H41542   4.552   4.060   1.533 -0.0462 -0.8487 -2.1589
  315MOL0     H41543   4.344   4.168   1.484 -0.0850 -0.5432 -0.6797
  315MOL0     H41544   3.951   4.179   1.776 -0.0562  0.5535 -1.0632
  315MOL0     H41545   3.733   4.288   1.840  0.6047  0.2012  0.1428
  315MOL0     H41546   3.512   4.262   1.899  2.0416  1.1090 -1.0386
  315MOL0     H41547   3.397   4.177   1.817 -1.4192  0.3822  1.4188
  315MOL0     H41548   3.281   4.341   1.901  1.2398  3.5214  0.8975
  315MOL0     H41549   3.279   4.347   1.719 -2.6736 -1.5454  1.3336
  315MOL0     H41550   3.449   4.527   1.718 -1.3627 -0.0402  0.6443
  315MOL0     H41551   3.458   4.507   1.899  2.3590  0.6643 -1.6360
  315MOL0     H41552   3.206   4.601   1.750  0.6712  2.0429 -1.2432
  315MOL0     H41553   3.257   4.609   1.919  2.6407  0.8797  1.7803
  315MOL0     H41554   3.414   4.758   1.697  2.9627  4.2093  0.9851
  315MOL0     H41555   3.422   4.786   1.869 -1.2342 -0.9397  2.0615
  315MOL0     H41556   3.311   4.965   1.791  0.3077 -0.0231  4.4043
  315MOL0     H41557   3.194   4.876   1.884  2.1381  2.4369  1.3229
  315MOL0     H41558   3.242   4.849   1.582  3.8325 -0.8682  1.3235
  315MOL0     H41559   3.121   4.755   1.666  2.1299 -0.4133 -2.7548
  315MOL0     H41560   3.052   4.993   1.538 -0.2931  2.0574  0.7790
  315MOL0     H41561   3.103   5.046   1.709 -1.2535 -1.0305  2.6886
  315MOL0     H41562   3.553   4.142   1.477 -0.9898 -3.0365  1.4303
  315MOL0     H41563   3.781   4.035   1.407 -0.3766  0.8747 -0.0769
  315MOL0     H41564   4.133   3.819   1.604 -0.2147  0.3717 -0.6971
  315MOL0     H41565   4.332   3.702   1.621 -2.7222  0.8774  1.7051
  315MOL0     H41566   5.019   2.078   1.517 -0.5205 -0.0981  1.6734
  315MOL0     H41567   5.230   2.029   1.375  3.0103  1.0896 -1.3920
  315MOL0     H41568   5.599   1.962   1.260  0.6777 -1.1072  1.0529
  315MOL0     H41569   5.796   1.983   1.105  1.5191 -0.1040 -0.9290
  315MOL0     H41570   6.166   1.794   1.274  1.3895  0.2996  1.2062
  315MOL0     H41571   6.225   1.958   1.315  0.3633 -0.1284 -0.5670
  315MOL0     H41572   6.327   1.987   1.111 -2.3186  0.4363  0.2718
  315MOL0     H41573   6.373   1.834   1.174  0.4315 -2.8749 -2.8923
  315MOL0     H41574   6.337   1.811   0.929 -1.6972  0.5897 -2.1108
  315MOL0     H41575   6.187   1.891   0.937  0.2471  0.2789 -0.5283
  315MOL0     H41576   6.090   1.675   1.047  0.0291 -3.1355  0.4789
  315MOL0     H41577   6.160   1.649   0.889  0.7020 -0.6933  0.5964
  315MOL0     H41578   6.404   1.398   1.108  0.4925  0.2647  0.1771
  315MOL0     H41579   6.047   1.950   1.468  0.1722 -1.4203 -0.1142
  315MOL0     H41580   5.851   1.955   1.604  0.8783  2.1782 -0.6260
  316MOL0     O41581   1.184   0.043   7.102  0.2813 -0.4674 -0.1615
  316MOL0     C41582   1.190   0.144   7.173  0.2997  0.4667 -0.6679
  316MOL0     O41583   1.310   0.196   7.232  0.7292  0.5990 -0.4536
  316MOL0     C41584   1.425   0.138   7.199 -0.1333  0.5671  0.2779
  316MOL0     C41585   1.500   0.190   7.091  0.5183  0.2280 -0.2916
  316MOL0     C41586   1.618   0.133   7.051 -0.1490  0.3933 -0.2849
  316MOL0     C41587   1.663   0.009   7.101 -0.5220 -0.5533 -0.2858
  316MOL0     O41588   1.767  -0.050   7.045  0.0039  0.3678  0.5047
  316MOL0     C41589   1.884   0.008   7.087 -0.9264  0.1047 -0.3956
  316MOL0     C41590   2.003  -0.067   7.028 -0.2364  1.2820  0.5237
  316MOL0     C41591   2.022  -0.043   6.874 -1.2755  0.8253 -0.1974
  316MOL0     C41592   2.133  -0.135   6.822 -0.8054 -0.2954  0.3193
  316MOL0     C41593   2.198  -0.064   6.702  0.2158  0.3494  0.3970
  316MOL0     C41594   2.283  -0.168   6.619 -0.5129 -0.7634 -0.4705
  316MOL0     C41595   2.186  -0.242   6.530  0.2406 -0.4675  0.5809
  316MOL0     C41596   2.260  -0.353   6.454  1.1999 -1.1164 -0.0336
  316MOL0     N41597   2.170  -0.455   6.403  0.6145  0.2534  0.2395
  316MOL0     C41598   2.121  -0.568   6.470 -0.1436  0.2545  0.1451
  316MOL0     C41599   2.022  -0.608   6.394 -0.1012  0.1719  0.0133
  316MOL0     C41600   1.906  -0.705   6.422  0.3617 -0.0325  0.7168
  316MOL0     C41601   1.910  -0.822   6.336 -0.6005  1.0068  0.1991
  316MOL0     C41602   2.040  -0.905   6.350  0.6150 -0.2684  0.0128
  316MOL0     C41603   2.047  -0.984   6.484  1.2881 -0.1328 -0.3318
  316MOL0     O41604   1.933  -1.078   6.483  0.2354 -0.0143 -0.2807
  316MOL0     C41605   1.961  -1.214   6.487  0.4327  0.2581  0.0923
  316MOL0     C41606   1.877  -1.304   6.417  0.4365 -0.9788  0.2461
  316MOL0     C41607   1.900  -1.443   6.408  0.7380 -1.0177  0.8271
  316MOL0     C41608   2.018  -1.497   6.469 -0.7703  0.2874 -0.8329
  316MOL0     C41609   2.051  -1.643   6.473  0.4061 -0.6463  0.4304
  316MOL0     O41610   1.997  -1.719   6.377  0.6690  0.2467 -0.3566
  316MOL0     C41611   2.021  -1.857   6.361 -0.2959 -0.0580 -0.6466
  316MOL0     C41612   1.904  -1.939   6.333 -0.5657  0.3021 -0.3473
  316MOL0     C41613   1.915  -2.069   6.323 -0.4400 -0.3148  0.0912
  316MOL0     C41614   2.033  -2.132   6.356 -0.2313 -0.2886  0.5599
  316MOL0     O41615   2.030  -2.270   6.350 -0.1123  0.2658 -0.1544
  316MOL0     C41616   2.149  -2.340   6.387 -0.0953  0.3281  0.0691
  316MOL0     C41617   2.146  -2.376   6.538 -0.0444 -0.3964 -0.6945
  316MOL0     C41618   2.113  -2.259   6.638 -0.2810  0.1989  0.8947
  316MOL0     C41619   2.140  -2.295   6.780  0.3869 -0.6500  0.5161
  316MOL0     C41620   2.103  -2.176   6.866 -0.5051  0.4707  0.2805
  316MOL0     C41621   2.099  -2.220   7.013  0.1019  0.8226 -0.6095
  316MOL0     C41622   2.237  -2.270   7.074  0.4702  0.5267 -0.4508
  316MOL0     C41623   2.231  -2.249   7.227  0.7317  0.3422 -0.6362
  316MOL0    Cl41624   2.368  -2.339   7.306 -0.0808  0.6068  0.0193
  316MOL0     C41625   2.150  -2.052   6.379 -0.1370  0.4946  0.1683
  316MOL0     C41626   2.141  -1.917   6.385 -0.2257  0.4079  0.1477
  316MOL0     O41627   2.125  -1.682   6.566 -0.4532 -0.1172  0.9269
  316MOL0     C41628   2.088  -1.410   6.556  0.0011 -0.0540  0.0922
  316MOL0     C41629   2.070  -1.272   6.562  0.4253 -0.8187  0.8870
  316MOL0     N41630   2.012  -0.527   6.279  0.8156  1.1348  0.1614
  316MOL0     N41631   2.105  -0.438   6.284  0.0651  0.5607  0.6901
  316MOL0     C41632   1.590  -0.047   7.204  0.5625  0.3493 -0.8771
  316MOL0     C41633   1.474   0.016   7.256  0.0423 -0.0231  0.1841
  316MOL0     C41634   1.061   0.197   7.214  0.0862  0.3953  0.3206
  316MOL0     C41635   0.940   0.125   7.201  0.0026  0.6350 -0.1234
  316MOL0     C41636   0.814   0.189   7.231 -0.7828  0.0779 -0.2357
  316MOL0     C41637   0.822   0.325   7.280 -0.1862  0.9974 -0.5166
  316MOL0     O41638   0.705   0.377   7.328  0.1710  0.3158  0.7532
  316MOL0     C41639   0.703   0.511   7.381  0.2312  0.1804 -0.1778
  316MOL0     C41640   0.564   0.559   7.411 -0.3362 -0.5167  0.2890
  316MOL0     C41641   0.498   0.612   7.281 -0.1511  0.1655  0.2429
  316MOL0     C41642   0.346   0.623   7.292  0.4266 -0.3010  1.0342
  316MOL0     C41643   0.292   0.485   7.277 -0.9273  0.2180 -0.1944
  316MOL0     C41644   0.214   0.384   7.288 -0.2193 -0.4072  0.4413
  316MOL0     C41645   0.948   0.388   7.302 -0.4400  0.0381  0.5139
  316MOL0     C41646   1.065   0.324   7.272  0.0465  0.2087  0.3083
  316MOL0     H41647   1.465   0.286   7.056  1.2068  0.9230  0.8862
  316MOL0     H41648   1.671   0.196   6.981  3.1641  2.5063  3.6967
  316MOL0     H41649   1.895  -0.007   7.195  2.5258  0.5984 -0.5614
  316MOL0     H41650   1.888   0.112   7.054 -0.5750  0.1318 -0.2799
  316MOL0     H41651   2.007  -0.175   7.045 -0.1705  0.8786 -1.7060
  316MOL0     H41652   2.083  -0.009   7.075 -2.1199  3.1200  1.6243
  316MOL0     H41653   2.061   0.058   6.858 -0.3812  1.2343  3.6454
  316MOL0     H41654   1.925  -0.051   6.824 -0.0508 -2.8068 -2.3975
  316MOL0     H41655   2.209  -0.155   6.897 -1.2928 -2.0523  0.3784
  316MOL0     H41656   2.095  -0.235   6.799 -3.0361  1.0935 -2.8775
  316MOL0     H41657   2.251   0.025   6.738  1.5180  0.3203 -1.3509
  316MOL0     H41658   2.112  -0.022   6.649  0.4459 -1.5820 -1.5947
  316MOL0     H41659   2.333  -0.237   6.687 -0.0030  0.9917  1.0143
  316MOL0     H41660   2.360  -0.118   6.559  2.9812 -2.6156  2.1206
  316MOL0     H41661   2.101  -0.277   6.589 -2.4384 -1.3571 -3.3842
  316MOL0     H41662   2.138  -0.177   6.456  1.3327  1.4794  1.5151
  316MOL0     H41663   2.318  -0.406   6.530 -0.2438 -0.7575  1.3616
  316MOL0     H41664   2.318  -0.312   6.370 -1.1087  4.8034  0.8103
  316MOL0     H41665   2.150  -0.606   6.568  0.7530  3.6621  1.3499
  316MOL0     H41666   1.810  -0.653   6.420  0.9674  1.1609  1.6328
  316MOL0     H41667   1.925  -0.741   6.523 -0.1710  0.1136  0.8716
  316MOL0     H41668   1.904  -0.778   6.236  0.9265 -1.1716 -0.9421
  316MOL0     H41669   1.825  -0.888   6.353 -0.0396 -0.0191 -0.8070
  316MOL0     H41670   2.063  -0.972   6.267  2.0878 -0.6616  0.6974
  316MOL0     H41671   2.131  -0.843   6.352  0.8230 -0.4214 -2.3799
  316MOL0     H41672   2.039  -0.921   6.573  0.3601  1.5606 -1.5626
  316MOL0     H41673   2.142  -1.039   6.488  2.5964  2.0659  0.3317
  316MOL0     H41674   1.782  -1.266   6.381 -0.3013 -1.2389  1.8031
  316MOL0     H41675   1.838  -1.512   6.352  2.5967 -3.4930  1.6332
  316MOL0     H41676   1.813  -1.881   6.322 -0.4609 -0.0644 -4.1726
  316MOL0     H41677   1.826  -2.126   6.298  1.5378 -3.0762 -1.1363
  316MOL0     H41678   2.244  -2.293   6.357  1.5901 -1.9797  1.4794
  316MOL0     H41679   2.149  -2.438   6.338 -0.3832  0.6337 -0.5528
  316MOL0     H41680   2.241  -2.417   6.576  1.1015  1.9398 -0.8561
  316MOL0     H41681   2.078  -2.460   6.551 -1.2235  0.4883 -0.9679
  316MOL0     H41682   2.013  -2.216   6.628 -0.9409 -1.6235 -1.2520
  316MOL0     H41683   2.177  -2.175   6.610 -0.5584  0.8078  1.9956
  316MOL0     H41684   2.072  -2.376   6.807 -0.6188 -0.1158 -0.3698
  316MOL0     H41685   2.246  -2.322   6.789  0.6235  0.6869  2.6751
  316MOL0     H41686   2.004  -2.139   6.839 -0.2791  1.2835  0.5571
  316MOL0     H41687   2.182  -2.103   6.851 -1.6747  1.4601 -1.3844
  316MOL0     H41688   2.023  -2.294   7.040 -0.1218 -0.0828 -3.4359
  316MOL0     H41689   2.075  -2.133   7.075  2.6259 -0.5719  2.6426
  316MOL0     H41690   2.247  -2.379   7.063 -0.7407  0.2309  1.0566
  316MOL0     H41691   2.317  -2.212   7.028 -0.1622  1.6726 -0.1385
  316MOL0     H41692   2.138  -2.279   7.277 -0.5589  3.7959 -0.7046
  316MOL0     H41693   2.233  -2.142   7.249 -1.3611 -0.1297  2.3888
  316MOL0     H41694   2.248  -2.094   6.399  0.5618  1.1106 -1.7046
  316MOL0     H41695   2.225  -1.850   6.400 -0.4861  0.9559 -0.7895
  316MOL0     H41696   2.162  -1.458   6.619 -1.1921  1.4927  2.8946
  316MOL0     H41697   2.148  -1.222   6.619 -0.0980 -0.0436  0.9316
  316MOL0     H41698   1.622  -0.146   7.234  0.7263  1.1889  2.0743
  316MOL0     H41699   1.420  -0.022   7.342 -3.2867 -0.8885 -2.0614
  316MOL0     H41700   0.938   0.023   7.166  1.6268  1.2845 -2.2898
  316MOL0     H41701   0.720   0.135   7.233 -0.5537 -0.3154  0.5752
  316MOL0     H41702   0.745   0.587   7.314 -1.0890  0.2276 -1.0027
  316MOL0     H41703   0.768   0.509   7.469 -0.0115  0.4454  0.0101
  316MOL0     H41704   0.518   0.483   7.474 -3.1317  1.5552  0.9352
  316MOL0     H41705   0.570   0.653   7.467 -0.7358 -1.2129  1.5201
  316MOL0     H41706   0.526   0.541   7.202  2.2481  0.5228  0.7011
  316MOL0     H41707   0.536   0.707   7.243  0.7597 -0.6619 -1.0208
  316MOL0     H41708   0.311   0.665   7.387  0.6957 -4.2336  3.0821
  316MOL0     H41709   0.299   0.683   7.214 -0.9385 -2.0848  0.4218
  316MOL0     H41710   0.143   0.310   7.319 -0.7012 -1.0390 -1.9808
  316MOL0     H41711   0.961   0.492   7.331  3.2756  0.7962 -2.9068
  316MOL0     H41712   1.162   0.368   7.293 -0.3146  0.8163  0.7265
  317MOL0     O41713   8.960   8.665  10.492  0.0639  0.2503  0.3741
  317MOL0     C41714   8.844   8.666  10.461  0.2099  0.1617 -0.1612
  317MOL0     O41715   8.758   8.759  10.488 -0.4714  0.6991 -0.3508
  317MOL0     C41716   8.813   8.882  10.502  0.1458 -0.1168 -0.3458
  317MOL0     C41717   8.922   8.945  10.438  0.4336  0.3821  0.4952
  317MOL0     C41718   8.969   9.069  10.467  0.2926  0.5133 -0.0230
  317MOL0     C41719   8.891   9.154  10.556  0.5274  0.1648  0.1260
  317MOL0     O41720   8.911   9.279  10.608 -0.0791  1.4350 -0.9517
  317MOL0     C41721   9.043   9.339  10.607  0.1007 -0.4179  0.0053
  317MOL0     C41722   9.028   9.486  10.600 -0.5237  0.8398  0.3927
  317MOL0     C41723   9.157   9.560  10.613 -0.2879  0.0471  0.5259
  317MOL0     C41724   9.129   9.713  10.612 -0.3199  0.4129 -1.0812
  317MOL0     C41725   9.260   9.799  10.598  0.5242  0.3023 -0.2708
  317MOL0     C41726   9.218   9.944  10.574  0.3320  0.5609  0.7392
  317MOL0     C41727   9.331  10.035  10.520 -0.4253 -0.1812  0.8335
  317MOL0     C41728   9.446  10.058  10.614  0.3719 -0.4663  0.6473
  317MOL0     N41729   9.408  10.154  10.724  0.3275  0.5190  0.8095
  317MOL0     C41730   9.340  10.125  10.836 -0.6000 -0.4076  0.0810
  317MOL0     C41731   9.338  10.240  10.906 -0.1756  0.5913  0.5441
  317MOL0     C41732   9.262  10.271  11.033 -1.2149 -0.3033 -0.0022
  317MOL0     C41733   9.344  10.356  11.133 -0.1808 -0.0793  0.0952
  317MOL0     C41734   9.333  10.503  11.090  0.2461  0.1586  0.9231
  317MOL0     C41735   9.447  10.587  11.145 -0.4745  0.0816  0.1209
  317MOL0     O41736   9.473  10.563  11.289 -0.3396 -0.1161 -0.7486
  317MOL0     C41737   9.415  10.650  11.380 -0.4670  0.0433  0.2088
  317MOL0     C41738   9.330  10.753  11.335 -0.5738 -0.8113 -0.0827
  317MOL0     C41739   9.294  10.847  11.429  0.5463  0.1581 -0.2103
  317MOL0     C41740   9.344  10.870  11.556  0.5886  0.0660 -0.1298
  317MOL0     C41741   9.305  10.988  11.640 -1.0455 -0.1431  0.2220
  317MOL0     O41742   9.380  11.008  11.755  0.3105 -0.2954  0.3388
  317MOL0     C41743   9.336  11.085  11.859 -1.2540 -0.8400 -0.1221
  317MOL0     C41744   9.207  11.132  11.868 -0.1413  0.0176 -0.4863
  317MOL0     C41745   9.162  11.217  11.968  0.3871 -0.3384 -0.4145
  317MOL0     C41746   9.256  11.249  12.074  0.4803 -0.4275  0.3352
  317MOL0     O41747   9.218  11.345  12.161 -0.9954 -0.0729 -0.5335
  317MOL0     C41748   9.103  11.334  12.239  0.5514  0.1134 -0.1873
  317MOL0     C41749   9.124  11.361  12.396 -0.3012 -0.7646 -0.2467
  317MOL0     C41750   9.169  11.507  12.424 -0.6049 -0.2063 -0.4753
  317MOL0     C41751   9.206  11.518  12.572 -0.0604  0.6079 -0.8978
  317MOL0     C41752   9.198  11.663  12.627  0.1356  0.0268  0.4985
  317MOL0     C41753   9.255  11.661  12.768 -0.3085  0.2409 -0.0645
  317MOL0     C41754   9.220  11.785  12.836  0.4988  0.2057  0.0933
  317MOL0     C41755   9.302  11.833  12.956  0.5775 -0.3323  0.8625
  317MOL0    Cl41756   9.295  11.740  13.101 -0.0098  0.1893  0.1483
  317MOL0     C41757   9.388  11.217  12.056 -0.0701 -0.4654 -0.1895
  317MOL0     C41758   9.425  11.132  11.953 -0.2526 -0.0395 -0.0367
  317MOL0     O41759   9.234  11.075  11.592 -0.1017 -0.9016  0.3106
  317MOL0     C41760   9.434  10.769  11.596  0.0511 -1.1914 -0.1942
  317MOL0     C41761   9.464  10.668  11.512 -0.7536  0.0767 -0.3858
  317MOL0     N41762   9.409  10.336  10.830  0.1700  0.4884 -0.3135
  317MOL0     N41763   9.456  10.280  10.728 -1.1559  0.0902 -0.0593
  317MOL0     C41764   8.777   9.098  10.618 -0.9993 -0.6401  1.1622
  317MOL0     C41765   8.745   8.968  10.589  0.1366  0.4076 -0.4701
  317MOL0     C41766   8.800   8.538  10.400 -0.3337 -0.1413 -0.1053
  317MOL0     C41767   8.664   8.525  10.350  0.6527  0.3748  0.1825
  317MOL0     C41768   8.621   8.411  10.289  0.4710  0.7956  0.0757
  317MOL0     C41769   8.703   8.304  10.259  0.9313  0.4697 -0.2311
  317MOL0     O41770   8.648   8.195  10.199  0.0053 -0.2385  0.0148
  317MOL0     C41771   8.723   8.074  10.195 -0.2499 -0.7359 -0.6100
  317MOL0     C41772   8.638   7.965  10.132 -0.1806  0.0723 -0.3688
  317MOL0     C41773   8.676   7.947   9.979  0.0784  0.6828 -0.2632
  317MOL0     C41774   8.615   7.845   9.885 -0.0976  0.1626 -1.0313
  317MOL0     C41775   8.625   7.713   9.941 -0.3742  0.5627  0.2654
  317MOL0     C41776   8.644   7.597   9.969  0.6056  0.0832 -0.9268
  317MOL0     C41777   8.829   8.322  10.297  0.0137  0.2909 -0.5171
  317MOL0     C41778   8.881   8.425  10.366 -0.8435  0.8881 -0.1443
  317MOL0     H41779   8.978   8.884  10.368  2.6111  2.5000  0.3000
  317MOL0     H41780   9.057   9.090  10.408  2.5748 -3.1490  1.7335
  317MOL0     H41781   9.108   9.318  10.521  1.3353  1.1941  0.4920
  317MOL0     H41782   9.079   9.325  10.709 -1.7617  3.7134  1.4644
  317MOL0     H41783   8.963   9.511  10.684 -2.8662  1.5181 -1.4906
  317MOL0     H41784   8.960   9.511  10.518 -4.8127  0.2407  3.4381
  317MOL0     H41785   9.222   9.545  10.526 -0.8003  2.9001 -0.4766
  317MOL0     H41786   9.212   9.517  10.697  1.3231 -1.0783 -1.0233
  317MOL0     H41787   9.062   9.726  10.526 -0.7596  0.8617 -0.6756
  317MOL0     H41788   9.071   9.745  10.699 -1.6250 -2.0765 -0.9556
  317MOL0     H41789   9.315   9.760  10.511 -2.6290 -2.6871 -1.1571
  317MOL0     H41790   9.320   9.788  10.689 -1.8472 -2.9964  1.1201
  317MOL0     H41791   9.189   9.990  10.670 -0.6902 -0.4477  0.9358
  317MOL0     H41792   9.126   9.955  10.516 -0.4144 -0.1852  1.7545
  317MOL0     H41793   9.364   9.985  10.429  2.2209 -0.2460  1.7515
  317MOL0     H41794   9.295  10.131  10.482  3.0591  0.9917  0.1308
  317MOL0     H41795   9.542  10.086  10.569  0.3928 -1.8026 -0.2111
  317MOL0     H41796   9.458   9.959  10.660 -5.1581 -1.1748  1.2386
  317MOL0     H41797   9.286  10.031  10.847 -2.5377 -0.0032 -4.1484
  317MOL0     H41798   9.222  10.178  11.073 -0.6921  0.0266  1.3497
  317MOL0     H41799   9.173  10.328  11.001 -1.7288 -1.0106  0.1582
  317MOL0     H41800   9.449  10.324  11.137  0.5769  1.7772 -2.0956
  317MOL0     H41801   9.311  10.345  11.237 -0.7504 -3.6061 -0.3532
  317MOL0     H41802   9.339  10.519  10.982 -0.5789  1.2943  1.0387
  317MOL0     H41803   9.240  10.549  11.121 -0.3204 -0.1204 -0.2948
  317MOL0     H41804   9.443  10.692  11.117  3.7113 -0.2923 -2.8845
  317MOL0     H41805   9.537  10.545  11.098 -1.0940 -1.8705  0.5666
  317MOL0     H41806   9.274  10.741  11.243  2.6139 -1.0028 -2.1668
  317MOL0     H41807   9.211  10.913  11.403  0.1004 -0.6620 -0.9209
  317MOL0     H41808   9.131  11.096  11.798  1.1441  0.3744 -2.1233
  317MOL0     H41809   9.061  11.255  11.971  0.5541  0.1676 -0.9972
  317MOL0     H41810   9.059  11.233  12.234 -0.3403  0.4472  0.6498
  317MOL0     H41811   9.036  11.403  12.188  0.3573  2.0930  2.5120
  317MOL0     H41812   9.209  11.296  12.423  1.3796  2.1332  2.0930
  317MOL0     H41813   9.033  11.334  12.450 -1.9081  1.1630 -1.8603
  317MOL0     H41814   9.088  11.572  12.388 -1.1824 -0.7480 -0.1735
  317MOL0     H41815   9.256  11.532  12.363 -0.9200 -0.6539 -1.1102
  317MOL0     H41816   9.143  11.451  12.631 -0.1334  0.3485 -1.2686
  317MOL0     H41817   9.310  11.485  12.575  0.0545  0.8236 -2.1561
  317MOL0     H41818   9.095  11.698  12.631  0.3616  1.0209 -1.4942
  317MOL0     H41819   9.261  11.716  12.555  2.9196 -2.0126  1.2540
  317MOL0     H41820   9.364  11.651  12.760 -0.2353  0.3439  0.6951
  317MOL0     H41821   9.237  11.564  12.815  6.0138 -1.6996 -0.6793
  317MOL0     H41822   9.222  11.862  12.758 -0.6308 -2.2104 -2.5123
  317MOL0     H41823   9.113  11.780  12.861  0.1227 -0.1428 -1.4668
  317MOL0     H41824   9.293  11.937  12.988  0.6145  0.0910 -0.4388
  317MOL0     H41825   9.405  11.841  12.920 -0.6058  0.9445 -2.6119
  317MOL0     H41826   9.459  11.244  12.133 -0.8743  1.4653 -0.0686
  317MOL0     H41827   9.529  11.103  11.942 -0.3367 -0.5082  0.3505
  317MOL0     H41828   9.471  10.766  11.698 -1.8782  0.7652  0.6422
  317MOL0     H41829   9.532  10.592  11.550 -2.9500 -1.9432 -0.1856
  317MOL0     H41830   8.720   9.164  10.683  0.0688  2.1579 -0.5547
  317MOL0     H41831   8.656   8.940  10.645 -1.5082  0.9501 -2.6506
  317MOL0     H41832   8.595   8.605  10.372  0.3532 -0.0288  0.7291
  317MOL0     H41833   8.515   8.401  10.271  0.8331 -1.0743 -1.3970
  317MOL0     H41834   8.735   8.047  10.301 -6.1669  1.6671  1.1042
  317MOL0     H41835   8.820   8.085  10.147 -0.2277 -0.2046 -0.4533
  317MOL0     H41836   8.655   7.868  10.180  1.6291 -0.0465 -1.1531
  317MOL0     H41837   8.532   7.990  10.137 -0.0139  0.5172  1.5994
  317MOL0     H41838   8.784   7.937   9.971  0.2546  2.6183 -0.7599
  317MOL0     H41839   8.647   8.042   9.932 -3.5236 -1.1768 -2.2779
  317MOL0     H41840   8.508   7.866   9.876 -1.1905 -4.3461 -1.2819
  317MOL0     H41841   8.652   7.859   9.783  0.5097  2.1451 -0.5686
  317MOL0     H41842   8.649   7.494   9.999  0.3261  0.3266  0.0130
  317MOL0     H41843   8.909   8.253  10.275  0.9692  1.0639  0.4434
  317MOL0     H41844   8.981   8.422  10.407 -1.2718 -0.4846  0.9110
  318MOL0     O41845   7.595   4.898   7.233  0.6062  0.4838 -0.7867
  318MOL0     C41846   7.516   4.879   7.139 -0.4211  0.2898  0.0576
  318MOL0     O41847   7.517   4.761   7.069  0.3277 -0.4375  0.4439
  318MOL0     C41848   7.553   4.643   7.127  0.0689  0.8430 -0.5963
  318MOL0     C41849   7.593   4.613   7.260 -0.4829 -0.5201 -0.3039
  318MOL0     C41850   7.604   4.484   7.308 -0.2473  0.3658 -0.6439
  318MOL0     C41851   7.598   4.371   7.225  0.3080 -0.8228 -0.8120
  318MOL0     O41852   7.642   4.246   7.268 -0.2019  0.1189 -0.2740
  318MOL0     C41853   7.613   4.125   7.190  0.5651  0.0841 -0.7814
  318MOL0     C41854   7.635   3.992   7.272  0.5373 -0.2225  0.0984
  318MOL0     C41855   7.780   3.949   7.268 -0.3212  0.2945  0.0786
  318MOL0     C41856   7.796   3.826   7.351  0.1670 -0.1715 -0.1872
  318MOL0     C41857   7.934   3.758   7.335  0.3930  0.0554 -0.8893
  318MOL0     C41858   8.053   3.852   7.338  0.4204 -0.9294  0.4269
  318MOL0     C41859   8.076   3.914   7.473  0.3354  0.3489 -0.5721
  318MOL0     C41860   8.139   3.822   7.583  0.2083  0.4614  0.1930
  318MOL0     N41861   8.251   3.886   7.657  0.2108  0.2645  0.5368
  318MOL0     C41862   8.236   3.926   7.792  0.4413  0.8566  1.2459
  318MOL0     C41863   8.357   3.952   7.832 -0.4273 -0.8644  0.3913
  318MOL0     C41864   8.396   4.026   7.960  0.2679 -0.3055  0.6983
  318MOL0     C41865   8.516   4.115   7.934  0.1720  0.5228 -0.3172
  318MOL0     C41866   8.475   4.224   7.834 -0.4333 -0.3074  0.6647
  318MOL0     C41867   8.579   4.346   7.826  0.8024  0.3022 -0.3335
  318MOL0     O41868   8.626   4.365   7.685  0.4045  0.5427 -0.5180
  318MOL0     C41869   8.698   4.477   7.657  0.0727 -0.7039 -0.2950
  318MOL0     C41870   8.754   4.563   7.760  0.6171 -0.5237 -0.4013
  318MOL0     C41871   8.822   4.672   7.718 -0.3098  0.2486 -0.3227
  318MOL0     C41872   8.847   4.697   7.587 -0.4846 -0.9373  0.5111
  318MOL0     C41873   8.936   4.818   7.562  0.2819  0.0971  0.2001
  318MOL0     O41874   8.936   4.933   7.642  0.0403  0.9586  0.6133
  318MOL0     C41875   9.043   5.023   7.626 -0.7085  0.2454 -0.0270
  318MOL0     C41876   9.177   4.974   7.614  0.2798 -0.8552 -0.5599
  318MOL0     C41877   9.280   5.064   7.607 -0.3138 -0.3159  0.8066
  318MOL0     C41878   9.257   5.207   7.604  1.0043 -0.7754  0.1188
  318MOL0     O41879   9.359   5.293   7.592  0.0514  0.2458  0.2068
  318MOL0     C41880   9.375   5.397   7.692 -0.5017  0.4926  0.0074
  318MOL0     C41881   9.497   5.492   7.656  0.0809  0.0646  0.2041
  318MOL0     C41882   9.534   5.590   7.767 -0.1785 -0.0241  1.9122
  318MOL0     C41883   9.474   5.723   7.742  0.0108 -0.6677 -0.1120
  318MOL0     C41884   9.550   5.836   7.820  0.4511 -0.6580  0.2428
  318MOL0     C41885   9.535   5.970   7.734  0.4946  0.0466  1.1051
  318MOL0     C41886   9.600   6.085   7.792  0.4029 -0.5591 -1.1518
  318MOL0     C41887   9.540   6.213   7.751 -0.4202  0.3908 -0.0939
  318MOL0    Cl41888   9.578   6.222   7.578 -0.0414  0.2799  0.2893
  318MOL0     C41889   9.128   5.246   7.613 -0.0399 -0.0189  0.3833
  318MOL0     C41890   9.020   5.161   7.630  0.4235 -0.8052 -0.2724
  318MOL0     O41891   9.001   4.800   7.455  0.1125  0.1471  0.3126
  318MOL0     C41892   8.801   4.621   7.485  0.4599  0.3117 -0.0324
  318MOL0     C41893   8.720   4.509   7.523  0.3350  0.5065  0.2451
  318MOL0     N41894   8.441   3.901   7.736  0.0296  0.2101  0.0098
  318MOL0     N41895   8.381   3.859   7.635 -0.7540  1.2133  0.4779
  318MOL0     C41896   7.554   4.401   7.101 -0.0134  0.5328 -0.0344
  318MOL0     C41897   7.525   4.526   7.051 -0.7868 -1.7083  0.1473
  318MOL0     C41898   7.409   4.982   7.101 -0.0454  0.1800 -0.2446
  318MOL0     C41899   7.377   5.079   7.192  0.1493 -0.5665 -0.0841
  318MOL0     C41900   7.284   5.182   7.168 -0.0928 -1.0895  1.0471
  318MOL0     C41901   7.201   5.177   7.058 -0.3153 -0.4061  0.4861
  318MOL0     O41902   7.091   5.260   7.049  0.3503 -1.1364 -0.2541
  318MOL0     C41903   7.064   5.315   6.920  0.4931  0.1187 -0.5751
  318MOL0     C41904   7.062   5.464   6.925 -0.3512 -0.5890 -0.3981
  318MOL0     C41905   7.012   5.533   6.794 -0.1505  0.6996  0.6238
  318MOL0     C41906   7.121   5.558   6.688  0.6472  0.3349 -0.2165
  318MOL0     C41907   7.176   5.442   6.618  0.1193  0.1395 -0.1475
  318MOL0     C41908   7.208   5.346   6.559  0.2541  0.8062 -0.2779
  318MOL0     C41909   7.234   5.085   6.959  0.6636  0.8227  0.2242
  318MOL0     C41910   7.342   4.992   6.979 -0.4892 -0.6067 -1.3407
  318MOL0     H41911   7.611   4.691   7.334 -2.1793 -0.6856  0.3229
  318MOL0     H41912   7.646   4.477   7.408  3.4401  2.1727 -1.8733
  318MOL0     H41913   7.667   4.120   7.095 -1.3503  0.4526 -1.9481
  318MOL0     H41914   7.512   4.123   7.149 -0.1256 -5.7273  0.3556
  318MOL0     H41915   7.583   3.912   7.218  0.9300  0.6843 -1.7022
  318MOL0     H41916   7.603   4.010   7.375 -0.0177 -1.2589  0.1165
  318MOL0     H41917   7.837   4.032   7.311  0.9928 -1.6355  2.3288
  318MOL0     H41918   7.794   3.945   7.159  0.2287  2.0846  0.0466
  318MOL0     H41919   7.772   3.856   7.454 -0.6652  0.4029 -0.5478
  318MOL0     H41920   7.735   3.744   7.313  0.8323 -0.5398 -0.4876
  318MOL0     H41921   7.924   3.711   7.237  0.7160 -0.8874 -0.4824
  318MOL0     H41922   7.962   3.679   7.405  2.7757  1.2731 -0.3847
  318MOL0     H41923   8.027   3.929   7.265 -0.3407  2.1636  3.7141
  318MOL0     H41924   8.143   3.791   7.326  3.5197  3.4266 -0.9656
  318MOL0     H41925   8.153   3.987   7.446  2.6488 -1.7583 -0.0924
  318MOL0     H41926   7.988   3.966   7.510  1.5815  1.6586  0.7011
  318MOL0     H41927   8.161   3.721   7.547 -0.2592 -0.6103  2.6657
  318MOL0     H41928   8.061   3.795   7.655  0.2856 -4.3182 -1.1906
  318MOL0     H41929   8.140   3.931   7.843 -0.6436  2.7107 -0.8177
  318MOL0     H41930   8.421   3.946   8.030  0.8530 -1.3877 -0.7087
  318MOL0     H41931   8.310   4.083   7.998 -0.1035 -0.3078 -0.1240
  318MOL0     H41932   8.596   4.057   7.887 -0.2097  2.8812 -4.3100
  318MOL0     H41933   8.551   4.163   8.026 -1.0302 -0.6893  0.8198
  318MOL0     H41934   8.471   4.181   7.734 -0.4364  0.1783  0.4531
  318MOL0     H41935   8.376   4.259   7.863 -0.5407  0.0186 -0.0860
  318MOL0     H41936   8.669   4.317   7.881 -0.1167  0.0150  1.0826
  318MOL0     H41937   8.544   4.438   7.874  2.8984 -0.0545  2.0984
  318MOL0     H41938   8.736   4.560   7.867  0.0636 -2.1034 -0.5037
  318MOL0     H41939   8.861   4.731   7.800  1.4738 -0.9980 -0.2100
  318MOL0     H41940   9.200   4.868   7.612  0.3769 -0.8868  0.8626
  318MOL0     H41941   9.372   5.014   7.579 -1.6254 -0.7630 -3.3720
  318MOL0     H41942   9.402   5.341   7.782 -2.6748 -0.6831 -0.0246
  318MOL0     H41943   9.289   5.460   7.716 -0.0531  0.6311  1.3135
  318MOL0     H41944   9.457   5.531   7.562 -3.6239 -4.6350 -0.5168
  318MOL0     H41945   9.580   5.432   7.618  0.7609  1.2232 -0.2134
  318MOL0     H41946   9.643   5.587   7.760 -0.2588 -1.2432  0.8633
  318MOL0     H41947   9.510   5.540   7.862  0.2771 -0.5978  1.7326
  318MOL0     H41948   9.476   5.751   7.637  2.2455  0.6473  0.2229
  318MOL0     H41949   9.371   5.731   7.780 -0.3050 -1.9944 -0.6407
  318MOL0     H41950   9.654   5.811   7.845  1.3299 -0.2838 -2.7078
  318MOL0     H41951   9.492   5.852   7.911  0.7526  0.0080  0.3214
  318MOL0     H41952   9.427   5.972   7.718  0.7593 -1.1177 -1.2734
  318MOL0     H41953   9.574   5.965   7.632 -1.7624  0.0949  0.1760
  318MOL0     H41954   9.590   6.089   7.901 -0.3211 -0.3587 -1.2222
  318MOL0     H41955   9.704   6.070   7.761  1.2674  0.7949  0.8374
  318MOL0     H41956   9.578   6.292   7.816 -0.6764  0.3522  0.1049
  318MOL0     H41957   9.433   6.195   7.762  0.1250 -3.0904  0.8167
  318MOL0     H41958   9.115   5.354   7.619 -0.3493  0.0663 -1.3197
  318MOL0     H41959   8.919   5.200   7.640 -0.2958 -1.5656 -3.4425
  318MOL0     H41960   8.824   4.646   7.382 -0.5897  4.5404  0.5968
  318MOL0     H41961   8.690   4.436   7.448 -0.8642  1.2446 -0.0236
  318MOL0     H41962   7.550   4.326   7.022 -2.7225  1.1543 -0.5762
  318MOL0     H41963   7.491   4.534   6.948 -0.8332 -3.5754 -0.0094
  318MOL0     H41964   7.400   5.072   7.298  1.5127  0.0163 -0.3156
  318MOL0     H41965   7.258   5.255   7.243  1.7493 -1.2938  1.9560
  318MOL0     H41966   6.977   5.268   6.873  0.9454  1.0772 -2.4683
  318MOL0     H41967   7.139   5.280   6.849  0.2179 -2.0282  0.1160
  318MOL0     H41968   6.999   5.503   7.006  1.3242 -1.5566  1.4593
  318MOL0     H41969   7.164   5.491   6.956  0.3232 -0.2969 -2.6752
  318MOL0     H41970   6.954   5.624   6.810 -0.6580  0.5798 -0.4533
  318MOL0     H41971   6.941   5.465   6.745  0.1314 -0.4971  1.8098
  318MOL0     H41972   7.080   5.608   6.599  1.0749 -0.8806 -1.1080
  318MOL0     H41973   7.202   5.619   6.728  4.2700 -3.6114 -0.8890
  318MOL0     H41974   7.253   5.251   6.536  0.7448  1.2046 -1.0219
  318MOL0     H41975   7.180   5.072   6.865  2.4482 -0.0131 -0.7318
  318MOL0     H41976   7.374   4.928   6.897  1.5858  1.8594 -2.5707
  319MOL0     O41977   5.608   9.532   6.903 -0.8510  0.0675 -0.6247
  319MOL0     C41978   5.718   9.504   6.862  0.2143 -0.4886 -0.6925
  319MOL0     O41979   5.818   9.440   6.940 -0.2078 -0.1603  0.2843
  319MOL0     C41980   5.796   9.431   7.071 -0.0058  0.9081  0.2917
  319MOL0     C41981   5.821   9.534   7.164 -0.0768  0.1367  1.1644
  319MOL0     C41982   5.799   9.502   7.298 -1.3496 -0.6867  0.0909
  319MOL0     C41983   5.749   9.383   7.338  0.0726 -0.5067  0.4023
  319MOL0     O41984   5.732   9.339   7.457  0.2092  0.8004 -0.0830
  319MOL0     C41985   5.710   9.418   7.572 -0.6361  1.0762  0.4887
  319MOL0     C41986   5.835   9.460   7.656 -0.2493  0.7327 -0.1523
  319MOL0     C41987   5.909   9.331   7.699  0.3256 -0.3250 -0.6724
  319MOL0     C41988   6.022   9.381   7.791 -0.5144 -0.4379  1.0208
  319MOL0     C41989   6.125   9.269   7.826  0.4116  0.1214 -0.0943
  319MOL0     C41990   6.063   9.181   7.944  0.3574  0.1674  0.0033
  319MOL0     C41991   6.148   9.070   7.986  0.1128 -0.4987 -0.6118
  319MOL0     C41992   6.181   8.963   7.881  1.6225 -0.5138 -0.3297
  319MOL0     N41993   6.271   8.868   7.940 -0.1767  0.2222 -0.0330
  319MOL0     C41994   6.241   8.731   7.974  1.5186  0.1866  1.3823
  319MOL0     C41995   6.355   8.692   8.029 -0.2005 -0.2113 -0.5221
  319MOL0     C41996   6.384   8.559   8.088  0.0978 -0.8051 -0.1538
  319MOL0     C41997   6.486   8.486   7.998  0.8520  0.7917  0.0175
  319MOL0     C41998   6.516   8.350   8.061  0.3018 -0.1880  0.0925
  319MOL0     C41999   6.641   8.265   8.024 -0.3208 -0.5198 -0.1440
  319MOL0     O42000   6.646   8.217   7.889 -0.2866  0.4745 -0.1196
  319MOL0     C42001   6.767   8.183   7.829 -0.8967 -0.3916 -0.9014
  319MOL0     C42002   6.844   8.080   7.889  0.8360 -0.1798 -0.4983
  319MOL0     C42003   6.964   8.026   7.819 -0.1958 -0.0046 -0.0484
  319MOL0     C42004   7.000   8.075   7.697  0.1628  0.0628  1.0764
  319MOL0     C42005   7.135   8.026   7.631 -0.1048  1.1954 -0.2832
  319MOL0     O42006   7.151   8.037   7.498  0.5427  0.2642  0.9140
  319MOL0     C42007   7.268   7.999   7.437 -0.6180  0.3231 -0.0320
  319MOL0     C42008   7.310   8.076   7.332  0.4896  0.2834  0.5898
  319MOL0     C42009   7.420   8.034   7.255 -0.6261  1.1944 -0.2027
  319MOL0     C42010   7.486   7.912   7.281 -0.1152 -0.4469 -0.0801
  319MOL0     O42011   7.601   7.897   7.213 -0.0838  1.0060  0.3043
  319MOL0     C42012   7.638   7.771   7.169  0.4472  0.3210 -0.6281
  319MOL0     C42013   7.595   7.723   7.030 -0.3980  0.1557  0.6705
  319MOL0     C42014   7.439   7.707   7.029 -0.1772 -0.2886  0.5429
  319MOL0     C42015   7.392   7.659   6.885 -0.1283  0.3033 -0.5087
  319MOL0     C42016   7.249   7.671   6.881  1.0326 -1.3517  0.0186
  319MOL0     C42017   7.189   7.641   6.742  0.3392  0.5312 -0.1693
  319MOL0     C42018   7.167   7.485   6.709  0.6729  0.4096 -0.5753
  319MOL0     C42019   7.080   7.399   6.798  0.1477 -0.3417  0.6685
  319MOL0    Cl42020   6.910   7.437   6.765  0.1799  0.3184 -0.0061
  319MOL0     C42021   7.446   7.842   7.395  1.0157  0.0351 -0.6108
  319MOL0     C42022   7.332   7.871   7.465 -0.7615  0.8703 -0.1314
  319MOL0     O42023   7.228   8.000   7.713  0.7658  0.3962  0.7082
  319MOL0     C42024   6.921   8.170   7.638 -0.2919  0.6744  0.3304
  319MOL0     C42025   6.814   8.228   7.704  0.1224 -0.8726 -0.1579
  319MOL0     N42026   6.439   8.804   8.039  0.0786 -0.4889  0.3364
  319MOL0     N42027   6.391   8.905   7.986 -0.0080 -0.4770 -0.7170
  319MOL0     C42028   5.722   9.284   7.247  0.4010 -0.1355 -0.1694
  319MOL0     C42029   5.747   9.310   7.116  0.1349 -0.1363  0.3007
  319MOL0     C42030   5.774   9.571   6.744 -0.0167  0.8310 -0.4719
  319MOL0     C42031   5.910   9.543   6.711 -0.5426 -0.4048  0.0875
  319MOL0     C42032   5.974   9.618   6.608  0.0014 -0.8431 -0.4666
  319MOL0     C42033   5.896   9.705   6.525 -0.2456 -0.3877 -0.0756
  319MOL0     O42034   5.924   9.752   6.406 -0.0823  0.2942  0.0647
  319MOL0     C42035   6.030   9.697   6.315  0.3531 -0.3439 -0.1184
  319MOL0     C42036   5.973   9.643   6.185  0.0050  0.1515 -1.1477
  319MOL0     C42037   5.936   9.761   6.098 -1.1650  0.2196  0.0061
  319MOL0     C42038   5.842   9.706   5.997 -0.2317  0.3117 -1.0083
  319MOL0     C42039   5.900   9.609   5.903  0.8015 -0.2204 -0.8066
  319MOL0     C42040   5.966   9.540   5.829 -0.8916 -0.2195  0.5351
  319MOL0     C42041   5.778   9.750   6.574  0.4875  0.3976 -0.7087
  319MOL0     C42042   5.710   9.674   6.675 -0.1606 -0.2596  0.2759
  319MOL0     H42043   5.865   9.626   7.125 -0.7181  0.3688  0.9767
  319MOL0     H42044   5.825   9.564   7.383 -1.8641  0.7440 -0.7396
  319MOL0     H42045   5.655   9.346   7.633 -2.9485  1.1597 -1.3494
  319MOL0     H42046   5.639   9.498   7.548 -2.2430 -0.3905  0.0897
  319MOL0     H42047   5.801   9.496   7.753  1.5444  1.4821  0.2319
  319MOL0     H42048   5.897   9.541   7.614  1.1959 -0.9741 -1.4731
  319MOL0     H42049   5.947   9.266   7.620  1.9560 -0.1205 -0.0904
  319MOL0     H42050   5.839   9.272   7.759 -0.0788  0.1391 -0.6740
  319MOL0     H42051   6.082   9.463   7.752  1.4570  0.9291  6.0821
  319MOL0     H42052   5.983   9.428   7.882 -3.0641  0.1571 -0.2745
  319MOL0     H42053   6.224   9.300   7.860  0.5078 -0.1202 -0.1541
  319MOL0     H42054   6.148   9.201   7.744  2.0818  2.1990 -1.4523
  319MOL0     H42055   5.972   9.134   7.907  1.3569 -1.4821 -0.4445
  319MOL0     H42056   6.045   9.234   8.038 -0.4311 -2.6846  1.5558
  319MOL0     H42057   6.238   9.117   8.027  0.7131 -1.4620 -0.8007
  319MOL0     H42058   6.095   9.028   8.072  1.8688  2.5167  2.2122
  319MOL0     H42059   6.232   9.008   7.795  2.6468 -0.7293  0.1498
  319MOL0     H42060   6.095   8.904   7.847 -0.4809  2.7383 -1.1105
  319MOL0     H42061   6.145   8.683   7.960  1.4822  0.3137  1.1987
  319MOL0     H42062   6.292   8.504   8.108 -1.4717  1.8978  0.5334
  319MOL0     H42063   6.430   8.586   8.183 -0.5896 -0.8946  0.2119
  319MOL0     H42064   6.577   8.547   8.000  0.1549  1.9562  2.9817
  319MOL0     H42065   6.448   8.479   7.896  2.5242  0.4223 -0.5998
  319MOL0     H42066   6.516   8.354   8.170  1.2936 -1.9032  0.1912
  319MOL0     H42067   6.429   8.289   8.034  1.8923 -1.8519 -1.5421
  319MOL0     H42068   6.654   8.181   8.093  0.8654 -1.1344 -1.0774
  319MOL0     H42069   6.728   8.331   8.025 -1.4519  1.0514 -1.2058
  319MOL0     H42070   6.815   8.039   7.985 -3.4910 -1.5608 -2.1178
  319MOL0     H42071   7.030   7.956   7.871 -0.7567  0.1773  0.9324
  319MOL0     H42072   7.249   8.161   7.302 -1.8646 -0.4323  2.9420
  319MOL0     H42073   7.448   8.098   7.172 -3.5796 -1.0294 -3.2000
  319MOL0     H42074   7.613   7.696   7.246 -0.4704  2.0386  0.8124
  319MOL0     H42075   7.747   7.769   7.154  0.4392 -0.3922 -0.6421
  319MOL0     H42076   7.638   7.626   7.006 -2.6917 -0.8427  0.2760
  319MOL0     H42077   7.626   7.793   6.952 -3.6918  2.0851  0.8987
  319MOL0     H42078   7.390   7.800   7.059  1.3807 -0.0357  2.5235
  319MOL0     H42079   7.398   7.643   7.108  0.3904  0.3532  1.3700
  319MOL0     H42080   7.438   7.733   6.819 -0.2866 -2.6784 -4.2563
  319MOL0     H42081   7.436   7.561   6.868 -3.1319 -1.0719 -0.9492
  319MOL0     H42082   7.226   7.773   6.912  2.7386 -0.9427  0.0618
  319MOL0     H42083   7.211   7.615   6.966 -0.1212 -1.7796 -0.7488
  319MOL0     H42084   7.240   7.686   6.656 -2.5272 -0.4075 -2.5205
  319MOL0     H42085   7.090   7.687   6.736  0.1311  0.0120 -1.0141
  319MOL0     H42086   7.116   7.472   6.613  0.0215 -3.1617  0.1089
  319MOL0     H42087   7.269   7.444   6.707  0.1918 -0.7802 -1.2734
  319MOL0     H42088   7.095   7.417   6.905  0.8175  2.6225  0.1647
  319MOL0     H42089   7.098   7.292   6.782 -0.1550 -0.2704 -0.2023
  319MOL0     H42090   7.505   7.757   7.429 -0.0997  0.4139  2.5796
  319MOL0     H42091   7.293   7.816   7.550 -0.0907  3.9785  2.3406
  319MOL0     H42092   6.954   8.202   7.539  0.7186  0.4163  0.5781
  319MOL0     H42093   6.753   8.307   7.662 -0.4599 -1.0341  0.3589
  319MOL0     H42094   5.693   9.185   7.282 -1.1087  0.5813  0.6836
  319MOL0     H42095   5.729   9.231   7.044 -1.4923  2.3782 -2.2577
  319MOL0     H42096   5.979   9.488   6.774  2.7972  2.6442 -0.5618
  319MOL0     H42097   6.078   9.604   6.580  0.9858  1.1121  1.8409
  319MOL0     H42098   6.085   9.616   6.365 -2.9432 -1.9997  1.1009
  319MOL0     H42099   6.103   9.776   6.294 -0.4918 -0.2322 -3.0583
  319MOL0     H42100   6.042   9.567   6.147 -0.2745 -1.3621  1.1974
  319MOL0     H42101   5.886   9.581   6.206 -0.1890  0.2560 -1.6130
  319MOL0     H42102   6.028   9.794   6.048 -0.8423  1.6434  1.4819
  319MOL0     H42103   5.886   9.845   6.146 -0.8519  0.2221  0.3293
  319MOL0     H42104   5.754   9.654   6.037  1.2000 -1.1627  0.3394
  319MOL0     H42105   5.821   9.797   5.940  0.6206  2.2301  1.5740
  319MOL0     H42106   6.028   9.465   5.784 -0.6860 -0.4019  1.1102
  319MOL0     H42107   5.726   9.808   6.498 -2.2119 -0.8956  0.0055
  319MOL0     H42108   5.606   9.698   6.699 -1.0197 -2.1384 -1.2692
  320MOL0     O42109   0.694   2.871  10.224  0.3304  0.2534 -0.5234
  320MOL0     C42110   0.660   2.946  10.316 -1.1163 -0.9611 -0.3216
  320MOL0     O42111   0.553   3.032  10.312  0.0385 -0.5829 -0.1302
  320MOL0     C42112   0.461   2.984  10.225 -0.3275 -0.1163  0.7031
  320MOL0     C42113   0.398   2.869  10.259 -0.9642  0.3415 -0.5973
  320MOL0     C42114   0.302   2.816  10.170  0.2597  0.4050  0.6981
  320MOL0     C42115   0.268   2.878  10.051  0.5302 -0.6440 -0.6215
  320MOL0     O42116   0.186   2.807   9.966  0.4570  0.0921 -1.3333
  320MOL0     C42117   0.174   2.827   9.827 -0.4021 -0.2750  0.2356
  320MOL0     C42118   0.114   2.706   9.779  0.4229  0.6642  0.5828
  320MOL0     C42119   0.048   2.739   9.634 -0.0073  1.2698 -0.4303
  320MOL0     C42120   0.156   2.750   9.520 -0.0460  0.4804 -0.5935
  320MOL0     C42121   0.074   2.748   9.390  0.5239  0.3163  0.8485
  320MOL0     C42122   0.145   2.747   9.259 -0.3839 -0.8518  0.0266
  320MOL0     C42123   0.234   2.872   9.239 -0.2072  1.1554 -0.7635
  320MOL0     C42124   0.296   2.891   9.093  0.5388  0.4851  0.6418
  320MOL0     N42125   0.359   2.780   9.030 -0.2743 -0.5035 -0.3150
  320MOL0     C42126   0.288   2.702   8.951  0.2456 -0.2717 -1.4085
  320MOL0     C42127   0.367   2.596   8.921  0.1009 -0.3928 -0.3312
  320MOL0     C42128   0.314   2.472   8.848 -0.3182 -0.0139 -0.2512
  320MOL0     C42129   0.360   2.348   8.923 -0.7132  0.8857 -0.8073
  320MOL0     C42130   0.343   2.362   9.075  1.3579 -0.1943 -0.6144
  320MOL0     C42131   0.198   2.406   9.118 -0.9326  0.3939  1.3170
  320MOL0     O42132   0.110   2.304   9.072  0.4579  0.3584  0.1907
  320MOL0     C42133   0.096   2.179   9.137  0.2783  1.1485 -0.2096
  320MOL0     C42134   0.151   2.153   9.262  0.3433  0.0960 -0.3173
  320MOL0     C42135   0.140   2.027   9.326  0.9448  0.4174 -0.1191
  320MOL0     C42136   0.069   1.920   9.267  0.4629  1.5516 -0.0602
  320MOL0     C42137   0.044   1.790   9.333 -0.5490 -0.2394  1.4359
  320MOL0     O42138   0.001   1.685   9.244 -0.3412  0.4553 -0.4095
  320MOL0     C42139  -0.005   1.555   9.280 -0.0721  0.3581 -0.3636
  320MOL0     C42140   0.067   1.492   9.387  0.0595 -0.2065  1.0454
  320MOL0     C42141   0.041   1.363   9.421  0.3755 -0.1459  0.2937
  320MOL0     C42142  -0.058   1.289   9.350  0.5501  1.1208 -0.3867
  320MOL0     O42143  -0.086   1.153   9.366 -0.2773  0.5705 -0.2211
  320MOL0     C42144   0.007   1.073   9.445 -0.0221 -0.1302 -0.8360
  320MOL0     C42145  -0.038   0.923   9.458  0.3005  0.5187  0.6306
  320MOL0     C42146   0.006   0.850   9.327 -0.4154 -0.2692 -1.2224
  320MOL0     C42147  -0.050   0.705   9.338  0.5967 -0.0496 -0.0517
  320MOL0     C42148   0.069   0.623   9.293  0.4357  0.3685 -0.4203
  320MOL0     C42149   0.017   0.494   9.241 -0.2510 -0.0555 -0.5827
  320MOL0     C42150   0.129   0.383   9.235 -0.1499  0.4147  0.2680
  320MOL0     C42151   0.062   0.263   9.172  0.1387 -0.4724  1.1365
  320MOL0    Cl42152   0.051   0.282   8.993 -0.0476  0.2319  0.3158
  320MOL0     C42153  -0.136   1.351   9.252 -0.1709 -0.6613  0.2903
  320MOL0     C42154  -0.104   1.477   9.219  1.1605 -0.2154  0.5899
  320MOL0     O42155   0.078   1.776   9.451  0.3082 -0.4255  0.2709
  320MOL0     C42156   0.010   1.944   9.139  0.1298  0.2661 -0.3620
  320MOL0     C42157   0.029   2.070   9.079 -0.8335 -0.7037  0.6581
  320MOL0     N42158   0.487   2.617   8.976  0.1633 -0.2244 -0.0305
  320MOL0     N42159   0.485   2.731   9.041  0.1227 -1.3439 -0.1637
  320MOL0     C42160   0.334   3.002  10.021  1.2308  1.3995 -0.0767
  320MOL0     C42161   0.428   3.058  10.109  0.6134 -0.3660  0.0728
  320MOL0     C42162   0.748   2.953  10.439  1.0636  0.5572 -0.3587
  320MOL0     C42163   0.722   3.041  10.536  0.2453  0.2829  0.0953
  320MOL0     C42164   0.812   3.041  10.640 -0.4398 -0.1488  0.1471
  320MOL0     C42165   0.912   2.940  10.658 -0.0964 -0.2781 -0.3721
  320MOL0     O42166   1.003   2.924  10.760  0.2747 -0.3611 -0.6462
  320MOL0     C42167   0.965   3.003  10.880 -0.9312 -0.0176  0.5684
  320MOL0     C42168   1.059   2.957  10.995  0.3006 -0.5487 -0.4181
  320MOL0     C42169   1.086   3.077  11.081  0.1007  0.9151 -0.3687
  320MOL0     C42170   1.189   3.180  11.027 -0.3524  0.1313  0.0812
  320MOL0     C42171   1.227   3.284  11.125 -0.0049  0.2516  0.7310
  320MOL0     C42172   1.260   3.382  11.201  0.3246 -0.3268  0.3406
  320MOL0     C42173   0.926   2.849  10.563 -0.5758  0.0511 -0.3206
  320MOL0     C42174   0.850   2.855  10.451  0.7252 -0.0428  0.4363
  320MOL0     H42175   0.421   2.817  10.351 -3.2690  2.3772  1.2882
  320MOL0     H42176   0.255   2.721  10.193  2.3260 -0.7189  0.4997
  320MOL0     H42177   0.275   2.847   9.791 -0.7147  1.0122  0.0392
  320MOL0     H42178   0.112   2.915   9.810  1.0664  0.7020 -0.2774
  320MOL0     H42179   0.036   2.661   9.841 -0.0307 -0.3713 -0.6857
  320MOL0     H42180   0.191   2.628   9.772 -1.9508 -1.9080  1.1502
  320MOL0     H42181  -0.006   2.835   9.638 -1.2894  0.6325 -1.5273
  320MOL0     H42182  -0.022   2.661   9.601 -0.8964  0.5791  2.7678
  320MOL0     H42183   0.233   2.825   9.539 -0.4014  0.7570 -0.2206
  320MOL0     H42184   0.204   2.652   9.520 -1.2776 -0.1502  0.0235
  320MOL0     H42185  -0.001   2.827   9.396 -0.7476 -0.9651  3.4530
  320MOL0     H42186   0.016   2.655   9.388  3.0155 -1.3543 -1.2502
  320MOL0     H42187   0.067   2.730   9.184 -1.3233 -1.5056  1.1096
  320MOL0     H42188   0.202   2.656   9.280 -0.6279 -1.2777 -1.0562
  320MOL0     H42189   0.172   2.960   9.257 -1.9575  0.0177 -0.9686
  320MOL0     H42190   0.319   2.866   9.308 -1.3796  3.5814  1.0163
  320MOL0     H42191   0.364   2.976   9.082 -0.3884  0.9882 -1.8726
  320MOL0     H42192   0.217   2.918   9.024 -0.2235 -0.9974  0.8912
  320MOL0     H42193   0.181   2.709   8.932 -0.2831  0.7834  1.4068
  320MOL0     H42194   0.348   2.466   8.744 -1.5423  0.9225 -0.7313
  320MOL0     H42195   0.206   2.461   8.856 -0.1716 -2.6501 -0.8849
  320MOL0     H42196   0.460   2.327   8.885 -0.7257  0.6673 -0.7266
  320MOL0     H42197   0.297   2.263   8.895  0.2841  0.0203 -0.5199
  320MOL0     H42198   0.369   2.263   9.115 -1.0932 -0.4443  0.5120
  320MOL0     H42199   0.407   2.436   9.123 -0.5150  2.0605 -1.4238
  320MOL0     H42200   0.165   2.502   9.076  0.4832  0.4308  0.2458
  320MOL0     H42201   0.205   2.424   9.226 -1.1613 -1.1924  1.6228
  320MOL0     H42202   0.224   2.218   9.309  0.1023 -1.9318  3.2224
  320MOL0     H42203   0.214   2.008   9.404 -0.1442 -0.3285  0.7831
  320MOL0     H42204   0.145   1.538   9.446 -1.1571 -1.0424  3.4350
  320MOL0     H42205   0.088   1.308   9.501 -1.2176 -1.6679  0.2732
  320MOL0     H42206   0.008   1.107   9.549  2.1231 -2.6978  0.1088
  320MOL0     H42207   0.108   1.085   9.404  0.4141  2.3676  0.7872
  320MOL0     H42208  -0.144   0.912   9.483  0.2531  0.3542  0.3674
  320MOL0     H42209   0.018   0.882   9.542  1.7275 -1.5068 -1.2065
  320MOL0     H42210   0.115   0.851   9.318 -0.4795  0.4067 -2.0458
  320MOL0     H42211  -0.036   0.901   9.241 -1.1979  0.9753 -0.1285
  320MOL0     H42212  -0.076   0.679   9.441  0.9621 -0.8586 -0.1518
  320MOL0     H42213  -0.138   0.692   9.275 -0.2079 -0.1708  1.0579
  320MOL0     H42214   0.134   0.610   9.380 -0.7740  0.3389  0.5171
  320MOL0     H42215   0.122   0.669   9.209  0.3049  3.8618  1.2206
  320MOL0     H42216  -0.034   0.504   9.144  1.8122 -1.2191 -1.8631
  320MOL0     H42217  -0.055   0.466   9.318  0.4833 -2.5869 -0.7377
  320MOL0     H42218   0.207   0.423   9.170 -1.6845 -1.5728 -3.0861
  320MOL0     H42219   0.174   0.364   9.333  3.6634 -1.9600 -1.6999
  320MOL0     H42220  -0.045   0.242   9.186 -0.7201  0.7346 -2.4071
  320MOL0     H42221   0.113   0.172   9.205 -2.6326 -0.8890  5.0949
  320MOL0     H42222  -0.209   1.286   9.205  0.7918 -1.1650 -0.5515
  320MOL0     H42223  -0.165   1.530   9.146  1.7757  1.1703  1.0539
  320MOL0     H42224  -0.048   1.866   9.090 -0.2753  1.1472 -1.3305
  320MOL0     H42225  -0.017   2.086   8.982  0.5424  0.3563  0.1515
  320MOL0     H42226   0.313   3.046   9.924  1.1373 -1.3969 -1.4281
  320MOL0     H42227   0.484   3.150  10.090  2.0671 -1.6828 -2.5488
  320MOL0     H42228   0.642   3.115  10.540  0.0416  0.2807 -2.3022
  320MOL0     H42229   0.798   3.117  10.716  0.9692 -0.0472  0.3262
  320MOL0     H42230   0.859   2.992  10.907 -1.2844  1.4361 -0.1355
  320MOL0     H42231   0.969   3.105  10.840 -0.6737 -0.8539 -1.6954
  320MOL0     H42232   0.996   2.891  11.055  0.8352  2.0538  3.3691
  320MOL0     H42233   1.144   2.896  10.961  1.0750 -0.3461  1.0897
  320MOL0     H42234   1.114   3.038  11.179  0.8328  0.2775 -0.8164
  320MOL0     H42235   0.995   3.135  11.099  1.2566  3.1969 -1.4843
  320MOL0     H42236   1.278   3.122  11.001  0.3322  0.9143  0.6257
  320MOL0     H42237   1.164   3.249  10.945  1.1271 -0.6593 -1.0991
  320MOL0     H42238   1.294   3.466  11.258  1.7222  2.0032 -3.5485
  320MOL0     H42239   1.011   2.783  10.558 -0.5889  0.0506 -0.5271
  320MOL0     H42240   0.872   2.788  10.368 -1.6388 -0.0235 -0.2865
  321MOL0     O42241   3.912   0.450   0.539  0.1672 -0.2286 -0.0188
  321MOL0     C42242   3.937   0.357   0.614  0.4214 -0.3965 -0.8950
  321MOL0     O42243   4.047   0.286   0.629 -0.7559  0.3545 -0.8144
  321MOL0     C42244   4.160   0.306   0.558  0.4390  0.0084 -0.6999
  321MOL0     C42245   4.170   0.386   0.452 -0.5944 -0.7702 -0.6518
  321MOL0     C42246   4.295   0.406   0.378  0.0384 -0.3889 -0.9529
  321MOL0     C42247   4.412   0.340   0.430  0.1538  0.1834  0.5464
  321MOL0     O42248   4.535   0.342   0.368  0.0597 -0.8619 -0.2761
  321MOL0     C42249   4.587   0.470   0.350 -0.0296 -1.1754  0.0861
  321MOL0     C42250   4.729   0.457   0.319 -0.1538  0.3370 -0.3514
  321MOL0     C42251   4.804   0.396   0.450  0.0701 -0.0643  0.4196
  321MOL0     C42252   4.960   0.395   0.436 -0.8095 -0.1645  0.0175
  321MOL0     C42253   5.013   0.283   0.346 -0.0474  0.5726  0.0272
  321MOL0     C42254   5.030   0.133   0.413 -0.1241 -0.3129  0.4044
  321MOL0     C42255   5.040   0.022   0.310  0.7051 -0.0180  0.3954
  321MOL0     C42256   4.898  -0.011   0.242  0.2048  0.1197 -0.7554
  321MOL0     N42257   4.804  -0.055   0.342 -0.3755 -0.1237 -0.0883
  321MOL0     C42258   4.704   0.011   0.408  0.3697  0.6880 -0.8741
  321MOL0     C42259   4.648  -0.089   0.493  0.2208 -0.8184  0.1132
  321MOL0     C42260   4.525  -0.089   0.580  1.3490  0.1388  0.3589
  321MOL0     C42261   4.396  -0.125   0.502  1.2691  0.5985 -0.1087
  321MOL0     C42262   4.268  -0.119   0.595 -0.4136 -0.6718  0.4749
  321MOL0     C42263   4.142  -0.110   0.510 -0.2833  1.0642  0.8274
  321MOL0     O42264   4.020  -0.094   0.591 -0.1199 -0.3681  0.6455
  321MOL0     C42265   3.964  -0.203   0.654 -0.6787 -0.1766 -1.3594
  321MOL0     C42266   3.996  -0.338   0.632  0.0052  0.7093  0.6436
  321MOL0     C42267   3.915  -0.432   0.707 -0.3486 -0.0653  0.8414
  321MOL0     C42268   3.817  -0.385   0.794  0.4840  0.6990 -0.0499
  321MOL0     C42269   3.723  -0.484   0.866 -0.2900 -0.4627 -0.1848
  321MOL0     O42270   3.780  -0.607   0.909  0.2822 -0.8902  0.2564
  321MOL0     C42271   3.696  -0.699   0.963  0.8948  0.2356  0.1944
  321MOL0     C42272   3.714  -0.829   0.920 -0.2751  0.0564  0.6422
  321MOL0     C42273   3.639  -0.932   0.974 -1.4445  0.0083  0.9011
  321MOL0     C42274   3.543  -0.907   1.077 -1.1309  0.1783  0.4053
  321MOL0     O42275   3.467  -1.000   1.133  0.1131  0.3083 -0.4562
  321MOL0     C42276   3.408  -1.106   1.059 -0.0730 -0.9413  0.5040
  321MOL0     C42277   3.268  -1.131   1.119  0.1566  0.5447  0.2934
  321MOL0     C42278   3.197  -1.239   1.044  0.8316  1.3851  0.4301
  321MOL0     C42279   3.211  -1.385   1.096 -0.6615 -0.0110  0.6293
  321MOL0     C42280   3.159  -1.486   1.004  1.1327 -0.2556  0.4374
  321MOL0     C42281   3.187  -1.624   1.053  0.7745 -0.8133 -0.7301
  321MOL0     C42282   3.118  -1.727   0.964  0.2755  0.1087  0.2152
  321MOL0     C42283   3.190  -1.862   0.978  0.2725 -0.2515 -0.4776
  321MOL0    Cl42284   3.164  -1.938   0.813 -0.1716  0.2322 -0.2284
  321MOL0     C42285   3.532  -0.777   1.121  0.9186  0.6595 -0.2285
  321MOL0     C42286   3.604  -0.676   1.069 -0.4488 -0.7212 -0.6456
  321MOL0     O42287   3.600  -0.457   0.883  0.1664  0.1409  0.1025
  321MOL0     C42288   3.795  -0.249   0.808  0.3827  0.3251  0.0058
  321MOL0     C42289   3.870  -0.159   0.737 -0.6655 -0.2893  0.2489
  321MOL0     N42290   4.742  -0.194   0.498 -0.2684 -0.0795  0.8042
  321MOL0     N42291   4.824  -0.178   0.402  0.0407  0.0155 -0.6040
  321MOL0     C42292   4.397   0.266   0.555  0.9817 -0.8250 -0.1292
  321MOL0     C42293   4.270   0.243   0.613 -0.0992  0.4843 -0.0183
  321MOL0     C42294   3.842   0.327   0.723  0.2039 -0.3540  0.5160
  321MOL0     C42295   3.730   0.406   0.749 -0.0579  0.3221  0.6642
  321MOL0     C42296   3.649   0.394   0.858 -0.3432  0.2731  1.1941
  321MOL0     C42297   3.661   0.279   0.939  0.2130  0.0163  0.2220
  321MOL0     O42298   3.565   0.254   1.040  0.0502  0.3682  0.1338
  321MOL0     C42299   3.577   0.145   1.131  0.1001 -0.9719 -0.0258
  321MOL0     C42300   3.489   0.149   1.252 -0.5150  1.1875  0.7485
  321MOL0     C42301   3.493   0.275   1.339 -0.5567 -0.3534  0.7446
  321MOL0     C42302   3.628   0.328   1.382 -0.8016  0.0772  0.2690
  321MOL0     C42303   3.640   0.478   1.378  0.2209 -0.6582  0.0209
  321MOL0     C42304   3.667   0.600   1.366  0.4076 -0.7946  0.7517
  321MOL0     C42305   3.771   0.195   0.916 -0.0078  0.8391  0.9918
  321MOL0     C42306   3.864   0.220   0.814  1.2680  0.7573 -0.5080
  321MOL0     H42307   4.089   0.443   0.408  0.1281  0.7904 -0.0158
  321MOL0     H42308   4.310   0.457   0.283  1.9842 -3.6952 -2.5943
  321MOL0     H42309   4.573   0.538   0.434 -0.4838 -0.7085 -0.3598
  321MOL0     H42310   4.545   0.522   0.263  1.3410  1.8513  1.0985
  321MOL0     H42311   4.763   0.556   0.288 -2.8979  0.8438 -2.0895
  321MOL0     H42312   4.747   0.393   0.232  2.1461 -1.2116  1.1389
  321MOL0     H42313   4.783   0.292   0.477 -4.8745  0.4122 -0.7992
  321MOL0     H42314   4.778   0.462   0.534  0.4850  0.3608  0.2201
  321MOL0     H42315   4.984   0.488   0.384 -0.1067  0.1679  0.9162
  321MOL0     H42316   5.012   0.387   0.531  1.3560  3.8327 -0.6280
  321MOL0     H42317   5.116   0.303   0.314  0.9333  1.8151  3.4341
  321MOL0     H42318   4.947   0.285   0.259 -3.1659 -0.0540  2.2064
  321MOL0     H42319   4.942   0.115   0.476 -2.0109 -1.0692 -2.2970
  321MOL0     H42320   5.126   0.140   0.466  0.6056 -0.5029 -0.8688
  321MOL0     H42321   5.111   0.050   0.232 -0.9189  3.9493  0.1139
  321MOL0     H42322   5.079  -0.066   0.361  0.0898 -0.2940  0.4042
  321MOL0     H42323   4.930  -0.079   0.163  0.6246  0.3702 -0.8052
  321MOL0     H42324   4.864   0.085   0.203 -0.5079  0.7781  1.3590
  321MOL0     H42325   4.661   0.111   0.400 -1.6033 -0.2142 -2.3194
  321MOL0     H42326   4.514   0.013   0.620  4.7145  1.6620 -2.0985
  321MOL0     H42327   4.530  -0.162   0.661  1.7292 -0.7239 -0.4343
  321MOL0     H42328   4.411  -0.222   0.454 -0.4108  0.0534  0.3894
  321MOL0     H42329   4.409  -0.045   0.429 -0.9574  0.2935 -0.9165
  321MOL0     H42330   4.275  -0.212   0.651  1.6324 -1.5687 -1.1388
  321MOL0     H42331   4.256  -0.029   0.657  0.3477 -1.3084  1.5891
  321MOL0     H42332   4.129  -0.195   0.442 -3.6887  1.5820  0.6177
  321MOL0     H42333   4.154  -0.028   0.439 -0.8549 -1.8108 -2.9362
  321MOL0     H42334   4.059  -0.363   0.548  2.8644  0.3813  2.7592
  321MOL0     H42335   3.923  -0.540   0.701  0.3311  0.0182  0.1493
  321MOL0     H42336   3.771  -0.825   0.828 -0.4980 -0.0844  0.4982
  321MOL0     H42337   3.647  -1.036   0.942  1.0972 -0.2883  2.1966
  321MOL0     H42338   3.480  -1.188   1.061  1.5207  0.3423 -1.3478
  321MOL0     H42339   3.401  -1.092   0.951  3.3092 -1.9900  0.0208
  321MOL0     H42340   3.190  -1.056   1.134 -1.8703 -1.9686  3.5980
  321MOL0     H42341   3.276  -1.165   1.222  0.3010 -0.5061 -0.0516
  321MOL0     H42342   3.209  -1.250   0.936  1.7578 -4.2815  0.7898
  321MOL0     H42343   3.094  -1.204   1.058  0.8665  1.3233  0.8511
  321MOL0     H42344   3.316  -1.412   1.105 -1.0808 -2.1204 -0.1508
  321MOL0     H42345   3.165  -1.400   1.194  0.3340 -2.2047  0.8181
  321MOL0     H42346   3.215  -1.476   0.910 -0.3402 -0.5983 -0.5172
  321MOL0     H42347   3.054  -1.465   0.984  1.4041  2.6747  1.6264
  321MOL0     H42348   3.146  -1.632   1.154 -0.5360 -0.6630 -1.2193
  321MOL0     H42349   3.295  -1.628   1.067  0.7960 -1.5458 -1.0754
  321MOL0     H42350   3.014  -1.739   0.996 -0.3701  0.8164 -1.4831
  321MOL0     H42351   3.111  -1.693   0.860  1.9367  5.9089  1.6678
  321MOL0     H42352   3.140  -1.919   1.057  2.1169  1.1534  1.8390
  321MOL0     H42353   3.293  -1.842   1.007  0.6002  4.7504 -3.9399
  321MOL0     H42354   3.452  -0.755   1.191 -0.3928  0.1168 -1.5023
  321MOL0     H42355   3.583  -0.573   1.097  0.3778 -0.9897  1.1087
  321MOL0     H42356   3.706  -0.220   0.862 -1.7492 -2.9302 -1.4475
  321MOL0     H42357   3.850  -0.053   0.745  0.8687  0.0065  0.4991
  321MOL0     H42358   4.487   0.220   0.596  1.7287  2.1069  1.8016
  321MOL0     H42359   4.262   0.180   0.701  0.7845 -1.0781 -1.0151
  321MOL0     H42360   3.723   0.497   0.690 -2.3901 -0.5813 -0.6021
  321MOL0     H42361   3.567   0.465   0.868  0.8081  1.9121 -0.3635
  321MOL0     H42362   3.682   0.149   1.160  0.4403 -0.8288 -1.2296
  321MOL0     H42363   3.550   0.051   1.081  2.3202 -0.2535 -2.8423
  321MOL0     H42364   3.391   0.119   1.213 -0.3155 -1.9256  2.3152
  321MOL0     H42365   3.516   0.065   1.317  0.1673  2.1714  1.7823
  321MOL0     H42366   3.440   0.259   1.433  1.9215  0.2653  2.3399
  321MOL0     H42367   3.428   0.346   1.285  0.2958  0.4667  0.7704
  321MOL0     H42368   3.640   0.287   1.482 -0.0309  1.2977  0.6915
  321MOL0     H42369   3.710   0.289   1.322 -1.9643 -2.6102  0.2605
  321MOL0     H42370   3.710   0.697   1.359 -0.6226 -0.3173  0.8753
  321MOL0     H42371   3.787   0.108   0.980  1.8945  0.5258  0.1690
  321MOL0     H42372   3.949   0.156   0.791  1.7610  0.3224  2.1970
  322MOL0     O42373   5.791   0.191   5.483 -0.4644  0.8967 -0.2032
  322MOL0     C42374   5.890   0.117   5.484  0.1251 -0.1059  1.4152
  322MOL0     O42375   5.944   0.055   5.587 -0.9398 -0.4510 -1.0170
  322MOL0     C42376   5.895   0.084   5.714  0.1829 -0.1786  0.0730
  322MOL0     C42377   5.773   0.127   5.755  0.0997  0.4244 -0.2349
  322MOL0     C42378   5.760   0.164   5.888 -0.3504 -0.5400  0.1363
  322MOL0     C42379   5.862   0.162   5.973  0.3500  0.9457 -0.6486
  322MOL0     O42380   5.840   0.164   6.104  0.0907  0.3749  0.2698
  322MOL0     C42381   5.738   0.234   6.177 -0.5034 -0.1307 -0.6817
  322MOL0     C42382   5.607   0.147   6.185 -0.5451 -0.3583 -0.0510
  322MOL0     C42383   5.619   0.017   6.265  0.0222 -0.2757  0.9211
  322MOL0     C42384   5.502  -0.078   6.239 -1.3558 -0.1160  0.1173
  322MOL0     C42385   5.533  -0.214   6.301  0.2946  0.6443 -0.1897
  322MOL0     C42386   5.400  -0.302   6.304  0.1142 -0.4567  0.2238
  322MOL0     C42387   5.411  -0.447   6.265  0.9952 -0.1625  0.4075
  322MOL0     C42388   5.459  -0.538   6.385  0.0157 -0.3210 -0.0987
  322MOL0     N42389   5.352  -0.529   6.499 -0.3305 -0.5076 -0.4487
  322MOL0     C42390   5.220  -0.566   6.488 -0.0424  0.2465 -0.6063
  322MOL0     C42391   5.175  -0.526   6.611 -0.9737  0.4093 -0.3830
  322MOL0     C42392   5.024  -0.516   6.643  0.5919 -0.1068  0.5446
  322MOL0     C42393   4.987  -0.369   6.685  0.1385  0.3996 -0.1398
  322MOL0     C42394   4.841  -0.360   6.704  0.5953 -0.3025 -0.3702
  322MOL0     C42395   4.783  -0.447   6.829  0.3488 -0.0354  0.0091
  322MOL0     O42396   4.643  -0.412   6.854  0.4106  0.4652  0.0326
  322MOL0     C42397   4.581  -0.430   6.979  0.3696 -0.1840  0.6542
  322MOL0     C42398   4.634  -0.518   7.077 -0.3031 -0.2063 -0.6903
  322MOL0     C42399   4.566  -0.529   7.199 -0.3015  0.7668 -0.5252
  322MOL0     C42400   4.451  -0.451   7.228  0.9660 -0.4933  0.5531
  322MOL0     C42401   4.371  -0.471   7.345 -0.1095  0.2446 -0.5475
  322MOL0     O42402   4.280  -0.376   7.379 -0.7367  0.1447 -0.2631
  322MOL0     C42403   4.200  -0.398   7.495 -0.3018 -0.2134 -0.1722
  322MOL0     C42404   4.127  -0.515   7.505 -0.3635  0.1337 -0.5866
  322MOL0     C42405   4.039  -0.534   7.607  0.2185 -0.2614 -0.5617
  322MOL0     C42406   4.035  -0.443   7.711  0.4209  0.6504  0.1236
  322MOL0     O42407   3.959  -0.456   7.824 -0.3214 -0.1097  0.7725
  322MOL0     C42408   4.000  -0.558   7.917 -0.1140  0.4528 -0.1281
  322MOL0     C42409   4.077  -0.497   8.033  0.2832  0.2431 -0.4255
  322MOL0     C42410   3.973  -0.474   8.148 -0.6247 -0.2975  0.0835
  322MOL0     C42411   4.053  -0.434   8.273  0.1991  0.2725  0.2278
  322MOL0     C42412   3.963  -0.444   8.403  0.5730  0.1905  0.6617
  322MOL0     C42413   3.855  -0.326   8.410 -0.6873 -0.0376  0.7713
  322MOL0     C42414   3.772  -0.345   8.535 -0.0737 -0.4384  0.3670
  322MOL0     C42415   3.652  -0.252   8.554  0.4349  0.2972  0.2055
  322MOL0    Cl42416   3.543  -0.348   8.650 -0.0690  0.3960 -0.0764
  322MOL0     C42417   4.097  -0.320   7.696 -0.0269 -0.5110 -0.3591
  322MOL0     C42418   4.176  -0.296   7.582 -0.4757  0.4788 -0.3747
  322MOL0     O42419   4.391  -0.575   7.408 -0.7076  0.3272 -0.0998
  322MOL0     C42420   4.401  -0.362   7.130  1.3940 -0.3185  0.4993
  322MOL0     C42421   4.467  -0.349   7.011 -0.1681 -0.0014 -0.3004
  322MOL0     N42422   5.281  -0.473   6.702  0.1281  0.4914 -0.9823
  322MOL0     N42423   5.384  -0.466   6.621 -0.2783  0.1647 -0.1238
  322MOL0     C42424   5.980   0.108   5.935 -0.5290  0.2132  0.3244
  322MOL0     C42425   5.999   0.069   5.802  0.7579  0.4413 -0.7422
  322MOL0     C42426   5.968   0.111   5.359 -0.2975 -0.4867  0.6776
  322MOL0     C42427   5.958   0.202   5.259 -0.4185 -0.1877  0.7587
  322MOL0     C42428   6.016   0.186   5.133 -0.0325 -0.1182  0.4574
  322MOL0     C42429   6.085   0.073   5.098  0.5669 -0.3810 -0.9038
  322MOL0     O42430   6.127   0.055   4.968 -0.0020 -0.3372 -0.0676
  322MOL0     C42431   6.203  -0.061   4.937  0.2698  0.1608  0.7540
  322MOL0     C42432   6.209  -0.097   4.790  0.6674  0.5343 -0.2733
  322MOL0     C42433   6.337  -0.015   4.729  1.4374  0.4044  0.4021
  322MOL0     C42434   6.349  -0.076   4.600  0.2588  0.2351 -0.0465
  322MOL0     C42435   6.470  -0.033   4.529 -0.6355 -1.3751 -0.1223
  322MOL0     C42436   6.569  -0.007   4.461  0.1802  0.7724 -0.0811
  322MOL0     C42437   6.111  -0.016   5.205 -0.7746  0.6576  0.7992
  322MOL0     C42438   6.053  -0.007   5.330  0.0857 -0.0485  0.9555
  322MOL0     H42439   5.689   0.133   5.686  0.5944 -1.1514 -1.0199
  322MOL0     H42440   5.660   0.194   5.917  1.1324  4.5651  1.0061
  322MOL0     H42441   5.723   0.331   6.130  1.6194  0.0429 -1.0881
  322MOL0     H42442   5.774   0.260   6.277  0.3359 -0.3445 -0.9154
  322MOL0     H42443   5.583   0.112   6.084 -0.7362 -0.2537 -0.0412
  322MOL0     H42444   5.526   0.206   6.228  0.2576  0.9544 -0.2668
  322MOL0     H42445   5.622   0.041   6.372 -1.1999  1.1583  0.6705
  322MOL0     H42446   5.704  -0.044   6.232 -1.2398 -3.7410  3.5151
  322MOL0     H42447   5.413  -0.033   6.284 -1.3436 -1.4370  1.5457
  322MOL0     H42448   5.483  -0.101   6.133  1.6196 -1.6170 -0.1827
  322MOL0     H42449   5.571  -0.214   6.404 -2.0037  2.9574  0.7532
  322MOL0     H42450   5.603  -0.272   6.240 -0.6218 -2.2640  1.3134
  322MOL0     H42451   5.332  -0.250   6.235  2.2521  1.4704 -0.5702
  322MOL0     H42452   5.348  -0.287   6.399 -1.4438 -2.2811 -0.2638
  322MOL0     H42453   5.316  -0.484   6.225  1.0320  1.2628 -1.1336
  322MOL0     H42454   5.473  -0.457   6.176 -0.8826  0.1732 -1.0071
  322MOL0     H42455   5.561  -0.508   6.413 -0.2210  0.2086  0.2129
  322MOL0     H42456   5.465  -0.639   6.342  1.7817 -1.0450  1.7007
  322MOL0     H42457   5.165  -0.608   6.404 -3.1038  0.3430  1.2067
  322MOL0     H42458   5.000  -0.593   6.717  2.4150  0.3586  1.6888
  322MOL0     H42459   4.977  -0.545   6.549  1.8621  0.9860 -0.4549
  322MOL0     H42460   5.030  -0.308   6.605 -1.6425 -0.0083 -1.4764
  322MOL0     H42461   5.044  -0.347   6.776  1.9897 -5.1547  0.4428
  322MOL0     H42462   4.819  -0.253   6.709  0.7152 -0.3241  0.9716
  322MOL0     H42463   4.798  -0.394   6.610 -1.0617  2.3657 -0.6829
  322MOL0     H42464   4.840  -0.413   6.916 -0.7414  2.3518 -0.1245
  322MOL0     H42465   4.790  -0.552   6.803  1.5937 -0.1307  0.6815
  322MOL0     H42466   4.715  -0.587   7.062 -2.8135 -3.6908  0.4537
  322MOL0     H42467   4.598  -0.607   7.267 -0.7098  0.0056 -1.1831
  322MOL0     H42468   4.142  -0.596   7.435 -1.3566 -0.1945 -0.4307
  322MOL0     H42469   3.984  -0.627   7.617  0.5084 -0.3466  0.3637
  322MOL0     H42470   4.061  -0.629   7.860  0.0520  2.6244 -2.8877
  322MOL0     H42471   3.906  -0.596   7.958  0.1937  1.2092  1.3530
  322MOL0     H42472   4.114  -0.405   7.988  0.7561  1.2430  1.8726
  322MOL0     H42473   4.163  -0.563   8.052 -1.2252 -2.1522 -1.4229
  322MOL0     H42474   3.919  -0.565   8.177 -1.0989 -0.0360  0.0134
  322MOL0     H42475   3.897  -0.401   8.120 -1.6008 -1.7142 -1.0816
  322MOL0     H42476   4.132  -0.509   8.280  1.2202  1.3047 -0.0451
  322MOL0     H42477   4.106  -0.339   8.270  1.1401 -0.2332  0.2672
  322MOL0     H42478   4.029  -0.431   8.489 -1.7908 -0.7855  2.7568
  322MOL0     H42479   3.911  -0.541   8.406  0.4824  0.2514  1.3547
  322MOL0     H42480   3.785  -0.316   8.327 -0.9200 -0.0917  0.9562
  322MOL0     H42481   3.912  -0.233   8.412  0.2164 -0.5759  1.8216
  322MOL0     H42482   3.740  -0.449   8.540 -1.2522 -0.1237 -0.2772
  322MOL0     H42483   3.830  -0.335   8.627 -0.4089  2.1806  0.3721
  322MOL0     H42484   3.599  -0.231   8.461 -0.5211 -0.6582  0.5082
  322MOL0     H42485   3.678  -0.161   8.609  1.2760 -1.4086  2.8471
  322MOL0     H42486   4.076  -0.238   7.764  0.6485 -1.1278  0.6209
  322MOL0     H42487   4.238  -0.208   7.568 -0.2803  0.5578  0.8254
  322MOL0     H42488   4.304  -0.316   7.144  1.7731  0.4153  0.7669
  322MOL0     H42489   4.427  -0.283   6.936 -2.4476 -0.0476  0.8055
  322MOL0     H42490   6.058   0.102   6.010  1.0980  0.0488 -1.2972
  322MOL0     H42491   6.097   0.036   5.769  0.4901 -0.5384 -0.5952
  322MOL0     H42492   5.890   0.286   5.262 -3.1266 -2.1463 -0.7777
  322MOL0     H42493   5.987   0.256   5.055 -0.9636  1.2633  1.9785
  322MOL0     H42494   6.166  -0.148   4.993  1.6354  0.1299  1.6525
  322MOL0     H42495   6.304  -0.059   4.980 -0.0927  1.9161  1.6132
  322MOL0     H42496   6.216  -0.205   4.774  1.3365  0.3578  1.0339
  322MOL0     H42497   6.111  -0.071   4.751  0.3971 -0.4462 -0.2687
  322MOL0     H42498   6.427  -0.011   4.791  0.7618  3.5824  1.3780
  322MOL0     H42499   6.305   0.088   4.708  1.2362  0.0028 -1.3962
  322MOL0     H42500   6.365  -0.182   4.621 -2.8157 -0.3316 -0.0922
  322MOL0     H42501   6.264  -0.062   4.533  0.6596 -0.3171 -0.6782
  322MOL0     H42502   6.637   0.021   4.383  1.6321 -3.2536 -0.5039
  322MOL0     H42503   6.175  -0.104   5.200 -0.5137  0.9050 -0.5172
  322MOL0     H42504   6.085  -0.073   5.410  1.9873  2.1477  2.1058
  323MOL0     O42505   1.008   0.485   8.975 -0.1264  1.2183  0.5003
  323MOL0     C42506   1.020   0.543   8.867  0.5012  0.4368  0.1929
  323MOL0     O42507   1.016   0.477   8.742 -0.6291 -0.4774 -0.5289
  323MOL0     C42508   1.021   0.341   8.729 -0.7275  0.5631 -0.0974
  323MOL0     C42509   1.051   0.242   8.823  0.1319  1.3219  0.1218
  323MOL0     C42510   1.038   0.102   8.792  0.3501 -0.1712  0.4408
  323MOL0     C42511   1.020   0.073   8.659 -0.2713  0.4805  0.2836
  323MOL0     O42512   1.061  -0.051   8.609  0.2101 -0.1518 -0.4770
  323MOL0     C42513   1.146  -0.144   8.686 -0.7825 -0.0175 -1.2222
  323MOL0     C42514   1.121  -0.289   8.657 -0.1488  1.0488  0.2080
  323MOL0     C42515   0.974  -0.325   8.663 -0.8097 -0.2362 -0.2167
  323MOL0     C42516   0.970  -0.475   8.625 -1.1368  0.2796 -0.6430
  323MOL0     C42517   0.849  -0.550   8.669  0.0967  0.7591 -0.0867
  323MOL0     C42518   0.865  -0.611   8.804 -0.9423  0.6788 -0.2478
  323MOL0     C42519   0.741  -0.676   8.877  0.4176  0.7669  0.0606
  323MOL0     C42520   0.725  -0.827   8.848 -0.6120 -0.7682  1.2272
  323MOL0     N42521   0.814  -0.901   8.937 -0.0259 -0.5718  0.4831
  323MOL0     C42522   0.806  -0.894   9.071  1.9250  0.2247 -0.9054
  323MOL0     C42523   0.916  -0.947   9.128  0.5089  0.1012 -0.1691
  323MOL0     C42524   0.967  -0.916   9.267 -0.1453 -0.5591 -0.2794
  323MOL0     C42525   0.872  -0.956   9.382  0.0703 -0.0855 -0.3228
  323MOL0     C42526   0.924  -0.918   9.520 -0.0812  0.2666  0.3666
  323MOL0     C42527   0.863  -1.003   9.622  0.7654 -0.3194 -0.4616
  323MOL0     O42528   0.957  -1.109   9.655  0.5519 -0.1638 -0.1741
  323MOL0     C42529   0.946  -1.160   9.782  0.0813  0.2763 -0.4132
  323MOL0     C42530   1.053  -1.239   9.824 -0.7123 -0.4536  0.2108
  323MOL0     C42531   1.062  -1.291   9.954  0.4374  0.1140  1.5709
  323MOL0     C42532   0.961  -1.267  10.048  0.2066  0.6116 -0.0116
  323MOL0     C42533   0.965  -1.323  10.188 -0.5792 -0.3391 -0.2675
  323MOL0     O42534   0.859  -1.286  10.275 -0.3971 -0.2447  0.7989
  323MOL0     C42535   0.863  -1.340  10.401 -0.0134 -0.1920  0.6787
  323MOL0     C42536   0.883  -1.478  10.426 -0.2266 -0.1548  0.2163
  323MOL0     C42537   0.901  -1.531  10.554  0.6002 -0.2012  0.0180
  323MOL0     C42538   0.868  -1.440  10.661 -0.0512 -0.2064 -0.0510
  323MOL0     O42539   0.856  -1.484  10.787 -0.1487  0.3969 -0.6835
  323MOL0     C42540   0.986  -1.508  10.852  0.6913 -0.3893  0.4724
  323MOL0     C42541   0.960  -1.530  11.008 -0.1132 -0.3292  0.1113
  323MOL0     C42542   0.948  -1.399  11.083 -0.3343 -0.3726 -0.0578
  323MOL0     C42543   0.968  -1.398  11.235 -0.0404  1.4022  0.6236
  323MOL0     C42544   0.878  -1.497  11.294 -0.4846  1.2926 -0.4841
  323MOL0     C42545   0.890  -1.523  11.446 -0.3705  0.7797  0.3820
  323MOL0     C42546   0.773  -1.594  11.507  0.0951  0.1868  0.5545
  323MOL0     C42547   0.809  -1.640  11.646  0.6763 -0.1601  0.1083
  323MOL0    Cl42548   0.862  -1.487  11.752 -0.2477 -0.4822  0.1833
  323MOL0     C42549   0.850  -1.299  10.647 -1.2187  0.2894  0.1210
  323MOL0     C42550   0.859  -1.251  10.512  0.9027 -0.8929  0.7384
  323MOL0     O42551   1.062  -1.393  10.217  0.3542  0.3456 -0.1507
  323MOL0     C42552   0.848  -1.194  10.003 -0.5238 -0.1985 -0.6389
  323MOL0     C42553   0.840  -1.144   9.874  0.1107 -0.4457 -0.2393
  323MOL0     N42554   0.989  -1.001   9.022 -0.1109 -0.3709 -0.3076
  323MOL0     N42555   0.932  -0.962   8.910  1.0741 -0.1261 -0.1274
  323MOL0     C42556   1.005   0.170   8.560 -0.4238 -0.1553  1.3360
  323MOL0     C42557   1.018   0.301   8.591  1.1834  0.3379  0.0731
  323MOL0     C42558   1.021   0.689   8.872  0.4865  0.4929  0.0582
  323MOL0     C42559   1.000   0.762   8.758  0.2438  0.0069 -0.3433
  323MOL0     C42560   1.021   0.903   8.761 -0.8895 -0.2528 -0.2528
  323MOL0     C42561   1.060   0.963   8.882  0.7835  0.3453  0.6656
  323MOL0     O42562   1.061   1.099   8.893 -0.1236 -0.0074  0.3055
  323MOL0     C42563   0.934   1.163   8.917 -0.0288  0.0483 -0.6297
  323MOL0     C42564   0.943   1.310   8.880 -0.2989  0.0345  0.7122
  323MOL0     C42565   1.020   1.393   8.977 -0.4669 -0.2621  0.9294
  323MOL0     C42566   1.042   1.542   8.957  0.5574 -0.6612 -0.1316
  323MOL0     C42567   1.124   1.603   9.062  0.6157  0.0227  0.8034
  323MOL0     C42568   1.192   1.664   9.142  0.1927  0.1768 -0.3570
  323MOL0     C42569   1.080   0.894   9.002 -0.3777  0.9755 -0.3604
  323MOL0     C42570   1.064   0.757   8.991 -1.0681  0.0410  0.8962
  323MOL0     H42571   1.060   0.265   8.929  1.0963  0.2114  0.3017
  323MOL0     H42572   1.058   0.031   8.871 -1.0367 -1.4576 -0.3102
  323MOL0     H42573   1.137  -0.132   8.794 -0.0845 -3.0652 -0.7461
  323MOL0     H42574   1.250  -0.118   8.666 -0.3697  0.3063  1.1192
  323MOL0     H42575   1.188  -0.352   8.716 -1.6030 -1.5396 -0.7423
  323MOL0     H42576   1.138  -0.307   8.551 -0.5812  4.1436 -0.4714
  323MOL0     H42577   0.915  -0.278   8.584  0.4844  2.4620  0.3145
  323MOL0     H42578   0.931  -0.298   8.760 -1.0492  1.2811 -0.7097
  323MOL0     H42579   0.969  -0.469   8.516 -0.3795  1.0006 -0.6184
  323MOL0     H42580   1.058  -0.530   8.660 -0.8404  1.1281 -0.0117
  323MOL0     H42581   0.837  -0.638   8.606 -0.4492 -0.1754  1.2654
  323MOL0     H42582   0.756  -0.492   8.659  0.4794  1.5578  0.8403
  323MOL0     H42583   0.908  -0.537   8.872 -1.7472 -0.0600  1.1158
  323MOL0     H42584   0.943  -0.687   8.805 -0.2315  1.3789  1.0928
  323MOL0     H42585   0.747  -0.661   8.985 -0.0300  0.0509  0.1900
  323MOL0     H42586   0.655  -0.618   8.843 -0.2368  0.8013  1.6856
  323MOL0     H42587   0.735  -0.847   8.741  2.6987  1.2467  1.0017
  323MOL0     H42588   0.622  -0.859   8.868 -1.1945 -2.2894 -3.1180
  323MOL0     H42589   0.726  -0.840   9.120  3.4262  0.3716  1.5641
  323MOL0     H42590   0.984  -0.809   9.273  1.4134 -0.6750 -1.6845
  323MOL0     H42591   1.064  -0.965   9.281 -0.0626 -0.1582  0.5969
  323MOL0     H42592   0.842  -1.062   9.385  0.2392 -0.1195  0.3271
  323MOL0     H42593   0.774  -0.909   9.374  0.7191  1.4638  0.3959
  323MOL0     H42594   1.032  -0.924   9.531 -0.2234  1.5100  3.1927
  323MOL0     H42595   0.888  -0.817   9.538 -3.8468 -1.0860  1.5151
  323MOL0     H42596   0.762  -1.038   9.595  2.3584 -2.8925 -3.8714
  323MOL0     H42597   0.848  -0.936   9.706 -1.0481  1.2786 -1.9481
  323MOL0     H42598   1.127  -1.253   9.746 -2.0723 -1.0712 -1.0222
  323MOL0     H42599   1.150  -1.351   9.975  0.7213 -0.1159 -0.0974
  323MOL0     H42600   0.892  -1.545  10.342 -1.2516  1.4560 -1.2521
  323MOL0     H42601   0.930  -1.634  10.573  1.3780 -0.0847 -0.4810
  323MOL0     H42602   1.065  -1.439  10.824  1.8433 -2.2349 -1.0136
  323MOL0     H42603   1.035  -1.602  10.825 -0.2097 -0.2338 -1.9761
  323MOL0     H42604   1.045  -1.586  11.048  0.4884  0.9402  0.6695
  323MOL0     H42605   0.873  -1.594  11.026 -1.3572  1.9210  2.7736
  323MOL0     H42606   0.851  -1.356  11.055  0.3163 -0.6322 -3.1180
  323MOL0     H42607   1.029  -1.338  11.042 -1.0430 -0.6963 -2.1044
  323MOL0     H42608   1.069  -1.423  11.268 -0.9012 -0.6116  1.9338
  323MOL0     H42609   0.939  -1.305  11.284 -3.8624  0.7274 -0.0706
  323MOL0     H42610   0.894  -1.598  11.254 -1.4332  0.8943  0.1029
  323MOL0     H42611   0.772  -1.480  11.270 -1.7305  1.7485  4.3994
  323MOL0     H42612   0.914  -1.424  11.487 -0.6838  1.4352 -0.9792
  323MOL0     H42613   0.982  -1.580  11.461 -1.1298 -0.3476  0.8615
  323MOL0     H42614   0.683  -1.533  11.508 -0.3259 -0.1145 -3.3308
  323MOL0     H42615   0.737  -1.680  11.450 -0.7906  1.0062 -0.1600
  323MOL0     H42616   0.875  -1.728  11.648 -1.1358 -1.5801  0.6439
  323MOL0     H42617   0.720  -1.682  11.695  1.6587 -2.6636 -0.0861
  323MOL0     H42618   0.812  -1.238  10.729 -4.5893 -4.3717  2.5237
  323MOL0     H42619   0.841  -1.146  10.489  1.5918 -1.2771 -1.8695
  323MOL0     H42620   0.769  -1.174  10.074  1.2685  1.9195  0.9222
  323MOL0     H42621   0.761  -1.074   9.848  0.1888 -0.3306 -0.1705
  323MOL0     H42622   1.014   0.136   8.457 -2.6794 -1.1799  1.4221
  323MOL0     H42623   1.013   0.382   8.518 -3.9623 -1.5904 -2.2093
  323MOL0     H42624   0.980   0.708   8.666 -1.2418 -0.2247  0.0881
  323MOL0     H42625   1.007   0.956   8.667 -1.4372  1.3152  0.6735
  323MOL0     H42626   0.905   1.146   9.021  0.4498 -5.7551 -1.1111
  323MOL0     H42627   0.854   1.114   8.860  0.6594 -3.8487  1.4237
  323MOL0     H42628   0.979   1.322   8.777  0.0188 -0.5558  0.7510
  323MOL0     H42629   0.844   1.356   8.881 -1.0452 -1.3835 -1.2389
  323MOL0     H42630   1.118   1.347   8.991  0.4830  0.8315 -1.5474
  323MOL0     H42631   0.974   1.387   9.076  0.8190 -0.6359  1.5264
  323MOL0     H42632   1.115   1.547   8.875  1.1567  2.5349  0.4578
  323MOL0     H42633   0.957   1.608   8.937  0.0159 -1.2357  0.2204
  323MOL0     H42634   1.251   1.712   9.217 -0.5006  0.1486  0.2185
  323MOL0     H42635   1.129   0.951   9.080 -1.0026 -0.1208  0.8840
  323MOL0     H42636   1.086   0.690   9.073  2.0757  0.7441  0.7323
  324MOL0     O42637   2.987   9.759   9.056 -0.4393 -0.2002  0.3035
  324MOL0     C42638   2.880   9.775   9.120  0.4187  0.6899  0.8481
  324MOL0     O42639   2.798   9.885   9.122 -0.3341 -0.4790  0.1509
  324MOL0     C42640   2.847   9.983   9.047 -0.0512 -0.6298  1.1133
  324MOL0     C42641   2.898  10.102   9.096  0.7261  0.3287  0.9034
  324MOL0     C42642   2.968  10.190   9.012 -0.2328  0.2593 -0.3560
  324MOL0     C42643   2.968  10.169   8.869 -0.0722  1.1203 -0.3705
  324MOL0     O42644   3.053  10.230   8.778  0.3092 -1.2035  0.9315
  324MOL0     C42645   3.185  10.267   8.794  0.4297  0.1852 -0.0597
  324MOL0     C42646   3.235  10.368   8.691  0.6375 -0.1825  0.6161
  324MOL0     C42647   3.146  10.496   8.690 -0.5256  0.2039  0.0899
  324MOL0     C42648   3.185  10.614   8.590  0.1403  0.1190 -0.6699
  324MOL0     C42649   3.074  10.719   8.591 -0.4160  0.0254 -0.1884
  324MOL0     C42650   3.101  10.835   8.496  0.4906 -1.2203  0.0198
  324MOL0     C42651   3.132  10.794   8.347 -0.3300  0.1785 -0.5471
  324MOL0     C42652   3.040  10.674   8.308  0.7405 -0.0720  0.4355
  324MOL0     N42653   3.041  10.657   8.162 -0.5498 -0.2815  0.3378
  324MOL0     C42654   2.940  10.592   8.093 -0.6105  1.0753 -0.0208
  324MOL0     C42655   3.005  10.513   8.005 -0.5437 -0.1174 -0.0827
  324MOL0     C42656   2.938  10.417   7.912  0.7567  0.3113  0.5581
  324MOL0     C42657   2.852  10.314   7.997  0.4559  0.3305 -0.1277
  324MOL0     C42658   2.831  10.183   7.922 -0.6379 -0.2668 -0.8617
  324MOL0     C42659   2.748  10.091   8.012 -1.1046  0.8396 -0.8506
  324MOL0     O42660   2.716   9.972   7.932 -0.0998 -0.6391 -0.3812
  324MOL0     C42661   2.654   9.874   8.001 -0.5523  0.5378  0.3753
  324MOL0     C42662   2.630   9.861   8.136 -0.9201  0.1142 -0.4981
  324MOL0     C42663   2.571   9.750   8.190  0.4165  0.4912 -0.3131
  324MOL0     C42664   2.519   9.647   8.110 -0.4698  0.5566 -0.6278
  324MOL0     C42665   2.475   9.518   8.161 -0.8204 -0.3389  0.4004
  324MOL0     O42666   2.524   9.483   8.285 -0.3532  0.0181 -0.5563
  324MOL0     C42667   2.512   9.353   8.332 -0.7165  1.2792 -0.1929
  324MOL0     C42668   2.500   9.231   8.271 -0.2417 -0.1467  0.9966
  324MOL0     C42669   2.470   9.114   8.337  0.2868 -0.4376  0.2456
  324MOL0     C42670   2.492   9.101   8.474  0.5725 -0.1291 -0.0463
  324MOL0     O42671   2.476   8.994   8.561  0.2529 -0.4425  1.4520
  324MOL0     C42672   2.446   8.876   8.486 -0.7125  1.0319  0.2562
  324MOL0     C42673   2.425   8.755   8.578 -0.2144  0.3974  0.4343
  324MOL0     C42674   2.337   8.781   8.700 -0.0294 -0.6427  0.2264
  324MOL0     C42675   2.315   8.660   8.782 -0.6916  0.8483 -0.5653
  324MOL0     C42676   2.180   8.650   8.854  0.3710 -0.0042 -0.0761
  324MOL0     C42677   2.162   8.526   8.949 -0.0217 -0.4751  0.4371
  324MOL0     C42678   2.165   8.387   8.883 -0.2178  0.4374 -0.1838
  324MOL0     C42679   2.046   8.294   8.934 -0.6717 -0.6937  0.0976
  324MOL0    Cl42680   2.082   8.213   9.092  0.4556 -0.6627  0.4713
  324MOL0     C42681   2.531   9.219   8.536 -0.0582  0.1033  0.4498
  324MOL0     C42682   2.534   9.341   8.469 -0.2823  0.6940  0.5356
  324MOL0     O42683   2.395   9.447   8.095  0.6608 -0.0025 -0.3106
  324MOL0     C42684   2.553   9.655   7.973  0.1381  0.1901  0.2278
  324MOL0     C42685   2.627   9.765   7.920  0.0300 -0.4684  0.2928
  324MOL0     N42686   3.141  10.546   8.005  0.1758  0.5962  1.1275
  324MOL0     N42687   3.161  10.633   8.095  0.8084  0.4905 -0.1915
  324MOL0     C42688   2.907  10.055   8.821 -0.2670 -0.0743 -0.3375
  324MOL0     C42689   2.850   9.968   8.907 -0.0334 -0.5202  0.1231
  324MOL0     C42690   2.837   9.653   9.197  0.1937 -0.5313  0.5249
  324MOL0     C42691   2.926   9.566   9.260 -0.7294 -0.0859  0.7836
  324MOL0     C42692   2.885   9.477   9.351  0.5985  0.5356  0.4448
  324MOL0     C42693   2.753   9.473   9.393 -0.0446 -0.0873  0.1302
  324MOL0     O42694   2.712   9.376   9.481  0.2669  0.0620 -0.8811
  324MOL0     C42695   2.648   9.256   9.420 -0.1291 -0.2787 -0.1026
  324MOL0     C42696   2.590   9.158   9.524 -0.2015  0.3600 -0.3185
  324MOL0     C42697   2.709   9.109   9.612  0.8511 -0.4481  0.0879
  324MOL0     C42698   2.769   8.988   9.533  0.1614  0.3645  0.0644
  324MOL0     C42699   2.668   8.874   9.537  0.1921 -0.2819  0.1182
  324MOL0     C42700   2.586   8.787   9.542  1.1214 -1.1167  0.3674
  324MOL0     C42701   2.665   9.556   9.337 -0.0867  0.2827  0.2514
  324MOL0     C42702   2.703   9.643   9.247  0.7290  0.2079  0.7133
  324MOL0     H42703   2.902  10.131   9.201  3.2937 -0.1668  0.9987
  324MOL0     H42704   3.034  10.273   9.032  2.2983 -1.4451 -1.1137
  324MOL0     H42705   3.242  10.174   8.799 -2.7140 -1.8940 -0.1869
  324MOL0     H42706   3.204  10.312   8.892  1.0182 -0.1572 -0.0084
  324MOL0     H42707   3.235  10.320   8.593 -3.5316 -1.4519  1.0423
  324MOL0     H42708   3.333  10.404   8.724  0.8545  1.9689 -2.0134
  324MOL0     H42709   3.149  10.551   8.785 -3.8708  0.9523 -0.1185
  324MOL0     H42710   3.043  10.473   8.661 -0.5602 -1.9135  1.6478
  324MOL0     H42711   3.274  10.662   8.633  1.7086 -2.9417 -0.2417
  324MOL0     H42712   3.210  10.573   8.491 -1.0311 -0.7693 -0.6108
  324MOL0     H42713   3.060  10.748   8.696 -1.7097 -4.0535  0.9395
  324MOL0     H42714   2.988  10.660   8.559  1.2698 -1.1291 -2.9825
  324MOL0     H42715   3.192  10.885   8.528  1.4947 -1.7154 -1.9071
  324MOL0     H42716   3.026  10.914   8.507 -0.7759 -2.3156 -0.3924
  324MOL0     H42717   3.130  10.881   8.280  2.3301 -1.1370 -2.5109
  324MOL0     H42718   3.237  10.763   8.337 -0.2528  0.6817 -1.4943
  324MOL0     H42719   2.936  10.697   8.333 -0.3804 -2.3039 -1.6750
  324MOL0     H42720   3.071  10.581   8.357  1.6751  0.4350  0.8351
  324MOL0     H42721   2.832  10.580   8.101 -0.7587  0.5160 -2.1444
  324MOL0     H42722   2.997  10.351   7.848  1.4577 -1.2409  2.6823
  324MOL0     H42723   2.871  10.471   7.845  2.1480  1.0541 -0.2861
  324MOL0     H42724   2.755  10.361   8.015  0.8232  2.2228 -2.5186
  324MOL0     H42725   2.908  10.291   8.088  0.7840  0.6925 -0.2352
  324MOL0     H42726   2.774  10.205   7.832 -1.0916 -1.3607 -0.8620
  324MOL0     H42727   2.929  10.137   7.901  0.3856  0.1069  2.4937
  324MOL0     H42728   2.658  10.148   8.037 -0.6035  0.1512  3.1529
  324MOL0     H42729   2.813  10.083   8.099 -0.8232  1.1094 -1.0336
  324MOL0     H42730   2.670   9.935   8.205 -1.6628  2.2300 -2.2087
  324MOL0     H42731   2.553   9.748   8.297 -1.9335  0.1457 -0.6669
  324MOL0     H42732   2.484   9.244   8.164 -0.4853  3.2629  1.3599
  324MOL0     H42733   2.420   9.031   8.288 -0.7822 -0.2356  0.9632
  324MOL0     H42734   2.535   8.852   8.426 -1.3828 -1.0258  0.0180
  324MOL0     H42735   2.360   8.885   8.420  1.0396 -2.6567 -2.9667
  324MOL0     H42736   2.518   8.708   8.609 -1.1348 -0.9842  1.2264
  324MOL0     H42737   2.365   8.684   8.520  0.4252  1.9079 -2.2891
  324MOL0     H42738   2.235   8.806   8.670 -0.4081 -1.1779  1.0407
  324MOL0     H42739   2.375   8.855   8.770  3.0793  1.2181 -3.0778
  324MOL0     H42740   2.331   8.568   8.726 -0.2112 -0.8529  2.1525
  324MOL0     H42741   2.388   8.658   8.864 -1.4598  2.0113  0.1878
  324MOL0     H42742   2.098   8.656   8.783  0.5097  0.9047 -0.1819
  324MOL0     H42743   2.157   8.738   8.915  0.1817  0.7948 -1.2582
  324MOL0     H42744   2.063   8.546   8.993  0.4798 -0.0790  1.4262
  324MOL0     H42745   2.240   8.519   9.025  1.0661 -3.2043 -0.8145
  324MOL0     H42746   2.161   8.404   8.775 -0.2486 -2.4342 -0.7161
  324MOL0     H42747   2.256   8.326   8.891 -1.0485 -0.6304  2.5031
  324MOL0     H42748   2.035   8.211   8.863 -0.1864 -0.4500 -0.2710
  324MOL0     H42749   1.947   8.338   8.946 -1.4606 -2.6825  1.3991
  324MOL0     H42750   2.551   9.220   8.642  2.4299 -1.0677  0.0693
  324MOL0     H42751   2.555   9.425   8.535  5.1282 -3.1546  4.5947
  324MOL0     H42752   2.525   9.578   7.901  0.4316 -0.3773  0.7099
  324MOL0     H42753   2.664   9.766   7.818 -0.1107  1.7621  0.2076
  324MOL0     H42754   2.900  10.035   8.715 -3.7998 -0.4642 -0.1488
  324MOL0     H42755   2.804   9.887   8.851 -0.4600  0.0725 -0.3957
  324MOL0     H42756   3.032   9.571   9.238  0.0409  0.7752  4.0296
  324MOL0     H42757   2.961   9.411   9.392  1.4956 -0.0544 -1.9942
  324MOL0     H42758   2.717   9.210   9.348  1.7510  1.9492  0.1278
  324MOL0     H42759   2.555   9.299   9.383 -1.2119  0.4179  3.1676
  324MOL0     H42760   2.510   9.207   9.580 -0.9010 -1.7217  0.6070
  324MOL0     H42761   2.530   9.079   9.478  1.5209 -1.0083 -0.2822
  324MOL0     H42762   2.666   9.073   9.706 -2.8544  0.3525 -1.1153
  324MOL0     H42763   2.778   9.191   9.629 -0.7864  0.6969  1.5392
  324MOL0     H42764   2.806   9.011   9.433  1.9727 -2.3683  0.0120
  324MOL0     H42765   2.855   8.954   9.591 -2.7930 -2.6173  3.1878
  324MOL0     H42766   2.509   8.715   9.560 -1.0170  0.7994 -0.5402
  324MOL0     H42767   2.562   9.545   9.370 -0.4678  0.1998 -0.9227
  324MOL0     H42768   2.619   9.700   9.209  0.8094  0.7168  1.2951
  325MOL0     O42769  10.445   1.009   2.713  0.4009 -0.7630 -0.4890
  325MOL0     C42770  10.560   1.001   2.741 -0.2002 -0.3500  0.2340
  325MOL0     O42771  10.619   0.980   2.867  0.1099  0.5818 -0.0299
  325MOL0     C42772  10.544   0.978   2.979 -0.5933 -0.1071 -0.4262
  325MOL0     C42773  10.580   1.061   3.086  1.2651  0.8770 -0.6767
  325MOL0     C42774  10.508   1.062   3.208  0.0711 -0.5792  0.4909
  325MOL0     C42775  10.403   0.968   3.219  0.1711  0.0646 -0.3686
  325MOL0     O42776  10.340   0.969   3.341 -0.3926 -0.1804  0.2925
  325MOL0     C42777  10.193   0.958   3.339 -0.3403 -0.2526  0.8024
  325MOL0     C42778  10.133   1.027   3.463  0.8062 -0.1106 -0.8874
  325MOL0     C42779  10.009   1.119   3.411 -1.1585  1.0063 -0.0106
  325MOL0     C42780   9.928   1.173   3.530  1.0120  0.3708 -0.4091
  325MOL0     C42781   9.821   1.281   3.483  0.3590  1.2343  1.0405
  325MOL0     C42782   9.774   1.341   3.608 -0.7404  0.3631 -0.9361
  325MOL0     C42783   9.654   1.428   3.603 -0.1210 -0.2786 -0.3775
  325MOL0     C42784   9.512   1.354   3.595 -0.0852 -0.4732 -0.6390
  325MOL0     N42785   9.389   1.432   3.562 -1.3701 -0.3789  0.1247
  325MOL0     C42786   9.267   1.383   3.514 -0.8877 -0.7340  0.3376
  325MOL0     C42787   9.188   1.501   3.514 -0.8917 -0.7574  0.1759
  325MOL0     C42788   9.051   1.503   3.457  0.2091  0.3659  0.0879
  325MOL0     C42789   9.041   1.513   3.304  0.5836  0.2208 -0.6571
  325MOL0     C42790   8.894   1.509   3.244 -0.6487  0.1866  0.0664
  325MOL0     C42791   8.888   1.564   3.093 -0.2800  0.4683  0.0678
  325MOL0     O42792   8.987   1.502   3.010  0.3431  1.1546 -0.6052
  325MOL0     C42793   8.951   1.487   2.880  0.1138  0.5857 -0.6295
  325MOL0     C42794   8.934   1.358   2.829 -0.0083 -0.3761  0.4676
  325MOL0     C42795   8.911   1.345   2.693 -0.7898 -1.0214 -0.1557
  325MOL0     C42796   8.894   1.457   2.605 -0.0253 -0.1036 -0.2651
  325MOL0     C42797   8.874   1.443   2.459  0.2514 -1.1403 -0.3727
  325MOL0     O42798   8.815   1.336   2.407 -0.9628 -0.6132  0.6251
  325MOL0     C42799   8.785   1.353   2.267 -0.1095 -0.4964  0.5374
  325MOL0     C42800   8.689   1.453   2.229 -0.5380  0.0992 -1.4682
  325MOL0     C42801   8.653   1.480   2.095  0.1467 -1.5185  0.0270
  325MOL0     C42802   8.685   1.379   2.001  0.2919  0.1784 -0.0144
  325MOL0     O42803   8.645   1.371   1.867 -0.6666 -0.5716  0.1904
  325MOL0     C42804   8.526   1.436   1.828  1.4810  0.0398  0.0165
  325MOL0     C42805   8.497   1.393   1.682  0.4119 -0.1133  1.0900
  325MOL0     C42806   8.362   1.455   1.629  0.5659  0.1091 -0.0829
  325MOL0     C42807   8.347   1.427   1.472 -0.6572 -0.6779 -0.4478
  325MOL0     C42808   8.203   1.458   1.416 -0.4166  0.4532  0.0891
  325MOL0     C42809   8.094   1.348   1.446  0.5441  0.4592 -0.0102
  325MOL0     C42810   7.961   1.410   1.397  0.3761 -0.7392 -0.0106
  325MOL0     C42811   7.854   1.306   1.406  1.0330  0.4073 -0.4333
  325MOL0    Cl42812   7.878   1.165   1.307  0.1941  0.5570 -0.0566
  325MOL0     C42813   8.769   1.273   2.037 -0.0087 -0.1357 -0.0170
  325MOL0     C42814   8.827   1.264   2.161  0.6878 -0.6641 -0.1241
  325MOL0     O42815   8.943   1.528   2.395  0.1772 -0.1282  0.5024
  325MOL0     C42816   8.900   1.584   2.669  0.1375 -0.5206  0.8168
  325MOL0     C42817   8.928   1.603   2.806  0.6526 -0.3046 -0.5208
  325MOL0     N42818   9.255   1.595   3.584 -0.2017 -0.5727  0.4546
  325MOL0     N42819   9.370   1.561   3.613 -0.9927 -0.4226  0.7182
  325MOL0     C42820  10.363   0.879   3.119 -0.0486 -0.4285 -1.0056
  325MOL0     C42821  10.433   0.889   2.994  0.3067 -0.7731  0.1018
  325MOL0     C42822  10.671   1.013   2.629  0.5666  0.9560  0.1141
  325MOL0     C42823  10.641   1.068   2.505 -0.4100  0.0366 -0.2439
  325MOL0     C42824  10.734   1.059   2.403 -0.1433  0.2562  0.6379
  325MOL0     C42825  10.860   1.018   2.421  0.7432  0.2998 -0.3859
  325MOL0     O42826  10.938   1.023   2.310  0.5029 -0.1814 -0.1792
  325MOL0     C42827  10.982   0.901   2.249  0.1810 -0.1695  0.6848
  325MOL0     C42828  10.999   0.928   2.097 -0.3359 -1.0269 -0.3169
  325MOL0     C42829  11.018   0.808   2.011  0.3019  0.4680  0.4936
  325MOL0     C42830  11.036   0.834   1.865  1.0988  0.3224 -0.6218
  325MOL0     C42831  11.059   0.715   1.776 -0.0201  0.1118 -1.0501
  325MOL0     C42832  11.082   0.612   1.720 -0.6074 -0.5357  0.3650
  325MOL0     C42833  10.898   0.969   2.558 -0.6898  0.4786  0.2624
  325MOL0     C42834  10.800   0.977   2.661  0.0585  0.9952 -0.5159
  325MOL0     H42835  10.667   1.126   3.090  1.5424  0.5074 -0.6824
  325MOL0     H42836  10.553   1.127   3.282  0.8714 -1.2768  0.6330
  325MOL0     H42837  10.156   0.855   3.350 -0.4753 -0.4919 -1.5184
  325MOL0     H42838  10.154   1.002   3.247  3.9008  2.5606  0.0792
  325MOL0     H42839  10.210   1.067   3.530 -0.9773 -1.5214  2.2067
  325MOL0     H42840  10.088   0.952   3.528  1.0364  0.2406 -0.3157
  325MOL0     H42841   9.940   1.059   3.352 -2.1677  1.0083  1.1269
  325MOL0     H42842  10.048   1.198   3.346 -1.2089 -0.4196 -1.8492
  325MOL0     H42843   9.885   1.087   3.583  5.3728  0.2183  3.5405
  325MOL0     H42844  10.001   1.204   3.605  0.3608 -0.8863  0.7930
  325MOL0     H42845   9.738   1.236   3.428  2.1969 -1.0991 -0.0027
  325MOL0     H42846   9.866   1.351   3.413 -0.3540 -0.0201 -0.7387
  325MOL0     H42847   9.859   1.377   3.666  1.8648 -4.9271 -0.9037
  325MOL0     H42848   9.745   1.254   3.668  1.6154 -0.3753 -0.7528
  325MOL0     H42849   9.645   1.488   3.694 -1.3348 -2.3675  0.9701
  325MOL0     H42850   9.673   1.496   3.519 -0.6760 -1.2646 -1.3326
  325MOL0     H42851   9.478   1.303   3.686 -1.2228  2.4130  0.6493
  325MOL0     H42852   9.534   1.285   3.513 -0.3800 -0.3328 -0.8331
  325MOL0     H42853   9.236   1.280   3.496 -0.8682 -1.1073  2.2309
  325MOL0     H42854   9.006   1.599   3.484  1.9772  2.7226 -4.3037
  325MOL0     H42855   8.988   1.427   3.504 -2.8430  1.9349 -1.1794
  325MOL0     H42856   9.090   1.423   3.267  0.9722  0.0089  0.3392
  325MOL0     H42857   9.099   1.598   3.266  1.8291  0.7686  2.2370
  325MOL0     H42858   8.860   1.407   3.263 -1.4807  0.5165  0.4043
  325MOL0     H42859   8.831   1.567   3.312 -1.7875 -0.8109 -0.1105
  325MOL0     H42860   8.903   1.672   3.082  1.4438  0.3537  0.9353
  325MOL0     H42861   8.783   1.554   3.064 -1.1799  0.8169  2.9181
  325MOL0     H42862   8.935   1.268   2.890  0.0752 -1.9479 -1.7277
  325MOL0     H42863   8.899   1.250   2.642 -0.9957 -0.8859 -0.3629
  325MOL0     H42864   8.647   1.510   2.311  2.0259 -0.7263  0.5490
  325MOL0     H42865   8.587   1.562   2.067  2.7591  0.2379 -1.3988
  325MOL0     H42866   8.542   1.543   1.841  2.2714  0.0114 -0.6612
  325MOL0     H42867   8.448   1.407   1.900 -0.2480  2.1721 -0.8841
  325MOL0     H42868   8.504   1.285   1.670  1.1991 -0.1570  1.8838
  325MOL0     H42869   8.567   1.434   1.609 -0.1433  2.0544  1.6993
  325MOL0     H42870   8.359   1.563   1.647 -0.6541 -0.0191  0.5651
  325MOL0     H42871   8.282   1.403   1.681  1.3709 -0.8353  0.2560
  325MOL0     H42872   8.410   1.506   1.432 -0.0501  0.2223  2.0991
  325MOL0     H42873   8.391   1.331   1.442 -0.6400 -1.1600  1.0007
  325MOL0     H42874   8.212   1.466   1.307  1.6388  1.1885  0.2704
  325MOL0     H42875   8.171   1.555   1.455 -1.1688  0.4467 -0.4941
  325MOL0     H42876   8.085   1.317   1.550  0.9512  2.1792  0.5713
  325MOL0     H42877   8.117   1.262   1.382  0.5534  1.7966 -1.9054
  325MOL0     H42878   7.929   1.493   1.461  0.6651 -0.0988 -0.6721
  325MOL0     H42879   7.967   1.454   1.297 -4.1415 -0.6273 -0.4247
  325MOL0     H42880   7.759   1.356   1.386  1.4263  1.1768 -0.4237
  325MOL0     H42881   7.862   1.279   1.512  2.1290  0.6736 -0.4376
  325MOL0     H42882   8.792   1.203   1.958 -0.9176  2.6269 -2.9784
  325MOL0     H42883   8.891   1.183   2.194  6.3396  3.1534 -0.2415
  325MOL0     H42884   8.892   1.670   2.604  0.8609 -1.4144 -0.5068
  325MOL0     H42885   8.940   1.698   2.856 -4.3962 -1.1190  3.0374
  325MOL0     H42886  10.284   0.806   3.131 -0.3272  0.0945  0.6304
  325MOL0     H42887  10.400   0.812   2.925 -0.7678 -1.5639  1.4329
  325MOL0     H42888  10.539   1.096   2.481 -0.2269  1.9209  0.9804
  325MOL0     H42889  10.696   1.088   2.306 -2.3305  0.6186  1.5412
  325MOL0     H42890  10.911   0.822   2.276  2.7578 -2.0404  2.4111
  325MOL0     H42891  11.080   0.875   2.291 -0.8648 -1.0428  2.7429
  325MOL0     H42892  10.933   1.001   2.050  0.9329  0.8270  0.6634
  325MOL0     H42893  11.091   0.986   2.091 -0.4256 -0.9651 -1.2504
  325MOL0     H42894  10.939   0.733   2.017 -1.3612  2.1657  1.1390
  325MOL0     H42895  11.109   0.759   2.045 -1.3804 -3.1859  0.1550
  325MOL0     H42896  10.952   0.894   1.828  1.4648  1.9302  1.0216
  325MOL0     H42897  11.119   0.903   1.846 -0.7303  2.7057 -0.3301
  325MOL0     H42898  11.117   0.518   1.681  2.6527  1.1108 -1.1207
  325MOL0     H42899  11.004   0.951   2.570 -0.3035  3.0160  1.3523
  325MOL0     H42900  10.840   0.966   2.761  1.5582  2.7336 -0.8588
  326MOL0     O42901   8.129  10.966   2.370 -0.2173 -0.0249 -0.2001
  326MOL0     C42902   8.108  10.851   2.420 -0.3665 -0.5420  0.0908
  326MOL0     O42903   7.992  10.810   2.478 -0.2366  0.3126 -0.0357
  326MOL0     C42904   7.881  10.885   2.451  0.1132  0.3907 -0.4746
  326MOL0     C42905   7.812  10.869   2.327 -0.0334  1.0028 -1.0375
  326MOL0     C42906   7.695  10.931   2.291  1.1819 -0.4679 -1.0594
  326MOL0     C42907   7.633  11.016   2.384 -0.1688  0.3037  0.9257
  326MOL0     O42908   7.501  11.061   2.389  0.7542  0.0539 -0.4369
  326MOL0     C42909   7.402  10.984   2.336  0.3219 -0.4606  0.0427
  326MOL0     C42910   7.266  11.025   2.389  0.5385  0.4627 -0.1354
  326MOL0     C42911   7.151  10.968   2.300 -0.2646  0.1314 -0.3404
  326MOL0     C42912   7.012  10.982   2.377 -0.2772  0.4110  0.5589
  326MOL0     C42913   6.897  11.005   2.277  0.0660 -0.3976  1.1699
  326MOL0     C42914   6.780  10.906   2.318 -0.5887  0.0059 -0.6013
  326MOL0     C42915   6.655  10.927   2.237  0.7378 -0.6167  0.4088
  326MOL0     C42916   6.538  10.866   2.318  1.2365  0.7251  0.4274
  326MOL0     N42917   6.532  10.721   2.288 -0.2865  0.2214  0.4414
  326MOL0     C42918   6.473  10.663   2.179 -0.7316 -0.0798 -1.7165
  326MOL0     C42919   6.499  10.530   2.193  0.0552  0.1182 -0.1997
  326MOL0     C42920   6.457  10.410   2.106 -0.2286 -0.0627  0.0181
  326MOL0     C42921   6.522  10.418   1.965  0.2755 -0.2937  0.5251
  326MOL0     C42922   6.673  10.395   1.940 -0.1430 -0.3642 -0.3943
  326MOL0     C42923   6.709  10.352   1.797 -0.5308 -0.0715 -0.6059
  326MOL0     O42924   6.841  10.385   1.771  0.3967  0.2761 -0.2376
  326MOL0     C42925   6.936  10.303   1.834  0.2936 -0.1130  0.1447
  326MOL0     C42926   7.002  10.335   1.949  0.3870 -0.4665  0.2304
  326MOL0     C42927   7.087  10.245   2.020 -0.2032  0.0053 -0.6145
  326MOL0     C42928   7.108  10.116   1.968  0.7286  0.1564 -0.0310
  326MOL0     C42929   7.193  10.011   2.036 -0.1116 -0.3069 -0.1955
  326MOL0     O42930   7.162   9.885   2.004 -1.1358  0.0291 -0.0502
  326MOL0     C42931   7.238   9.780   2.055 -0.4630  0.2819 -0.4455
  326MOL0     C42932   7.215   9.710   2.173 -0.0582 -0.3487  0.8445
  326MOL0     C42933   7.298   9.604   2.210  0.7028  0.2116  0.4936
  326MOL0     C42934   7.411   9.569   2.134  0.1532 -0.1825  0.1580
  326MOL0     O42935   7.480   9.462   2.179  0.0389  0.6757 -0.6491
  326MOL0     C42936   7.599   9.425   2.110 -0.0685 -0.2967 -0.3314
  326MOL0     C42937   7.652   9.312   2.202 -0.4553  0.1018 -0.2666
  326MOL0     C42938   7.720   9.210   2.116 -0.1840  0.2767  0.1521
  326MOL0     C42939   7.783   9.099   2.201  0.0668 -0.0977 -0.9696
  326MOL0     C42940   7.688   9.039   2.308  0.6593  0.3055  0.1747
  326MOL0     C42941   7.751   8.916   2.377  0.6679 -0.5607  0.3920
  326MOL0     C42942   7.653   8.849   2.472  0.1205 -0.0817 -0.4524
  326MOL0     C42943   7.716   8.734   2.549 -0.4602  0.5462 -1.1174
  326MOL0    Cl42944   7.598   8.658   2.661 -0.1919 -0.4516 -0.2525
  326MOL0     C42945   7.434   9.639   2.010  0.0395 -0.0248 -0.0616
  326MOL0     C42946   7.355   9.750   1.978  0.3110 -0.3380  0.4459
  326MOL0     O42947   7.283  10.057   2.107  0.3030  1.0933  0.3199
  326MOL0     C42948   7.047  10.079   1.852 -0.5794 -0.5937 -0.6598
  326MOL0     C42949   6.956  10.169   1.790  0.6404  0.2178 -0.2561
  326MOL0     N42950   6.567  10.520   2.312 -0.4381 -0.7304  0.0189
  326MOL0     N42951   6.598  10.635   2.369 -0.0781  0.2895 -0.0120
  326MOL0     C42952   7.698  11.046   2.500 -0.4513 -0.1285 -0.3004
  326MOL0     C42953   7.824  10.984   2.531  0.7789  0.8389 -0.1178
  326MOL0     C42954   8.219  10.758   2.419  0.1320  0.2653 -0.2018
  326MOL0     C42955   8.205  10.620   2.450  0.5643  0.2894  0.7719
  326MOL0     C42956   8.310  10.523   2.454 -0.3877  0.8783  1.4661
  326MOL0     C42957   8.433  10.572   2.407 -0.0449 -0.1420  0.2462
  326MOL0     O42958   8.541  10.491   2.381  0.0058 -0.3490 -0.2178
  326MOL0     C42959   8.520  10.351   2.344  0.4542 -1.4196  0.8502
  326MOL0     C42960   8.632  10.311   2.249 -0.1448 -0.4939 -0.0407
  326MOL0     C42961   8.608  10.174   2.208 -0.6843 -0.3374 -0.5949
  326MOL0     C42962   8.731  10.116   2.132  0.0466 -0.3167  0.8198
  326MOL0     C42963   8.692   9.991   2.063 -0.1781 -0.6170  0.2738
  326MOL0     C42964   8.676   9.885   2.011 -0.2045 -0.1410  0.7658
  326MOL0     C42965   8.455  10.708   2.391  0.4435  1.5403  0.2709
  326MOL0     C42966   8.350  10.794   2.403  0.4258 -0.3685  0.0311
  326MOL0     H42967   7.856  10.803   2.252 -0.1383 -1.6087  1.0531
  326MOL0     H42968   7.646  10.899   2.199  2.3715  1.0060 -2.2606
  326MOL0     H42969   7.428  10.878   2.345  0.0107 -0.8067 -2.4393
  326MOL0     H42970   7.392  11.024   2.234  0.7382  2.3254  0.9983
  326MOL0     H42971   7.260  11.133   2.407  1.4032  0.7811 -1.6171
  326MOL0     H42972   7.258  10.970   2.484  1.5287 -0.1813 -0.4036
  326MOL0     H42973   7.170  10.860   2.299  1.0891  0.2640  2.4153
  326MOL0     H42974   7.140  11.020   2.204  0.0484  0.2065 -0.3370
  326MOL0     H42975   6.982  10.894   2.434  1.9182 -0.3999  0.5657
  326MOL0     H42976   7.009  11.064   2.449  0.2797  0.2050  0.8194
  326MOL0     H42977   6.919  10.977   2.173 -4.6532  0.1803 -0.2269
  326MOL0     H42978   6.858  11.106   2.285 -2.1232 -1.2802  2.6380
  326MOL0     H42979   6.761  10.929   2.423  3.1425 -0.2424  0.2649
  326MOL0     H42980   6.826  10.808   2.308  0.4059  0.0823  2.3838
  326MOL0     H42981   6.641  11.032   2.212 -0.7475 -0.8540  0.1881
  326MOL0     H42982   6.657  10.869   2.144 -1.0714  1.4758 -1.0196
  326MOL0     H42983   6.443  10.899   2.276  1.2823  0.5215  0.1671
  326MOL0     H42984   6.534  10.882   2.426 -3.5839  3.8862  0.0855
  326MOL0     H42985   6.419  10.711   2.098 -1.3548  0.2500 -1.1191
  326MOL0     H42986   6.348  10.397   2.112 -0.4733  2.1493  2.2987
  326MOL0     H42987   6.504  10.327   2.159  2.4282  1.7083  0.6208
  326MOL0     H42988   6.489  10.511   1.919 -0.5206 -1.1899 -0.7844
  326MOL0     H42989   6.482  10.333   1.908  0.0285 -0.2103  0.5736
  326MOL0     H42990   6.716  10.491   1.970  0.2304 -0.8635  0.7487
  326MOL0     H42991   6.716  10.328   2.016 -2.2836  1.5273  2.7481
  326MOL0     H42992   6.640  10.400   1.726 -2.2539  1.1433  1.7362
  326MOL0     H42993   6.706  10.242   1.798  3.9098 -0.5104  4.2321
  326MOL0     H42994   6.974  10.435   1.982 -0.7984 -0.5748 -0.4102
  326MOL0     H42995   7.142  10.283   2.106 -0.7529 -1.8930  0.6550
  326MOL0     H42996   7.142   9.749   2.244 -0.4356 -1.3024  0.9855
  326MOL0     H42997   7.264   9.538   2.289 -1.4746 -1.1044 -1.4197
  326MOL0     H42998   7.686   9.489   2.094 -0.3685  0.3351  0.4449
  326MOL0     H42999   7.564   9.381   2.016 -1.1726 -6.1315  2.3488
  326MOL0     H43000   7.563   9.270   2.251 -0.8021  1.2015  0.0759
  326MOL0     H43001   7.726   9.351   2.271 -0.7849  0.3311 -0.0396
  326MOL0     H43002   7.792   9.262   2.054 -0.0204  0.7443  0.7252
  326MOL0     H43003   7.645   9.154   2.059 -3.4705 -1.5592  5.4714
  326MOL0     H43004   7.832   9.029   2.133 -0.1511 -2.6897  1.3389
  326MOL0     H43005   7.869   9.141   2.254  0.1353 -1.1141 -0.2206
  326MOL0     H43006   7.605   8.993   2.253 -0.0912  0.8871  0.8042
  326MOL0     H43007   7.663   9.114   2.384  1.1187 -0.4996  1.1467
  326MOL0     H43008   7.831   8.959   2.437 -0.6449  1.4742  0.7936
  326MOL0     H43009   7.785   8.847   2.299 -1.5386 -0.2218 -0.9571
  326MOL0     H43010   7.621   8.919   2.551  0.9426  0.9685 -1.0272
  326MOL0     H43011   7.564   8.818   2.417  0.6937  4.3947 -4.5504
  326MOL0     H43012   7.807   8.761   2.603  1.6163 -4.4203 -1.6391
  326MOL0     H43013   7.750   8.654   2.483 -0.4539 -0.9701  0.6481
  326MOL0     H43014   7.502   9.600   1.936  0.0957 -2.1989  1.0492
  326MOL0     H43015   7.370   9.800   1.883 -0.1384 -2.7052 -0.9471
  326MOL0     H43016   7.052   9.978   1.813  2.4644 -0.8255  0.0780
  326MOL0     H43017   6.908  10.127   1.702  0.6038 -0.7223  0.2015
  326MOL0     H43018   7.653  11.104   2.580  2.6144  0.5049  1.1223
  326MOL0     H43019   7.862  10.994   2.633  1.6278  0.1679 -0.3448
  326MOL0     H43020   8.110  10.571   2.468  0.6658 -1.7897 -3.1504
  326MOL0     H43021   8.284  10.426   2.497 -3.0477  0.1442 -1.3858
  326MOL0     H43022   8.428  10.335   2.287 -0.2268 -4.1580  2.5412
  326MOL0     H43023   8.517  10.290   2.435  0.5181  0.9184  2.5257
  326MOL0     H43024   8.649  10.383   2.169  0.5094  0.2456  0.7382
  326MOL0     H43025   8.728  10.306   2.303 -1.1594  1.0433  2.0485
  326MOL0     H43026   8.521  10.179   2.142 -1.1176 -1.9566 -0.2073
  326MOL0     H43027   8.597  10.107   2.293  0.5038 -3.1795 -2.5076
  326MOL0     H43028   8.760  10.189   2.055 -1.6964 -1.8155 -1.4026
  326MOL0     H43029   8.817  10.104   2.198  4.1243 -3.3780 -4.2332
  326MOL0     H43030   8.664   9.783   1.980 -1.7024  0.3481 -0.3561
  326MOL0     H43031   8.555  10.742   2.368  2.4758 -1.0904  4.0874
  326MOL0     H43032   8.365  10.901   2.401 -0.5104 -0.1623  1.7631
  327MOL0     O43033   3.362   8.541   8.078  0.1131  0.7805  1.0040
  327MOL0     C43034   3.243   8.541   8.052  0.4885 -0.3790 -0.6346
  327MOL0     O43035   3.171   8.432   8.005  0.4520  0.7813 -0.9374
  327MOL0     C43036   3.232   8.319   7.966 -0.6195  0.0968  0.2743
  327MOL0     C43037   3.186   8.196   8.018 -0.2833 -0.6002 -1.0394
  327MOL0     C43038   3.255   8.079   7.999  0.7883  0.5661 -0.3226
  327MOL0     C43039   3.363   8.073   7.907  0.9418 -0.6809 -0.3678
  327MOL0     O43040   3.437   7.956   7.887 -0.0722 -0.8501 -0.5322
  327MOL0     C43041   3.515   7.931   7.773  0.1196  0.2808 -0.3318
  327MOL0     C43042   3.443   7.927   7.638  0.1860  0.4649 -0.8533
  327MOL0     C43043   3.311   7.846   7.635  0.5148  0.9312  0.1368
  327MOL0     C43044   3.268   7.807   7.497 -0.4379  0.3298 -0.2397
  327MOL0     C43045   3.381   7.788   7.391  0.4473 -0.4340  0.3772
  327MOL0     C43046   3.313   7.695   7.279 -0.8422  0.0437 -0.1522
  327MOL0     C43047   3.365   7.690   7.129 -0.6340  0.2114 -0.2701
  327MOL0     C43048   3.329   7.793   7.015 -0.3060  0.4925  0.0757
  327MOL0     N43049   3.201   7.749   6.954  0.4959 -0.2258  0.6402
  327MOL0     C43050   3.188   7.672   6.844 -0.8338  0.1297  0.3111
  327MOL0     C43051   3.059   7.674   6.805 -0.2033 -0.9791 -0.6216
  327MOL0     C43052   3.024   7.646   6.663  1.4256  0.1390  0.5578
  327MOL0     C43053   3.024   7.768   6.560 -0.4565  0.4464 -0.5209
  327MOL0     C43054   3.170   7.779   6.518  0.0068 -0.3679 -0.1646
  327MOL0     C43055   3.188   7.886   6.419 -0.5604 -0.6347  1.5549
  327MOL0     O43056   3.169   8.029   6.460 -0.3363  1.0482 -0.0408
  327MOL0     C43057   3.245   8.058   6.579  0.4946  0.1766 -0.0535
  327MOL0     C43058   3.382   8.036   6.602  0.4054  0.5903  0.0709
  327MOL0     C43059   3.433   8.072   6.723 -0.1777 -0.8730 -0.1223
  327MOL0     C43060   3.358   8.133   6.828 -1.5727 -1.0085  0.0088
  327MOL0     C43061   3.413   8.155   6.961 -1.0698 -0.3722 -0.3282
  327MOL0     O43062   3.342   8.250   7.038  0.2793  0.3181  0.3236
  327MOL0     C43063   3.405   8.274   7.157 -0.1319 -0.4462  1.3777
  327MOL0     C43064   3.385   8.194   7.268  0.8417  0.6428  0.0820
  327MOL0     C43065   3.460   8.220   7.386 -0.8773  0.6541 -0.3690
  327MOL0     C43066   3.544   8.333   7.394 -0.2151 -0.0975 -0.8627
  327MOL0     O43067   3.589   8.375   7.519  0.4548 -0.7360  0.6102
  327MOL0     C43068   3.724   8.426   7.531  1.1664  0.0032 -0.2730
  327MOL0     C43069   3.840   8.329   7.485  0.1511  0.7107  2.0729
  327MOL0     C43070   3.830   8.207   7.570 -0.5824 -0.2350  0.2878
  327MOL0     C43071   3.906   8.089   7.511 -0.0054 -0.3380  0.2690
  327MOL0     C43072   3.855   7.958   7.549  0.9804  0.5279 -0.9436
  327MOL0     C43073   3.931   7.858   7.470 -0.0384  0.3191 -0.2669
  327MOL0     C43074   3.922   7.867   7.317 -0.5441  0.9795  0.4725
  327MOL0     C43075   3.894   7.725   7.257  0.3272  1.1464  1.0421
  327MOL0    Cl43076   3.724   7.670   7.271  0.4434  0.0790 -0.2590
  327MOL0     C43077   3.556   8.410   7.285 -0.7392 -0.0273  0.0432
  327MOL0     C43078   3.493   8.382   7.164  0.1135  0.8415 -0.3876
  327MOL0     O43079   3.507   8.086   7.000  0.9069 -0.7202 -0.2466
  327MOL0     C43080   3.230   8.174   6.799  0.3332 -0.7754  0.3209
  327MOL0     C43081   3.177   8.132   6.678 -0.0730  1.4972 -0.7631
  327MOL0     N43082   2.992   7.746   6.895  0.4539 -0.5675 -0.6443
  327MOL0     N43083   3.075   7.787   6.992 -0.2951  0.1483  1.0443
  327MOL0     C43084   3.394   8.193   7.839 -0.5119 -0.1671  0.2394
  327MOL0     C43085   3.334   8.307   7.873 -0.4084 -0.7423  0.0795
  327MOL0     C43086   3.173   8.666   8.065 -0.1876  0.6516  0.3937
  327MOL0     C43087   3.225   8.763   8.152  0.7282 -0.5720  0.0407
  327MOL0     C43088   3.169   8.892   8.156 -0.1810  0.3376 -0.4308
  327MOL0     C43089   3.062   8.924   8.077  0.6208  0.1601  0.5961
  327MOL0     O43090   3.006   9.043   8.088 -0.0874 -0.4005  0.6955
  327MOL0     C43091   2.872   9.034   8.138 -0.6844  0.2918  0.6248
  327MOL0     C43092   2.848   8.966   8.270  0.3476 -0.1719  0.4127
  327MOL0     C43093   2.887   9.062   8.386  0.1903  0.1578 -0.3891
  327MOL0     C43094   2.879   9.003   8.522 -1.0413  0.0546 -0.5290
  327MOL0     C43095   2.991   8.902   8.519 -1.0751  0.8057  0.0863
  327MOL0     C43096   3.090   8.826   8.505 -0.5277  0.2676 -0.5294
  327MOL0     C43097   3.007   8.826   7.988 -0.6355 -0.0394 -0.6542
  327MOL0     C43098   3.071   8.699   7.975  0.6056  0.3450  0.2329
  327MOL0     H43099   3.095   8.194   8.077  0.5680 -1.2985  0.2838
  327MOL0     H43100   3.211   7.991   8.043  1.7211  1.2661  2.1581
  327MOL0     H43101   3.550   7.830   7.797  1.6224  1.0537  0.9087
  327MOL0     H43102   3.603   7.996   7.776  0.3445  0.1524 -2.4425
  327MOL0     H43103   3.515   7.878   7.571 -0.1856 -1.5432  0.1344
  327MOL0     H43104   3.413   8.028   7.611 -1.9634 -1.0839 -5.0711
  327MOL0     H43105   3.223   7.893   7.679 -1.6879 -0.1427 -2.7942
  327MOL0     H43106   3.329   7.752   7.688 -4.1013 -0.3394 -0.1422
  327MOL0     H43107   3.208   7.715   7.500 -0.9060  0.6208 -0.4149
  327MOL0     H43108   3.210   7.884   7.443  1.3680  1.1223 -1.1490
  327MOL0     H43109   3.474   7.742   7.427 -0.6182 -1.4494  1.9449
  327MOL0     H43110   3.399   7.883   7.341 -2.2040 -0.0423 -0.0009
  327MOL0     H43111   3.212   7.727   7.254  0.4041  2.0731 -3.0545
  327MOL0     H43112   3.322   7.602   7.336 -0.6557 -1.6386 -2.7908
  327MOL0     H43113   3.472   7.681   7.145 -0.9056 -0.4823  1.3445
  327MOL0     H43114   3.342   7.591   7.089  4.8203 -0.9643 -1.2598
  327MOL0     H43115   3.407   7.790   6.938  0.7341 -0.9689  1.1274
  327MOL0     H43116   3.312   7.890   7.062  0.3128  1.5182 -1.6973
  327MOL0     H43117   3.272   7.632   6.787 -0.1940 -0.1514  1.4077
  327MOL0     H43118   2.921   7.610   6.660  1.4755 -0.0779  1.4070
  327MOL0     H43119   3.079   7.561   6.621 -1.9116 -0.6374 -2.8642
  327MOL0     H43120   2.996   7.862   6.609 -0.9870  3.1891 -5.4642
  327MOL0     H43121   2.967   7.753   6.468  0.4072 -0.5862 -0.9082
  327MOL0     H43122   3.222   7.805   6.611 -0.9032 -0.9836  0.5396
  327MOL0     H43123   3.207   7.682   6.484 -1.3956 -1.3035  0.8394
  327MOL0     H43124   3.107   7.866   6.348 -1.1822 -0.5740  2.2341
  327MOL0     H43125   3.281   7.871   6.364  0.3836  2.9926  1.9617
  327MOL0     H43126   3.449   7.986   6.532  3.0959 -1.7529  3.9214
  327MOL0     H43127   3.533   8.031   6.734  0.1396 -0.3582 -0.9918
  327MOL0     H43128   3.325   8.104   7.269  0.7629  0.6502 -1.2579
  327MOL0     H43129   3.450   8.162   7.477 -2.5917  0.8420 -0.4089
  327MOL0     H43130   3.755   8.454   7.632  0.1008 -0.7519  0.2850
  327MOL0     H43131   3.738   8.516   7.470  2.3457  1.1686  1.5971
  327MOL0     H43132   3.940   8.373   7.485  1.6791 -2.4625  0.0943
  327MOL0     H43133   3.821   8.296   7.383 -0.6055 -0.7237  2.6597
  327MOL0     H43134   3.725   8.178   7.578 -0.3223 -1.8656 -1.4635
  327MOL0     H43135   3.855   8.223   7.675  0.8621 -1.5803  0.1824
  327MOL0     H43136   3.902   8.095   7.402  1.1393 -2.7264  0.0369
  327MOL0     H43137   4.011   8.110   7.533 -0.3395  2.2176 -0.2542
  327MOL0     H43138   3.753   7.955   7.511  0.8885  0.6931 -0.7036
  327MOL0     H43139   3.844   7.944   7.656 -3.4684 -2.1982 -1.5407
  327MOL0     H43140   3.880   7.765   7.496 -0.4598  0.1286 -1.6579
  327MOL0     H43141   4.033   7.865   7.508  0.1768  1.7582 -0.9987
  327MOL0     H43142   3.835   7.927   7.288 -1.0861  0.2903  0.6415
  327MOL0     H43143   4.008   7.915   7.270 -0.5165  0.8813  0.4223
  327MOL0     H43144   3.972   7.662   7.302 -0.2129  0.4580  1.0277
  327MOL0     H43145   3.919   7.717   7.151  4.0055  1.8536  1.7033
  327MOL0     H43146   3.618   8.498   7.295  2.0969 -2.0557  1.8381
  327MOL0     H43147   3.504   8.450   7.081 -0.1493 -0.5777 -1.6219
  327MOL0     H43148   3.164   8.224   6.869 -4.0435 -2.7210 -2.0344
  327MOL0     H43149   3.073   8.156   6.657 -0.9530 -0.7243  0.6836
  327MOL0     H43150   3.478   8.203   7.771  0.0495  2.2461  1.2069
  327MOL0     H43151   3.370   8.394   7.820  0.9162 -1.1040  0.3576
  327MOL0     H43152   3.301   8.734   8.225 -0.3966  0.0779  1.5194
  327MOL0     H43153   3.199   8.965   8.229  1.1286  3.3709 -3.6949
  327MOL0     H43154   2.794   9.003   8.068  0.7175 -1.6245 -0.1579
  327MOL0     H43155   2.845   9.139   8.153 -0.0016  0.8926 -1.9007
  327MOL0     H43156   2.742   8.943   8.281  0.2076 -0.3440 -1.0633
  327MOL0     H43157   2.885   8.864   8.282  0.0585 -0.4111 -0.6448
  327MOL0     H43158   2.814   9.143   8.378  0.7258  0.8777  1.5872
  327MOL0     H43159   2.981   9.113   8.366 -0.3366  1.1180 -0.5015
  327MOL0     H43160   2.894   9.078   8.601 -0.3897 -0.7730  0.1497
  327MOL0     H43161   2.781   8.955   8.531 -1.9897  2.1794  1.7332
  327MOL0     H43162   3.183   8.775   8.491 -0.1697  1.4962 -3.3083
  327MOL0     H43163   2.913   8.854   7.942 -0.5437  0.0929 -0.7645
  327MOL0     H43164   3.025   8.627   7.908 -0.7707  0.0635  1.4224
  328MOL0     O43165   1.776  10.732   5.700 -0.0793 -0.0302 -0.2779
  328MOL0     C43166   1.679  10.679   5.746 -0.2711  0.8445 -0.3516
  328MOL0     O43167   1.685  10.571   5.825  0.5844 -0.0878  0.3410
  328MOL0     C43168   1.797  10.493   5.840  0.6770 -0.1488 -0.5630
  328MOL0     C43169   1.887  10.457   5.733 -0.0430 -0.0576 -0.6005
  328MOL0     C43170   1.993  10.365   5.755  0.5994  0.8050  0.4631
  328MOL0     C43171   2.008  10.305   5.884 -0.0337  0.1632 -0.5372
  328MOL0     O43172   2.113  10.215   5.906  0.6330 -0.7484 -0.0940
  328MOL0     C43173   2.085  10.106   5.999 -0.9968 -0.2279 -0.2909
  328MOL0     C43174   2.031   9.991   5.911 -0.7250 -0.0583  0.3083
  328MOL0     C43175   1.975   9.886   6.005 -0.3461 -0.6211 -0.3624
  328MOL0     C43176   1.897   9.772   5.931 -0.7879 -0.6208  0.0280
  328MOL0     C43177   1.871   9.658   6.033 -0.5681  0.6233 -0.4708
  328MOL0     C43178   1.807   9.540   5.957  0.6080  0.4874 -0.5560
  328MOL0     C43179   1.695   9.460   6.046 -0.0515 -0.0526  0.1289
  328MOL0     C43180   1.579   9.553   6.089 -0.2188  0.2705  0.4431
  328MOL0     N43181   1.482   9.569   5.981  0.1404  0.6366 -0.3217
  328MOL0     C43182   1.492   9.633   5.859  0.2961 -0.2716  0.6970
  328MOL0     C43183   1.386   9.593   5.785  0.1350  0.3272 -0.2231
  328MOL0     C43184   1.364   9.602   5.642  0.3747  0.3722 -0.1004
  328MOL0     C43185   1.444   9.503   5.550 -0.0477  0.8410 -0.5813
  328MOL0     C43186   1.594   9.545   5.551 -0.4506 -0.7393 -0.6489
  328MOL0     C43187   1.678   9.458   5.460  0.1596 -0.5192 -0.5188
  328MOL0     O43188   1.813   9.500   5.422 -0.7863 -0.5698  0.8900
  328MOL0     C43189   1.915   9.465   5.506 -0.0551  0.1033 -0.1496
  328MOL0     C43190   2.004   9.375   5.462 -0.0820  0.5863 -1.6061
  328MOL0     C43191   2.106   9.327   5.542  0.3059 -0.3182  0.1035
  328MOL0     C43192   2.117   9.378   5.680 -0.7467  0.5688  0.3080
  328MOL0     C43193   2.194   9.308   5.775  0.4569 -0.0518 -0.2010
  328MOL0     O43194   2.159   9.326   5.912  0.4107  0.0792 -0.4022
  328MOL0     C43195   2.231   9.253   5.995 -0.2501  0.9417  0.7755
  328MOL0     C43196   2.176   9.134   6.040  0.3344  0.7774  0.6510
  328MOL0     C43197   2.262   9.035   6.106 -0.4405  0.1510 -0.2261
  328MOL0     C43198   2.402   9.064   6.122  0.1681 -0.4160 -0.7639
  328MOL0     O43199   2.487   8.983   6.198 -0.0049 -0.0445  0.1004
  328MOL0     C43200   2.443   8.851   6.232 -0.4670 -0.6621  0.2805
  328MOL0     C43201   2.449   8.749   6.116  0.0685 -0.3185  0.7268
  328MOL0     C43202   2.592   8.753   6.056  0.0258 -0.7056  0.0411
  328MOL0     C43203   2.650   8.620   6.003  0.9490 -0.4832  0.1463
  328MOL0     C43204   2.797   8.635   5.989  0.3685 -0.8590 -0.6287
  328MOL0     C43205   2.862   8.492   5.998  1.0004 -0.0567  0.0467
  328MOL0     C43206   3.018   8.488   5.999 -1.4965  0.1143 -0.3042
  328MOL0     C43207   3.076   8.353   5.976  0.0070  0.2323 -0.4364
  328MOL0    Cl43208   3.223   8.340   6.077 -0.1246 -0.0716  0.5189
  328MOL0     C43209   2.460   9.177   6.070  0.3975 -0.2001  0.7163
  328MOL0     C43210   2.368   9.273   6.010 -0.3334  0.0860 -0.0275
  328MOL0     O43211   2.282   9.236   5.735 -0.8514 -0.2711 -0.1215
  328MOL0     C43212   2.026   9.474   5.714 -0.0704  0.1673  0.1644
  328MOL0     C43213   1.928   9.527   5.626 -0.5495  0.2029  0.0311
  328MOL0     N43214   1.292   9.518   5.873 -0.1165 -1.1179  0.6449
  328MOL0     N43215   1.356   9.503   5.991 -0.4622 -0.2418 -0.0032
  328MOL0     C43216   1.919  10.341   5.987 -0.7583  0.5666 -0.0494
  328MOL0     C43217   1.818  10.435   5.974  0.5838 -1.1784  0.7073
  328MOL0     C43218   1.539  10.712   5.734  0.5408 -0.7069  0.1855
  328MOL0     C43219   1.506  10.783   5.624 -0.7360 -0.3333  0.1614
  328MOL0     C43220   1.376  10.836   5.618 -0.4303  0.0649 -0.7736
  328MOL0     C43221   1.283  10.810   5.714  0.6967  0.0554 -0.7845
  328MOL0     O43222   1.164  10.874   5.701  0.0810  0.2348  0.0102
  328MOL0     C43223   1.050  10.829   5.791 -0.8436 -0.8612 -0.0409
  328MOL0     C43224   0.914  10.853   5.718  0.2335 -0.0469 -0.4111
  328MOL0     C43225   0.793  10.761   5.756 -0.0446 -0.0712 -0.0141
  328MOL0     C43226   0.724  10.795   5.894  0.3540 -1.0791 -0.0597
  328MOL0     C43227   0.809  10.743   6.004 -0.6518 -0.0740 -0.3532
  328MOL0     C43228   0.877  10.691   6.090  0.2292 -0.4830  0.0936
  328MOL0     C43229   1.313  10.723   5.810 -0.2229 -0.4547 -1.0490
  328MOL0     C43230   1.445  10.684   5.833  0.8872  0.3108  0.1736
  328MOL0     H43231   1.878  10.507   5.638 -1.4464 -0.0347 -0.4674
  328MOL0     H43232   2.075  10.347   5.687  0.0624  0.9157 -0.2228
  328MOL0     H43233   2.006  10.123   6.072 -3.7516 -2.1380 -2.5883
  328MOL0     H43234   2.183  10.080   6.040 -0.1644 -1.5983 -2.8645
  328MOL0     H43235   2.109   9.948   5.847 -0.2834 -0.3087  1.0006
  328MOL0     H43236   1.949  10.025   5.848 -1.5024 -1.3258  0.6160
  328MOL0     H43237   1.906   9.930   6.077  1.8005  3.5285 -0.5771
  328MOL0     H43238   2.061   9.850   6.063 -0.4222  0.6559  0.5635
  328MOL0     H43239   1.801   9.810   5.894 -1.0940  0.5442  1.8518
  328MOL0     H43240   1.957   9.730   5.851  1.4947  1.0398  0.7666
  328MOL0     H43241   1.802   9.700   6.108 -1.2685  0.9789 -1.3020
  328MOL0     H43242   1.964   9.622   6.078 -0.9996 -1.5388 -1.2085
  328MOL0     H43243   1.885   9.467   5.933  0.6265  0.5622 -0.7233
  328MOL0     H43244   1.758   9.569   5.864  3.1251  1.0052 -1.7995
  328MOL0     H43245   1.654   9.383   5.980 -1.3207 -0.5373  1.4348
  328MOL0     H43246   1.741   9.423   6.138 -0.9927  3.9525  2.4517
  328MOL0     H43247   1.613   9.651   6.124 -0.9647  0.1001  1.6972
  328MOL0     H43248   1.537   9.508   6.179 -2.8885  1.4575 -0.1060
  328MOL0     H43249   1.581   9.685   5.824  0.3650 -0.6940  0.2312
  328MOL0     H43250   1.385   9.706   5.614  0.6351 -0.4204 -3.3093
  328MOL0     H43251   1.259   9.590   5.615  1.1922 -2.8854 -2.5851
  328MOL0     H43252   1.409   9.515   5.448  0.9063  0.4876 -0.9635
  328MOL0     H43253   1.412   9.402   5.575  1.5698  0.4368  0.0171
  328MOL0     H43254   1.615   9.651   5.532  3.0471 -1.1496  0.1166
  328MOL0     H43255   1.623   9.522   5.654 -2.7063  1.4921  0.5900
  328MOL0     H43256   1.640   9.440   5.360  1.4474 -2.0227 -0.7706
  328MOL0     H43257   1.680   9.361   5.509 -0.5635  1.1299  3.1340
  328MOL0     H43258   1.987   9.330   5.364  0.9539 -2.6505 -0.3980
  328MOL0     H43259   2.174   9.258   5.494  0.8469 -0.6917  1.3855
  328MOL0     H43260   2.072   9.107   6.028  0.9348 -1.5732  0.1406
  328MOL0     H43261   2.205   8.947   6.135 -0.9601 -0.5230 -2.9587
  328MOL0     H43262   2.340   8.847   6.268 -0.7694  0.4999 -0.3761
  328MOL0     H43263   2.507   8.816   6.313  0.4077  0.2973  0.0196
  328MOL0     H43264   2.378   8.763   6.034  0.4888 -3.1183 -0.2226
  328MOL0     H43265   2.427   8.648   6.154  0.3050  0.1641  2.2438
  328MOL0     H43266   2.659   8.782   6.138  1.5985 -0.3264 -1.3153
  328MOL0     H43267   2.594   8.832   5.980  0.8559 -1.4394 -0.7178
  328MOL0     H43268   2.624   8.548   6.081 -0.4236 -0.0361  0.1360
  328MOL0     H43269   2.594   8.591   5.913 -1.5989  1.8149  0.8509
  328MOL0     H43270   2.847   8.685   6.072  0.1235 -3.0120  0.8982
  328MOL0     H43271   2.824   8.678   5.892 -1.3129  1.1964 -0.2617
  328MOL0     H43272   2.838   8.439   5.906  0.8160 -2.4900  1.4043
  328MOL0     H43273   2.826   8.425   6.077 -0.6477  1.0400  0.2776
  328MOL0     H43274   3.046   8.550   5.914  1.7531  2.9201  2.5388
  328MOL0     H43275   3.067   8.523   6.090  0.6616 -1.8730 -0.6152
  328MOL0     H43276   3.098   8.355   5.869 -1.4465  0.1872 -0.7589
  328MOL0     H43277   3.002   8.274   5.987 -1.6517  1.9433  1.5334
  328MOL0     H43278   2.568   9.182   6.080  0.6773 -2.4209 -0.5649
  328MOL0     H43279   2.412   9.366   5.975  0.3335 -0.2429 -0.0807
  328MOL0     H43280   2.039   9.509   5.816 -0.1941 -2.2630  1.0768
  328MOL0     H43281   1.859   9.600   5.667 -0.4134  1.5122 -1.9245
  328MOL0     H43282   1.926  10.304   6.089 -0.7059 -2.0258 -0.9141
  328MOL0     H43283   1.774  10.467   6.068  2.6120  2.9488  0.4512
  328MOL0     H43284   1.574  10.807   5.543 -3.0031  3.0823 -0.9822
  328MOL0     H43285   1.346  10.903   5.538 -3.2464  0.5937  0.5910
  328MOL0     H43286   1.045  10.871   5.891  1.7581  0.5936 -0.4424
  328MOL0     H43287   1.059  10.722   5.811 -2.7821 -0.7674  1.7159
  328MOL0     H43288   0.888  10.958   5.737  0.7974  0.3959 -1.9506
  328MOL0     H43289   0.930  10.847   5.610 -0.5277  0.6777 -0.5736
  328MOL0     H43290   0.814  10.654   5.751 -0.3449 -0.1029 -0.6887
  328MOL0     H43291   0.718  10.786   5.681  1.3030  0.5923 -1.1963
  328MOL0     H43292   0.705  10.902   5.903  1.0926 -0.7512 -1.9576
  328MOL0     H43293   0.627  10.745   5.903  1.4154 -2.9549  1.9148
  328MOL0     H43294   0.925  10.643   6.172 -2.1982 -0.1511  1.8155
  328MOL0     H43295   1.249  10.683   5.889  0.3209 -2.1778 -1.4411
  328MOL0     H43296   1.460  10.629   5.925 -3.1308  1.2413  1.5890
  329MOL0     O43297   2.850   6.841   4.329  0.6729  0.3088  0.4606
  329MOL0     C43298   2.862   6.756   4.241 -0.9332  0.1314 -0.3731
  329MOL0     O43299   2.983   6.720   4.198  0.2023  0.5943 -0.7213
  329MOL0     C43300   3.085   6.701   4.287 -1.0435 -0.5322 -0.9526
  329MOL0     C43301   3.222   6.724   4.243 -0.5181 -0.3301  0.0951
  329MOL0     C43302   3.332   6.706   4.332 -0.0664  0.5086 -0.5013
  329MOL0     C43303   3.306   6.673   4.467  0.4520  0.1626  0.7233
  329MOL0     O43304   3.399   6.657   4.571  0.1037 -0.0510  0.6558
  329MOL0     C43305   3.529   6.720   4.550  0.0591 -1.5384 -0.8927
  329MOL0     C43306   3.614   6.707   4.673 -0.0450  0.8222 -0.4856
  329MOL0     C43307   3.558   6.788   4.798 -0.5171  0.2825 -1.2649
  329MOL0     C43308   3.638   6.764   4.924  0.0864  0.2779  0.3817
  329MOL0     C43309   3.590   6.866   5.030 -0.1011 -0.6563  0.1147
  329MOL0     C43310   3.644   6.841   5.179  0.1955  0.6267  0.2518
  329MOL0     C43311   3.600   6.961   5.271  0.6077  0.4465 -0.1700
  329MOL0     C43312   3.632   6.938   5.421 -0.6219 -0.0744  1.0790
  329MOL0     N43313   3.518   6.973   5.500 -0.3589  0.2893  0.2212
  329MOL0     C43314   3.496   7.094   5.560 -0.4901 -0.0349  0.2951
  329MOL0     C43315   3.376   7.083   5.623 -0.5760  0.5065 -0.1542
  329MOL0     C43316   3.313   7.206   5.700 -0.5841  0.1024  0.8632
  329MOL0     C43317   3.289   7.171   5.853  0.1313  0.4674  0.1033
  329MOL0     C43318   3.209   7.289   5.913 -0.0839 -0.9526 -1.0744
  329MOL0     C43319   3.222   7.283   6.063 -0.4363 -1.0096  0.3008
  329MOL0     O43320   3.356   7.342   6.091 -0.0779 -0.0518  1.0365
  329MOL0     C43321   3.405   7.386   6.208 -1.2202 -0.0503  1.0361
  329MOL0     C43322   3.334   7.387   6.325  0.2390 -0.2143  0.3091
  329MOL0     C43323   3.381   7.465   6.431 -0.0557  0.0656 -0.8660
  329MOL0     C43324   3.498   7.542   6.416 -0.7676 -0.5920 -0.5028
  329MOL0     C43325   3.536   7.627   6.531  0.7199  0.2910 -0.0666
  329MOL0     O43326   3.668   7.675   6.529 -0.9773  0.3126  0.5427
  329MOL0     C43327   3.725   7.738   6.638 -0.1321  0.4518  0.9551
  329MOL0     C43328   3.676   7.746   6.769 -0.5567  0.1210 -0.0834
  329MOL0     C43329   3.761   7.811   6.867  0.0007  0.5205 -0.2847
  329MOL0     C43330   3.883   7.866   6.834  0.2239  0.7820  0.0344
  329MOL0     O43331   3.951   7.934   6.935 -0.5350  0.3439  0.2720
  329MOL0     C43332   4.028   8.046   6.891 -0.2213  0.2841 -0.3452
  329MOL0     C43333   4.050   8.146   7.006 -0.4031  0.1366 -0.8047
  329MOL0     C43334   4.155   8.098   7.107 -0.2681 -0.8031 -0.6680
  329MOL0     C43335   4.279   8.181   7.095  0.2391 -0.4044  0.4910
  329MOL0     C43336   4.390   8.146   7.189  0.5245 -0.1923 -0.2702
  329MOL0     C43337   4.365   8.159   7.337  0.1662 -0.2680  0.1748
  329MOL0     C43338   4.468   8.084   7.427  1.1668  0.7671 -0.6699
  329MOL0     C43339   4.621   8.112   7.404 -0.1879 -0.4930 -0.1414
  329MOL0    Cl43340   4.695   8.019   7.537 -0.4018  0.0113  0.0469
  329MOL0     C43341   3.927   7.849   6.699 -0.4563  0.0775 -0.2094
  329MOL0     C43342   3.857   7.783   6.609  0.2024 -0.9162 -0.5353
  329MOL0     O43343   3.454   7.657   6.615  0.6573  0.3862 -0.8854
  329MOL0     C43344   3.574   7.535   6.297 -0.3346  0.2091 -0.2153
  329MOL0     C43345   3.528   7.458   6.198  0.0475  0.5191 -0.2458
  329MOL0     N43346   3.326   6.958   5.593 -0.2531  0.4338 -0.3446
  329MOL0     N43347   3.409   6.892   5.524  0.2119  0.6058 -0.8259
  329MOL0     C43348   3.176   6.650   4.502 -0.2611  1.0653  0.2679
  329MOL0     C43349   3.067   6.665   4.420  0.0917  0.4100 -0.8405
  329MOL0     C43350   2.747   6.702   4.163  0.4420  0.8921  0.5771
  329MOL0     C43351   2.617   6.707   4.217 -0.1499 -0.8303  0.5211
  329MOL0     C43352   2.512   6.653   4.143 -0.3092  0.1462 -0.2753
  329MOL0     C43353   2.527   6.604   4.020 -0.7838 -0.4669  0.2081
  329MOL0     O43354   2.410   6.556   3.962 -0.0986  0.5535 -1.2577
  329MOL0     C43355   2.413   6.439   3.867  1.3182  0.1764 -0.1648
  329MOL0     C43356   2.395   6.494   3.724 -0.0696  0.3115 -0.0519
  329MOL0     C43357   2.434   6.383   3.629  0.8123  0.3730 -1.2256
  329MOL0     C43358   2.431   6.431   3.484 -0.0499  0.2757 -0.0292
  329MOL0     C43359   2.296   6.468   3.439 -0.4226 -0.8156  0.4897
  329MOL0     C43360   2.185   6.479   3.388 -0.5811  1.2519 -0.1024
  329MOL0     C43361   2.650   6.575   3.972 -0.6367  0.1966 -0.4157
  329MOL0     C43362   2.765   6.629   4.043 -0.3482 -0.4706 -0.0201
  329MOL0     H43363   3.241   6.746   4.138  0.0868 -0.6143  0.1437
  329MOL0     H43364   3.435   6.714   4.298  0.1784  0.5179  0.2125
  329MOL0     H43365   3.517   6.824   4.521 -0.0981 -1.8474 -1.9951
  329MOL0     H43366   3.576   6.661   4.471  2.8526 -2.6977  1.4196
  329MOL0     H43367   3.716   6.744   4.659 -0.0951  1.5164  0.7897
  329MOL0     H43368   3.627   6.602   4.703 -0.6503  0.5485 -1.1695
  329MOL0     H43369   3.451   6.779   4.817 -0.4489 -0.9961 -1.4165
  329MOL0     H43370   3.587   6.890   4.772  2.0193  0.3666  1.3906
  329MOL0     H43371   3.617   6.666   4.966 -1.9809  0.5439  0.0956
  329MOL0     H43372   3.745   6.777   4.907  1.0082 -2.8263  2.8070
  329MOL0     H43373   3.481   6.857   5.027 -0.2328  0.4420  0.9670
  329MOL0     H43374   3.622   6.968   5.009 -1.0599 -0.4715 -0.4958
  329MOL0     H43375   3.752   6.826   5.172 -0.1963 -2.7408 -0.2739
  329MOL0     H43376   3.595   6.752   5.221  1.4887  0.5659  1.7401
  329MOL0     H43377   3.657   7.050   5.245  0.8148  0.1067 -0.8851
  329MOL0     H43378   3.497   6.991   5.248  0.8755  1.1775 -0.4409
  329MOL0     H43379   3.713   7.003   5.455  2.0318 -0.9822 -2.8079
  329MOL0     H43380   3.645   6.830   5.431 -3.7690 -0.8199 -1.4278
  329MOL0     H43381   3.552   7.187   5.557 -0.9556  0.2248 -1.7370
  329MOL0     H43382   3.225   7.251   5.654 -0.3762  0.8840  1.2239
  329MOL0     H43383   3.375   7.295   5.686 -0.0278 -0.0361  2.2993
  329MOL0     H43384   3.388   7.164   5.899  0.3621 -0.8781 -0.5599
  329MOL0     H43385   3.264   7.065   5.862  4.5371 -0.8765 -0.8655
  329MOL0     H43386   3.247   7.386   5.878  2.9691 -2.0229 -1.0441
  329MOL0     H43387   3.102   7.274   5.897 -0.5870  1.8138 -0.8478
  329MOL0     H43388   3.215   7.184   6.109 -0.4124 -0.2577  1.9919
  329MOL0     H43389   3.149   7.350   6.110  1.1424 -0.5214  2.1815
  329MOL0     H43390   3.240   7.332   6.328  0.8620 -1.2842  0.6276
  329MOL0     H43391   3.322   7.476   6.522 -1.3870 -2.6213 -1.2986
  329MOL0     H43392   3.585   7.693   6.793  0.0700 -1.5387 -1.1508
  329MOL0     H43393   3.720   7.831   6.966 -1.1029  0.0684 -0.6327
  329MOL0     H43394   3.976   8.111   6.820 -3.4617 -0.3803  1.2658
  329MOL0     H43395   4.119   8.011   6.840 -0.9138 -3.8159  0.8354
  329MOL0     H43396   3.960   8.167   7.065  0.3665 -1.2182  0.9269
  329MOL0     H43397   4.083   8.240   6.961  3.7181 -1.3310 -1.2666
  329MOL0     H43398   4.171   7.991   7.094  1.4420 -0.9959  2.1112
  329MOL0     H43399   4.127   8.125   7.210  0.4823 -1.0153 -0.4064
  329MOL0     H43400   4.320   8.174   6.994 -0.1964  0.6246  0.2370
  329MOL0     H43401   4.266   8.287   7.115 -0.0581 -0.5046  0.8419
  329MOL0     H43402   4.476   8.211   7.169 -1.4104  1.8660 -2.7518
  329MOL0     H43403   4.421   8.042   7.182  0.0540 -0.9339  4.8607
  329MOL0     H43404   4.262   8.136   7.364 -1.1943  2.1126 -2.4152
  329MOL0     H43405   4.375   8.265   7.362  0.4331  1.0590 -4.6010
  329MOL0     H43406   4.432   8.108   7.527  3.6537  0.3540  0.3870
  329MOL0     H43407   4.452   7.978   7.409 -5.2301  0.7491  2.2770
  329MOL0     H43408   4.640   8.219   7.415 -0.2519 -0.5079  0.0988
  329MOL0     H43409   4.657   8.081   7.305 -1.8864 -2.4901 -0.2170
  329MOL0     H43410   4.019   7.890   6.660 -0.6310 -0.3140 -1.0691
  329MOL0     H43411   3.910   7.767   6.515  3.5160 -2.0314  1.3523
  329MOL0     H43412   3.666   7.591   6.286  1.3551 -2.4444 -0.5419
  329MOL0     H43413   3.576   7.443   6.102  0.8529 -0.3242  0.2710
  329MOL0     H43414   3.162   6.620   4.605 -1.8883  5.0296  1.4070
  329MOL0     H43415   2.975   6.621   4.457  1.7982 -0.8514  2.2568
  329MOL0     H43416   2.590   6.746   4.314 -1.0961  2.1366 -0.8150
  329MOL0     H43417   2.415   6.643   4.190  1.0991  1.5667  3.3353
  329MOL0     H43418   2.326   6.375   3.886  0.1793  0.8235 -2.7852
  329MOL0     H43419   2.496   6.370   3.883 -0.2575 -1.5592  0.9212
  329MOL0     H43420   2.291   6.524   3.712 -1.0190 -2.7131 -0.0310
  329MOL0     H43421   2.458   6.584   3.715  0.7108 -0.3013 -0.9607
  329MOL0     H43422   2.368   6.296   3.633  1.8246 -0.3879  0.2425
  329MOL0     H43423   2.533   6.345   3.656  0.8072 -0.0934 -1.8315
  329MOL0     H43424   2.504   6.512   3.477  2.7069 -1.7627  2.3746
  329MOL0     H43425   2.454   6.349   3.415 -1.7364  0.9451 -1.4663
  329MOL0     H43426   2.084   6.472   3.352 -1.3874 -0.3066  2.2143
  329MOL0     H43427   2.657   6.522   3.878 -1.0991  0.9435 -0.8772
  329MOL0     H43428   2.863   6.606   4.002 -2.8040 -2.9080 -5.6249
  330MOL0     O43429   4.190   9.584   1.243  0.8705 -0.4205  0.0237
  330MOL0     C43430   4.158   9.696   1.273 -0.3567 -0.4280  0.1264
  330MOL0     O43431   4.110   9.742   1.394 -0.1140  0.3588  0.2111
  330MOL0     C43432   4.083   9.654   1.490  0.8426  1.0619 -0.0243
  330MOL0     C43433   4.099   9.695   1.614 -0.2911 -0.9795  0.1088
  330MOL0     C43434   4.090   9.604   1.729 -0.8579  0.7103  0.3929
  330MOL0     C43435   4.065   9.466   1.714 -0.2751 -0.3386  0.1814
  330MOL0     O43436   4.033   9.392   1.833  0.2953 -0.2044 -0.1765
  330MOL0     C43437   4.075   9.254   1.824 -0.3609 -0.7056  0.2832
  330MOL0     C43438   3.952   9.160   1.830  0.0413  0.7718  0.0351
  330MOL0     C43439   3.872   9.175   1.960 -1.7253  0.9625  0.9247
  330MOL0     C43440   3.756   9.070   1.968  0.9850 -0.1134  1.3373
  330MOL0     C43441   3.706   9.046   2.101 -1.0034  0.4461 -0.8049
  330MOL0     C43442   3.601   8.943   2.104 -0.1818 -0.1490 -0.3062
  330MOL0     C43443   3.539   8.921   2.240 -0.9272  0.7823 -0.7988
  330MOL0     C43444   3.454   8.793   2.261  0.1394 -0.2046  0.2515
  330MOL0     N43445   3.410   8.790   2.406 -0.6038 -0.1826 -0.1484
  330MOL0     C43446   3.308   8.857   2.467  0.2374 -0.3514 -0.2244
  330MOL0     C43447   3.299   8.791   2.587  1.1043 -0.4168  0.0187
  330MOL0     C43448   3.201   8.824   2.705 -0.3065 -0.0959 -0.4328
  330MOL0     C43449   3.176   8.968   2.721  0.0799 -0.9663 -0.0790
  330MOL0     C43450   3.309   9.053   2.736  0.7093 -0.0497 -0.2595
  330MOL0     C43451   3.274   9.200   2.759 -0.2979  0.2643  0.1821
  330MOL0     O43452   3.262   9.267   2.636 -0.0451  0.2613  0.8025
  330MOL0     C43453   3.257   9.408   2.628 -0.4704  1.1667 -0.0822
  330MOL0     C43454   3.306   9.467   2.518 -1.1960 -0.8566 -0.1316
  330MOL0     C43455   3.313   9.606   2.518 -0.4892 -0.1278  0.1453
  330MOL0     C43456   3.278   9.690   2.630  0.0558  0.4394  1.4886
  330MOL0     C43457   3.273   9.838   2.609 -1.5575  0.0560 -1.0597
  330MOL0     O43458   3.289   9.883   2.480  0.5658 -0.2409 -0.1644
  330MOL0     C43459   3.298  10.016   2.449 -0.2950 -0.5187 -0.7465
  330MOL0     C43460   3.190  10.074   2.366 -0.1686  0.1117  0.0608
  330MOL0     C43461   3.209  10.207   2.326  0.5701 -0.2247 -0.0833
  330MOL0     C43462   3.317  10.288   2.364 -1.2066  0.2596  0.2909
  330MOL0     O43463   3.313  10.421   2.329  0.4192 -0.2004  0.1509
  330MOL0     C43464   3.437  10.484   2.302  0.7337 -0.0134  0.0919
  330MOL0     C43465   3.399  10.620   2.252 -0.9273 -0.5403  0.8506
  330MOL0     C43466   3.527  10.712   2.248  0.9916  0.2621  1.0883
  330MOL0     C43467   3.506  10.861   2.198  0.1795  0.3886  0.0419
  330MOL0     C43468   3.629  10.946   2.160  0.5114 -0.4904  0.6610
  330MOL0     C43469   3.572  11.090   2.130 -0.1459 -0.5108 -0.2634
  330MOL0     C43470   3.670  11.178   2.064 -0.9263  0.5819  0.0941
  330MOL0     C43471   3.614  11.313   2.033 -0.3197  0.3826  0.6107
  330MOL0    Cl43472   3.445  11.315   1.975  0.1897  0.1950 -0.6009
  330MOL0     C43473   3.420  10.231   2.437  0.8590 -0.2681 -0.3500
  330MOL0     C43474   3.408  10.093   2.478  0.0131 -0.1460 -0.2977
  330MOL0     O43475   3.261   9.908   2.704  0.0680 -0.3705  0.1974
  330MOL0     C43476   3.236   9.622   2.744  1.3603  0.0314  0.0617
  330MOL0     C43477   3.215   9.480   2.738  0.5430  0.5848 -0.8792
  330MOL0     N43478   3.395   8.692   2.598 -0.2762  0.5785 -0.0442
  330MOL0     N43479   3.470   8.711   2.495  0.3875  0.0724 -0.5527
  330MOL0     C43480   4.036   9.426   1.576 -0.4277  0.6607 -0.9978
  330MOL0     C43481   4.034   9.517   1.469  0.3821  0.0680 -1.6722
  330MOL0     C43482   4.198   9.792   1.171  0.7192 -0.6898  0.0622
  330MOL0     C43483   4.248   9.755   1.043  0.4830  0.7330 -0.1570
  330MOL0     C43484   4.276   9.846   0.947 -0.9384 -0.1813  0.8983
  330MOL0     C43485   4.256   9.985   0.979 -0.1403 -0.8662  0.0031
  330MOL0     O43486   4.263  10.095   0.897 -0.5535 -0.1980  0.2642
  330MOL0     C43487   4.376  10.089   0.813 -0.2215 -0.5719  0.1196
  330MOL0     C43488   4.375  10.220   0.721  0.1400  0.5338 -0.6752
  330MOL0     C43489   4.279  10.185   0.613  0.3126  0.0120 -0.6794
  330MOL0     C43490   4.252  10.318   0.526  0.0836 -0.1844 -0.4150
  330MOL0     C43491   4.162  10.289   0.414 -0.1483 -0.6246  0.1587
  330MOL0     C43492   4.075  10.278   0.338  0.2050  0.3350  0.4013
  330MOL0     C43493   4.204  10.024   1.100  0.5576  0.3552  0.8955
  330MOL0     C43494   4.167   9.934   1.200 -0.5756 -0.2970  0.9384
  330MOL0     H43495   4.117   9.802   1.618  0.3336 -1.0550 -0.5434
  330MOL0     H43496   4.107   9.633   1.832 -4.1609  2.6302  0.5267
  330MOL0     H43497   4.144   9.237   1.906 -1.9672 -2.1824  1.4002
  330MOL0     H43498   4.128   9.246   1.729  0.3186  0.6755  0.5172
  330MOL0     H43499   4.000   9.062   1.831 -5.0227 -2.0810  2.7114
  330MOL0     H43500   3.888   9.159   1.742 -2.3335  1.2050  1.6586
  330MOL0     H43501   3.825   9.274   1.961 -1.1247  1.2581  0.6443
  330MOL0     H43502   3.938   9.172   2.048 -2.5557 -2.3601  1.5695
  330MOL0     H43503   3.677   9.106   1.903  1.4579 -0.2494  0.6790
  330MOL0     H43504   3.794   8.976   1.926 -1.1917 -0.7011  0.5837
  330MOL0     H43505   3.676   9.143   2.142  1.1658 -0.4227  3.3167
  330MOL0     H43506   3.792   9.015   2.160  0.1601  4.0895 -0.3236
  330MOL0     H43507   3.661   8.855   2.078 -1.0282 -1.0522  0.6752
  330MOL0     H43508   3.526   8.966   2.028 -2.1732 -2.5762  0.7474
  330MOL0     H43509   3.616   8.921   2.318 -1.0279  1.2399 -0.6922
  330MOL0     H43510   3.475   9.002   2.276 -3.4427 -2.4702  2.9306
  330MOL0     H43511   3.524   8.711   2.242  2.0572  1.2817  0.6379
  330MOL0     H43512   3.362   8.777   2.203  0.6660 -0.4773 -0.5196
  330MOL0     H43513   3.245   8.939   2.433  2.0225  0.9184 -0.6216
  330MOL0     H43514   3.260   8.786   2.789  0.3771 -0.8044 -1.2113
  330MOL0     H43515   3.106   8.774   2.686 -1.0858  1.3836 -0.5750
  330MOL0     H43516   3.122   8.995   2.813 -1.5075 -2.7454 -0.4234
  330MOL0     H43517   3.124   9.008   2.634 -0.5390 -3.0976 -0.7556
  330MOL0     H43518   3.370   9.012   2.817  0.0054  0.4295  0.5282
  330MOL0     H43519   3.371   9.065   2.647 -0.9222  3.3459 -1.0907
  330MOL0     H43520   3.350   9.243   2.824 -1.1088  3.0592 -0.5813
  330MOL0     H43521   3.181   9.220   2.814 -0.0086  1.4366  0.2703
  330MOL0     H43522   3.354   9.410   2.439  1.5540  1.2337 -0.1468
  330MOL0     H43523   3.365   9.659   2.439 -2.2499  1.9927  0.3155
  330MOL0     H43524   3.105  10.012   2.339  0.6290 -0.1558 -2.0072
  330MOL0     H43525   3.130  10.256   2.270  0.8335  2.3885  1.6663
  330MOL0     H43526   3.505  10.436   2.232  1.4448 -0.5894  1.1454
  330MOL0     H43527   3.486  10.504   2.398 -0.9382 -0.4571  1.0651
  330MOL0     H43528   3.334  10.672   2.324 -1.4855  2.0868 -1.3925
  330MOL0     H43529   3.339  10.614   2.161 -0.4824 -3.6152  0.6744
  330MOL0     H43530   3.594  10.653   2.185 -0.1736 -1.7477  1.6530
  330MOL0     H43531   3.576  10.727   2.345  0.6568  3.5128  0.8846
  330MOL0     H43532   3.454  10.849   2.102  0.8390 -3.2988 -0.0045
  330MOL0     H43533   3.432  10.907   2.264  1.7502  1.6667  0.9880
  330MOL0     H43534   3.675  10.893   2.075  1.1351  1.1906 -0.0808
  330MOL0     H43535   3.704  10.952   2.239  1.0217  2.6305  0.0420
  330MOL0     H43536   3.559  11.136   2.228  0.4607  1.8986 -1.2436
  330MOL0     H43537   3.477  11.088   2.075  1.4245 -1.7117 -3.1833
  330MOL0     H43538   3.766  11.184   2.116 -0.8697 -1.5495  0.3370
  330MOL0     H43539   3.704  11.136   1.969 -0.3202  1.5802 -0.1475
  330MOL0     H43540   3.681  11.371   1.969  0.7792  2.0918  3.1447
  330MOL0     H43541   3.614  11.371   2.125 -2.0583  0.9152  0.3001
  330MOL0     H43542   3.517  10.274   2.459  1.2791 -2.2319  2.1012
  330MOL0     H43543   3.486  10.051   2.541  0.5068 -0.4744 -1.1134
  330MOL0     H43544   3.206   9.687   2.826  1.3361 -1.4006  1.2417
  330MOL0     H43545   3.171   9.442   2.830 -3.6844  1.5519 -2.2626
  330MOL0     H43546   4.004   9.324   1.556 -0.4924  0.9992 -2.7391
  330MOL0     H43547   4.006   9.485   1.370  2.3164 -1.1551 -1.8899
  330MOL0     H43548   4.272   9.652   1.017  0.3122  0.8331 -0.7302
  330MOL0     H43549   4.319   9.821   0.850 -1.9189 -2.2512  0.9220
  330MOL0     H43550   4.361  10.003   0.747  2.2495 -1.1525  0.1896
  330MOL0     H43551   4.464  10.071   0.877  0.3910 -5.1563 -1.6288
  330MOL0     H43552   4.334  10.304   0.776 -1.3662  1.7312 -3.4290
  330MOL0     H43553   4.475  10.240   0.680  2.3359 -4.0711  1.6943
  330MOL0     H43554   4.184  10.172   0.665  0.4825  0.2032 -0.3203
  330MOL0     H43555   4.306  10.091   0.564 -0.5160 -1.4786  1.5754
  330MOL0     H43556   4.236  10.406   0.588  0.4785 -1.2565  1.2793
  330MOL0     H43557   4.343  10.347   0.472 -0.2361  0.6744 -0.5101
  330MOL0     H43558   4.008  10.269   0.254 -1.9515 -0.1488  2.0755
  330MOL0     H43559   4.166  10.124   1.119 -0.2563  0.1851  0.2000
  330MOL0     H43560   4.125   9.964   1.296 -0.8698  2.8143 -0.0484
  331MOL0     O43561   7.660   4.747  11.029  0.1193 -0.1513 -0.4310
  331MOL0     C43562   7.772   4.787  11.010  0.0554 -0.8476 -0.4771
  331MOL0     O43563   7.893   4.719  11.016 -0.2163  0.3316 -0.0235
  331MOL0     C43564   7.907   4.585  11.052 -0.0893  0.7451  0.1021
  331MOL0     C43565   8.039   4.545  11.043  0.1715 -0.9942  0.4894
  331MOL0     C43566   8.085   4.431  11.106  0.4529 -0.4503  0.4650
  331MOL0     C43567   7.994   4.342  11.159  0.8714 -0.5021  1.1322
  331MOL0     O43568   8.038   4.218  11.198  0.9899 -0.4921  1.4362
  331MOL0     C43569   7.970   4.105  11.138  0.2585  0.3253 -0.3574
  331MOL0     C43570   7.964   3.993  11.242  0.1420 -0.2438  0.2735
  331MOL0     C43571   7.952   3.851  11.187  0.1020 -0.5797  0.4924
  331MOL0     C43572   7.962   3.740  11.286  0.0672  0.8806 -0.1464
  331MOL0     C43573   7.885   3.616  11.248 -1.8832  0.0710  0.0772
  331MOL0     C43574   7.940   3.532  11.127 -0.0075 -0.6942 -0.7102
  331MOL0     C43575   7.885   3.386  11.116 -0.6470 -0.4473  0.0314
  331MOL0     C43576   7.899   3.326  10.969 -0.8661 -0.5239 -0.4033
  331MOL0     N43577   8.023   3.360  10.904 -0.5405 -0.1619 -0.4592
  331MOL0     C43578   8.141   3.326  10.952 -0.0324  0.2245  0.6799
  331MOL0     C43579   8.231   3.382  10.868  0.7508 -0.4093  0.4414
  331MOL0     C43580   8.385   3.382  10.884 -0.1416  0.2947  0.0974
  331MOL0     C43581   8.457   3.255  10.834  0.6813 -0.2053  0.3555
  331MOL0     C43582   8.405   3.212  10.698 -0.7552  0.5889 -1.0646
  331MOL0     C43583   8.459   3.074  10.661  0.0298  0.4182 -0.3522
  331MOL0     O43584   8.465   2.975  10.767 -0.0451 -0.0765  0.2096
  331MOL0     C43585   8.351   2.892  10.783 -0.2828  0.7213 -0.7574
  331MOL0     C43586   8.225   2.911  10.730  0.0036  0.5298  0.3761
  331MOL0     C43587   8.120   2.821  10.743  0.4678 -0.5410 -0.2619
  331MOL0     C43588   8.144   2.701  10.813 -0.1578 -0.3263  0.1451
  331MOL0     C43589   8.047   2.602  10.815  0.5374  0.4751 -0.8182
  331MOL0     O43590   8.077   2.471  10.796  0.5089 -0.0501  0.7762
  331MOL0     C43591   7.985   2.373  10.805 -1.1197  0.7163 -0.8246
  331MOL0     C43592   7.864   2.370  10.731  0.2167  0.1450  0.0018
  331MOL0     C43593   7.769   2.278  10.759 -0.3272 -0.0520 -0.0964
  331MOL0     C43594   7.802   2.171  10.849  0.2189  0.6148  0.6810
  331MOL0     O43595   7.712   2.068  10.876 -1.2437 -0.5963 -0.7439
  331MOL0     C43596   7.597   2.033  10.796  0.1995  0.3014 -0.9039
  331MOL0     C43597   7.481   2.101  10.874 -0.3389 -0.4063  0.8189
  331MOL0     C43598   7.349   2.098  10.796 -0.7907 -0.5363  0.2424
  331MOL0     C43599   7.217   2.177  10.851 -0.3867 -0.3949  0.9487
  331MOL0     C43600   7.086   2.155  10.774 -0.0408 -0.1863 -1.7306
  331MOL0     C43601   6.962   2.220  10.839  0.9046  0.7983  0.9132
  331MOL0     C43602   6.847   2.161  10.753 -0.2324  0.0788  0.3295
  331MOL0     C43603   6.718   2.228  10.787 -0.2445 -1.1091 -0.3263
  331MOL0    Cl43604   6.675   2.180  10.954 -0.2805  0.0552  0.0093
  331MOL0     C43605   7.918   2.180  10.926 -0.0992 -0.3821  0.0184
  331MOL0     C43606   8.002   2.284  10.905 -0.2974 -0.0688 -0.3997
  331MOL0     O43607   7.934   2.639  10.836  0.1896 -0.2824 -0.1268
  331MOL0     C43608   8.271   2.674  10.858  0.7398 -0.0212  0.1512
  331MOL0     C43609   8.369   2.773  10.861  1.5829  0.8314  0.1627
  331MOL0     N43610   8.161   3.444  10.761  0.9050  0.1603  0.2460
  331MOL0     N43611   8.035   3.434  10.787  0.2843  0.1943 -0.2340
  331MOL0     C43612   7.848   4.375  11.156 -0.1094 -0.2715  0.0190
  331MOL0     C43613   7.801   4.498  11.110 -0.0484 -0.2354  0.6271
  331MOL0     C43614   7.795   4.928  10.976 -0.9014 -0.0350 -0.4335
  331MOL0     C43615   7.711   5.005  10.904 -0.1301  0.6602  0.6628
  331MOL0     C43616   7.755   5.136  10.864 -0.0308  0.0968  0.1070
  331MOL0     C43617   7.873   5.195  10.901 -0.7602  0.1167 -0.1992
  331MOL0     O43618   7.898   5.322  10.856  0.1618 -0.2695 -0.7520
  331MOL0     C43619   7.947   5.410  10.959 -0.7276  0.0795 -0.6349
  331MOL0     C43620   8.077   5.474  10.905 -0.2281  1.0524 -0.0120
  331MOL0     C43621   8.141   5.568  11.014  0.2698  0.1639 -0.2919
  331MOL0     C43622   8.264   5.515  11.082 -1.2781 -0.4605 -0.5913
  331MOL0     C43623   8.226   5.396  11.155  0.5339  0.3921  0.1318
  331MOL0     C43624   8.219   5.283  11.199 -0.9645 -0.2624 -0.2327
  331MOL0     C43625   7.954   5.117  10.982 -0.0166 -0.0366  1.1221
  331MOL0     C43626   7.917   4.989  11.029  0.2605  1.0999 -0.2076
  331MOL0     H43627   8.106   4.614  10.993  0.6389 -2.6111 -1.2695
  331MOL0     H43628   8.191   4.427  11.127  0.7603  0.0417 -0.8788
  331MOL0     H43629   8.039   4.074  11.059 -0.3331 -0.1732 -0.6866
  331MOL0     H43630   7.868   4.116  11.102 -0.3578 -2.3743  0.2997
  331MOL0     H43631   7.880   4.007  11.311 -1.7157  0.5097 -1.9956
  331MOL0     H43632   8.050   3.996  11.310  1.1488  0.2507 -0.9782
  331MOL0     H43633   8.025   3.848  11.105 -0.4255 -0.2527  0.0038
  331MOL0     H43634   7.860   3.842  11.130  0.6932  0.6528 -0.7243
  331MOL0     H43635   8.067   3.715  11.298  0.2964  1.6889 -0.4222
  331MOL0     H43636   7.933   3.767  11.389 -2.2307 -0.4958 -0.3470
  331MOL0     H43637   7.778   3.637  11.247 -1.6485  1.5144  1.2559
  331MOL0     H43638   7.901   3.550  11.334  3.5556 -1.5365 -1.7373
  331MOL0     H43639   8.049   3.523  11.138 -0.3129 -2.6849  1.6659
  331MOL0     H43640   7.913   3.586  11.036  1.1396  0.1607 -0.5813
  331MOL0     H43641   7.946   3.317  11.174  0.3847  1.5180  1.3888
  331MOL0     H43642   7.780   3.383  11.148 -0.2330 -0.2164  1.4663
  331MOL0     H43643   7.819   3.361  10.904 -1.9454  1.7113  1.9363
  331MOL0     H43644   7.892   3.217  10.979  3.0107 -0.7402  2.1384
  331MOL0     H43645   8.165   3.282  11.048 -0.3269 -1.3035  0.0854
  331MOL0     H43646   8.399   3.398  10.992  0.5526  1.5439 -0.1607
  331MOL0     H43647   8.423   3.467  10.828  2.8137 -1.1568 -0.2807
  331MOL0     H43648   8.453   3.179  10.912 -2.8091 -0.5460  0.0299
  331MOL0     H43649   8.562   3.280  10.821  0.3289  0.1121 -2.5016
  331MOL0     H43650   8.296   3.202  10.702 -0.8002  1.3449 -0.1836
  331MOL0     H43651   8.440   3.283  10.622  2.0431  0.8371  0.3440
  331MOL0     H43652   8.563   3.089  10.629  1.7142 -0.5796  3.9439
  331MOL0     H43653   8.411   3.032  10.572 -0.5773  0.5864 -0.1035
  331MOL0     H43654   8.200   3.004  10.681  1.1372  1.2053  1.0265
  331MOL0     H43655   8.024   2.845  10.697  1.9199 -0.8277 -3.7070
  331MOL0     H43656   7.836   2.453  10.667  2.1224 -0.6074 -1.9044
  331MOL0     H43657   7.672   2.290  10.713 -0.6931  3.5194  1.3320
  331MOL0     H43658   7.578   1.926  10.797  0.1637  0.2065 -3.5885
  331MOL0     H43659   7.612   2.068  10.693 -0.3605  0.6465 -0.8720
  331MOL0     H43660   7.516   2.204  10.879 -0.3621 -0.3314 -0.2857
  331MOL0     H43661   7.469   2.065  10.976 -1.8313 -2.7716 -0.1022
  331MOL0     H43662   7.306   1.997  10.796 -4.1662  0.7185  2.4307
  331MOL0     H43663   7.368   2.127  10.692 -1.1428 -0.2061  0.2697
  331MOL0     H43664   7.203   2.133  10.951 -2.4776 -2.5956 -0.2049
  331MOL0     H43665   7.225   2.286  10.856 -1.0314 -0.3383  0.9165
  331MOL0     H43666   7.057   2.050  10.770 -2.0011  0.2910 -1.4204
  331MOL0     H43667   7.109   2.191  10.674  7.0469  1.9737  0.0951
  331MOL0     H43668   6.980   2.328  10.826  1.7210  0.3611 -2.9659
  331MOL0     H43669   6.948   2.184  10.941 -1.7724  2.1503  1.1065
  331MOL0     H43670   6.863   2.160  10.644  0.9447  1.3700  0.4593
  331MOL0     H43671   6.840   2.055  10.781 -0.5463  0.1158  0.3902
  331MOL0     H43672   6.643   2.199  10.712 -2.4058  1.8609  0.5044
  331MOL0     H43673   6.732   2.336  10.779  1.3817 -1.2820 -0.2113
  331MOL0     H43674   7.943   2.101  10.997 -3.1184 -1.2232  0.3120
  331MOL0     H43675   8.087   2.293  10.972 -2.3945  1.7496  2.2433
  331MOL0     H43676   8.301   2.575  10.890  1.8521 -0.5510 -2.2746
  331MOL0     H43677   8.469   2.751  10.898  0.4783  0.4487  3.2355
  331MOL0     H43678   7.781   4.300  11.197  1.5997 -0.6585  2.3447
  331MOL0     H43679   7.697   4.526  11.119 -0.8779 -2.4684 -1.0316
  331MOL0     H43680   7.620   4.966  10.860  1.6533 -2.2191 -0.7876
  331MOL0     H43681   7.673   5.184  10.810 -0.4355  1.0337  1.4774
  331MOL0     H43682   7.951   5.365  11.059 -0.6263  0.7690 -0.3151
  331MOL0     H43683   7.892   5.504  10.970  0.3290  1.3944 -4.7981
  331MOL0     H43684   8.138   5.394  10.863 -2.8411 -0.1916 -1.6709
  331MOL0     H43685   8.044   5.541  10.825 -1.9310  0.0400 -0.1939
  331MOL0     H43686   8.059   5.586  11.085 -0.4488  1.7231 -1.4395
  331MOL0     H43687   8.165   5.665  10.968 -0.3936  0.1372 -0.7072
  331MOL0     H43688   8.334   5.484  11.005 -0.5854 -0.5595  0.0714
  331MOL0     H43689   8.311   5.594  11.141  2.3739 -0.9698 -2.5587
  331MOL0     H43690   8.223   5.184  11.240 -0.5551  0.3867  1.3956
  331MOL0     H43691   8.045   5.160  11.023  0.6152  0.8404 -1.0404
  331MOL0     H43692   7.987   4.930  11.087 -0.2258  3.0899  2.6343
  332MOL0     O43693   2.813   1.325   3.905 -0.6305  1.1539  0.3162
  332MOL0     C43694   2.830   1.326   3.778  0.3902 -1.2007  0.8489
  332MOL0     O43695   2.899   1.235   3.708  0.0299  0.4554 -0.2811
  332MOL0     C43696   2.969   1.141   3.771  0.1505  0.4138 -0.2350
  332MOL0     C43697   3.108   1.134   3.759 -0.6063  0.2832 -0.8683
  332MOL0     C43698   3.179   1.028   3.821  0.2162 -0.0223  0.0005
  332MOL0     C43699   3.109   0.926   3.889  0.1136  0.2660 -0.7639
  332MOL0     O43700   3.183   0.823   3.950 -0.6736  0.0946 -0.0323
  332MOL0     C43701   3.125   0.694   3.982  0.8628  0.1845 -0.1492
  332MOL0     C43702   3.237   0.591   3.957 -0.7971  0.1649 -0.6167
  332MOL0     C43703   3.349   0.607   4.063 -0.5183  0.3251 -0.6491
  332MOL0     C43704   3.301   0.552   4.198 -0.7940  0.5966 -0.0291
  332MOL0     C43705   3.389   0.608   4.309  0.4753  0.3258  0.5776
  332MOL0     C43706   3.364   0.557   4.450 -0.1054  0.1081  0.0409
  332MOL0     C43707   3.239   0.639   4.495  1.1655 -0.6882  0.7131
  332MOL0     C43708   3.213   0.612   4.637  0.0958 -0.6261  0.1349
  332MOL0     N43709   3.097   0.694   4.679  0.0319  0.5355 -0.1907
  332MOL0     C43710   3.110   0.829   4.702 -0.4921  0.3233  1.2267
  332MOL0     C43711   2.987   0.874   4.727  0.3451 -1.4860  0.6314
  332MOL0     C43712   2.951   1.023   4.761 -0.4245 -0.6062  0.1867
  332MOL0     C43713   3.049   1.078   4.853  0.3889  1.2250  0.1939
  332MOL0     C43714   3.052   1.025   4.992 -0.3721 -0.0074  0.3786
  332MOL0     C43715   2.930   1.072   5.067  0.7469  0.3573 -0.2530
  332MOL0     O43716   2.916   0.971   5.173 -0.1804 -0.7485  0.2995
  332MOL0     C43717   2.832   1.004   5.269 -0.0164 -0.0914 -0.8403
  332MOL0     C43718   2.839   0.931   5.386 -0.3755  1.0019  0.3627
  332MOL0     C43719   2.761   0.945   5.502  1.3639  0.2089 -0.0487
  332MOL0     C43720   2.668   1.053   5.497 -0.2492  0.9917 -0.7602
  332MOL0     C43721   2.585   1.084   5.608 -0.2626 -0.5737  0.3001
  332MOL0     O43722   2.633   1.046   5.729  0.4876 -0.2128 -0.6140
  332MOL0     C43723   2.552   1.043   5.840  0.5085  0.3396 -0.3881
  332MOL0     C43724   2.411   1.042   5.846 -0.4771  0.0229  0.8587
  332MOL0     C43725   2.331   1.023   5.959 -0.6738  1.0705  0.7845
  332MOL0     C43726   2.406   1.007   6.083 -0.5719  0.1696  0.0647
  332MOL0     O43727   2.319   1.003   6.188  0.9450 -1.4020 -0.0615
  332MOL0     C43728   2.373   0.962   6.317  0.0380 -0.0834  0.4066
  332MOL0     C43729   2.257   0.904   6.408  0.1801 -0.0504 -0.6189
  332MOL0     C43730   2.194   0.770   6.380 -0.4603  0.5739  0.1441
  332MOL0     C43731   2.297   0.664   6.408 -0.4037 -0.2659 -0.2809
  332MOL0     C43732   2.218   0.528   6.407 -0.4929 -0.4884 -0.3433
  332MOL0     C43733   2.309   0.429   6.494 -0.5020  0.5009  0.2236
  332MOL0     C43734   2.449   0.402   6.438 -0.5585  0.0342  0.3012
  332MOL0     C43735   2.524   0.287   6.511  0.9859 -0.3435 -0.1321
  332MOL0    Cl43736   2.436   0.141   6.503  0.4795  0.3080 -0.3703
  332MOL0     C43737   2.552   1.021   6.090 -0.0337  0.4962  0.1905
  332MOL0     C43738   2.612   1.030   5.960 -0.4447  0.2851 -0.2385
  332MOL0     O43739   2.479   1.142   5.589  0.6541  0.1605  0.8268
  332MOL0     C43740   2.645   1.119   5.375  0.1732 -0.5943 -0.5796
  332MOL0     C43741   2.731   1.099   5.264  0.4313 -1.0000  0.0755
  332MOL0     N43742   2.902   0.765   4.722  0.4381  0.8213  0.5602
  332MOL0     N43743   2.967   0.667   4.686  0.6537  0.7037 -0.0002
  332MOL0     C43744   2.972   0.933   3.891  0.3151  0.9094  0.1337
  332MOL0     C43745   2.898   1.044   3.835  0.3543 -0.3340  0.0973
  332MOL0     C43746   2.777   1.436   3.702 -0.6888  0.0969 -0.7976
  332MOL0     C43747   2.755   1.427   3.560  0.0361  0.3476 -0.3302
  332MOL0     C43748   2.708   1.539   3.494 -0.1341 -0.3245 -0.9390
  332MOL0     C43749   2.687   1.663   3.554 -0.6958 -0.2106 -0.4182
  332MOL0     O43750   2.621   1.762   3.504  0.2065 -0.7079  0.6768
  332MOL0     C43751   2.608   1.779   3.357  0.3205  1.0005  0.1347
  332MOL0     C43752   2.541   1.911   3.337 -0.0994  0.0525 -0.4134
  332MOL0     C43753   2.513   1.930   3.186 -0.3282 -0.0462  0.0619
  332MOL0     C43754   2.411   2.043   3.151 -0.2683  0.5859  0.3225
  332MOL0     C43755   2.434   2.089   3.010  0.4883 -0.5806  0.2248
  332MOL0     C43756   2.459   2.133   2.894 -0.8560 -0.9469  0.4731
  332MOL0     C43757   2.704   1.671   3.696  0.5594 -0.4511 -0.0812
  332MOL0     C43758   2.750   1.561   3.772  0.4383 -0.4450  0.7019
  332MOL0     H43759   3.171   1.208   3.710  0.1554  1.0451  1.1680
  332MOL0     H43760   3.287   1.026   3.807  0.4679  3.9018  0.2003
  332MOL0     H43761   3.031   0.671   3.932 -0.2599  0.2618  1.8314
  332MOL0     H43762   3.090   0.701   4.085  0.6185 -1.8593 -0.0688
  332MOL0     H43763   3.292   0.605   3.863  5.5715 -0.6440  2.4267
  332MOL0     H43764   3.201   0.488   3.956  0.2134 -0.2106 -0.1603
  332MOL0     H43765   3.362   0.715   4.078  2.6213 -0.1398  0.9644
  332MOL0     H43766   3.447   0.561   4.045 -1.0349 -1.2254  0.3305
  332MOL0     H43767   3.200   0.584   4.223 -0.7237  1.4327 -0.7742
  332MOL0     H43768   3.307   0.443   4.194 -2.1616  0.5168 -0.1121
  332MOL0     H43769   3.384   0.718   4.310 -2.5544  0.2787  1.2608
  332MOL0     H43770   3.493   0.582   4.289  0.7072  1.7258 -0.1330
  332MOL0     H43771   3.452   0.564   4.514  1.2794 -1.6935 -1.5513
  332MOL0     H43772   3.346   0.449   4.445  1.9600 -0.3065  0.6694
  332MOL0     H43773   3.255   0.746   4.476 -0.8694 -0.1762  1.6500
  332MOL0     H43774   3.148   0.605   4.446  0.6093  1.2613  0.2982
  332MOL0     H43775   3.295   0.631   4.708  0.3330  4.1049 -1.0527
  332MOL0     H43776   3.206   0.504   4.645  1.2585 -1.0057 -2.8918
  332MOL0     H43777   3.199   0.891   4.694 -0.7856  0.8242  1.7658
  332MOL0     H43778   2.853   1.013   4.808 -0.1922 -1.8181  0.4451
  332MOL0     H43779   2.934   1.084   4.672 -1.5605 -0.7266  0.3110
  332MOL0     H43780   3.041   1.187   4.854  2.8331  1.4849 -1.0790
  332MOL0     H43781   3.150   1.065   4.816  0.0869  2.7316 -1.2643
  332MOL0     H43782   3.053   0.916   4.990 -0.1728  0.0017 -0.5863
  332MOL0     H43783   3.138   1.070   5.043  1.2088 -1.0351 -1.2718
  332MOL0     H43784   2.837   1.068   5.010 -1.8534  0.6088  3.5365
  332MOL0     H43785   2.938   1.177   5.098 -1.3394  0.4262  0.1876
  332MOL0     H43786   2.918   0.857   5.400 -1.3194 -0.6436 -2.2177
  332MOL0     H43787   2.765   0.890   5.595 -4.9911  0.0084  0.5548
  332MOL0     H43788   2.355   1.044   5.753  1.0902  0.7605 -0.1116
  332MOL0     H43789   2.223   1.018   5.956 -0.6247 -0.6813  0.9474
  332MOL0     H43790   2.423   1.052   6.354  2.2340  0.3696 -3.1559
  332MOL0     H43791   2.458   0.894   6.316 -0.2666 -0.5960  3.1587
  332MOL0     H43792   2.175   0.977   6.411 -0.6672 -1.0184  0.7844
  332MOL0     H43793   2.292   0.896   6.511 -1.5153 -3.9458 -0.1909
  332MOL0     H43794   2.175   0.777   6.272 -1.8884  2.0657  0.4442
  332MOL0     H43795   2.096   0.756   6.426  0.0306  0.9252  1.3144
  332MOL0     H43796   2.388   0.669   6.348  0.9416 -2.8494  1.3396
  332MOL0     H43797   2.328   0.689   6.510 -3.4504 -0.3215  0.7809
  332MOL0     H43798   2.207   0.481   6.309  1.7538 -1.2319 -0.2904
  332MOL0     H43799   2.124   0.535   6.463  0.6237  0.6828  1.4637
  332MOL0     H43800   2.270   0.327   6.500  2.4983 -0.8966 -1.6040
  332MOL0     H43801   2.326   0.467   6.596 -0.8034  0.8366  0.1472
  332MOL0     H43802   2.454   0.390   6.330  3.5274  2.1406  0.0584
  332MOL0     H43803   2.495   0.495   6.472 -4.6354  0.6671  5.4193
  332MOL0     H43804   2.519   0.305   6.619 -0.4570 -0.6154 -0.1423
  332MOL0     H43805   2.628   0.281   6.479  1.8184  0.7828  2.0777
  332MOL0     H43806   2.618   1.022   6.176 -1.5375  1.5402  1.3966
  332MOL0     H43807   2.721   1.037   5.958 -0.1236 -3.2644 -1.7241
  332MOL0     H43808   2.563   1.190   5.364 -0.7866 -1.3241  1.4628
  332MOL0     H43809   2.708   1.149   5.171  1.9677 -0.3621 -0.0030
  332MOL0     H43810   2.912   0.866   3.953 -0.9836  1.8515 -0.0534
  332MOL0     H43811   2.790   1.043   3.846  0.1927 -1.0831 -1.2655
  332MOL0     H43812   2.756   1.332   3.508  0.0315  0.9079 -1.3691
  332MOL0     H43813   2.700   1.538   3.386 -1.9651  0.3021 -0.8289
  332MOL0     H43814   2.557   1.697   3.305  4.5202 -1.9128  0.0117
  332MOL0     H43815   2.707   1.770   3.311 -0.6042 -1.5035 -1.6183
  332MOL0     H43816   2.457   1.917   3.406 -0.4568 -0.2915 -0.8107
  332MOL0     H43817   2.611   1.991   3.363  0.0882  0.3400 -1.6918
  332MOL0     H43818   2.465   1.846   3.136 -3.3361  1.1550  0.7048
  332MOL0     H43819   2.609   1.952   3.138 -0.2069  1.3231  0.8720
  332MOL0     H43820   2.308   2.006   3.149 -2.1272  5.1238 -1.7088
  332MOL0     H43821   2.413   2.125   3.223  1.8940  0.2063  0.7571
  332MOL0     H43822   2.479   2.179   2.799  1.6336  1.5990  2.0611
  332MOL0     H43823   2.683   1.767   3.742  0.3255  0.3994 -1.8923
  332MOL0     H43824   2.752   1.585   3.878 -0.9178  0.8593  0.4696
  333MOL0     O43825   9.553   2.907   9.004 -0.2263 -0.0419  0.2190
  333MOL0     C43826   9.506   2.894   8.886  0.3031  0.2291  0.1713
  333MOL0     O43827   9.408   2.808   8.851 -0.2122  0.1058 -0.1500
  333MOL0     C43828   9.379   2.703   8.942 -0.1158 -0.1910  0.4595
  333MOL0     C43829   9.442   2.661   9.062  0.8622 -0.1388  0.7858
  333MOL0     C43830   9.378   2.565   9.148 -0.3029  1.2690  0.3131
  333MOL0     C43831   9.275   2.484   9.099  1.0043 -0.5921 -0.4377
  333MOL0     O43832   9.235   2.378   9.178  0.1467 -0.0395  0.2416
  333MOL0     C43833   9.091   2.375   9.210 -0.5676 -0.8718  0.1199
  333MOL0     C43834   9.068   2.273   9.319 -0.0912  0.7624 -0.2473
  333MOL0     C43835   8.922   2.271   9.359 -0.4378 -0.8098  0.5288
  333MOL0     C43836   8.891   2.167   9.467 -0.1529 -0.5551 -0.2735
  333MOL0     C43837   8.888   2.034   9.411 -0.3572 -0.4531  0.2942
  333MOL0     C43838   8.880   1.931   9.530  0.6007 -0.6388 -0.2725
  333MOL0     C43839   8.826   1.795   9.487  0.4551 -0.0674  0.1357
  333MOL0     C43840   8.672   1.796   9.507  0.4126 -0.5836 -0.8602
  333MOL0     N43841   8.611   1.676   9.467  0.9900 -0.1102 -0.2385
  333MOL0     C43842   8.641   1.540   9.502  1.2347  0.5747  0.2884
  333MOL0     C43843   8.562   1.460   9.419  1.0281  0.5744 -0.4713
  333MOL0     C43844   8.561   1.314   9.405  0.2669  0.8470 -0.3545
  333MOL0     C43845   8.590   1.266   9.271  0.6134 -0.2219 -0.7717
  333MOL0     C43846   8.488   1.290   9.161  0.2036 -0.4189 -0.7172
  333MOL0     C43847   8.337   1.238   9.188  0.6210 -0.7390  1.1887
  333MOL0     O43848   8.309   1.120   9.123  0.3538  0.3809 -0.6166
  333MOL0     C43849   8.302   1.002   9.197 -0.7589 -0.1806 -0.4348
  333MOL0     C43850   8.368   0.998   9.326 -0.4832  0.6168  0.0661
  333MOL0     C43851   8.347   0.889   9.413  0.0755  0.7939  0.2845
  333MOL0     C43852   8.255   0.785   9.365 -0.0372 -0.4906  0.5891
  333MOL0     C43853   8.238   0.666   9.447 -0.5347  0.2283 -0.1719
  333MOL0     O43854   8.317   0.669   9.561 -0.4396 -0.7980 -0.2746
  333MOL0     C43855   8.280   0.579   9.656  0.7819  0.1800  0.2128
  333MOL0     C43856   8.299   0.437   9.630 -0.1394 -0.1369  0.3198
  333MOL0     C43857   8.250   0.350   9.720  0.0399  0.0844  0.2291
  333MOL0     C43858   8.185   0.389   9.838 -2.3962  0.4689 -0.8637
  333MOL0     O43859   8.149   0.298   9.932  0.2540 -0.2271  0.1370
  333MOL0     C43860   8.032   0.230   9.887  0.3203 -0.3165 -0.3968
  333MOL0     C43861   8.031   0.099   9.967 -0.1732 -0.4453  1.1050
  333MOL0     C43862   7.922  -0.011   9.942 -0.7440  0.7803  1.2841
  333MOL0     C43863   7.929  -0.138  10.036 -0.8709 -0.3845  0.0652
  333MOL0     C43864   8.033  -0.232   9.989  0.0516 -0.4309  1.0792
  333MOL0     C43865   8.000  -0.314   9.861 -0.1365  1.5190  1.2257
  333MOL0     C43866   8.089  -0.442   9.851 -0.1746 -1.5167  1.0364
  333MOL0     C43867   8.032  -0.557   9.921  0.4833  0.1479  0.9150
  333MOL0    Cl43868   7.884  -0.618   9.837 -0.0214  0.0748 -0.5569
  333MOL0     C43869   8.180   0.522   9.863 -1.1469  0.5852 -0.5175
  333MOL0     C43870   8.225   0.622   9.773 -0.6230  1.1253  0.1761
  333MOL0     O43871   8.173   0.568   9.409 -0.8987  0.5901  0.1449
  333MOL0     C43872   8.214   0.787   9.224 -1.0475 -1.0450 -0.2759
  333MOL0     C43873   8.236   0.901   9.150  0.6588 -0.5627 -0.0242
  333MOL0     N43874   8.478   1.546   9.351 -0.1919  0.6524 -1.0611
  333MOL0     N43875   8.525   1.667   9.364 -0.1248  0.4813 -0.1443
  333MOL0     C43876   9.210   2.512   8.975 -0.2346 -0.6022 -1.2913
  333MOL0     C43877   9.266   2.626   8.903  0.0060 -0.2479  0.4926
  333MOL0     C43878   9.568   2.967   8.784 -0.5392 -0.3241 -0.0389
  333MOL0     C43879   9.504   2.974   8.659 -0.1464 -0.1864 -0.8947
  333MOL0     C43880   9.574   3.037   8.560  0.4622  0.6443 -0.4860
  333MOL0     C43881   9.696   3.098   8.580 -0.6440 -0.4730 -0.9342
  333MOL0     O43882   9.760   3.173   8.482 -0.2195  0.0841  0.3466
  333MOL0     C43883   9.901   3.182   8.482 -0.6771  0.7816 -1.3089
  333MOL0     C43884   9.979   3.043   8.459  0.6666 -0.6368 -0.1821
  333MOL0     C43885   9.968   3.013   8.311  0.4383  0.2934 -0.1050
  333MOL0     C43886   9.964   2.862   8.279  0.2711  0.6496 -1.3445
  333MOL0     C43887   9.964   2.844   8.135 -0.1217 -0.0542 -0.5734
  333MOL0     C43888   9.946   2.839   8.013  0.5131  0.4922 -0.1985
  333MOL0     C43889   9.759   3.092   8.706 -0.9936  0.5992  0.3236
  333MOL0     C43890   9.701   3.022   8.807  1.3731 -0.4602  0.0687
  333MOL0     H43891   9.531   2.701   9.109  0.3238 -0.2223  1.9224
  333MOL0     H43892   9.422   2.532   9.241  1.3860 -1.9348 -1.4850
  333MOL0     H43893   9.029   2.370   9.120 -5.0357  0.0942  2.8304
  333MOL0     H43894   9.063   2.471   9.253  3.0135  0.0225  0.7373
  333MOL0     H43895   9.143   2.289   9.397 -0.1449 -1.5340  0.3760
  333MOL0     H43896   9.102   2.175   9.283  0.7204  0.7082  0.6136
  333MOL0     H43897   8.855   2.262   9.273  1.1171  2.1963 -1.1921
  333MOL0     H43898   8.894   2.370   9.396 -1.3999 -0.7422 -0.3132
  333MOL0     H43899   8.965   2.175   9.547  2.4114 -0.9064 -2.4751
  333MOL0     H43900   8.798   2.192   9.519  1.3987 -1.6458  3.3778
  333MOL0     H43901   8.978   2.014   9.351 -1.3541  0.3055 -1.5291
  333MOL0     H43902   8.809   2.029   9.336 -1.0506 -1.3987  1.0627
  333MOL0     H43903   8.829   1.979   9.613 -2.0600  1.1638 -2.7341
  333MOL0     H43904   8.984   1.928   9.563 -0.4181  0.8463  3.4719
  333MOL0     H43905   8.848   1.775   9.382 -0.1326 -3.0509  0.5066
  333MOL0     H43906   8.865   1.716   9.551  2.1892  0.8476  0.2889
  333MOL0     H43907   8.634   1.888   9.461  0.1644 -0.0310  0.3889
  333MOL0     H43908   8.647   1.816   9.612 -2.8802  0.7805 -1.7766
  333MOL0     H43909   8.701   1.508   9.586  0.3066  3.5891  2.2927
  333MOL0     H43910   8.464   1.282   9.445 -0.4838  0.5453 -2.3100
  333MOL0     H43911   8.643   1.267   9.461  0.8471  1.2730 -0.8377
  333MOL0     H43912   8.625   1.164   9.289  1.5746  0.3142  0.5412
  333MOL0     H43913   8.684   1.314   9.243  2.3359 -2.9597 -0.1136
  333MOL0     H43914   8.481   1.398   9.146  2.4968  0.0853  1.2895
  333MOL0     H43915   8.523   1.252   9.065 -2.0093  1.9637 -2.6150
  333MOL0     H43916   8.274   1.313   9.138  0.8025  0.2749  2.4429
  333MOL0     H43917   8.307   1.239   9.293 -1.2146 -1.8895  0.7291
  333MOL0     H43918   8.427   1.076   9.372  0.3177 -0.4534  0.9106
  333MOL0     H43919   8.392   0.887   9.512  1.5553  0.6570 -0.3616
  333MOL0     H43920   8.345   0.412   9.535 -1.1415  0.9451 -0.4803
  333MOL0     H43921   8.248   0.245   9.693  0.3797  0.0146  0.4720
  333MOL0     H43922   8.029   0.215   9.778  1.2411  0.6648 -0.5786
  333MOL0     H43923   7.943   0.289   9.911  2.1476  2.5813 -0.2562
  333MOL0     H43924   8.033   0.131  10.072  0.1618  3.6946  0.0097
  333MOL0     H43925   8.127   0.055   9.940 -0.8076 -0.5260 -1.2207
  333MOL0     H43926   7.933  -0.043   9.838  0.1671 -3.3353  2.4523
  333MOL0     H43927   7.827   0.043   9.952  0.0998  2.2918  1.5324
  333MOL0     H43928   7.950  -0.093  10.133 -2.4289  0.3662  0.0820
  333MOL0     H43929   7.834  -0.192  10.033 -1.3504  0.4342 -2.3675
  333MOL0     H43930   8.040  -0.301  10.074 -1.0575 -1.9955 -0.0431
  333MOL0     H43931   8.133  -0.191   9.973  0.3028 -1.4207  0.0388
  333MOL0     H43932   8.010  -0.243   9.778 -0.8296  1.5460  1.1595
  333MOL0     H43933   7.898  -0.353   9.856  0.9519 -1.3781 -1.9213
  333MOL0     H43934   8.101  -0.478   9.748  0.0578  0.2046  0.4236
  333MOL0     H43935   8.192  -0.438   9.887  1.4331  0.3780 -3.0301
  333MOL0     H43936   8.000  -0.533  10.023  0.5320 -1.7476  1.4208
  333MOL0     H43937   8.102  -0.640   9.929  2.0960  1.3691  0.0599
  333MOL0     H43938   8.129   0.542   9.957  3.0403  2.9623  1.5352
  333MOL0     H43939   8.226   0.728   9.797 -1.4909  1.6930 -1.9681
  333MOL0     H43940   8.160   0.697   9.195 -1.7534 -0.2037 -1.6451
  333MOL0     H43941   8.170   0.905   9.064  0.7293  1.4160 -0.0346
  333MOL0     H43942   9.115   2.469   8.944 -0.5255 -0.6420 -0.3564
  333MOL0     H43943   9.235   2.651   8.802  1.1789 -1.7809 -0.2812
  333MOL0     H43944   9.403   2.937   8.646 -0.3284  0.0544 -0.2526
  333MOL0     H43945   9.530   3.045   8.461 -0.6054  1.8809  0.0720
  333MOL0     H43946   9.927   3.232   8.576 -1.0041 -1.2204 -0.0793
  333MOL0     H43947   9.938   3.250   8.405  2.7597  2.8624  1.8431
  333MOL0     H43948  10.086   3.059   8.477  0.6981  2.1163 -2.2885
  333MOL0     H43949   9.932   2.971   8.527  0.0241 -1.3380 -1.3355
  333MOL0     H43950  10.053   3.064   8.265  2.0342 -1.2965  0.9481
  333MOL0     H43951   9.879   3.061   8.268  0.9036  2.9609  1.6921
  333MOL0     H43952  10.055   2.814   8.316 -1.4954 -0.4958  1.9055
  333MOL0     H43953   9.869   2.823   8.318 -1.0679  4.3499 -0.5062
  333MOL0     H43954   9.925   2.810   7.912 -0.9638 -2.7077  0.9218
  333MOL0     H43955   9.855   3.134   8.735 -0.0377 -2.7972  2.6756
  333MOL0     H43956   9.742   2.993   8.904 -0.3173  1.9081  1.5941
  334MOL0     O43957   4.118   0.860   6.701  0.2300 -0.4951  0.1243
  334MOL0     C43958   4.107   0.867   6.574  0.3420 -0.4742 -0.1692
  334MOL0     O43959   3.999   0.826   6.500  0.8999  0.1294  0.2957
  334MOL0     C43960   3.891   0.765   6.567 -0.0243  0.5955 -0.0868
  334MOL0     C43961   3.762   0.822   6.568 -0.9071 -0.2791  2.0226
  334MOL0     C43962   3.654   0.757   6.621  0.6607 -0.1628  0.1348
  334MOL0     C43963   3.682   0.627   6.670 -0.3964 -0.4851  0.5860
  334MOL0     O43964   3.584   0.559   6.734  0.3421  0.2044  0.5105
  334MOL0     C43965   3.480   0.511   6.633  0.0152 -0.3770 -0.7313
  334MOL0     C43966   3.382   0.430   6.726 -0.1386  0.2276  1.0083
  334MOL0     C43967   3.305   0.510   6.830 -0.7126 -0.8641 -0.2095
  334MOL0     C43968   3.175   0.449   6.864  0.3090  0.1067  0.6425
  334MOL0     C43969   3.085   0.538   6.951  0.1201 -0.7137  0.1042
  334MOL0     C43970   2.982   0.454   7.014  0.7686  0.4528 -0.0868
  334MOL0     C43971   2.885   0.533   7.104  0.8010  0.1828 -0.5851
  334MOL0     C43972   2.950   0.583   7.235 -0.5650  0.3259 -0.0968
  334MOL0     N43973   2.851   0.593   7.343 -0.4866 -0.6581  0.6054
  334MOL0     C43974   2.765   0.696   7.348  0.4793  0.5512 -0.3491
  334MOL0     C43975   2.668   0.652   7.440  0.0620 -0.6148  1.2681
  334MOL0     C43976   2.540   0.728   7.471  0.6148 -0.5031 -0.9420
  334MOL0     C43977   2.517   0.763   7.622 -0.2686 -0.5444 -0.3952
  334MOL0     C43978   2.379   0.803   7.657  0.8390 -0.2726  0.6079
  334MOL0     C43979   2.281   0.690   7.673 -0.5376  0.1742 -0.1442
  334MOL0     O43980   2.249   0.636   7.544 -0.5708 -1.0220  0.3215
  334MOL0     C43981   2.127   0.669   7.488  0.0408 -0.3148 -0.3064
  334MOL0     C43982   2.034   0.769   7.533  0.5689  0.4171  0.5881
  334MOL0     C43983   1.923   0.799   7.454  0.2387 -0.3212 -0.3058
  334MOL0     C43984   1.882   0.704   7.346 -0.1004  0.2504 -0.4256
  334MOL0     C43985   1.741   0.712   7.287  0.7585 -0.4227 -0.2328
  334MOL0     O43986   1.706   0.641   7.178 -0.2997  0.4399 -0.2119
  334MOL0     C43987   1.571   0.631   7.141 -0.0568 -0.4374  0.0645
  334MOL0     C43988   1.526   0.649   7.009 -0.7375  0.6592 -0.2369
  334MOL0     C43989   1.395   0.615   6.971  0.1498 -0.5437 -0.4110
  334MOL0     C43990   1.297   0.592   7.062  0.1080  0.2261  0.0513
  334MOL0     O43991   1.170   0.557   7.037 -0.6489 -0.0914 -0.2263
  334MOL0     C43992   1.154   0.456   6.935  0.4510  0.3453 -0.1082
  334MOL0     C43993   1.001   0.429   6.930 -0.8652 -0.1276  0.2995
  334MOL0     C43994   0.955   0.329   6.823 -0.2623  0.1696  0.5096
  334MOL0     C43995   0.799   0.337   6.777 -0.3643 -0.0812  0.2321
  334MOL0     C43996   0.702   0.330   6.890  1.1141  0.3433  0.2697
  334MOL0     C43997   0.562   0.297   6.830 -0.9847  0.3892  0.4801
  334MOL0     C43998   0.444   0.276   6.923  0.0946  1.2363 -0.7801
  334MOL0     C43999   0.459   0.176   7.037  0.3427  0.3794 -0.2995
  334MOL0    Cl44000   0.570   0.047   6.984  0.0891 -0.1060 -0.4384
  334MOL0     C44001   1.347   0.558   7.193  1.1025  0.8138  0.3704
  334MOL0     C44002   1.476   0.580   7.235 -0.7212  1.0499 -0.0781
  334MOL0     O44003   1.665   0.782   7.341 -0.0747 -0.2318 -0.2496
  334MOL0     C44004   1.987   0.621   7.298 -0.0334  0.6547 -0.6545
  334MOL0     C44005   2.107   0.599   7.371  0.7718 -0.1295 -0.1891
  334MOL0     N44006   2.710   0.529   7.495 -0.0896 -0.7568  0.2009
  334MOL0     N44007   2.820   0.503   7.432 -1.0397  0.7545 -0.2753
  334MOL0     C44008   3.809   0.574   6.678 -1.0686  0.0652  0.3612
  334MOL0     C44009   3.917   0.648   6.638  0.2154 -0.0783  0.1151
  334MOL0     C44010   4.202   0.954   6.489  0.1967 -0.4212 -0.1192
  334MOL0     C44011   4.280   1.043   6.552 -0.3490 -0.3754  0.0993
  334MOL0     C44012   4.381   1.116   6.492  0.2578 -1.0936  0.3923
  334MOL0     C44013   4.403   1.092   6.355  0.9862 -0.0678  0.5656
  334MOL0     O44014   4.493   1.177   6.294  0.5135 -0.9650 -0.1034
  334MOL0     C44015   4.486   1.195   6.152  0.6810 -0.3056  0.5105
  334MOL0     C44016   4.612   1.267   6.107  0.2694  0.0651 -0.4459
  334MOL0     C44017   4.625   1.407   6.169 -0.1967 -0.1312 -0.3191
  334MOL0     C44018   4.760   1.475   6.140 -0.4475 -0.0317 -0.7147
  334MOL0     C44019   4.743   1.608   6.205  0.1089  0.9273 -1.2644
  334MOL0     C44020   4.729   1.711   6.260  0.0978  0.2768 -0.4259
  334MOL0     C44021   4.313   1.011   6.282  0.1030  0.1007 -0.1006
  334MOL0     C44022   4.211   0.942   6.348  0.6598  0.2598 -0.4000
  334MOL0     H44023   3.747   0.919   6.522  1.2393 -1.7351 -2.3334
  334MOL0     H44024   3.556   0.802   6.632  0.1285 -1.1056 -0.6462
  334MOL0     H44025   3.522   0.458   6.547 -0.9937  2.4518 -3.1273
  334MOL0     H44026   3.430   0.591   6.580  1.2035  0.3451 -0.8071
  334MOL0     H44027   3.436   0.346   6.770  0.6773 -0.2845 -0.8674
  334MOL0     H44028   3.308   0.398   6.653 -0.5812  1.2672  0.9774
  334MOL0     H44029   3.273   0.608   6.794 -2.3270  0.5205  4.2698
  334MOL0     H44030   3.364   0.526   6.921 -0.4036 -4.8118  0.4892
  334MOL0     H44031   3.115   0.431   6.774  0.8745 -2.2518  0.6753
  334MOL0     H44032   3.186   0.346   6.899 -0.6008  0.6396  2.6072
  334MOL0     H44033   3.052   0.610   6.876  1.9093  0.0589 -0.0089
  334MOL0     H44034   3.149   0.594   7.021  0.4311 -1.0545  0.0943
  334MOL0     H44035   3.023   0.375   7.078 -2.5257 -0.7471  0.7548
  334MOL0     H44036   2.924   0.419   6.928  0.0672  2.0203 -0.2820
  334MOL0     H44037   2.848   0.623   7.054 -0.6371  0.0245  0.1401
  334MOL0     H44038   2.798   0.470   7.127  3.5511 -3.1757  1.6127
  334MOL0     H44039   2.986   0.686   7.222  3.4312 -1.1155 -1.8968
  334MOL0     H44040   3.032   0.514   7.255  1.4380  2.7655  0.6486
  334MOL0     H44041   2.756   0.792   7.298 -0.6592  0.7997  0.2930
  334MOL0     H44042   2.461   0.663   7.432 -0.0502  0.5403 -1.3657
  334MOL0     H44043   2.538   0.820   7.412 -3.3710  2.5688  3.2361
  334MOL0     H44044   2.587   0.846   7.638  0.5297 -0.7094 -2.5969
  334MOL0     H44045   2.556   0.688   7.691 -1.9766 -0.5949  0.5699
  334MOL0     H44046   2.391   0.856   7.751 -3.2134  2.0796  0.0374
  334MOL0     H44047   2.349   0.869   7.575 -0.5715 -0.2307  1.1335
  334MOL0     H44048   2.188   0.719   7.723 -0.6470 -2.1148  1.1459
  334MOL0     H44049   2.321   0.613   7.740  1.4602  0.3869 -1.0006
  334MOL0     H44050   2.039   0.828   7.624 -0.3426  1.0044  0.2767
  334MOL0     H44051   1.852   0.876   7.482  0.5029  0.0093 -0.5226
  334MOL0     H44052   1.598   0.667   6.930  1.4596 -0.7480  1.3228
  334MOL0     H44053   1.364   0.623   6.867 -0.5597 -2.4750 -0.3838
  334MOL0     H44054   1.214   0.376   6.979 -2.1674  0.2123  3.7227
  334MOL0     H44055   1.196   0.509   6.848 -0.3137  5.8774  2.4608
  334MOL0     H44056   0.951   0.526   6.919 -1.1349 -0.4663 -1.8637
  334MOL0     H44057   0.971   0.396   7.030  2.3135 -0.3891  1.2657
  334MOL0     H44058   0.976   0.228   6.861  0.3372 -0.3453 -1.1057
  334MOL0     H44059   1.019   0.349   6.737 -0.6270  0.2971  0.2654
  334MOL0     H44060   0.785   0.426   6.715  2.6583  0.9055  0.8068
  334MOL0     H44061   0.789   0.251   6.711 -2.2937  0.5912 -0.4302
  334MOL0     H44062   0.699   0.425   6.944  0.0483  1.3475 -1.4716
  334MOL0     H44063   0.744   0.261   6.963  3.3904  0.8558 -0.4721
  334MOL0     H44064   0.581   0.206   6.773  2.7732  0.8268  0.8048
  334MOL0     H44065   0.532   0.373   6.758  2.7781  1.2161 -0.4412
  334MOL0     H44066   0.415   0.372   6.969 -0.6778  0.3646  0.6330
  334MOL0     H44067   0.360   0.229   6.870  0.8945  1.8364 -2.6680
  334MOL0     H44068   0.358   0.151   7.071 -0.2834  1.1473 -1.5152
  334MOL0     H44069   0.508   0.233   7.117 -2.4609  1.6080  0.6616
  334MOL0     H44070   1.274   0.517   7.262  1.0417 -4.1581 -2.2272
  334MOL0     H44071   1.514   0.561   7.335  2.7292 -0.0770 -1.4501
  334MOL0     H44072   1.952   0.554   7.220  0.3388 -2.0428  1.3528
  334MOL0     H44073   2.168   0.517   7.335  0.1729 -1.4111  1.5844
  334MOL0     H44074   3.834   0.479   6.725 -0.0251 -0.6233 -1.4879
  334MOL0     H44075   4.021   0.621   6.648  0.4722  0.4029 -1.1373
  334MOL0     H44076   4.260   1.068   6.656 -1.3761  1.0430 -0.4174
  334MOL0     H44077   4.447   1.191   6.535 -0.7693 -0.9104  1.7226
  334MOL0     H44078   4.391   1.243   6.127  0.6635  0.2143  1.5237
  334MOL0     H44079   4.490   1.099   6.099 -0.7790  1.1245 -2.4541
  334MOL0     H44080   4.700   1.213   6.144 -0.3295 -0.0556  0.8452
  334MOL0     H44081   4.614   1.278   5.998  1.1081 -0.0219 -0.4463
  334MOL0     H44082   4.614   1.393   6.277  0.5637 -2.1083 -0.4520
  334MOL0     H44083   4.541   1.467   6.132 -1.0743 -0.9918  0.2159
  334MOL0     H44084   4.841   1.426   6.195 -2.4875 -3.2228 -0.2371
  334MOL0     H44085   4.775   1.478   6.032 -1.0466  1.6436 -0.7636
  334MOL0     H44086   4.701   1.803   6.307  2.0101  2.0628 -2.5891
  334MOL0     H44087   4.317   1.000   6.174  0.2705 -2.2517  0.0803
  334MOL0     H44088   4.139   0.879   6.296 -3.2349  3.4774  0.5648
  335MOL0     O44089   3.997   3.019   4.402 -0.7065  0.4162  0.2130
  335MOL0     C44090   3.938   3.044   4.296  0.0975  0.4297 -0.3198
  335MOL0     O44091   3.949   3.157   4.221 -0.0538  0.5942 -0.5559
  335MOL0     C44092   4.015   3.273   4.266  0.1577 -0.8568  0.4297
  335MOL0     C44093   4.058   3.358   4.165 -0.7906 -0.7851 -0.1215
  335MOL0     C44094   4.119   3.483   4.196 -0.0456  0.1753  0.5787
  335MOL0     C44095   4.110   3.522   4.331 -0.2083 -0.2024 -0.5233
  335MOL0     O44096   4.172   3.644   4.364 -0.5037 -0.8693  0.5074
  335MOL0     C44097   4.093   3.726   4.449  0.4729 -0.1873  0.5039
  335MOL0     C44098   4.114   3.873   4.417 -0.1137  0.5458  1.3095
  335MOL0     C44099   4.013   3.959   4.488  0.4683  0.3514  0.2007
  335MOL0     C44100   4.029   4.115   4.477  0.5409  1.0973 -0.1381
  335MOL0     C44101   3.929   4.182   4.586  0.4294  0.3477  0.3883
  335MOL0     C44102   3.902   4.335   4.585 -0.0132  0.3119  1.2616
  335MOL0     C44103   3.808   4.382   4.693  0.9776 -0.2087  0.2329
  335MOL0     C44104   3.799   4.535   4.690 -0.0766  1.0686  0.1319
  335MOL0     N44105   3.682   4.579   4.764  0.6750 -0.9444 -0.8410
  335MOL0     C44106   3.670   4.689   4.847  0.1949 -0.9316 -0.0194
  335MOL0     C44107   3.539   4.698   4.881  0.0642  0.2356 -0.4870
  335MOL0     C44108   3.466   4.814   4.950  0.1238 -1.1990  0.1643
  335MOL0     C44109   3.377   4.773   5.063 -0.4930 -0.3114 -0.1122
  335MOL0     C44110   3.449   4.739   5.193  0.1968 -0.3271  0.5530
  335MOL0     C44111   3.380   4.622   5.272 -0.8862  0.5731  0.3661
  335MOL0     O44112   3.367   4.509   5.175 -0.1008 -1.0566  0.3219
  335MOL0     C44113   3.461   4.414   5.148 -0.1741 -0.3190  0.2415
  335MOL0     C44114   3.426   4.302   5.079  0.4766 -0.4295 -0.6806
  335MOL0     C44115   3.526   4.219   5.028  0.6634  0.5348 -0.8506
  335MOL0     C44116   3.660   4.233   5.068 -0.4428  1.0068  0.2140
  335MOL0     C44117   3.768   4.142   5.009  0.0789 -0.2146 -0.2237
  335MOL0     O44118   3.891   4.136   5.061  0.0179 -0.6751 -0.1606
  335MOL0     C44119   3.980   4.054   4.998  0.1673 -0.2652  0.8346
  335MOL0     C44120   3.958   3.920   5.002  1.2709  0.4760  0.9142
  335MOL0     C44121   4.055   3.831   4.943 -0.1638  0.3319  0.0310
  335MOL0     C44122   4.157   3.876   4.864  0.0440  0.3067  0.0174
  335MOL0     O44123   4.252   3.805   4.792  0.1053 -0.4245 -0.1342
  335MOL0     C44124   4.264   3.661   4.812 -0.7009  0.1790  0.4576
  335MOL0     C44125   4.386   3.604   4.725  0.4039  0.4776 -0.0741
  335MOL0     C44126   4.385   3.451   4.724  0.0640 -0.3821  0.4158
  335MOL0     C44127   4.515   3.405   4.662 -0.1727  0.3284 -1.2680
  335MOL0     C44128   4.544   3.455   4.520 -0.7332  0.0178  0.3245
  335MOL0     C44129   4.636   3.377   4.417 -0.4975 -0.2484  0.8365
  335MOL0     C44130   4.581   3.235   4.389 -0.0678 -0.7551  0.0034
  335MOL0     C44131   4.670   3.176   4.272  0.5513 -1.0643  0.0107
  335MOL0    Cl44132   4.795   3.081   4.344  0.0116 -0.1864  0.0287
  335MOL0     C44133   4.184   4.009   4.859 -0.4501 -0.3277  0.2610
  335MOL0     C44134   4.094   4.098   4.923  0.6926 -0.0641 -0.3215
  335MOL0     O44135   3.729   4.078   4.911  0.3447 -0.4786 -0.2100
  335MOL0     C44136   3.691   4.331   5.155  0.3827 -0.4672 -0.1019
  335MOL0     C44137   3.594   4.426   5.197  0.1563  0.1189  0.1655
  335MOL0     N44138   3.470   4.596   4.815  0.3569 -0.0889 -0.3884
  335MOL0     N44139   3.560   4.524   4.752  0.4840 -0.4931 -0.4452
  335MOL0     C44140   4.034   3.452   4.425 -0.7967 -0.1682  0.5675
  335MOL0     C44141   3.998   3.323   4.396 -0.1915  0.0608  0.4759
  335MOL0     C44142   3.830   2.948   4.258  0.3988 -0.6150 -0.8836
  335MOL0     C44143   3.796   2.836   4.334  0.2386  0.6567  0.5099
  335MOL0     C44144   3.686   2.757   4.286  0.0705 -0.6069 -0.1917
  335MOL0     C44145   3.604   2.793   4.184  0.2620  0.3770  0.0734
  335MOL0     O44146   3.504   2.696   4.157  0.1933 -0.7375 -0.4263
  335MOL0     C44147   3.405   2.702   4.055  0.7147 -1.1625  0.4699
  335MOL0     C44148   3.313   2.578   4.063 -0.2493  0.0836 -0.2351
  335MOL0     C44149   3.400   2.450   4.085 -0.1161  0.5444 -0.2053
  335MOL0     C44150   3.513   2.436   3.991  0.4215 -0.2756  0.7290
  335MOL0     C44151   3.587   2.309   4.013  0.5673  0.1000  0.1211
  335MOL0     C44152   3.641   2.207   4.033 -0.8514  0.3900  0.2856
  335MOL0     C44153   3.635   2.916   4.124  1.1061 -0.2414  0.2583
  335MOL0     C44154   3.739   2.994   4.158  0.2598 -0.2045  0.7937
  335MOL0     H44155   4.049   3.324   4.062 -4.2613 -0.2686 -0.1302
  335MOL0     H44156   4.148   3.549   4.115 -1.7779 -1.0157 -1.1130
  335MOL0     H44157   4.130   3.698   4.549 -0.3986 -0.9033  0.6361
  335MOL0     H44158   3.989   3.698   4.435  1.8444 -4.7318 -3.0129
  335MOL0     H44159   4.114   3.881   4.307  2.0140  1.1335  1.3112
  335MOL0     H44160   4.216   3.901   4.446 -0.5147 -0.6233  4.1339
  335MOL0     H44161   4.009   3.932   4.594  0.8694 -2.8000 -0.4857
  335MOL0     H44162   3.916   3.938   4.443  0.9828  2.0574 -1.8789
  335MOL0     H44163   4.134   4.145   4.475  1.2508 -1.2081 -0.8195
  335MOL0     H44164   4.010   4.141   4.372 -0.6033 -0.4899 -0.3595
  335MOL0     H44165   3.978   4.168   4.683  0.0141  4.3397  1.3525
  335MOL0     H44166   3.834   4.129   4.574  0.0170  0.5680  2.3799
  335MOL0     H44167   3.854   4.369   4.493 -1.2275  0.6277  1.9993
  335MOL0     H44168   3.992   4.397   4.581  0.6344 -0.6260  0.9659
  335MOL0     H44169   3.711   4.341   4.662  0.5975  0.3000  0.7369
  335MOL0     H44170   3.843   4.351   4.791  0.6481 -3.6598 -0.5853
  335MOL0     H44171   3.780   4.565   4.586 -0.5345 -1.7146 -0.6868
  335MOL0     H44172   3.891   4.582   4.725  1.4097  0.4864 -2.6098
  335MOL0     H44173   3.744   4.763   4.877  0.7438 -1.1838 -0.7354
  335MOL0     H44174   3.415   4.866   4.868 -2.2974 -0.4389  2.0200
  335MOL0     H44175   3.522   4.897   4.993 -1.3555 -0.9675  1.7834
  335MOL0     H44176   3.325   4.684   5.028  4.1132 -2.9965 -1.0247
  335MOL0     H44177   3.313   4.857   5.092  0.1834  0.3484 -0.5087
  335MOL0     H44178   3.549   4.699   5.172  0.5555  0.5295  0.5819
  335MOL0     H44179   3.458   4.818   5.268  1.7406 -2.3008  2.5396
  335MOL0     H44180   3.282   4.660   5.303 -1.5750  0.9272 -2.0254
  335MOL0     H44181   3.438   4.604   5.363  1.4503  2.0335 -0.7220
  335MOL0     H44182   3.322   4.297   5.046 -0.1187 -1.2405  1.1601
  335MOL0     H44183   3.501   4.137   4.963 -1.8543 -0.6922  1.4587
  335MOL0     H44184   3.874   3.884   5.061  0.7612  1.4004  0.7852
  335MOL0     H44185   4.028   3.725   4.947  0.0233  0.3148  1.9144
  335MOL0     H44186   4.171   3.611   4.783  0.1212  0.4176 -3.0570
  335MOL0     H44187   4.281   3.645   4.919 -1.7716  2.4447  1.0157
  335MOL0     H44188   4.480   3.647   4.759  0.2889  1.7308 -1.2741
  335MOL0     H44189   4.363   3.625   4.620 -1.3581  0.2057  0.2234
  335MOL0     H44190   4.301   3.409   4.666  1.8343 -4.7177  0.6287
  335MOL0     H44191   4.373   3.419   4.827  2.3768 -0.2711  0.7772
  335MOL0     H44192   4.600   3.419   4.729 -1.6861 -0.7983  1.0141
  335MOL0     H44193   4.511   3.296   4.652  0.7106 -0.0663  1.7705
  335MOL0     H44194   4.600   3.549   4.535  2.3247 -1.9584  2.5333
  335MOL0     H44195   4.446   3.469   4.475  0.2886 -0.9841 -2.4011
  335MOL0     H44196   4.733   3.376   4.467 -1.2899  1.9610  2.5523
  335MOL0     H44197   4.652   3.425   4.320 -1.0971 -1.8186 -0.0848
  335MOL0     H44198   4.581   3.174   4.480  0.4272 -2.2722 -0.9697
  335MOL0     H44199   4.477   3.245   4.357 -0.1621 -0.4175  0.4032
  335MOL0     H44200   4.716   3.252   4.209 -1.6934  0.0777 -0.3551
  335MOL0     H44201   4.609   3.108   4.212 -1.0615 -2.1503  2.6964
  335MOL0     H44202   4.263   4.053   4.800 -2.3248  2.5130 -0.3071
  335MOL0     H44203   4.120   4.203   4.929 -2.7417  0.8835  0.1311
  335MOL0     H44204   3.796   4.340   5.183  1.4998  2.1708 -4.2114
  335MOL0     H44205   3.625   4.511   5.256  0.5157  1.9411 -2.4864
  335MOL0     H44206   4.028   3.489   4.527  2.9852  0.0513  0.8455
  335MOL0     H44207   3.953   3.259   4.472  1.6323 -0.0406  1.5330
  335MOL0     H44208   3.849   2.807   4.424  1.3488  0.1218 -0.2871
  335MOL0     H44209   3.647   2.680   4.352 -2.2962  1.8066  1.3835
  335MOL0     H44210   3.452   2.704   3.956  0.0852  1.6668  0.1607
  335MOL0     H44211   3.351   2.796   4.062  1.7034 -0.4142 -1.3109
  335MOL0     H44212   3.240   2.575   4.144 -1.2361 -3.6757 -1.0656
  335MOL0     H44213   3.252   2.564   3.974 -0.5261 -3.1661  0.3657
  335MOL0     H44214   3.330   2.366   4.086 -0.2427  0.6269  1.6123
  335MOL0     H44215   3.448   2.461   4.183  0.0486  1.8282 -0.4204
  335MOL0     H44216   3.461   2.430   3.895 -0.3293  1.5851  0.9699
  335MOL0     H44217   3.589   2.514   3.994  1.3758 -1.1681  0.4377
  335MOL0     H44218   3.708   2.131   4.068 -0.4212  0.4260 -0.4537
  335MOL0     H44219   3.566   2.958   4.052  0.1777 -0.8936  0.7474
  335MOL0     H44220   3.743   3.085   4.098 -0.7657 -2.7494 -3.5764
  336MOL0     O44221   4.456   0.132   4.617  0.9097  0.2540 -0.4882
  336MOL0     C44222   4.465   0.253   4.579 -0.4300  0.1674 -0.8413
  336MOL0     O44223   4.575   0.328   4.582 -0.6563 -0.7509 -0.3581
  336MOL0     C44224   4.706   0.279   4.607  0.5747  0.2296  0.6528
  336MOL0     C44225   4.741   0.233   4.734  0.3288 -0.8361  0.0380
  336MOL0     C44226   4.873   0.190   4.759  0.9283 -0.3739 -0.1381
  336MOL0     C44227   4.966   0.188   4.653 -0.4042 -0.2850 -0.4789
  336MOL0     O44228   5.101   0.154   4.669 -0.4874 -0.5355  0.2130
  336MOL0     C44229   5.149   0.073   4.784 -0.5203 -1.1204 -0.0153
  336MOL0     C44230   5.291   0.037   4.761 -0.3333  0.1886  0.3113
  336MOL0     C44231   5.318  -0.073   4.643  0.2293 -0.4120 -0.3779
  336MOL0     C44232   5.461  -0.084   4.612  0.6410  1.0635 -0.0160
  336MOL0     C44233   5.507  -0.203   4.523  0.0924  0.2837 -0.2555
  336MOL0     C44234   5.439  -0.214   4.388  0.1619  1.2857  0.8593
  336MOL0     C44235   5.509  -0.318   4.284  0.0839  0.2355 -0.7432
  336MOL0     C44236   5.646  -0.269   4.223  0.1061 -0.8014  0.0858
  336MOL0     N44237   5.645  -0.126   4.211  0.3042  0.4649 -0.2768
  336MOL0     C44238   5.582  -0.050   4.116 -0.0784 -0.9732 -0.8268
  336MOL0     C44239   5.655   0.068   4.116  0.1455  0.4108 -0.5509
  336MOL0     C44240   5.644   0.189   4.016 -0.7056  0.9987  0.1550
  336MOL0     C44241   5.496   0.238   4.012  0.3143 -0.5163  0.5891
  336MOL0     C44242   5.493   0.385   3.963 -0.3601  0.0832 -0.4662
  336MOL0     C44243   5.567   0.415   3.831 -0.4491 -0.0787  0.0938
  336MOL0     O44244   5.482   0.351   3.737 -0.2440 -0.1137  0.4644
  336MOL0     C44245   5.540   0.289   3.625 -0.2647 -0.6568 -0.4128
  336MOL0     C44246   5.467   0.190   3.557 -0.3735  0.0891  0.6073
  336MOL0     C44247   5.518   0.112   3.446 -0.0281  0.1026  0.4180
  336MOL0     C44248   5.642   0.151   3.392  0.0680 -0.0143 -0.2754
  336MOL0     C44249   5.686   0.069   3.274 -0.0072  0.5350 -0.3538
  336MOL0     O44250   5.826   0.061   3.254 -0.7259 -0.1454 -1.1632
  336MOL0     C44251   5.880   0.050   3.131  0.0495  0.9294 -0.0697
  336MOL0     C44252   5.964   0.152   3.080 -0.3817  1.0512 -0.8016
  336MOL0     C44253   6.028   0.132   2.948 -0.1040  1.1665  0.0480
  336MOL0     C44254   6.001   0.014   2.863  0.2657 -0.6714 -0.2685
  336MOL0     O44255   6.048   0.002   2.736  0.4635 -1.1614 -0.1652
  336MOL0     C44256   6.169  -0.077   2.751 -0.5394 -0.1933 -0.6156
  336MOL0     C44257   6.270  -0.040   2.642  0.7677 -0.3978  0.0512
  336MOL0     C44258   6.335   0.099   2.658 -0.1370 -0.6744  0.5101
  336MOL0     C44259   6.241   0.211   2.606 -0.1269 -1.5408  0.3669
  336MOL0     C44260   6.290   0.351   2.646 -0.3373 -0.2932 -0.4801
  336MOL0     C44261   6.422   0.370   2.567  0.0590 -0.0309  0.1709
  336MOL0     C44262   6.475   0.511   2.602 -0.2284 -0.0094  0.7247
  336MOL0     C44263   6.607   0.546   2.523  0.5562  0.1560 -0.8082
  336MOL0    Cl44264   6.574   0.606   2.364 -0.4152  0.0949  0.0926
  336MOL0     C44265   5.909  -0.082   2.917 -0.5075 -0.5559  0.7160
  336MOL0     C44266   5.859  -0.069   3.048  0.4987  0.3244  0.4039
  336MOL0     O44267   5.601  -0.004   3.219 -0.6071 -0.1599 -0.2224
  336MOL0     C44268   5.727   0.243   3.464  0.2610  0.4563 -0.0337
  336MOL0     C44269   5.671   0.307   3.579 -0.0443 -0.1865  0.2627
  336MOL0     N44270   5.756   0.064   4.213  0.7998 -0.6295  0.4203
  336MOL0     N44271   5.749  -0.057   4.266  0.0807  0.2240  0.6500
  336MOL0     C44272   4.933   0.239   4.533  0.4439 -0.3788 -0.6593
  336MOL0     C44273   4.807   0.282   4.508  0.2009  0.4229  0.0776
  336MOL0     C44274   4.337   0.316   4.546  0.7961  0.7024  0.1686
  336MOL0     C44275   4.223   0.241   4.506  0.0612  0.8743 -0.4368
  336MOL0     C44276   4.103   0.312   4.488 -0.1310 -0.5245  0.2211
  336MOL0     C44277   4.095   0.446   4.497  0.2981 -0.0272 -0.7545
  336MOL0     O44278   3.969   0.492   4.490  0.0233 -0.3511 -0.0944
  336MOL0     C44279   3.932   0.630   4.533  0.2572  0.4057 -0.2710
  336MOL0     C44280   3.783   0.629   4.548 -0.0666  0.5548  0.6007
  336MOL0     C44281   3.732   0.771   4.580  0.0945  0.3773  0.4027
  336MOL0     C44282   3.659   0.857   4.482 -0.6963 -1.0737 -0.5110
  336MOL0     C44283   3.606   0.975   4.555 -0.1480 -0.1038 -0.7662
  336MOL0     C44284   3.549   1.076   4.582 -1.3328 -0.4779 -0.2620
  336MOL0     C44285   4.209   0.523   4.531  0.4232 -0.6384 -0.7672
  336MOL0     C44286   4.330   0.453   4.549 -0.2180 -0.1543 -0.8384
  336MOL0     H44287   4.668   0.232   4.814  0.8275  2.0906  0.6584
  336MOL0     H44288   4.907   0.155   4.856  2.5190  2.6236  0.5075
  336MOL0     H44289   5.088  -0.017   4.792  0.6191 -1.8205  1.2147
  336MOL0     H44290   5.148   0.138   4.872  2.3708 -0.2901 -0.4676
  336MOL0     H44291   5.342  -0.003   4.849 -0.0157 -2.1234 -0.8548
  336MOL0     H44292   5.347   0.125   4.727 -1.0592  0.8667  0.8401
  336MOL0     H44293   5.273  -0.033   4.552  0.8490  0.2990 -0.3844
  336MOL0     H44294   5.270  -0.166   4.676  2.9456 -2.9974 -3.0467
  336MOL0     H44295   5.483   0.003   4.550 -1.3979  0.0399 -2.3937
  336MOL0     H44296   5.520  -0.073   4.703  0.5138  0.5350  0.1334
  336MOL0     H44297   5.498  -0.297   4.579  2.8567  1.0959  1.7430
  336MOL0     H44298   5.614  -0.196   4.501  0.0750  1.2987 -0.0503
  336MOL0     H44299   5.416  -0.119   4.340 -0.8405  0.6493  0.0295
  336MOL0     H44300   5.344  -0.267   4.403 -0.0469  0.7214 -1.8825
  336MOL0     H44301   5.538  -0.409   4.338  1.2339  0.5746 -0.7590
  336MOL0     H44302   5.433  -0.339   4.208 -0.0550  1.4373 -0.9560
  336MOL0     H44303   5.670  -0.302   4.121 -0.1622  1.7176 -0.8574
  336MOL0     H44304   5.734  -0.295   4.281  0.4588  0.0520 -0.0500
  336MOL0     H44305   5.513  -0.094   4.045 -0.2473 -1.0808 -0.5965
  336MOL0     H44306   5.673   0.142   3.922  2.0944  1.7642  0.5521
  336MOL0     H44307   5.714   0.269   4.045 -1.5666  1.1477  1.9793
  336MOL0     H44308   5.454   0.242   4.113  0.8288 -0.0678  0.7899
  336MOL0     H44309   5.433   0.174   3.949 -1.8356 -0.4738  2.5966
  336MOL0     H44310   5.388   0.414   3.949 -0.0835  0.8219 -1.0761
  336MOL0     H44311   5.522   0.448   4.047 -3.2277 -0.4752  1.0904
  336MOL0     H44312   5.673   0.390   3.832 -0.3421  0.3178  1.8737
  336MOL0     H44313   5.554   0.521   3.808  1.3001  0.3495  0.8976
  336MOL0     H44314   5.368   0.180   3.599 -0.8343 -3.3575 -1.0257
  336MOL0     H44315   5.461   0.032   3.400 -1.5145 -0.4287  2.9845
  336MOL0     H44316   5.988   0.246   3.128  0.4881  0.0028  0.9221
  336MOL0     H44317   6.083   0.213   2.902 -0.7971  0.8692 -1.3624
  336MOL0     H44318   6.152  -0.185   2.744 -0.9935 -0.2328  0.8797
  336MOL0     H44319   6.217  -0.062   2.848  0.6329 -0.5175 -1.1292
  336MOL0     H44320   6.223  -0.049   2.544  3.7832 -2.7036 -1.3623
  336MOL0     H44321   6.359  -0.102   2.656  0.0070 -1.0887  2.0488
  336MOL0     H44322   6.427   0.097   2.599 -2.0341 -1.7767 -2.5962
  336MOL0     H44323   6.366   0.111   2.763 -2.3547 -3.5063  1.6377
  336MOL0     H44324   6.249   0.198   2.498  4.4168 -3.2655  0.6798
  336MOL0     H44325   6.134   0.214   2.631 -0.5333 -3.9877 -0.7403
  336MOL0     H44326   6.304   0.345   2.755 -0.1030  0.3207 -0.4758
  336MOL0     H44327   6.214   0.427   2.628  0.8839  0.6407 -1.8863
  336MOL0     H44328   6.411   0.349   2.460  2.2607  3.3678 -0.8846
  336MOL0     H44329   6.489   0.290   2.599  0.1556 -0.4996 -1.1329
  336MOL0     H44330   6.402   0.590   2.579 -0.8295 -0.6147  0.5171
  336MOL0     H44331   6.499   0.511   2.708  0.3677  1.3052  0.6090
  336MOL0     H44332   6.667   0.455   2.519  0.4139  0.1014 -2.0770
  336MOL0     H44333   6.651   0.621   2.590  2.5922  0.2705 -2.1711
  336MOL0     H44334   5.882  -0.175   2.870  3.6103 -1.7717  0.3718
  336MOL0     H44335   5.801  -0.147   3.096  3.9962 -0.9534  2.9123
  336MOL0     H44336   5.832   0.264   3.443  1.2943 -3.0474  1.1070
  336MOL0     H44337   5.736   0.389   3.609  0.6568 -1.6180  3.0112
  336MOL0     H44338   5.015   0.265   4.467 -1.3706 -0.2865 -3.0078
  336MOL0     H44339   4.790   0.342   4.419  2.3813 -0.9395 -1.3498
  336MOL0     H44340   4.242   0.136   4.487 -0.2574  0.7525 -0.0905
  336MOL0     H44341   4.013   0.268   4.445 -0.4455  0.4707 -0.1650
  336MOL0     H44342   3.949   0.704   4.454 -4.0400 -1.4475 -3.2706
  336MOL0     H44343   3.985   0.648   4.627 -0.7422  1.2488  0.1563
  336MOL0     H44344   3.738   0.588   4.458  4.2846 -1.0918 -1.0774
  336MOL0     H44345   3.759   0.557   4.627  1.7425 -0.2397  0.4763
  336MOL0     H44346   3.826   0.825   4.593  0.8130  0.1149 -2.9287
  336MOL0     H44347   3.684   0.772   4.678  0.8805  0.0761  0.8017
  336MOL0     H44348   3.723   0.895   4.402  1.0431 -0.4119  1.1252
  336MOL0     H44349   3.581   0.792   4.442  0.2552 -0.0791 -4.3898
  336MOL0     H44350   3.496   1.167   4.603  1.3525  0.4605  3.5141
  336MOL0     H44351   4.203   0.629   4.550 -4.3551 -1.1836  2.6900
  336MOL0     H44352   4.416   0.516   4.570 -2.8819  2.6256  3.1083
  337MOL0     O44353   8.707   3.059   9.548 -0.1819  0.1969 -0.1211
  337MOL0     C44354   8.637   2.967   9.581  0.6098 -0.8392 -0.0445
  337MOL0     O44355   8.566   2.966   9.694  0.1506  0.5313  0.2442
  337MOL0     C44356   8.540   3.081   9.758  1.0239  0.3664 -0.2875
  337MOL0     C44357   8.516   3.214   9.707  0.0134 -0.1635 -0.3121
  337MOL0     C44358   8.484   3.318   9.792  0.0330 -0.3957  0.5235
  337MOL0     C44359   8.471   3.295   9.925  0.1477  0.1993  0.1646
  337MOL0     O44360   8.411   3.378  10.012 -0.1869  0.4301  0.0688
  337MOL0     C44361   8.464   3.514   9.997 -0.3536 -0.7672  0.2973
  337MOL0     C44362   8.424   3.603  10.114  0.2158  0.0618  0.9398
  337MOL0     C44363   8.296   3.567  10.168  0.3751 -0.6466 -0.6794
  337MOL0     C44364   8.246   3.658  10.274 -0.1510 -1.0944  1.2577
  337MOL0     C44365   8.153   3.585  10.377  0.6665 -0.4206 -0.1679
  337MOL0     C44366   8.085   3.683  10.477 -0.7406 -0.7735  0.0759
  337MOL0     C44367   7.963   3.764  10.426  0.5794 -0.6768 -1.0116
  337MOL0     C44368   7.842   3.687  10.374  0.0460 -1.3651  0.0576
  337MOL0     N44369   7.823   3.672  10.224  0.3513 -0.6825 -0.3020
  337MOL0     C44370   7.821   3.777  10.128 -0.3529 -0.5849 -0.0970
  337MOL0     C44371   7.815   3.707  10.012 -0.0685 -0.7067  0.2302
  337MOL0     C44372   7.810   3.771   9.878 -1.1797 -0.2576 -0.3861
  337MOL0     C44373   7.831   3.666   9.771  0.5548  0.5747  0.3847
  337MOL0     C44374   7.823   3.726   9.638 -0.5746 -0.0387 -0.3554
  337MOL0     C44375   7.793   3.616   9.531 -0.1966 -0.1137 -0.0110
  337MOL0     O44376   7.818   3.647   9.391  0.1035  0.1722 -0.8075
  337MOL0     C44377   7.936   3.624   9.330 -0.5706  0.1703  0.1526
  337MOL0     C44378   8.001   3.507   9.308  0.8634  0.4536  0.6408
  337MOL0     C44379   8.127   3.499   9.252 -0.5506  1.0178  0.3067
  337MOL0     C44380   8.183   3.617   9.202  0.4469 -0.0491 -0.3330
  337MOL0     C44381   8.326   3.619   9.160  1.1371  0.5140  0.8779
  337MOL0     O44382   8.371   3.749   9.132  0.1351  0.1956  0.3555
  337MOL0     C44383   8.508   3.754   9.114 -0.0872  0.2451 -1.1536
  337MOL0     C44384   8.566   3.846   9.189 -0.5419 -0.3068  0.1762
  337MOL0     C44385   8.701   3.887   9.166  0.1352  0.0042  1.2771
  337MOL0     C44386   8.789   3.817   9.081  0.0750  0.8113  0.7167
  337MOL0     O44387   8.915   3.854   9.056  0.0698 -1.3091 -0.0602
  337MOL0     C44388   8.997   3.905   9.162 -0.6193 -0.2113 -1.4019
  337MOL0     C44389   9.022   3.795   9.273 -0.8623  0.2563  0.2250
  337MOL0     C44390   9.128   3.836   9.379  0.4111 -1.0498 -0.5186
  337MOL0     C44391   9.140   3.731   9.499 -0.8056  0.2527  0.1690
  337MOL0     C44392   9.202   3.803   9.628  0.1960 -0.5540 -0.3491
  337MOL0     C44393   9.254   3.687   9.714 -0.9232  0.1932 -0.4211
  337MOL0     C44394   9.347   3.727   9.831 -0.1086 -0.4147  0.4727
  337MOL0     C44395   9.278   3.754   9.957  0.1459 -0.3407  1.0699
  337MOL0    Cl44396   9.387   3.761  10.094  0.2011 -0.2655 -0.0052
  337MOL0     C44397   8.734   3.707   9.015  1.0640  0.1533 -0.3120
  337MOL0     C44398   8.595   3.682   9.022  0.5050  0.4495  0.3509
  337MOL0     O44399   8.387   3.515   9.148  0.3251 -0.2832 -0.1758
  337MOL0     C44400   8.114   3.739   9.214 -0.4755  0.2388 -0.6729
  337MOL0     C44401   7.996   3.743   9.282  0.4814 -0.6354  0.6459
  337MOL0     N44402   7.828   3.577  10.040 -0.0551 -0.0758  0.2993
  337MOL0     N44403   7.825   3.552  10.159 -0.3719 -0.3033 -1.2316
  337MOL0     C44404   8.497   3.166   9.984  0.0948  0.2545 -0.6208
  337MOL0     C44405   8.518   3.063   9.900 -0.3398 -0.9221 -0.4968
  337MOL0     C44406   8.647   2.835   9.517 -0.9207 -0.6951 -0.3164
  337MOL0     C44407   8.742   2.817   9.421 -0.3562  0.6242  0.1682
  337MOL0     C44408   8.748   2.692   9.356  0.2459  0.9423 -0.2221
  337MOL0     C44409   8.654   2.593   9.368  0.0746  0.1074 -0.0324
  337MOL0     O44410   8.669   2.487   9.283  0.1491  0.1198  0.1733
  337MOL0     C44411   8.554   2.407   9.259  0.3497  0.1961 -0.2692
  337MOL0     C44412   8.446   2.488   9.186  1.2266  1.0164 -0.0913
  337MOL0     C44413   8.319   2.434   9.250 -0.2033 -0.2020 -1.0534
  337MOL0     C44414   8.203   2.433   9.151 -0.7368  0.4325  0.1677
  337MOL0     C44415   8.245   2.349   9.035  0.4216 -1.0582  0.1294
  337MOL0     C44416   8.293   2.285   8.937 -0.1323  0.9012  0.9605
  337MOL0     C44417   8.564   2.609   9.475 -0.7257  0.3278  0.7932
  337MOL0     C44418   8.570   2.728   9.556  0.3266  0.0017  0.2512
  337MOL0     H44419   8.528   3.226   9.599  1.6919  2.8784  0.0800
  337MOL0     H44420   8.456   3.414   9.751  0.1170 -1.6032 -2.6104
  337MOL0     H44421   8.421   3.563   9.908 -0.4783  1.7256  1.6406
  337MOL0     H44422   8.573   3.513   9.992 -0.2886 -0.2653  1.3729
  337MOL0     H44423   8.427   3.705  10.076 -0.7131 -1.1040 -2.6908
  337MOL0     H44424   8.501   3.601  10.191 -0.5916  2.6219  1.9383
  337MOL0     H44425   8.307   3.468  10.214  0.0993 -0.0911  0.6351
  337MOL0     H44426   8.220   3.557  10.090 -0.0254 -5.3031  0.0111
  337MOL0     H44427   8.335   3.691  10.328 -0.3621 -0.7182  1.3789
  337MOL0     H44428   8.204   3.754  10.242 -3.3011 -2.4896  0.8337
  337MOL0     H44429   8.204   3.500  10.425  0.8265 -1.5071 -2.1407
  337MOL0     H44430   8.081   3.536  10.311  1.8896  0.4338 -2.2326
  337MOL0     H44431   8.162   3.751  10.513 -0.9897 -0.4816  0.0677
  337MOL0     H44432   8.059   3.631  10.570 -2.1423  0.7737  0.6060
  337MOL0     H44433   7.926   3.814  10.516  1.4251 -0.5820 -0.7115
  337MOL0     H44434   7.992   3.843  10.356  0.9781  0.8648  0.7870
  337MOL0     H44435   7.751   3.724  10.423  1.5598  0.7956  1.4210
  337MOL0     H44436   7.853   3.583  10.405  1.3590 -0.8504  1.4610
  337MOL0     H44437   7.799   3.883  10.136 -1.1564 -0.2507 -4.4677
  337MOL0     H44438   7.886   3.849   9.873 -2.9862  1.5542 -0.7882
  337MOL0     H44439   7.711   3.813   9.855 -2.2881 -1.4313  1.8493
  337MOL0     H44440   7.738   3.610   9.776 -0.3792  1.9189 -0.9402
  337MOL0     H44441   7.929   3.618   9.781  0.3876 -0.3424 -1.9440
  337MOL0     H44442   7.747   3.804   9.632  1.6626  2.2330 -0.6528
  337MOL0     H44443   7.916   3.782   9.622 -0.5789 -0.4037 -1.7825
  337MOL0     H44444   7.690   3.579   9.541 -0.3758 -0.0140 -1.3004
  337MOL0     H44445   7.855   3.528   9.550  1.9760  1.3395 -0.0535
  337MOL0     H44446   7.949   3.417   9.338 -0.7640  1.5156  1.1021
  337MOL0     H44447   8.173   3.404   9.227 -1.0263  0.9075 -0.1758
  337MOL0     H44448   8.510   3.894   9.269  1.5445  1.6000  0.5951
  337MOL0     H44449   8.736   3.981   9.207  1.5678  2.2262 -4.1483
  337MOL0     H44450   8.974   4.008   9.188  1.6609  0.1217 -0.4235
  337MOL0     H44451   9.091   3.928   9.111  0.4906  2.1463  1.4621
  337MOL0     H44452   9.057   3.701   9.230  1.0888  1.1584 -0.2404
  337MOL0     H44453   8.929   3.772   9.326 -1.0919 -0.6716 -0.5641
  337MOL0     H44454   9.100   3.932   9.422  1.6423 -0.0732 -1.7985
  337MOL0     H44455   9.226   3.862   9.337  1.7709  2.3049  4.0182
  337MOL0     H44456   9.039   3.700   9.527 -0.3576 -2.8036 -1.2172
  337MOL0     H44457   9.188   3.642   9.459 -1.2614 -0.0544  0.3039
  337MOL0     H44458   9.118   3.857   9.674  1.1419 -0.3826  1.2501
  337MOL0     H44459   9.282   3.873   9.602 -1.8053  1.3847 -1.6970
  337MOL0     H44460   9.300   3.611   9.650 -0.6258 -2.8302  3.0480
  337MOL0     H44461   9.161   3.641   9.751 -1.9528  1.9183 -0.7476
  337MOL0     H44462   9.407   3.637   9.844 -2.0379 -1.5899  1.6992
  337MOL0     H44463   9.416   3.809   9.807  1.7518 -1.0481  3.1949
  337MOL0     H44464   9.198   3.683   9.979  0.1868 -0.0140  2.3256
  337MOL0     H44465   9.224   3.848   9.943 -1.1833 -1.3735 -1.4865
  337MOL0     H44466   8.787   3.648   8.940 -1.4732 -0.6246 -1.5963
  337MOL0     H44467   8.551   3.616   8.947 -0.0247  1.5477 -0.3390
  337MOL0     H44468   8.159   3.831   9.177 -2.1802  2.0639  1.5467
  337MOL0     H44469   7.953   3.843   9.286  1.2429 -0.0833 -2.4105
  337MOL0     H44470   8.488   3.155  10.092 -1.2844  2.1091 -0.4941
  337MOL0     H44471   8.533   2.965   9.943 -2.0830 -0.7436  0.5798
  337MOL0     H44472   8.829   2.882   9.408  2.0785 -2.4874 -0.4139
  337MOL0     H44473   8.833   2.680   9.290  1.0306 -1.6081  1.0927
  337MOL0     H44474   8.514   2.362   9.350 -0.9625  0.6740 -0.5760
  337MOL0     H44475   8.585   2.333   9.185 -0.2057  0.0853 -0.4015
  337MOL0     H44476   8.459   2.594   9.210 -1.1608  1.3249  0.1201
  337MOL0     H44477   8.454   2.487   9.077 -2.8563 -0.4467 -0.5765
  337MOL0     H44478   8.297   2.494   9.338  0.8007 -1.8735  0.4143
  337MOL0     H44479   8.321   2.331   9.288 -0.0360  0.7496  1.7633
  337MOL0     H44480   8.103   2.393   9.172  0.2750 -2.8001 -0.5938
  337MOL0     H44481   8.175   2.528   9.105 -1.2760  1.4222  2.4200
  337MOL0     H44482   8.318   2.229   8.849 -1.7467  1.7719 -0.1144
  337MOL0     H44483   8.486   2.534   9.484 -2.2622  1.9070  1.1064
  337MOL0     H44484   8.496   2.733   9.635 -1.7536 -0.7047 -1.5800
  338MOL0     O44485   7.058   2.489   6.312  0.0901  0.8496 -0.1997
  338MOL0     C44486   6.971   2.408   6.342  0.3911  0.2834  0.2692
  338MOL0     O44487   6.948   2.291   6.284  0.0732  0.8988 -0.4488
  338MOL0     C44488   6.964   2.271   6.146  0.5032  0.6588  0.3015
  338MOL0     C44489   6.936   2.147   6.095 -0.6621 -0.2103 -0.3256
  338MOL0     C44490   6.948   2.115   5.958  0.4442 -0.4618 -0.0887
  338MOL0     C44491   6.999   2.217   5.875 -0.2979 -1.0467  0.1677
  338MOL0     O44492   7.011   2.224   5.742  0.9960 -0.5331 -0.7010
  338MOL0     C44493   7.044   2.104   5.680  0.2384  0.1352 -0.9979
  338MOL0     C44494   7.055   2.102   5.526 -0.7127  0.0207 -0.7777
  338MOL0     C44495   7.050   1.968   5.462  0.4122  0.6870 -0.5136
  338MOL0     C44496   7.085   1.968   5.303  0.3057 -0.2423 -0.7933
  338MOL0     C44497   7.080   1.821   5.247  1.1579  0.0939  0.1726
  338MOL0     C44498   7.171   1.731   5.337 -0.6056 -0.8718  0.2704
  338MOL0     C44499   7.184   1.600   5.252 -0.0457 -0.7862 -0.4642
  338MOL0     C44500   7.294   1.504   5.315 -0.2300  0.3292 -0.1554
  338MOL0     N44501   7.422   1.579   5.327 -0.1236  0.7430  0.1639
  338MOL0     C44502   7.489   1.618   5.207  0.1764 -0.0214 -0.0266
  338MOL0     C44503   7.605   1.674   5.254  0.3077  0.6030  0.5198
  338MOL0     C44504   7.724   1.733   5.180  0.2451  0.0529 -0.0940
  338MOL0     C44505   7.690   1.748   5.031 -0.7160 -0.1953 -0.2277
  338MOL0     C44506   7.609   1.871   5.012  0.4066 -0.4411 -0.0064
  338MOL0     C44507   7.573   1.891   4.868 -0.5165  0.6919  1.2334
  338MOL0     O44508   7.494   1.782   4.826 -0.7322  0.0434  0.0811
  338MOL0     C44509   7.357   1.769   4.829 -0.2362 -0.5817 -0.1950
  338MOL0     C44510   7.266   1.864   4.883  0.5389 -0.1758 -0.4554
  338MOL0     C44511   7.137   1.808   4.900 -0.0735  0.1562  0.3254
  338MOL0     C44512   7.095   1.672   4.885  0.6799 -0.4767  0.3098
  338MOL0     C44513   6.954   1.626   4.918  0.3203 -1.1661  0.1262
  338MOL0     O44514   6.866   1.723   4.959 -0.6830 -0.7500  0.5862
  338MOL0     C44515   6.738   1.699   4.981  0.1657  1.1590  0.8383
  338MOL0     C44516   6.654   1.636   4.887  0.3275  0.1862 -0.7168
  338MOL0     C44517   6.518   1.633   4.920 -0.0325 -0.0146  0.0447
  338MOL0     C44518   6.463   1.693   5.039  0.4516  0.4075  0.1551
  338MOL0     O44519   6.324   1.668   5.053  0.3898  0.9563  0.1855
  338MOL0     C44520   6.261   1.715   5.165 -0.7833 -0.8679  0.7671
  338MOL0     C44521   6.104   1.714   5.142  0.7602  0.1663 -0.6186
  338MOL0     C44522   6.057   1.811   5.033  0.3150  0.6022  0.7760
  338MOL0     C44523   6.102   1.961   5.053 -0.2435 -0.3192  0.0736
  338MOL0     C44524   6.002   2.069   5.001 -0.2190  0.3627  0.0455
  338MOL0     C44525   6.055   2.211   5.026 -0.8711  0.5237 -0.3186
  338MOL0     C44526   5.959   2.304   4.959  0.3413 -0.3133  0.3195
  338MOL0     C44527   5.829   2.317   5.038 -0.0022 -0.1973  0.2874
  338MOL0    Cl44528   5.705   2.395   4.967  0.6764 -0.0377  0.0924
  338MOL0     C44529   6.546   1.773   5.123  0.7655 -0.6472 -0.1231
  338MOL0     C44530   6.681   1.767   5.095 -0.3647  0.5059  0.4348
  338MOL0     O44531   6.928   1.512   4.917 -0.3943 -0.2542  1.0457
  338MOL0     C44532   7.195   1.590   4.827  0.1646 -0.6145  0.6148
  338MOL0     C44533   7.324   1.637   4.804 -0.4371  0.4408  0.2622
  338MOL0     N44534   7.601   1.668   5.393  0.4976  0.5037  0.3690
  338MOL0     N44535   7.483   1.626   5.435  0.1322 -0.3004  0.0207
  338MOL0     C44536   7.016   2.345   5.924  0.6944 -0.4834 -0.2142
  338MOL0     C44537   6.984   2.374   6.051 -1.4121  0.0514 -0.1550
  338MOL0     C44538   6.872   2.434   6.460 -1.3256 -0.2017  0.4321
  338MOL0     C44539   6.891   2.555   6.533 -0.2397  0.7104 -0.0029
  338MOL0     C44540   6.793   2.580   6.626  0.3569 -0.1071 -0.0261
  338MOL0     C44541   6.677   2.505   6.649 -0.5929  1.2072  0.5731
  338MOL0     O44542   6.584   2.556   6.726  0.7418  0.5340  1.1040
  338MOL0     C44543   6.462   2.488   6.750 -0.4413 -1.0284 -0.2679
  338MOL0     C44544   6.376   2.583   6.838 -0.0787 -0.0696 -0.6717
  338MOL0     C44545   6.409   2.598   6.991  0.5361  0.5664  0.1547
  338MOL0     C44546   6.512   2.706   7.006  0.0640 -0.6019 -0.2119
  338MOL0     C44547   6.587   2.717   7.130  0.7344  0.0695  0.3995
  338MOL0     C44548   6.638   2.735   7.240 -0.4352  0.4712 -0.2236
  338MOL0     C44549   6.663   2.379   6.583  0.0564 -1.3605  0.0423
  338MOL0     C44550   6.767   2.348   6.486 -1.1779  1.1943 -0.7108
  338MOL0     H44551   6.884   2.077   6.160 -2.1698  0.6005 -0.6148
  338MOL0     H44552   6.921   2.016   5.924 -4.4877  1.3812 -2.5267
  338MOL0     H44553   6.969   2.027   5.701  2.3538 -1.1501  2.7604
  338MOL0     H44554   7.140   2.072   5.723 -0.0127  1.0389  0.2967
  338MOL0     H44555   7.146   2.156   5.499 -2.1430  2.3562 -1.1645
  338MOL0     H44556   6.961   2.147   5.491 -1.2000 -0.2901  0.1001
  338MOL0     H44557   6.966   1.905   5.494  0.2169  1.4692  0.5630
  338MOL0     H44558   7.127   1.928   5.529 -1.7575  3.1993  3.9174
  338MOL0     H44559   7.026   2.042   5.249  1.4083  0.9319 -0.4559
  338MOL0     H44560   7.187   2.003   5.283  0.0454  0.0181 -1.6978
  338MOL0     H44561   7.123   1.833   5.147  0.5012  0.0444 -0.1170
  338MOL0     H44562   6.981   1.775   5.250  1.9015 -1.6968  3.9573
  338MOL0     H44563   7.117   1.719   5.431 -1.0165  0.4019  0.2174
  338MOL0     H44564   7.271   1.767   5.362  0.5026 -1.9306 -2.2807
  338MOL0     H44565   7.097   1.536   5.267  0.1390 -0.6322  1.5878
  338MOL0     H44566   7.214   1.615   5.148 -1.0063 -0.2962 -0.6736
  338MOL0     H44567   7.303   1.421   5.244 -0.4099  0.5269 -0.4078
  338MOL0     H44568   7.261   1.462   5.411  2.6146  1.9480  1.6817
  338MOL0     H44569   7.456   1.606   5.105 -0.6217 -0.5275  0.2823
  338MOL0     H44570   7.801   1.659   5.202  0.5280  0.8758  1.9477
  338MOL0     H44571   7.753   1.827   5.230  0.8017 -0.2286  0.1186
  338MOL0     H44572   7.637   1.659   4.995 -0.9525 -0.7691  1.4436
  338MOL0     H44573   7.784   1.752   4.976 -0.6574  2.1981 -0.0462
  338MOL0     H44574   7.523   1.876   5.079  1.7201 -4.3763  2.2810
  338MOL0     H44575   7.667   1.962   5.033  0.4546 -0.2565 -0.8995
  338MOL0     H44576   7.665   1.890   4.810 -1.8189 -0.9740 -0.9335
  338MOL0     H44577   7.519   1.983   4.841  2.0386  1.9721  0.1990
  338MOL0     H44578   7.285   1.969   4.904 -1.1792  1.3338 -5.0509
  338MOL0     H44579   7.059   1.875   4.935 -1.1742 -0.9803  0.0922
  338MOL0     H44580   6.676   1.589   4.791 -3.8812 -0.5780 -1.4676
  338MOL0     H44581   6.450   1.564   4.870 -0.6663 -1.7252  3.0228
  338MOL0     H44582   6.293   1.817   5.184 -1.3645  0.4836 -4.0840
  338MOL0     H44583   6.290   1.649   5.247 -1.1423 -2.0145  0.0177
  338MOL0     H44584   6.038   1.728   5.228 -2.4913 -0.8695 -2.7685
  338MOL0     H44585   6.067   1.618   5.103  0.4555  0.6656 -1.5796
  338MOL0     H44586   5.951   1.792   5.017  0.4459 -0.7830  1.4086
  338MOL0     H44587   6.091   1.783   4.932 -1.2612  1.2091  0.0364
  338MOL0     H44588   6.111   1.975   5.161  0.5654 -0.2746  0.0099
  338MOL0     H44589   6.196   1.981   5.001 -0.2921  2.7323  0.9630
  338MOL0     H44590   5.902   2.042   5.036 -0.0511  0.0538  0.2937
  338MOL0     H44591   6.010   2.054   4.893 -0.7981  4.0889 -0.6579
  338MOL0     H44592   6.155   2.218   4.983 -0.3503  0.5768  0.8464
  338MOL0     H44593   6.068   2.247   5.129 -0.8734  1.5672 -0.6747
  338MOL0     H44594   6.007   2.402   4.954 -4.5664  2.3463 -1.2828
  338MOL0     H44595   5.939   2.276   4.855 -2.3811  1.8606  0.1544
  338MOL0     H44596   5.860   2.371   5.128  1.5378  1.6564 -1.2597
  338MOL0     H44597   5.792   2.217   5.060  3.1789 -1.3435  0.9840
  338MOL0     H44598   6.516   1.822   5.216 -0.9044  3.9642 -2.7431
  338MOL0     H44599   6.759   1.798   5.164  0.2790 -2.1344  1.0141
  338MOL0     H44600   7.167   1.485   4.821 -0.0721 -0.5502  0.5893
  338MOL0     H44601   7.405   1.570   4.777  1.5699  2.7844  0.1735
  338MOL0     H44602   7.039   2.428   5.858  0.4938  0.8248  1.3090
  338MOL0     H44603   6.984   2.480   6.074  2.7124  0.6858 -2.1573
  338MOL0     H44604   6.972   2.624   6.513  1.9668 -1.5386  0.6466
  338MOL0     H44605   6.812   2.679   6.666  1.3696  0.4119 -1.6998
  338MOL0     H44606   6.475   2.396   6.808 -2.4050 -1.5500 -0.5919
  338MOL0     H44607   6.413   2.463   6.655 -2.9384 -0.9490  0.9417
  338MOL0     H44608   6.382   2.679   6.786  1.0274  0.2790  0.0644
  338MOL0     H44609   6.270   2.559   6.848 -0.0095  0.3724  1.7734
  338MOL0     H44610   6.455   2.505   7.023 -0.5517  0.4062  1.3082
  338MOL0     H44611   6.327   2.601   7.062 -0.6702  1.2635 -1.2083
  338MOL0     H44612   6.589   2.701   6.930 -0.0842  1.4856 -0.5522
  338MOL0     H44613   6.447   2.792   6.987 -2.0539 -2.6691 -3.1740
  338MOL0     H44614   6.674   2.748   7.340  2.6140 -1.9308 -0.8612
  338MOL0     H44615   6.577   2.316   6.605  0.1670 -2.4849 -2.3727
  338MOL0     H44616   6.759   2.254   6.433 -0.6782  1.3178 -1.0112
  339MOL0     O44617   5.312  11.199   3.927  0.4513  0.0475  0.1074
  339MOL0     C44618   5.275  11.185   3.808  0.5324  0.1076 -0.1737
  339MOL0     O44619   5.146  11.158   3.771  0.3550 -0.5663 -0.0556
  339MOL0     C44620   5.041  11.136   3.857 -0.0841 -0.3326 -0.0053
  339MOL0     C44621   5.041  11.114   4.004 -0.9834 -0.4342 -0.5684
  339MOL0     C44622   4.920  11.109   4.077  0.9246  0.6541 -0.8070
  339MOL0     C44623   4.798  11.126   4.004  0.3968  0.0621 -0.5383
  339MOL0     O44624   4.690  11.144   4.095  0.0822  0.6133  0.6413
  339MOL0     C44625   4.565  11.194   4.055  0.1725 -0.2000  0.4220
  339MOL0     C44626   4.464  11.230   4.161  0.4953  0.0632 -0.4529
  339MOL0     C44627   4.377  11.353   4.110 -0.2327 -0.1924  0.3578
  339MOL0     C44628   4.264  11.368   4.207 -0.2184  0.1413 -0.6084
  339MOL0     C44629   4.170  11.480   4.167  0.1103  1.0417  0.4581
  339MOL0     C44630   4.231  11.620   4.123  0.1330  0.8375  1.2165
  339MOL0     C44631   4.120  11.714   4.125  0.0030  0.0784  0.2191
  339MOL0     C44632   4.178  11.844   4.061 -0.0439  0.1370  0.3125
  339MOL0     N44633   4.056  11.912   4.009  0.8330  0.2140 -0.1981
  339MOL0     C44634   3.953  11.972   4.077 -0.1889 -0.5729 -0.0683
  339MOL0     C44635   3.872  12.025   3.994 -0.7708 -0.4138 -0.4148
  339MOL0     C44636   3.733  12.095   4.024 -0.0257  0.1619 -0.8450
  339MOL0     C44637   3.724  12.213   4.114  0.2024 -1.1929  0.2740
  339MOL0     C44638   3.751  12.349   4.043  0.4105 -0.1163 -1.0302
  339MOL0     C44639   3.847  12.439   4.117 -0.0217  0.6225 -0.3939
  339MOL0     O44640   3.967  12.359   4.126  0.3641  0.2533 -0.3575
  339MOL0     C44641   4.063  12.383   4.220 -0.4813 -0.2841 -0.7539
  339MOL0     C44642   4.152  12.280   4.256 -0.0082 -0.6730  0.1974
  339MOL0     C44643   4.247  12.295   4.359  0.0941  0.7778 -0.4436
  339MOL0     C44644   4.240  12.411   4.441 -0.4312  1.1165 -0.9027
  339MOL0     C44645   4.325  12.427   4.563 -0.5708 -0.1357 -0.2218
  339MOL0     O44646   4.345  12.547   4.610  0.1516  0.2651  0.2429
  339MOL0     C44647   4.392  12.558   4.733  0.9195  0.7966 -0.1237
  339MOL0     C44648   4.324  12.533   4.847 -0.8504  0.5549  0.1247
  339MOL0     C44649   4.365  12.567   4.977  1.5988  0.0162  1.0903
  339MOL0     C44650   4.474  12.645   4.984 -1.3660 -0.2465  0.1332
  339MOL0     O44651   4.521  12.705   5.096  0.2104 -0.4087 -0.4072
  339MOL0     C44652   4.545  12.619   5.209  0.8533 -0.1110 -0.0485
  339MOL0     C44653   4.676  12.556   5.175 -0.5998 -0.2168  0.1726
  339MOL0     C44654   4.724  12.462   5.277  0.4871  0.7547  0.1861
  339MOL0     C44655   4.850  12.408   5.219 -0.5721  0.0979 -0.3028
  339MOL0     C44656   4.945  12.343   5.321 -0.6822  0.2157  0.4310
  339MOL0     C44657   4.880  12.233   5.406 -0.5677 -0.3468 -0.0693
  339MOL0     C44658   5.006  12.162   5.465  0.7595 -0.1514  0.6388
  339MOL0     C44659   5.023  12.023   5.395 -0.1838  0.7129 -0.7015
  339MOL0    Cl44660   5.193  11.969   5.434  0.2493  0.1988 -0.1914
  339MOL0     C44661   4.552  12.665   4.869  0.4167 -0.1389 -0.4747
  339MOL0     C44662   4.511  12.615   4.747 -0.1945 -0.0397  0.0708
  339MOL0     O44663   4.355  12.322   4.621 -0.0846 -0.4622 -0.0528
  339MOL0     C44664   4.160  12.514   4.405  0.1560  0.3106 -0.5039
  339MOL0     C44665   4.067  12.496   4.301  0.1171 -0.5226  0.0247
  339MOL0     N44666   3.921  12.009   3.867  0.1821 -0.6114  0.2358
  339MOL0     N44667   4.039  11.950   3.875 -0.4150 -0.9872  0.3687
  339MOL0     C44668   4.797  11.139   3.865  0.2439 -0.9899  0.5919
  339MOL0     C44669   4.914  11.143   3.789  0.7138  0.2469 -0.8935
  339MOL0     C44670   5.362  11.180   3.695 -0.6867 -1.1563  0.2243
  339MOL0     C44671   5.497  11.214   3.701 -0.1572 -0.7820  0.4810
  339MOL0     C44672   5.588  11.191   3.597 -0.0247 -0.1590  0.0205
  339MOL0     C44673   5.545  11.142   3.475  1.0963 -0.9509  0.3824
  339MOL0     O44674   5.634  11.107   3.378  0.8858 -0.7864 -0.4085
  339MOL0     C44675   5.744  11.033   3.419  0.1919 -0.1287  1.0102
  339MOL0     C44676   5.863  11.102   3.357  0.6710  0.2305  0.7587
  339MOL0     C44677   6.002  11.023   3.381 -0.1651  0.0760 -0.6934
  339MOL0     C44678   6.132  11.093   3.359 -0.8574 -1.0964  0.6082
  339MOL0     C44679   6.144  11.120   3.216  0.2091 -0.0492 -0.5371
  339MOL0     C44680   6.164  11.155   3.099 -0.3831 -0.1073 -1.3259
  339MOL0     C44681   5.411  11.116   3.464 -0.6978  0.2299  0.0984
  339MOL0     C44682   5.316  11.129   3.565 -0.4148  0.3720 -0.9499
  339MOL0     H44683   5.130  11.099   4.064 -1.3938 -0.7556 -0.0346
  339MOL0     H44684   4.922  11.097   4.185  2.8486 -0.1668 -0.8932
  339MOL0     H44685   4.520  11.126   3.981  0.1729  1.7804 -1.5186
  339MOL0     H44686   4.589  11.288   4.005 -0.7566 -0.1111  0.1196
  339MOL0     H44687   4.511  11.259   4.255 -2.0706 -0.3029  1.0306
  339MOL0     H44688   4.402  11.142   4.179 -0.0291  0.2242 -1.3886
  339MOL0     H44689   4.338  11.344   4.008  1.7044  0.1343 -0.4532
  339MOL0     H44690   4.437  11.444   4.110  0.2884 -0.4473 -2.4222
  339MOL0     H44691   4.206  11.276   4.217  3.1497 -2.0380  0.5403
  339MOL0     H44692   4.291  11.387   4.311 -5.7016 -0.3474  1.2198
  339MOL0     H44693   4.094  11.496   4.244 -1.2529  0.4967 -0.7242
  339MOL0     H44694   4.105  11.443   4.088 -3.0485  1.0035  2.8438
  339MOL0     H44695   4.266  11.608   4.020 -1.1920  0.6969  0.7554
  339MOL0     H44696   4.318  11.644   4.185  0.3280 -0.9468  1.6762
  339MOL0     H44697   4.032  11.675   4.073 -1.8128 -0.1356  3.2231
  339MOL0     H44698   4.086  11.733   4.227 -3.0201 -0.8399 -0.5168
  339MOL0     H44699   4.244  11.818   3.977 -1.4795 -2.2488 -0.1770
  339MOL0     H44700   4.217  11.898   4.147 -1.5379  3.0547 -0.7138
  339MOL0     H44701   3.940  11.967   4.185  1.3182 -0.9538  0.1181
  339MOL0     H44702   3.672  12.016   4.069 -0.0689 -1.4506 -3.5034
  339MOL0     H44703   3.674  12.124   3.936  2.0404  6.8001 -0.6161
  339MOL0     H44704   3.775  12.196   4.209 -1.3457  0.0488  1.3949
  339MOL0     H44705   3.618  12.199   4.135 -0.4499  0.4177 -1.6328
  339MOL0     H44706   3.813  12.333   3.955  5.7059  1.8368  1.8498
  339MOL0     H44707   3.655  12.398   4.030 -0.4074 -1.4423 -0.2414
  339MOL0     H44708   3.806  12.473   4.213  2.4658  0.2340  0.9059
  339MOL0     H44709   3.856  12.529   4.057 -3.3793  2.0883  1.0666
  339MOL0     H44710   4.143  12.182   4.208  0.8685 -1.6143  1.8779
  339MOL0     H44711   4.319  12.217   4.383 -2.0636 -1.3763 -0.6131
  339MOL0     H44712   4.236  12.470   4.843  0.7121 -1.8829  1.4095
  339MOL0     H44713   4.306  12.548   5.066  1.7229  0.7325  1.3343
  339MOL0     H44714   4.471  12.538   5.205  1.8660 -1.0472 -0.4082
  339MOL0     H44715   4.542  12.665   5.308  2.1163 -2.4392  1.1465
  339MOL0     H44716   4.748  12.635   5.150 -0.9656 -0.3214 -1.3160
  339MOL0     H44717   4.663  12.498   5.084 -2.9421 -1.3031  1.1091
  339MOL0     H44718   4.655  12.381   5.301  0.2794  1.1701  1.0240
  339MOL0     H44719   4.754  12.503   5.374  1.5637  0.2124  0.1001
  339MOL0     H44720   4.816  12.335   5.145  2.5532 -1.1156 -0.7262
  339MOL0     H44721   4.914  12.472   5.157  1.0702 -3.7579 -3.0016
  339MOL0     H44722   4.990  12.422   5.382  0.2720  0.7179 -0.8604
  339MOL0     H44723   5.026  12.311   5.254 -1.0580  1.6839 -0.7826
  339MOL0     H44724   4.823  12.172   5.335 -4.4054 -2.1932  4.1396
  339MOL0     H44725   4.811  12.264   5.484 -1.5904 -2.2197 -0.1675
  339MOL0     H44726   5.097  12.222   5.474  0.5393  0.8624 -2.5539
  339MOL0     H44727   4.994  12.144   5.572  1.7984  0.4639  0.8730
  339MOL0     H44728   4.995  12.034   5.290  0.3468  2.9359 -0.6596
  339MOL0     H44729   4.955  11.955   5.447  0.1743  0.2602 -0.8107
  339MOL0     H44730   4.644  12.723   4.875 -0.6352  1.4865  1.2452
  339MOL0     H44731   4.566  12.646   4.658  0.8941 -0.1284  0.6851
  339MOL0     H44732   4.167  12.604   4.465 -2.7435  0.3735 -0.1040
  339MOL0     H44733   4.000  12.581   4.289 -1.2018 -1.5844 -0.3494
  339MOL0     H44734   4.703  11.168   3.819  1.2274  1.8261  0.1793
  339MOL0     H44735   4.902  11.157   3.682 -2.4844  1.0206 -0.5484
  339MOL0     H44736   5.537  11.265   3.788  0.1119 -1.0868  0.5360
  339MOL0     H44737   5.691  11.223   3.608  0.3964 -0.6236 -2.1754
  339MOL0     H44738   5.733  10.930   3.384 -1.7729 -0.5444  2.6743
  339MOL0     H44739   5.774  11.037   3.524  1.6246 -1.4621  0.6936
  339MOL0     H44740   5.839  11.118   3.251  3.7802  1.0736  0.0880
  339MOL0     H44741   5.880  11.195   3.413  0.5624  1.2749 -0.8800
  339MOL0     H44742   5.993  10.930   3.325  1.3082 -1.8555  2.0284
  339MOL0     H44743   5.992  10.989   3.485  0.0245  1.0318 -0.3527
  339MOL0     H44744   6.131  11.194   3.401  2.0901 -0.9324  0.4840
  339MOL0     H44745   6.223  11.043   3.392  2.0988  1.1130 -3.3299
  339MOL0     H44746   6.187  11.204   3.006 -5.3157  3.0612 -1.2370
  339MOL0     H44747   5.399  11.081   3.362  3.0890 -1.8915  0.1846
  339MOL0     H44748   5.211  11.103   3.552 -0.5243 -0.4222  1.1499
  340MOL0     O44749  11.437   0.775   1.365  0.2861  0.6999 -0.2362
  340MOL0     C44750  11.525   0.786   1.284 -0.6639  0.3162  0.5824
  340MOL0     O44751  11.661   0.769   1.310  1.2724  0.2481  0.7027
  340MOL0     C44752  11.716   0.735   1.430  0.4233 -0.0298  0.4976
  340MOL0     C44753  11.715   0.603   1.477  0.0193 -0.0829  0.0663
  340MOL0     C44754  11.774   0.570   1.604  1.0412 -0.9946  0.6498
  340MOL0     C44755  11.845   0.661   1.676  0.0692 -0.0660  0.9975
  340MOL0     O44756  11.885   0.612   1.799  0.3218 -0.2223 -0.6757
  340MOL0     C44757  11.980   0.688   1.885  0.7179 -0.6713  0.7419
  340MOL0     C44758  11.965   0.639   2.026 -0.0554  0.1111 -0.0563
  340MOL0     C44759  12.040   0.734   2.119  0.9190 -0.2231 -0.2417
  340MOL0     C44760  12.000   0.723   2.263  0.0562 -0.2956  0.5695
  340MOL0     C44761  12.063   0.607   2.328  0.3552 -0.1111 -1.0361
  340MOL0     C44762  12.033   0.577   2.466  0.5390  0.5511  1.5796
  340MOL0     C44763  12.040   0.700   2.544  0.7169  0.0130 -0.7222
  340MOL0     C44764  12.047   0.677   2.692 -1.1511  0.0484  0.2930
  340MOL0     N44765  12.179   0.635   2.738 -0.6915  0.0590  0.1941
  340MOL0     C44766  12.238   0.510   2.735 -1.2754  0.4730  0.0492
  340MOL0     C44767  12.367   0.535   2.764 -0.1523 -1.0225  0.1872
  340MOL0     C44768  12.466   0.418   2.809  0.0872 -0.2193 -0.4533
  340MOL0     C44769  12.572   0.445   2.928  0.3453  1.1041  0.5748
  340MOL0     C44770  12.663   0.327   2.950  0.5873  0.8086  1.0942
  340MOL0     C44771  12.764   0.355   3.074  0.1024 -0.9533  0.6112
  340MOL0     O44772  12.846   0.471   3.078  0.4080 -0.7758  0.3226
  340MOL0     C44773  12.948   0.498   3.000  0.5668 -0.1718 -0.3075
  340MOL0     C44774  13.037   0.407   2.945 -1.5283 -0.1306 -0.0724
  340MOL0     C44775  13.146   0.460   2.874 -0.4390  0.1003 -0.3996
  340MOL0     C44776  13.166   0.591   2.861 -0.9211 -0.2766  0.5400
  340MOL0     C44777  13.290   0.646   2.792  0.8062  0.3341  0.4696
  340MOL0     O44778  13.397   0.560   2.773  0.9961  0.5705 -0.3882
  340MOL0     C44779  13.510   0.593   2.710 -0.0932 -0.1666 -0.2322
  340MOL0     C44780  13.573   0.713   2.742  1.0599  0.1426 -1.0148
  340MOL0     C44781  13.701   0.732   2.695  0.1429  0.1711 -0.7658
  340MOL0     C44782  13.746   0.655   2.587  0.5125 -0.6027  0.4005
  340MOL0     O44783  13.852   0.697   2.513  0.6270 -0.0147  0.8760
  340MOL0     C44784  13.828   0.828   2.456 -1.1155 -0.3131  0.6213
  340MOL0     C44785  13.832   0.818   2.296 -0.7074 -0.2873 -1.0535
  340MOL0     C44786  13.921   0.919   2.233 -0.5494  0.1513 -0.4448
  340MOL0     C44787  14.066   0.870   2.201 -0.2326  0.3724 -0.6373
  340MOL0     C44788  14.151   0.978   2.251 -0.6526 -0.0106  0.3114
  340MOL0     C44789  14.310   0.947   2.229 -0.2844  0.7200 -0.0833
  340MOL0     C44790  14.360   0.827   2.315  0.3932  0.2983 -0.3248
  340MOL0     C44791  14.389   0.884   2.461  0.2311 -0.1411 -0.0061
  340MOL0    Cl44792  14.341   0.756   2.580  0.0690 -0.1219  0.5385
  340MOL0     C44793  13.677   0.535   2.554  0.3869 -0.2082  0.3261
  340MOL0     C44794  13.561   0.500   2.614  0.2447 -0.2366 -0.4797
  340MOL0     O44795  13.280   0.755   2.735  0.3207  0.7299 -0.2023
  340MOL0     C44796  13.063   0.682   2.888 -0.9318 -0.5819 -0.1878
  340MOL0     C44797  12.957   0.636   2.970  0.1099  0.5027 -1.5743
  340MOL0     N44798  12.391   0.666   2.782  0.4027 -0.7149  0.3046
  340MOL0     N44799  12.276   0.727   2.769 -0.0303 -0.2656 -0.7045
  340MOL0     C44800  11.838   0.794   1.629  0.4715 -0.6656 -0.3080
  340MOL0     C44801  11.773   0.828   1.507 -0.8836 -1.5645  0.0384
  340MOL0     C44802  11.488   0.825   1.142 -0.3223 -0.8990 -1.0770
  340MOL0     C44803  11.350   0.813   1.116  0.1593 -0.5285  0.6803
  340MOL0     C44804  11.304   0.852   0.996 -0.7354 -0.4950  0.6705
  340MOL0     C44805  11.393   0.889   0.894 -0.4223  0.0038  0.6197
  340MOL0     O44806  11.335   0.920   0.776  0.1457  0.2955 -0.4569
  340MOL0     C44807  11.407   0.944   0.646  1.0106 -1.3095 -0.1218
  340MOL0     C44808  11.305   0.903   0.544 -0.4423  0.1049 -0.0938
  340MOL0     C44809  11.278   0.751   0.542  0.0538  0.2498  0.8133
  340MOL0     C44810  11.143   0.733   0.485 -0.4805  1.0469  0.1887
  340MOL0     C44811  11.093   0.590   0.484 -0.5474  0.3892  0.4131
  340MOL0     C44812  11.044   0.477   0.478 -0.3466 -0.1441  0.1857
  340MOL0     C44813  11.531   0.902   0.914  0.5890  0.0259 -0.0632
  340MOL0     C44814  11.583   0.863   1.041  0.7960 -0.1127 -0.3886
  340MOL0     H44815  11.676   0.518   1.420  0.9706 -0.2801 -0.3096
  340MOL0     H44816  11.788   0.471   1.645  0.2649 -0.9891  0.9411
  340MOL0     H44817  11.953   0.794   1.885 -1.3430 -1.1393  1.8952
  340MOL0     H44818  12.079   0.681   1.840 -0.0088  0.9656 -1.3137
  340MOL0     H44819  12.006   0.538   2.035  2.8957  1.2449  0.2160
  340MOL0     H44820  11.859   0.629   2.051  0.5320 -0.4087  2.5647
  340MOL0     H44821  12.020   0.839   2.099  3.9450  0.1012 -2.0957
  340MOL0     H44822  12.148   0.735   2.102  0.5938 -0.5554 -2.7153
  340MOL0     H44823  12.030   0.817   2.312 -2.1241 -0.5779  2.5871
  340MOL0     H44824  11.892   0.716   2.279 -0.3803  1.8205 -0.9537
  340MOL0     H44825  12.171   0.615   2.320  0.6724 -3.0051 -0.5710
  340MOL0     H44826  12.041   0.518   2.269 -1.9453 -1.5122  1.7129
  340MOL0     H44827  12.106   0.506   2.506  2.0607  0.0997 -1.7087
  340MOL0     H44828  11.931   0.538   2.473 -0.1020  1.4875 -1.4606
  340MOL0     H44829  12.121   0.766   2.511 -0.0015  0.1000 -2.4359
  340MOL0     H44830  11.955   0.765   2.522  1.9867  1.7101 -0.8287
  340MOL0     H44831  11.981   0.590   2.701  0.5340 -1.4225 -0.9505
  340MOL0     H44832  11.994   0.756   2.747 -3.7198 -0.8337 -0.7405
  340MOL0     H44833  12.201   0.408   2.729  3.3230 -1.4528  0.7190
  340MOL0     H44834  12.529   0.397   2.722  2.1168  1.1621  0.5736
  340MOL0     H44835  12.409   0.330   2.837  2.3252 -2.7252 -3.1073
  340MOL0     H44836  12.511   0.476   3.014 -0.4602 -1.6681  1.0838
  340MOL0     H44837  12.631   0.526   2.885 -2.3743  2.3950 -0.9771
  340MOL0     H44838  12.599   0.243   2.978 -1.7070  1.8488 -0.7716
  340MOL0     H44839  12.721   0.316   2.858  1.7071 -0.3971  1.8976
  340MOL0     H44840  12.831   0.269   3.077 -0.7733 -1.6872 -0.3082
  340MOL0     H44841  12.708   0.355   3.168  0.8429 -2.7459  1.0971
  340MOL0     H44842  13.030   0.300   2.955 -2.5145 -0.2513 -1.6493
  340MOL0     H44843  13.226   0.392   2.851  2.1930  2.4656  1.1436
  340MOL0     H44844  13.536   0.792   2.806  1.1458 -0.6846  0.0856
  340MOL0     H44845  13.762   0.807   2.746 -0.3721 -1.4320  2.4788
  340MOL0     H44846  13.905   0.894   2.497  0.2267 -2.2050  1.2904
  340MOL0     H44847  13.734   0.873   2.487 -2.2545 -1.1048 -1.4791
  340MOL0     H44848  13.729   0.841   2.270 -2.8736 -1.8136  4.6312
  340MOL0     H44849  13.850   0.715   2.264 -3.0040 -1.2454  0.5259
  340MOL0     H44850  13.916   1.018   2.281  0.5700  1.3671 -2.6762
  340MOL0     H44851  13.873   0.909   2.135  0.6837 -3.2067 -0.8194
  340MOL0     H44852  14.080   0.776   2.255  0.9299 -0.5978 -2.5311
  340MOL0     H44853  14.079   0.833   2.099  0.7223 -2.8133  0.5331
  340MOL0     H44854  14.128   0.991   2.358 -0.9074 -1.5563  0.4641
  340MOL0     H44855  14.132   1.075   2.204  1.3063  0.2260 -0.0574
  340MOL0     H44856  14.367   1.038   2.254  2.4448 -0.6615 -0.9198
  340MOL0     H44857  14.322   0.916   2.125 -3.3450  3.3758 -1.3946
  340MOL0     H44858  14.283   0.750   2.327 -1.2764  2.1806  1.9621
  340MOL0     H44859  14.453   0.782   2.278  1.3995  1.9813  0.0645
  340MOL0     H44860  14.326   0.970   2.483 -0.2150 -0.9078  1.9893
  340MOL0     H44861  14.493   0.915   2.472  0.1791  0.6931 -1.6463
  340MOL0     H44862  13.728   0.469   2.484  0.0210 -0.9139  0.7178
  340MOL0     H44863  13.505   0.409   2.597  0.3732 -0.2442 -0.8894
  340MOL0     H44864  13.082   0.787   2.869 -2.1857 -0.5812 -1.7488
  340MOL0     H44865  12.883   0.709   3.000  0.2560 -0.2882  0.9457
  340MOL0     H44866  11.893   0.870   1.683  0.4017  1.0496 -2.4878
  340MOL0     H44867  11.767   0.930   1.471  3.8287 -0.7822  0.7938
  340MOL0     H44868  11.285   0.788   1.199  0.2682 -0.8007  0.6832
  340MOL0     H44869  11.198   0.867   0.974 -0.7376 -3.2674 -1.9451
  340MOL0     H44870  11.497   0.885   0.628  0.1290 -1.7844 -3.7194
  340MOL0     H44871  11.418   1.053   0.638 -1.4083 -1.0355 -0.3902
  340MOL0     H44872  11.216   0.962   0.565 -0.2557 -0.2227  1.8119
  340MOL0     H44873  11.347   0.934   0.448  1.6340 -1.3148  0.2699
  340MOL0     H44874  11.293   0.698   0.636  3.1232 -0.7340 -0.1044
  340MOL0     H44875  11.355   0.697   0.487 -0.4814 -1.9780  2.1320
  340MOL0     H44876  11.073   0.801   0.534  0.1210  1.6319  0.2354
  340MOL0     H44877  11.151   0.755   0.378  0.6723  1.0333  0.2585
  340MOL0     H44878  11.002   0.379   0.482 -0.0105 -0.2615  0.9080
  340MOL0     H44879  11.605   0.918   0.836 -0.8201 -1.1950 -1.7372
  340MOL0     H44880  11.690   0.851   1.055  0.2348 -6.2904  1.2893
  341MOL0     O44881  10.051  10.644   6.695 -0.0548  0.4053 -0.1794
  341MOL0     C44882   9.974  10.711   6.630  0.1746 -0.0356 -0.2691
  341MOL0     O44883   9.892  10.813   6.676  0.2800 -0.2776  0.0026
  341MOL0     C44884   9.918  10.866   6.807  0.2047  0.6648 -1.1015
  341MOL0     C44885  10.048  10.890   6.854 -0.5482 -0.9503  0.0170
  341MOL0     C44886  10.066  10.943   6.981 -0.4663  0.0531  0.2697
  341MOL0     C44887   9.958  10.996   7.052  0.0663 -0.4268  0.1306
  341MOL0     O44888   9.985  11.042   7.176 -0.7772 -0.2530 -0.6793
  341MOL0     C44889   9.905  11.141   7.238  0.2534  0.0411  0.1998
  341MOL0     C44890   9.878  11.106   7.383  0.3400  0.0376 -0.2460
  341MOL0     C44891   9.798  11.213   7.456 -0.7923  0.0276 -0.0626
  341MOL0     C44892   9.771  11.175   7.609  0.0398 -0.4410  0.2383
  341MOL0     C44893   9.671  11.264   7.691  0.3036 -0.3387  0.7217
  341MOL0     C44894   9.681  11.422   7.660  0.2609 -0.6543  0.3857
  341MOL0     C44895   9.589  11.519   7.732  0.7258 -0.0928  0.1150
  341MOL0     C44896   9.558  11.647   7.649  0.0292 -0.4428  1.4091
  341MOL0     N44897   9.469  11.743   7.714  0.0609 -0.2184 -0.4539
  341MOL0     C44898   9.479  11.882   7.713  0.6386 -0.0271 -0.4332
  341MOL0     C44899   9.367  11.928   7.786 -1.6632  0.7284  0.2195
  341MOL0     C44900   9.333  12.071   7.805  0.7030 -0.2221  0.1356
  341MOL0     C44901   9.203  12.092   7.886 -0.1760 -0.9706  1.2187
  341MOL0     C44902   9.076  12.029   7.817 -0.0017 -0.5408  0.2820
  341MOL0     C44903   8.944  12.082   7.884  0.2287  0.4060 -0.0316
  341MOL0     O44904   8.916  12.222   7.863  0.5952  0.5057 -0.2396
  341MOL0     C44905   8.846  12.243   7.748 -0.1788  0.4875  1.4245
  341MOL0     C44906   8.803  12.380   7.735  0.4610  0.9965  0.6533
  341MOL0     C44907   8.729  12.420   7.614  0.0431 -0.8596 -0.9822
  341MOL0     C44908   8.681  12.323   7.518 -0.5309  1.0321  0.3168
  341MOL0     C44909   8.603  12.373   7.397 -0.6657  2.4838 -0.0691
  341MOL0     O44910   8.588  12.271   7.299  0.4334 -0.7953  0.0134
  341MOL0     C44911   8.511  12.309   7.189 -0.9088 -0.2626 -0.0005
  341MOL0     C44912   8.376  12.299   7.200 -0.0632 -0.1855  0.8048
  341MOL0     C44913   8.290  12.339   7.102 -0.2594 -0.1243 -0.6865
  341MOL0     C44914   8.340  12.409   6.984  1.2366 -0.4240 -0.3911
  341MOL0     O44915   8.273  12.488   6.898 -0.1362 -0.3063  0.7008
  341MOL0     C44916   8.124  12.505   6.899  0.1148  0.1384  0.3974
  341MOL0     C44917   8.089  12.619   6.995  0.0596 -0.4124  0.9480
  341MOL0     C44918   7.948  12.642   7.031  0.3788  0.2128 -0.0788
  341MOL0     C44919   7.853  12.677   6.912 -0.3818  0.0186 -0.1196
  341MOL0     C44920   7.701  12.662   6.959 -0.9836 -0.0975 -0.5149
  341MOL0     C44921   7.613  12.719   6.849  0.2707  0.1462 -0.9633
  341MOL0     C44922   7.612  12.870   6.829  0.3617  0.1376  0.2306
  341MOL0     C44923   7.614  12.964   6.964  0.1827 -0.0400  0.5611
  341MOL0    Cl44924   7.478  12.911   7.073 -0.1264  0.3957 -0.4380
  341MOL0     C44925   8.481  12.421   6.980  1.1096 -0.1711 -0.1717
  341MOL0     C44926   8.565  12.372   7.077  0.7363  0.7036 -0.2647
  341MOL0     O44927   8.571  12.490   7.383  0.4809 -0.3049 -0.4259
  341MOL0     C44928   8.708  12.184   7.546  0.1095  0.3389  0.3402
  341MOL0     C44929   8.800  12.155   7.645 -0.0202 -0.1275 -0.2406
  341MOL0     N44930   9.299  11.814   7.837 -0.6067  0.4851 -0.5135
  341MOL0     N44931   9.360  11.711   7.795  0.7709 -0.2873 -0.6630
  341MOL0     C44932   9.825  10.970   7.006  0.7484  1.0610 -0.1024
  341MOL0     C44933   9.807  10.902   6.882 -0.3947 -0.1390  0.7769
  341MOL0     C44934   9.971  10.672   6.483  0.2081 -0.1209  0.5357
  341MOL0     C44935   9.918  10.751   6.387  0.1467 -0.3525 -0.4850
  341MOL0     C44936   9.931  10.718   6.255 -0.7789 -0.0392  0.3844
  341MOL0     C44937   9.996  10.607   6.208  0.4254  0.0853  0.4584
  341MOL0     O44938  10.000  10.574   6.072 -0.0287 -0.0975 -0.7000
  341MOL0     C44939  10.017  10.676   5.975 -0.1177  0.4770  0.1192
  341MOL0     C44940   9.983  10.615   5.840  0.4941 -1.2405 -0.0013
  341MOL0     C44941  10.065  10.700   5.734 -0.2807 -0.3489  0.6453
  341MOL0     C44942  10.032  10.691   5.588 -1.1389  0.1167 -0.0125
  341MOL0     C44943  10.052  10.557   5.549 -0.4652 -0.9247 -0.0808
  341MOL0     C44944  10.092  10.446   5.515 -0.3421 -0.4887  1.0589
  341MOL0     C44945  10.047  10.524   6.304 -0.6789  0.9649  0.7148
  341MOL0     C44946  10.040  10.552   6.443 -0.1551 -0.1191  0.1503
  341MOL0     H44947  10.134  10.858   6.795 -1.6413 -2.5528 -0.7866
  341MOL0     H44948  10.169  10.955   7.012  0.6152 -3.4780 -1.4958
  341MOL0     H44949   9.812  11.151   7.182  0.7725 -1.5404 -1.0319
  341MOL0     H44950   9.963  11.234   7.232  0.3368 -0.0492 -0.5762
  341MOL0     H44951   9.975  11.093   7.432  0.0935  1.2856  0.6274
  341MOL0     H44952   9.818  11.015   7.391 -1.4614  1.0598 -1.5342
  341MOL0     H44953   9.712  11.235   7.392 -0.0319  1.9867 -0.4871
  341MOL0     H44954   9.861  11.302   7.461  0.5594 -0.9527  1.2934
  341MOL0     H44955   9.723  11.076   7.608  0.3771 -0.6081  0.4614
  341MOL0     H44956   9.862  11.161   7.668 -0.6893 -1.2489  1.2078
  341MOL0     H44957   9.702  11.267   7.796 -0.3475  4.4421  1.0273
  341MOL0     H44958   9.572  11.224   7.670  1.0575 -3.4658  2.4922
  341MOL0     H44959   9.646  11.425   7.556  1.1923 -0.6644  0.0583
  341MOL0     H44960   9.783  11.462   7.670  0.2004  0.2844 -2.0135
  341MOL0     H44961   9.489  11.475   7.743 -0.7266  2.8684 -0.2643
  341MOL0     H44962   9.625  11.530   7.835 -0.4936 -2.5169  0.8909
  341MOL0     H44963   9.523  11.620   7.550 -3.5130 -5.1994  3.5769
  341MOL0     H44964   9.651  11.705   7.649 -0.8984  1.1222 -0.0368
  341MOL0     H44965   9.542  11.956   7.665  0.8953 -0.7881 -1.2960
  341MOL0     H44966   9.325  12.126   7.711 -0.9264  0.6995  0.7694
  341MOL0     H44967   9.426  12.111   7.847  0.6929  1.6021 -1.4746
  341MOL0     H44968   9.179  12.198   7.895 -0.9681 -0.8701 -1.2989
  341MOL0     H44969   9.211  12.043   7.984 -0.7759 -2.7030  0.4397
  341MOL0     H44970   9.075  12.052   7.710 -0.8438  2.3005  0.7977
  341MOL0     H44971   9.069  11.920   7.819 -1.8745 -0.5498 -1.9503
  341MOL0     H44972   8.945  12.058   7.991 -1.0784  0.1806 -0.0563
  341MOL0     H44973   8.866  12.017   7.845  2.7365 -1.6748 -1.9988
  341MOL0     H44974   8.821  12.459   7.807  1.1115 -0.1472  1.7693
  341MOL0     H44975   8.702  12.525   7.609  0.4993 -0.6389  0.6147
  341MOL0     H44976   8.337  12.260   7.293 -1.1154 -3.3058 -0.8179
  341MOL0     H44977   8.183  12.324   7.111 -0.2734  0.3999  0.1804
  341MOL0     H44978   8.070  12.414   6.928 -2.9175  1.3501 -1.0249
  341MOL0     H44979   8.081  12.528   6.801  1.8442 -0.5214 -0.5486
  341MOL0     H44980   8.135  12.701   6.939  0.2999  0.5250  2.4552
  341MOL0     H44981   8.146  12.604   7.087  3.6778  0.0752 -0.9918
  341MOL0     H44982   7.948  12.724   7.104 -2.0009 -1.0172  1.4605
  341MOL0     H44983   7.904  12.552   7.075 -0.2370  0.1841 -0.7390
  341MOL0     H44984   7.872  12.772   6.861 -0.0853 -1.1351 -2.2693
  341MOL0     H44985   7.868  12.601   6.835 -0.7840 -0.2019  0.0178
  341MOL0     H44986   7.692  12.714   7.055  2.9409 -0.2033  0.0872
  341MOL0     H44987   7.676  12.557   6.976  3.7161 -1.3834  0.0160
  341MOL0     H44988   7.511  12.697   6.881  0.8405  2.1110  2.7649
  341MOL0     H44989   7.657  12.667   6.763  2.5617  2.8068 -1.5782
  341MOL0     H44990   7.700  12.889   6.766  0.1329  1.5223  0.2968
  341MOL0     H44991   7.531  12.891   6.758  0.6358 -1.7505 -0.6943
  341MOL0     H44992   7.588  13.065   6.931 -2.7000 -1.6911 -2.8989
  341MOL0     H44993   7.715  12.955   7.005  0.4983 -2.7939 -0.5547
  341MOL0     H44994   8.531  12.473   6.899  3.5585  1.8230  2.4206
  341MOL0     H44995   8.672  12.387   7.073  1.0147 -1.3766 -2.5516
  341MOL0     H44996   8.660  12.110   7.482 -0.5539  0.6116  0.5183
  341MOL0     H44997   8.827  12.050   7.651 -2.7271 -0.8020  2.1044
  341MOL0     H44998   9.739  10.977   7.073 -0.2450  0.3203 -1.2475
  341MOL0     H44999   9.709  10.869   6.850 -0.9147  0.5330  1.6172
  341MOL0     H45000   9.861  10.841   6.406  1.7192  0.6012 -0.1041
  341MOL0     H45001   9.887  10.780   6.178  1.6884 -2.4402 -3.2710
  341MOL0     H45002  10.118  10.719   5.973 -0.7752  2.3373 -4.4044
  341MOL0     H45003   9.953  10.764   5.975 -2.2337 -0.9963 -0.3753
  341MOL0     H45004   9.995  10.506   5.833 -0.1133 -1.2606 -0.8579
  341MOL0     H45005   9.878  10.642   5.827  1.4981  2.7140 -1.0235
  341MOL0     H45006  10.171  10.674   5.743 -0.1911  0.6991  4.2923
  341MOL0     H45007  10.062  10.806   5.760 -0.1366  0.5818 -2.7417
  341MOL0     H45008   9.929  10.714   5.560 -1.2497 -0.3273  0.0335
  341MOL0     H45009  10.097  10.758   5.531 -0.6831 -1.3176 -1.2406
  341MOL0     H45010  10.118  10.352   5.472 -2.2285 -1.4803  1.9240
  341MOL0     H45011  10.093  10.432   6.268  1.5569  2.9973 -2.1671
  341MOL0     H45012  10.085  10.477   6.508 -0.0849  1.4677  2.0331
  342MOL0     O45013   2.170   1.667  10.424  0.5288 -0.6682 -0.5818
  342MOL0     C45014   2.089   1.757  10.404 -1.1543  0.4961 -0.5089
  342MOL0     O45015   2.122   1.878  10.364 -0.4587  0.6644  0.4063
  342MOL0     C45016   2.255   1.908  10.342 -0.4185  0.1255  0.0498
  342MOL0     C45017   2.355   1.876  10.439 -0.4122  0.6708  0.2485
  342MOL0     C45018   2.493   1.885  10.409 -0.8856 -0.1314 -0.0021
  342MOL0     C45019   2.531   1.958  10.286 -1.2640  0.3146 -0.2401
  342MOL0     O45020   2.665   1.981  10.243 -0.2703 -0.1420 -0.3218
  342MOL0     C45021   2.763   2.028  10.341 -0.7298 -0.2179 -0.4270
  342MOL0     C45022   2.875   2.100  10.264 -0.2449  0.5940 -0.8540
  342MOL0     C45023   2.965   2.181  10.370  0.3577  0.7711 -0.0755
  342MOL0     C45024   3.090   2.234  10.298 -0.2690 -0.1215  0.1912
  342MOL0     C45025   3.184   2.311  10.387  0.3635  0.9763  0.2549
  342MOL0     C45026   3.274   2.399  10.307 -0.3786 -0.0238  0.0513
  342MOL0     C45027   3.400   2.429  10.383 -0.5244 -0.1440  1.0612
  342MOL0     C45028   3.522   2.484  10.296 -0.7703 -0.9457  0.4011
  342MOL0     N45029   3.545   2.399  10.182 -0.0552  0.0241 -0.7571
  342MOL0     C45030   3.598   2.273  10.198 -0.4941  0.4338 -0.0300
  342MOL0     C45031   3.597   2.211  10.067  1.1956 -0.0235  0.1376
  342MOL0     C45032   3.659   2.080  10.023 -0.2639 -0.4513  0.1230
  342MOL0     C45033   3.782   2.109   9.936  0.3259  0.0667 -0.0377
  342MOL0     C45034   3.889   2.187  10.023  0.0589  0.9810 -0.3138
  342MOL0     C45035   4.023   2.153   9.953 -0.1699  0.4708  0.2569
  342MOL0     O45036   4.076   2.028   9.998 -0.5877  0.8600  0.4970
  342MOL0     C45037   4.197   1.995   9.949 -0.3461  0.1718  0.3447
  342MOL0     C45038   4.223   1.863   9.902  0.0855 -0.6307  0.6741
  342MOL0     C45039   4.339   1.821   9.833 -0.1167  0.5687  0.7670
  342MOL0     C45040   4.440   1.912   9.826  0.5172 -0.2881  0.3043
  342MOL0     C45041   4.568   1.872   9.765 -0.6363  0.6552 -0.2065
  342MOL0     O45042   4.585   1.732   9.746  0.3812 -0.9832  0.2840
  342MOL0     C45043   4.711   1.684   9.714 -0.6982 -0.1467  0.1963
  342MOL0     C45044   4.821   1.705   9.793  0.4366  0.7458  0.2300
  342MOL0     C45045   4.942   1.640   9.763 -0.1266  0.2873 -0.2816
  342MOL0     C45046   4.955   1.563   9.650 -0.1440 -0.4954 -0.9831
  342MOL0     O45047   5.079   1.512   9.631  0.2029  0.4670  0.7283
  342MOL0     C45048   5.126   1.500   9.498 -0.3321 -0.1677  0.7006
  342MOL0     C45049   5.117   1.351   9.438  0.3132 -0.4935  0.1616
  342MOL0     C45050   5.116   1.343   9.277 -1.1487  0.2964 -0.2186
  342MOL0     C45051   4.999   1.430   9.227  0.0198  1.2285 -0.0822
  342MOL0     C45052   4.994   1.426   9.078  0.5639  0.4653  0.4305
  342MOL0     C45053   4.894   1.533   9.023 -0.2660  0.5270 -0.8189
  342MOL0     C45054   4.902   1.562   8.871 -0.3436 -0.2595  1.1894
  342MOL0     C45055   4.776   1.551   8.791 -0.0409 -0.8508  0.6727
  342MOL0    Cl45056   4.634   1.659   8.843 -0.5388 -0.2031 -0.4022
  342MOL0     C45057   4.845   1.548   9.573 -0.8038  0.1378  0.9240
  342MOL0     C45058   4.720   1.601   9.605  0.8290  0.3963  0.6969
  342MOL0     O45059   4.650   1.959   9.735  0.1110 -0.5651 -0.3715
  342MOL0     C45060   4.419   2.046   9.870  0.0372 -0.2888  0.3305
  342MOL0     C45061   4.293   2.082   9.932  0.0522  0.5373  0.3857
  342MOL0     N45062   3.547   2.305   9.982 -0.5436  0.2212  0.6932
  342MOL0     N45063   3.507   2.411  10.052  0.7389  1.1717 -0.0506
  342MOL0     C45064   2.431   2.003  10.200  0.1833 -0.0725  0.1182
  342MOL0     C45065   2.292   1.984  10.229 -0.1488 -1.0607 -0.1243
  342MOL0     C45066   1.953   1.727  10.400 -0.5407  1.0380  0.5753
  342MOL0     C45067   1.863   1.817  10.339  0.0189 -0.4401 -0.2455
  342MOL0     C45068   1.732   1.776  10.313  0.5405 -0.1375  0.8935
  342MOL0     C45069   1.683   1.646  10.338 -0.4165 -0.1893  1.0304
  342MOL0     O45070   1.555   1.608  10.315  0.5137  0.5069 -0.0475
  342MOL0     C45071   1.500   1.559  10.436 -0.7464  0.0502 -0.7779
  342MOL0     C45072   1.354   1.511  10.422  0.4407 -1.0486  0.5258
  342MOL0     C45073   1.348   1.361  10.380 -0.2770 -0.0436 -0.0728
  342MOL0     C45074   1.202   1.307  10.363  0.0682  0.1510  0.2970
  342MOL0     C45075   1.133   1.300  10.497 -0.1311  0.4489  0.5274
  342MOL0     C45076   1.105   1.307  10.611 -0.4464  0.1514  0.3627
  342MOL0     C45077   1.778   1.561  10.389 -0.5360  1.1686  0.0145
  342MOL0     C45078   1.911   1.592  10.425 -0.1727 -0.6473 -0.8106
  342MOL0     H45079   2.342   1.835  10.538  2.5898 -0.1734  0.4011
  342MOL0     H45080   2.566   1.846  10.478 -1.0661 -0.4605  0.0054
  342MOL0     H45081   2.791   1.948  10.410 -0.5959  1.3951  1.4861
  342MOL0     H45082   2.724   2.106  10.406 -0.7542  0.7555 -1.5715
  342MOL0     H45083   2.838   2.163  10.183  1.0775 -0.5896 -2.4524
  342MOL0     H45084   2.944   2.032  10.214 -0.1905  0.7364 -0.9715
  342MOL0     H45085   3.010   2.109  10.439  2.9116  1.7411 -0.6279
  342MOL0     H45086   2.904   2.252  10.428 -1.0720 -3.5111  4.3334
  342MOL0     H45087   3.157   2.153  10.267  1.7025  0.8812  1.6195
  342MOL0     H45088   3.057   2.290  10.209 -4.4018 -1.4857  0.6291
  342MOL0     H45089   3.237   2.232  10.442 -0.6062 -0.6474 -1.0429
  342MOL0     H45090   3.125   2.373  10.455 -0.2922 -0.6796  1.2602
  342MOL0     H45091   3.219   2.487  10.271 -2.3460 -1.7598 -1.4370
  342MOL0     H45092   3.299   2.350  10.213  0.6438  4.4606 -2.3014
  342MOL0     H45093   3.377   2.502  10.461 -0.9775 -1.0228  1.7619
  342MOL0     H45094   3.437   2.334  10.422  1.5175  0.4300  0.6238
  342MOL0     H45095   3.609   2.503  10.361 -0.2469  0.1719 -0.5975
  342MOL0     H45096   3.483   2.580  10.261  2.6708  1.6843  2.9045
  342MOL0     H45097   3.637   2.246  10.296 -1.5977  1.9758  0.8754
  342MOL0     H45098   3.601   2.014   9.958 -0.3167 -1.0562  0.7727
  342MOL0     H45099   3.683   2.023  10.113  3.6120 -0.5552 -0.7988
  342MOL0     H45100   3.760   2.167   9.847 -1.1839  0.6698  0.6831
  342MOL0     H45101   3.825   2.016   9.897  1.4364  0.8488 -0.7216
  342MOL0     H45102   3.868   2.294  10.021  1.3025  1.2726  0.6886
  342MOL0     H45103   3.888   2.166  10.130 -3.8118  3.6369  0.3787
  342MOL0     H45104   4.096   2.233   9.968  1.9997 -1.3406 -0.0130
  342MOL0     H45105   4.005   2.144   9.846 -0.1181 -3.1421  0.4169
  342MOL0     H45106   4.145   1.788   9.913 -1.6050  1.1126  1.2123
  342MOL0     H45107   4.360   1.720   9.800 -0.7281 -0.0204  2.0819
  342MOL0     H45108   4.821   1.775   9.876  0.1312  1.5495 -0.4314
  342MOL0     H45109   5.027   1.666   9.826  0.1780  0.3720 -0.7229
  342MOL0     H45110   5.231   1.527   9.484 -0.3740 -1.4200 -3.1898
  342MOL0     H45111   5.065   1.568   9.437  1.2817  0.3408 -0.3972
  342MOL0     H45112   5.016   1.314   9.458  0.1024 -0.5910 -1.0439
  342MOL0     H45113   5.202   1.290   9.472  2.1367  0.9643 -1.5198
  342MOL0     H45114   5.109   1.237   9.252 -2.0421 -0.5245  3.0540
  342MOL0     H45115   5.218   1.369   9.246 -1.1419 -0.2583 -0.6830
  342MOL0     H45116   4.905   1.401   9.275  1.0905 -0.4341  1.1586
  342MOL0     H45117   5.012   1.535   9.253  0.4147  1.0575  0.4515
  342MOL0     H45118   4.964   1.327   9.040 -0.8432  1.6837 -1.8712
  342MOL0     H45119   5.094   1.440   9.038  0.5646 -1.6915 -0.4891
  342MOL0     H45120   4.917   1.630   9.068  1.5005  0.6365 -1.8360
  342MOL0     H45121   4.796   1.492   9.049  2.2748 -4.7307  1.9438
  342MOL0     H45122   4.936   1.665   8.852 -1.5647 -0.1024 -0.2718
  342MOL0     H45123   4.975   1.500   8.818  1.0299  1.0713  1.4508
  342MOL0     H45124   4.756   1.444   8.791  1.5042 -1.2213 -2.3348
  342MOL0     H45125   4.784   1.573   8.685  0.8585 -0.2419  0.8484
  342MOL0     H45126   4.855   1.492   9.481  1.1617  1.6801  0.1278
  342MOL0     H45127   4.628   1.586   9.550  0.2188 -1.4092  2.0824
  342MOL0     H45128   4.510   2.104   9.877  1.2261 -1.8350 -1.3468
  342MOL0     H45129   4.276   2.186   9.958 -1.1104  1.1811 -2.5509
  342MOL0     H45130   2.462   2.061  10.113  0.3560 -2.0384 -1.1852
  342MOL0     H45131   2.218   2.022  10.159  0.0696 -2.2543 -1.0538
  342MOL0     H45132   1.903   1.910  10.301  2.5340 -1.6655 -0.8590
  342MOL0     H45133   1.660   1.845  10.269 -0.1975 -1.9090 -0.8378
  342MOL0     H45134   1.513   1.639  10.508 -0.3079  1.1439 -2.0329
  342MOL0     H45135   1.559   1.480  10.483 -3.9532 -2.5916 -0.8041
  342MOL0     H45136   1.298   1.530  10.514 -0.9262  2.2078 -0.8201
  342MOL0     H45137   1.305   1.572  10.346 -0.5747 -0.0734  1.9058
  342MOL0     H45138   1.375   1.293  10.462 -1.3704 -0.5429 -0.1186
  342MOL0     H45139   1.409   1.351  10.290 -1.5477 -0.1748 -0.9382
  342MOL0     H45140   1.155   1.386  10.303 -0.2558  2.2612  3.0935
  342MOL0     H45141   1.208   1.205  10.324 -1.5243  0.4515 -0.8502
  342MOL0     H45142   1.079   1.321  10.714  0.2513 -1.4580  0.7991
  342MOL0     H45143   1.747   1.461  10.417  3.2027 -0.2953 -0.4972
  342MOL0     H45144   1.978   1.520  10.472  1.7040 -0.3585 -2.8624
  343MOL0     O45145  10.999   6.310   3.692  0.3472 -0.3847 -0.4954
  343MOL0     C45146  11.010   6.417   3.744 -0.2467 -0.1216 -1.2268
  343MOL0     O45147  10.913   6.479   3.808 -0.0706 -0.2709 -0.0177
  343MOL0     C45148  10.795   6.421   3.837  0.9304 -0.4422 -0.6621
  343MOL0     C45149  10.683   6.494   3.843 -0.1582  0.7733  0.6286
  343MOL0     C45150  10.560   6.438   3.880  0.7407 -0.0060  0.4307
  343MOL0     C45151  10.545   6.311   3.924 -1.1957  0.0182  0.2184
  343MOL0     O45152  10.419   6.287   3.970 -0.3881 -0.0232 -0.0138
  343MOL0     C45153  10.411   6.193   4.072 -0.4222 -0.2724  0.3692
  343MOL0     C45154  10.270   6.159   4.085  0.2282 -0.2067 -0.8039
  343MOL0     C45155  10.217   6.209   4.229  0.1768  0.5381  0.5499
  343MOL0     C45156  10.106   6.131   4.299  0.3206  0.2747  0.0106
  343MOL0     C45157  10.059   6.198   4.428 -0.2470  0.3422  0.2510
  343MOL0     C45158   9.957   6.099   4.498 -0.1097 -0.1393  0.8599
  343MOL0     C45159   9.887   6.160   4.613 -0.6358 -0.0623  0.0570
  343MOL0     C45160   9.773   6.081   4.649  1.5199 -0.0860 -0.6557
  343MOL0     N45161   9.654   6.083   4.554  0.2087 -0.5115 -0.2322
  343MOL0     C45162   9.620   5.971   4.474  0.6230  0.0465 -0.3803
  343MOL0     C45163   9.498   6.016   4.417 -0.6170 -0.7611  0.1277
  343MOL0     C45164   9.414   5.938   4.314  0.9800  0.6271 -0.3682
  343MOL0     C45165   9.394   6.010   4.181  0.2043  0.1963  0.3108
  343MOL0     C45166   9.251   5.986   4.120  1.5078  0.6009  0.5465
  343MOL0     C45167   9.249   5.992   3.971 -0.1783 -0.2864  0.2245
  343MOL0     O45168   9.342   5.902   3.911  0.3732 -0.0762  0.0268
  343MOL0     C45169   9.346   5.892   3.773 -0.3424  0.2555  0.5403
  343MOL0     C45170   9.277   5.969   3.682 -0.5649 -0.3669  0.1689
  343MOL0     C45171   9.282   5.952   3.545 -0.0078 -0.5918  0.3556
  343MOL0     C45172   9.348   5.842   3.492  0.1090 -0.5575 -0.5747
  343MOL0     C45173   9.357   5.821   3.350  0.5404  0.0810 -0.1925
  343MOL0     O45174   9.389   5.923   3.268  0.7594  0.9364 -0.8933
  343MOL0     C45175   9.412   5.895   3.133  0.2147  0.8031  0.9170
  343MOL0     C45176   9.514   5.809   3.089 -0.1085  0.8531 -0.3476
  343MOL0     C45177   9.524   5.768   2.956  0.6463  1.6735  0.2721
  343MOL0     C45178   9.436   5.822   2.857  0.7193  0.6530 -0.7700
  343MOL0     O45179   9.430   5.777   2.722  0.2824 -0.3191  0.5129
  343MOL0     C45180   9.551   5.723   2.672  0.1235 -0.1586  1.1882
  343MOL0     C45181   9.527   5.722   2.523  0.5160  0.6274  0.7110
  343MOL0     C45182   9.573   5.856   2.467 -0.2347 -0.0658  0.0936
  343MOL0     C45183   9.551   5.848   2.317  0.2923  1.0912 -0.2896
  343MOL0     C45184   9.588   5.992   2.271 -0.3844 -0.1553 -0.0330
  343MOL0     C45185   9.543   5.995   2.131 -0.5588  0.6457 -0.5278
  343MOL0     C45186   9.568   6.134   2.065 -0.1408  0.5139  0.8431
  343MOL0     C45187   9.711   6.135   2.015 -0.3233 -0.1453  0.3878
  343MOL0    Cl45188   9.731   6.300   1.984 -0.4344  0.4136 -0.0501
  343MOL0     C45189   9.337   5.911   2.892  0.8101  0.5164 -0.0240
  343MOL0     C45190   9.326   5.948   3.034 -0.1898  0.1038  0.7713
  343MOL0     O45191   9.322   5.713   3.306 -0.7212  0.1001 -0.8540
  343MOL0     C45192   9.419   5.755   3.584  0.3741 -1.3941  0.1735
  343MOL0     C45193   9.410   5.777   3.719 -0.2650 -0.2709 -0.7642
  343MOL0     N45194   9.454   6.131   4.481 -0.0931  0.0569  0.0125
  343MOL0     N45195   9.553   6.177   4.548  0.2397  0.6075  0.2099
  343MOL0     C45196  10.663   6.230   3.941 -1.0098 -0.3230  0.4733
  343MOL0     C45197  10.783   6.290   3.904 -0.5162 -0.6689  0.0469
  343MOL0     C45198  11.142   6.499   3.736 -0.1163  0.6864 -0.9871
  343MOL0     C45199  11.148   6.617   3.811 -0.7285  0.9703 -0.1114
  343MOL0     C45200  11.270   6.689   3.808 -0.1925 -0.1500 -0.1918
  343MOL0     C45201  11.392   6.648   3.736  0.3172 -0.0494 -0.5440
  343MOL0     O45202  11.512   6.721   3.721  1.0977  0.3917 -0.1699
  343MOL0     C45203  11.535   6.843   3.790  0.1831 -0.3167  0.5112
  343MOL0     C45204  11.563   6.800   3.930 -0.3312 -0.5613 -0.2504
  343MOL0     C45205  11.618   6.921   4.010  0.0947  0.1533 -1.4285
  343MOL0     C45206  11.633   6.891   4.155 -0.1606  0.4248  0.6109
  343MOL0     C45207  11.743   6.973   4.209 -0.4920  0.0120  0.0288
  343MOL0     C45208  11.840   7.040   4.240  0.4356 -0.4645  0.7510
  343MOL0     C45209  11.381   6.523   3.667  0.2390  0.2987 -0.9071
  343MOL0     C45210  11.256   6.452   3.664  0.0045  0.1089 -0.7738
  343MOL0     H45211  10.695   6.601   3.827  0.2721  0.7116  0.5274
  343MOL0     H45212  10.481   6.511   3.867  0.8997  0.0690 -0.1593
  343MOL0     H45213  10.459   6.238   4.159 -0.0003  3.4061 -1.5874
  343MOL0     H45214  10.460   6.100   4.040 -1.6395  0.6897 -5.6515
  343MOL0     H45215  10.270   6.050   4.096 -0.3251 -0.0194  1.4858
  343MOL0     H45216  10.191   6.182   4.013  0.2868  0.8470 -0.5359
  343MOL0     H45217  10.181   6.307   4.196 -2.5781 -0.6983 -0.3891
  343MOL0     H45218  10.308   6.213   4.290 -0.7274  1.5523  1.8771
  343MOL0     H45219  10.022   6.121   4.229  1.1399 -0.1724 -0.9449
  343MOL0     H45220  10.139   6.030   4.326  2.8305  1.2571  0.9236
  343MOL0     H45221  10.015   6.297   4.412 -0.2213  0.7565  2.4765
  343MOL0     H45222  10.152   6.205   4.485 -0.7281 -1.8769  1.3949
  343MOL0     H45223  10.007   6.011   4.539 -1.0959 -0.5771  1.1322
  343MOL0     H45224   9.888   6.070   4.419 -0.6961 -1.0992  1.7037
  343MOL0     H45225   9.952   6.163   4.701 -2.9654 -0.9686  1.9182
  343MOL0     H45226   9.853   6.263   4.595 -4.3796 -0.9154  1.4522
  343MOL0     H45227   9.730   6.117   4.743  0.1814  2.1662 -2.0447
  343MOL0     H45228   9.801   5.979   4.677 -1.7941 -0.6195  1.2236
  343MOL0     H45229   9.667   5.875   4.453  0.9426  0.4579 -1.6791
  343MOL0     H45230   9.313   5.917   4.352  1.4264  1.9742  1.7623
  343MOL0     H45231   9.469   5.846   4.295 -0.5035 -0.3531 -0.0437
  343MOL0     H45232   9.453   5.957   4.106  0.5741  1.3272 -0.2136
  343MOL0     H45233   9.427   6.114   4.176  1.1342  0.0268  2.1402
  343MOL0     H45234   9.218   5.891   4.163  1.1953  0.6968  0.5295
  343MOL0     H45235   9.173   6.052   4.160 -2.2171 -2.2595 -1.2944
  343MOL0     H45236   9.260   6.094   3.933  2.4974 -1.8953 -4.0381
  343MOL0     H45237   9.148   5.963   3.941  0.3319 -1.6803 -0.2245
  343MOL0     H45238   9.221   6.057   3.711 -2.0724  0.3513 -4.1038
  343MOL0     H45239   9.225   6.021   3.483  0.3712  0.0819  0.7507
  343MOL0     H45240   9.570   5.770   3.174  0.2162  4.5843  1.3678
  343MOL0     H45241   9.596   5.688   2.938 -2.6316 -0.8307 -3.1444
  343MOL0     H45242   9.568   5.623   2.714 -0.5957 -0.4439  0.8097
  343MOL0     H45243   9.644   5.778   2.686  0.4229 -0.5078  0.5774
  343MOL0     H45244   9.420   5.722   2.501  0.4176  2.0987  1.0920
  343MOL0     H45245   9.572   5.628   2.489 -0.2388  0.4907  0.0649
  343MOL0     H45246   9.678   5.882   2.482 -0.2331 -0.5505  0.9509
  343MOL0     H45247   9.505   5.932   2.507 -2.9984 -1.2059 -2.0726
  343MOL0     H45248   9.618   5.775   2.272  0.1974  0.8078  0.0291
  343MOL0     H45249   9.447   5.819   2.297 -0.7162  3.0796  1.6391
  343MOL0     H45250   9.697   6.007   2.274  0.5716 -4.9755  3.6504
  343MOL0     H45251   9.532   6.069   2.324 -2.2167  1.0046 -3.3440
  343MOL0     H45252   9.438   5.967   2.121 -0.0320 -1.6157 -0.3716
  343MOL0     H45253   9.591   5.919   2.069  1.6297  2.2243 -0.8890
  343MOL0     H45254   9.506   6.159   1.978 -1.3440  1.6797  1.9998
  343MOL0     H45255   9.549   6.218   2.132 -0.4184  0.4788  0.8079
  343MOL0     H45256   9.742   6.069   1.934  0.4407 -0.3358  0.8323
  343MOL0     H45257   9.789   6.124   2.090  0.3272  1.9366  0.0939
  343MOL0     H45258   9.274   5.958   2.816  0.4366 -1.0016 -0.6975
  343MOL0     H45259   9.247   6.017   3.061  2.0758  3.8075 -1.1709
  343MOL0     H45260   9.475   5.668   3.551  0.7155 -0.6236 -1.3728
  343MOL0     H45261   9.461   5.716   3.793 -1.4015  0.6575  0.8413
  343MOL0     H45262  10.650   6.134   3.990 -0.8559  0.0714  1.3070
  343MOL0     H45263  10.878   6.244   3.929 -0.5892 -0.5423  0.5876
  343MOL0     H45264  11.071   6.643   3.883  0.7788 -2.0839  2.8926
  343MOL0     H45265  11.268   6.787   3.855  2.1756 -0.6505  1.0830
  343MOL0     H45266  11.455   6.917   3.794  0.2881 -0.2523  2.4436
  343MOL0     H45267  11.621   6.896   3.749  0.4337  0.2649  1.7369
  343MOL0     H45268  11.480   6.753   3.984 -0.0488 -1.0190 -0.2075
  343MOL0     H45269  11.648   6.731   3.930 -0.5045 -0.8963  2.2497
  343MOL0     H45270  11.557   7.011   3.995 -0.1465  0.1578 -0.4811
  343MOL0     H45271  11.718   6.948   3.976  0.0237 -1.3817 -3.0362
  343MOL0     H45272  11.545   6.925   4.212 -0.7526  3.0039 -1.6249
  343MOL0     H45273  11.639   6.783   4.169  0.7037  0.6232  1.9661
  343MOL0     H45274  11.928   7.096   4.267  1.9942 -2.4277  0.0281
  343MOL0     H45275  11.462   6.498   3.599  0.6621 -3.0943  0.6518
  343MOL0     H45276  11.239   6.357   3.616 -0.6492 -0.1578 -0.0266
  344MOL0     O45277   1.981   4.868  10.242  0.1376  0.8359  0.1590
  344MOL0     C45278   2.032   4.965  10.181  0.7967 -0.7025 -0.5487
  344MOL0     O45279   2.156   4.966  10.131  1.1863 -0.3594 -0.0444
  344MOL0     C45280   2.195   4.858  10.063 -0.0847  0.0270  0.6050
  344MOL0     C45281   2.336   4.845  10.053 -0.5705  0.1895  0.4469
  344MOL0     C45282   2.392   4.738   9.984  0.0319  0.3209 -0.0122
  344MOL0     C45283   2.315   4.636   9.924  0.3943  0.0566 -0.6450
  344MOL0     O45284   2.345   4.523   9.863  0.3511  1.1401 -0.2124
  344MOL0     C45285   2.476   4.464   9.869 -0.5532 -0.6314  0.1769
  344MOL0     C45286   2.482   4.326   9.817 -0.0175  0.3783 -0.6926
  344MOL0     C45287   2.387   4.227   9.893 -0.1435 -0.6690 -0.2052
  344MOL0     C45288   2.387   4.095   9.831  0.3833 -0.3467 -0.6883
  344MOL0     C45289   2.519   4.021   9.849 -0.0941 -0.2042 -0.2402
  344MOL0     C45290   2.573   4.021   9.993 -0.1016 -0.8838 -0.5192
  344MOL0     C45291   2.674   3.917  10.010  0.0777  0.8874 -0.0996
  344MOL0     C45292   2.620   3.789  10.095 -0.5499  0.2992 -0.3184
  344MOL0     N45293   2.732   3.703  10.154 -0.1083 -0.4646 -0.2749
  344MOL0     C45294   2.861   3.672  10.118  0.0039  0.5773 -0.4025
  344MOL0     C45295   2.928   3.625  10.231 -0.4165 -0.2661  0.0556
  344MOL0     C45296   3.067   3.574  10.233 -0.5932  0.3515  0.5930
  344MOL0     C45297   3.165   3.683  10.201 -0.3644  0.3227  1.3145
  344MOL0     C45298   3.309   3.615  10.222 -0.0046  0.0705  0.7535
  344MOL0     C45299   3.420   3.725  10.236  0.7870  0.1419 -0.5588
  344MOL0     O45300   3.416   3.800  10.116  0.7293 -0.3923  0.1641
  344MOL0     C45301   3.529   3.880  10.091 -0.1908 -0.8381  0.2835
  344MOL0     C45302   3.535   3.956   9.966 -0.9373  0.2116  0.4869
  344MOL0     C45303   3.636   4.045   9.937  0.2818 -0.8162  0.4126
  344MOL0     C45304   3.738   4.064  10.032  0.4605 -1.3317  0.5467
  344MOL0     C45305   3.850   4.160  10.012 -0.7572 -0.2821 -0.2336
  344MOL0     O45306   3.923   4.191  10.129  0.2968  0.5287  0.2263
  344MOL0     C45307   3.980   4.315  10.155  0.3637  0.3770  0.4837
  344MOL0     C45308   3.892   4.431  10.164 -0.9826  0.5549 -0.1896
  344MOL0     C45309   3.957   4.553  10.182 -0.5997 -0.3358  0.3798
  344MOL0     C45310   4.096   4.567  10.224 -0.8244  0.5010  0.2663
  344MOL0     O45311   4.172   4.687  10.253 -0.0135  0.1828 -0.8353
  344MOL0     C45312   4.092   4.805  10.282 -0.2928 -0.4895  0.1403
  344MOL0     C45313   4.027   4.795  10.429 -0.5944  0.5486  0.0754
  344MOL0     C45314   3.972   4.927  10.473  0.9258  0.8014  0.1983
  344MOL0     C45315   3.892   4.894  10.595  0.3088 -1.3638  0.1407
  344MOL0     C45316   3.785   4.995  10.631  0.6626  0.1674  0.4299
  344MOL0     C45317   3.734   4.965  10.776 -0.2387  0.5851  0.9610
  344MOL0     C45318   3.620   5.056  10.810 -0.8403 -0.1491 -0.3613
  344MOL0     C45319   3.483   4.988  10.782 -0.5131 -0.0394 -0.8987
  344MOL0    Cl45320   3.354   5.101  10.813  0.6856 -0.4029 -0.4252
  344MOL0     C45321   4.168   4.442  10.214 -0.1718  0.5953 -1.2768
  344MOL0     C45322   4.107   4.318  10.191 -0.6462 -0.3151 -0.3522
  344MOL0     O45323   3.863   4.216   9.903  0.8147  0.4806 -0.3113
  344MOL0     C45324   3.725   3.989  10.149 -0.5980 -0.4166  1.1921
  344MOL0     C45325   3.633   3.895  10.178  0.4054 -0.0377  0.0078
  344MOL0     N45326   2.828   3.605  10.326 -0.0220  0.2724 -0.0390
  344MOL0     N45327   2.714   3.650  10.280 -0.3885 -0.3236 -0.5108
  344MOL0     C45328   2.176   4.643   9.945 -0.0007 -0.0275 -1.0689
  344MOL0     C45329   2.120   4.751  10.009 -0.2617  0.0101  1.0003
  344MOL0     C45330   1.949   5.086  10.157  0.2604 -0.4088  0.4606
  344MOL0     C45331   2.009   5.200  10.100  0.2537  1.0126  0.4805
  344MOL0     C45332   1.939   5.317  10.085 -0.2510 -1.1128 -0.7607
  344MOL0     C45333   1.816   5.325  10.149 -0.4311 -0.4068  0.1148
  344MOL0     O45334   1.752   5.445  10.171  0.0717  0.0328  0.3150
  344MOL0     C45335   1.669   5.471  10.049  0.8623  1.4743 -0.1945
  344MOL0     C45336   1.739   5.510   9.923  0.8410 -0.5522  0.0787
  344MOL0     C45337   1.668   5.633   9.856 -0.4890  0.1380 -0.1958
  344MOL0     C45338   1.598   5.597   9.726 -0.4878  0.3631  0.3841
  344MOL0     C45339   1.547   5.717   9.664  0.2763  1.0036 -1.0591
  344MOL0     C45340   1.504   5.816   9.608 -0.9005  0.2582  0.0722
  344MOL0     C45341   1.746   5.218  10.205  0.2057 -0.7103  0.5974
  344MOL0     C45342   1.817   5.102  10.213  0.0918 -0.4765  0.5093
  344MOL0     H45343   2.397   4.923  10.099 -1.3164  2.1562 -1.6468
  344MOL0     H45344   2.499   4.721   9.980 -0.0956 -0.1880 -1.5293
  344MOL0     H45345   2.511   4.450   9.972 -0.3725 -1.7670 -0.0327
  344MOL0     H45346   2.545   4.532   9.819  0.2322 -0.5872  1.2680
  344MOL0     H45347   2.586   4.296   9.832  0.8325  3.1955 -0.4507
  344MOL0     H45348   2.461   4.332   9.710  0.9645  3.1096 -0.8217
  344MOL0     H45349   2.289   4.275   9.881  0.1736 -0.4525 -2.3743
  344MOL0     H45350   2.417   4.206   9.996 -1.0140 -1.1465 -0.0400
  344MOL0     H45351   2.304   4.039   9.875 -0.7414  0.4116 -1.7899
  344MOL0     H45352   2.367   4.121   9.727  3.7818  0.7287 -1.1897
  344MOL0     H45353   2.593   4.065   9.781  0.5693 -0.0161  0.5806
  344MOL0     H45354   2.489   3.921   9.817 -4.3247  1.3531 -1.8510
  344MOL0     H45355   2.489   4.023  10.064 -0.6340  2.2603 -1.0595
  344MOL0     H45356   2.628   4.113  10.013  0.9247 -1.6965  0.5245
  344MOL0     H45357   2.706   3.883   9.911 -2.7035  2.0682 -1.5509
  344MOL0     H45358   2.758   3.955  10.068  0.8841 -0.5228 -0.2858
  344MOL0     H45359   2.555   3.719  10.041 -1.5653  1.5361 -0.7403
  344MOL0     H45360   2.545   3.821  10.168  1.4663  2.8609  0.7959
  344MOL0     H45361   2.889   3.702  10.017 -3.5042 -2.1610 -2.4450
  344MOL0     H45362   3.072   3.498  10.155 -1.6250  1.5533 -0.6756
  344MOL0     H45363   3.079   3.519  10.327 -2.1599  0.2387  0.7406
  344MOL0     H45364   3.162   3.774  10.263  2.4168  2.7222 -1.7323
  344MOL0     H45365   3.149   3.705  10.095  0.8312 -1.3457  0.7510
  344MOL0     H45366   3.305   3.551  10.311  1.3276 -0.1712  0.6581
  344MOL0     H45367   3.337   3.542  10.145  1.5159  1.1234  0.2611
  344MOL0     H45368   3.507   3.663  10.255  0.6168  0.6771  2.5714
  344MOL0     H45369   3.403   3.786  10.326  0.4068  1.4819 -1.5035
  344MOL0     H45370   3.461   3.938   9.889 -1.7743  0.9136  1.1197
  344MOL0     H45371   3.640   4.103   9.846  1.2943  0.6615  1.3471
  344MOL0     H45372   3.785   4.432  10.146 -1.4139  2.1183  2.0521
  344MOL0     H45373   3.897   4.643  10.178  0.3924  0.3173 -1.1058
  344MOL0     H45374   4.020   4.819  10.202 -0.9524  1.2355  0.9855
  344MOL0     H45375   4.160   4.891  10.286 -1.9577  0.9683 -1.4260
  344MOL0     H45376   4.107   4.769  10.499 -1.3679 -1.0325  0.4235
  344MOL0     H45377   3.944   4.723  10.431  0.5417 -0.7726  0.8731
  344MOL0     H45378   3.907   4.966  10.394  0.6798  2.8826  1.3720
  344MOL0     H45379   4.044   5.005  10.500 -0.1761  2.5347 -1.6224
  344MOL0     H45380   3.836   4.801  10.586 -2.9848  0.3983  0.7980
  344MOL0     H45381   3.969   4.882  10.672  2.2907  2.2528 -1.0565
  344MOL0     H45382   3.712   4.995  10.550 -0.8430  0.8091  1.7174
  344MOL0     H45383   3.835   5.092  10.626  0.9586  0.0295  0.7002
  344MOL0     H45384   3.814   4.976  10.850  0.3439  0.6479  0.3346
  344MOL0     H45385   3.705   4.860  10.768  1.6504  0.1952 -3.8814
  344MOL0     H45386   3.629   5.086  10.915 -2.9977  1.8622 -0.6884
  344MOL0     H45387   3.622   5.152  10.758 -4.6954  1.0886  1.4040
  344MOL0     H45388   3.467   4.894  10.837 -0.5711 -0.1122 -1.0390
  344MOL0     H45389   3.482   4.972  10.674  4.0219  0.8604 -1.2571
  344MOL0     H45390   4.275   4.444  10.235 -0.4546  1.7952  0.2984
  344MOL0     H45391   4.169   4.229  10.197 -0.5159 -0.1509  1.1623
  344MOL0     H45392   3.808   3.987  10.220  1.5751  3.2651 -0.8778
  344MOL0     H45393   3.642   3.848  10.276  2.7107 -0.2356 -0.2414
  344MOL0     H45394   2.107   4.568   9.909 -1.5816 -0.7487  2.9902
  344MOL0     H45395   2.013   4.746  10.021 -0.4536  2.4432  0.8362
  344MOL0     H45396   2.116   5.216  10.087  0.5105  1.3007  2.5470
  344MOL0     H45397   1.987   5.410  10.055 -3.2097  0.5306 -0.8120
  344MOL0     H45398   1.598   5.548  10.079 -2.1683 -1.8112  1.8414
  344MOL0     H45399   1.602   5.390  10.018  1.9988  1.0441 -1.6709
  344MOL0     H45400   1.843   5.532   9.947  0.5559  0.5093  0.4131
  344MOL0     H45401   1.746   5.425   9.854  0.9022 -0.6179  0.1662
  344MOL0     H45402   1.756   5.695   9.834 -0.3915  1.4956  3.3867
  344MOL0     H45403   1.596   5.684   9.921 -0.8062  0.6767 -0.9447
  344MOL0     H45404   1.668   5.548   9.658 -1.1182  1.8971 -1.4631
  344MOL0     H45405   1.511   5.535   9.750 -0.2944  0.1894  0.6320
  344MOL0     H45406   1.493   5.909   9.557 -0.9371  1.1505  1.6524
  344MOL0     H45407   1.644   5.231  10.240 -1.1420  0.9108 -3.3882
  344MOL0     H45408   1.753   5.017  10.235  0.1760 -0.8514 -0.6521
  345MOL0     O45409   2.643   5.582   9.331 -0.9171  0.9183  0.5075
  345MOL0     C45410   2.587   5.670   9.398  0.1492  0.0052 -0.5735
  345MOL0     O45411   2.651   5.757   9.486  0.9498 -0.4190 -0.1611
  345MOL0     C45412   2.751   5.717   9.563 -0.8508  0.0252 -0.6413
  345MOL0     C45413   2.801   5.588   9.581  0.2623  0.7286  0.1422
  345MOL0     C45414   2.907   5.561   9.661  0.1045 -0.2524  0.3061
  345MOL0     C45415   2.962   5.660   9.737  0.1826 -0.8260  0.0151
  345MOL0     O45416   3.054   5.638   9.829 -0.9551  0.6909  0.2935
  345MOL0     C45417   3.014   5.658   9.966  0.4491  0.7221  0.0099
  345MOL0     C45418   3.125   5.688  10.055  0.8165  0.4913  0.3858
  345MOL0     C45419   3.224   5.588  10.043 -0.4335  0.6997 -0.7494
  345MOL0     C45420   3.366   5.628  10.079  0.1163  0.1180  0.3377
  345MOL0     C45421   3.446   5.686   9.969 -0.3228 -0.2015  0.4857
  345MOL0     C45422   3.598   5.712  10.007 -0.0010 -0.7552  0.0102
  345MOL0     C45423   3.606   5.834  10.101 -0.2878 -0.0134 -0.5649
  345MOL0     C45424   3.749   5.895  10.103  0.1020  0.6858  0.5086
  345MOL0     N45425   3.774   5.987  10.215 -0.0310 -0.1879 -0.1488
  345MOL0     C45426   3.681   6.062  10.285  0.0705  0.0057  0.3897
  345MOL0     C45427   3.759   6.145  10.366  0.2541  1.4946 -0.3316
  345MOL0     C45428   3.695   6.252  10.452 -0.1610 -0.0321 -0.5313
  345MOL0     C45429   3.545   6.225  10.474  0.3912 -0.3493  0.3500
  345MOL0     C45430   3.496   6.329  10.578 -0.5778 -0.5121 -0.1288
  345MOL0     C45431   3.341   6.338  10.595 -0.8730  0.8131 -0.0194
  345MOL0     O45432   3.309   6.223  10.676 -0.1728 -0.5699  0.5031
  345MOL0     C45433   3.175   6.221  10.725  0.1013  0.4321  1.1117
  345MOL0     C45434   3.140   6.300  10.830  0.8106  0.3100 -0.7776
  345MOL0     C45435   3.000   6.313  10.862  0.2010 -1.0668  0.8303
  345MOL0     C45436   2.905   6.254  10.773  0.6003  0.9854  0.5606
  345MOL0     C45437   2.758   6.279  10.799 -0.0136  0.5523  1.2173
  345MOL0     O45438   2.723   6.410  10.829 -0.0314  0.4740  0.3086
  345MOL0     C45439   2.589   6.431  10.861 -0.4651 -0.8118  0.4140
  345MOL0     C45440   2.522   6.545  10.800  0.4811  0.7522  0.1037
  345MOL0     C45441   2.382   6.571  10.837 -0.7443 -0.1144  0.4316
  345MOL0     C45442   2.323   6.483  10.941 -0.3905  0.3440 -0.6066
  345MOL0     O45443   2.198   6.503  11.002  0.3358  0.4287 -0.3514
  345MOL0     C45444   2.141   6.633  10.979  0.4713  0.2541  0.3694
  345MOL0     C45445   2.035   6.651  11.085  0.1432  0.3199  0.3673
  345MOL0     C45446   1.936   6.527  11.072 -0.6224  0.3941 -0.7047
  345MOL0     C45447   1.812   6.531  11.167  0.0373  0.0402 -0.3098
  345MOL0     C45448   1.708   6.431  11.128  1.0650  0.1144 -0.3640
  345MOL0     C45449   1.586   6.432  11.221  0.5449  0.5033  0.4411
  345MOL0     C45450   1.448   6.402  11.147 -0.0919  0.0631  0.7575
  345MOL0     C45451   1.358   6.521  11.119  0.5400 -0.5691  0.3899
  345MOL0    Cl45452   1.440   6.655  11.027  0.6435  0.6153  0.1894
  345MOL0     C45453   2.397   6.375  10.987  0.3977  0.2432 -0.4149
  345MOL0     C45454   2.524   6.350  10.950 -1.0463 -0.1933 -0.0177
  345MOL0     O45455   2.680   6.196  10.756 -0.2185 -0.3361 -0.1786
  345MOL0     C45456   2.952   6.184  10.662 -0.5854 -0.7495 -0.0629
  345MOL0     C45457   3.087   6.161  10.631  0.6032 -0.8444 -0.3850
  345MOL0     N45458   3.890   6.105  10.346 -0.2670 -0.6456  0.3775
  345MOL0     N45459   3.897   6.013  10.268 -0.1621 -0.3762  0.2213
  345MOL0     C45460   2.915   5.796   9.724  0.1695  0.5397 -0.0814
  345MOL0     C45461   2.822   5.823   9.627 -0.5264 -0.6287 -0.1159
  345MOL0     C45462   2.432   5.699   9.380 -0.3349  0.7287  0.0135
  345MOL0     C45463   2.357   5.651   9.272  0.0173  0.0463 -0.3640
  345MOL0     C45464   2.214   5.666   9.267 -0.5911 -0.0100  0.3942
  345MOL0     C45465   2.154   5.752   9.356  0.4232  0.1192 -0.5622
  345MOL0     O45466   2.017   5.775   9.342 -0.1812 -0.3760 -0.0286
  345MOL0     C45467   1.999   5.865   9.229  0.3722 -0.1671 -0.4752
  345MOL0     C45468   1.858   5.916   9.242 -0.2292 -0.2023  0.1908
  345MOL0     C45469   1.769   5.813   9.185  0.3422 -0.3808  0.6844
  345MOL0     C45470   1.626   5.876   9.174 -1.1124  0.5531 -0.8364
  345MOL0     C45471   1.529   5.777   9.143  0.7349  0.4270  1.2744
  345MOL0     C45472   1.452   5.702   9.092  0.3291  0.5201 -0.1303
  345MOL0     C45473   2.222   5.796   9.466  0.5948 -0.0112 -1.7485
  345MOL0     C45474   2.355   5.762   9.483 -0.8917 -1.3011 -0.2823
  345MOL0     H45475   2.749   5.513   9.522 -2.9287  2.2809  0.7420
  345MOL0     H45476   2.936   5.456   9.662 -0.8761 -0.5325  0.0202
  345MOL0     H45477   2.966   5.570  10.010 -1.6781  1.6742 -0.2770
  345MOL0     H45478   2.927   5.724   9.970 -0.5099 -0.4215 -0.9126
  345MOL0     H45479   3.086   5.686  10.157 -0.4349 -0.1025 -0.0885
  345MOL0     H45480   3.162   5.791  10.046 -1.4687  1.4239  0.7683
  345MOL0     H45481   3.221   5.535   9.948  0.4415  2.7077 -1.9730
  345MOL0     H45482   3.209   5.516  10.124  4.2211  0.0509 -0.2241
  345MOL0     H45483   3.361   5.697  10.164 -0.7755 -3.1239  3.1432
  345MOL0     H45484   3.430   5.545  10.109  2.0332  0.5711 -2.1496
  345MOL0     H45485   3.395   5.776   9.934  1.2600 -0.1371 -1.9442
  345MOL0     H45486   3.442   5.624   9.878  3.5061 -0.4615  0.3141
  345MOL0     H45487   3.661   5.735   9.921  2.2655  2.3610  2.2591
  345MOL0     H45488   3.632   5.616  10.048 -0.2713 -1.2246 -0.8473
  345MOL0     H45489   3.537   5.909  10.063 -2.6236 -1.4953  0.5585
  345MOL0     H45490   3.573   5.810  10.202  0.4408  1.2570 -0.0034
  345MOL0     H45491   3.779   5.943  10.009  1.1187  0.3052  0.6213
  345MOL0     H45492   3.813   5.806  10.113 -1.1444 -0.0500  2.5013
  345MOL0     H45493   3.574   6.057  10.267  0.1360  2.2831 -0.9808
  345MOL0     H45494   3.715   6.335  10.383  2.6080 -1.9051 -2.1442
  345MOL0     H45495   3.750   6.266  10.546 -1.0732 -1.9135  0.3296
  345MOL0     H45496   3.535   6.124  10.515  2.9246 -0.8169 -0.0346
  345MOL0     H45497   3.486   6.232  10.382  0.0342  0.8989  0.6561
  345MOL0     H45498   3.552   6.327  10.672  0.0524 -0.5852 -0.5049
  345MOL0     H45499   3.527   6.423  10.531 -2.0471  1.0164  1.7560
  345MOL0     H45500   3.292   6.331  10.498 -0.2386  1.1281 -0.3706
  345MOL0     H45501   3.322   6.432  10.648  0.1476  1.9404 -1.5742
  345MOL0     H45502   3.221   6.332  10.895  0.4859 -0.0051 -0.2098
  345MOL0     H45503   2.975   6.379  10.945  1.0754 -2.9280  2.6380
  345MOL0     H45504   2.569   6.606  10.724  3.2533  1.2702  2.0860
  345MOL0     H45505   2.321   6.658  10.813 -1.4608 -0.3317  1.4244
  345MOL0     H45506   2.087   6.643  10.884 -3.0117  1.4294  2.2775
  345MOL0     H45507   2.216   6.711  10.990  1.5009 -0.8111  1.2332
  345MOL0     H45508   1.990   6.749  11.071  0.2809  0.5803  1.6053
  345MOL0     H45509   2.079   6.660  11.185  0.6797  2.2423 -0.0174
  345MOL0     H45510   1.982   6.429  11.091  1.2953  1.0784 -1.5889
  345MOL0     H45511   1.907   6.526  10.967  2.0561  2.4375 -1.5651
  345MOL0     H45512   1.845   6.511  11.269  1.5086  1.0184 -0.5740
  345MOL0     H45513   1.784   6.635  11.153 -3.4844 -0.6260  0.8603
  345MOL0     H45514   1.745   6.329  11.121 -0.0153 -0.4462  1.3334
  345MOL0     H45515   1.682   6.460  11.026  2.8005 -0.9211 -1.1464
  345MOL0     H45516   1.576   6.528  11.273  3.1288  0.5229  1.0487
  345MOL0     H45517   1.598   6.362  11.305  5.4508  0.4248 -0.0354
  345MOL0     H45518   1.449   6.358  11.047 -2.5148 -2.6458  1.7953
  345MOL0     H45519   1.385   6.329  11.199 -2.7557  3.2040  2.3207
  345MOL0     H45520   1.322   6.549  11.218  2.0222 -2.3264  1.5005
  345MOL0     H45521   1.282   6.479  11.053  3.4565  0.6387 -4.1805
  345MOL0     H45522   2.341   6.310  11.053  0.4877 -1.4041 -1.8780
  345MOL0     H45523   2.577   6.273  11.006  0.9338  1.4529  0.5046
  345MOL0     H45524   2.873   6.133  10.608  0.6704 -2.9931  0.0754
  345MOL0     H45525   3.114   6.096  10.548  2.1202 -1.6498  0.6857
  345MOL0     H45526   2.959   5.865   9.796  0.7630 -1.3777  1.4669
  345MOL0     H45527   2.795   5.927   9.609 -1.4849 -1.1483 -1.9355
  345MOL0     H45528   2.411   5.592   9.199 -1.4006 -1.7241 -0.0562
  345MOL0     H45529   2.159   5.628   9.182  0.5579 -0.6156 -0.1089
  345MOL0     H45530   2.021   5.810   9.137  0.2697  1.5191 -1.5400
  345MOL0     H45531   2.071   5.947   9.224  1.2957 -0.4927  3.7755
  345MOL0     H45532   1.832   5.934   9.346 -0.2546 -3.0909  0.7495
  345MOL0     H45533   1.859   6.009   9.184 -0.0665 -0.3203  0.0033
  345MOL0     H45534   1.765   5.725   9.250 -0.1786  0.4666  1.8332
  345MOL0     H45535   1.796   5.780   9.084  0.9234  0.3447  0.5962
  345MOL0     H45536   1.598   5.921   9.270  3.0317  0.6657  0.5037
  345MOL0     H45537   1.612   5.951   9.096 -2.4455  1.3531  0.1225
  345MOL0     H45538   1.401   5.620   9.047  3.2191 -0.2881 -2.2168
  345MOL0     H45539   2.170   5.852   9.544 -0.3202 -4.1096  0.9197
  345MOL0     H45540   2.409   5.813   9.562  0.0512 -1.1349 -1.0097
  346MOL0     O45541   8.053   9.546   2.582 -0.2600  0.1438 -0.2508
  346MOL0     C45542   7.943   9.528   2.527 -0.2414  0.1720  0.2920
  346MOL0     O45543   7.898   9.410   2.475  0.1779  0.0144 -0.1575
  346MOL0     C45544   7.950   9.281   2.506 -0.6650 -1.0722 -0.9336
  346MOL0     C45545   8.069   9.232   2.439 -0.2248  0.2238  0.4963
  346MOL0     C45546   8.125   9.109   2.473  0.4705 -0.4467  1.3192
  346MOL0     C45547   8.063   9.035   2.579  0.9020  0.2231  0.1670
  346MOL0     O45548   8.102   8.911   2.626  0.6784 -0.0024 -0.4778
  346MOL0     C45549   8.223   8.860   2.580 -0.6454 -0.4542  0.0298
  346MOL0     C45550   8.224   8.701   2.618 -0.5948 -0.0547 -0.7347
  346MOL0     C45551   8.203   8.614   2.499  0.2095  0.8303 -0.1921
  346MOL0     C45552   8.197   8.457   2.529 -1.0780  0.1057  0.6218
  346MOL0     C45553   8.138   8.408   2.656  0.0488 -0.6838 -0.0876
  346MOL0     C45554   7.987   8.439   2.673 -0.2278 -0.5966 -0.1596
  346MOL0     C45555   7.922   8.370   2.793 -0.0470  0.5576 -0.6283
  346MOL0     C45556   7.975   8.420   2.932  0.1409  0.3913  0.1598
  346MOL0     N45557   7.991   8.561   2.944 -0.1621 -0.6157  0.7588
  346MOL0     C45558   8.098   8.625   2.993 -0.3383  1.2390 -0.0245
  346MOL0     C45559   8.071   8.757   3.004 -0.1904  0.2604 -0.1610
  346MOL0     C45560   8.167   8.859   3.055  1.0513  0.2054 -0.1412
  346MOL0     C45561   8.115   8.957   3.170 -0.5181 -0.1830  0.2436
  346MOL0     C45562   7.999   9.036   3.134  0.6100 -0.0672 -0.3310
  346MOL0     C45563   7.989   9.152   3.230  0.4055 -0.0880  0.2312
  346MOL0     O45564   8.015   9.112   3.365  1.1315 -0.2629 -0.1817
  346MOL0     C45565   7.920   9.037   3.435 -0.2387  0.2691 -0.5055
  346MOL0     C45566   7.952   9.002   3.570 -1.0169 -0.6814 -0.5989
  346MOL0     C45567   7.865   8.931   3.642  0.8899  1.1023 -0.4647
  346MOL0     C45568   7.739   8.891   3.606 -0.2025  0.5450  0.6175
  346MOL0     C45569   7.657   8.801   3.693 -0.0604 -0.2216  0.1806
  346MOL0     O45570   7.567   8.723   3.626  0.0378 -0.6902 -0.1924
  346MOL0     C45571   7.507   8.629   3.706  1.3131  0.9537 -0.0861
  346MOL0     C45572   7.375   8.647   3.773  0.2149 -0.3292 -0.2306
  346MOL0     C45573   7.304   8.540   3.831 -0.2665  0.5291  0.4235
  346MOL0     C45574   7.349   8.411   3.808 -0.1680  0.1330 -1.0713
  346MOL0     O45575   7.270   8.317   3.867 -0.5380  0.4784 -0.3999
  346MOL0     C45576   7.282   8.173   3.835 -0.0530  0.7485 -0.3269
  346MOL0     C45577   7.143   8.092   3.844 -0.4754 -0.2817  0.3367
  346MOL0     C45578   7.108   8.085   3.989 -0.1052  0.2559 -0.4384
  346MOL0     C45579   6.966   8.035   4.025  0.0693 -0.4982  0.6650
  346MOL0     C45580   6.878   8.114   4.116  0.2130  0.5543  0.5285
  346MOL0     C45581   6.925   8.126   4.260  0.6604  0.9321 -0.3853
  346MOL0     C45582   6.792   8.151   4.345 -0.5360  0.8995  0.5626
  346MOL0     C45583   6.829   8.172   4.491  0.6977 -0.6485  0.4205
  346MOL0    Cl45584   6.906   8.337   4.500  0.4424 -0.2702 -0.1448
  346MOL0     C45585   7.478   8.386   3.755 -1.0948 -0.3797  0.4087
  346MOL0     C45586   7.550   8.498   3.701  0.6865 -0.1620 -0.6516
  346MOL0     O45587   7.679   8.797   3.814 -0.3256 -0.1067 -1.3311
  346MOL0     C45588   7.695   8.933   3.474  0.0565 -0.6715 -0.4099
  346MOL0     C45589   7.790   9.005   3.389  0.2261  0.5536  0.3057
  346MOL0     N45590   7.942   8.772   2.955 -0.2346  0.1793  0.1493
  346MOL0     N45591   7.900   8.656   2.912  0.2111 -0.0356 -0.0521
  346MOL0     C45592   7.950   9.085   2.643 -0.8629 -0.2329 -0.5700
  346MOL0     C45593   7.893   9.204   2.613  1.0387  0.0625 -1.4403
  346MOL0     C45594   7.859   9.654   2.495  0.3043  0.5257 -0.5561
  346MOL0     C45595   7.909   9.780   2.524 -0.0981  0.0863 -0.1104
  346MOL0     C45596   7.830   9.889   2.499 -0.1578  0.6418 -0.7142
  346MOL0     C45597   7.705   9.885   2.442  0.4948  0.0158 -0.2942
  346MOL0     O45598   7.649  10.005   2.408 -0.1281  0.7851 -0.7037
  346MOL0     C45599   7.515   9.993   2.369  1.4955  0.6987 -0.5746
  346MOL0     C45600   7.420   9.977   2.488 -0.3465  0.2211 -1.3335
  346MOL0     C45601   7.277   9.960   2.446 -0.3504 -0.0924 -0.4822
  346MOL0     C45602   7.165   9.977   2.539 -0.1408 -0.0231 -0.3740
  346MOL0     C45603   7.192   9.950   2.682  0.7892 -1.0752 -0.0755
  346MOL0     C45604   7.199   9.928   2.800 -2.5527  0.6962  0.4029
  346MOL0     C45605   7.647   9.756   2.414 -1.3184 -0.0988 -0.2447
  346MOL0     C45606   7.728   9.642   2.445  0.9015 -0.9530  0.0675
  346MOL0     H45607   8.122   9.286   2.360  4.0098 -2.2365  1.3711
  346MOL0     H45608   8.210   9.067   2.421  1.3225  0.8543  1.6163
  346MOL0     H45609   8.305   8.909   2.634 -2.0707  0.3372  1.5704
  346MOL0     H45610   8.236   8.880   2.473 -0.8406  3.4354  0.5806
  346MOL0     H45611   8.142   8.675   2.686 -0.6113 -0.9492 -1.0858
  346MOL0     H45612   8.318   8.670   2.664 -1.7165 -1.8579  0.4775
  346MOL0     H45613   8.283   8.624   2.424  1.3094  1.8104  1.0703
  346MOL0     H45614   8.107   8.649   2.458 -0.6762  1.3399  2.1716
  346MOL0     H45615   8.140   8.412   2.448 -0.2893 -0.8499  0.5796
  346MOL0     H45616   8.302   8.432   2.512 -0.2727  2.7412  1.1991
  346MOL0     H45617   8.196   8.459   2.734 -1.1754  0.1479  0.2974
  346MOL0     H45618   8.166   8.302   2.663  2.1047 -0.1094  1.6384
  346MOL0     H45619   7.933   8.406   2.584 -1.6023 -1.9255  1.1157
  346MOL0     H45620   7.955   8.544   2.675 -0.7531 -0.6797 -1.9763
  346MOL0     H45621   7.814   8.383   2.787  0.0040  0.9559 -0.7295
  346MOL0     H45622   7.938   8.262   2.782 -2.1667  0.1118  0.1832
  346MOL0     H45623   8.067   8.369   2.961  1.6429  2.8400 -0.0499
  346MOL0     H45624   7.914   8.396   3.020 -0.2587 -1.0019 -0.4668
  346MOL0     H45625   8.191   8.585   3.032 -2.4760 -2.2186  2.1851
  346MOL0     H45626   8.202   8.914   2.967  1.1276 -1.2839 -1.0776
  346MOL0     H45627   8.247   8.797   3.097  0.1921 -0.5019  0.4888
  346MOL0     H45628   8.197   9.026   3.191 -0.7394  0.4226 -0.8141
  346MOL0     H45629   8.082   8.892   3.253  0.7510 -0.9022  0.2124
  346MOL0     H45630   8.009   9.085   3.037 -3.3943  2.0946  0.1247
  346MOL0     H45631   7.909   8.973   3.134  0.0714  0.6922 -0.3682
  346MOL0     H45632   7.889   9.191   3.206  0.8621  0.0720 -1.5355
  346MOL0     H45633   8.061   9.228   3.201 -0.9200  0.1955 -2.6587
  346MOL0     H45634   8.047   9.029   3.615 -1.7264 -1.1026  1.2456
  346MOL0     H45635   7.910   8.909   3.738  0.5910 -0.3805 -0.6465
  346MOL0     H45636   7.338   8.749   3.776 -0.0200 -0.4245  0.1734
  346MOL0     H45637   7.216   8.572   3.886  0.5527  3.6428  0.1248
  346MOL0     H45638   7.345   8.119   3.905  1.7400  1.2635 -1.4838
  346MOL0     H45639   7.330   8.160   3.737  0.6449  1.4874 -0.0891
  346MOL0     H45640   7.159   7.993   3.800 -0.4543 -0.0243 -0.2449
  346MOL0     H45641   7.057   8.133   3.790 -1.9824 -3.7864 -0.2005
  346MOL0     H45642   7.131   8.180   4.040 -2.4211 -0.0230  1.2955
  346MOL0     H45643   7.171   8.011   4.040 -1.6159  0.7488  2.3958
  346MOL0     H45644   6.915   8.032   3.929  2.2074  1.7740 -0.6441
  346MOL0     H45645   6.964   7.938   4.076 -5.7007 -0.0047  2.0432
  346MOL0     H45646   6.778   8.069   4.110 -0.2390  1.1776  2.4244
  346MOL0     H45647   6.873   8.219   4.084  0.3086  1.0964  2.1914
  346MOL0     H45648   6.998   8.207   4.275  1.6707 -0.0543  0.1747
  346MOL0     H45649   6.962   8.026   4.285 -2.6237 -0.3978 -0.4125
  346MOL0     H45650   6.727   8.229   4.305 -0.8563  1.7312  2.5659
  346MOL0     H45651   6.728   8.062   4.338  1.0266 -0.1092 -3.5068
  346MOL0     H45652   6.904   8.101   4.527 -0.5763 -2.2962 -0.0081
  346MOL0     H45653   6.733   8.168   4.543 -2.4416  3.0063 -4.2833
  346MOL0     H45654   7.513   8.288   3.724  2.5855  1.7362 -3.1938
  346MOL0     H45655   7.640   8.485   3.643  0.3404  0.2141 -1.2909
  346MOL0     H45656   7.600   8.904   3.430 -0.3689  1.0606 -0.7019
  346MOL0     H45657   7.758   9.019   3.286  0.7771 -2.5485 -0.3910
  346MOL0     H45658   7.907   9.023   2.720 -2.9525  0.1887 -1.3128
  346MOL0     H45659   7.808   9.242   2.669  0.0923 -3.4829 -0.2280
  346MOL0     H45660   8.005   9.790   2.573  1.1180 -1.2982 -2.0601
  346MOL0     H45661   7.871   9.985   2.529  0.1171 -0.1880  1.7483
  346MOL0     H45662   7.498   9.914   2.295 -2.0013  0.7258  0.0020
  346MOL0     H45663   7.495  10.084   2.311 -0.9362  0.9309  0.4833
  346MOL0     H45664   7.451   9.889   2.545 -2.3766 -0.8078 -1.7326
  346MOL0     H45665   7.435  10.065   2.551  1.3847 -2.7431  2.9163
  346MOL0     H45666   7.273   9.861   2.399 -3.8208  0.2627 -1.2067
  346MOL0     H45667   7.258  10.023   2.359  0.9783 -1.2637 -1.6783
  346MOL0     H45668   7.110  10.070   2.521  0.0357 -0.0018 -0.8124
  346MOL0     H45669   7.087   9.905   2.512 -2.6627  1.7270  1.7157
  346MOL0     H45670   7.204   9.918   2.907  1.2611 -2.5630  0.1693
  346MOL0     H45671   7.542   9.751   2.390 -1.4640  2.8704 -0.5871
  346MOL0     H45672   7.676   9.547   2.439  0.9921 -1.1421  1.6708
  347MOL0     O45673   3.667   6.979   6.582  0.1633  0.5638 -1.0140
  347MOL0     C45674   3.593   7.043   6.506 -0.4169  0.1683  0.3633
  347MOL0     O45675   3.537   7.158   6.535 -0.2895  0.0492  0.2242
  347MOL0     C45676   3.598   7.233   6.639 -0.0296  0.1374  0.0323
  347MOL0     C45677   3.549   7.231   6.776  0.1665 -0.5538  0.0248
  347MOL0     C45678   3.607   7.306   6.876 -0.6779  0.0381  0.0639
  347MOL0     C45679   3.726   7.371   6.855 -0.4144 -0.8761 -0.2903
  347MOL0     O45680   3.810   7.414   6.948  0.2846 -0.7217 -0.4138
  347MOL0     C45681   3.797   7.380   7.088  0.0522  0.4784 -0.3353
  347MOL0     C45682   3.905   7.283   7.128  0.0736  0.0853 -0.2509
  347MOL0     C45683   3.915   7.234   7.277  0.4459  0.1849  0.1295
  347MOL0     C45684   3.951   7.350   7.370 -0.2797  0.5729 -0.9593
  347MOL0     C45685   3.969   7.327   7.517  0.1524 -0.0908 -0.4996
  347MOL0     C45686   3.846   7.343   7.607  0.5265 -0.0244  1.0410
  347MOL0     C45687   3.811   7.490   7.636  0.8624 -0.2117  0.2261
  347MOL0     C45688   3.687   7.510   7.725 -0.8537 -0.2649  0.1476
  347MOL0     N45689   3.702   7.476   7.864 -0.5138 -0.1915 -0.4809
  347MOL0     C45690   3.768   7.552   7.956  0.4804  0.2503  0.3900
  347MOL0     C45691   3.719   7.496   8.074 -0.7544  0.3013 -1.1976
  347MOL0     C45692   3.752   7.547   8.218  0.0395 -0.0777  0.1431
  347MOL0     C45693   3.632   7.615   8.281  0.3352  0.0520  0.0152
  347MOL0     C45694   3.609   7.754   8.222 -0.4214 -0.6846 -0.2876
  347MOL0     C45695   3.737   7.849   8.216 -0.5846 -0.1458 -0.5680
  347MOL0     O45696   3.803   7.882   8.340 -0.5967  0.1153  0.6454
  347MOL0     C45697   3.855   8.004   8.361  0.2713 -0.1929  0.1681
  347MOL0     C45698   3.960   8.052   8.287  0.2343 -0.9422  0.3469
  347MOL0     C45699   4.036   8.166   8.327 -0.0894  0.0442 -0.1776
  347MOL0     C45700   3.991   8.241   8.438 -0.2456  0.1292 -0.0079
  347MOL0     C45701   4.081   8.344   8.481 -1.3457 -1.1983 -0.5108
  347MOL0     O45702   4.190   8.385   8.404 -0.6348 -0.6177  0.1219
  347MOL0     C45703   4.255   8.497   8.448 -0.4698 -0.5132  0.5918
  347MOL0     C45704   4.257   8.609   8.371  0.1053  0.0996  0.0089
  347MOL0     C45705   4.347   8.722   8.390  0.9025  0.3427 -0.6045
  347MOL0     C45706   4.443   8.713   8.487  0.3119  0.5211  0.1643
  347MOL0     O45707   4.548   8.798   8.498 -0.1428  0.0481  0.0586
  347MOL0     C45708   4.668   8.760   8.424  0.7415 -0.3342 -0.5147
  347MOL0     C45709   4.665   8.802   8.279  1.0152 -0.3567 -0.2677
  347MOL0     C45710   4.781   8.745   8.205  0.1263  0.3636  1.0257
  347MOL0     C45711   4.784   8.785   8.053  0.9819 -0.2632  0.3781
  347MOL0     C45712   4.909   8.727   7.982  0.3242  0.5288 -0.2176
  347MOL0     C45713   5.038   8.784   8.033 -0.7742 -0.0598  0.2859
  347MOL0     C45714   5.163   8.729   7.953 -0.4140 -0.4010  0.6302
  347MOL0     C45715   5.171   8.819   7.828  0.3987 -0.5460  0.4809
  347MOL0    Cl45716   5.337   8.799   7.751  0.6121  0.6311 -0.2734
  347MOL0     C45717   4.410   8.629   8.589 -0.7023 -0.4409 -0.8687
  347MOL0     C45718   4.316   8.521   8.571 -0.2692 -1.2119 -0.0596
  347MOL0     O45719   4.039   8.398   8.584  0.6385  0.2040  0.4174
  347MOL0     C45720   3.880   8.194   8.510  0.0162  0.0014  0.0028
  347MOL0     C45721   3.803   8.079   8.465 -0.8564  0.0309  0.0914
  347MOL0     N45722   3.641   7.379   8.046 -0.4721 -0.0752 -0.4521
  347MOL0     N45723   3.638   7.374   7.922  0.6495 -0.5071 -0.3436
  347MOL0     C45724   3.754   7.398   6.719 -0.4064 -0.2839  0.7335
  347MOL0     C45725   3.702   7.324   6.613 -0.0004 -0.1675 -0.1002
  347MOL0     C45726   3.560   6.969   6.384  0.5873 -0.1569 -0.0863
  347MOL0     C45727   3.460   7.013   6.295 -0.2805  0.9145 -0.8460
  347MOL0     C45728   3.408   6.917   6.206 -0.3214 -0.4125  0.6445
  347MOL0     C45729   3.489   6.810   6.167 -0.8570  0.1722  0.7017
  347MOL0     O45730   3.462   6.727   6.064 -0.1994 -0.4339 -0.3786
  347MOL0     C45731   3.457   6.798   5.938 -0.0745  0.9499 -0.1072
  347MOL0     C45732   3.395   6.693   5.835 -0.0120  0.3956 -0.0431
  347MOL0     C45733   3.497   6.579   5.798 -0.2565 -0.0595 -0.1498
  347MOL0     C45734   3.591   6.595   5.674 -0.7070  0.0544  0.1666
  347MOL0     C45735   3.613   6.459   5.631 -1.2592 -0.1371 -0.2146
  347MOL0     C45736   3.659   6.358   5.593 -0.6690  0.3035 -0.1455
  347MOL0     C45737   3.602   6.783   6.236 -0.1305  0.3796 -0.2889
  347MOL0     C45738   3.634   6.847   6.358  0.4015 -1.2034  0.0483
  347MOL0     H45739   3.466   7.163   6.793  0.4610 -1.2198 -1.1197
  347MOL0     H45740   3.567   7.290   6.976 -0.6358 -1.3631 -0.1369
  347MOL0     H45741   3.693   7.358   7.115 -0.3466  0.2674 -1.9304
  347MOL0     H45742   3.815   7.470   7.147 -2.3810  2.5553 -2.5491
  347MOL0     H45743   3.992   7.333   7.086  0.5484 -2.3316 -2.4155
  347MOL0     H45744   3.895   7.183   7.083 -0.2342  0.0001 -0.0021
  347MOL0     H45745   3.984   7.149   7.280  1.4034  0.9654  0.2954
  347MOL0     H45746   3.808   7.214   7.290 -0.0873  2.7845  0.3074
  347MOL0     H45747   4.045   7.392   7.332  1.2421 -2.2813 -0.6032
  347MOL0     H45748   3.869   7.420   7.350 -1.8852 -1.1306 -0.5083
  347MOL0     H45749   4.039   7.398   7.562 -0.1503  1.5104 -2.3928
  347MOL0     H45750   3.998   7.222   7.531  3.1965  0.5841 -0.9139
  347MOL0     H45751   3.873   7.301   7.704  1.2937  0.9910  1.2747
  347MOL0     H45752   3.757   7.300   7.560  1.0159 -0.2702  0.3157
  347MOL0     H45753   3.889   7.555   7.677  2.0121 -1.9426  0.9459
  347MOL0     H45754   3.784   7.520   7.535  0.0352  0.7509  0.7170
  347MOL0     H45755   3.602   7.449   7.690 -1.7693  1.9555 -1.7653
  347MOL0     H45756   3.658   7.616   7.719 -0.3953 -0.0865  1.0108
  347MOL0     H45757   3.846   7.627   7.944  3.3896 -2.6295 -0.0899
  347MOL0     H45758   3.844   7.605   8.212 -1.9538  3.2610 -1.0172
  347MOL0     H45759   3.781   7.461   8.278 -2.0206 -1.7234 -1.0868
  347MOL0     H45760   3.642   7.621   8.389  0.7981  0.9342 -0.0644
  347MOL0     H45761   3.551   7.543   8.270  1.3306 -1.8081  3.5343
  347MOL0     H45762   3.567   7.742   8.121 -0.2769  0.1743 -0.4621
  347MOL0     H45763   3.532   7.810   8.276  0.4813 -2.0254  2.5887
  347MOL0     H45764   3.709   7.943   8.167  0.6546 -0.1830 -1.3809
  347MOL0     H45765   3.805   7.822   8.134  1.9693  3.5875  0.0344
  347MOL0     H45766   3.996   7.987   8.208 -2.1497 -0.5387 -1.1603
  347MOL0     H45767   4.122   8.206   8.274  1.1526  0.4012  2.0014
  347MOL0     H45768   4.202   8.618   8.277  1.2376  0.0933 -0.6751
  347MOL0     H45769   4.350   8.810   8.327 -3.5719  1.2264  0.0942
  347MOL0     H45770   4.673   8.652   8.433 -2.4474 -0.4192  1.4038
  347MOL0     H45771   4.756   8.813   8.463  0.0759  1.8321 -1.7851
  347MOL0     H45772   4.666   8.912   8.277  1.0222 -0.0290  4.6593
  347MOL0     H45773   4.565   8.780   8.243  0.8552 -1.0256  0.5603
  347MOL0     H45774   4.782   8.635   8.205  1.5266  0.2977 -1.5443
  347MOL0     H45775   4.873   8.774   8.255  2.1960 -0.9598 -1.7424
  347MOL0     H45776   4.702   8.744   7.992  1.6707  1.0688 -1.5198
  347MOL0     H45777   4.770   8.892   8.038 -2.1839 -0.5766  0.3098
  347MOL0     H45778   4.897   8.740   7.874 -2.9343  2.8292  0.2821
  347MOL0     H45779   4.905   8.618   7.994 -1.0465  0.6055  0.1436
  347MOL0     H45780   5.058   8.758   8.137  1.3107 -2.1954 -0.5661
  347MOL0     H45781   5.036   8.894   8.033  0.8272  0.0075 -1.0956
  347MOL0     H45782   5.256   8.746   8.008  0.2388 -0.3231 -0.4490
  347MOL0     H45783   5.152   8.623   7.931  1.1107 -0.5994  0.6949
  347MOL0     H45784   5.165   8.928   7.842  3.3528  0.2576 -2.9732
  347MOL0     H45785   5.096   8.797   7.752  0.0752  1.9424 -0.0242
  347MOL0     H45786   4.447   8.633   8.690 -4.3114  1.0711  0.5906
  347MOL0     H45787   4.299   8.449   8.651 -0.4268 -1.0574  0.0471
  347MOL0     H45788   3.858   8.243   8.604 -1.3606  1.6043 -1.1027
  347MOL0     H45789   3.717   8.050   8.524 -0.7324 -0.5996 -0.0330
  347MOL0     H45790   3.836   7.467   6.699 -0.8832 -0.1279 -0.7791
  347MOL0     H45791   3.727   7.339   6.509  1.1578  1.5520  0.3815
  347MOL0     H45792   3.412   7.105   6.329 -2.0362  1.0355 -3.4159
  347MOL0     H45793   3.314   6.935   6.156  0.3154  2.1075  0.2069
  347MOL0     H45794   3.557   6.831   5.908  1.2789 -2.0563  0.7219
  347MOL0     H45795   3.391   6.885   5.938  0.7660  1.6276  1.1892
  347MOL0     H45796   3.310   6.646   5.885 -1.1596  0.6055 -1.7120
  347MOL0     H45797   3.361   6.734   5.739  1.8321  1.2612 -0.3879
  347MOL0     H45798   3.430   6.492   5.789  0.4093 -0.4327 -1.7633
  347MOL0     H45799   3.564   6.566   5.883  0.2676 -3.0002 -0.9036
  347MOL0     H45800   3.557   6.664   5.596  2.1665  1.2747 -0.1096
  347MOL0     H45801   3.684   6.646   5.701 -0.9564  1.9554 -2.1567
  347MOL0     H45802   3.696   6.260   5.567  1.0775  0.1014  2.6158
  347MOL0     H45803   3.661   6.701   6.196 -0.0111  0.0967  0.4619
  347MOL0     H45804   3.721   6.818   6.417  2.4301  3.8398  0.1095
  348MOL0     O45805   7.758   0.338   9.002 -0.1170 -0.4747 -0.0761
  348MOL0     C45806   7.696   0.313   8.897  0.4785 -0.9353 -0.2540
  348MOL0     O45807   7.629   0.202   8.870  0.6195 -0.0729 -0.3244
  348MOL0     C45808   7.632   0.097   8.965 -0.0966  0.1146 -0.7285
  348MOL0     C45809   7.700  -0.018   8.919  1.2717 -0.0828  0.3577
  348MOL0     C45810   7.707  -0.126   9.004  0.5182  0.2199  0.0933
  348MOL0     C45811   7.670  -0.118   9.143 -0.0164 -0.7226 -0.5124
  348MOL0     O45812   7.701  -0.210   9.236  0.5305  0.0569 -0.2413
  348MOL0     C45813   7.794  -0.315   9.205 -0.7154  0.2330  0.5858
  348MOL0     C45814   7.822  -0.369   9.339  0.1305 -0.2487 -0.5326
  348MOL0     C45815   7.902  -0.503   9.330 -0.2494 -0.6280  0.4313
  348MOL0     C45816   7.986  -0.540   9.460 -0.7468  0.6354  0.1047
  348MOL0     C45817   7.961  -0.683   9.514  0.2389 -0.4598 -0.5349
  348MOL0     C45818   7.994  -0.790   9.409  0.6018  0.1790 -0.4260
  348MOL0     C45819   7.947  -0.928   9.430 -0.1972  0.7308 -0.3497
  348MOL0     C45820   7.797  -0.955   9.386 -0.2396 -0.1365  0.2610
  348MOL0     N45821   7.747  -1.073   9.438 -1.2604  0.1665  0.0859
  348MOL0     C45822   7.727  -1.175   9.357 -0.5563 -0.0024 -1.1599
  348MOL0     C45823   7.691  -1.269   9.449 -0.0201  0.8956  0.1221
  348MOL0     C45824   7.680  -1.406   9.408  0.3810  0.1091 -0.8970
  348MOL0     C45825   7.691  -1.520   9.510  0.4675  0.3071  0.1478
  348MOL0     C45826   7.698  -1.666   9.447 -0.5005  0.0763 -0.1170
  348MOL0     C45827   7.736  -1.768   9.565  0.9788 -0.2135  0.3007
  348MOL0     O45828   7.627  -1.782   9.657 -0.7961 -1.0404 -0.3651
  348MOL0     C45829   7.648  -1.875   9.757 -0.1962 -0.2340  0.0372
  348MOL0     C45830   7.743  -1.984   9.755  0.6149  0.0456  0.0197
  348MOL0     C45831   7.746  -2.084   9.855  0.7819  0.1364 -0.1220
  348MOL0     C45832   7.654  -2.069   9.958 -0.1409  0.2303 -0.0396
  348MOL0     C45833   7.649  -2.172  10.067 -1.5871 -0.2873 -0.2132
  348MOL0     O45834   7.541  -2.163  10.141  0.6869 -0.1933 -0.0992
  348MOL0     C45835   7.525  -2.246  10.256  0.7997 -1.1563  0.0855
  348MOL0     C45836   7.394  -2.283  10.291  0.3960  0.2813 -0.3214
  348MOL0     C45837   7.361  -2.355  10.406 -0.1832  0.4545  0.5530
  348MOL0     C45838   7.464  -2.389  10.494  0.2635 -0.0735  0.3695
  348MOL0     O45839   7.419  -2.449  10.610  0.4747 -0.1449  0.1754
  348MOL0     C45840   7.512  -2.498  10.705  0.2382 -0.1982 -0.0826
  348MOL0     C45841   7.440  -2.581  10.802  0.3529  0.4116 -1.0277
  348MOL0     C45842   7.362  -2.505  10.915 -0.0351  0.2666 -0.6959
  348MOL0     C45843   7.273  -2.607  10.990 -0.1444 -0.3562  0.4219
  348MOL0     C45844   7.231  -2.538  11.115  0.1506 -0.4382 -0.8947
  348MOL0     C45845   7.150  -2.630  11.211 -0.4378 -0.6505  0.2049
  348MOL0     C45846   7.083  -2.566  11.331 -0.4261  0.3200 -0.6231
  348MOL0     C45847   7.169  -2.485  11.426 -1.0079  0.1931 -0.4116
  348MOL0    Cl45848   7.065  -2.453  11.568 -0.0650 -0.3372  0.2651
  348MOL0     C45849   7.597  -2.338  10.476 -0.2759  0.0885 -0.2806
  348MOL0     C45850   7.623  -2.264  10.360  0.0041 -0.2771  0.2000
  348MOL0     O45851   7.741  -2.241  10.095  0.2830  0.4575  0.6704
  348MOL0     C45852   7.589  -1.952   9.971  0.4555 -1.4055  0.0687
  348MOL0     C45853   7.569  -1.856   9.872  0.4094 -0.1471  0.5262
  348MOL0     N45854   7.677  -1.223   9.576 -0.1399  0.2779  0.4882
  348MOL0     N45855   7.720  -1.100   9.571 -0.6368 -0.7734 -0.0277
  348MOL0     C45856   7.602  -0.007   9.188  0.0855 -1.0159  0.2876
  348MOL0     C45857   7.592   0.104   9.097 -0.6509 -0.4794 -1.0245
  348MOL0     C45858   7.690   0.428   8.803 -0.1644 -0.0501 -0.0299
  348MOL0     C45859   7.798   0.515   8.801 -0.5200  0.1528  0.4551
  348MOL0     C45860   7.817   0.623   8.712  0.4069  0.5987  0.0737
  348MOL0     C45861   7.708   0.643   8.616  0.5405 -1.0127  2.1846
  348MOL0     O45862   7.721   0.736   8.513  0.3316  0.7896  0.5153
  348MOL0     C45863   7.690   0.865   8.550  0.1206 -0.0848  0.3920
  348MOL0     C45864   7.599   0.925   8.434 -0.6261 -0.4535 -0.2773
  348MOL0     C45865   7.591   1.079   8.457  1.2893 -0.8515  0.2732
  348MOL0     C45866   7.712   1.160   8.413 -0.5105  0.1966 -1.8999
  348MOL0     C45867   7.668   1.306   8.440 -0.5198 -0.6309 -0.1107
  348MOL0     C45868   7.655   1.419   8.478 -0.0773 -0.2363  0.7807
  348MOL0     C45869   7.590   0.568   8.624  0.3346  0.5208  0.3582
  348MOL0     C45870   7.587   0.457   8.717 -0.1373 -0.4780  0.1064
  348MOL0     H45871   7.729  -0.020   8.815  1.5121  1.7527  0.3496
  348MOL0     H45872   7.767  -0.213   8.980  2.8275  0.5461  3.9801
  348MOL0     H45873   7.880  -0.264   9.164 -1.5848  1.9643  0.8287
  348MOL0     H45874   7.748  -0.384   9.134 -0.4778  2.4869 -1.8903
  348MOL0     H45875   7.734  -0.377   9.404  0.0392 -3.1562 -0.8955
  348MOL0     H45876   7.868  -0.293   9.402  1.3220 -0.4372 -1.1418
  348MOL0     H45877   7.968  -0.505   9.243 -2.7903  1.4667 -1.7201
  348MOL0     H45878   7.838  -0.587   9.303 -2.3072  1.0410 -0.1901
  348MOL0     H45879   8.091  -0.527   9.430 -1.0858 -0.6990 -1.8344
  348MOL0     H45880   7.967  -0.465   9.537  3.7018  4.8817 -2.3276
  348MOL0     H45881   7.855  -0.685   9.539 -0.1960 -0.0673 -2.2286
  348MOL0     H45882   8.016  -0.688   9.609  1.5032  1.4064 -1.1120
  348MOL0     H45883   8.100  -0.813   9.399  0.7432 -0.1883  1.4210
  348MOL0     H45884   7.973  -0.751   9.310  0.4049 -0.5448 -0.6770
  348MOL0     H45885   8.008  -1.009   9.389 -0.9692  1.1398 -2.4398
  348MOL0     H45886   7.954  -0.960   9.534 -2.5252 -4.9167 -1.5091
  348MOL0     H45887   7.784  -0.944   9.278 -2.9835 -0.3492  0.5030
  348MOL0     H45888   7.727  -0.881   9.426  2.0462  1.1148  2.2117
  348MOL0     H45889   7.751  -1.189   9.252  1.0682 -1.7257 -0.6127
  348MOL0     H45890   7.759  -1.421   9.333 -2.6433  1.0282 -4.6023
  348MOL0     H45891   7.589  -1.428   9.351 -1.3887  3.0719  0.5529
  348MOL0     H45892   7.599  -1.506   9.568 -1.2715 -1.5204 -1.9878
  348MOL0     H45893   7.785  -1.493   9.560 -0.1959  3.5607 -0.1421
  348MOL0     H45894   7.603  -1.684   9.396 -1.7083  2.5407  1.0977
  348MOL0     H45895   7.781  -1.672   9.375 -2.4584  2.3819 -2.7926
  348MOL0     H45896   7.824  -1.743   9.624  0.4274  0.5978  0.7963
  348MOL0     H45897   7.759  -1.863   9.516  0.4646  0.5326 -1.4947
  348MOL0     H45898   7.811  -1.999   9.672 -0.8632  1.9231 -1.6462
  348MOL0     H45899   7.808  -2.173   9.848  0.8146  0.1530 -0.0431
  348MOL0     H45900   7.312  -2.260  10.223 -0.4205  2.4748  1.2733
  348MOL0     H45901   7.258  -2.379  10.433 -1.4664  1.9656 -2.5279
  348MOL0     H45902   7.568  -2.418  10.754  1.5104 -1.5535  0.7662
  348MOL0     H45903   7.585  -2.563  10.657 -0.2036 -0.3546 -0.5521
  348MOL0     H45904   7.504  -2.654  10.854  0.7399  1.9632  0.7729
  348MOL0     H45905   7.376  -2.650  10.746  1.4672  0.7732 -2.8455
  348MOL0     H45906   7.291  -2.433  10.874 -2.7416 -1.4028  0.8062
  348MOL0     H45907   7.432  -2.447  10.976 -1.2401  0.2928  0.6971
  348MOL0     H45908   7.181  -2.625  10.932 -1.7852  0.9952  2.4516
  348MOL0     H45909   7.323  -2.700  11.017  0.8583 -0.3397 -1.2322
  348MOL0     H45910   7.165  -2.456  11.086 -2.9495 -1.8848  1.4921
  348MOL0     H45911   7.319  -2.507  11.172  0.7524 -0.2077 -1.9208
  348MOL0     H45912   7.213  -2.713  11.244 -1.2843 -0.3769  2.7352
  348MOL0     H45913   7.070  -2.680  11.156  1.4221  0.0989 -3.4897
  348MOL0     H45914   6.992  -2.508  11.314 -1.1465  0.6713  3.5417
  348MOL0     H45915   7.042  -2.642  11.398  3.1337  0.0879  1.5725
  348MOL0     H45916   7.187  -2.391  11.373 -2.0387 -1.4532 -4.0685
  348MOL0     H45917   7.264  -2.533  11.453 -0.5709  1.1029 -0.3114
  348MOL0     H45918   7.674  -2.355  10.550 -0.9445  2.1118  0.9648
  348MOL0     H45919   7.722  -2.218  10.359 -0.3430  0.9312  4.2817
  348MOL0     H45920   7.541  -1.927  10.066 -1.9132  0.8704 -1.5714
  348MOL0     H45921   7.509  -1.766   9.875 -0.2919 -0.4160 -2.6235
  348MOL0     H45922   7.572  -0.009   9.292 -0.9957 -0.8988 -0.0006
  348MOL0     H45923   7.526   0.181   9.136 -0.1319 -0.5684  0.0705
  348MOL0     H45924   7.873   0.505   8.879 -1.1220 -0.1633  0.9979
  348MOL0     H45925   7.905   0.686   8.716  1.6013 -1.0444  2.9693
  348MOL0     H45926   7.781   0.924   8.561 -0.8271  2.1232 -2.4272
  348MOL0     H45927   7.633   0.867   8.644 -0.0072 -1.9509  0.3924
  348MOL0     H45928   7.643   0.918   8.334 -1.3045  2.8035 -0.9051
  348MOL0     H45929   7.500   0.878   8.440 -2.7160  3.7119  1.9301
  348MOL0     H45930   7.558   1.102   8.559  1.3355  0.7677 -0.0433
  348MOL0     H45931   7.510   1.125   8.400  1.7253  0.4743  0.6852
  348MOL0     H45932   7.793   1.143   8.485 -2.5361 -0.5363  0.3379
  348MOL0     H45933   7.742   1.138   8.310  0.1791 -2.0549 -1.2567
  348MOL0     H45934   7.644   1.517   8.518  0.5127  0.0164  0.3481
  348MOL0     H45935   7.516   0.569   8.544 -1.9003 -2.2150  2.1822
  348MOL0     H45936   7.496   0.398   8.717 -2.9555  3.4805 -0.2185
  349MOL0     O45937   8.822   9.737   0.916  0.6336 -0.2466 -0.2365
  349MOL0     C45938   8.815   9.856   0.879 -0.0058  0.3704 -0.3051
  349MOL0     O45939   8.722   9.952   0.928 -0.4764  0.6879  0.2596
  349MOL0     C45940   8.619   9.898   1.000 -0.5991 -0.5101 -0.5135
  349MOL0     C45941   8.517   9.828   0.930 -0.5110  0.2989  0.4891
  349MOL0     C45942   8.405   9.768   0.989  0.0356  0.1928  1.0961
  349MOL0     C45943   8.393   9.775   1.131 -0.0699  0.2305 -0.1740
  349MOL0     O45944   8.280   9.717   1.191 -0.1250  0.0293  0.6038
  349MOL0     C45945   8.295   9.577   1.179  0.3819  0.9353  0.1561
  349MOL0     C45946   8.160   9.502   1.153 -0.1272  0.3174 -0.2042
  349MOL0     C45947   8.082   9.477   1.284  0.0519  0.1953  0.5497
  349MOL0     C45948   8.154   9.402   1.396  0.2117  0.4664  0.7426
  349MOL0     C45949   8.192   9.260   1.346 -1.0163 -0.5471 -0.8849
  349MOL0     C45950   8.269   9.171   1.443  0.1278 -0.4763  0.0038
  349MOL0     C45951   8.191   9.142   1.564  1.1164 -0.1148  0.7524
  349MOL0     C45952   8.278   9.079   1.675  0.2509 -0.1458 -0.1982
  349MOL0     N45953   8.300   8.935   1.655  0.3358  0.3808 -0.1572
  349MOL0     C45954   8.209   8.837   1.633  0.5662 -0.6868 -0.8044
  349MOL0     C45955   8.263   8.718   1.640 -0.4437  0.2032  0.1230
  349MOL0     C45956   8.212   8.585   1.642  0.4573 -0.0601  0.2976
  349MOL0     C45957   8.262   8.500   1.524 -0.6263 -1.3995 -0.0422
  349MOL0     C45958   8.184   8.360   1.534 -0.3058  0.9321 -1.2259
  349MOL0     C45959   8.230   8.262   1.429 -0.1515 -0.7089  0.2402
  349MOL0     O45960   8.155   8.145   1.453  0.0022  0.2789  0.6337
  349MOL0     C45961   8.183   8.031   1.378 -0.6207  0.4290 -0.4714
  349MOL0     C45962   8.140   7.911   1.431 -0.0149  0.4316 -1.0270
  349MOL0     C45963   8.162   7.791   1.369  0.7226 -0.7961 -0.0568
  349MOL0     C45964   8.245   7.788   1.247 -0.8372  0.3709 -1.0153
  349MOL0     C45965   8.279   7.660   1.180 -0.3131 -0.2481 -0.1504
  349MOL0     O45966   8.410   7.627   1.165 -0.9552  0.7968  0.2267
  349MOL0     C45967   8.417   7.511   1.093  0.0259  0.0007  0.3488
  349MOL0     C45968   8.403   7.389   1.152 -0.2699  0.0132 -0.4130
  349MOL0     C45969   8.385   7.280   1.071 -0.2955 -0.6738 -0.1061
  349MOL0     C45970   8.402   7.284   0.929  0.5977  0.1991 -0.2871
  349MOL0     O45971   8.378   7.179   0.843  0.5234  0.1816 -0.9026
  349MOL0     C45972   8.323   7.057   0.909  0.3494 -0.5706  0.4289
  349MOL0     C45973   8.338   6.934   0.807  0.4856 -0.4259 -0.5618
  349MOL0     C45974   8.189   6.874   0.788 -0.4642  0.3487  0.0921
  349MOL0     C45975   8.211   6.753   0.694 -0.3255 -0.6258 -0.3090
  349MOL0     C45976   8.294   6.789   0.563 -1.2878 -0.5392 -0.6765
  349MOL0     C45977   8.263   6.677   0.454 -0.3634 -1.0889 -0.1721
  349MOL0     C45978   8.347   6.702   0.328  0.9392 -0.4847  1.3978
  349MOL0     C45979   8.326   6.593   0.227  0.2591 -0.5519 -0.4822
  349MOL0    Cl45980   8.184   6.622   0.118  0.3402 -0.0515 -0.1753
  349MOL0     C45981   8.446   7.404   0.872 -0.1693  0.4454 -0.3478
  349MOL0     C45982   8.435   7.515   0.953  0.1687 -0.6412  1.1246
  349MOL0     O45983   8.177   7.604   1.131  0.0730  0.9476 -0.4741
  349MOL0     C45984   8.291   7.911   1.197 -0.1576 -0.9765  0.6816
  349MOL0     C45985   8.264   8.025   1.262  0.6395 -0.4360  0.0541
  349MOL0     N45986   8.401   8.740   1.664  0.2659  0.7636 -0.1409
  349MOL0     N45987   8.416   8.877   1.684 -0.4875 -0.0691 -0.3314
  349MOL0     C45988   8.502   9.826   1.202 -0.9672 -0.2695  0.7870
  349MOL0     C45989   8.615   9.890   1.140 -0.7658  0.5022 -0.4382
  349MOL0     C45990   8.910   9.896   0.777 -0.3067  0.6410 -0.1069
  349MOL0     C45991   8.935  10.033   0.764 -0.1157  0.0202  0.6338
  349MOL0     C45992   9.025  10.090   0.659 -0.7052  0.7497  0.5547
  349MOL0     C45993   9.079   9.996   0.573  0.4946 -0.9496 -0.2786
  349MOL0     O45994   9.161  10.057   0.477 -0.4822 -0.2515 -0.0921
  349MOL0     C45995   9.234   9.979   0.376 -0.0913  0.2085 -0.3406
  349MOL0     C45996   9.325  10.080   0.305 -0.9965 -0.3230 -0.0550
  349MOL0     C45997   9.237  10.178   0.226 -0.3711  0.7692 -0.6601
  349MOL0     C45998   9.296  10.300   0.182  0.6455  0.3394 -0.5495
  349MOL0     C45999   9.414  10.271   0.103 -0.8581  0.2968  0.1671
  349MOL0     C46000   9.515  10.233   0.051  0.0908 -0.2482  0.0305
  349MOL0     C46001   9.065   9.857   0.596  1.0886 -1.0868  0.2666
  349MOL0     C46002   8.983   9.806   0.697  0.2846 -0.1524 -0.1996
  349MOL0     H46003   8.530   9.821   0.823 -2.8024  2.0173  0.0362
  349MOL0     H46004   8.324   9.726   0.930  2.2994  0.2479 -2.3473
  349MOL0     H46005   8.344   9.525   1.262  2.0212  0.2051 -1.1822
  349MOL0     H46006   8.361   9.548   1.096  3.0957 -1.2928  2.8376
  349MOL0     H46007   8.182   9.403   1.111  1.6953  0.2094  0.9004
  349MOL0     H46008   8.102   9.561   1.081 -0.9394 -0.5260 -0.2572
  349MOL0     H46009   7.990   9.421   1.265  0.2795 -0.1430  0.4554
  349MOL0     H46010   8.047   9.574   1.321 -2.1888 -0.4841  0.3755
  349MOL0     H46011   8.236   9.459   1.441 -0.9145  2.7110  0.0766
  349MOL0     H46012   8.073   9.393   1.468 -0.3792 -0.9578 -0.0605
  349MOL0     H46013   8.253   9.257   1.256 -0.2606 -2.3274 -0.3675
  349MOL0     H46014   8.097   9.211   1.325 -2.2756  0.7393  1.3706
  349MOL0     H46015   8.359   9.226   1.473  0.6961 -0.8606 -0.9404
  349MOL0     H46016   8.299   9.083   1.386  2.0707 -0.5946  1.1005
  349MOL0     H46017   8.152   9.234   1.608 -3.0201 -2.8456  3.5384
  349MOL0     H46018   8.119   9.068   1.528  1.0812 -0.5517  1.6882
  349MOL0     H46019   8.246   9.102   1.776  0.2871 -0.2775 -0.1557
  349MOL0     H46020   8.375   9.126   1.659  0.4121  0.2527  1.7092
  349MOL0     H46021   8.102   8.853   1.623  0.7975 -0.6109 -4.2322
  349MOL0     H46022   8.103   8.587   1.639  0.4384  1.5047  1.1511
  349MOL0     H46023   8.244   8.535   1.734 -0.2825 -0.0193  0.5869
  349MOL0     H46024   8.370   8.494   1.539 -0.8248 -0.2830  2.2590
  349MOL0     H46025   8.245   8.537   1.423  0.4222 -3.1961 -0.9271
  349MOL0     H46026   8.205   8.311   1.630  1.3194 -0.3872 -2.1826
  349MOL0     H46027   8.076   8.365   1.522 -0.9051  2.8280  3.0785
  349MOL0     H46028   8.336   8.238   1.430 -0.3248 -1.5012  0.2714
  349MOL0     H46029   8.206   8.303   1.330  3.3695  1.7378  0.2217
  349MOL0     H46030   8.079   7.922   1.520  1.9826  0.5760  0.4009
  349MOL0     H46031   8.119   7.698   1.408  1.6425 -1.0044  0.4970
  349MOL0     H46032   8.383   7.390   1.259 -2.4297 -0.1034 -0.7759
  349MOL0     H46033   8.355   7.186   1.116 -2.1767 -0.5033 -0.9218
  349MOL0     H46034   8.221   7.082   0.939 -0.0726  0.0405 -1.3964
  349MOL0     H46035   8.377   7.032   1.000 -0.2946  1.5696  1.4820
  349MOL0     H46036   8.407   6.860   0.849  1.4509 -0.6276 -2.4105
  349MOL0     H46037   8.389   6.973   0.719  3.2392 -0.2467  0.9975
  349MOL0     H46038   8.112   6.947   0.762 -2.5838 -1.6630  0.3820
  349MOL0     H46039   8.146   6.836   0.881 -2.7717  1.9998 -0.2098
  349MOL0     H46040   8.269   6.676   0.744  0.3008  1.8934  3.2529
  349MOL0     H46041   8.118   6.700   0.669 -1.2427 -0.7285  2.7942
  349MOL0     H46042   8.400   6.787   0.589 -1.4886  1.0164  0.4698
  349MOL0     H46043   8.275   6.888   0.519 -0.5407 -0.2044 -0.2619
  349MOL0     H46044   8.157   6.662   0.430 -0.4339 -1.8269  0.5532
  349MOL0     H46045   8.292   6.580   0.495 -0.8872 -0.7921  0.9523
  349MOL0     H46046   8.316   6.794   0.278 -0.7880 -2.1127 -0.7159
  349MOL0     H46047   8.456   6.702   0.341  1.5097  2.1432 -1.9926
  349MOL0     H46048   8.331   6.500   0.284  3.2894 -0.8675 -1.1273
  349MOL0     H46049   8.412   6.572   0.163  1.7187  0.2558  1.1283
  349MOL0     H46050   8.458   7.404   0.764 -1.3298  0.3011 -0.4983
  349MOL0     H46051   8.452   7.612   0.906 -2.5391 -0.3549  0.5260
  349MOL0     H46052   8.353   7.899   1.109  0.9842  0.6917  1.2247
  349MOL0     H46053   8.317   8.109   1.218  1.1858  0.6427  2.6230
  349MOL0     H46054   8.496   9.814   1.309  0.0102  0.4410  0.9327
  349MOL0     H46055   8.703   9.921   1.196 -0.1887 -3.2480  1.0630
  349MOL0     H46056   8.881  10.098   0.832 -0.9280 -0.4131  0.4136
  349MOL0     H46057   9.064  10.190   0.641  1.7584  0.2573  2.5626
  349MOL0     H46058   9.173   9.919   0.308  0.9536  1.1557 -2.1750
  349MOL0     H46059   9.300   9.912   0.431 -1.1993 -1.9202 -1.5022
  349MOL0     H46060   9.390  10.138   0.371  2.4454 -2.2914 -1.4413
  349MOL0     H46061   9.396  10.035   0.235 -1.1729  3.4248 -3.0204
  349MOL0     H46062   9.151  10.203   0.289  2.4836  1.4795  3.4254
  349MOL0     H46063   9.203  10.127   0.136 -1.7200  0.8359 -0.2127
  349MOL0     H46064   9.229  10.350   0.111 -1.5121 -1.3712  0.2154
  349MOL0     H46065   9.329  10.352   0.272  3.0285 -1.3058 -0.3823
  349MOL0     H46066   9.611  10.191   0.029  0.3812  0.6907 -0.5424
  349MOL0     H46067   9.110   9.793   0.521 -0.7168 -3.4025  1.0230
  349MOL0     H46068   8.956   9.701   0.684  2.2659 -0.5297 -1.8645
  350MOL0     O46069   7.618   7.557   0.821 -0.0657 -0.0000  0.7422
  350MOL0     C46070   7.513   7.619   0.810 -0.1792 -0.8442  0.0207
  350MOL0     O46071   7.427   7.615   0.705 -0.0029  0.3389 -0.3492
  350MOL0     C46072   7.465   7.555   0.591 -0.7236  0.5089  0.7852
  350MOL0     C46073   7.585   7.554   0.519 -0.1445 -1.5958  0.3837
  350MOL0     C46074   7.601   7.484   0.404 -0.9971  1.0683  0.0966
  350MOL0     C46075   7.490   7.426   0.338  0.6545  0.6922  0.3721
  350MOL0     O46076   7.502   7.369   0.217  0.4257 -0.3171  0.3157
  350MOL0     C46077   7.417   7.436   0.114  0.7644  0.5918  1.2069
  350MOL0     C46078   7.328   7.327   0.043 -0.1683 -0.7330 -0.7189
  350MOL0     C46079   7.404   7.210  -0.022 -0.8306  0.4989 -0.3925
  350MOL0     C46080   7.438   7.101   0.080 -0.6535  0.3258  0.9088
  350MOL0     C46081   7.528   6.993   0.018  0.0890 -0.7726  0.0432
  350MOL0     C46082   7.484   6.902  -0.099 -0.7319  0.0045  0.6700
  350MOL0     C46083   7.607   6.823  -0.139 -0.2833  0.6775 -0.2010
  350MOL0     C46084   7.579   6.740  -0.258  1.3037  0.2643 -0.3542
  350MOL0     N46085   7.686   6.646  -0.283  0.0868  0.0058  0.4273
  350MOL0     C46086   7.749   6.565  -0.185 -0.4729 -1.4267  0.7677
  350MOL0     C46087   7.856   6.507  -0.248  0.2123 -0.3257  0.4439
  350MOL0     C46088   7.951   6.427  -0.174  0.6451 -0.0392 -0.9706
  350MOL0     C46089   7.953   6.270  -0.189 -0.0551 -0.4960 -0.4035
  350MOL0     C46090   7.966   6.240  -0.336  0.3611  0.4541 -1.0220
  350MOL0     C46091   8.098   6.287  -0.413  0.3945 -0.1679 -0.1991
  350MOL0     O46092   8.204   6.224  -0.345  0.2286  0.2414 -0.6580
  350MOL0     C46093   8.260   6.114  -0.395  0.2069 -0.0723  0.4973
  350MOL0     C46094   8.392   6.094  -0.356  0.1699 -0.2655  0.1400
  350MOL0     C46095   8.479   5.998  -0.401  0.8056  1.8624  0.1010
  350MOL0     C46096   8.425   5.902  -0.500  0.9853  0.2896 -1.4789
  350MOL0     C46097   8.510   5.787  -0.549  0.4326  1.2739 -0.2876
  350MOL0     O46098   8.653   5.794  -0.552 -0.1798  0.3298 -1.0993
  350MOL0     C46099   8.733   5.734  -0.640 -1.2387 -0.2841 -0.7713
  350MOL0     C46100   8.702   5.637  -0.726 -0.2211 -0.6935  0.4766
  350MOL0     C46101   8.796   5.585  -0.819  0.0985 -1.7029  0.5043
  350MOL0     C46102   8.927   5.634  -0.826 -0.4595  0.2921 -0.0966
  350MOL0     O46103   9.013   5.574  -0.918 -0.2224  0.3177 -0.9543
  350MOL0     C46104   9.160   5.599  -0.914 -0.0802  0.9838  0.6363
  350MOL0     C46105   9.249   5.523  -1.020  0.3851  1.2219  0.1323
  350MOL0     C46106   9.243   5.611  -1.149 -0.3113  0.0631 -0.5303
  350MOL0     C46107   9.303   5.523  -1.264 -0.6060  0.4015  0.1547
  350MOL0     C46108   9.302   5.604  -1.397 -0.2458  0.0785  0.3185
  350MOL0     C46109   9.429   5.681  -1.396 -0.3229  0.3910 -0.4568
  350MOL0     C46110   9.422   5.811  -1.481 -0.9477  0.0427  0.2088
  350MOL0     C46111   9.342   5.916  -1.405  0.2434  0.4570 -0.4239
  350MOL0    Cl46112   9.432   5.948  -1.249 -0.0084  0.5075 -0.0943
  350MOL0     C46113   8.956   5.740  -0.740  0.1145  0.3550 -0.0893
  350MOL0     C46114   8.863   5.781  -0.642 -0.8358  0.6704  0.1744
  350MOL0     O46115   8.445   5.694  -0.602  0.1280 -0.3023 -0.6393
  350MOL0     C46116   8.276   5.907  -0.529  0.0306 -0.6761  0.3371
  350MOL0     C46117   8.199   6.019  -0.480  0.6636 -0.0377  0.3385
  350MOL0     N46118   7.851   6.539  -0.385 -0.4072  0.2039 -0.7492
  350MOL0     N46119   7.755   6.629  -0.400 -0.8103 -0.4505 -0.1139
  350MOL0     C46120   7.364   7.420   0.410 -0.1516  0.2308 -0.8203
  350MOL0     C46121   7.355   7.479   0.536 -0.4297  0.3799 -0.0120
  350MOL0     C46122   7.470   7.679   0.938  0.1954 -0.1543 -0.5931
  350MOL0     C46123   7.542   7.672   1.056 -0.1640 -0.0809  0.9247
  350MOL0     C46124   7.497   7.727   1.178 -0.6495  0.2611  0.0427
  350MOL0     C46125   7.379   7.797   1.186  0.3555  0.0986 -0.2147
  350MOL0     O46126   7.335   7.864   1.295  0.5936  0.6332  0.0130
  350MOL0     C46127   7.410   7.989   1.336  0.5257 -0.3540 -0.0363
  350MOL0     C46128   7.328   8.072   1.438  0.0775  0.4824 -0.0727
  350MOL0     C46129   7.187   8.109   1.402 -0.6432  0.1634 -0.0610
  350MOL0     C46130   7.180   8.165   1.260 -0.1509  0.5159  0.1150
  350MOL0     C46131   7.255   8.289   1.245 -0.2472  0.4303  0.9120
  350MOL0     C46132   7.310   8.391   1.225  0.2725 -0.2902 -0.7095
  350MOL0     C46133   7.304   7.803   1.062  1.4584  0.4397 -0.0947
  350MOL0     C46134   7.352   7.747   0.940  1.0745 -0.0555  0.5681
  350MOL0     H46135   7.672   7.612   0.547  0.4181 -1.0172 -2.2812
  350MOL0     H46136   7.697   7.493   0.354 -1.7281  1.0075 -1.3794
  350MOL0     H46137   7.474   7.487   0.035  1.9460 -0.7128  1.1835
  350MOL0     H46138   7.356   7.518   0.153 -1.4488  0.6331 -1.9746
  350MOL0     H46139   7.263   7.376  -0.030 -0.6409 -0.9635 -0.4557
  350MOL0     H46140   7.269   7.281   0.123  2.1349 -1.1226  0.8638
  350MOL0     H46141   7.489   7.252  -0.076 -0.4173 -0.8327 -0.8045
  350MOL0     H46142   7.343   7.160  -0.098  0.4280 -1.4888 -0.1606
  350MOL0     H46143   7.482   7.152   0.167  1.6152 -1.5266  0.9425
  350MOL0     H46144   7.341   7.074   0.123 -0.2120 -0.5502  1.3849
  350MOL0     H46145   7.550   6.925   0.101  0.0783  3.2859  3.7953
  350MOL0     H46146   7.622   7.040  -0.012  2.1518 -2.4210  3.2667
  350MOL0     H46147   7.460   6.975  -0.177 -1.6882 -0.6354  0.3462
  350MOL0     H46148   7.392   6.845  -0.083 -0.4951 -1.7986 -3.1849
  350MOL0     H46149   7.694   6.886  -0.157  0.0962 -0.2648 -1.7935
  350MOL0     H46150   7.637   6.754  -0.060 -1.0920  0.7713  0.1985
  350MOL0     H46151   7.580   6.802  -0.348  2.7421  4.8679  2.4523
  350MOL0     H46152   7.482   6.692  -0.244  0.2734  1.8844 -1.5749
  350MOL0     H46153   7.738   6.567  -0.077 -0.9297 -1.8729  0.7334
  350MOL0     H46154   7.927   6.445  -0.069 -0.2770  0.5006 -1.2563
  350MOL0     H46155   8.052   6.467  -0.183  1.0809 -0.6947  0.6709
  350MOL0     H46156   7.854   6.244  -0.150 -1.8032  2.4683 -2.4546
  350MOL0     H46157   8.028   6.223  -0.125 -1.1911 -2.0666 -0.1776
  350MOL0     H46158   7.958   6.132  -0.351 -0.4813 -0.1915  2.9958
  350MOL0     H46159   7.878   6.272  -0.393  2.4243  0.8345 -4.2567
  350MOL0     H46160   8.108   6.395  -0.404  2.8422 -0.3938  0.4937
  350MOL0     H46161   8.094   6.272  -0.522 -2.3532  2.7190 -0.6444
  350MOL0     H46162   8.432   6.153  -0.274 -0.1527  1.6547 -1.0256
  350MOL0     H46163   8.581   5.988  -0.366  0.9032 -0.5334 -0.6914
  350MOL0     H46164   8.610   5.581  -0.741  1.1838 -2.6977 -1.1763
  350MOL0     H46165   8.769   5.512  -0.894  0.1615 -0.1606 -1.0829
  350MOL0     H46166   9.196   5.582  -0.812  0.4230  2.0125  0.6484
  350MOL0     H46167   9.165   5.706  -0.939 -2.0298  0.4007 -3.0421
  350MOL0     H46168   9.202   5.424  -1.029  1.5541  0.7550 -1.2247
  350MOL0     H46169   9.351   5.507  -0.986  0.2105 -3.9467 -0.9495
  350MOL0     H46170   9.301   5.701  -1.124  1.4873 -1.5875  1.6118
  350MOL0     H46171   9.138   5.640  -1.160 -0.2442  0.5884  0.1120
  350MOL0     H46172   9.402   5.482  -1.240 -1.4977 -0.8022  2.0449
  350MOL0     H46173   9.231   5.443  -1.280  0.2494 -0.0362 -1.7976
  350MOL0     H46174   9.218   5.674  -1.404  0.8186  1.1820 -3.7559
  350MOL0     H46175   9.297   5.550  -1.491  0.2184  1.5540 -0.5886
  350MOL0     H46176   9.510   5.616  -1.430 -0.4835  0.3413 -0.7433
  350MOL0     H46177   9.460   5.692  -1.291 -1.1776 -3.7139  0.3926
  350MOL0     H46178   9.521   5.857  -1.488 -0.4687 -1.1052 -1.1133
  350MOL0     H46179   9.396   5.788  -1.584 -0.6043  0.5525  0.0070
  350MOL0     H46180   9.247   5.870  -1.376  0.6447 -0.9321 -1.1989
  350MOL0     H46181   9.334   6.006  -1.466 -0.7276  0.0692 -0.8893
  350MOL0     H46182   9.061   5.766  -0.733  0.5102 -0.8080 -1.2017
  350MOL0     H46183   8.905   5.838  -0.560 -0.2734 -0.8514  0.9819
  350MOL0     H46184   8.236   5.840  -0.603 -2.1642  1.7202 -0.8041
  350MOL0     H46185   8.095   6.033  -0.507  1.6678  1.0873 -3.6498
  350MOL0     H46186   7.272   7.382   0.366 -0.8957  0.2527  0.6737
  350MOL0     H46187   7.257   7.470   0.582 -2.7474  0.4280 -4.4386
  350MOL0     H46188   7.630   7.608   1.055 -0.0324  0.1066  0.0384
  350MOL0     H46189   7.538   7.739   1.278 -2.4531  0.7631  0.7735
  350MOL0     H46190   7.414   8.052   1.247 -1.4649 -0.4761 -0.2619
  350MOL0     H46191   7.510   7.970   1.375  1.3939  1.3662 -1.2647
  350MOL0     H46192   7.337   8.003   1.523 -1.4133 -0.4246 -0.6102
  350MOL0     H46193   7.371   8.169   1.466 -0.0015  0.9409 -1.4844
  350MOL0     H46194   7.150   8.194   1.459  0.7296  0.1130  0.9565
  350MOL0     H46195   7.122   8.024   1.424  0.9212 -0.1409  4.5338
  350MOL0     H46196   7.209   8.090   1.186  1.1601 -1.4207  2.4488
  350MOL0     H46197   7.078   8.198   1.238 -0.8121 -1.6585 -0.2418
  350MOL0     H46198   7.387   8.464   1.210 -0.1541  0.2277 -0.3937
  350MOL0     H46199   7.207   7.852   1.061  2.1651  1.8644 -0.1538
  350MOL0     H46200   7.283   7.747   0.856  0.6225  0.1068  0.9350
  351MOL0     O46201   0.011  10.195   7.180 -0.5504  1.0639 -0.5626
  351MOL0     C46202  -0.111  10.219   7.177  0.5926 -0.1220 -0.3243
  351MOL0     O46203  -0.187  10.308   7.260 -0.3260  0.5865  0.6664
  351MOL0     C46204  -0.125  10.389   7.346 -0.5032 -0.3185 -0.8315
  351MOL0     C46205  -0.035  10.487   7.303  0.3978 -0.4462  0.1582
  351MOL0     C46206   0.032  10.570   7.398 -0.7429 -0.2663  0.2694
  351MOL0     C46207   0.009  10.540   7.537 -0.2989 -0.0534  1.3871
  351MOL0     O46208   0.066  10.595   7.645 -0.6979  0.2770 -0.3987
  351MOL0     C46209   0.159  10.698   7.639  0.1206  0.4695 -0.4566
  351MOL0     C46210   0.171  10.759   7.778  0.1883 -0.2278  0.3565
  351MOL0     C46211   0.284  10.849   7.786 -0.4471  0.2603 -0.2908
  351MOL0     C46212   0.338  10.858   7.918  0.0257  0.0158 -0.6562
  351MOL0     C46213   0.441  10.963   7.930 -0.2305 -0.6563  0.4158
  351MOL0     C46214   0.398  11.109   7.943  0.5988 -0.3983  0.7030
  351MOL0     C46215   0.292  11.142   8.047 -0.1752 -0.1004 -1.1039
  351MOL0     C46216   0.331  11.118   8.190 -0.4641 -1.0658  1.1998
  351MOL0     N46217   0.399  11.229   8.262  0.4528  0.5840  0.2373
  351MOL0     C46218   0.515  11.220   8.325 -1.0652 -0.6204  0.7634
  351MOL0     C46219   0.537  11.335   8.393 -1.3471 -0.5856  0.7831
  351MOL0     C46220   0.662  11.378   8.471 -0.1605  0.2455  0.3590
  351MOL0     C46221   0.690  11.274   8.575  0.8521  0.2883  0.1889
  351MOL0     C46222   0.572  11.227   8.669  0.8483 -0.1475  0.1471
  351MOL0     C46223   0.492  11.341   8.722  0.6511 -0.8136  0.8400
  351MOL0     O46224   0.593  11.434   8.774  0.2661  0.9109  0.3751
  351MOL0     C46225   0.554  11.560   8.812  0.2995  0.5642 -0.0643
  351MOL0     C46226   0.655  11.643   8.853  0.0108  0.0172  0.2015
  351MOL0     C46227   0.636  11.766   8.912 -0.3726 -0.3409 -0.7065
  351MOL0     C46228   0.502  11.819   8.921 -0.4475  0.7333  1.4451
  351MOL0     C46229   0.480  11.952   8.974  0.1929  0.5263 -0.5728
  351MOL0     O46230   0.366  12.017   8.941 -0.5311  0.1791  0.2235
  351MOL0     C46231   0.335  12.147   8.984 -0.3608  0.0847  0.4062
  351MOL0     C46232   0.196  12.173   8.978  0.1589 -0.8493  0.7104
  351MOL0     C46233   0.145  12.307   9.003 -0.0402 -0.5109  0.3302
  351MOL0     C46234   0.230  12.413   9.033  0.2737  0.5925  1.4765
  351MOL0     O46235   0.203  12.545   9.035  0.0209  0.1427  0.1727
  351MOL0     C46236   0.119  12.582   8.933  0.7281 -0.5429  0.8347
  351MOL0     C46237   0.107  12.730   8.945 -0.6952 -1.3763  0.6514
  351MOL0     C46238   0.037  12.783   8.815  0.4315 -0.3902 -0.1904
  351MOL0     C46239   0.045  12.931   8.796  0.1459 -0.5294 -1.0381
  351MOL0     C46240  -0.014  12.982   8.667  0.0816  0.9913  0.5098
  351MOL0     C46241   0.066  12.952   8.537  0.1885  0.1158 -0.0605
  351MOL0     C46242  -0.004  13.010   8.415 -0.1467 -0.8908  0.5267
  351MOL0     C46243   0.033  12.922   8.296  0.8402 -0.0007 -0.1568
  351MOL0    Cl46244   0.197  12.915   8.263 -0.4613  0.0513  0.3977
  351MOL0     C46245   0.362  12.376   9.042  0.8578 -0.1544 -0.4029
  351MOL0     C46246   0.417  12.248   9.029 -0.0962 -0.3249  0.0962
  351MOL0     O46247   0.567  12.002   9.041 -0.2616  0.0266  0.7586
  351MOL0     C46248   0.399  11.733   8.878 -0.9265  0.1693  1.2948
  351MOL0     C46249   0.426  11.609   8.824  0.8725 -1.2251  1.0379
  351MOL0     N46250   0.431  11.420   8.368  0.5887  0.4068 -0.6179
  351MOL0     N46251   0.345  11.353   8.289  0.8604 -0.0786 -0.7735
  351MOL0     C46252  -0.089  10.448   7.581 -0.7302  0.1190  0.1253
  351MOL0     C46253  -0.160  10.377   7.481  0.5409 -0.3137 -0.6327
  351MOL0     C46254  -0.193  10.136   7.082 -0.8607  0.4230  0.2418
  351MOL0     C46255  -0.332  10.129   7.076  0.2670 -0.4487 -1.2588
  351MOL0     C46256  -0.400  10.035   6.995  0.1628  0.3672  0.5212
  351MOL0     C46257  -0.330   9.971   6.896  0.8929 -0.6719  0.3892
  351MOL0     O46258  -0.413   9.915   6.802  0.0322  0.3131  0.3702
  351MOL0     C46259  -0.353   9.806   6.725 -0.2875  0.1329 -0.1869
  351MOL0     C46260  -0.451   9.739   6.631 -0.0230 -0.4832  0.2697
  351MOL0     C46261  -0.483   9.823   6.516 -0.5374  0.1014 -0.1424
  351MOL0     C46262  -0.620   9.783   6.449 -0.9846 -0.0205  0.2712
  351MOL0     C46263  -0.620   9.644   6.412 -0.8530  0.1767  0.0509
  351MOL0     C46264  -0.611   9.526   6.387 -0.6208  0.5230 -0.8912
  351MOL0     C46265  -0.192   9.985   6.879 -0.5818  0.4159 -0.0094
  351MOL0     C46266  -0.125  10.054   6.986  0.1553 -0.6932  0.8164
  351MOL0     H46267  -0.023  10.502   7.196 -1.0451  0.3902  0.0896
  351MOL0     H46268   0.112  10.632   7.359 -2.5517  0.8707 -1.8820
  351MOL0     H46269   0.137  10.779   7.568  1.9254  4.5738  3.2155
  351MOL0     H46270   0.254  10.648   7.617 -0.2609 -1.0036  1.0978
  351MOL0     H46271   0.202  10.667   7.829  3.3692  1.7647  2.3745
  351MOL0     H46272   0.082  10.803   7.822  0.6939 -0.2528  1.4421
  351MOL0     H46273   0.241  10.946   7.757 -4.0921 -1.5704 -1.5958
  351MOL0     H46274   0.366  10.817   7.721  0.4384 -0.5722  1.1902
  351MOL0     H46275   0.260  10.874   7.993  1.6350 -2.8855  1.8683
  351MOL0     H46276   0.379  10.758   7.938 -1.7436 -1.3703 -3.3239
  351MOL0     H46277   0.509  10.952   7.845 -0.3768 -0.4415  0.2701
  351MOL0     H46278   0.488  10.947   8.028 -0.8302  1.0445  1.0327
  351MOL0     H46279   0.356  11.148   7.850 -1.0102  2.8436  2.6175
  351MOL0     H46280   0.488  11.171   7.956 -1.0387  2.1847  0.4429
  351MOL0     H46281   0.268  11.248   8.035  0.9885  0.4831  1.1658
  351MOL0     H46282   0.199  11.092   8.020 -2.1873  0.8360  3.2365
  351MOL0     H46283   0.389  11.028   8.213 -0.4208 -1.5793 -0.7734
  351MOL0     H46284   0.230  11.103   8.230 -1.7335 -1.4879 -1.9100
  351MOL0     H46285   0.587  11.140   8.312 -2.6043 -1.7450 -1.4400
  351MOL0     H46286   0.639  11.473   8.520  0.1991 -0.5281  2.1401
  351MOL0     H46287   0.743  11.411   8.405 -1.2529  2.3074 -0.0199
  351MOL0     H46288   0.766  11.316   8.642  1.3226  1.1889 -0.8728
  351MOL0     H46289   0.721  11.187   8.517 -2.3935  1.3380 -3.5616
  351MOL0     H46290   0.506  11.170   8.603 -1.3195  2.7488 -0.3684
  351MOL0     H46291   0.615  11.170   8.752  1.8271 -0.5078 -0.5727
  351MOL0     H46292   0.415  11.310   8.793 -1.9155  2.0217 -0.4671
  351MOL0     H46293   0.423  11.385   8.649  0.4526 -1.9328  0.3166
  351MOL0     H46294   0.761  11.621   8.842  1.5006  4.5313  2.8834
  351MOL0     H46295   0.723  11.826   8.937  0.5699 -1.8226 -0.2968
  351MOL0     H46296   0.124  12.092   8.978 -0.6322 -0.2447 -2.0548
  351MOL0     H46297   0.038  12.329   9.006 -0.5516 -2.6680 -0.1776
  351MOL0     H46298   0.015  12.550   8.944 -1.5662  4.6527 -2.0410
  351MOL0     H46299   0.151  12.550   8.833 -2.3283  0.3547 -0.5564
  351MOL0     H46300   0.195  12.792   8.960  1.8250 -4.3717 -0.5525
  351MOL0     H46301   0.046  12.773   9.025  1.0883 -0.2703  1.4725
  351MOL0     H46302  -0.071  12.771   8.823  0.3158  1.0446  0.8316
  351MOL0     H46303   0.078  12.738   8.724  1.5396  3.5930 -1.8692
  351MOL0     H46304  -0.027  12.954   8.876 -0.2978  1.1352 -1.8685
  351MOL0     H46305   0.142  12.972   8.823 -0.4981 -1.1186  2.7759
  351MOL0     H46306  -0.045  13.086   8.683  2.2093  1.7529 -0.0567
  351MOL0     H46307  -0.102  12.919   8.651  0.0609  1.6339 -2.6681
  351MOL0     H46308   0.057  12.844   8.521 -6.4412 -0.3731  3.4064
  351MOL0     H46309   0.168  12.990   8.547 -0.0498  0.4554  1.2667
  351MOL0     H46310  -0.112  13.011   8.431 -0.5132  2.8150 -1.1124
  351MOL0     H46311   0.031  13.110   8.388  0.4015 -1.4408 -0.9196
  351MOL0     H46312  -0.015  12.957   8.205  0.6578 -0.3420 -0.1906
  351MOL0     H46313  -0.015  12.826   8.317 -0.1833  0.5110 -0.1028
  351MOL0     H46314   0.436  12.452   9.065  1.8821 -1.2247 -0.0617
  351MOL0     H46315   0.526  12.253   9.028 -0.1572  1.7505 -0.3224
  351MOL0     H46316   0.295  11.765   8.874 -0.2889  2.4932 -3.0012
  351MOL0     H46317   0.334  11.556   8.801  0.2316 -0.3301  1.4757
  351MOL0     H46318  -0.105  10.409   7.681  0.1442 -0.2802  0.1222
  351MOL0     H46319  -0.238  10.305   7.506  1.8456 -2.0051 -1.2808
  351MOL0     H46320  -0.389  10.183   7.150  0.1208  0.6558 -2.1442
  351MOL0     H46321  -0.505  10.013   7.012  0.4721 -1.6597  0.1357
  351MOL0     H46322  -0.306   9.739   6.797  1.0413  1.7717  0.5269
  351MOL0     H46323  -0.266   9.837   6.666 -0.2522  0.1496 -0.1264
  351MOL0     H46324  -0.412   9.640   6.606 -0.4247 -0.6777  0.4076
  351MOL0     H46325  -0.544   9.725   6.686  1.5392 -0.2030  3.2085
  351MOL0     H46326  -0.395   9.807   6.453 -0.8662 -0.4860 -0.4611
  351MOL0     H46327  -0.481   9.928   6.544 -0.3990  1.1073 -3.4816
  351MOL0     H46328  -0.696   9.788   6.527 -1.1523 -0.5782  0.1491
  351MOL0     H46329  -0.636   9.853   6.366 -0.4854 -0.1415  0.0719
  351MOL0     H46330  -0.615   9.420   6.406 -1.2736  1.0190  2.1979
  351MOL0     H46331  -0.142   9.957   6.787 -2.7673  1.5183 -1.6371
  351MOL0     H46332  -0.019  10.071   6.973  0.1848 -0.0015  1.8424
  352MOL0     O46333   1.748   9.982   7.088 -0.4070  0.0700  0.4141
  352MOL0     C46334   1.811   9.919   7.002 -0.6556 -0.0701 -0.4240
  352MOL0     O46335   1.786   9.921   6.865  0.0471  0.1346  0.1949
  352MOL0     C46336   1.662   9.950   6.813 -0.7160 -0.0528 -0.5077
  352MOL0     C46337   1.664   9.993   6.676 -0.3540  1.1236  0.6465
  352MOL0     C46338   1.548  10.038   6.605  0.3306  0.1230 -0.1307
  352MOL0     C46339   1.425  10.040   6.672  0.6163 -1.0093 -0.1222
  352MOL0     O46340   1.299  10.082   6.627  0.7858  0.3231  1.0247
  352MOL0     C46341   1.278  10.134   6.497 -0.4771  0.2198  0.2368
  352MOL0     C46342   1.146  10.088   6.455  0.1117  1.2898 -0.5557
  352MOL0     C46343   1.113  10.104   6.308 -0.9285 -0.6122 -0.2350
  352MOL0     C46344   0.970  10.092   6.278  0.4917 -0.9395  1.1661
  352MOL0     C46345   0.930  10.161   6.140 -0.0503 -0.2857 -0.6483
  352MOL0     C46346   0.994  10.093   6.015  0.3044  0.1823  0.5126
  352MOL0     C46347   0.931   9.950   5.997 -0.6223  0.0477  0.5157
  352MOL0     C46348   0.940   9.913   5.847 -0.2729  0.2653 -0.4844
  352MOL0     N46349   0.830   9.836   5.802  0.9121  0.0754  0.9347
  352MOL0     C46350   0.850   9.720   5.728 -0.3325 -0.5489  0.0382
  352MOL0     C46351   0.732   9.686   5.677 -0.6383 -0.5072  0.1808
  352MOL0     C46352   0.696   9.582   5.577  0.2814  0.4456  0.3609
  352MOL0     C46353   0.787   9.450   5.578  0.4202  0.1541  0.5969
  352MOL0     C46354   0.694   9.334   5.526 -1.4931  0.4205 -0.4493
  352MOL0     C46355   0.761   9.208   5.486  0.8986 -0.3431  0.2090
  352MOL0     O46356   0.830   9.232   5.358  0.2813  0.5237  0.0631
  352MOL0     C46357   0.918   9.140   5.311  1.4195 -0.2700  0.0018
  352MOL0     C46358   0.977   9.168   5.193 -0.6160 -0.5654 -0.5762
  352MOL0     C46359   1.067   9.077   5.138 -0.5079 -0.0301 -0.4307
  352MOL0     C46360   1.079   8.943   5.181  0.7066  0.0447 -0.2188
  352MOL0     C46361   1.172   8.839   5.123 -0.1648 -0.3454  0.7865
  352MOL0     O46362   1.240   8.856   4.999  0.9418  0.2132 -0.0039
  352MOL0     C46363   1.283   8.742   4.927 -0.3182 -1.1046  0.7554
  352MOL0     C46364   1.382   8.748   4.826 -0.3055 -1.0180  0.3454
  352MOL0     C46365   1.414   8.647   4.741  0.8014 -0.6480  0.5156
  352MOL0     C46366   1.337   8.532   4.740 -0.0858  0.0769  0.9084
  352MOL0     O46367   1.331   8.425   4.644  0.2476 -0.2452 -0.1003
  352MOL0     C46368   1.416   8.413   4.524  0.2542  0.3252  0.2210
  352MOL0     C46369   1.364   8.307   4.425 -0.4287 -0.9869  0.6999
  352MOL0     C46370   1.355   8.172   4.493  0.9293 -0.1745  0.6909
  352MOL0     C46371   1.221   8.137   4.557 -0.6785  0.0387 -0.3452
  352MOL0     C46372   1.156   8.027   4.470 -0.4586 -0.2922  0.5579
  352MOL0     C46373   1.106   8.090   4.338 -0.5079  0.2390 -1.0987
  352MOL0     C46374   1.019   7.981   4.259 -0.0648  0.0392  0.9439
  352MOL0     C46375   0.945   8.029   4.134 -0.5357  0.8845  0.8885
  352MOL0    Cl46376   1.033   8.172   4.071  0.6259  0.3932 -0.5882
  352MOL0     C46377   1.253   8.516   4.845 -0.0892 -0.1450 -0.8191
  352MOL0     C46378   1.214   8.620   4.937 -0.3306  0.2473 -0.2342
  352MOL0     O46379   1.194   8.749   5.194 -0.9610  0.1305  0.2681
  352MOL0     C46380   0.991   8.910   5.293 -0.0595 -0.7633  1.0655
  352MOL0     C46381   0.929   9.014   5.359  0.8573 -0.7811 -0.2701
  352MOL0     N46382   0.639   9.780   5.725 -0.1721  0.3415  0.4734
  352MOL0     N46383   0.699   9.874   5.800  0.0781  0.4196 -0.0587
  352MOL0     C46384   1.428   9.985   6.798 -0.0008  0.3178  0.7545
  352MOL0     C46385   1.542   9.957   6.879  0.2995  0.0912  0.2259
  352MOL0     C46386   1.938   9.853   7.044 -0.5940 -0.0678  0.6222
  352MOL0     C46387   2.042   9.813   6.954 -0.2956 -0.4296 -1.1973
  352MOL0     C46388   2.148   9.736   7.002  0.3726  0.0298  0.3953
  352MOL0     C46389   2.147   9.687   7.133 -0.8938 -0.5683 -0.1800
  352MOL0     O46390   2.249   9.607   7.172  0.0180 -0.6943 -0.5909
  352MOL0     C46391   2.376   9.597   7.106 -0.0090 -0.1877 -0.2084
  352MOL0     C46392   2.467   9.489   7.176 -0.1675 -0.4579 -0.0882
  352MOL0     C46393   2.596   9.480   7.095 -0.3507 -0.2264  0.2860
  352MOL0     C46394   2.692   9.382   7.175  0.5949  0.6600  0.2885
  352MOL0     C46395   2.658   9.236   7.135  1.2043 -0.2076 -1.4231
  352MOL0     C46396   2.648   9.128   7.093  1.1932 -0.5410 -0.6013
  352MOL0     C46397   2.046   9.717   7.226 -0.2375  0.4665  0.4328
  352MOL0     C46398   1.945   9.799   7.179 -0.4713 -0.1742 -0.2647
  352MOL0     H46399   1.764   9.991   6.634  0.7074  1.5018  2.9848
  352MOL0     H46400   1.561  10.075   6.504  2.9071 -2.7296 -1.0056
  352MOL0     H46401   1.358  10.105   6.429 -2.3863 -0.8248 -1.6868
  352MOL0     H46402   1.271  10.242   6.509  1.8851  0.6574 -1.5448
  352MOL0     H46403   1.067  10.119   6.524 -1.2793 -3.0764  0.1263
  352MOL0     H46404   1.142   9.980   6.471  3.3684  0.9048 -1.6748
  352MOL0     H46405   1.154  10.026   6.243  1.9898  1.8133 -1.5208
  352MOL0     H46406   1.145  10.203   6.275  0.9640 -1.1951 -0.3013
  352MOL0     H46407   0.940   9.988   6.264  0.5066 -0.7084 -0.8624
  352MOL0     H46408   0.910  10.132   6.360  1.2858 -0.0154  1.3129
  352MOL0     H46409   0.968  10.264   6.139  2.7731 -1.1866  1.3746
  352MOL0     H46410   0.821  10.154   6.138 -0.0691 -0.1665 -0.1305
  352MOL0     H46411   1.103  10.103   6.019  0.1592  1.6053  1.8671
  352MOL0     H46412   0.968  10.164   5.935  2.4937 -0.3337 -0.7685
  352MOL0     H46413   0.984   9.868   6.045  1.9322 -2.2154 -5.1750
  352MOL0     H46414   0.825   9.964   6.021 -0.5903  1.3839 -0.0280
  352MOL0     H46415   1.033   9.858   5.831 -1.4886 -1.6877 -1.2735
  352MOL0     H46416   0.940  10.001   5.781 -2.4663  1.3709  0.8967
  352MOL0     H46417   0.946   9.674   5.708  1.6823  2.5246  1.8343
  352MOL0     H46418   0.692   9.619   5.474 -1.4591  1.9272  0.8891
  352MOL0     H46419   0.593   9.558   5.606  1.7719 -1.9559  4.4774
  352MOL0     H46420   0.813   9.427   5.682 -1.9573 -0.0647  1.2065
  352MOL0     H46421   0.879   9.468   5.522 -1.8341  1.5544 -3.0307
  352MOL0     H46422   0.632   9.299   5.610  0.5878  0.2088  1.0802
  352MOL0     H46423   0.634   9.378   5.446 -1.2484  1.6902  0.0420
  352MOL0     H46424   0.677   9.140   5.473 -1.5482  2.1921  1.6435
  352MOL0     H46425   0.837   9.181   5.559  0.9663  4.6583  2.4205
  352MOL0     H46426   0.961   9.266   5.150 -2.5313 -0.1399  0.9803
  352MOL0     H46427   1.124   9.095   5.048  0.8338 -0.4894  0.3068
  352MOL0     H46428   1.420   8.849   4.814 -3.5460  0.2444 -0.5774
  352MOL0     H46429   1.495   8.675   4.675 -1.3433  4.8321 -0.3370
  352MOL0     H46430   1.519   8.387   4.552  0.4150  1.0982  0.3695
  352MOL0     H46431   1.409   8.513   4.482 -1.9776  1.3032  2.6300
  352MOL0     H46432   1.445   8.313   4.353 -1.8004  1.2206 -0.7720
  352MOL0     H46433   1.268   8.337   4.382  0.8106 -0.0200 -1.5231
  352MOL0     H46434   1.438   8.167   4.565  0.5675 -2.4517  1.0212
  352MOL0     H46435   1.375   8.099   4.414 -1.7286 -2.3029  1.8393
  352MOL0     H46436   1.244   8.086   4.651 -4.5679 -1.5944 -0.1084
  352MOL0     H46437   1.149   8.218   4.570 -1.5073 -0.7448  0.0540
  352MOL0     H46438   1.073   7.989   4.531  0.0172 -3.4908 -0.6165
  352MOL0     H46439   1.227   7.949   4.444  0.2569  0.2740  0.7777
  352MOL0     H46440   1.197   8.116   4.284  0.7058  2.1215  1.6740
  352MOL0     H46441   1.035   8.169   4.363 -0.9068 -0.5097  0.2264
  352MOL0     H46442   1.093   7.904   4.236 -1.5277 -1.3706  0.7860
  352MOL0     H46443   0.939   7.942   4.323 -0.4982 -1.0038 -0.2029
  352MOL0     H46444   0.845   8.050   4.173 -1.0171  3.3732 -1.3941
  352MOL0     H46445   0.948   7.946   4.063  0.4571  0.2998  1.5968
  352MOL0     H46446   1.188   8.429   4.841 -1.6756  1.0237 -2.1160
  352MOL0     H46447   1.136   8.602   5.010 -3.1836 -0.2190 -3.1871
  352MOL0     H46448   0.999   8.818   5.350  3.4159 -0.3236  1.4837
  352MOL0     H46449   0.864   8.993   5.443 -1.2645  2.7539 -0.8283
  352MOL0     H46450   1.329   9.965   6.838 -0.4823  0.6482 -0.2418
  352MOL0     H46451   1.516   9.922   6.978  0.3465  0.8797  0.5188
  352MOL0     H46452   2.043   9.842   6.850  4.1075 -0.9294 -1.4810
  352MOL0     H46453   2.241   9.728   6.947  1.6602 -3.7893  2.6921
  352MOL0     H46454   2.428   9.693   7.106  1.5311 -0.9801 -1.3641
  352MOL0     H46455   2.355   9.572   7.001 -0.8439  1.2409 -0.4092
  352MOL0     H46456   2.490   9.521   7.279 -2.9013 -0.8814  0.7236
  352MOL0     H46457   2.415   9.393   7.178  0.7401 -0.9836 -1.0174
  352MOL0     H46458   2.636   9.581   7.088  0.0081 -0.1813  2.3583
  352MOL0     H46459   2.567   9.450   6.994  0.7048 -0.3527  0.0009
  352MOL0     H46460   2.787   9.399   7.123 -0.7767  0.7722 -2.3268
  352MOL0     H46461   2.700   9.401   7.282  0.1658  0.7941  0.3000
  352MOL0     H46462   2.654   9.028   7.053  0.6871 -0.8532  0.0889
  352MOL0     H46463   2.037   9.668   7.322 -2.7805  0.4436  0.2361
  352MOL0     H46464   1.860   9.797   7.247  1.0156  0.9590  1.7358
  353MOL0     O46465   2.651   7.710  10.041  0.2984  0.1062  0.3738
  353MOL0     C46466   2.773   7.725  10.018 -0.2102 -0.2646 -0.5086
  353MOL0     O46467   2.876   7.663  10.076  0.1587 -0.5591  0.5054
  353MOL0     C46468   2.872   7.620  10.209  1.1912 -0.9304 -0.3743
  353MOL0     C46469   2.776   7.658  10.304  0.5581 -0.9832 -0.6491
  353MOL0     C46470   2.786   7.596  10.427 -0.2096  0.5379 -0.1559
  353MOL0     C46471   2.878   7.500  10.462 -0.2996  0.0660  0.1144
  353MOL0     O46472   2.854   7.427  10.582 -0.5880 -0.2563  0.0981
  353MOL0     C46473   2.963   7.360  10.639  0.5625  0.4091 -0.3714
  353MOL0     C46474   2.948   7.353  10.798 -0.5105 -0.5455  1.0685
  353MOL0     C46475   3.026   7.236  10.858  0.5340  0.2057 -0.5489
  353MOL0     C46476   3.027   7.276  11.010 -0.3659  0.9063  0.0782
  353MOL0     C46477   3.075   7.155  11.095  0.1947  0.2100  1.2701
  353MOL0     C46478   3.213   7.089  11.042  1.0495 -0.0217 -0.0192
  353MOL0     C46479   3.325   7.180  11.081 -0.4237 -0.1630 -0.0009
  353MOL0     C46480   3.455   7.143  11.002 -0.0659 -0.0706 -0.9862
  353MOL0     N46481   3.446   7.169  10.855 -0.1367  0.5420  0.3774
  353MOL0     C46482   3.409   7.302  10.797 -0.7162  0.0901 -0.6370
  353MOL0     C46483   3.385   7.261  10.667  0.7223 -0.5652  0.3485
  353MOL0     C46484   3.335   7.348  10.557 -1.0235  1.1583 -0.2256
  353MOL0     C46485   3.434   7.384  10.449  0.4058 -0.0637  0.5649
  353MOL0     C46486   3.382   7.319  10.315 -0.0671 -0.1789  0.3379
  353MOL0     C46487   3.489   7.331  10.205  0.4294  0.4642 -0.2921
  353MOL0     O46488   3.556   7.455  10.209  0.1700 -0.0645 -0.7057
  353MOL0     C46489   3.482   7.569  10.176  0.0009 -0.3573 -0.0770
  353MOL0     C46490   3.344   7.575  10.127 -1.0472  0.0116  0.1587
  353MOL0     C46491   3.303   7.696  10.076 -0.3357  0.2525 -0.1843
  353MOL0     C46492   3.390   7.811  10.061  0.9175 -0.8838 -0.1770
  353MOL0     C46493   3.335   7.945  10.012  0.1879  1.2112  0.1927
  353MOL0     O46494   3.429   8.037   9.967 -0.5491 -0.2453 -1.3285
  353MOL0     C46495   3.385   8.156   9.911 -0.5739  1.0404  0.1553
  353MOL0     C46496   3.403   8.275   9.977  0.5982 -0.5382 -0.0635
  353MOL0     C46497   3.363   8.395   9.919 -0.1022 -1.2178  0.3837
  353MOL0     C46498   3.290   8.409   9.800 -0.5550 -0.0779 -0.1917
  353MOL0     O46499   3.243   8.529   9.756 -0.1712  0.2451 -0.5095
  353MOL0     C46500   3.160   8.539   9.639  0.1309  0.1366  0.0910
  353MOL0     C46501   3.167   8.680   9.584  0.1788  0.6208  0.0218
  353MOL0     C46502   3.168   8.701   9.429 -1.2139 -0.1248  0.4765
  353MOL0     C46503   3.148   8.854   9.408 -0.0423  0.0155 -0.3990
  353MOL0     C46504   3.151   8.892   9.255 -0.0795  0.3262  0.4143
  353MOL0     C46505   3.286   8.881   9.198 -0.1999 -0.1457 -0.3756
  353MOL0     C46506   3.287   8.930   9.049  0.0913  1.2478 -0.3051
  353MOL0     C46507   3.426   8.911   8.993 -0.3001  0.5879  0.4668
  353MOL0    Cl46508   3.438   8.993   8.832  0.0637 -0.1513 -0.0693
  353MOL0     C46509   3.266   8.283   9.736  0.4277 -0.3529  0.6768
  353MOL0     C46510   3.312   8.155   9.793 -0.5687 -0.3326 -0.0937
  353MOL0     O46511   3.217   7.940  10.003 -0.1602  0.0498  0.1582
  353MOL0     C46512   3.519   7.799  10.106 -0.1109 -0.7684 -0.5167
  353MOL0     C46513   3.560   7.681  10.167  0.1891 -0.8289 -0.5635
  353MOL0     N46514   3.413   7.133  10.644  0.6793  0.8219  0.0573
  353MOL0     N46515   3.457   7.077  10.755  0.5909  0.0731  0.3018
  353MOL0     C46516   2.973   7.452  10.368 -0.3261 -0.3204  1.0214
  353MOL0     C46517   2.970   7.521  10.246  0.5403 -0.1452  0.3879
  353MOL0     C46518   2.803   7.833   9.915  0.0047 -0.3732 -1.0702
  353MOL0     C46519   2.696   7.895   9.842  1.3344  0.0437  0.0858
  353MOL0     C46520   2.716   8.004   9.748  0.2076 -0.1442  0.7814
  353MOL0     C46521   2.844   8.060   9.734 -0.0224  0.0616 -1.0743
  353MOL0     O46522   2.877   8.173   9.665 -0.3253 -0.4637 -0.4406
  353MOL0     C46523   2.776   8.231   9.576 -0.2024  1.7494 -0.4751
  353MOL0     C46524   2.834   8.328   9.480 -0.3270  0.1833  0.4181
  353MOL0     C46525   2.749   8.334   9.350 -0.6273 -0.3091  0.2895
  353MOL0     C46526   2.738   8.200   9.273  0.0965 -0.3246  0.0104
  353MOL0     C46527   2.871   8.146   9.245  0.1517 -0.5683 -0.5538
  353MOL0     C46528   2.980   8.101   9.225 -0.0811 -0.0213 -1.7406
  353MOL0     C46529   2.943   8.007   9.820  0.1012  1.1816  0.1780
  353MOL0     C46530   2.922   7.896   9.901  0.6395 -0.4113 -0.2571
  353MOL0     H46531   2.690   7.722  10.290 -0.3237 -1.9375  0.2499
  353MOL0     H46532   2.727   7.628  10.513  1.3716  1.0370  0.7722
  353MOL0     H46533   3.061   7.399  10.609  0.5584 -2.7404 -5.7760
  353MOL0     H46534   2.962   7.253  10.615 -1.5728  0.6489 -1.6000
  353MOL0     H46535   2.841   7.339  10.816 -0.5890 -0.6796  0.5291
  353MOL0     H46536   2.988   7.448  10.835  1.5157 -0.6522 -0.6597
  353MOL0     H46537   3.128   7.243  10.816  0.4890 -1.3712 -0.9738
  353MOL0     H46538   2.984   7.138  10.835  3.1361 -1.9947  3.0495
  353MOL0     H46539   3.095   7.360  11.026 -0.3699  1.0387 -0.5660
  353MOL0     H46540   2.929   7.309  11.047 -0.3600 -0.4522  1.3755
  353MOL0     H46541   3.000   7.077  11.110 -0.7714  0.2984 -2.1755
  353MOL0     H46542   3.093   7.186  11.198  1.5865 -1.5473  1.6213
  353MOL0     H46543   3.217   7.069  10.935 -1.5400 -0.7872 -0.0314
  353MOL0     H46544   3.227   6.990  11.087 -0.5896  0.2233  1.1217
  353MOL0     H46545   3.298   7.285  11.067 -0.3946  0.2414  2.5155
  353MOL0     H46546   3.344   7.174  11.189 -0.8897  0.8556  0.1528
  353MOL0     H46547   3.476   7.036  11.009  1.5939  0.1011 -2.7084
  353MOL0     H46548   3.537   7.207  11.037  1.0217 -1.4739 -0.9003
  353MOL0     H46549   3.393   7.397  10.847 -0.7742  0.1045 -0.6817
  353MOL0     H46550   3.312   7.446  10.601 -7.0749 -0.5127  1.2366
  353MOL0     H46551   3.240   7.313  10.514 -1.4922  2.3637 -0.2116
  353MOL0     H46552   3.535   7.352  10.477  0.2207  0.3356  1.7391
  353MOL0     H46553   3.424   7.492  10.435  2.9310  0.0764 -0.6460
  353MOL0     H46554   3.377   7.210  10.325  1.9945 -0.3226  0.1557
  353MOL0     H46555   3.291   7.369  10.280  1.2333  2.6274  0.7684
  353MOL0     H46556   3.458   7.307  10.103 -0.2850 -2.8746  0.6176
  353MOL0     H46557   3.556   7.249  10.229 -0.7398 -0.6623 -0.7859
  353MOL0     H46558   3.283   7.485  10.129 -0.5159 -0.4712 -2.1856
  353MOL0     H46559   3.198   7.707  10.050 -0.8308 -0.0305  1.5939
  353MOL0     H46560   3.460   8.284  10.069  2.6977 -2.8977 -0.9781
  353MOL0     H46561   3.382   8.496   9.955 -1.2275 -0.8870  0.1145
  353MOL0     H46562   3.058   8.515   9.672  1.7128 -1.2815  4.7249
  353MOL0     H46563   3.185   8.475   9.555  2.8368 -1.5581  2.0576
  353MOL0     H46564   3.259   8.724   9.622 -0.6428  2.3016  0.1398
  353MOL0     H46565   3.091   8.740   9.635  0.0603 -0.5990  1.3552
  353MOL0     H46566   3.095   8.654   9.364 -1.7815 -0.3586  1.2683
  353MOL0     H46567   3.265   8.660   9.399 -1.5226  0.6341 -1.7046
  353MOL0     H46568   3.050   8.869   9.453 -0.3298 -0.1853 -0.9527
  353MOL0     H46569   3.221   8.918   9.459 -1.6352  0.2244  1.7414
  353MOL0     H46570   3.101   8.989   9.247 -0.1993  0.2869  0.6732
  353MOL0     H46571   3.086   8.821   9.203  0.3614 -0.5420  1.0146
  353MOL0     H46572   3.321   8.778   9.200 -2.7515 -1.0981 -0.6297
  353MOL0     H46573   3.355   8.937   9.262 -1.0193 -1.9877  2.2535
  353MOL0     H46574   3.209   8.887   8.985  0.3188  0.0629  0.1755
  353MOL0     H46575   3.279   9.039   9.051  2.1321  1.4463 -0.6643
  353MOL0     H46576   3.447   8.805   8.973  0.1521  0.5400  1.1703
  353MOL0     H46577   3.503   8.947   9.062  0.8236 -0.2255 -0.3222
  353MOL0     H46578   3.202   8.291   9.648  2.2971 -0.8417 -0.7809
  353MOL0     H46579   3.278   8.062   9.749  2.5878 -3.0346  2.7082
  353MOL0     H46580   3.591   7.880  10.104  2.2222 -2.6210 -4.0639
  353MOL0     H46581   3.666   7.668  10.188 -0.2031 -0.9483  1.5936
  353MOL0     H46582   3.053   7.384  10.397  1.6111  1.3390 -0.1025
  353MOL0     H46583   3.049   7.494  10.177 -0.4484 -3.1386  0.2732
  353MOL0     H46584   2.595   7.864   9.866  0.7983  0.1656 -1.8133
  353MOL0     H46585   2.629   8.055   9.708  0.9434  0.7480  0.2830
  353MOL0     H46586   2.694   8.273   9.635 -3.2448  0.0320 -3.1714
  353MOL0     H46587   2.713   8.154   9.530 -1.2679  2.3771 -0.1129
  353MOL0     H46588   2.826   8.428   9.525 -2.0897  0.2857 -0.0391
  353MOL0     H46589   2.938   8.307   9.453 -0.9325 -1.1723 -1.0106
  353MOL0     H46590   2.797   8.405   9.282  3.9148 -3.7727 -0.6337
  353MOL0     H46591   2.653   8.371   9.387  1.1576  1.6635  3.3956
  353MOL0     H46592   2.682   8.130   9.335  0.0461 -0.6603 -0.4128
  353MOL0     H46593   2.684   8.228   9.183 -1.3382 -2.3033  0.1923
  353MOL0     H46594   3.074   8.069   9.186  1.9090  4.2484 -1.0826
  353MOL0     H46595   3.040   8.056   9.829  0.0602  1.1300  0.9731
  353MOL0     H46596   3.009   7.868   9.959  1.1381  2.0925  0.3346
  354MOL0     O46597   9.652   7.152   4.655  0.0895 -0.3399  0.0063
  354MOL0     C46598   9.556   7.233   4.643 -0.4818 -0.3793 -0.7743
  354MOL0     O46599   9.470   7.246   4.540 -0.6706  0.3874  0.6754
  354MOL0     C46600   9.463   7.137   4.448 -0.4090 -1.5153 -0.7143
  354MOL0     C46601   9.540   7.134   4.336  1.2750 -0.4108  0.4982
  354MOL0     C46602   9.529   7.025   4.254 -0.1092 -0.4162 -0.6819
  354MOL0     C46603   9.437   6.916   4.283 -0.4327  1.0246  0.2745
  354MOL0     O46604   9.424   6.814   4.192 -0.6921  0.4117  0.3055
  354MOL0     C46605   9.486   6.829   4.054  0.7123  0.1312 -0.4598
  354MOL0     C46606   9.455   6.693   3.971 -0.2068 -0.2627  0.4891
  354MOL0     C46607   9.538   6.573   4.019  0.0443  0.0578 -0.5418
  354MOL0     C46608   9.484   6.445   3.949 -0.5324  0.3297  0.1545
  354MOL0     C46609   9.548   6.425   3.814  0.6328  1.9075 -0.2342
  354MOL0     C46610   9.505   6.297   3.749 -0.6764  0.0677  0.7470
  354MOL0     C46611   9.565   6.297   3.603  0.0742 -0.2939 -0.4108
  354MOL0     C46612   9.520   6.166   3.521 -0.5485  0.0444 -0.2875
  354MOL0     N46613   9.606   6.150   3.400 -0.6070 -1.1067 -0.1883
  354MOL0     C46614   9.628   6.232   3.291  0.5571  0.6855  0.3231
  354MOL0     C46615   9.718   6.168   3.215  0.8338  0.0291  0.1897
  354MOL0     C46616   9.778   6.201   3.077 -0.5405  0.7994 -0.2241
  354MOL0     C46617   9.679   6.129   2.980 -0.4684  0.3803 -0.7374
  354MOL0     C46618   9.692   6.190   2.834 -0.6648  0.2095  0.5520
  354MOL0     C46619   9.606   6.113   2.729 -0.1490 -0.0703 -1.4378
  354MOL0     O46620   9.630   6.189   2.611  0.3262 -0.2539  0.3380
  354MOL0     C46621   9.738   6.167   2.528 -0.7432 -0.3386 -0.6945
  354MOL0     C46622   9.772   6.264   2.433  0.8405  0.5970 -0.8937
  354MOL0     C46623   9.878   6.260   2.349 -1.2307 -0.4946 -0.3999
  354MOL0     C46624   9.978   6.166   2.366  0.9534  0.5579 -1.1923
  354MOL0     C46625  10.088   6.155   2.272 -0.2394  0.0323  0.3221
  354MOL0     O46626  10.080   6.248   2.172  0.5107 -0.2004 -0.5446
  354MOL0     C46627  10.198   6.258   2.103  0.4423  0.0726  0.4603
  354MOL0     C46628  10.289   6.355   2.145  1.4445 -0.1591  0.0102
  354MOL0     C46629  10.408   6.373   2.076 -0.2423 -0.3729 -0.0322
  354MOL0     C46630  10.432   6.291   1.963 -0.8638  0.5523  0.8024
  354MOL0     O46631  10.554   6.291   1.902 -0.9507  0.2045 -1.4410
  354MOL0     C46632  10.566   6.327   1.767  0.0878  0.4264 -0.8452
  354MOL0     C46633  10.684   6.253   1.693  0.2608  0.0814 -0.9026
  354MOL0     C46634  10.651   6.114   1.650  0.3836  0.2251  0.5201
  354MOL0     C46635  10.599   6.097   1.511  0.0206  0.5041  0.0663
  354MOL0     C46636  10.450   6.134   1.494  0.4842  0.0150  0.3031
  354MOL0     C46637  10.408   6.095   1.348  0.1516  0.1152 -0.3148
  354MOL0     C46638  10.473   6.169   1.236  0.1359  0.5007  0.0629
  354MOL0     C46639  10.378   6.190   1.114 -0.4989  0.9133  1.9285
  354MOL0    Cl46640  10.470   6.296   0.993 -0.1115 -0.3503  0.6196
  354MOL0     C46641  10.350   6.180   1.928  0.5843 -0.3963  0.0368
  354MOL0     C46642  10.218   6.167   1.992 -0.8307 -0.0201  1.0033
  354MOL0     O46643  10.167   6.065   2.273 -0.5131 -0.0014  0.4850
  354MOL0     C46644   9.958   6.072   2.470  0.6717 -0.2956  0.5007
  354MOL0     C46645   9.840   6.064   2.544  0.7430  0.0584 -0.1968
  354MOL0     N46646   9.731   6.042   3.265  0.4302 -0.0790  0.3217
  354MOL0     N46647   9.672   6.033   3.384 -0.0287  0.7873 -0.8598
  354MOL0     C46648   9.374   6.915   4.410 -1.6583  0.0608 -0.0241
  354MOL0     C46649   9.396   7.023   4.494 -0.5271  0.8745 -0.6049
  354MOL0     C46650   9.541   7.323   4.752  0.2052 -0.4657 -0.7043
  354MOL0     C46651   9.431   7.406   4.764 -0.3484  1.0396  0.3615
  354MOL0     C46652   9.428   7.494   4.873  0.0417  0.4487  0.4075
  354MOL0     C46653   9.522   7.491   4.976 -0.1270 -0.1187 -0.4679
  354MOL0     O46654   9.499   7.581   5.076 -0.1494  0.0165 -0.4670
  354MOL0     C46655   9.598   7.619   5.181  1.0159  0.5978  0.4470
  354MOL0     C46656   9.721   7.681   5.120 -0.1495  0.5019  0.0491
  354MOL0     C46657   9.725   7.768   4.994 -0.5198 -0.6881  0.6881
  354MOL0     C46658   9.872   7.815   4.976  0.4491 -0.1305 -0.4256
  354MOL0     C46659   9.878   7.925   4.874 -0.1994  0.1270 -0.8057
  354MOL0     C46660   9.882   8.021   4.801  0.7260  0.7362  0.3238
  354MOL0     C46661   9.633   7.404   4.968 -0.2815 -0.1596 -0.4533
  354MOL0     C46662   9.646   7.322   4.857  0.4538 -0.9747  0.0066
  354MOL0     H46663   9.608   7.216   4.316  1.1420 -0.5398 -0.5697
  354MOL0     H46664   9.592   7.022   4.165  0.2857  1.3744 -0.4914
  354MOL0     H46665   9.593   6.844   4.067  0.7174  0.9642 -1.3621
  354MOL0     H46666   9.432   6.915   4.014  0.6476  0.1244 -0.3898
  354MOL0     H46667   9.482   6.714   3.867  2.4641 -0.2893  1.1196
  354MOL0     H46668   9.346   6.676   3.967 -0.3691  0.7264  0.4858
  354MOL0     H46669   9.519   6.561   4.126 -3.7061  0.9688 -0.9500
  354MOL0     H46670   9.644   6.593   4.002 -0.1914  1.5001 -0.4506
  354MOL0     H46671   9.519   6.361   4.010 -0.3590  1.9660  2.4417
  354MOL0     H46672   9.375   6.441   3.943 -0.5336 -1.4448  0.8390
  354MOL0     H46673   9.656   6.423   3.829  0.3584 -0.4922  2.3341
  354MOL0     H46674   9.511   6.500   3.743  1.1792  4.1602  1.7413
  354MOL0     H46675   9.397   6.283   3.742 -0.3629 -1.8761 -1.8391
  354MOL0     H46676   9.545   6.207   3.798 -3.1870 -1.1183  0.7605
  354MOL0     H46677   9.528   6.390   3.558  0.9644  1.5936  2.4640
  354MOL0     H46678   9.674   6.304   3.601  0.0252  1.4786  0.7286
  354MOL0     H46679   9.419   6.194   3.489 -0.1038  2.1281 -0.0011
  354MOL0     H46680   9.530   6.083   3.592  1.2395  0.2491 -0.2556
  354MOL0     H46681   9.583   6.330   3.279 -1.3904 -0.4284 -2.1878
  354MOL0     H46682   9.882   6.166   3.078 -1.2722 -1.8304  3.8656
  354MOL0     H46683   9.777   6.310   3.065 -1.0192  0.7913 -0.2696
  354MOL0     H46684   9.575   6.115   3.010 -0.8252  1.3401 -1.4780
  354MOL0     H46685   9.715   6.027   2.964  1.6733  0.9672 -0.0535
  354MOL0     H46686   9.658   6.293   2.842 -0.1829  0.3077  1.5301
  354MOL0     H46687   9.797   6.186   2.802  0.0707 -2.4746  2.8997
  354MOL0     H46688   9.501   6.111   2.760 -0.1220 -0.5343 -1.3668
  354MOL0     H46689   9.636   6.009   2.713 -2.6935 -0.9302 -1.0760
  354MOL0     H46690   9.705   6.349   2.433  1.2936  0.9735  0.2471
  354MOL0     H46691   9.887   6.334   2.270 -3.8399  0.3062 -0.0293
  354MOL0     H46692  10.256   6.419   2.225 -1.0628  0.4784 -1.4015
  354MOL0     H46693  10.480   6.447   2.108 -2.1518  1.0287  1.2124
  354MOL0     H46694  10.573   6.436   1.767  0.9899  0.3753 -0.3181
  354MOL0     H46695  10.469   6.299   1.725  0.9378 -2.9646 -0.8420
  354MOL0     H46696  10.769   6.254   1.762  0.1875  3.3842 -0.7085
  354MOL0     H46697  10.714   6.314   1.607  0.3710 -0.2728 -1.1169
  354MOL0     H46698  10.584   6.063   1.721 -0.1149 -1.2798 -0.9507
  354MOL0     H46699  10.748   6.067   1.665  0.5446  0.6825  0.9181
  354MOL0     H46700  10.649   6.155   1.433 -3.9065  2.7211 -1.0736
  354MOL0     H46701  10.602   5.991   1.488 -0.2661  0.3611  0.6686
  354MOL0     H46702  10.432   6.240   1.515  0.8862 -0.1171  1.3908
  354MOL0     H46703  10.383   6.081   1.562 -0.4246 -1.5010 -1.6713
  354MOL0     H46704  10.302   6.119   1.334 -0.1232 -1.1411 -0.4967
  354MOL0     H46705  10.424   5.987   1.343 -1.4368 -0.1073 -1.0993
  354MOL0     H46706  10.500   6.262   1.288  0.9407  0.0848  0.3978
  354MOL0     H46707  10.564   6.114   1.211  0.5659  1.4727 -0.5724
  354MOL0     H46708  10.288   6.240   1.150  1.0908  4.2990  1.6439
  354MOL0     H46709  10.354   6.109   1.045  0.9438  3.8817 -2.4520
  354MOL0     H46710  10.387   6.111   1.852 -0.1978  1.6843 -2.3577
  354MOL0     H46711  10.149   6.084   1.980  3.6836 -3.8171 -3.0266
  354MOL0     H46712  10.034   5.994   2.477 -0.0100 -1.0081  0.0840
  354MOL0     H46713   9.829   5.987   2.621  1.8885 -1.6791 -1.7069
  354MOL0     H46714   9.311   6.832   4.438 -0.3170 -0.7432  0.6854
  354MOL0     H46715   9.360   7.032   4.596  0.9859  3.4169 -0.2039
  354MOL0     H46716   9.352   7.391   4.691 -0.2292 -1.8892  0.6996
  354MOL0     H46717   9.346   7.564   4.886  0.7262  1.4651 -0.5963
  354MOL0     H46718   9.631   7.532   5.238 -2.0926  0.3693  2.1652
  354MOL0     H46719   9.560   7.688   5.257  2.4506  2.7355 -0.6752
  354MOL0     H46720   9.761   7.740   5.203 -2.5904  1.6438  0.4909
  354MOL0     H46721   9.798   7.603   5.112  0.7162  1.2162  1.1396
  354MOL0     H46722   9.661   7.857   4.996 -0.2594 -0.2561 -3.0298
  354MOL0     H46723   9.701   7.707   4.907  0.5491 -1.2723  0.7914
  354MOL0     H46724   9.901   7.866   5.068 -2.6450 -0.0701  0.6252
  354MOL0     H46725   9.944   7.736   4.952  0.4551 -0.6658  1.2078
  354MOL0     H46726   9.889   8.102   4.731  2.6899 -1.4095 -2.1739
  354MOL0     H46727   9.702   7.394   5.051  1.8080  0.7063 -2.0177
  354MOL0     H46728   9.736   7.262   4.848  0.8276 -0.0702 -3.4983
  355MOL0     O46729  10.225   5.712   5.688 -0.6546 -0.3786  0.0365
  355MOL0     C46730  10.113   5.743   5.711  0.0708 -0.8351  0.0602
  355MOL0     O46731  10.014   5.667   5.762  0.0206  0.2343 -1.0239
  355MOL0     C46732  10.055   5.543   5.792 -0.0734  0.2578 -0.4166
  355MOL0     C46733  10.034   5.445   5.703  0.8088 -0.7067  0.0557
  355MOL0     C46734  10.074   5.315   5.724  0.6407  0.1525 -0.5307
  355MOL0     C46735  10.151   5.277   5.835  0.1173 -0.3640  0.0385
  355MOL0     O46736  10.188   5.150   5.869 -0.0887  0.6014  0.8023
  355MOL0     C46737  10.087   5.052   5.914 -0.3127  1.2570  0.2601
  355MOL0     C46738  10.049   5.076   6.063 -0.0480 -0.1157 -0.2493
  355MOL0     C46739   9.958   4.969   6.126  0.2546  0.1460 -0.9102
  355MOL0     C46740   9.819   4.957   6.065 -0.4625 -0.3675  0.6075
  355MOL0     C46741   9.709   5.007   6.153  0.6744  0.3118  0.3240
  355MOL0     C46742   9.715   4.947   6.294  0.6835 -0.3873  0.3989
  355MOL0     C46743   9.574   4.944   6.337  0.1922  0.0628 -0.7637
  355MOL0     C46744   9.531   5.096   6.368  0.0705 -0.2983 -0.5805
  355MOL0     N46745   9.386   5.128   6.375 -0.6683 -1.0553 -0.1945
  355MOL0     C46746   9.313   5.153   6.485  0.5139  0.3822 -0.4252
  355MOL0     C46747   9.189   5.186   6.438 -0.4287  0.6096  0.2646
  355MOL0     C46748   9.064   5.225   6.512  0.1645 -0.1212 -0.5751
  355MOL0     C46749   8.943   5.147   6.459 -0.2924  0.6234  0.1013
  355MOL0     C46750   8.812   5.182   6.527  0.0554  0.1488 -0.8872
  355MOL0     C46751   8.774   5.321   6.493  0.4543 -0.0085 -0.0504
  355MOL0     O46752   8.639   5.341   6.530  0.3777 -0.4216 -1.2368
  355MOL0     C46753   8.630   5.392   6.664  0.1196  0.5090 -0.1280
  355MOL0     C46754   8.510   5.455   6.709 -1.1935  0.3343 -0.2159
  355MOL0     C46755   8.490   5.493   6.844  0.2095  0.8583 -0.7101
  355MOL0     C46756   8.579   5.474   6.941  0.3280 -0.3025  0.3534
  355MOL0     C46757   8.559   5.507   7.084  0.3573  0.2624 -0.3449
  355MOL0     O46758   8.660   5.474   7.164 -0.1638 -0.3901  0.7724
  355MOL0     C46759   8.712   5.584   7.227 -0.0064 -0.6736  0.3826
  355MOL0     C46760   8.657   5.716   7.258  0.4306  0.6976 -0.0944
  355MOL0     C46761   8.732   5.815   7.315 -0.5621 -1.2145 -0.2944
  355MOL0     C46762   8.866   5.791   7.348 -0.1896 -0.8877 -0.5382
  355MOL0     O46763   8.927   5.881   7.428 -0.3927 -0.5017 -0.7097
  355MOL0     C46764   9.019   5.841   7.529  0.1455 -0.2965  0.0240
  355MOL0     C46765   9.078   5.965   7.596 -0.2595 -1.0618 -0.0281
  355MOL0     C46766   9.112   6.082   7.509 -0.6592  1.2677  0.4303
  355MOL0     C46767   9.142   6.209   7.591  0.4283  0.1592  0.1365
  355MOL0     C46768   9.147   6.330   7.486  0.6326  0.0367  0.3137
  355MOL0     C46769   9.182   6.469   7.540  0.2064  0.1804  0.4874
  355MOL0     C46770   9.226   6.591   7.453  0.7561  0.2508  1.0127
  355MOL0     C46771   9.147   6.621   7.331  0.1993 -0.5093  0.2233
  355MOL0    Cl46772   9.190   6.781   7.266  0.3185 -0.1521  0.3751
  355MOL0     C46773   8.920   5.671   7.315  1.0660  0.8339 -0.1050
  355MOL0     C46774   8.848   5.564   7.253 -0.6204 -0.9378  0.5433
  355MOL0     O46775   8.451   5.561   7.111 -0.1794  0.0797 -0.3587
  355MOL0     C46776   8.703   5.417   6.900 -0.6514 -0.0515 -0.2637
  355MOL0     C46777   8.726   5.380   6.768 -0.0621  0.4004 -0.0332
  355MOL0     N46778   9.193   5.173   6.297 -0.3769  0.2381 -0.4475
  355MOL0     N46779   9.309   5.141   6.260  0.1816  1.4021 -0.6079
  355MOL0     C46780  10.177   5.383   5.923 -0.9255 -0.6427 -0.0006
  355MOL0     C46781  10.132   5.517   5.906  0.0193  0.0662  0.5781
  355MOL0     C46782  10.065   5.874   5.651  0.3008 -0.4360 -0.3387
  355MOL0     C46783   9.931   5.909   5.668 -0.4288  0.8647  0.0085
  355MOL0     C46784   9.874   6.031   5.640 -0.1621 -0.3668  0.0992
  355MOL0     C46785   9.955   6.137   5.583 -0.5132  0.0217  0.8875
  355MOL0     O46786   9.910   6.268   5.547  0.1693  0.4096  0.5353
  355MOL0     C46787   9.775   6.288   5.538 -0.3474  0.2272  0.0901
  355MOL0     C46788   9.743   6.429   5.480 -0.0310  0.3568 -0.9504
  355MOL0     C46789   9.764   6.423   5.329  0.0709 -0.2447  0.1918
  355MOL0     C46790   9.759   6.566   5.261 -1.0223 -0.1772  1.2801
  355MOL0     C46791   9.865   6.656   5.305  0.7211 -0.5853 -0.5886
  355MOL0     C46792   9.951   6.727   5.346 -0.7171  0.6503 -1.3760
  355MOL0     C46793  10.088   6.100   5.565  0.4625  0.1143  0.6187
  355MOL0     C46794  10.148   5.974   5.610 -0.0967 -0.0787  0.0853
  355MOL0     H46795   9.971   5.469   5.617  1.8484 -0.6502 -0.7119
  355MOL0     H46796  10.065   5.254   5.634  0.8034 -1.4596  0.5124
  355MOL0     H46797  10.125   4.951   5.898 -1.0559  1.2250 -1.5022
  355MOL0     H46798  10.003   5.068   5.846 -0.9320  0.7181  0.8836
  355MOL0     H46799  10.011   5.179   6.066 -1.1699 -0.4898 -0.9069
  355MOL0     H46800  10.140   5.068   6.122 -2.0501  1.6079  3.3933
  355MOL0     H46801   9.946   4.987   6.233 -0.1005 -0.6951 -0.8047
  355MOL0     H46802  10.010   4.873   6.125 -0.6066 -0.3483 -2.9470
  355MOL0     H46803   9.813   5.002   5.965  0.8671 -1.0162  0.2229
  355MOL0     H46804   9.791   4.856   6.033 -0.3260  0.5230 -2.7189
  355MOL0     H46805   9.618   4.977   6.100  0.9627  1.0273 -0.6059
  355MOL0     H46806   9.710   5.116   6.146  2.5178  0.2381 -1.3270
  355MOL0     H46807   9.774   5.013   6.359  0.7092  0.7795 -0.7692
  355MOL0     H46808   9.755   4.847   6.278 -0.4516 -0.5661 -1.6037
  355MOL0     H46809   9.516   4.891   6.261  1.4786  1.4665 -2.8280
  355MOL0     H46810   9.573   4.881   6.426 -2.1616  2.0863  0.7955
  355MOL0     H46811   9.576   5.171   6.303 -2.1445  0.8971 -0.8422
  355MOL0     H46812   9.568   5.121   6.468  2.6837  1.8783 -1.9746
  355MOL0     H46813   9.337   5.134   6.589 -1.8376 -2.2773 -0.2441
  355MOL0     H46814   9.048   5.333   6.500  1.2436  0.0068 -0.9850
  355MOL0     H46815   9.074   5.214   6.620  2.9861  1.0450 -0.6375
  355MOL0     H46816   8.959   5.040   6.477 -2.3843  0.7077  3.3585
  355MOL0     H46817   8.927   5.157   6.352  0.1301  0.7242  0.0458
  355MOL0     H46818   8.731   5.115   6.493 -0.3562  0.7465 -1.1002
  355MOL0     H46819   8.816   5.152   6.632 -1.3594 -2.0889 -1.3808
  355MOL0     H46820   8.768   5.336   6.385  0.2870 -0.0472 -0.0460
  355MOL0     H46821   8.847   5.394   6.528 -0.6909  0.0449  2.5412
  355MOL0     H46822   8.442   5.456   6.625 -2.4431 -4.1921  0.4317
  355MOL0     H46823   8.393   5.536   6.869 -0.4286 -0.4217 -0.9159
  355MOL0     H46824   8.556   5.747   7.235 -1.0317 -1.3048  2.9442
  355MOL0     H46825   8.707   5.917   7.340  4.2795  0.1398  0.0811
  355MOL0     H46826   9.103   5.788   7.484 -1.2813  0.5302 -3.9733
  355MOL0     H46827   8.978   5.769   7.601 -0.5434 -0.6432 -0.7005
  355MOL0     H46828   9.164   5.917   7.643  0.3807  0.0006 -0.0877
  355MOL0     H46829   9.004   6.006   7.666  0.5512  1.4982 -0.5761
  355MOL0     H46830   9.028   6.105   7.444 -0.0153  1.5447 -0.3142
  355MOL0     H46831   9.196   6.052   7.445 -1.6259 -1.4933  0.3027
  355MOL0     H46832   9.069   6.215   7.673  0.4729 -1.5995  0.3422
  355MOL0     H46833   9.238   6.200   7.641  0.5854  2.4309  0.3423
  355MOL0     H46834   9.048   6.341   7.440 -0.0524 -0.9921  1.4426
  355MOL0     H46835   9.213   6.308   7.402  1.2618  1.9440  0.2840
  355MOL0     H46836   9.269   6.443   7.601  1.6257 -1.1181 -1.9272
  355MOL0     H46837   9.098   6.500   7.602  1.9140 -0.0247  3.0681
  355MOL0     H46838   9.219   6.686   7.508  2.4794  1.6406 -0.9569
  355MOL0     H46839   9.334   6.584   7.437  0.3283 -0.3036 -2.4692
  355MOL0     H46840   9.040   6.621   7.350  0.1236  0.6648 -0.1502
  355MOL0     H46841   9.160   6.545   7.253  2.9038 -2.5120  2.4098
  355MOL0     H46842   9.024   5.648   7.335  0.5766 -1.6360 -0.1895
  355MOL0     H46843   8.899   5.469   7.243  1.2989 -0.3457  3.4653
  355MOL0     H46844   8.783   5.401   6.971  0.4779  1.2495 -1.2044
  355MOL0     H46845   8.824   5.334   6.759  0.1569  0.7440  0.5627
  355MOL0     H46846  10.240   5.346   6.004  0.2890 -3.0286 -1.9038
  355MOL0     H46847  10.166   5.596   5.973  1.4440 -1.3866  1.6658
  355MOL0     H46848   9.854   5.844   5.709 -0.8856  0.7014 -1.0709
  355MOL0     H46849   9.771   6.058   5.659  0.1094 -0.6718  2.2420
  355MOL0     H46850   9.739   6.284   5.641 -0.4966 -0.1293  0.0239
  355MOL0     H46851   9.734   6.205   5.480  1.6053  0.0354 -1.1121
  355MOL0     H46852   9.636   6.441   5.503 -0.4877 -1.6649 -1.7962
  355MOL0     H46853   9.812   6.497   5.531 -2.6148  1.4187  1.4077
  355MOL0     H46854   9.688   6.357   5.286  0.0831 -0.8507  1.0725
  355MOL0     H46855   9.858   6.370   5.309 -1.0320 -1.8005 -1.1199
  355MOL0     H46856   9.755   6.563   5.152 -2.2687  0.9116  1.2582
  355MOL0     H46857   9.662   6.609   5.289 -0.3736  0.6893  2.3409
  355MOL0     H46858  10.034   6.790   5.373  1.4772 -2.4302 -0.3694
  355MOL0     H46859  10.157   6.169   5.517 -2.4817  2.1289 -1.0556
  355MOL0     H46860  10.254   5.954   5.603 -0.3269 -1.1501 -0.4987
  356MOL0     O46861   5.311   1.903   7.941 -0.3959  0.3729 -0.8310
  356MOL0     C46862   5.235   1.955   7.864 -0.3531 -0.4207  0.0089
  356MOL0     O46863   5.163   1.893   7.768 -0.8837 -0.4398 -0.4068
  356MOL0     C46864   5.146   1.759   7.763  0.5425 -0.8015  0.4760
  356MOL0     C46865   5.170   1.692   7.642 -0.6026  0.2104  0.6708
  356MOL0     C46866   5.160   1.556   7.625  0.1349 -0.2296  0.3758
  356MOL0     C46867   5.114   1.483   7.739  0.5731 -0.3594  0.4364
  356MOL0     O46868   5.080   1.347   7.743 -0.0037  0.0120  0.5653
  356MOL0     C46869   5.134   1.269   7.641 -0.1141  0.0428  0.6732
  356MOL0     C46870   5.084   1.126   7.642  0.2896 -0.5622 -0.3579
  356MOL0     C46871   5.115   1.052   7.760 -0.0014 -0.3089 -0.4127
  356MOL0     C46872   5.250   1.002   7.784 -0.6989  0.2254 -0.0209
  356MOL0     C46873   5.261   0.924   7.906  1.2342 -0.2136  0.0807
  356MOL0     C46874   5.171   0.796   7.910 -0.3249 -0.0837  0.2298
  356MOL0     C46875   5.192   0.737   8.059  0.3470 -0.6948 -0.5795
  356MOL0     C46876   5.116   0.611   8.078  0.8937 -0.0028  0.4617
  356MOL0     N46877   5.143   0.561   8.219  0.1068 -0.9137  0.5717
  356MOL0     C46878   5.050   0.484   8.287 -0.4998  0.2955  0.0694
  356MOL0     C46879   5.092   0.461   8.411 -1.2571  0.3303  0.0296
  356MOL0     C46880   5.029   0.380   8.514 -0.6619  1.3697 -0.1185
  356MOL0     C46881   4.959   0.468   8.612  0.5487  0.6355  0.0217
  356MOL0     C46882   5.051   0.538   8.713  0.7601 -0.7832  0.7634
  356MOL0     C46883   5.083   0.474   8.842 -0.3596  0.2780  0.0813
  356MOL0     O46884   4.966   0.437   8.914  0.0822  0.3410  0.1510
  356MOL0     C46885   4.981   0.340   9.013 -0.6697 -0.3832 -0.0414
  356MOL0     C46886   5.110   0.291   9.055  1.0454 -0.6555 -0.3040
  356MOL0     C46887   5.113   0.194   9.147  0.0733  1.0427  0.2864
  356MOL0     C46888   4.993   0.148   9.217 -0.8903 -0.3518 -0.0496
  356MOL0     C46889   5.006   0.054   9.338  0.4325 -0.3397  0.1354
  356MOL0     O46890   4.889   0.015   9.395 -0.3858 -0.0365  0.3353
  356MOL0     C46891   4.896  -0.073   9.500 -0.1550 -0.3151  0.2743
  356MOL0     C46892   4.833  -0.197   9.489  0.2640  0.1814 -0.7157
  356MOL0     C46893   4.830  -0.287   9.599 -0.4213  0.9511  0.4195
  356MOL0     C46894   4.891  -0.259   9.721  0.4847 -0.0356  0.4114
  356MOL0     O46895   4.885  -0.341   9.830  0.0140  0.3680 -0.0234
  356MOL0     C46896   4.967  -0.455   9.831 -0.5299  0.2896  0.2971
  356MOL0     C46897   5.089  -0.439   9.917 -0.7599 -0.0192  0.8871
  356MOL0     C46898   5.071  -0.390  10.059  0.4298 -0.2179  0.3613
  356MOL0     C46899   5.206  -0.409  10.125  0.0155  0.3513  0.4443
  356MOL0     C46900   5.210  -0.433  10.274 -1.0846 -0.2510 -0.0212
  356MOL0     C46901   5.176  -0.579  10.307  0.5777  0.7830  0.5893
  356MOL0     C46902   5.213  -0.614  10.450 -0.6635  0.5062  0.4019
  356MOL0     C46903   5.174  -0.515  10.560 -0.5912 -0.3995  0.5339
  356MOL0    Cl46904   5.001  -0.490  10.570 -0.4187  0.3842  0.5537
  356MOL0     C46905   4.948  -0.135   9.730 -0.3416 -0.7164 -0.6479
  356MOL0     C46906   4.949  -0.044   9.622  1.1654 -0.2474 -0.0664
  356MOL0     O46907   5.116   0.012   9.365 -0.5173  0.0686 -0.0904
  356MOL0     C46908   4.875   0.198   9.169 -0.3622  0.2229  0.3415
  356MOL0     C46909   4.864   0.293   9.066 -0.1932  0.3126 -0.2392
  356MOL0     N46910   5.221   0.503   8.418  0.3204 -0.6760 -0.0794
  356MOL0     N46911   5.252   0.560   8.300 -0.6734  0.5897  0.8515
  356MOL0     C46912   5.087   1.549   7.857 -0.2947  0.3324 -0.2812
  356MOL0     C46913   5.101   1.685   7.869  0.5495 -0.1300  0.5786
  356MOL0     C46914   5.238   2.110   7.852  0.0002  0.1190  0.3163
  356MOL0     C46915   5.328   2.191   7.924  0.2882 -0.6591 -0.1995
  356MOL0     C46916   5.316   2.335   7.908  0.1359 -0.3709  0.6370
  356MOL0     C46917   5.213   2.401   7.844  1.4120 -0.2525  0.2716
  356MOL0     O46918   5.206   2.539   7.833 -0.3054 -0.3890  0.5193
  356MOL0     C46919   5.095   2.589   7.764  0.2553 -0.3255 -0.9895
  356MOL0     C46920   5.105   2.594   7.609 -0.4965  0.1295 -0.1876
  356MOL0     C46921   5.014   2.705   7.541  0.8464  0.3508  0.2775
  356MOL0     C46922   5.118   2.808   7.493 -0.4006 -0.5062 -0.1689
  356MOL0     C46923   5.055   2.907   7.413  0.1130  0.5525  0.9881
  356MOL0     C46924   5.023   3.001   7.348  0.4375 -0.0610  0.9112
  356MOL0     C46925   5.118   2.310   7.796 -0.0463  0.4355 -0.0818
  356MOL0     C46926   5.131   2.170   7.788 -0.7193 -0.3972 -0.4332
  356MOL0     H46927   5.196   1.748   7.553  0.4280  0.3250  1.0355
  356MOL0     H46928   5.174   1.509   7.528  0.0660 -0.5192  0.5044
  356MOL0     H46929   5.242   1.256   7.652 -0.2185 -1.4666  0.2062
  356MOL0     H46930   5.123   1.309   7.540  2.6858 -1.3194 -0.2864
  356MOL0     H46931   5.117   1.077   7.549  0.9371  0.2103 -0.5449
  356MOL0     H46932   4.977   1.114   7.625  0.2216 -1.2136  0.4495
  356MOL0     H46933   5.065   0.957   7.738  2.6032 -1.7234 -0.6228
  356MOL0     H46934   5.078   1.110   7.845  2.7963 -1.6121  1.8827
  356MOL0     H46935   5.276   0.936   7.700 -1.4339  1.5455 -1.3387
  356MOL0     H46936   5.330   1.077   7.784 -0.9600  0.5359 -1.5855
  356MOL0     H46937   5.242   0.988   7.993  3.1235 -1.8506  1.8111
  356MOL0     H46938   5.362   0.886   7.920  1.4783 -2.0944 -4.8402
  356MOL0     H46939   5.205   0.730   7.829 -2.5613 -0.7612 -0.2443
  356MOL0     H46940   5.063   0.807   7.891 -0.2911 -2.3664 -1.7934
  356MOL0     H46941   5.299   0.722   8.077  0.4785  1.0608  0.2278
  356MOL0     H46942   5.156   0.815   8.126  3.8987  0.2776  0.4283
  356MOL0     H46943   5.139   0.535   8.003  2.8791  0.5032  0.4974
  356MOL0     H46944   5.011   0.638   8.063  1.2332  0.6702 -0.8310
  356MOL0     H46945   4.954   0.451   8.251  0.3174 -0.1905 -1.7940
  356MOL0     H46946   5.113   0.321   8.553 -2.4688 -2.6641 -1.7983
  356MOL0     H46947   4.964   0.307   8.465  0.6218  0.5713 -0.6871
  356MOL0     H46948   4.881   0.415   8.667  1.1339 -1.6794 -1.2827
  356MOL0     H46949   4.891   0.531   8.555 -0.4107 -0.5701 -0.2047
  356MOL0     H46950   5.150   0.552   8.667  1.1929  0.8296  2.0992
  356MOL0     H46951   4.990   0.622   8.746 -0.9481 -2.5486  2.2983
  356MOL0     H46952   5.142   0.542   8.904  0.3444  1.8015 -2.1381
  356MOL0     H46953   5.134   0.383   8.810 -1.0450 -0.0676 -0.0301
  356MOL0     H46954   5.202   0.336   9.020  0.4611  1.8933  1.1677
  356MOL0     H46955   5.207   0.164   9.191 -1.2475  0.1952  2.7286
  356MOL0     H46956   4.789  -0.215   9.392 -0.5649  0.1452 -0.3358
  356MOL0     H46957   4.788  -0.386   9.588 -0.8904  1.0107  1.4915
  356MOL0     H46958   4.996  -0.477   9.728  0.5828 -1.5092  0.9394
  356MOL0     H46959   4.914  -0.543   9.869 -0.7865 -0.9120 -2.6376
  356MOL0     H46960   5.159  -0.374   9.865 -2.6557  2.0345  0.7466
  356MOL0     H46961   5.142  -0.533   9.901  0.9924  1.3191 -1.9349
  356MOL0     H46962   4.985  -0.448  10.092 -0.0537  0.0047 -0.5005
  356MOL0     H46963   5.039  -0.286  10.052  2.8717  0.4864 -2.9948
  356MOL0     H46964   5.260  -0.488  10.074  1.2846  1.6255 -0.2551
  356MOL0     H46965   5.262  -0.315  10.121 -1.0127  1.0567  1.5305
  356MOL0     H46966   5.136  -0.367  10.318 -3.8555 -2.2006 -1.4464
  356MOL0     H46967   5.313  -0.411  10.304  0.0001 -2.7620 -1.5194
  356MOL0     H46968   5.224  -0.651  10.241  0.7028 -1.1267  2.6453
  356MOL0     H46969   5.069  -0.599  10.298  0.9854 -2.1013  1.2358
  356MOL0     H46970   5.159  -0.706  10.473  0.8647 -0.2184  1.2016
  356MOL0     H46971   5.322  -0.626  10.446 -0.6842  0.5220 -1.1560
  356MOL0     H46972   5.221  -0.419  10.538 -1.7931  0.1824  0.4316
  356MOL0     H46973   5.203  -0.555  10.658  0.3102 -0.7258  0.1518
  356MOL0     H46974   4.992  -0.107   9.826 -2.0536  0.1757 -0.0815
  356MOL0     H46975   4.984   0.057   9.641  2.6378 -0.7326 -0.0630
  356MOL0     H46976   4.780   0.169   9.214  0.3744 -1.4228  0.9111
  356MOL0     H46977   4.778   0.343   9.021  0.2125  1.3554  0.1070
  356MOL0     H46978   5.037   1.496   7.937  0.0469 -0.2873 -0.4747
  356MOL0     H46979   5.095   1.742   7.961 -0.5670  1.9601 -0.6886
  356MOL0     H46980   5.412   2.143   7.974  1.0799 -1.0360 -1.8480
  356MOL0     H46981   5.382   2.400   7.964 -1.2864  1.6526  0.0712
  356MOL0     H46982   5.099   2.695   7.793 -1.0758 -0.7499  0.8980
  356MOL0     H46983   5.001   2.557   7.808  0.9692 -1.0181  0.0717
  356MOL0     H46984   5.211   2.603   7.581 -0.2408 -4.0503 -1.3167
  356MOL0     H46985   5.083   2.491   7.581  2.1009 -0.7676  0.7106
  356MOL0     H46986   4.941   2.748   7.611  1.6876  0.0734  1.3542
  356MOL0     H46987   4.962   2.663   7.454  0.0312 -0.3583  1.0824
  356MOL0     H46988   5.179   2.839   7.578 -0.8539 -4.1699  1.6820
  356MOL0     H46989   5.195   2.770   7.425  0.4724 -0.3804  0.7368
  356MOL0     H46990   4.986   3.087   7.297 -1.7375  1.0287  4.0029
  356MOL0     H46991   5.021   2.338   7.755  1.3075 -0.0131 -3.9893
  356MOL0     H46992   5.055   2.109   7.739  0.0967 -0.8226 -1.1952
  357MOL0     O46993   2.665   9.199   7.896  0.6407  0.1635 -0.6496
  357MOL0     C46994   2.750   9.180   7.805  0.1691 -0.2657  0.2679
  357MOL0     O46995   2.868   9.243   7.797  0.5573  0.3114  0.2599
  357MOL0     C46996   2.923   9.347   7.868  0.5760 -1.2299  0.7652
  357MOL0     C46997   3.053   9.378   7.844  0.3374 -0.4749  0.4685
  357MOL0     C46998   3.108   9.495   7.898  0.6137 -0.7865 -0.0145
  357MOL0     C46999   3.039   9.584   7.974 -0.0100  0.1601  0.1313
  357MOL0     O47000   3.114   9.686   8.039 -0.6833  0.7310  1.0214
  357MOL0     C47001   3.042   9.803   8.065  0.9662  0.7657  0.0547
  357MOL0     C47002   3.125   9.929   8.091 -0.0830 -0.5379 -0.2365
  357MOL0     C47003   3.199   9.989   7.968 -0.3243  0.2733  0.2916
  357MOL0     C47004   3.301  10.096   8.007 -0.4524  0.1468  0.4986
  357MOL0     C47005   3.354  10.166   7.877  0.7459 -0.2243  0.4075
  357MOL0     C47006   3.439  10.293   7.916 -0.6162  0.3109 -0.6996
  357MOL0     C47007   3.468  10.392   7.801 -0.0397 -0.2537  0.7867
  357MOL0     C47008   3.560  10.318   7.698 -0.1097  0.8204  1.1435
  357MOL0     N47009   3.519  10.362   7.565 -0.5493  0.1930 -0.5772
  357MOL0     C47010   3.408  10.315   7.499  0.2986 -0.3376  0.0927
  357MOL0     C47011   3.405  10.389   7.387 -0.2161 -0.8536  0.5292
  357MOL0     C47012   3.286  10.407   7.288  0.5595 -0.0731 -0.8387
  357MOL0     C47013   3.253  10.278   7.226  0.4590  1.2670  1.0369
  357MOL0     C47014   3.145  10.287   7.115  0.4930  0.0776 -0.0589
  357MOL0     C47015   3.002  10.298   7.171 -0.1745 -0.7236  0.0550
  357MOL0     O47016   2.963  10.433   7.169  0.2387  0.0816 -0.3194
  357MOL0     C47017   2.839  10.470   7.205  0.7257 -0.7899 -0.7251
  357MOL0     C47018   2.747  10.390   7.271  0.0616 -0.1356  0.6214
  357MOL0     C47019   2.619  10.439   7.309  0.6814  0.0602 -0.8338
  357MOL0     C47020   2.586  10.571   7.291  0.0123 -0.1000  0.3721
  357MOL0     C47021   2.454  10.618   7.345  0.5240 -0.6150  0.7728
  357MOL0     O47022   2.400  10.545   7.443 -0.1317  0.5314 -0.1850
  357MOL0     C47023   2.282  10.579   7.492  0.2879 -0.5075 -0.3668
  357MOL0     C47024   2.270  10.693   7.568  0.1024  0.8580  0.4928
  357MOL0     C47025   2.152  10.715   7.641  0.2131  1.0788 -0.0078
  357MOL0     C47026   2.047  10.623   7.639 -0.4920 -0.2772  0.4192
  357MOL0     O47027   1.923  10.646   7.695  0.2019 -0.6157  0.2295
  357MOL0     C47028   1.889  10.775   7.758 -0.0764 -1.0690  0.1234
  357MOL0     C47029   1.782  10.746   7.872 -0.4459 -0.0378  0.6092
  357MOL0     C47030   1.843  10.732   8.013 -0.2622 -0.3761 -0.4370
  357MOL0     C47031   1.734  10.733   8.120  0.1175  0.4069  0.0866
  357MOL0     C47032   1.671  10.593   8.125  0.5902  0.9448  0.1431
  357MOL0     C47033   1.545  10.588   8.209 -0.2048  0.3196 -0.0197
  357MOL0     C47034   1.510  10.444   8.234 -0.2567  0.5942 -0.0281
  357MOL0     C47035   1.380  10.429   8.324  0.3846 -1.4061  0.5745
  357MOL0    Cl47036   1.248  10.524   8.249  0.1417  0.1197 -0.7410
  357MOL0     C47037   2.056  10.510   7.556 -0.7130  0.3519  0.2391
  357MOL0     C47038   2.170  10.492   7.481 -0.3377 -0.9898  0.1444
  357MOL0     O47039   2.409  10.723   7.307  0.4934 -0.2772 -0.0877
  357MOL0     C47040   2.682  10.650   7.223  0.4337  0.8396  0.2245
  357MOL0     C47041   2.803  10.599   7.173 -1.0927 -0.5336 -0.8387
  357MOL0     N47042   3.525  10.471   7.381  0.0355  0.3106 -0.2949
  357MOL0     N47043   3.585  10.452   7.495  0.4930 -0.6142  0.2368
  357MOL0     C47044   2.909   9.549   8.008 -0.6298 -0.1119 -0.3844
  357MOL0     C47045   2.847   9.430   7.951  0.9278  0.4566 -0.1339
  357MOL0     C47046   2.745   9.070   7.705  0.2543 -0.7768 -0.0946
  357MOL0     C47047   2.852   8.996   7.662 -0.4137  0.1401 -0.2034
  357MOL0     C47048   2.835   8.907   7.551 -0.3504 -0.1262 -1.2044
  357MOL0     C47049   2.715   8.887   7.496 -0.4909  0.1012  0.1222
  357MOL0     O47050   2.709   8.787   7.403  0.4701 -0.1892 -0.6745
  357MOL0     C47051   2.580   8.763   7.345 -0.5581 -0.1522 -0.2241
  357MOL0     C47052   2.567   8.646   7.240  0.1140  0.2970 -0.3293
  357MOL0     C47053   2.441   8.574   7.258 -0.2686  0.2310 -0.2431
  357MOL0     C47054   2.375   8.534   7.127  0.3146  0.2212 -0.0847
  357MOL0     C47055   2.453   8.433   7.052  0.4422  0.1806  0.9015
  357MOL0     C47056   2.514   8.349   6.998 -0.0916 -0.7825  0.5477
  357MOL0     C47057   2.604   8.954   7.541 -0.2546 -0.2817 -0.0338
  357MOL0     C47058   2.617   9.043   7.647  0.5438  0.1333 -1.0014
  357MOL0     H47059   3.108   9.321   7.769  0.8180  0.6222 -0.0401
  357MOL0     H47060   3.216   9.493   7.894  0.6225 -2.3192  0.1761
  357MOL0     H47061   2.991   9.804   8.162  2.9292  4.0373  1.1806
  357MOL0     H47062   2.974   9.838   7.987  0.9435  0.5353 -0.0320
  357MOL0     H47063   3.199   9.910   8.170 -0.7512 -1.0412  0.2895
  357MOL0     H47064   3.075  10.009   8.145  1.3712 -0.3680  0.9183
  357MOL0     H47065   3.144  10.012   7.876  3.3757 -1.0258 -2.5253
  357MOL0     H47066   3.262   9.912   7.923 -0.0654  0.6276  0.0409
  357MOL0     H47067   3.254  10.170   8.073  2.0439  1.6026  0.7598
  357MOL0     H47068   3.370  10.037   8.066  1.5896  0.9316 -0.9698
  357MOL0     H47069   3.264  10.198   7.824  2.2689  0.4142 -1.9385
  357MOL0     H47070   3.409  10.085   7.830 -0.1054 -1.5426  1.6058
  357MOL0     H47071   3.533  10.253   7.956 -0.8446  0.5472  0.0933
  357MOL0     H47072   3.391  10.355   7.991  2.0413  3.2632 -1.2424
  357MOL0     H47073   3.378  10.434   7.756  1.1910  0.8239 -0.7846
  357MOL0     H47074   3.530  10.475   7.837  1.4043 -0.9164 -0.0684
  357MOL0     H47075   3.530  10.213   7.697 -0.5184  0.9129  2.2073
  357MOL0     H47076   3.664  10.343   7.721  0.4875 -1.8818  1.6450
  357MOL0     H47077   3.337  10.237   7.526  1.4297 -1.3571  0.1891
  357MOL0     H47078   3.311  10.481   7.211  0.8133  1.0397  0.2578
  357MOL0     H47079   3.206  10.456   7.345  0.5345  0.5581 -1.4064
  357MOL0     H47080   3.207  10.215   7.303 -2.1390 -2.1465 -2.9017
  357MOL0     H47081   3.332  10.208   7.197  0.5390  1.0608  1.7239
  357MOL0     H47082   3.169  10.370   7.049  4.1775 -1.9470 -1.5353
  357MOL0     H47083   3.143  10.189   7.067 -5.1894 -0.1246 -0.1234
  357MOL0     H47084   2.998  10.246   7.267 -1.5709  0.7931  0.8849
  357MOL0     H47085   2.937  10.233   7.112  0.0001 -2.3916  1.5951
  357MOL0     H47086   2.751  10.283   7.294  1.6019  0.1633  1.9789
  357MOL0     H47087   2.557  10.365   7.359  1.4379  0.9959  1.6298
  357MOL0     H47088   2.353  10.762   7.571 -1.2824  2.5772  0.5149
  357MOL0     H47089   2.143  10.802   7.705  0.6750  0.4828  0.8927
  357MOL0     H47090   1.832  10.833   7.685 -1.1227 -1.9745  0.1985
  357MOL0     H47091   1.979  10.830   7.787  1.7681 -3.4574 -0.7065
  357MOL0     H47092   1.744  10.647   7.845  0.4111 -1.1253  3.1637
  357MOL0     H47093   1.705  10.824   7.882 -0.7462 -0.2587  0.0968
  357MOL0     H47094   1.910  10.816   8.031  1.7935 -1.9460 -0.4172
  357MOL0     H47095   1.899  10.638   8.024  0.1168 -0.1146 -0.0900
  357MOL0     H47096   1.789  10.764   8.210 -2.0135  3.2076  0.5649
  357MOL0     H47097   1.658  10.811   8.111 -0.2999 -0.2176 -3.2272
  357MOL0     H47098   1.744  10.519   8.160 -1.1056 -0.5498  0.6634
  357MOL0     H47099   1.646  10.573   8.020 -0.2857 -2.2382  0.8601
  357MOL0     H47100   1.463  10.642   8.161 -0.7115  0.9899  1.5155
  357MOL0     H47101   1.567  10.634   8.306  4.3853  0.6820 -0.9772
  357MOL0     H47102   1.484  10.411   8.133  0.2278 -1.3613  0.4386
  357MOL0     H47103   1.588  10.384   8.281 -0.6666  1.3952  1.7718
  357MOL0     H47104   1.391  10.462   8.428  2.5371  0.2001 -0.1071
  357MOL0     H47105   1.337  10.329   8.321 -2.4628 -0.3742  2.4565
  357MOL0     H47106   1.978  10.434   7.551 -1.0683  0.7264  0.0091
  357MOL0     H47107   2.185  10.393   7.440 -2.7798 -1.1189 -0.5873
  357MOL0     H47108   2.657  10.754   7.209  0.8564  0.6010 -3.1230
  357MOL0     H47109   2.877  10.653   7.114 -0.4917  3.2012  2.8220
  357MOL0     H47110   2.837   9.605   8.067  0.9927 -0.8852  2.5271
  357MOL0     H47111   2.740   9.411   7.959  1.4135 -3.6846 -1.0866
  357MOL0     H47112   2.950   9.009   7.706  0.7581  0.0201 -2.6609
  357MOL0     H47113   2.922   8.855   7.511 -1.3375 -3.5847  0.7531
  357MOL0     H47114   2.544   8.849   7.288 -0.1933 -0.7557 -1.3997
  357MOL0     H47115   2.512   8.733   7.425 -0.3922 -0.0599 -0.0480
  357MOL0     H47116   2.565   8.684   7.137  2.0569 -0.2550 -0.6039
  357MOL0     H47117   2.649   8.575   7.251  1.9971  2.6985  3.0584
  357MOL0     H47118   2.370   8.633   7.317  2.6200  2.1827  1.5523
  357MOL0     H47119   2.461   8.489   7.325 -1.8075 -0.5217 -0.6887
  357MOL0     H47120   2.275   8.500   7.153 -1.0333  3.0671 -1.2398
  357MOL0     H47121   2.364   8.623   7.065  0.0301 -0.2000 -0.6548
  357MOL0     H47122   2.552   8.274   6.932 -3.1347 -1.3313 -0.7092
  357MOL0     H47123   2.503   8.946   7.501 -2.5842  4.9668  3.6628
  357MOL0     H47124   2.525   9.091   7.677 -0.6271 -3.8179  2.6639
  358MOL0     O47125  10.759   7.700   1.051 -0.3408  0.2774  0.1246
  358MOL0     C47126  10.873   7.683   1.089 -0.8740  0.6451 -1.5697
  358MOL0     O47127  10.915   7.562   1.133 -0.0917 -0.0588  0.4413
  358MOL0     C47128  10.854   7.457   1.072 -0.9068 -0.3024  0.4173
  358MOL0     C47129  10.728   7.413   1.100  0.1689 -0.2293  0.7388
  358MOL0     C47130  10.664   7.301   1.033 -0.6164 -0.0683  0.2722
  358MOL0     C47131  10.737   7.237   0.929 -0.2037  0.1358 -1.4691
  358MOL0     O47132  10.692   7.135   0.845 -0.2217  0.5170  0.0745
  358MOL0     C47133  10.564   7.078   0.872  0.2270  0.1043  0.4494
  358MOL0     C47134  10.551   6.933   0.830 -0.0813 -0.6425 -0.3765
  358MOL0     C47135  10.436   6.856   0.908 -0.2494  0.0396  0.3747
  358MOL0     C47136  10.400   6.719   0.859  0.3233  0.9418 -0.3149
  358MOL0     C47137  10.346   6.613   0.966 -0.0824 -0.8846 -0.0034
  358MOL0     C47138  10.203   6.629   1.013  0.5776  0.5469 -0.6469
  358MOL0     C47139  10.182   6.540   1.130 -0.3082  0.5877  0.0722
  358MOL0     C47140  10.049   6.457   1.124 -0.0502 -0.9617  0.6277
  358MOL0     N47141  10.020   6.387   1.255  0.7619  0.5262 -0.1212
  358MOL0     C47142   9.934   6.436   1.350 -0.7537  0.0159 -0.3799
  358MOL0     C47143   9.955   6.343   1.448 -0.1231  0.2010 -0.5787
  358MOL0     C47144   9.896   6.362   1.580 -0.8131 -0.6143 -0.6455
  358MOL0     C47145   9.992   6.385   1.701 -0.2846  0.2070 -0.0315
  358MOL0     C47146  10.050   6.529   1.706  0.6749 -0.7427 -0.1117
  358MOL0     C47147  10.173   6.543   1.616  0.2067 -0.5054 -0.0475
  358MOL0     O47148  10.174   6.671   1.544  0.3033  0.4329  0.0843
  358MOL0     C47149  10.285   6.711   1.477  0.3974 -0.1046  0.5003
  358MOL0     C47150  10.376   6.620   1.424 -0.0751 -0.1556 -0.1445
  358MOL0     C47151  10.488   6.665   1.355  0.6868  0.0048  0.1677
  358MOL0     C47152  10.510   6.800   1.321  0.4451  0.1912 -0.6919
  358MOL0     C47153  10.622   6.847   1.243  1.1330  0.5042 -0.3693
  358MOL0     O47154  10.685   6.741   1.175  0.0351  0.5225 -0.5248
  358MOL0     C47155  10.805   6.771   1.123  0.6455 -0.3464 -0.9693
  358MOL0     C47156  10.904   6.861   1.169 -0.7108  0.4652 -1.0888
  358MOL0     C47157  11.025   6.874   1.112  0.0300  0.4070  0.3763
  358MOL0     C47158  11.054   6.791   1.005  0.6646  0.4222  1.0157
  358MOL0     O47159  11.176   6.783   0.940 -0.1740  1.1420  0.9533
  358MOL0     C47160  11.285   6.771   1.037 -0.0858  0.2655 -0.0103
  358MOL0     C47161  11.409   6.721   0.961 -0.4025 -0.4711  0.4240
  358MOL0     C47162  11.534   6.712   1.043  0.6048  0.4061 -1.0407
  358MOL0     C47163  11.647   6.693   0.945  0.7085  0.2123  0.5330
  358MOL0     C47164  11.784   6.685   1.025  0.2454  0.4315 -0.4545
  358MOL0     C47165  11.906   6.638   0.925  0.4630 -0.2260  0.1702
  358MOL0     C47166  12.045   6.624   1.002  0.0102  0.0553  0.7074
  358MOL0     C47167  12.152   6.593   0.900  0.5442 -0.1350 -0.1633
  358MOL0    Cl47168  12.148   6.425   0.841  0.3915  0.3891  0.4405
  358MOL0     C47169  10.959   6.692   0.962  0.8362  0.1943 -0.7565
  358MOL0     C47170  10.841   6.673   1.032  0.0053  0.1764  0.1160
  358MOL0     O47171  10.633   6.965   1.222  0.8217  0.5512 -0.6933
  358MOL0     C47172  10.413   6.895   1.376  0.3024  0.2662 -0.1064
  358MOL0     C47173  10.302   6.845   1.450 -0.3894  0.1617  0.2072
  358MOL0     N47174  10.027   6.233   1.414 -0.4592 -0.0499  0.7072
  358MOL0     N47175  10.065   6.262   1.292 -0.7220 -0.3821  0.0010
  358MOL0     C47176  10.860   7.285   0.894 -0.7818 -0.5732  0.4101
  358MOL0     C47177  10.926   7.390   0.963  0.2598 -0.4704 -0.6882
  358MOL0     C47178  10.942   7.807   1.127  0.1242  1.4165  0.1377
  358MOL0     C47179  10.886   7.939   1.152  0.1649 -0.2003 -0.7409
  358MOL0     C47180  10.968   8.042   1.187 -0.0793 -0.6852 -0.1142
  358MOL0     C47181  11.114   8.021   1.206  0.1859 -0.4478 -1.2634
  358MOL0     O47182  11.194   8.128   1.231  0.4600 -0.6923 -0.3264
  358MOL0     C47183  11.143   8.253   1.179  0.0734 -0.5747 -0.4877
  358MOL0     C47184  11.261   8.344   1.130 -0.7323 -0.3538  1.2275
  358MOL0     C47185  11.382   8.354   1.211  0.0217 -0.4717  0.0056
  358MOL0     C47186  11.502   8.415   1.145 -0.2390  0.0396 -0.2623
  358MOL0     C47187  11.589   8.443   1.257  0.7207  0.2188 -0.5016
  358MOL0     C47188  11.666   8.477   1.341  0.0317 -0.0339 -0.7539
  358MOL0     C47189  11.168   7.893   1.186  0.6867 -0.9802  0.2235
  358MOL0     C47190  11.079   7.789   1.151 -0.6524  0.3792 -0.1685
  358MOL0     H47191  10.668   7.476   1.165 -2.5515 -1.8369 -0.0637
  358MOL0     H47192  10.567   7.270   1.071  0.5049 -1.7757  1.9848
  358MOL0     H47193  10.485   7.145   0.835 -0.5092  1.8057  4.5832
  358MOL0     H47194  10.559   7.076   0.981  0.5387  0.2118  0.4655
  358MOL0     H47195  10.648   6.886   0.849 -1.0495 -2.5398  0.1023
  358MOL0     H47196  10.538   6.935   0.721  1.8662 -2.0545 -0.6815
  358MOL0     H47197  10.339   6.907   0.910 -1.0325 -1.4039  0.6981
  358MOL0     H47198  10.461   6.843   1.014 -0.9448 -4.9872  0.2054
  358MOL0     H47199  10.328   6.730   0.778  1.5140  2.3475 -1.2215
  358MOL0     H47200  10.486   6.679   0.803 -0.4163  1.1739 -1.6479
  358MOL0     H47201  10.403   6.620   1.059 -1.5837 -4.2405  1.3573
  358MOL0     H47202  10.360   6.519   0.912  2.2375  1.5271 -4.1128
  358MOL0     H47203  10.128   6.621   0.933 -2.2199 -1.5709  1.9520
  358MOL0     H47204  10.185   6.732   1.042 -2.4659 -0.4348  1.5347
  358MOL0     H47205  10.264   6.471   1.148 -1.5856  0.1486  6.5568
  358MOL0     H47206  10.167   6.596   1.223 -0.6690 -0.6301  0.7714
  358MOL0     H47207  10.051   6.377   1.049  2.7850 -1.9769  1.6273
  358MOL0     H47208   9.964   6.523   1.104 -0.8115 -2.0739  0.0763
  358MOL0     H47209   9.876   6.528   1.345 -2.3542 -0.9441 -0.2074
  358MOL0     H47210   9.838   6.275   1.613 -1.7731  0.7890  1.6301
  358MOL0     H47211   9.828   6.448   1.588 -0.7416 -0.2921 -2.9286
  358MOL0     H47212  10.066   6.305   1.705 -0.1453  0.2877 -0.7502
  358MOL0     H47213   9.925   6.364   1.785  0.6183 -1.5541  0.2874
  358MOL0     H47214   9.975   6.599   1.668  0.7311 -0.4931  0.2309
  358MOL0     H47215  10.081   6.567   1.804  0.5940 -3.3368  0.9972
  358MOL0     H47216  10.166   6.459   1.546  1.0575 -1.6620  1.2160
  358MOL0     H47217  10.270   6.518   1.660  2.0786  2.0273 -2.3786
  358MOL0     H47218  10.378   6.513   1.443  4.5138 -0.0858  1.0055
  358MOL0     H47219  10.556   6.588   1.321 -0.3500  0.7837 -4.3325
  358MOL0     H47220  10.894   6.941   1.242 -0.6387 -0.1703 -0.3658
  358MOL0     H47221  11.098   6.951   1.136  1.7972 -0.4775 -1.7183
  358MOL0     H47222  11.260   6.701   1.118 -1.0627 -0.8532 -1.2150
  358MOL0     H47223  11.311   6.866   1.085  2.2942 -1.2554  1.9623
  358MOL0     H47224  11.417   6.787   0.874 -0.4185 -1.9005 -0.6778
  358MOL0     H47225  11.392   6.622   0.918  0.3265 -0.5904  0.3937
  358MOL0     H47226  11.532   6.643   1.128  2.1255  1.5232 -0.0353
  358MOL0     H47227  11.540   6.808   1.095  1.7808 -0.4802  0.5808
  358MOL0     H47228  11.639   6.599   0.889 -1.6002  1.2405 -1.0070
  358MOL0     H47229  11.651   6.784   0.885  0.1558  2.0451  3.1005
  358MOL0     H47230  11.791   6.618   1.111  3.5288  1.2525  0.0828
  358MOL0     H47231  11.797   6.783   1.070 -0.0407  0.2021  0.1282
  358MOL0     H47232  11.921   6.713   0.847  0.4068  2.2405  2.3965
  358MOL0     H47233  11.877   6.555   0.861 -0.3940  1.5145 -1.8342
  358MOL0     H47234  12.076   6.716   1.052  0.5874 -1.3816  3.1724
  358MOL0     H47235  12.029   6.536   1.065  4.3331  0.6730  3.0113
  358MOL0     H47236  12.250   6.613   0.945  0.2098 -2.9033  2.1017
  358MOL0     H47237  12.144   6.658   0.812  2.6533 -0.4999 -0.6957
  358MOL0     H47238  10.986   6.611   0.894  1.3666 -0.9032  0.7141
  358MOL0     H47239  10.774   6.588   1.021 -1.8292  1.4741  0.8439
  358MOL0     H47240  10.413   7.000   1.348  1.3088  0.7489  1.5405
  358MOL0     H47241  10.232   6.922   1.481 -2.7091 -1.0626 -1.7301
  358MOL0     H47242  10.904   7.239   0.805 -1.0423  1.3799 -0.7771
  358MOL0     H47243  11.030   7.414   0.942  0.6752 -2.1607 -0.7507
  358MOL0     H47244  10.781   7.965   1.139  0.6518  2.0907 -0.3943
  358MOL0     H47245  10.922   8.135   1.221 -0.8334 -1.9364  2.5472
  358MOL0     H47246  11.092   8.294   1.267 -0.6769  0.2803 -1.3134
  358MOL0     H47247  11.088   8.238   1.086  1.3440  0.6161 -1.4694
  358MOL0     H47248  11.285   8.308   1.029 -1.2231  2.4156  0.0318
  358MOL0     H47249  11.222   8.446   1.126  2.0750  0.7821 -1.2481
  358MOL0     H47250  11.412   8.255   1.246  1.9507  0.8574  2.4092
  358MOL0     H47251  11.356   8.413   1.299  0.3998  0.7604 -0.6883
  358MOL0     H47252  11.539   8.351   1.064  0.6504  2.3287 -1.7853
  358MOL0     H47253  11.480   8.506   1.088  2.8830  0.2310 -1.3902
  358MOL0     H47254  11.729   8.492   1.427 -1.7574 -2.3393  1.0919
  358MOL0     H47255  11.273   7.869   1.194  0.0321 -4.6201 -0.6046
  358MOL0     H47256  11.127   7.692   1.145  0.8203  0.8990  2.0260
  359MOL0     O47257   8.248   3.726   4.092  0.5161 -0.8160  0.1091
  359MOL0     C47258   8.142   3.729   4.029  0.5652  0.5483  0.3586
  359MOL0     O47259   8.127   3.644   3.922 -0.2027  0.4242  0.4231
  359MOL0     C47260   8.228   3.564   3.884  0.2824 -0.7886 -0.7926
  359MOL0     C47261   8.212   3.425   3.897 -0.0944 -0.3514  0.0472
  359MOL0     C47262   8.320   3.332   3.876 -0.8144 -0.8947 -0.7172
  359MOL0     C47263   8.434   3.382   3.823 -0.5266  0.1030  0.1223
  359MOL0     O47264   8.545   3.311   3.786 -0.0179 -0.0521 -0.2554
  359MOL0     C47265   8.606   3.213   3.872 -0.7263  0.2291  1.1855
  359MOL0     C47266   8.681   3.114   3.784  0.2003 -0.4881  0.3781
  359MOL0     C47267   8.731   3.009   3.887 -0.1788 -0.5769 -0.3327
  359MOL0     C47268   8.799   2.911   3.792 -0.5477 -0.4845 -0.5604
  359MOL0     C47269   8.887   2.803   3.849  0.2590 -0.0963 -0.0206
  359MOL0     C47270   8.924   2.717   3.731 -0.4080  0.9871  0.3429
  359MOL0     C47271   8.998   2.590   3.792 -0.8159 -0.3814 -0.3204
  359MOL0     C47272   9.025   2.493   3.684  0.3784 -0.1277  0.7655
  359MOL0     N47273   9.094   2.364   3.725  0.2662 -0.2406  0.3379
  359MOL0     C47274   9.053   2.291   3.829  0.2901  0.1414  0.1904
  359MOL0     C47275   9.110   2.169   3.809 -0.2187 -0.7566  0.7755
  359MOL0     C47276   9.103   2.028   3.878 -0.1023 -0.4104  0.1477
  359MOL0     C47277   9.165   1.910   3.804 -0.3654  0.2267  0.3027
  359MOL0     C47278   9.211   1.785   3.885  0.3769  0.3136 -0.1793
  359MOL0     C47279   9.326   1.824   3.979 -0.3727 -0.2695  0.1186
  359MOL0     O47280   9.364   1.707   4.046  0.2250 -0.1376  0.0263
  359MOL0     C47281   9.492   1.662   4.036  0.6132  0.7317 -0.4189
  359MOL0     C47282   9.598   1.747   4.033  0.6998 -0.3765 -0.4554
  359MOL0     C47283   9.731   1.701   4.026 -0.1182  0.5559 -0.3715
  359MOL0     C47284   9.742   1.560   4.013  0.0695 -0.4928 -0.5514
  359MOL0     C47285   9.878   1.506   3.998  0.1581  0.8102 -1.3557
  359MOL0     O47286   9.882   1.378   3.945 -0.2994  0.4843  0.8292
  359MOL0     C47287  10.002   1.318   3.907 -0.4938  1.7958 -1.0394
  359MOL0     C47288  10.008   1.178   3.891 -0.5111 -0.1929 -0.1581
  359MOL0     C47289  10.119   1.104   3.861  0.3472  0.2698  1.3050
  359MOL0     C47290  10.240   1.164   3.856 -0.2977 -0.0164  0.1796
  359MOL0     O47291  10.350   1.084   3.853 -0.8654  0.4221 -0.1871
  359MOL0     C47292  10.455   1.142   3.765  0.5625 -0.0618 -0.0332
  359MOL0     C47293  10.568   1.051   3.738  0.6366  0.0691  0.2558
  359MOL0     C47294  10.534   0.926   3.645 -1.2479 -0.1910  0.8127
  359MOL0     C47295  10.662   0.841   3.639 -0.8406 -0.9786  0.7692
  359MOL0     C47296  10.652   0.703   3.565  0.4747 -1.4735  0.0614
  359MOL0     C47297  10.550   0.701   3.448  0.8689  1.7496  0.0638
  359MOL0     C47298  10.551   0.560   3.379 -0.6218 -0.3177 -0.3798
  359MOL0     C47299  10.494   0.544   3.236 -0.1223  0.4462  0.6090
  359MOL0    Cl47300  10.536   0.377   3.179 -0.2427  0.2779  0.2556
  359MOL0     C47301  10.239   1.306   3.848 -0.2150 -0.7070 -0.5952
  359MOL0     C47302  10.125   1.384   3.883  0.5472 -0.0885  0.3067
  359MOL0     O47303   9.971   1.567   4.050 -0.1486 -1.4005 -0.2823
  359MOL0     C47304   9.629   1.474   4.008 -0.4403 -0.2493  0.1125
  359MOL0     C47305   9.506   1.527   4.012 -0.0515  0.3996  0.6468
  359MOL0     N47306   9.200   2.189   3.702 -0.7037  0.8215 -0.2395
  359MOL0     N47307   9.195   2.309   3.662  0.1840  0.3912 -0.1951
  359MOL0     C47308   8.449   3.519   3.813 -0.2500 -0.6950 -0.2446
  359MOL0     C47309   8.346   3.609   3.847 -0.2271 -0.0434 -0.3227
  359MOL0     C47310   8.037   3.828   4.077 -0.5129  0.1720 -0.3102
  359MOL0     C47311   7.910   3.818   4.032 -0.3801 -0.1015 -0.4360
  359MOL0     C47312   7.816   3.923   4.071  0.1952 -0.2035  0.7160
  359MOL0     C47313   7.864   4.038   4.140  1.0816 -0.5034  0.6621
  359MOL0     O47314   7.777   4.136   4.184 -0.3269 -0.5767  0.2112
  359MOL0     C47315   7.649   4.155   4.126 -0.2626 -0.3434 -0.1768
  359MOL0     C47316   7.555   4.089   4.223  0.4188 -0.6400  0.3621
  359MOL0     C47317   7.532   4.173   4.354 -0.2855  0.7500  0.3129
  359MOL0     C47318   7.417   4.112   4.439  0.3910  0.3410  0.4757
  359MOL0     C47319   7.414   4.193   4.563 -0.1116 -1.1991 -0.4734
  359MOL0     C47320   7.411   4.280   4.655  0.5279  0.7803 -0.4126
  359MOL0     C47321   7.998   4.049   4.182 -0.6391  0.2665 -0.7803
  359MOL0     C47322   8.083   3.942   4.146  0.6110 -0.4167 -0.1995
  359MOL0     H47323   8.112   3.388   3.919  0.5779 -1.8979  0.5954
  359MOL0     H47324   8.317   3.224   3.884 -0.3018 -0.9007 -0.5695
  359MOL0     H47325   8.526   3.173   3.935 -2.0236  3.0071  1.4705
  359MOL0     H47326   8.684   3.259   3.932 -0.9246  3.1212 -0.5969
  359MOL0     H47327   8.757   3.166   3.726 -0.8439  1.2260  0.4893
  359MOL0     H47328   8.621   3.057   3.713  0.2435 -2.9190  2.1503
  359MOL0     H47329   8.650   2.970   3.948 -0.2651  2.9288  2.0954
  359MOL0     H47330   8.803   3.049   3.960  2.4402  1.8266 -3.8601
  359MOL0     H47331   8.722   2.872   3.726  0.8921 -0.6550 -2.2031
  359MOL0     H47332   8.869   2.961   3.724 -0.3896 -2.0660 -1.5865
  359MOL0     H47333   8.822   2.751   3.921 -0.7915  0.3539 -0.6253
  359MOL0     H47334   8.979   2.836   3.899  2.3023 -3.2491 -1.3530
  359MOL0     H47335   8.986   2.774   3.662 -2.4635  0.5127 -2.0458
  359MOL0     H47336   8.834   2.687   3.677 -1.9224 -0.4643  3.4070
  359MOL0     H47337   9.095   2.622   3.833 -0.6384 -0.8728 -0.3545
  359MOL0     H47338   8.932   2.531   3.855 -0.6539  0.0206  0.2408
  359MOL0     H47339   9.100   2.534   3.616  0.3256 -1.1080  0.1064
  359MOL0     H47340   8.932   2.479   3.629  0.9963 -0.3280 -0.2605
  359MOL0     H47341   8.981   2.319   3.906 -1.3457  1.3902 -1.7150
  359MOL0     H47342   9.004   1.995   3.912  0.4280 -1.1994  0.9594
  359MOL0     H47343   9.152   2.042   3.974 -0.5988 -1.1901  0.5276
  359MOL0     H47344   9.254   1.938   3.747 -0.9659 -3.1043 -2.5670
  359MOL0     H47345   9.092   1.878   3.730 -2.4851  1.6136  1.6899
  359MOL0     H47346   9.122   1.747   3.936  2.5209 -1.7095  2.3940
  359MOL0     H47347   9.243   1.713   3.808 -0.7233  0.6675 -0.9904
  359MOL0     H47348   9.298   1.902   4.050 -1.1050 -0.9843  0.6375
  359MOL0     H47349   9.406   1.863   3.915 -0.9870  3.1105  1.2231
  359MOL0     H47350   9.582   1.854   4.029  2.5246 -0.0852 -0.6614
  359MOL0     H47351   9.816   1.768   4.031  0.1128  0.3336 -1.1127
  359MOL0     H47352   9.916   1.126   3.915 -1.3677  0.1944 -2.3318
  359MOL0     H47353  10.104   0.997   3.854  0.7947  0.2811 -0.4445
  359MOL0     H47354  10.496   1.233   3.809  3.2326 -2.3151  2.5829
  359MOL0     H47355  10.396   1.152   3.673 -1.7482 -0.1203  1.3565
  359MOL0     H47356  10.594   1.013   3.837 -4.8236 -2.6373  1.0314
  359MOL0     H47357  10.653   1.106   3.695 -1.8395  1.9941 -2.6533
  359MOL0     H47358  10.508   0.963   3.545 -1.1707 -1.3302  0.3556
  359MOL0     H47359  10.461   0.859   3.691 -0.7591 -1.9270 -0.7549
  359MOL0     H47360  10.746   0.896   3.596 -1.3172 -1.6224 -1.0897
  359MOL0     H47361  10.695   0.817   3.740  3.1529  0.7891  0.0858
  359MOL0     H47362  10.613   0.627   3.633 -1.3928 -2.2712 -1.7770
  359MOL0     H47363  10.748   0.686   3.516 -0.8503 -1.1272 -2.8758
  359MOL0     H47364  10.591   0.761   3.366 -0.4896  1.0945 -1.1549
  359MOL0     H47365  10.445   0.720   3.473  0.1063 -2.2705  0.5881
  359MOL0     H47366  10.656   0.529   3.377  0.1115  1.5872  2.3713
  359MOL0     H47367  10.502   0.494   3.450 -0.2597  1.0003  1.1586
  359MOL0     H47368  10.547   0.613   3.170 -2.8400  0.5379 -1.6734
  359MOL0     H47369  10.386   0.560   3.237 -0.4708 -0.1973  6.1872
  359MOL0     H47370  10.323   1.369   3.820 -2.2900  1.0564 -3.3686
  359MOL0     H47371  10.126   1.492   3.877 -1.7222  0.1353  2.4105
  359MOL0     H47372   9.626   1.372   3.973 -4.2030  0.4760 -2.3403
  359MOL0     H47373   9.419   1.464   3.996 -0.5532  1.4199 -0.8253
  359MOL0     H47374   8.534   3.571   3.773  0.1219 -1.6487 -0.7337
  359MOL0     H47375   8.368   3.715   3.854 -1.2713  0.1021  1.5537
  359MOL0     H47376   7.871   3.725   3.993 -1.5024 -1.1064  2.7564
  359MOL0     H47377   7.709   3.909   4.058  0.5615 -1.7247 -1.3150
  359MOL0     H47378   7.644   4.102   4.031 -0.9551 -1.2883  0.3793
  359MOL0     H47379   7.625   4.262   4.116  1.4678  0.0177 -0.8575
  359MOL0     H47380   7.457   4.081   4.175  0.0581  1.4514  0.6469
  359MOL0     H47381   7.592   3.987   4.237  0.8639 -0.6947 -0.9974
  359MOL0     H47382   7.536   4.277   4.321 -2.4184 -0.6905 -5.6855
  359MOL0     H47383   7.625   4.157   4.410  2.1217  2.3689 -2.8961
  359MOL0     H47384   7.326   4.129   4.380 -1.2871  0.2236  2.9017
  359MOL0     H47385   7.437   4.005   4.433  0.0359  0.3210 -0.7590
  359MOL0     H47386   7.401   4.339   4.745 -0.1330 -1.8872  1.3709
  359MOL0     H47387   8.030   4.130   4.246 -0.6104 -1.0636  0.9728
  359MOL0     H47388   8.186   3.953   4.177  0.7627 -0.7894 -0.5453
  360MOL0     O47389   5.358   1.773   3.917 -0.0215  0.2612 -0.2244
  360MOL0     C47390   5.345   1.668   3.966 -0.5343 -0.1568  0.3484
  360MOL0     O47391   5.382   1.644   4.097  0.1272 -0.2105 -0.2046
  360MOL0     C47392   5.480   1.721   4.154  0.5689 -0.6858 -0.7348
  360MOL0     C47393   5.427   1.812   4.250  0.3318  0.4857 -0.6888
  360MOL0     C47394   5.518   1.892   4.317  0.8234  0.5121  0.0677
  360MOL0     C47395   5.659   1.871   4.318 -0.1375 -0.4841  0.2045
  360MOL0     O47396   5.745   1.945   4.398 -0.4255  0.6627  0.3455
  360MOL0     C47397   5.723   2.085   4.420 -0.2584 -0.0590 -0.4889
  360MOL0     C47398   5.860   2.149   4.418  1.1538 -0.0008 -0.0095
  360MOL0     C47399   5.946   2.111   4.537  0.2948 -0.8296  1.0089
  360MOL0     C47400   6.094   2.122   4.496 -0.1999  0.2744  0.0208
  360MOL0     C47401   6.186   2.069   4.603  0.4368  0.5929 -0.2346
  360MOL0     C47402   6.336   2.046   4.574 -0.5853 -0.6615 -0.0728
  360MOL0     C47403   6.374   1.938   4.488 -0.5534  0.1735  0.3158
  360MOL0     C47404   6.525   1.948   4.447 -0.4834  0.3398 -0.1819
  360MOL0     N47405   6.558   1.863   4.332  0.2394 -0.4549  0.9279
  360MOL0     C47406   6.480   1.764   4.270 -0.3672  0.1842  0.6573
  360MOL0     C47407   6.547   1.731   4.153 -0.1522  0.1971 -0.4599
  360MOL0     C47408   6.524   1.614   4.069 -0.6097 -0.5636  0.6106
  360MOL0     C47409   6.601   1.497   4.104 -0.3661  0.6730  0.7497
  360MOL0     C47410   6.752   1.502   4.069 -0.0649 -0.2202  0.0515
  360MOL0     C47411   6.825   1.367   4.086 -0.1965 -0.0955 -0.1220
  360MOL0     O47412   6.814   1.317   4.223  0.3975 -0.1240 -0.1878
  360MOL0     C47413   6.811   1.175   4.228  1.4897 -0.6563 -1.0750
  360MOL0     C47414   6.935   1.105   4.240  0.3982 -0.1427  0.0269
  360MOL0     C47415   6.933   0.965   4.243  0.1181  0.4551  0.7822
  360MOL0     C47416   6.817   0.890   4.226 -0.1464 -0.0272 -0.5432
  360MOL0     C47417   6.827   0.740   4.203 -0.3302  0.5178  0.0494
  360MOL0     O47418   6.700   0.675   4.206 -0.2185 -0.0990 -0.0348
  360MOL0     C47419   6.708   0.536   4.179  0.4837 -0.4240 -0.1016
  360MOL0     C47420   6.657   0.491   4.062 -0.4687  0.5643  0.3987
  360MOL0     C47421   6.662   0.352   4.032  0.3334 -0.3055 -0.2336
  360MOL0     C47422   6.713   0.261   4.132 -0.1337 -1.2454  0.2581
  360MOL0     O47423   6.716   0.130   4.102  0.2430  1.0108 -0.3017
  360MOL0     C47424   6.831   0.097   4.018  0.4174  0.1727  0.2891
  360MOL0     C47425   6.964   0.070   4.102 -0.1447 -0.0275  0.2734
  360MOL0     C47426   7.042   0.204   4.115  0.0202  0.1566  0.5358
  360MOL0     C47427   7.132   0.199   4.225  1.0382 -0.2963 -0.2322
  360MOL0     C47428   7.227   0.319   4.247 -0.1586  0.4853 -0.0115
  360MOL0     C47429   7.306   0.300   4.373 -1.3120  0.2273  0.0429
  360MOL0     C47430   7.410   0.416   4.375 -0.8644  0.1830 -0.9103
  360MOL0     C47431   7.507   0.372   4.487  1.2769  0.4951 -0.0618
  360MOL0    Cl47432   7.435   0.328   4.646  0.2712  0.0255  0.4310
  360MOL0     C47433   6.756   0.306   4.258  0.6285 -0.4517  0.3400
  360MOL0     C47434   6.760   0.442   4.279  0.0896  0.1027 -0.0927
  360MOL0     O47435   6.936   0.681   4.183 -0.5912 -0.6605  0.2088
  360MOL0     C47436   6.695   0.966   4.222  0.1310  0.7665  0.6067
  360MOL0     C47437   6.693   1.101   4.200 -0.0828 -0.7171 -0.5709
  360MOL0     N47438   6.663   1.802   4.156  0.0748 -0.1333  0.6145
  360MOL0     N47439   6.665   1.889   4.252 -0.3753 -0.1918  0.0951
  360MOL0     C47440   5.706   1.763   4.230 -0.8661  0.5096 -0.6338
  360MOL0     C47441   5.626   1.696   4.146  1.5801  0.6978  1.3816
  360MOL0     C47442   5.273   1.576   3.877 -0.5183 -0.0051 -0.3865
  360MOL0     C47443   5.248   1.608   3.746 -0.3772  0.2735  0.2768
  360MOL0     C47444   5.195   1.520   3.652 -0.7571 -0.2922  0.2377
  360MOL0     C47445   5.145   1.397   3.700 -0.6202 -0.6779  0.2003
  360MOL0     O47446   5.080   1.320   3.604  0.0333  0.3479 -0.2777
  360MOL0     C47447   5.037   1.184   3.649 -0.0324  1.4802  0.1723
  360MOL0     C47448   4.930   1.132   3.552  0.7939 -0.9346 -0.0083
  360MOL0     C47449   4.798   1.203   3.564 -0.4922 -0.1135 -0.6069
  360MOL0     C47450   4.693   1.124   3.504 -0.5653  0.8573  0.0166
  360MOL0     C47451   4.716   1.099   3.360  0.2954 -1.1711  0.2677
  360MOL0     C47452   4.724   1.104   3.234 -0.4420  0.8355 -0.4113
  360MOL0     C47453   5.168   1.357   3.830 -0.9281 -0.3865  0.1416
  360MOL0     C47454   5.241   1.444   3.919 -0.5454  0.3310  0.7385
  360MOL0     H47455   5.323   1.827   4.275  0.8177  1.4150  0.9371
  360MOL0     H47456   5.479   1.977   4.372 -4.3148 -1.2979 -0.2487
  360MOL0     H47457   5.667   2.114   4.509  1.9065  2.3650  0.2012
  360MOL0     H47458   5.673   2.110   4.326  2.8051 -1.6880 -2.7587
  360MOL0     H47459   5.833   2.254   4.406 -0.1876 -0.3249  0.0076
  360MOL0     H47460   5.913   2.114   4.329 -2.5264  0.6993 -2.7509
  360MOL0     H47461   5.910   2.013   4.569 -2.0423 -0.4465 -0.2766
  360MOL0     H47462   5.941   2.180   4.621 -0.2558  0.5956 -0.1548
  360MOL0     H47463   6.106   2.059   4.408 -0.8224  0.2482 -0.0493
  360MOL0     H47464   6.128   2.222   4.467  0.1030  0.1103 -0.1941
  360MOL0     H47465   6.148   1.972   4.637  3.1804 -0.4126  0.1911
  360MOL0     H47466   6.177   2.141   4.685  1.4335  0.4558  0.0090
  360MOL0     H47467   6.385   2.047   4.671  1.1163 -1.6913 -0.8694
  360MOL0     H47468   6.368   2.138   4.523  0.5023 -0.5728  0.7516
  360MOL0     H47469   6.352   1.840   4.533  1.8621 -1.9720 -2.7723
  360MOL0     H47470   6.320   1.957   4.395 -1.6762 -1.3734  0.6035
  360MOL0     H47471   6.586   1.931   4.536 -1.3173  2.1251  0.7944
  360MOL0     H47472   6.553   2.051   4.423 -1.0462  1.0590  2.0459
  360MOL0     H47473   6.389   1.717   4.305 -0.3170 -3.6095 -3.4165
  360MOL0     H47474   6.560   1.652   3.973 -0.2113  0.1093  1.0198
  360MOL0     H47475   6.418   1.591   4.058 -2.1430  4.9354  1.2653
  360MOL0     H47476   6.561   1.412   4.049 -0.5557  0.9738  0.4148
  360MOL0     H47477   6.581   1.481   4.211 -0.9239 -1.8501  0.3181
  360MOL0     H47478   6.758   1.525   3.962 -3.1630  2.7998  0.3439
  360MOL0     H47479   6.810   1.586   4.111 -0.3683 -0.3502  0.7540
  360MOL0     H47480   6.930   1.361   4.056 -0.4242 -2.5569 -0.6082
  360MOL0     H47481   6.776   1.298   4.017  0.7303 -0.1038 -0.7795
  360MOL0     H47482   7.020   1.171   4.244 -1.2687  2.1076  0.1282
  360MOL0     H47483   7.027   0.911   4.248 -1.6506 -3.3479 -2.0989
  360MOL0     H47484   6.622   0.567   3.992 -0.6246 -0.0399 -0.1860
  360MOL0     H47485   6.620   0.321   3.937 -3.2103  1.6307  0.5262
  360MOL0     H47486   6.843   0.177   3.945 -3.8737 -0.7841 -1.7675
  360MOL0     H47487   6.806   0.012   3.954  0.0333  1.0159 -0.6989
  360MOL0     H47488   7.024  -0.006   4.050  0.2857  1.0079 -0.7709
  360MOL0     H47489   6.935   0.044   4.204  0.5361  1.5297  0.8984
  360MOL0     H47490   6.974   0.289   4.128  2.3431  1.9010  2.0753
  360MOL0     H47491   7.091   0.216   4.017 -3.5648 -0.6167 -1.5298
  360MOL0     H47492   7.078   0.203   4.320  2.1744  5.4989  0.5410
  360MOL0     H47493   7.197   0.112   4.218  1.8261 -0.0788  2.8674
  360MOL0     H47494   7.162   0.406   4.238 -6.6230 -3.2741  2.9797
  360MOL0     H47495   7.302   0.315   4.168  0.9129 -2.6024  0.9981
  360MOL0     H47496   7.352   0.201   4.373 -0.6653  0.2429  5.1379
  360MOL0     H47497   7.239   0.312   4.459  0.2197 -3.1506  1.9022
  360MOL0     H47498   7.466   0.446   4.286 -0.6923  1.0129 -0.5356
  360MOL0     H47499   7.359   0.511   4.392  2.4914  2.2228 -1.3288
  360MOL0     H47500   7.574   0.457   4.505  0.9212  1.1795 -1.8221
  360MOL0     H47501   7.566   0.286   4.454 -0.6670  0.1222 -2.8548
  360MOL0     H47502   6.799   0.230   4.323 -0.2942 -2.0691 -0.8682
  360MOL0     H47503   6.787   0.482   4.377 -0.8963 -3.8461  1.9785
  360MOL0     H47504   6.599   0.915   4.225 -1.0799  2.7113 -1.3613
  360MOL0     H47505   6.605   1.160   4.180 -2.6538 -3.0770  2.6505
  360MOL0     H47506   5.807   1.723   4.220 -0.4340  0.9336  1.5121
  360MOL0     H47507   5.678   1.626   4.081 -0.4415 -1.4528  1.9385
  360MOL0     H47508   5.268   1.708   3.708  0.4021  0.3832  0.9400
  360MOL0     H47509   5.174   1.562   3.555 -1.8456  0.3032  0.7111
  360MOL0     H47510   4.998   1.165   3.749  2.1064 -0.9205  0.6717
  360MOL0     H47511   5.118   1.110   3.645  0.8905  1.9834  4.6516
  360MOL0     H47512   4.980   1.145   3.455  0.1096  1.0116 -0.1618
  360MOL0     H47513   4.907   1.027   3.567 -2.4614 -0.5829 -1.6822
  360MOL0     H47514   4.817   1.308   3.540  0.4048  0.1500  1.0478
  360MOL0     H47515   4.778   1.214   3.671  3.2787  1.9555  0.0701
  360MOL0     H47516   4.683   1.034   3.566  2.9477 -0.0141 -0.4590
  360MOL0     H47517   4.598   1.178   3.507  0.2226  2.7931 -3.5466
  360MOL0     H47518   4.754   1.102   3.132  0.1378 -2.2178 -0.2702
  360MOL0     H47519   5.126   1.274   3.887  2.1632  0.1286  3.5622
  360MOL0     H47520   5.270   1.423   4.022 -0.5180 -1.2643  0.4379
  361MOL0     O47521   4.483  11.361   3.365  0.5595 -0.0401  0.9993
  361MOL0     C47522   4.574  11.299   3.417  0.1356 -0.3913 -0.0745
  361MOL0     O47523   4.644  11.342   3.530  0.5664  0.2731  0.2946
  361MOL0     C47524   4.618  11.455   3.591  0.2183  0.0095 -0.5001
  361MOL0     C47525   4.611  11.578   3.529 -0.8266  0.2824  1.0091
  361MOL0     C47526   4.590  11.701   3.593 -0.6044 -0.0404  0.2285
  361MOL0     C47527   4.549  11.691   3.726 -0.0836 -0.4378  0.9179
  361MOL0     O47528   4.537  11.801   3.806 -0.2458 -0.4132 -0.4616
  361MOL0     C47529   4.664  11.829   3.866 -0.0317 -0.1761  0.2299
  361MOL0     C47530   4.692  11.784   4.010 -0.7043  0.4755 -0.1508
  361MOL0     C47531   4.594  11.836   4.112 -0.4928 -0.4480 -1.2596
  361MOL0     C47532   4.640  11.979   4.169  0.0869 -0.6378 -0.2035
  361MOL0     C47533   4.533  12.037   4.262  0.1204  0.6137 -0.5310
  361MOL0     C47534   4.599  12.145   4.351 -1.2770 -0.8416  0.0124
  361MOL0     C47535   4.625  12.268   4.256  0.7701 -0.8294 -0.2104
  361MOL0     C47536   4.611  12.408   4.323  0.1118 -0.3403 -0.3809
  361MOL0     N47537   4.710  12.418   4.436  0.4961 -0.5227  0.7602
  361MOL0     C47538   4.713  12.355   4.552  0.3401 -0.6861  0.2196
  361MOL0     C47539   4.840  12.356   4.594  0.1563 -0.4094 -0.1235
  361MOL0     C47540   4.916  12.305   4.718  0.7557  0.6452  0.8574
  361MOL0     C47541   4.938  12.415   4.820 -0.6529 -0.5573 -0.9453
  361MOL0     C47542   5.051  12.512   4.777  0.5920 -0.4366 -0.2440
  361MOL0     C47543   5.117  12.577   4.893  0.5141  0.0370  0.5307
  361MOL0     O47544   5.050  12.703   4.918 -0.1972 -0.2981  0.4828
  361MOL0     C47545   5.097  12.781   5.018  0.2004 -0.5113 -1.0809
  361MOL0     C47546   5.171  12.736   5.134 -0.0071 -0.2680 -0.1571
  361MOL0     C47547   5.185  12.827   5.241 -1.1814 -0.8600 -0.0422
  361MOL0     C47548   5.129  12.955   5.238  0.1719 -1.1880 -0.1439
  361MOL0     C47549   5.137  13.047   5.364  0.0078  0.0758  0.0888
  361MOL0     O47550   5.096  13.177   5.338  0.1570  0.0997  0.4731
  361MOL0     C47551   5.120  13.268   5.440 -0.8259 -0.3796  0.2634
  361MOL0     C47552   5.235  13.351   5.454 -0.7516  1.1983  0.1211
  361MOL0     C47553   5.247  13.445   5.549  0.5784 -0.8046  0.1004
  361MOL0     C47554   5.149  13.468   5.642 -0.8693  0.1790  0.3557
  361MOL0     O47555   5.173  13.564   5.734 -1.1119 -0.4835 -0.1126
  361MOL0     C47556   5.255  13.532   5.844  0.0405 -0.2642  0.5717
  361MOL0     C47557   5.331  13.654   5.907 -0.8576  0.0202  0.9640
  361MOL0     C47558   5.451  13.688   5.809  0.6163 -1.3989 -0.3941
  361MOL0     C47559   5.576  13.609   5.848 -0.3379 -0.1146 -0.4084
  361MOL0     C47560   5.694  13.662   5.769 -0.9924 -0.3203 -0.1866
  361MOL0     C47561   5.721  13.597   5.635 -0.0589 -0.4439  0.1007
  361MOL0     C47562   5.847  13.659   5.571 -0.1124 -0.2603  0.5068
  361MOL0     C47563   5.847  13.617   5.430  0.0082 -0.4887 -0.2428
  361MOL0    Cl47564   5.913  13.453   5.397  0.0981 -0.3890 -0.2815
  361MOL0     C47565   5.029  13.397   5.633 -0.2562 -0.1729  0.0444
  361MOL0     C47566   5.019  13.301   5.530  0.0667 -0.1329  0.4369
  361MOL0     O47567   5.169  13.003   5.470 -0.1804 -0.8839  0.5667
  361MOL0     C47568   5.064  13.002   5.122 -0.4783 -0.0652  0.4217
  361MOL0     C47569   5.040  12.914   5.022  0.3168 -0.8075 -0.9935
  361MOL0     N47570   4.912  12.420   4.487 -0.1609 -0.1445 -0.5547
  361MOL0     N47571   4.835  12.460   4.397  0.2272  0.2714 -0.6416
  361MOL0     C47572   4.545  11.568   3.783  0.1338 -0.7169 -0.4099
  361MOL0     C47573   4.582  11.449   3.720  0.7991 -0.5510 -0.0916
  361MOL0     C47574   4.607  11.162   3.359 -0.7334 -0.1820 -0.0606
  361MOL0     C47575   4.731  11.106   3.395  0.2849  0.2139  0.1869
  361MOL0     C47576   4.775  10.995   3.334  0.6869 -0.6916 -0.6718
  361MOL0     C47577   4.698  10.929   3.232  0.3125 -0.6566  0.2340
  361MOL0     O47578   4.757  10.825   3.176 -0.0079 -0.7071 -0.0567
  361MOL0     C47579   4.694  10.757   3.058  0.3866  0.2444  0.2061
  361MOL0     C47580   4.770  10.630   3.011 -0.1403 -0.1820 -1.0601
  361MOL0     C47581   4.694  10.539   2.908  0.2185 -0.2567  0.1453
  361MOL0     C47582   4.776  10.421   2.861  0.2744  0.3051 -0.2821
  361MOL0     C47583   4.804  10.336   2.975 -0.4744 -0.2686  0.2249
  361MOL0     C47584   4.823  10.256   3.059  0.9475  0.1146  0.8156
  361MOL0     C47585   4.570  10.988   3.192  0.0045 -0.1255  0.5769
  361MOL0     C47586   4.529  11.106   3.258 -0.9114 -0.4390 -0.0944
  361MOL0     H47587   4.613  11.580   3.420  2.5452  0.7773  0.9887
  361MOL0     H47588   4.588  11.790   3.531 -0.8169 -0.6034 -0.5906
  361MOL0     H47589   4.665  11.938   3.876 -1.1007  0.0455 -1.5853
  361MOL0     H47590   4.744  11.794   3.801  0.5320  1.7649 -0.1850
  361MOL0     H47591   4.797  11.808   4.032  0.0037 -0.5790 -2.0558
  361MOL0     H47592   4.706  11.676   4.013  3.6559  0.8587  0.3705
  361MOL0     H47593   4.582  11.767   4.196 -0.0260 -0.0016 -0.8227
  361MOL0     H47594   4.500  11.837   4.056 -0.5242 -2.1658 -1.3127
  361MOL0     H47595   4.741  11.959   4.208  0.7013  1.0370 -0.8418
  361MOL0     H47596   4.644  12.049   4.085 -2.9464 -0.7061 -0.4937
  361MOL0     H47597   4.492  11.963   4.331 -0.3043  1.3466  0.0150
  361MOL0     H47598   4.449  12.056   4.194  0.0720 -0.0786 -0.6690
  361MOL0     H47599   4.702  12.119   4.379 -0.1215  1.4841 -1.6954
  361MOL0     H47600   4.538  12.168   4.439  2.3912 -1.3052  2.9021
  361MOL0     H47601   4.720  12.264   4.201  2.5184  1.6368  2.3200
  361MOL0     H47602   4.542  12.266   4.186  2.2940 -1.1824 -2.1044
  361MOL0     H47603   4.510  12.423   4.363 -0.6068 -1.2623 -1.7678
  361MOL0     H47604   4.646  12.479   4.249  1.5184 -0.1635  0.4204
  361MOL0     H47605   4.633  12.310   4.610  0.7311  0.3271  1.5921
  361MOL0     H47606   5.013  12.262   4.689  1.2409  0.6955  2.3021
  361MOL0     H47607   4.852  12.224   4.754 -2.6994  1.6585 -2.4020
  361MOL0     H47608   4.961  12.371   4.918  1.5927 -2.8806 -2.3790
  361MOL0     H47609   4.845  12.473   4.821 -1.0398 -0.9858 -3.7825
  361MOL0     H47610   5.131  12.449   4.736  0.4424 -0.0037 -1.2256
  361MOL0     H47611   4.998  12.578   4.708  1.7314  3.2453  2.0872
  361MOL0     H47612   5.222  12.599   4.877  0.4781 -0.1994 -0.0208
  361MOL0     H47613   5.123  12.511   4.980  1.1511 -0.6922 -0.0620
  361MOL0     H47614   5.231  12.646   5.119  4.6122  2.3914  0.7298
  361MOL0     H47615   5.235  12.800   5.333  1.3370  1.5478 -0.5826
  361MOL0     H47616   5.316  13.337   5.383  0.0554 -0.6270  1.3199
  361MOL0     H47617   5.331  13.514   5.545 -1.8591  2.5447 -5.3902
  361MOL0     H47618   5.318  13.448   5.814 -0.0418  0.3482 -1.4771
  361MOL0     H47619   5.190  13.489   5.921  0.1550 -2.8624 -0.6631
  361MOL0     H47620   5.366  13.629   6.007 -2.0105 -1.4912  1.0379
  361MOL0     H47621   5.264  13.739   5.924  0.6971  1.3599  0.6560
  361MOL0     H47622   5.472  13.795   5.817  2.2297 -1.4908 -2.6352
  361MOL0     H47623   5.426  13.666   5.705  4.2964 -1.3379 -1.4398
  361MOL0     H47624   5.594  13.618   5.956 -0.4556  1.7537 -0.5221
  361MOL0     H47625   5.556  13.503   5.829 -1.5449 -0.5713  2.7962
  361MOL0     H47626   5.782  13.656   5.834 -1.5125  1.3025  0.7210
  361MOL0     H47627   5.667  13.767   5.754  1.2419  0.0608 -2.0664
  361MOL0     H47628   5.637  13.616   5.567 -1.7493  1.8193  2.6266
  361MOL0     H47629   5.743  13.491   5.649 -0.2541 -0.3223  1.4905
  361MOL0     H47630   5.840  13.768   5.576 -1.3699 -0.3788  3.2679
  361MOL0     H47631   5.936  13.628   5.627  0.5621  1.2711  0.3314
  361MOL0     H47632   5.917  13.694   5.394  1.9345 -1.6162  0.8711
  361MOL0     H47633   5.751  13.641   5.384 -0.4597  2.0865  1.7979
  361MOL0     H47634   4.941  13.417   5.693  1.1829  2.0529  1.6030
  361MOL0     H47635   4.933  13.235   5.518  1.3339 -1.3365 -3.4654
  361MOL0     H47636   5.011  13.097   5.115 -2.8763 -1.3457  0.4156
  361MOL0     H47637   4.983  12.946   4.936  1.3786  2.3459 -0.6803
  361MOL0     H47638   4.503  11.563   3.882  0.9870  2.7715  0.2553
  361MOL0     H47639   4.552  11.352   3.758  1.8432 -0.4103  1.1420
  361MOL0     H47640   4.784  11.150   3.478 -1.5057  2.7309  0.1143
  361MOL0     H47641   4.869  10.944   3.356  0.5690 -0.9068 -0.6712
  361MOL0     H47642   4.686  10.825   2.973 -4.1399  1.1369  1.1077
  361MOL0     H47643   4.595  10.717   3.081 -1.4408  3.8369 -0.6521
  361MOL0     H47644   4.870  10.660   2.980  1.6111 -1.4996  2.7177
  361MOL0     H47645   4.792  10.576   3.104 -0.3334  3.2204  1.1215
  361MOL0     H47646   4.672  10.599   2.819 -2.0070  0.6353  1.2116
  361MOL0     H47647   4.597  10.511   2.950  0.9465 -0.8964  1.4651
  361MOL0     H47648   4.722  10.363   2.786  1.3244 -0.5605 -0.3798
  361MOL0     H47649   4.867  10.457   2.813  1.0217 -0.7962  0.2747
  361MOL0     H47650   4.827  10.179   3.133  1.1007  1.4791  2.2704
  361MOL0     H47651   4.502  10.951   3.117  0.0615 -0.7856  0.8459
  361MOL0     H47652   4.457  11.176   3.217  0.6673  0.4457 -1.4753
  362MOL0     O47653   2.044  10.961   6.749  0.1323  0.5918 -0.4912
  362MOL0     C47654   1.998  10.881   6.826  0.2395 -0.0869  0.3622
  362MOL0     O47655   2.038  10.747   6.838 -0.7504 -0.1246  0.4823
  362MOL0     C47656   2.170  10.716   6.810 -0.6082 -0.2857 -0.7225
  362MOL0     C47657   2.281  10.799   6.806 -0.0331  0.3660 -0.1941
  362MOL0     C47658   2.413  10.740   6.812 -0.2804 -0.4238 -0.1780
  362MOL0     C47659   2.446  10.608   6.800 -0.1423  0.2876 -0.3360
  362MOL0     O47660   2.577  10.575   6.796 -0.2304  0.2403  0.1456
  362MOL0     C47661   2.622  10.450   6.856 -0.2581  0.2701 -0.5991
  362MOL0     C47662   2.764  10.431   6.817  0.0784 -1.0142 -1.0407
  362MOL0     C47663   2.846  10.566   6.803 -0.0595  0.4610  0.5099
  362MOL0     C47664   2.994  10.547   6.816  0.9163  0.2976  0.0891
  362MOL0     C47665   3.056  10.673   6.750 -0.3783  0.9938 -0.9815
  362MOL0     C47666   3.068  10.678   6.601  0.4864  0.0822  0.4666
  362MOL0     C47667   3.123  10.809   6.534 -1.1648  0.5185 -0.8272
  362MOL0     C47668   3.271  10.822   6.550  0.9933  0.1086  0.4792
  362MOL0     N47669   3.346  10.757   6.446  0.2615 -0.2321  0.9908
  362MOL0     C47670   3.390  10.627   6.435 -0.4345 -0.6422  0.5262
  362MOL0     C47671   3.472  10.633   6.328 -0.2962 -0.2373  0.1935
  362MOL0     C47672   3.559  10.522   6.301  0.5545  0.3105  0.4880
  362MOL0     C47673   3.480  10.399   6.259 -0.5771 -0.1955 -1.5372
  362MOL0     C47674   3.560  10.297   6.179  0.3290  0.1703  0.5370
  362MOL0     C47675   3.685  10.247   6.258 -0.0516 -0.4948 -0.2534
  362MOL0     O47676   3.756  10.157   6.168 -0.2542  0.1641  0.5477
  362MOL0     C47677   3.831  10.194   6.057  0.2780  0.2094 -0.2083
  362MOL0     C47678   3.875  10.088   5.970 -0.4546  0.2592 -0.6627
  362MOL0     C47679   3.920  10.115   5.842  0.7274  0.4747  0.5548
  362MOL0     C47680   3.944  10.249   5.803  0.7240 -0.2664  0.4256
  362MOL0     C47681   3.995  10.269   5.668 -0.3382  0.3020  0.1828
  362MOL0     O47682   4.038  10.163   5.606 -0.2853 -0.4649 -0.5268
  362MOL0     C47683   4.119  10.158   5.498  0.4904  0.2434  0.2149
  362MOL0     C47684   4.089  10.067   5.390  0.0987 -0.1089  0.7084
  362MOL0     C47685   4.158  10.076   5.274 -0.8414  1.0104  0.1151
  362MOL0     C47686   4.260  10.164   5.253 -0.4602 -0.4651 -0.8614
  362MOL0     O47687   4.327  10.177   5.137 -0.4539 -0.0991 -0.7223
  362MOL0     C47688   4.260  10.135   5.018  0.0805  0.2868  0.0229
  362MOL0     C47689   4.346  10.168   4.898  0.8025  0.4011  0.6705
  362MOL0     C47690   4.389  10.315   4.882 -0.9607  0.5347 -0.4989
  362MOL0     C47691   4.500  10.371   4.973  0.9186 -0.8192 -0.6678
  362MOL0     C47692   4.539  10.513   4.926  0.2032  0.4931  0.2249
  362MOL0     C47693   4.623  10.597   5.021 -0.2714  0.4028 -0.4196
  362MOL0     C47694   4.776  10.562   5.053 -0.0334 -0.3894  0.0973
  362MOL0     C47695   4.858  10.560   4.933  0.2992  0.0250 -0.3827
  362MOL0    Cl47696   4.835  10.720   4.848  1.1384  0.0954 -0.0793
  362MOL0     C47697   4.294  10.250   5.364 -0.6607 -0.1063 -0.2750
  362MOL0     C47698   4.223  10.249   5.485 -0.9205  0.3710  0.3978
  362MOL0     O47699   4.011  10.383   5.634  0.6688 -0.5870  0.1516
  362MOL0     C47700   3.895  10.348   5.888  0.1612 -1.0322  0.3414
  362MOL0     C47701   3.843  10.319   6.016  0.1871 -0.5063  0.0881
  362MOL0     N47702   3.464  10.761   6.269 -0.3041 -0.9535 -0.0424
  362MOL0     N47703   3.389  10.834   6.344 -1.0322  0.1601  0.6312
  362MOL0     C47704   2.335  10.526   6.817  0.3542 -0.2709  0.7814
  362MOL0     C47705   2.202  10.576   6.809  0.3242  0.6276  1.2751
  362MOL0     C47706   1.865  10.912   6.889 -0.3352  0.1358 -0.7698
  362MOL0     C47707   1.815  11.042   6.919 -0.0302  0.5241 -0.8224
  362MOL0     C47708   1.694  11.060   6.984  0.8712 -0.1109 -0.1462
  362MOL0     C47709   1.617  10.941   7.012  0.0764 -0.7027  0.9783
  362MOL0     O47710   1.489  10.941   7.056  0.6960  0.5684  0.4915
  362MOL0     C47711   1.426  11.066   7.057 -1.0541  0.7861 -0.5194
  362MOL0     C47712   1.283  11.056   7.112 -0.2891 -0.0097 -0.8948
  362MOL0     C47713   1.279  10.991   7.253 -0.4377  1.0394  0.7292
  362MOL0     C47714   1.311  11.082   7.366 -0.3988  0.7575 -0.2190
  362MOL0     C47715   1.225  11.198   7.385  0.6610  0.9591 -0.5377
  362MOL0     C47716   1.180  11.309   7.408 -0.2040 -0.2932 -0.7571
  362MOL0     C47717   1.670  10.815   6.986 -0.1919  0.0161 -0.2108
  362MOL0     C47718   1.790  10.800   6.913 -0.3135  0.6425 -0.2802
  362MOL0     H47719   2.281  10.907   6.817 -1.2265  0.8366 -3.5200
  362MOL0     H47720   2.495  10.810   6.823  1.5330 -2.2925 -1.0968
  362MOL0     H47721   2.561  10.370   6.814  1.8948 -1.9906  0.3436
  362MOL0     H47722   2.618  10.456   6.965  3.4259  1.7114 -0.3765
  362MOL0     H47723   2.769  10.383   6.719  1.1925  1.8392 -2.5204
  362MOL0     H47724   2.804  10.369   6.898  0.1457  0.8216  0.4030
  362MOL0     H47725   2.824  10.647   6.873 -1.1336  0.3605  0.3143
  362MOL0     H47726   2.827  10.600   6.701 -4.7344  0.3337  1.0902
  362MOL0     H47727   3.020  10.555   6.922 -0.6808 -1.0541  0.6342
  362MOL0     H47728   3.040  10.461   6.768  2.7176  1.6731 -0.7449
  362MOL0     H47729   3.162  10.654   6.767 -0.2150 -1.2930 -3.7923
  362MOL0     H47730   3.029  10.764   6.804 -4.0683 -1.8086  2.5557
  362MOL0     H47731   2.967  10.685   6.559 -0.1997  0.6036  2.1356
  362MOL0     H47732   3.132  10.597   6.565 -0.7645 -0.4749 -0.5925
  362MOL0     H47733   3.083  10.832   6.435 -0.8783  2.5133 -0.5060
  362MOL0     H47734   3.085  10.896   6.588 -1.7437 -0.2636  0.0566
  362MOL0     H47735   3.311  10.775   6.640  5.0560  2.1872 -0.0349
  362MOL0     H47736   3.285  10.930   6.547  1.3772  0.0432 -0.7879
  362MOL0     H47737   3.381  10.552   6.513 -0.0964  1.1388  2.3496
  362MOL0     H47738   3.642  10.500   6.369 -0.4507  0.6556  1.8930
  362MOL0     H47739   3.612  10.560   6.214  1.8624  1.5780  1.7944
  362MOL0     H47740   3.396  10.443   6.204 -2.1078  0.1706  0.9331
  362MOL0     H47741   3.439  10.355   6.351  2.0272  1.9908  0.8351
  362MOL0     H47742   3.489  10.215   6.162 -0.3223  1.1720 -2.0690
  362MOL0     H47743   3.577  10.337   6.079 -3.7674 -2.7847 -1.6275
  362MOL0     H47744   3.656  10.188   6.345  1.8338  1.2460  1.6921
  362MOL0     H47745   3.766  10.316   6.284  2.8984 -4.4316  2.2031
  362MOL0     H47746   3.862   9.988   6.010 -0.0945  0.1928 -0.7113
  362MOL0     H47747   3.948  10.025   5.789 -0.3387  0.3957  0.1069
  362MOL0     H47748   4.008   9.999   5.416 -3.0648  3.3475  0.6846
  362MOL0     H47749   4.145  10.010   5.188  1.7230  2.7946 -1.8286
  362MOL0     H47750   4.174  10.202   5.007  0.7318  1.1036 -0.2418
  362MOL0     H47751   4.251  10.026   5.022  0.6237  0.2537  3.0918
  362MOL0     H47752   4.279  10.145   4.815  0.7612 -1.0703  1.0752
  362MOL0     H47753   4.438  10.108   4.894 -0.6512 -1.8875 -0.1216
  362MOL0     H47754   4.299  10.377   4.874  0.9703  3.4967 -0.9925
  362MOL0     H47755   4.430  10.323   4.781 -1.5639  1.3261 -0.6913
  362MOL0     H47756   4.474  10.378   5.079  0.4995  0.3017 -0.8352
  362MOL0     H47757   4.586  10.305   4.957  0.6437 -0.6848 -2.9710
  362MOL0     H47758   4.451  10.572   4.897  2.3541  1.6425 -4.9552
  362MOL0     H47759   4.597  10.508   4.834 -0.8140  2.0980 -0.5437
  362MOL0     H47760   4.556  10.599   5.108 -4.0381 -1.1728 -2.9987
  362MOL0     H47761   4.619  10.702   4.993 -0.5295  0.8685  1.2469
  362MOL0     H47762   4.814  10.628   5.131  0.5307 -0.5984  0.0041
  362MOL0     H47763   4.781  10.462   5.096  2.3665 -0.8492 -1.0971
  362MOL0     H47764   4.845  10.472   4.870 -0.2789 -1.5249  1.7890
  362MOL0     H47765   4.961  10.566   4.971 -0.3882  1.8271  1.3627
  362MOL0     H47766   4.363  10.329   5.336  2.6112 -2.7959 -0.4924
  362MOL0     H47767   4.255  10.318   5.562  0.4961  1.1683 -0.8395
  362MOL0     H47768   3.909  10.448   5.847 -1.8366 -0.1611  1.5891
  362MOL0     H47769   3.808  10.392   6.087 -3.2074 -4.6027  3.1686
  362MOL0     H47770   2.349  10.418   6.818 -3.4552 -1.0579 -2.3104
  362MOL0     H47771   2.125  10.500   6.809  1.7697 -0.9481  3.2242
  362MOL0     H47772   1.875  11.127   6.887 -2.7005  3.0421  0.3372
  362MOL0     H47773   1.651  11.160   6.990 -0.0645 -0.5035 -0.2067
  362MOL0     H47774   1.431  11.100   6.953  2.3808  1.9680 -0.1096
  362MOL0     H47775   1.482  11.136   7.119  0.0781 -1.8473  1.6224
  362MOL0     H47776   1.239  11.155   7.101  0.8282  0.3831 -2.1303
  362MOL0     H47777   1.234  10.989   7.040  0.1938  2.4473 -3.7206
  362MOL0     H47778   1.346  10.904   7.251 -1.6839  0.0489 -1.3430
  362MOL0     H47779   1.177  10.955   7.263  0.6321 -2.3379  0.8356
  362MOL0     H47780   1.289  11.023   7.456 -0.3259 -0.8327 -1.1930
  362MOL0     H47781   1.413  11.117   7.378 -0.0107  0.1965 -1.7327
  362MOL0     H47782   1.146  11.408   7.430  4.3660  0.9334  2.2686
  362MOL0     H47783   1.598  10.739   7.016 -2.1457  0.8748 -2.3308
  362MOL0     H47784   1.824  10.698   6.897 -0.2320  0.1775  2.3913
  363MOL0     O47785   0.415   9.090   1.847 -0.6361  1.2776  0.1092
  363MOL0     C47786   0.429   9.074   1.962 -0.5820  0.4410 -0.3153
  363MOL0     O47787   0.512   9.145   2.046 -0.7751 -0.2810 -0.0539
  363MOL0     C47788   0.606   9.229   1.981 -0.5873 -0.3222  0.5762
  363MOL0     C47789   0.558   9.360   1.968  0.6650  0.2827  1.1113
  363MOL0     C47790   0.623   9.456   1.893 -0.1195 -0.0847 -0.0195
  363MOL0     C47791   0.754   9.425   1.847  0.2435 -0.7591 -0.2731
  363MOL0     O47792   0.820   9.530   1.788 -0.7150 -0.0618 -0.1452
  363MOL0     C47793   0.969   9.519   1.788  0.0448 -0.1553 -1.0619
  363MOL0     C47794   1.023   9.665   1.766  0.2674 -0.6263 -0.1355
  363MOL0     C47795   0.958   9.752   1.868 -0.2425 -0.7503 -0.8085
  363MOL0     C47796   1.053   9.874   1.905 -0.6079  1.1267  0.2671
  363MOL0     C47797   0.967   9.965   1.970  0.7014  0.3700  0.3789
  363MOL0     C47798   1.050  10.083   2.039 -0.7344  0.1089 -0.1878
  363MOL0     C47799   0.977  10.158   2.152  0.1650  0.4340  0.4023
  363MOL0     C47800   0.841  10.216   2.119 -1.3721 -0.8421  0.1258
  363MOL0     N47801   0.848  10.359   2.077 -0.1772  0.0345  0.2570
  363MOL0     C47802   0.879  10.413   1.957  0.0608 -0.3435  0.0076
  363MOL0     C47803   0.866  10.548   1.972  0.2412 -0.2288 -0.3123
  363MOL0     C47804   0.873  10.661   1.870 -0.3473 -0.9622  0.0283
  363MOL0     C47805   0.737  10.704   1.816  0.4023 -0.0120  0.2740
  363MOL0     C47806   0.687  10.818   1.898 -0.4188  0.1975  0.4835
  363MOL0     C47807   0.562  10.877   1.833 -0.9111  0.2450 -0.5287
  363MOL0     O47808   0.496  10.979   1.918  0.5558 -0.0135 -0.1655
  363MOL0     C47809   0.372  11.012   1.869 -0.6957 -0.7130  0.9706
  363MOL0     C47810   0.313  11.120   1.933 -0.8122  0.7509 -0.2748
  363MOL0     C47811   0.192  11.174   1.884 -0.4242 -0.1783 -0.2109
  363MOL0     C47812   0.124  11.111   1.781 -0.3409 -0.5369  0.1148
  363MOL0     C47813  -0.000  11.168   1.717 -0.4156  1.0005  0.5860
  363MOL0     O47814  -0.022  11.144   1.590 -0.8712 -0.4946 -0.3199
  363MOL0     C47815  -0.146  11.174   1.539 -0.0301 -0.2032  0.0425
  363MOL0     C47816  -0.204  11.072   1.468  0.4102  0.2627  0.1637
  363MOL0     C47817  -0.328  11.086   1.412 -0.1130 -0.0971  0.1870
  363MOL0     C47818  -0.403  11.206   1.430  0.0713 -0.2711  0.1187
  363MOL0     O47819  -0.521  11.230   1.368  0.3574  0.2307 -0.8407
  363MOL0     C47820  -0.510  11.280   1.238  0.0945 -0.4303 -0.2311
  363MOL0     C47821  -0.545  11.424   1.221 -0.9476  0.1818  0.1484
  363MOL0     C47822  -0.678  11.458   1.276 -0.2871  0.5577 -0.6862
  363MOL0     C47823  -0.713  11.604   1.272  0.4559  0.3956 -0.1021
  363MOL0     C47824  -0.748  11.643   1.118  0.1316  0.0882 -0.5406
  363MOL0     C47825  -0.818  11.772   1.111  0.1437 -0.3271  0.0277
  363MOL0     C47826  -0.871  11.819   0.974 -0.8790  0.2765 -0.3606
  363MOL0     C47827  -0.947  11.941   0.994 -0.4884  0.0310 -0.1353
  363MOL0    Cl47828  -1.007  12.034   0.851  0.5372  0.2461  0.5655
  363MOL0     C47829  -0.343  11.308   1.513  0.0962 -1.0331  0.4463
  363MOL0     C47830  -0.213  11.297   1.564 -0.1733 -0.9716 -0.6279
  363MOL0     O47831  -0.055  11.247   1.794  0.2648 -0.4488  1.3432
  363MOL0     C47832   0.179  11.004   1.709 -0.4454  0.2719  0.4429
  363MOL0     C47833   0.302  10.956   1.755 -0.4702 -0.9912 -1.2077
  363MOL0     N47834   0.826  10.571   2.098  0.4817 -0.4720  0.5029
  363MOL0     N47835   0.814  10.457   2.162  0.0976  0.0517  0.3289
  363MOL0     C47836   0.808   9.296   1.869 -0.8133 -0.1563 -0.3171
  363MOL0     C47837   0.727   9.191   1.926 -0.0044 -0.0565 -0.0600
  363MOL0     C47838   0.345   8.967   2.023 -0.1287 -0.6983  0.0668
  363MOL0     C47839   0.217   8.945   1.968 -0.4702  0.4394  0.4391
  363MOL0     C47840   0.130   8.858   2.026  0.3520  0.4801  0.8328
  363MOL0     C47841   0.171   8.783   2.135  0.0753  0.5098  0.6365
  363MOL0     O47842   0.065   8.709   2.190  0.3666 -0.1595  0.5701
  363MOL0     C47843   0.074   8.583   2.249 -0.2813 -1.2140  0.1031
  363MOL0     C47844  -0.039   8.574   2.351  0.0740 -0.2049 -0.2592
  363MOL0     C47845  -0.165   8.522   2.297  0.2505  0.2103 -0.3215
  363MOL0     C47846  -0.262   8.490   2.402 -0.5989  0.8609  0.1491
  363MOL0     C47847  -0.370   8.410   2.342 -0.4631 -0.2365 -1.3849
  363MOL0     C47848  -0.450   8.337   2.293 -0.0250  0.3642 -0.3909
  363MOL0     C47849   0.292   8.804   2.196 -0.0397 -0.7902 -0.8828
  363MOL0     C47850   0.376   8.901   2.141  0.5016 -0.1744  0.6835
  363MOL0     H47851   0.457   9.375   2.004 -0.2180  0.8809 -1.3686
  363MOL0     H47852   0.584   9.554   1.868 -0.8807 -0.5732 -0.8033
  363MOL0     H47853   1.007   9.456   1.707  2.5400  0.3900 -0.4065
  363MOL0     H47854   1.008   9.477   1.881  1.3308  1.6322 -0.7481
  363MOL0     H47855   0.987   9.698   1.668  1.3728 -1.5729 -0.8901
  363MOL0     H47856   1.132   9.661   1.766  0.3902  1.5418 -1.5537
  363MOL0     H47857   0.945   9.700   1.963 -0.3282  2.1078  0.8884
  363MOL0     H47858   0.864   9.788   1.826  1.0186  1.8755 -1.6584
  363MOL0     H47859   1.131   9.843   1.976  2.7638  1.3889 -2.9886
  363MOL0     H47860   1.108   9.925   1.825 -1.2447 -0.8921 -1.5610
  363MOL0     H47861   0.899   9.920   2.043 -0.0301 -1.7094 -1.4690
  363MOL0     H47862   0.900   9.989   1.886 -0.8098 -4.0375  0.0660
  363MOL0     H47863   1.084  10.152   1.962 -0.5684  0.1757 -0.0534
  363MOL0     H47864   1.136  10.029   2.081 -0.8750 -0.5542 -0.7227
  363MOL0     H47865   0.968  10.095   2.242 -2.4057  1.7072  1.1556
  363MOL0     H47866   1.038  10.241   2.190 -0.2458 -0.2190  2.6696
  363MOL0     H47867   0.768  10.225   2.200 -1.3121 -0.4850  0.1419
  363MOL0     H47868   0.798  10.161   2.034 -1.4006  1.9352 -1.7887
  363MOL0     H47869   0.905  10.370   1.860 -0.0408  2.3248 -1.3009
  363MOL0     H47870   0.947  10.637   1.793 -1.7414  2.9543 -2.8618
  363MOL0     H47871   0.928  10.740   1.921  0.5892 -1.4768 -0.1647
  363MOL0     H47872   0.659  10.628   1.812  0.5870 -0.1534 -1.1035
  363MOL0     H47873   0.743  10.737   1.712 -2.4856 -3.7116 -1.2732
  363MOL0     H47874   0.682  10.795   2.005  1.5083 -4.5353 -0.2155
  363MOL0     H47875   0.761  10.898   1.886 -0.0601 -0.4003 -1.4452
  363MOL0     H47876   0.496  10.791   1.820 -1.1671  0.5651 -1.3996
  363MOL0     H47877   0.591  10.929   1.742  1.3764  1.1100  0.6090
  363MOL0     H47878   0.361  11.164   2.020  1.7204 -0.0550 -1.1831
  363MOL0     H47879   0.160  11.269   1.926  1.1762 -0.1802  1.0954
  363MOL0     H47880  -0.150  10.980   1.450  2.6852  0.9234  2.7900
  363MOL0     H47881  -0.371  11.005   1.354 -0.6282 -2.6239  3.7542
  363MOL0     H47882  -0.562  11.217   1.166  2.4511  1.3998 -3.8256
  363MOL0     H47883  -0.406  11.281   1.203 -0.3334  0.8476 -1.5970
  363MOL0     H47884  -0.542  11.456   1.116  0.8705  0.5619  0.2780
  363MOL0     H47885  -0.462  11.474   1.274 -0.2052  0.1570 -0.9548
  363MOL0     H47886  -0.670  11.439   1.383  3.5225  0.2914 -0.9006
  363MOL0     H47887  -0.753  11.398   1.223 -1.9246  1.1437  0.8653
  363MOL0     H47888  -0.798  11.625   1.337  2.6028 -0.2618  3.1684
  363MOL0     H47889  -0.633  11.669   1.308  1.0082 -0.4036  0.1441
  363MOL0     H47890  -0.799  11.561   1.066 -0.3836 -2.6031  3.6953
  363MOL0     H47891  -0.647  11.659   1.080  1.8257 -3.2300  2.0927
  363MOL0     H47892  -0.764  11.848   1.168  1.0648 -1.0326  0.1122
  363MOL0     H47893  -0.908  11.751   1.170  0.1150  1.8072  0.8382
  363MOL0     H47894  -0.771  11.833   0.930  1.7370 -0.5938  4.5374
  363MOL0     H47895  -0.932  11.741   0.929  0.6856 -1.0882 -0.2280
  363MOL0     H47896  -0.883  12.002   1.059 -0.1936 -0.2108 -0.1961
  363MOL0     H47897  -1.035  11.919   1.055 -0.2737 -0.5403 -0.0289
  363MOL0     H47898  -0.398  11.401   1.521  3.0118  0.7597  0.7005
  363MOL0     H47899  -0.169  11.366   1.636  0.8447 -1.4644 -0.7605
  363MOL0     H47900   0.124  10.973   1.622 -2.2599  1.6681  1.0308
  363MOL0     H47901   0.334  10.873   1.691 -0.0617 -0.4687 -1.6890
  363MOL0     H47902   0.907   9.266   1.838 -1.3304 -0.8470 -1.3295
  363MOL0     H47903   0.759   9.087   1.933  1.2485  0.3921  1.6296
  363MOL0     H47904   0.186   8.996   1.877  2.4546  0.7442 -0.4961
  363MOL0     H47905   0.027   8.847   1.994  0.7032  3.0934 -1.5374
  363MOL0     H47906   0.170   8.583   2.302 -0.0951  2.9806  0.0955
  363MOL0     H47907   0.071   8.498   2.180 -3.0347  1.4327 -3.4597
  363MOL0     H47908  -0.008   8.512   2.436  3.7638  1.9397  0.1412
  363MOL0     H47909  -0.052   8.676   2.389 -1.4174  0.5660 -2.6187
  363MOL0     H47910  -0.147   8.429   2.241 -2.4607 -0.0491 -0.8620
  363MOL0     H47911  -0.201   8.603   2.234  3.6396  3.0128  0.9976
  363MOL0     H47912  -0.208   8.424   2.470 -1.4510 -1.3483 -1.2346
  363MOL0     H47913  -0.298   8.582   2.451 -1.2114  0.2407  0.8861
  363MOL0     H47914  -0.530   8.271   2.268 -2.6140  3.3266 -0.5510
  363MOL0     H47915   0.335   8.762   2.287  3.3322  0.2625 -1.8324
  363MOL0     H47916   0.473   8.920   2.186  2.9310 -1.2303 -3.5554
  364MOL0     O47917   2.360   5.324   1.298 -0.6475 -0.9611 -0.7471
  364MOL0     C47918   2.311   5.232   1.242  1.0714 -0.0717  0.2244
  364MOL0     O47919   2.186   5.232   1.183 -0.5142  0.3384  0.2988
  364MOL0     C47920   2.083   5.319   1.202  0.8854 -0.3829  0.4230
  364MOL0     C47921   2.090   5.437   1.285  0.5997 -0.6404  0.1095
  364MOL0     C47922   1.990   5.530   1.280 -0.9229 -0.5575  0.2981
  364MOL0     C47923   1.883   5.525   1.189 -0.0142 -1.0233  0.5178
  364MOL0     O47924   1.794   5.631   1.196  1.0407 -0.5641 -0.3255
  364MOL0     C47925   1.670   5.624   1.117  0.0027 -0.6481  0.2203
  364MOL0     C47926   1.570   5.535   1.188 -1.2363  0.2161 -0.5533
  364MOL0     C47927   1.446   5.509   1.107 -0.6868  0.1316  0.4753
  364MOL0     C47928   1.324   5.446   1.182  0.9421 -0.2654 -0.5137
  364MOL0     C47929   1.221   5.396   1.086 -0.2416 -0.5162 -0.0827
  364MOL0     C47930   1.176   5.505   0.988 -0.0559 -0.5741  0.3016
  364MOL0     C47931   1.065   5.472   0.904  1.0143 -0.8072  0.3980
  364MOL0     C47932   1.061   5.581   0.789  0.0899 -0.5426 -0.2756
  364MOL0     N47933   0.938   5.546   0.705 -0.1304  0.1273  0.5499
  364MOL0     C47934   0.933   5.473   0.592 -0.3014  0.6157 -0.0814
  364MOL0     C47935   0.812   5.498   0.543 -0.5300 -0.2405 -0.1356
  364MOL0     C47936   0.752   5.419   0.428 -0.2845 -0.4585  0.7257
  364MOL0     C47937   0.765   5.492   0.296  1.1705 -0.1362 -0.1603
  364MOL0     C47938   0.904   5.534   0.249  0.7478  0.1610 -0.1378
  364MOL0     C47939   0.921   5.605   0.107 -0.7039 -1.0313  0.1618
  364MOL0     O47940   0.884   5.506   0.014  0.5352 -0.0703  0.0527
  364MOL0     C47941   0.911   5.522  -0.117  0.5904 -0.8853 -0.9271
  364MOL0     C47942   0.956   5.647  -0.177  0.9222  0.0792 -0.7841
  364MOL0     C47943   0.969   5.652  -0.315 -0.2843  0.5789  0.2171
  364MOL0     C47944   0.918   5.552  -0.393  0.5651 -0.6608  0.3620
  364MOL0     C47945   0.907   5.564  -0.543 -0.3990  0.0669  0.1115
  364MOL0     O47946   0.953   5.684  -0.596 -0.0385  0.0441  0.5316
  364MOL0     C47947   0.966   5.675  -0.738  1.2876  0.2727 -0.6611
  364MOL0     C47948   0.859   5.695  -0.821  0.9244 -0.5531  0.1748
  364MOL0     C47949   0.869   5.675  -0.955 -0.6545 -0.3004 -0.1974
  364MOL0     C47950   0.993   5.635  -1.017  0.0209 -1.0761  0.2078
  364MOL0     O47951   0.999   5.627  -1.154 -0.0580  0.1368  1.1289
  364MOL0     C47952   1.125   5.642  -1.226 -0.4491  0.2862 -0.2941
  364MOL0     C47953   1.114   5.681  -1.370 -0.3011  0.0851  0.4327
  364MOL0     C47954   1.097   5.561  -1.459 -0.2038 -0.6578 -0.2075
  364MOL0     C47955   1.126   5.614  -1.603 -0.7375  1.0211  0.2288
  364MOL0     C47956   1.013   5.703  -1.648 -0.0708  0.0328 -0.0880
  364MOL0     C47957   1.025   5.740  -1.792 -0.7930 -0.7405  0.6759
  364MOL0     C47958   0.933   5.850  -1.833 -0.3475  0.4065  1.1133
  364MOL0     C47959   0.865   5.814  -1.976 -0.0235 -0.0353  0.0380
  364MOL0    Cl47960   0.760   5.669  -1.957  0.4725  0.1343  0.4980
  364MOL0     C47961   1.095   5.602  -0.937 -0.3278 -0.7805 -0.9599
  364MOL0     C47962   1.092   5.641  -0.798 -0.7185 -1.2206 -0.0413
  364MOL0     O47963   0.862   5.473  -0.616 -0.8005  0.3288  0.2189
  364MOL0     C47964   0.872   5.430  -0.329  0.0792 -0.4936  0.4454
  364MOL0     C47965   0.887   5.416  -0.199 -0.0696 -0.8773 -0.1819
  364MOL0     N47966   0.739   5.588   0.612  0.8119  0.1224 -0.2585
  364MOL0     N47967   0.824   5.624   0.707  1.2810 -0.0308  0.0691
  364MOL0     C47968   1.868   5.407   1.123 -0.0500 -0.5355 -0.0297
  364MOL0     C47969   1.968   5.307   1.126 -0.0585  0.1108  0.2659
  364MOL0     C47970   2.400   5.108   1.228  0.1845 -0.0217 -0.1870
  364MOL0     C47971   2.346   4.982   1.187  0.3528  0.2808  0.6695
  364MOL0     C47972   2.422   4.861   1.185  0.6343 -0.2520 -0.4337
  364MOL0     C47973   2.558   4.863   1.220 -1.5387 -0.6098 -0.0995
  364MOL0     O47974   2.641   4.745   1.231  0.5793  0.3056  0.9676
  364MOL0     C47975   2.594   4.621   1.180  0.3127  0.5824 -0.7815
  364MOL0     C47976   2.703   4.515   1.174 -0.1176  0.3223  0.6747
  364MOL0     C47977   2.666   4.395   1.073  0.5476  0.2903 -0.2511
  364MOL0     C47978   2.784   4.289   1.070  0.0052 -0.7057 -0.5028
  364MOL0     C47979   2.774   4.217   0.946 -0.7542  0.8445  0.2904
  364MOL0     C47980   2.753   4.147   0.848  0.0286 -0.4275  0.5510
  364MOL0     C47981   2.608   4.983   1.263  0.6875  0.7006 -0.4743
  364MOL0     C47982   2.537   5.099   1.267 -0.0335  0.3158 -0.6701
  364MOL0     H47983   2.170   5.434   1.359  2.1118 -1.2635 -1.4609
  364MOL0     H47984   1.997   5.609   1.354  3.0293  1.0831 -1.5374
  364MOL0     H47985   1.683   5.580   1.018 -3.8415  1.0176 -1.2190
  364MOL0     H47986   1.622   5.721   1.107  1.2750 -0.1203 -1.0561
  364MOL0     H47987   1.538   5.579   1.283 -0.8257  0.1415 -0.3766
  364MOL0     H47988   1.612   5.438   1.219 -0.4731  1.3084  2.1570
  364MOL0     H47989   1.476   5.449   1.020 -0.4552 -1.0103  1.3181
  364MOL0     H47990   1.410   5.605   1.069  0.5021  0.8969  1.2103
  364MOL0     H47991   1.363   5.354   1.227 -1.2377 -0.2220  1.6298
  364MOL0     H47992   1.271   5.500   1.260 -1.2377  1.0561 -2.7624
  364MOL0     H47993   1.139   5.340   1.132 -2.0613  0.3232 -2.1177
  364MOL0     H47994   1.265   5.317   1.025  0.7512 -0.5489  0.6481
  364MOL0     H47995   1.257   5.532   0.920 -0.1427  0.9584  0.7662
  364MOL0     H47996   1.159   5.591   1.054  2.5197 -0.2815  0.6849
  364MOL0     H47997   1.069   5.369   0.867  1.0200 -0.2505 -1.2261
  364MOL0     H47998   0.980   5.494   0.969  1.8039 -0.0992  1.2273
  364MOL0     H47999   1.152   5.589   0.729  0.3037  0.1437  0.1205
  364MOL0     H48000   1.035   5.677   0.834  1.1701  0.6971 -2.1452
  364MOL0     H48001   1.015   5.415   0.549 -1.0043  0.1273 -0.8077
  364MOL0     H48002   0.645   5.403   0.448 -0.7806  0.2364 -1.2107
  364MOL0     H48003   0.797   5.320   0.419  1.5475  0.4514 -0.8739
  364MOL0     H48004   0.686   5.566   0.283  1.3265 -0.0002 -0.3277
  364MOL0     H48005   0.729   5.408   0.235 -2.1932  1.8333 -1.1709
  364MOL0     H48006   0.941   5.610   0.318 -0.3897 -0.1209  0.8157
  364MOL0     H48007   0.970   5.448   0.251  1.4644  0.6870 -0.6068
  364MOL0     H48008   1.028   5.624   0.103 -1.0139  0.7976 -0.0573
  364MOL0     H48009   0.871   5.702   0.112 -0.0596 -0.7429  1.5859
  364MOL0     H48010   0.983   5.736  -0.120  0.8296 -0.2287 -0.2492
  364MOL0     H48011   0.997   5.751  -0.348  3.6574 -0.3391  0.2631
  364MOL0     H48012   0.767   5.727  -0.773  0.0569 -0.3147 -1.5739
  364MOL0     H48013   0.785   5.716  -1.011 -2.0373  0.1880  2.1027
  364MOL0     H48014   1.185   5.551  -1.217  1.2241  1.2950 -0.8020
  364MOL0     H48015   1.186   5.716  -1.174 -0.4904 -0.5538  1.0002
  364MOL0     H48016   1.183   5.763  -1.393 -2.3356  1.5558 -0.7268
  364MOL0     H48017   1.021   5.734  -1.393  1.2586  3.3413  1.0869
  364MOL0     H48018   0.998   5.519  -1.442 -1.2308  0.7685 -2.2402
  364MOL0     H48019   1.160   5.477  -1.428 -0.7252 -1.9861 -2.5143
  364MOL0     H48020   1.224   5.661  -1.596 -0.6672  1.0890 -1.0065
  364MOL0     H48021   1.135   5.529  -1.671 -0.2615  1.6090 -0.4471
  364MOL0     H48022   1.014   5.800  -1.596  0.0143  0.8201 -1.4959
  364MOL0     H48023   0.917   5.657  -1.624  0.4403 -0.9514  0.0970
  364MOL0     H48024   1.022   5.655  -1.860 -0.1916  0.1483 -0.4861
  364MOL0     H48025   1.122   5.790  -1.790 -0.8895 -0.3188 -2.0489
  364MOL0     H48026   0.854   5.873  -1.761 -2.0051  0.7621 -0.7093
  364MOL0     H48027   0.983   5.947  -1.834 -2.0759  1.4263  3.5751
  364MOL0     H48028   0.943   5.788  -2.049  0.9111 -2.8164  1.8699
  364MOL0     H48029   0.812   5.903  -2.011  0.0154  0.2528  0.7040
  364MOL0     H48030   1.185   5.563  -0.984 -0.0860 -1.0315 -0.3003
  364MOL0     H48031   1.177   5.634  -0.731  1.6129  2.6956 -2.2305
  364MOL0     H48032   0.818   5.362  -0.395 -1.2888 -0.1784  1.2013
  364MOL0     H48033   0.839   5.322  -0.175 -2.5848 -0.1349 -1.8517
  364MOL0     H48034   1.776   5.393   1.068 -1.3915 -0.1028  2.0114
  364MOL0     H48035   1.953   5.222   1.060 -0.2521  0.0852  0.3410
  364MOL0     H48036   2.242   4.965   1.164  0.6381  0.9582 -1.3851
  364MOL0     H48037   2.367   4.773   1.152 -2.0530  1.2745 -0.3653
  364MOL0     H48038   2.551   4.634   1.080 -0.4411  0.1508 -0.5269
  364MOL0     H48039   2.511   4.587   1.243 -0.1452  0.6831 -1.3245
  364MOL0     H48040   2.792   4.567   1.137 -1.1999  0.3993 -2.0999
  364MOL0     H48041   2.729   4.475   1.272  0.3565  3.0288  1.7437
  364MOL0     H48042   2.647   4.435   0.973 -0.7066  0.9890  0.2546
  364MOL0     H48043   2.572   4.353   1.109  0.7242 -0.5486 -0.7513
  364MOL0     H48044   2.879   4.344   1.077 -0.0816 -0.4656 -1.1116
  364MOL0     H48045   2.779   4.228   1.161 -0.1016  1.7580  1.2486
  364MOL0     H48046   2.740   4.102   0.752  1.6202  0.7168 -0.2490
  364MOL0     H48047   2.711   4.991   1.295  0.8660  0.4758 -0.9769
  364MOL0     H48048   2.586   5.186   1.311  0.2223  0.8410 -1.9265
  365MOL0     O48049  10.118   6.476  10.109  0.4010 -0.1776 -0.2545
  365MOL0     C48050  10.023   6.500  10.191 -0.8468 -0.7688  0.3515
  365MOL0     O48051   9.903   6.555  10.153 -0.4379 -0.2518  0.1119
  365MOL0     C48052   9.878   6.544  10.016  0.3863  0.0743  0.6956
  365MOL0     C48053   9.871   6.660   9.943 -0.7159  0.1411  0.2877
  365MOL0     C48054   9.856   6.659   9.803  0.0226 -0.3090  0.5936
  365MOL0     C48055   9.815   6.538   9.740 -0.3617  0.5962 -0.4370
  365MOL0     O48056   9.780   6.544   9.611 -0.2696  0.1534  0.1115
  365MOL0     C48057   9.687   6.460   9.545  0.2625  0.2305 -0.6768
  365MOL0     C48058   9.749   6.381   9.442 -0.2168  0.8833 -0.7118
  365MOL0     C48059   9.843   6.275   9.491  0.2119 -0.1001 -0.4766
  365MOL0     C48060   9.891   6.173   9.389  0.2752  0.6928 -0.1371
  365MOL0     C48061   9.990   6.221   9.283 -0.6955 -0.5349 -1.4994
  365MOL0     C48062  10.129   6.246   9.350 -0.5363 -0.0091  0.1272
  365MOL0     C48063  10.218   6.260   9.224 -0.5601  0.8360  0.0815
  365MOL0     C48064  10.368   6.290   9.265  0.4555  0.6241 -0.0793
  365MOL0     N48065  10.466   6.230   9.174 -1.0226 -0.0197  0.9849
  365MOL0     C48066  10.467   6.117   9.103  0.3617  0.3533  0.1834
  365MOL0     C48067  10.575   6.107   9.028  0.0299 -1.1424 -0.8088
  365MOL0     C48068  10.617   5.994   8.936  0.2058  0.2868 -0.4559
  365MOL0     C48069  10.544   5.994   8.807  0.4264 -0.1076 -0.4689
  365MOL0     C48070  10.587   6.119   8.722 -0.5611 -0.4499  1.3282
  365MOL0     C48071  10.549   6.107   8.569 -1.4566 -0.7810  0.7654
  365MOL0     O48072  10.412   6.082   8.544 -0.0832  1.2472 -0.5291
  365MOL0     C48073  10.384   5.951   8.519 -0.2312  0.3955  0.0933
  365MOL0     C48074  10.423   5.887   8.398  1.0590 -0.1255  0.1789
  365MOL0     C48075  10.400   5.757   8.362  1.0530 -0.9236  0.6034
  365MOL0     C48076  10.326   5.674   8.456  0.5380 -0.0908  0.5845
  365MOL0     C48077  10.307   5.531   8.435  0.9969  0.2714  0.5473
  365MOL0     O48078  10.376   5.465   8.328  0.4637 -0.1430  0.4457
  365MOL0     C48079  10.343   5.329   8.323 -0.4555 -0.0583 -0.0492
  365MOL0     C48080  10.411   5.227   8.395 -0.6729  0.7866  0.7953
  365MOL0     C48081  10.369   5.093   8.393 -1.7217 -0.1374  0.1842
  365MOL0     C48082  10.261   5.053   8.313  0.8809 -0.1260 -0.2712
  365MOL0     O48083  10.206   4.933   8.303 -0.1464  0.3671 -0.1964
  365MOL0     C48084  10.251   4.812   8.372 -0.5957 -0.1335  0.5729
  365MOL0     C48085  10.177   4.693   8.322  0.0756  0.7101  0.7785
  365MOL0     C48086  10.028   4.693   8.326  0.7486 -0.5091 -0.6927
  365MOL0     C48087   9.972   4.557   8.367 -0.4122 -0.3361 -0.5658
  365MOL0     C48088   9.833   4.537   8.339 -1.3816 -0.3241 -0.4830
  365MOL0     C48089   9.743   4.631   8.418  0.6733 -0.0977 -0.7325
  365MOL0     C48090   9.588   4.623   8.388 -0.7783  0.2117  0.9224
  365MOL0     C48091   9.536   4.674   8.254  0.3393  0.1964  0.5895
  365MOL0    Cl48092   9.350   4.665   8.259 -0.3851 -0.4289 -0.1641
  365MOL0     C48093  10.201   5.147   8.228  0.6263  0.0393 -0.0030
  365MOL0     C48094  10.248   5.279   8.238  0.4312 -0.3059 -0.4766
  365MOL0     O48095  10.234   5.473   8.514  0.6362 -0.4969  0.0154
  365MOL0     C48096  10.284   5.730   8.579  0.7072 -0.5361  0.0066
  365MOL0     C48097  10.309   5.869   8.605  0.9052  0.0207  0.2936
  365MOL0     N48098  10.640   6.224   9.050 -1.4178 -0.4485  0.5489
  365MOL0     N48099  10.587   6.288   9.147  0.0524 -0.1005 -0.1217
  365MOL0     C48100   9.807   6.421   9.819  0.3086  0.3678  0.4684
  365MOL0     C48101   9.843   6.420   9.957 -0.2996 -0.3391 -0.0987
  365MOL0     C48102  10.035   6.475  10.329  1.0886 -0.6544 -1.0179
  365MOL0     C48103  10.155   6.419  10.377 -0.1301 -0.4991 -0.3650
  365MOL0     C48104  10.169   6.405  10.516  0.5419  0.0394  0.2409
  365MOL0     C48105  10.068   6.445  10.614 -0.2958 -0.1324  1.2020
  365MOL0     O48106  10.101   6.437  10.746 -0.3643 -0.7124 -0.6416
  365MOL0     C48107  10.024   6.504  10.844  0.7084 -1.3241 -0.0936
  365MOL0     C48108  10.058   6.472  10.985  0.1843 -0.0642  0.1401
  365MOL0     C48109  10.005   6.330  11.017  1.1567 -0.2943 -0.7047
  365MOL0     C48110  10.037   6.268  11.153 -0.4218  0.0102 -0.9127
  365MOL0     C48111  10.158   6.180  11.133  0.8309 -0.5535 -0.7060
  365MOL0     C48112  10.249   6.098  11.128  0.0985  0.4440  0.2375
  365MOL0     C48113   9.957   6.507  10.560  0.1231  0.9828 -0.4810
  365MOL0     C48114   9.929   6.517  10.426 -0.4831 -0.0269 -0.1324
  365MOL0     H48115   9.891   6.749  10.002 -2.6552  0.2574  0.8508
  365MOL0     H48116   9.876   6.749   9.745 -0.9144  1.5624  2.9826
  365MOL0     H48117   9.605   6.517   9.500  3.4269  4.2222 -2.0575
  365MOL0     H48118   9.642   6.394   9.620  0.6209  1.4086  0.6250
  365MOL0     H48119   9.820   6.440   9.384  0.8422  1.0880  0.7305
  365MOL0     H48120   9.670   6.334   9.383  0.2196 -3.1759  1.5500
  365MOL0     H48121   9.786   6.220   9.566  1.6211  0.6542  1.2418
  365MOL0     H48122   9.926   6.322   9.545  0.5243 -0.5052 -0.5959
  365MOL0     H48123   9.943   6.091   9.439  0.8002 -0.8748 -3.0105
  365MOL0     H48124   9.800   6.140   9.338  0.5130 -0.5674  0.2260
  365MOL0     H48125   9.967   6.316   9.234  0.4193 -0.3362 -1.6838
  365MOL0     H48126   9.994   6.133   9.218 -0.1267 -0.3065 -1.7859
  365MOL0     H48127  10.165   6.166   9.415  1.4566  0.0092 -0.8782
  365MOL0     H48128  10.138   6.339   9.407  4.2157 -0.5292  0.6159
  365MOL0     H48129  10.208   6.171   9.161 -3.8165  0.5601  0.8285
  365MOL0     H48130  10.186   6.350   9.171 -0.5556  2.6817  3.0153
  365MOL0     H48131  10.392   6.256   9.366 -0.0176  1.0046  0.1613
  365MOL0     H48132  10.392   6.397   9.262 -1.4896  1.0999 -3.2572
  365MOL0     H48133  10.399   6.032   9.108 -0.3089  0.9707  3.1976
  365MOL0     H48134  10.588   5.903   8.990  2.5263 -0.8337 -0.9811
  365MOL0     H48135  10.723   5.985   8.913  0.8608  2.0308  1.5976
  365MOL0     H48136  10.436   5.981   8.820  0.6549 -2.8236 -0.7774
  365MOL0     H48137  10.581   5.908   8.752  1.5862  0.7446 -1.0639
  365MOL0     H48138  10.534   6.200   8.773 -1.7452 -2.7762  4.1016
  365MOL0     H48139  10.696   6.133   8.715 -1.0809  4.2718 -1.5299
  365MOL0     H48140  10.611   6.023   8.536 -2.4066 -1.0534 -0.3863
  365MOL0     H48141  10.581   6.195   8.513  0.3787 -2.9823 -1.8998
  365MOL0     H48142  10.467   5.958   8.328 -1.6156  4.6734  2.8343
  365MOL0     H48143  10.421   5.715   8.265 -1.0089  0.7757 -0.6519
  365MOL0     H48144  10.488   5.278   8.453  1.8349  1.7021 -2.8943
  365MOL0     H48145  10.419   5.023   8.459 -1.7798  0.4828  0.8881
  365MOL0     H48146  10.251   4.817   8.481  0.9302  0.8575  0.5516
  365MOL0     H48147  10.355   4.794   8.344 -1.4134 -1.1459 -2.1253
  365MOL0     H48148  10.216   4.604   8.372 -2.3692  0.0584  1.6987
  365MOL0     H48149  10.203   4.670   8.218  0.4568  1.5445  0.6837
  365MOL0     H48150   9.981   4.716   8.230 -1.4175  0.4452  0.5285
  365MOL0     H48151   9.985   4.773   8.388 -0.4430 -0.5908 -1.3853
  365MOL0     H48152  10.031   4.480   8.316 -1.5815  0.1867 -2.8780
  365MOL0     H48153   9.996   4.537   8.471 -0.1659  2.0891 -0.0936
  365MOL0     H48154   9.826   4.434   8.375  2.2563  0.8654  4.6390
  365MOL0     H48155   9.818   4.558   8.232 -5.1986  3.4976  0.5481
  365MOL0     H48156   9.781   4.732   8.396  0.5087 -0.4907 -3.0978
  365MOL0     H48157   9.770   4.615   8.522  1.6111  1.4870 -0.6936
  365MOL0     H48158   9.557   4.518   8.394 -0.2362 -0.2333 -2.3165
  365MOL0     H48159   9.539   4.674   8.472 -0.1929 -0.9139  1.9850
  365MOL0     H48160   9.551   4.604   8.171 -0.7834  1.6388 -0.8916
  365MOL0     H48161   9.575   4.772   8.224 -0.4054 -0.0621 -1.3449
  365MOL0     H48162  10.110   5.130   8.171  0.2673  1.3918  0.1437
  365MOL0     H48163  10.207   5.359   8.178  0.1236  0.8565  1.2120
  365MOL0     H48164  10.226   5.666   8.645  1.6977 -1.2013  0.2593
  365MOL0     H48165  10.265   5.921   8.690  1.7517  1.4231 -0.0919
  365MOL0     H48166   9.777   6.327   9.775  0.1126  1.9960 -3.2049
  365MOL0     H48167   9.855   6.335  10.024  1.4020  1.2492  1.7672
  365MOL0     H48168  10.234   6.389  10.309  0.7535  1.7134 -0.3892
  365MOL0     H48169  10.264   6.368  10.553 -0.5437 -1.2983  1.8167
  365MOL0     H48170   9.922   6.474  10.816  0.1232  2.3253 -2.6972
  365MOL0     H48171  10.027   6.612  10.825  0.7503 -1.8119 -3.5793
  365MOL0     H48172  10.167   6.463  10.994 -0.0569 -3.3041  1.0539
  365MOL0     H48173  10.014   6.548  11.051 -0.1020 -1.2218  1.3324
  365MOL0     H48174  10.035   6.263  10.935  2.2110  0.0858 -0.6560
  365MOL0     H48175   9.898   6.351  11.021  1.3592  1.0051 -1.3858
  365MOL0     H48176  10.061   6.348  11.223  1.0932 -0.7186 -0.5703
  365MOL0     H48177   9.957   6.205  11.193 -1.7922  0.0312 -3.4027
  365MOL0     H48178  10.326   6.026  11.114 -2.5518 -2.7008  0.5137
  365MOL0     H48179   9.884   6.549  10.630 -0.7007  0.5278 -1.0457
  365MOL0     H48180   9.840   6.561  10.383 -0.4844 -1.6349 -1.9158
  366MOL0     O48181  11.176   5.343   8.388 -0.3944  0.5074 -0.2060
  366MOL0     C48182  11.245   5.299   8.294 -0.9008 -0.0981 -0.5662
  366MOL0     O48183  11.293   5.177   8.290 -0.7364 -0.3472 -0.0813
  366MOL0     C48184  11.246   5.081   8.375  1.1036 -0.3744  0.6408
  366MOL0     C48185  11.109   5.077   8.416  0.3707  0.8345  0.7331
  366MOL0     C48186  11.077   4.989   8.520  0.4717  0.3809  0.2583
  366MOL0     C48187  11.165   4.895   8.566  0.3553 -0.1097  0.2115
  366MOL0     O48188  11.113   4.814   8.663 -0.1279  0.4586  0.1777
  366MOL0     C48189  11.183   4.700   8.723 -0.1034 -0.5634  0.8289
  366MOL0     C48190  11.084   4.615   8.809 -0.2013  0.1568  1.2839
  366MOL0     C48191  10.976   4.567   8.713  0.4166  0.7220 -0.3949
  366MOL0     C48192  10.878   4.468   8.786  0.0760  0.6817 -0.7528
  366MOL0     C48193  10.785   4.407   8.674  0.4448 -0.2643  0.7224
  366MOL0     C48194  10.679   4.299   8.737  0.3012 -0.2692  0.0881
  366MOL0     C48195  10.597   4.259   8.622  0.4639  0.2836  0.5615
  366MOL0     C48196  10.494   4.152   8.671 -0.2530  0.0825  1.0394
  366MOL0     N48197  10.385   4.131   8.570  1.2299 -0.0747 -0.7788
  366MOL0     C48198  10.331   4.213   8.480  0.3226 -0.2208  0.2844
  366MOL0     C48199  10.252   4.133   8.400  0.4444 -0.6956  0.0131
  366MOL0     C48200  10.166   4.182   8.287  0.6167 -0.4501 -0.3558
  366MOL0     C48201  10.235   4.217   8.153  0.2367  1.2881  0.3265
  366MOL0     C48202  10.126   4.209   8.045  0.5148  0.1744  1.0559
  366MOL0     C48203  10.089   4.343   7.993 -0.0122  0.5625 -1.1951
  366MOL0     O48204   9.985   4.316   7.891 -0.2915 -0.0232 -0.1529
  366MOL0     C48205   9.953   4.424   7.806  0.4085 -0.6229 -0.2525
  366MOL0     C48206  10.018   4.542   7.808 -0.6686  0.6346  0.5093
  366MOL0     C48207   9.967   4.646   7.725  0.1528 -0.5813  0.7213
  366MOL0     C48208   9.857   4.634   7.634 -0.0785 -0.1917  0.1080
  366MOL0     C48209   9.822   4.745   7.537 -0.1691 -0.0698 -0.3735
  366MOL0     O48210   9.897   4.857   7.558  0.1107 -0.7718  0.6348
  366MOL0     C48211   9.877   4.975   7.490 -0.0053  0.4438 -0.4930
  366MOL0     C48212   9.755   5.055   7.489 -0.5494  0.7741 -0.3864
  366MOL0     C48213   9.742   5.171   7.416 -0.1871 -0.2138  0.2774
  366MOL0     C48214   9.860   5.222   7.354  0.2884 -0.3632 -0.1087
  366MOL0     O48215   9.861   5.343   7.282 -0.6070 -0.1333  0.1018
  366MOL0     C48216   9.737   5.406   7.243  0.0108  0.5835  0.0703
  366MOL0     C48217   9.777   5.517   7.156  0.1679 -0.9307 -0.0295
  366MOL0     C48218   9.682   5.552   7.046 -0.6545  0.6987 -0.3708
  366MOL0     C48219   9.728   5.656   6.947 -0.7238 -1.1134 -0.3800
  366MOL0     C48220   9.677   5.792   6.988 -0.3813 -0.2166  0.8106
  366MOL0     C48221   9.730   5.915   6.904  0.6207  1.1582 -0.3385
  366MOL0     C48222   9.649   5.934   6.775  0.2598 -0.3650 -0.3839
  366MOL0     C48223   9.733   6.023   6.677  0.4296 -0.3675 -0.6227
  366MOL0    Cl48224   9.615   6.092   6.561  0.1482 -0.4231  0.0530
  366MOL0     C48225   9.976   5.150   7.352  0.2645  0.4057 -0.7056
  366MOL0     C48226   9.988   5.035   7.426 -0.0802  0.2088  0.0633
  366MOL0     O48227   9.738   4.730   7.448 -0.4161 -0.0994 -0.1477
  366MOL0     C48228   9.787   4.507   7.641  0.8475  0.0064  0.9506
  366MOL0     C48229   9.839   4.407   7.722  0.5694  0.4861  1.0239
  366MOL0     N48230  10.261   4.006   8.449  0.2447  0.3301 -0.4119
  366MOL0     N48231  10.339   4.006   8.548 -0.0283  0.6728 -0.4180
  366MOL0     C48232  11.302   4.900   8.526  0.1210  0.5149 -0.8109
  366MOL0     C48233  11.339   4.989   8.426 -0.0936 -0.2880 -1.1203
  366MOL0     C48234  11.281   5.389   8.169  0.6637  0.2732  0.1347
  366MOL0     C48235  11.240   5.523   8.175 -0.0569  0.0746 -0.5348
  366MOL0     C48236  11.279   5.599   8.062 -1.5744 -0.8181 -0.4057
  366MOL0     C48237  11.354   5.547   7.955  0.3866 -0.4280  0.1815
  366MOL0     O48238  11.389   5.630   7.855  0.1643  0.1701  0.1483
  366MOL0     C48239  11.464   5.589   7.742  0.0875  0.9660  0.1217
  366MOL0     C48240  11.470   5.702   7.638 -0.4449 -0.2740 -0.1023
  366MOL0     C48241  11.565   5.669   7.528  0.7067  0.5387 -0.6770
  366MOL0     C48242  11.611   5.804   7.462  0.6031  0.2824  0.0416
  366MOL0     C48243  11.740   5.845   7.519  0.4846 -0.1366 -0.3925
  366MOL0     C48244  11.846   5.876   7.560  0.3565 -0.2659  0.7488
  366MOL0     C48245  11.383   5.407   7.962  0.6338 -0.4034 -0.4534
  366MOL0     C48246  11.352   5.334   8.066 -0.2481  0.1910  0.2274
  366MOL0     H48247  11.041   5.150   8.372  1.3770  0.9013 -0.7927
  366MOL0     H48248  10.978   4.984   8.565 -0.3973 -0.4332 -1.6135
  366MOL0     H48249  11.263   4.744   8.783  0.1053  1.4975 -0.8351
  366MOL0     H48250  11.226   4.644   8.639  0.4491  1.1321 -0.0701
  366MOL0     H48251  11.033   4.669   8.889  1.0897 -0.4940  2.5795
  366MOL0     H48252  11.139   4.532   8.854  2.6504  0.2554 -1.6445
  366MOL0     H48253  11.017   4.518   8.624 -0.5489  1.2797 -1.1729
  366MOL0     H48254  10.921   4.656   8.683 -0.9128  1.0924  2.8194
  366MOL0     H48255  10.939   4.380   8.808 -1.7953 -0.4821  0.0629
  366MOL0     H48256  10.823   4.520   8.864  0.1684  0.1869 -0.3546
  366MOL0     H48257  10.852   4.364   8.600 -3.0685  0.0847 -2.9928
  366MOL0     H48258  10.740   4.491   8.620  0.4748 -2.2718 -2.6402
  366MOL0     H48259  10.604   4.347   8.801 -2.1345  0.4739 -3.0775
  366MOL0     H48260  10.728   4.216   8.788  0.6286 -0.3663 -0.3777
  366MOL0     H48261  10.542   4.348   8.593 -0.2530 -0.1250  0.6585
  366MOL0     H48262  10.670   4.212   8.554 -2.0934 -1.0742 -1.4067
  366MOL0     H48263  10.455   4.194   8.764  0.9576  1.5519  0.9262
  366MOL0     H48264  10.537   4.055   8.696 -0.8557  0.0287  1.9193
  366MOL0     H48265  10.343   4.318   8.459  2.6051 -0.7016 -1.1751
  366MOL0     H48266  10.108   4.264   8.331 -0.9395 -1.7200  0.0703
  366MOL0     H48267  10.107   4.093   8.260 -0.5367 -0.4066  1.8256
  366MOL0     H48268  10.310   4.143   8.122 -0.8100  0.1722  0.4191
  366MOL0     H48269  10.292   4.310   8.163 -1.4150  2.1862  1.9588
  366MOL0     H48270  10.160   4.153   7.957 -1.5018 -0.1512  0.4211
  366MOL0     H48271  10.034   4.157   8.075 -2.7982  3.4861 -2.2812
  366MOL0     H48272  10.181   4.381   7.948 -0.0507  1.0724 -0.8531
  366MOL0     H48273  10.061   4.420   8.065  0.4904  1.0407 -1.5055
  366MOL0     H48274  10.099   4.557   7.879  0.5433  0.3691 -0.7883
  366MOL0     H48275  10.015   4.743   7.737 -0.0120 -0.4757  0.5405
  366MOL0     H48276   9.666   5.017   7.539 -0.4812 -0.7308 -1.3232
  366MOL0     H48277   9.643   5.216   7.420 -0.1962 -0.2888  2.2629
  366MOL0     H48278   9.685   5.451   7.329  0.7311 -0.7986  1.2685
  366MOL0     H48279   9.661   5.347   7.191 -0.9060  0.9484  0.9533
  366MOL0     H48280   9.874   5.507   7.106  0.2936 -0.4430  0.1118
  366MOL0     H48281   9.783   5.605   7.221 -0.8679 -2.4746  2.3081
  366MOL0     H48282   9.594   5.597   7.093  0.4484  4.1031 -1.2887
  366MOL0     H48283   9.660   5.458   6.995 -2.6295  1.8127 -1.7104
  366MOL0     H48284   9.837   5.669   6.943 -0.6960 -1.5025 -1.1390
  366MOL0     H48285   9.705   5.628   6.843 -3.5005 -1.2335  0.1986
  366MOL0     H48286   9.725   5.813   7.085  0.7714 -1.8888  0.6512
  366MOL0     H48287   9.568   5.797   6.992 -0.5420 -1.3789 -0.9788
  366MOL0     H48288   9.837   5.899   6.894  0.1129 -3.1672 -0.7681
  366MOL0     H48289   9.711   6.006   6.962 -4.7615  1.9049 -2.6648
  366MOL0     H48290   9.633   5.837   6.727 -1.7104  0.9245 -2.4986
  366MOL0     H48291   9.553   5.974   6.808  0.2659 -1.2656  0.8076
  366MOL0     H48292   9.818   5.967   6.636 -0.8802 -1.1938 -2.3377
  366MOL0     H48293   9.788   6.104   6.727  0.9547 -1.6064  0.8703
  366MOL0     H48294  10.058   5.185   7.289 -0.1861 -2.8087 -3.3453
  366MOL0     H48295  10.086   4.989   7.430 -1.0668 -2.2020 -1.0401
  366MOL0     H48296   9.697   4.500   7.581  2.8449  3.1379 -2.8477
  366MOL0     H48297   9.793   4.309   7.726  1.6704 -0.0618  0.5976
  366MOL0     H48298  11.383   4.841   8.567  0.6204  2.2690  0.8970
  366MOL0     H48299  11.443   4.995   8.398  0.9469 -3.1590  1.5713
  366MOL0     H48300  11.182   5.560   8.259 -1.1309 -0.2417 -1.1185
  366MOL0     H48301  11.246   5.703   8.060 -0.6628 -0.4200  1.9328
  366MOL0     H48302  11.406   5.504   7.703  0.1864 -0.3901  2.7073
  366MOL0     H48303  11.560   5.548   7.773 -1.3824 -2.0773  1.1173
  366MOL0     H48304  11.376   5.712   7.584 -0.1621 -3.7731 -1.5447
  366MOL0     H48305  11.509   5.787   7.694 -0.3223  1.5771 -2.8072
  366MOL0     H48306  11.506   5.617   7.452  1.5957  1.0038 -1.7259
  366MOL0     H48307  11.657   5.617   7.558  0.0079 -0.1261  0.3659
  366MOL0     H48308  11.639   5.794   7.356  2.7913  0.6407  0.5239
  366MOL0     H48309  11.535   5.880   7.481  1.8769  1.2002  1.7050
  366MOL0     H48310  11.934   5.913   7.610  0.7924 -0.9660  0.5126
  366MOL0     H48311  11.430   5.351   7.881  0.6757  1.6801 -1.9414
  366MOL0     H48312  11.379   5.229   8.072  2.6446  0.5388 -3.2326
  367MOL0     O48313   8.700   3.712   0.393  0.1016  0.0435  1.0436
  367MOL0     C48314   8.786   3.627   0.378 -0.1499  0.8976  0.1728
  367MOL0     O48315   8.910   3.660   0.326 -0.7238  1.1324 -0.1664
  367MOL0     C48316   8.945   3.792   0.322 -0.2158  0.1383  0.2787
  367MOL0     C48317   8.914   3.878   0.430 -0.5316  0.5499  0.0066
  367MOL0     C48318   8.937   4.013   0.409  0.4377 -0.3023 -0.7716
  367MOL0     C48319   8.986   4.072   0.286  0.2015 -0.2206  0.0555
  367MOL0     O48320   9.008   4.208   0.289  0.5208 -0.3739  0.8800
  367MOL0     C48321   9.047   4.279   0.167 -0.2721  0.9389 -1.0293
  367MOL0     C48322   8.940   4.290   0.065  0.7167 -0.7286  0.3752
  367MOL0     C48323   8.955   4.387  -0.056  0.0851 -0.6778  0.1443
  367MOL0     C48324   8.954   4.535  -0.005  0.4130  0.2782  0.4330
  367MOL0     C48325   9.095   4.603   0.002  0.5597  0.8618 -0.1620
  367MOL0     C48326   9.075   4.754   0.003 -0.0887  0.5244 -0.2841
  367MOL0     C48327   9.073   4.819  -0.130 -0.4730 -0.4365 -0.4228
  367MOL0     C48328   9.058   4.972  -0.133  1.2581  0.4791 -0.1117
  367MOL0     N48329   8.935   5.015  -0.058 -0.6505 -0.5661  0.5344
  367MOL0     C48330   8.918   5.024   0.081 -0.6129 -1.2667 -0.0634
  367MOL0     C48331   8.798   5.087   0.098 -0.1895 -0.4299 -0.1342
  367MOL0     C48332   8.725   5.130   0.232 -0.1878 -0.7571  0.0784
  367MOL0     C48333   8.794   5.117   0.357 -1.1938 -0.6241 -0.2156
  367MOL0     C48334   8.789   4.976   0.419  0.4759  0.6416 -0.4100
  367MOL0     C48335   8.870   4.968   0.545 -0.0013 -0.1605 -0.7006
  367MOL0     O48336   9.003   4.991   0.517 -0.5095 -0.3500  0.0524
  367MOL0     C48337   9.108   4.986   0.606  0.5374  0.0629 -0.0488
  367MOL0     C48338   9.227   5.035   0.569  0.3907  0.0641  0.2125
  367MOL0     C48339   9.342   5.030   0.651 -0.8659  1.4763  0.2320
  367MOL0     C48340   9.331   4.966   0.777  0.3385  0.5814 -0.8510
  367MOL0     C48341   9.453   4.943   0.859  0.3800  0.8922 -1.1661
  367MOL0     O48342   9.552   5.046   0.863  0.2892  0.5393 -0.5530
  367MOL0     C48343   9.682   5.015   0.900  0.4629  0.7226 -0.8169
  367MOL0     C48344   9.733   4.886   0.918  0.6676 -1.0409 -0.7039
  367MOL0     C48345   9.869   4.865   0.965 -0.7148 -0.6354  0.1414
  367MOL0     C48346   9.948   4.974   0.995 -0.2319 -0.7437  0.1680
  367MOL0     O48347  10.073   4.968   1.044  0.4844 -0.1621 -0.0690
  367MOL0     C48348  10.109   4.859   1.133  0.0288 -0.7337  0.2467
  367MOL0     C48349  10.206   4.909   1.244 -1.3461 -0.7686  0.3322
  367MOL0     C48350  10.338   4.944   1.181 -0.5214 -0.4836 -0.1640
  367MOL0     C48351  10.429   4.827   1.173 -1.2398  0.6367 -0.5775
  367MOL0     C48352  10.574   4.872   1.145  0.9908 -0.0895 -0.2232
  367MOL0     C48353  10.670   4.763   1.102 -0.1985  0.9409  0.5555
  367MOL0     C48354  10.619   4.662   1.013 -0.9140  0.2221 -0.4952
  367MOL0     C48355  10.580   4.719   0.878 -0.1573  0.0225  0.1288
  367MOL0    Cl48356  10.724   4.811   0.809  0.1260 -0.1965 -0.1126
  367MOL0     C48357   9.888   5.100   0.999  0.2574  0.5883  0.3724
  367MOL0     C48358   9.760   5.123   0.941  0.3823 -0.0971 -0.0142
  367MOL0     O48359   9.451   4.838   0.925 -1.0256  0.4201  0.2610
  367MOL0     C48360   9.196   4.918   0.821 -0.3876  0.3952  0.3805
  367MOL0     C48361   9.087   4.947   0.739  0.2427 -0.2703  1.0611
  367MOL0     N48362   8.737   5.088  -0.025 -0.5458  0.6649 -0.1057
  367MOL0     N48363   8.826   5.063  -0.118  0.1428 -0.0312  0.0823
  367MOL0     C48364   9.016   3.979   0.187  0.5037 -0.1470 -0.2745
  367MOL0     C48365   8.988   3.840   0.202  0.0153 -0.8578  0.0562
  367MOL0     C48366   8.748   3.489   0.402 -0.0178  0.3702  1.3663
  367MOL0     C48367   8.619   3.449   0.446 -1.0855  0.1376  0.5540
  367MOL0     C48368   8.604   3.311   0.451  0.0009  0.0953 -0.1348
  367MOL0     C48369   8.708   3.214   0.440  0.3481  0.5518 -0.0614
  367MOL0     O48370   8.684   3.078   0.447 -0.4073  0.2088 -0.7041
  367MOL0     C48371   8.724   3.023   0.577  0.6300  0.3836 -0.6182
  367MOL0     C48372   8.821   2.904   0.552  0.1628  0.7482 -0.4684
  367MOL0     C48373   8.864   2.842   0.681  0.4927  0.1922 -0.0003
  367MOL0     C48374   8.968   2.736   0.682 -0.1864 -0.2361  0.5980
  367MOL0     C48375   8.979   2.679   0.812  0.3743  0.2622 -0.2185
  367MOL0     C48376   8.999   2.615   0.912 -0.2089 -0.3953 -0.5037
  367MOL0     C48377   8.832   3.253   0.394  0.8550  0.0472 -0.2855
  367MOL0     C48378   8.850   3.393   0.374  0.3763 -0.3433  0.7125
  367MOL0     H48379   8.866   3.836   0.518  2.2539 -0.6532  1.0803
  367MOL0     H48380   8.918   4.082   0.491 -1.1698  0.6795 -1.9069
  367MOL0     H48381   9.137   4.236   0.123 -0.5887 -0.3261 -0.4919
  367MOL0     H48382   9.077   4.381   0.193  1.0089  0.5939 -1.0731
  367MOL0     H48383   8.854   4.321   0.125  0.2920  1.4185 -1.2261
  367MOL0     H48384   8.915   4.188   0.037  2.2132 -1.7386  2.4171
  367MOL0     H48385   8.874   4.381  -0.129 -0.2460  0.8664  0.3537
  367MOL0     H48386   9.050   4.369  -0.106  1.5290  1.8391  1.7487
  367MOL0     H48387   8.875   4.592  -0.055 -1.2081 -1.8354  0.4707
  367MOL0     H48388   8.917   4.537   0.097 -0.4820  2.2138  0.1163
  367MOL0     H48389   9.166   4.572  -0.074  1.0183 -0.2459  0.6951
  367MOL0     H48390   9.142   4.579   0.098  0.3824 -1.3631 -0.5900
  367MOL0     H48391   9.165   4.792   0.052 -0.4132 -0.4894  1.1433
  367MOL0     H48392   8.991   4.772   0.070  0.0323 -1.5135  0.4873
  367MOL0     H48393   9.164   4.795  -0.186 -1.3138 -0.7609 -1.6919
  367MOL0     H48394   8.983   4.784  -0.180 -3.2945  3.3288  1.4939
  367MOL0     H48395   9.032   4.988  -0.238  1.0010  1.2222  0.0627
  367MOL0     H48396   9.152   5.019  -0.104  2.1031 -0.6781 -0.8909
  367MOL0     H48397   8.981   4.990   0.163 -1.3464 -0.9191  0.6674
  367MOL0     H48398   8.632   5.072   0.241 -0.2263 -0.4766  1.5606
  367MOL0     H48399   8.694   5.234   0.220  0.0724 -0.5453  1.2121
  367MOL0     H48400   8.770   5.204   0.420  4.0175  2.4808 -1.9177
  367MOL0     H48401   8.897   5.142   0.332 -1.4552  0.5339 -0.2229
  367MOL0     H48402   8.687   4.943   0.439  0.1140  2.6070  1.2796
  367MOL0     H48403   8.838   4.908   0.348  0.9187  0.1098  0.3797
  367MOL0     H48404   8.878   4.865   0.582  0.7226  0.4134  0.8271
  367MOL0     H48405   8.828   5.027   0.626 -1.0265 -0.0245 -1.3171
  367MOL0     H48406   9.219   5.077   0.469 -2.4009 -1.2647 -0.2195
  367MOL0     H48407   9.438   5.059   0.610  1.7616 -1.7544  3.4505
  367MOL0     H48408   9.685   4.790   0.901  2.0057 -2.2128  1.5779
  367MOL0     H48409   9.920   4.770   0.978  1.9809  0.6415 -0.6113
  367MOL0     H48410  10.144   4.777   1.071  0.2183  0.5642 -1.4417
  367MOL0     H48411  10.019   4.824   1.184 -1.7313  0.8904 -1.5813
  367MOL0     H48412  10.218   4.840   1.329  1.1992  1.8032  2.2351
  367MOL0     H48413  10.157   4.994   1.292 -0.2425 -0.9117  1.7933
  367MOL0     H48414  10.377   5.028   1.239 -0.5128 -1.9465  2.0823
  367MOL0     H48415  10.334   4.977   1.077  0.3144 -1.0811 -0.3986
  367MOL0     H48416  10.441   4.777   1.270 -2.4089  0.8781 -0.2945
  367MOL0     H48417  10.398   4.758   1.094  3.1904  1.2459 -3.2047
  367MOL0     H48418  10.620   4.905   1.238 -2.6406  2.3614  0.9481
  367MOL0     H48419  10.572   4.954   1.073  0.4026 -0.3857 -0.5540
  367MOL0     H48420  10.717   4.714   1.188  3.5281 -1.5056 -2.4996
  367MOL0     H48421  10.757   4.810   1.054  0.5877 -1.6166 -0.7314
  367MOL0     H48422  10.704   4.597   0.988  0.9585  2.4434 -0.2466
  367MOL0     H48423  10.545   4.600   1.064  4.2106 -2.6265  4.7329
  367MOL0     H48424  10.498   4.789   0.894 -1.2354 -0.6022 -2.2370
  367MOL0     H48425  10.546   4.650   0.800  2.5243  2.4516 -3.5662
  367MOL0     H48426   9.946   5.174   1.053  1.6688 -1.1736  1.3919
  367MOL0     H48427   9.718   5.221   0.924 -1.0299 -0.6133  0.3929
  367MOL0     H48428   9.178   4.888   0.924  0.8673  1.8023  1.0498
  367MOL0     H48429   8.985   4.934   0.775 -1.0534  2.0670 -1.3877
  367MOL0     H48430   9.050   4.015   0.090 -0.2423 -1.9317 -1.2426
  367MOL0     H48431   9.000   3.763   0.127 -1.7873 -0.9675 -0.1604
  367MOL0     H48432   8.531   3.508   0.470 -2.7126 -3.1400  3.4753
  367MOL0     H48433   8.504   3.270   0.459  0.1966 -0.1033  5.8691
  367MOL0     H48434   8.635   2.998   0.635  1.7718  1.5599  1.8155
  367MOL0     H48435   8.787   3.095   0.630  1.3451  0.8543 -2.0718
  367MOL0     H48436   8.770   2.829   0.492  0.7280  1.8666 -2.4693
  367MOL0     H48437   8.913   2.933   0.499  0.1532  5.3812  1.5204
  367MOL0     H48438   8.773   2.806   0.730 -0.1640  1.1608 -0.4851
  367MOL0     H48439   8.917   2.921   0.734  0.1105  1.6340 -1.7097
  367MOL0     H48440   8.936   2.652   0.620  1.7148 -1.3808  1.0591
  367MOL0     H48441   9.063   2.777   0.646 -1.1217  1.2984 -0.1906
  367MOL0     H48442   9.004   2.564   1.006 -1.9093  0.2488 -0.0147
  367MOL0     H48443   8.902   3.176   0.363 -2.0337 -2.5755 -0.8518
  367MOL0     H48444   8.937   3.429   0.318  0.4169  1.4962  1.8563
  368MOL0     O48445   6.126   6.294   0.934 -0.5229 -0.1588  0.3291
  368MOL0     C48446   6.085   6.399   0.975  0.1269 -0.1643 -0.0627
  368MOL0     O48447   6.155   6.508   0.954 -0.3237  0.0378 -0.2007
  368MOL0     C48448   6.286   6.506   0.907 -0.5241  0.0970 -0.0254
  368MOL0     C48449   6.338   6.449   0.790  0.4075 -0.2180  1.2824
  368MOL0     C48450   6.477   6.460   0.766  1.0441  0.6269 -0.6026
  368MOL0     C48451   6.564   6.547   0.838  0.1813 -0.5968 -0.6330
  368MOL0     O48452   6.704   6.553   0.828 -0.3725 -0.0163 -0.2774
  368MOL0     C48453   6.755   6.544   0.695  0.0643 -0.4871 -0.1187
  368MOL0     C48454   6.903   6.561   0.679 -0.9535 -0.3744  0.3559
  368MOL0     C48455   6.963   6.689   0.731 -0.3902 -0.6583 -0.0479
  368MOL0     C48456   6.926   6.739   0.876 -0.7496  0.2566 -0.0110
  368MOL0     C48457   7.034   6.826   0.935 -0.0932 -0.7103  0.8525
  368MOL0     C48458   7.000   6.844   1.085 -0.1728  0.8287  0.5794
  368MOL0     C48459   7.093   6.951   1.146  0.7736  0.4786 -0.1261
  368MOL0     C48460   7.053   6.984   1.293 -0.8946 -0.2264  0.1692
  368MOL0     N48461   7.126   7.103   1.332 -0.1035  0.3314  0.2755
  368MOL0     C48462   7.238   7.096   1.413  0.0605  0.1778  0.0218
  368MOL0     C48463   7.275   7.230   1.438  0.2276 -0.0446 -0.2801
  368MOL0     C48464   7.383   7.281   1.526 -0.1048 -1.0908 -0.3211
  368MOL0     C48465   7.526   7.278   1.475  0.6975  0.1467  0.1628
  368MOL0     C48466   7.529   7.387   1.361 -0.0647  0.5460 -0.0481
  368MOL0     C48467   7.674   7.402   1.325  0.4093 -1.4650  0.5122
  368MOL0     O48468   7.747   7.444   1.439 -0.4079  0.7660  0.3317
  368MOL0     C48469   7.756   7.579   1.456 -0.1768  0.1868 -0.3951
  368MOL0     C48470   7.793   7.664   1.346  0.2552  0.6876 -0.0011
  368MOL0     C48471   7.807   7.797   1.374  0.3788  0.0569  0.6358
  368MOL0     C48472   7.788   7.862   1.496  0.7033 -0.6680 -0.3419
  368MOL0     C48473   7.812   8.008   1.507 -0.1668  0.4756 -0.3485
  368MOL0     O48474   7.845   8.083   1.396 -0.2381  0.0361 -0.7372
  368MOL0     C48475   7.835   8.220   1.382 -0.0081 -0.0868  0.0862
  368MOL0     C48476   7.924   8.281   1.297 -0.1646 -0.2777 -0.0016
  368MOL0     C48477   7.925   8.418   1.281 -0.0574 -0.5750  0.8742
  368MOL0     C48478   7.853   8.498   1.372 -0.0969  0.0741  0.5517
  368MOL0     O48479   7.874   8.636   1.363 -0.2475 -0.2713  0.4997
  368MOL0     C48480   7.943   8.699   1.256 -0.0836  0.5487 -0.5799
  368MOL0     C48481   7.829   8.767   1.166 -0.7706 -0.5739  0.2921
  368MOL0     C48482   7.744   8.674   1.082  0.7607 -1.9044  0.0438
  368MOL0     C48483   7.625   8.745   1.011 -0.1329 -0.1689 -0.5284
  368MOL0     C48484   7.559   8.650   0.911 -0.2999  0.1568 -0.3647
  368MOL0     C48485   7.422   8.697   0.871 -0.3866  0.1712 -0.2277
  368MOL0     C48486   7.319   8.682   0.994 -0.5971 -0.1666 -0.3436
  368MOL0     C48487   7.244   8.817   0.990 -0.2995 -0.5590  0.1121
  368MOL0    Cl48488   7.107   8.816   1.098 -0.0379  0.3819  0.4102
  368MOL0     C48489   7.775   8.435   1.467  0.7664  0.3609  0.9879
  368MOL0     C48490   7.755   8.299   1.467  0.7101  0.6350  0.1671
  368MOL0     O48491   7.807   8.046   1.628 -0.5238  0.6780  0.4022
  368MOL0     C48492   7.770   7.776   1.602 -0.6166  0.4428 -0.1397
  368MOL0     C48493   7.753   7.636   1.586  0.7393  0.0421 -0.2225
  368MOL0     N48494   7.192   7.308   1.358 -0.9382 -0.4701  0.1683
  368MOL0     N48495   7.099   7.230   1.294  0.1431 -0.9664  0.2810
  368MOL0     C48496   6.513   6.595   0.956 -0.3586 -0.1955 -0.3873
  368MOL0     C48497   6.381   6.578   0.988  0.3215 -0.1882 -0.3311
  368MOL0     C48498   5.944   6.418   1.012  0.9265 -0.0133  0.0945
  368MOL0     C48499   5.865   6.307   1.044 -0.7951 -0.8570  0.4594
  368MOL0     C48500   5.738   6.336   1.084  0.9646 -0.3659 -0.8566
  368MOL0     C48501   5.681   6.462   1.081  0.0631  0.8517  1.1926
  368MOL0     O48502   5.545   6.473   1.088 -0.0437  0.4717  0.2992
  368MOL0     C48503   5.471   6.351   1.129 -0.6430  0.5343  0.1900
  368MOL0     C48504   5.319   6.373   1.137 -0.2106  0.6976  0.7194
  368MOL0     C48505   5.284   6.404   1.272 -0.5512 -0.6680 -1.0300
  368MOL0     C48506   5.344   6.533   1.340 -0.6330  0.0232 -0.2736
  368MOL0     C48507   5.297   6.528   1.477 -0.9527  0.6349  0.3229
  368MOL0     C48508   5.258   6.518   1.591  0.3040  0.5938  0.3718
  368MOL0     C48509   5.759   6.555   1.031  0.0515 -1.7748 -0.2901
  368MOL0     C48510   5.891   6.540   1.003  0.6784  0.7513 -0.1662
  368MOL0     H48511   6.276   6.397   0.718 -0.9686  0.8810  1.6378
  368MOL0     H48512   6.513   6.420   0.672  1.9313 -3.7039  1.3372
  368MOL0     H48513   6.719   6.632   0.640  0.6373 -0.5860 -0.6594
  368MOL0     H48514   6.719   6.456   0.641  2.3838 -1.3208 -0.3947
  368MOL0     H48515   6.929   6.549   0.573  1.5964  2.2812  0.5633
  368MOL0     H48516   6.961   6.481   0.724 -0.0967 -1.0643 -1.8559
  368MOL0     H48517   6.943   6.758   0.649  0.1612  0.5525  0.8117
  368MOL0     H48518   7.069   6.664   0.741 -0.0256  1.2165  1.4195
  368MOL0     H48519   6.825   6.780   0.878 -0.8398  0.0260  0.6780
  368MOL0     H48520   6.920   6.651   0.942  2.2483 -0.2739 -0.2937
  368MOL0     H48521   7.031   6.930   0.902  1.6748  0.5505  4.1598
  368MOL0     H48522   7.130   6.777   0.916 -0.1595  0.1767 -2.3749
  368MOL0     H48523   7.015   6.749   1.138  0.1886  2.1765  3.0800
  368MOL0     H48524   6.897   6.878   1.069 -0.1970  0.0996 -1.0045
  368MOL0     H48525   7.196   6.913   1.154 -0.0509 -1.7420  0.7306
  368MOL0     H48526   7.096   7.040   1.083  1.3582 -0.6264 -1.7308
  368MOL0     H48527   7.092   6.901   1.353  1.1590  1.2761  1.0592
  368MOL0     H48528   6.949   7.011   1.309 -0.0412  3.0139  0.9716
  368MOL0     H48529   7.274   7.013   1.472  0.7497  0.0718 -0.5382
  368MOL0     H48530   7.371   7.229   1.622  3.0167  1.7033  1.7896
  368MOL0     H48531   7.366   7.385   1.553 -1.2812 -1.7351  1.5953
  368MOL0     H48532   7.546   7.176   1.439  1.3402 -0.2962  1.6780
  368MOL0     H48533   7.605   7.290   1.549  1.4148 -3.5907  0.2272
  368MOL0     H48534   7.469   7.360   1.273 -1.1289 -0.3754  0.9419
  368MOL0     H48535   7.495   7.484   1.397  2.4861  1.8855 -0.9782
  368MOL0     H48536   7.690   7.446   1.226  0.5643 -5.5264 -1.4999
  368MOL0     H48537   7.710   7.302   1.300  0.0351 -0.9729 -2.3648
  368MOL0     H48538   7.810   7.622   1.247 -1.1262 -0.7442  0.3314
  368MOL0     H48539   7.807   7.868   1.292  1.2037  2.3868  2.5085
  368MOL0     H48540   7.988   8.227   1.228  0.9148  1.0071 -0.0480
  368MOL0     H48541   7.985   8.441   1.193 -1.6055 -1.1369 -0.3973
  368MOL0     H48542   8.010   8.633   1.200  0.0148 -0.3686  0.5899
  368MOL0     H48543   8.008   8.772   1.305  2.3939 -3.0020  1.9231
  368MOL0     H48544   7.878   8.844   1.105 -0.0501 -0.5150  0.9284
  368MOL0     H48545   7.772   8.830   1.235 -2.0705  0.2209 -1.4315
  368MOL0     H48546   7.703   8.588   1.135 -2.3542 -1.9953 -2.2325
  368MOL0     H48547   7.810   8.623   1.011  2.1377 -2.7239  1.8342
  368MOL0     H48548   7.567   8.783   1.096  0.1469 -2.6931  0.9279
  368MOL0     H48549   7.650   8.836   0.957  0.5255 -1.8381 -3.2638
  368MOL0     H48550   7.554   8.546   0.945 -1.3532  0.4946  0.5644
  368MOL0     H48551   7.627   8.650   0.826 -0.1963  2.1334 -0.3147
  368MOL0     H48552   7.390   8.625   0.795 -3.4208 -2.4587  3.1747
  368MOL0     H48553   7.440   8.794   0.825  0.4660 -0.3784 -1.1032
  368MOL0     H48554   7.246   8.600   0.985  0.6031 -1.6599  2.3051
  368MOL0     H48555   7.366   8.661   1.091  2.1550  0.2853 -1.5082
  368MOL0     H48556   7.212   8.852   0.891  0.4384  2.2152  0.7710
  368MOL0     H48557   7.312   8.894   1.028 -0.8196  0.5854 -1.2039
  368MOL0     H48558   7.727   8.490   1.547 -2.1423  0.3365 -0.6050
  368MOL0     H48559   7.690   8.255   1.542 -2.9127  1.5826 -2.1721
  368MOL0     H48560   7.788   7.807   1.704 -0.6484 -2.9760  1.0428
  368MOL0     H48561   7.737   7.562   1.664  0.1130 -1.6682 -1.8929
  368MOL0     H48562   6.580   6.629   1.035 -0.7536 -0.0103 -0.1300
  368MOL0     H48563   6.365   6.619   1.087  1.8150  2.1068 -0.9703
  368MOL0     H48564   5.916   6.211   1.045 -0.5030 -0.8305 -2.6347
  368MOL0     H48565   5.702   6.243   1.126  0.0251 -0.8845 -2.7055
  368MOL0     H48566   5.518   6.306   1.217  0.2306  1.3860  0.1696
  368MOL0     H48567   5.478   6.272   1.054 -1.1126  2.1594 -1.6595
  368MOL0     H48568   5.274   6.453   1.078 -0.7306  0.6495  1.0424
  368MOL0     H48569   5.264   6.283   1.108  0.2757  1.1755 -1.9691
  368MOL0     H48570   5.318   6.315   1.326 -1.0156 -1.6057 -2.2568
  368MOL0     H48571   5.175   6.410   1.270 -0.4827  0.8581 -1.4054
  368MOL0     H48572   5.453   6.532   1.327 -0.8203  1.0636 -2.1249
  368MOL0     H48573   5.306   6.623   1.291  0.4856 -0.3935 -2.0033
  368MOL0     H48574   5.215   6.507   1.689 -2.3049  2.2185 -0.4741
  368MOL0     H48575   5.724   6.657   1.032  2.9136 -0.6452  2.4652
  368MOL0     H48576   5.941   6.632   0.974  2.9047 -0.9820 -2.1334
  369MOL0     O48577   1.644   0.345  11.009 -0.7245 -0.0769  0.5349
  369MOL0     C48578   1.565   0.404  10.939 -0.2037 -0.1928  1.1060
  369MOL0     O48579   1.432   0.395  10.963  0.5688 -0.5501 -0.3321
  369MOL0     C48580   1.376   0.308  11.048 -0.4298 -0.1725 -0.6301
  369MOL0     C48581   1.267   0.347  11.120 -1.1564 -0.1959 -0.6848
  369MOL0     C48582   1.210   0.249  11.209 -0.0057 -0.4561 -0.3656
  369MOL0     C48583   1.251   0.113  11.201  0.0654  0.0167 -0.1134
  369MOL0     O48584   1.202   0.012  11.271 -0.2389  1.1005 -0.1451
  369MOL0     C48585   1.086   0.033  11.355  0.4896  1.4813 -0.8204
  369MOL0     C48586   1.068  -0.095  11.437  1.0167  0.2279 -0.5594
  369MOL0     C48587   1.181  -0.131  11.533  0.6749 -0.9584  0.8858
  369MOL0     C48588   1.171  -0.270  11.604  0.0541 -0.3402 -0.2379
  369MOL0     C48589   1.280  -0.301  11.706  0.0458  0.1973 -0.2362
  369MOL0     C48590   1.287  -0.443  11.767  0.1056 -0.3362 -0.5302
  369MOL0     C48591   1.401  -0.455  11.876  1.2978  0.2337  0.1187
  369MOL0     C48592   1.367  -0.569  11.983 -0.1542 -0.0577  0.3463
  369MOL0     N48593   1.354  -0.691  11.905 -0.7765  0.6359  0.0289
  369MOL0     C48594   1.232  -0.733  11.853  0.4262 -0.2906 -1.4552
  369MOL0     C48595   1.273  -0.851  11.799  0.1928 -0.4762 -0.6445
  369MOL0     C48596   1.188  -0.948  11.725 -0.4191 -0.8092 -1.0133
  369MOL0     C48597   1.237  -1.087  11.706  0.1677  0.7574 -0.3693
  369MOL0     C48598   1.153  -1.170  11.610  0.2207 -0.0310  0.1894
  369MOL0     C48599   1.209  -1.310  11.589  0.0536 -0.1915  0.6817
  369MOL0     O48600   1.215  -1.385  11.705 -0.0021 -0.0031  0.8417
  369MOL0     C48601   1.291  -1.500  11.690 -0.3937 -0.2238 -0.1145
  369MOL0     C48602   1.357  -1.544  11.576 -1.1381 -0.2415 -0.7969
  369MOL0     C48603   1.442  -1.650  11.591 -0.0921  0.7122  0.6110
  369MOL0     C48604   1.450  -1.724  11.706  0.9266  0.0079 -0.5922
  369MOL0     C48605   1.548  -1.837  11.707 -0.1847 -0.3243 -0.0428
  369MOL0     O48606   1.503  -1.943  11.786 -0.1190  0.1072 -0.2498
  369MOL0     C48607   1.566  -2.062  11.811  0.2916  1.2328  1.0724
  369MOL0     C48608   1.707  -2.076  11.797  0.6522  0.3410 -0.1459
  369MOL0     C48609   1.756  -2.202  11.804 -0.8516  1.2021  1.2260
  369MOL0     C48610   1.674  -2.316  11.831 -0.9494  0.6916  0.5102
  369MOL0     O48611   1.730  -2.442  11.837 -0.4760  0.0278  0.1522
  369MOL0     C48612   1.678  -2.521  11.731 -0.5798 -0.0235 -0.0410
  369MOL0     C48613   1.789  -2.554  11.640 -0.3109  0.9669  0.6855
  369MOL0     C48614   1.739  -2.591  11.498  0.0814  0.9926  0.2122
  369MOL0     C48615   1.639  -2.709  11.514  0.0058  0.1785 -0.7360
  369MOL0     C48616   1.593  -2.746  11.380 -0.4332 -0.8370 -0.0357
  369MOL0     C48617   1.451  -2.803  11.375  0.4256 -0.5270  0.3968
  369MOL0     C48618   1.441  -2.885  11.252 -0.0450  0.9826  1.1072
  369MOL0     C48619   1.511  -3.023  11.291  1.1861  0.5803 -0.1242
  369MOL0    Cl48620   1.402  -3.130  11.376  0.4215 -0.2820 -0.2299
  369MOL0     C48621   1.547  -2.296  11.867  0.8366  0.3260  0.0131
  369MOL0     C48622   1.487  -2.176  11.836 -0.0888 -0.4803 -0.1385
  369MOL0     O48623   1.650  -1.836  11.641  0.7916 -0.0671  0.6611
  369MOL0     C48624   1.363  -1.701  11.811  0.4253 -0.5748  0.2171
  369MOL0     C48625   1.293  -1.583  11.808  0.2378  0.3988 -0.5033
  369MOL0     N48626   1.407  -0.876  11.821 -0.5423  0.4683  0.8884
  369MOL0     N48627   1.458  -0.776  11.879  0.2833  0.1207  0.2052
  369MOL0     C48628   1.353   0.071  11.113 -0.1592  0.1827 -0.1169
  369MOL0     C48629   1.413   0.172  11.038 -0.2950  0.3990  0.1613
  369MOL0     C48630   1.609   0.479  10.835 -0.0913 -0.0757  0.4037
  369MOL0     C48631   1.746   0.504  10.805 -0.9571 -0.0033 -1.0031
  369MOL0     C48632   1.792   0.595  10.711 -1.2095 -0.2863 -0.6035
  369MOL0     C48633   1.701   0.673  10.644  0.7297  0.5730 -0.6208
  369MOL0     O48634   1.755   0.758  10.559  0.5577 -0.1949  0.7653
  369MOL0     C48635   1.689   0.833  10.454 -0.7372  0.2306  0.4253
  369MOL0     C48636   1.622   0.953  10.504 -0.6588  0.8798  0.3354
  369MOL0     C48637   1.570   1.035  10.380  0.2601 -0.1089  0.0441
  369MOL0     C48638   1.676   1.114  10.298  0.5362  0.5177 -0.8585
  369MOL0     C48639   1.780   1.038  10.221  0.0073  0.4407 -0.5225
  369MOL0     C48640   1.873   0.998  10.154 -0.4201  0.1506  0.2676
  369MOL0     C48641   1.567   0.636  10.647 -0.4293 -0.6286  0.3388
  369MOL0     C48642   1.524   0.539  10.738 -0.4730 -0.9239 -0.5208
  369MOL0     H48643   1.226   0.448  11.115 -1.1802 -0.2423 -1.5942
  369MOL0     H48644   1.124   0.280  11.267  0.8803  0.8678  0.3094
  369MOL0     H48645   0.998   0.038  11.289  1.6521 -0.5257 -2.6578
  369MOL0     H48646   1.085   0.122  11.419 -0.2043 -1.0689  3.0432
  369MOL0     H48647   1.048  -0.171  11.361  1.7717 -0.6122  0.0572
  369MOL0     H48648   0.977  -0.095  11.496 -0.1507 -2.9839 -2.0826
  369MOL0     H48649   1.167  -0.058  11.614 -2.2081 -0.0590 -0.2946
  369MOL0     H48650   1.278  -0.107  11.489 -0.6296 -1.2817 -2.3736
  369MOL0     H48651   1.072  -0.273  11.649 -0.3270  1.3764 -0.9204
  369MOL0     H48652   1.177  -0.339  11.519  0.1014  0.1676 -0.6506
  369MOL0     H48653   1.259  -0.235  11.791 -0.0721 -1.1660  0.8213
  369MOL0     H48654   1.379  -0.288  11.660  0.5181  0.5393  0.8312
  369MOL0     H48655   1.306  -0.516  11.688  0.3138 -0.0031 -0.7974
  369MOL0     H48656   1.188  -0.466  11.806 -0.4840 -3.5602 -3.4544
  369MOL0     H48657   1.497  -0.471  11.825  1.4787  1.4634  0.0384
  369MOL0     H48658   1.418  -0.359  11.925  1.4869 -0.0239  0.5669
  369MOL0     H48659   1.277  -0.532  12.033 -1.0678 -0.6673 -0.7863
  369MOL0     H48660   1.454  -0.580  12.048 -1.4799 -0.9850  2.0357
  369MOL0     H48661   1.132  -0.694  11.838 -0.4017 -1.7185 -0.0330
  369MOL0     H48662   1.166  -0.910  11.625 -1.3133 -0.7265 -0.7877
  369MOL0     H48663   1.094  -0.950  11.780 -0.0157  0.1901 -0.2583
  369MOL0     H48664   1.234  -1.141  11.802 -0.7338 -1.0387 -1.3532
  369MOL0     H48665   1.340  -1.090  11.672  0.2286 -1.5361 -0.1582
  369MOL0     H48666   1.056  -1.165  11.660  0.1375  2.8172 -0.0827
  369MOL0     H48667   1.151  -1.123  11.511 -1.6203  1.2831  0.7889
  369MOL0     H48668   1.306  -1.284  11.545 -0.7776  2.2109  0.1267
  369MOL0     H48669   1.160  -1.361  11.505 -0.5195  0.0280  0.8800
  369MOL0     H48670   1.347  -1.481  11.488 -2.4690  0.1006 -0.4351
  369MOL0     H48671   1.498  -1.669  11.500 -1.2450  0.3983 -0.0528
  369MOL0     H48672   1.771  -1.991  11.773  0.7614  0.2148 -0.3037
  369MOL0     H48673   1.863  -2.207  11.786 -0.8628  2.9564  0.4183
  369MOL0     H48674   1.595  -2.475  11.677 -0.8385 -0.7367 -0.2526
  369MOL0     H48675   1.644  -2.612  11.781 -0.7709 -0.4443 -0.9137
  369MOL0     H48676   1.821  -2.651  11.679 -2.7235 -1.4313 -2.6679
  369MOL0     H48677   1.851  -2.464  11.631 -0.0997  0.7836  0.3319
  369MOL0     H48678   1.829  -2.606  11.438 -0.7246  1.6473 -1.1951
  369MOL0     H48679   1.685  -2.508  11.453 -0.9037  0.5179  0.4861
  369MOL0     H48680   1.678  -2.801  11.557 -5.1080 -0.1343  4.3162
  369MOL0     H48681   1.556  -2.672  11.575  1.0988 -0.9379  1.5071
  369MOL0     H48682   1.674  -2.806  11.338 -0.3979 -0.0596 -1.1098
  369MOL0     H48683   1.591  -2.657  11.316 -0.3411  0.5501  1.8092
  369MOL0     H48684   1.380  -2.721  11.373  1.3143  0.2636  0.4286
  369MOL0     H48685   1.422  -2.853  11.468  1.2606 -1.0823  0.3776
  369MOL0     H48686   1.335  -2.906  11.232  0.1519 -1.7036  2.3473
  369MOL0     H48687   1.485  -2.837  11.165  0.5892 -2.3717 -0.6013
  369MOL0     H48688   1.602  -3.007  11.350  0.8307 -0.5049  0.7487
  369MOL0     H48689   1.535  -3.080  11.201  1.0614  0.2923  0.0229
  369MOL0     H48690   1.484  -2.375  11.907  1.7750  0.2084  1.3126
  369MOL0     H48691   1.379  -2.164  11.847  0.0927  0.0283  1.2317
  369MOL0     H48692   1.377  -1.752  11.906 -1.4733  0.9290  1.3790
  369MOL0     H48693   1.248  -1.563  11.905  1.5380 -0.9192  0.4151
  369MOL0     H48694   1.384  -0.033  11.112 -1.8688 -0.3586 -1.4128
  369MOL0     H48695   1.491   0.140  10.969  2.8165  2.9781  2.2350
  369MOL0     H48696   1.814   0.447  10.867 -3.1811 -0.0354  1.5859
  369MOL0     H48697   1.899   0.613  10.711 -1.5726  2.5169  1.1946
  369MOL0     H48698   1.618   0.775  10.396 -1.3359  0.5420  0.8398
  369MOL0     H48699   1.778   0.859  10.395  0.7705 -1.0887  1.9999
  369MOL0     H48700   1.549   0.925  10.579 -0.8378 -0.2521 -0.2396
  369MOL0     H48701   1.692   1.017  10.558 -0.9619 -0.4996  2.4492
  369MOL0     H48702   1.503   1.116  10.409  0.0739  0.4422 -1.7613
  369MOL0     H48703   1.496   0.993  10.310  0.4383  3.6238 -2.7051
  369MOL0     H48704   1.620   1.178  10.228 -2.6443 -1.0092  0.1084
  369MOL0     H48705   1.733   1.176  10.368 -1.7007 -0.2469  1.8039
  369MOL0     H48706   1.953   0.992  10.083 -3.0298  1.0510 -3.0030
  369MOL0     H48707   1.495   0.688  10.585 -0.9827 -1.2027  0.4825
  369MOL0     H48708   1.418   0.523  10.755 -0.5937 -3.2143 -2.8468
  370MOL0     O48709   9.666   1.753   0.051  0.4328 -0.2326  0.1384
  370MOL0     C48710   9.626   1.782  -0.060  0.1532  0.3341 -0.1569
  370MOL0     O48711   9.578   1.696  -0.154 -0.6697  0.2806 -0.2036
  370MOL0     C48712   9.592   1.561  -0.129 -0.2572  0.4765 -0.3665
  370MOL0     C48713   9.527   1.497  -0.023 -0.5138  0.3005  0.0507
  370MOL0     C48714   9.551   1.360  -0.008  0.1995 -0.6710  1.0477
  370MOL0     C48715   9.634   1.286  -0.101 -0.4085  0.4339  0.0338
  370MOL0     O48716   9.646   1.151  -0.097 -0.2655 -0.3719  0.1339
  370MOL0     C48717   9.763   1.113  -0.021  0.4605  0.6475 -0.5106
  370MOL0     C48718   9.776   0.958  -0.008 -0.8544 -0.1239  0.1462
  370MOL0     C48719   9.891   0.924   0.092  0.1638 -1.0504  0.6648
  370MOL0     C48720   9.885   0.766   0.097 -0.6344  0.5969  0.7376
  370MOL0     C48721   9.962   0.713   0.219  0.7709 -0.3443 -0.0179
  370MOL0     C48722   9.984   0.570   0.199 -0.8117 -0.0999  0.5547
  370MOL0     C48723  10.011   0.499   0.327  0.9863  0.8927 -0.3835
  370MOL0     C48724  10.094   0.377   0.299  0.3687  0.1658  1.0942
  370MOL0     N48725  10.112   0.326   0.434  0.5294 -0.1764  0.8577
  370MOL0     C48726  10.204   0.359   0.526 -0.5201  0.1705  0.3718
  370MOL0     C48727  10.166   0.308   0.649  0.0734  0.1661 -0.6385
  370MOL0     C48728  10.245   0.318   0.785  0.8650  0.3917  1.5641
  370MOL0     C48729  10.160   0.355   0.901 -0.3587  0.1030  0.3019
  370MOL0     C48730  10.103   0.500   0.870  0.1436 -0.0648  0.7663
  370MOL0     C48731   9.993   0.536   0.972 -0.2878  0.0570  1.1798
  370MOL0     O48732  10.054   0.544   1.096  0.5873 -0.2879 -0.5799
  370MOL0     C48733  10.129   0.655   1.136 -1.0909 -0.1044  0.5573
  370MOL0     C48734  10.116   0.778   1.080 -0.8376 -0.3903  0.7506
  370MOL0     C48735  10.188   0.887   1.114 -0.3919  0.0127  0.1529
  370MOL0     C48736  10.293   0.866   1.211 -0.2612  0.7402  0.1419
  370MOL0     C48737  10.397   0.975   1.233  0.5314  0.0907 -0.2918
  370MOL0     O48738  10.457   1.000   1.353  0.5149  0.4876  0.2402
  370MOL0     C48739  10.546   1.098   1.365 -0.6054  0.5806  0.9872
  370MOL0     C48740  10.520   1.231   1.323 -0.6084  0.8111 -0.0518
  370MOL0     C48741  10.618   1.326   1.337 -0.0216  0.5266  0.2612
  370MOL0     C48742  10.741   1.288   1.398 -0.3416 -0.3687 -0.4692
  370MOL0     O48743  10.825   1.389   1.446  0.7303  0.0045 -0.1646
  370MOL0     C48744  10.787   1.433   1.576 -0.0890  0.1597 -0.0354
  370MOL0     C48745  10.877   1.556   1.623  1.4263 -0.0408  0.1608
  370MOL0     C48746  10.857   1.686   1.536 -0.4373 -0.5347  0.2112
  370MOL0     C48747  10.972   1.793   1.557 -1.4658 -0.5765 -0.4292
  370MOL0     C48748  10.961   1.914   1.457  0.8118  0.1427  0.2988
  370MOL0     C48749  10.980   1.874   1.308 -0.6333  0.0146 -0.0391
  370MOL0     C48750  11.124   1.834   1.275 -0.0023  0.0155 -0.4391
  370MOL0     C48751  11.143   1.790   1.124  0.1583  0.7581  0.5796
  370MOL0    Cl48752  11.315   1.752   1.087  0.0025  0.3325  0.2091
  370MOL0     C48753  10.754   1.158   1.453 -1.4208 -0.4328 -0.4641
  370MOL0     C48754  10.660   1.063   1.422  0.8355 -0.6413 -0.6219
  370MOL0     O48755  10.429   1.020   1.125 -0.0223  0.2262 -0.4024
  370MOL0     C48756  10.314   0.733   1.262 -0.4313 -0.2533 -0.0753
  370MOL0     C48757  10.231   0.625   1.228 -0.0151  0.7405  0.0713
  370MOL0     N48758  10.050   0.243   0.622 -0.0182 -0.0632  0.1605
  370MOL0     N48759  10.022   0.255   0.498  0.7002 -0.0565  0.3460
  370MOL0     C48760   9.701   1.354  -0.199 -0.6786  0.2276 -0.6424
  370MOL0     C48761   9.682   1.494  -0.213 -0.5562 -0.8606  0.6837
  370MOL0     C48762   9.640   1.923  -0.097  0.7204  0.2223 -0.4201
  370MOL0     C48763   9.734   2.006  -0.038  0.0459  0.0790  0.0480
  370MOL0     C48764   9.743   2.135  -0.075 -0.5205 -1.0576 -0.5530
  370MOL0     C48765   9.652   2.199  -0.163  0.3088 -0.1690  0.4805
  370MOL0     O48766   9.648   2.335  -0.198  0.0804 -0.4208 -0.3330
  370MOL0     C48767   9.741   2.418  -0.131  0.4992 -0.0817 -1.2266
  370MOL0     C48768   9.682   2.453   0.014 -0.1280 -0.7624  0.1248
  370MOL0     C48769   9.562   2.543   0.003  0.1423 -0.4469  0.6566
  370MOL0     C48770   9.478   2.562   0.133  0.3154 -0.5651  0.5454
  370MOL0     C48771   9.561   2.636   0.227  1.1960 -0.1627 -0.7653
  370MOL0     C48772   9.629   2.695   0.310 -0.0334  0.6031  0.4854
  370MOL0     C48773   9.549   2.122  -0.217  0.1352  0.2621  0.0933
  370MOL0     C48774   9.546   1.982  -0.187 -0.3492  0.4998 -0.1719
  370MOL0     H48775   9.469   1.564   0.039  1.4785  1.8531  0.3357
  370MOL0     H48776   9.484   1.316   0.065 -2.8553 -0.1540 -1.2234
  370MOL0     H48777   9.733   1.156   0.075 -1.6210  1.6673 -1.5490
  370MOL0     H48778   9.856   1.166  -0.045  1.0459  1.1364  2.4302
  370MOL0     H48779   9.794   0.917  -0.108  1.5033  1.6688 -0.2419
  370MOL0     H48780   9.684   0.917   0.034  1.8383 -1.7280  5.3011
  370MOL0     H48781   9.879   0.970   0.191  4.3464  1.8034  0.1142
  370MOL0     H48782   9.982   0.969   0.051 -1.2938  0.1849 -1.3779
  370MOL0     H48783   9.781   0.731   0.099 -0.8438  1.2200  1.2964
  370MOL0     H48784   9.919   0.717   0.005  1.4173  1.2839  1.0870
  370MOL0     H48785   9.900   0.731   0.307  0.5512  0.6153 -0.3608
  370MOL0     H48786  10.055   0.769   0.232 -0.4017  1.9423 -0.9708
  370MOL0     H48787  10.059   0.548   0.122 -1.4570 -2.1959  0.4639
  370MOL0     H48788   9.892   0.525   0.160 -0.2110  0.0890 -1.1783
  370MOL0     H48789  10.066   0.558   0.402 -0.4966 -1.3210  2.6605
  370MOL0     H48790   9.915   0.482   0.377  0.2181  2.7379 -1.1090
  370MOL0     H48791  10.192   0.396   0.254  1.0795 -4.4456  0.2170
  370MOL0     H48792  10.031   0.314   0.236 -0.1957  2.3731 -0.6936
  370MOL0     H48793  10.294   0.414   0.502 -0.3952 -1.3442 -3.2626
  370MOL0     H48794  10.328   0.387   0.771  0.5506  0.8527  1.9275
  370MOL0     H48795  10.291   0.222   0.809  0.7110  0.5703  2.6559
  370MOL0     H48796  10.236   0.352   0.979  2.6786  0.9570 -2.3899
  370MOL0     H48797  10.075   0.291   0.927 -0.8511  0.2020 -0.9881
  370MOL0     H48798  10.188   0.569   0.861 -0.1078  0.0044 -1.7507
  370MOL0     H48799  10.061   0.500   0.769 -1.4366 -0.9735  1.3971
  370MOL0     H48800   9.920   0.455   0.974 -0.5789  0.0845 -2.2712
  370MOL0     H48801   9.939   0.628   0.948  0.1790 -0.0873 -0.5969
  370MOL0     H48802  10.038   0.808   1.010  0.1639  2.3280  0.7231
  370MOL0     H48803  10.186   0.991   1.082  0.0937  0.8140  2.5290
  370MOL0     H48804  10.418   1.236   1.285 -1.5585 -3.0488  1.5158
  370MOL0     H48805  10.598   1.425   1.300  0.5736  0.3890 -0.4662
  370MOL0     H48806  10.817   1.357   1.649  2.6062  1.9388  0.8396
  370MOL0     H48807  10.680   1.448   1.596 -0.1768 -3.6223  3.6636
  370MOL0     H48808  10.983   1.529   1.614  1.4727  0.7649 -2.7923
  370MOL0     H48809  10.862   1.575   1.730 -0.8291 -3.2873  0.5674
  370MOL0     H48810  10.761   1.739   1.542 -0.8211 -0.9640 -1.5697
  370MOL0     H48811  10.862   1.653   1.431 -2.8505 -2.7539  0.6702
  370MOL0     H48812  10.963   1.844   1.653 -0.3189  1.8810 -1.5322
  370MOL0     H48813  11.073   1.750   1.553 -0.8447 -0.1678  4.3790
  370MOL0     H48814  11.039   1.989   1.471  1.6605 -0.3367 -1.5519
  370MOL0     H48815  10.864   1.960   1.479  1.7863  2.5082 -0.0099
  370MOL0     H48816  10.967   1.970   1.256 -1.5028 -0.5225 -0.8327
  370MOL0     H48817  10.906   1.801   1.274  0.5372 -0.5630 -1.4831
  370MOL0     H48818  11.194   1.914   1.300  1.1512 -1.5770  1.7680
  370MOL0     H48819  11.135   1.746   1.339 -3.2226  0.1888  0.5437
  370MOL0     H48820  11.113   1.877   1.066 -1.7417 -1.1932 -1.5814
  370MOL0     H48821  11.083   1.703   1.094 -1.7945  3.1649 -3.2828
  370MOL0     H48822  10.843   1.136   1.510  0.9173  1.9099 -2.9422
  370MOL0     H48823  10.686   0.959   1.440  3.4823  0.0514 -0.0316
  370MOL0     H48824  10.392   0.713   1.335 -0.3298  4.6262  1.5086
  370MOL0     H48825  10.251   0.532   1.280  2.5782 -0.1133 -2.1803
  370MOL0     H48826   9.760   1.289  -0.263  0.7583 -0.0091  0.8751
  370MOL0     H48827   9.733   1.539  -0.298 -1.4600 -0.8296  0.1471
  370MOL0     H48828   9.804   1.965   0.034 -1.9125 -0.1563  1.9237
  370MOL0     H48829   9.821   2.189  -0.022 -0.7756 -0.6284 -0.6093
  370MOL0     H48830   9.751   2.507  -0.194 -3.5716  1.7061  0.2527
  370MOL0     H48831   9.840   2.376  -0.113 -0.4875 -2.6892 -1.4263
  370MOL0     H48832   9.637   2.367   0.065  0.3660 -1.0495  0.0820
  370MOL0     H48833   9.764   2.494   0.074  0.0222 -1.9527  0.7645
  370MOL0     H48834   9.494   2.509  -0.075  1.1556 -1.7008  0.2888
  370MOL0     H48835   9.602   2.642  -0.019  3.9025 -2.4708 -3.0094
  370MOL0     H48836   9.385   2.616   0.113  0.3749  0.5758  2.9372
  370MOL0     H48837   9.449   2.468   0.181  1.8432  0.0151  2.7727
  370MOL0     H48838   9.707   2.734   0.372 -1.1946 -1.1009  3.2092
  370MOL0     H48839   9.482   2.154  -0.296 -3.3012 -1.7313  1.9679
  370MOL0     H48840   9.476   1.917  -0.239 -1.1500 -1.3292  2.9041
  371MOL0     O48841   4.214   2.325   3.980 -1.1477 -0.5842  0.2065
  371MOL0     C48842   4.218   2.446   3.947  0.3904 -0.0200  0.8483
  371MOL0     O48843   4.172   2.552   4.019 -0.4600  0.5251 -0.3291
  371MOL0     C48844   4.160   2.535   4.151 -0.0866 -0.7881 -0.4083
  371MOL0     C48845   4.037   2.523   4.213  0.3766 -0.4574 -0.3769
  371MOL0     C48846   4.032   2.496   4.350  0.0572  0.2592  0.1222
  371MOL0     C48847   4.139   2.485   4.441 -0.1465 -0.0468  0.8777
  371MOL0     O48848   4.125   2.449   4.570 -0.5390 -0.5097 -0.5050
  371MOL0     C48849   4.209   2.521   4.654 -0.4046 -0.0131  0.2910
  371MOL0     C48850   4.137   2.537   4.796  1.2075 -0.3359  0.6019
  371MOL0     C48851   4.153   2.421   4.891 -0.1377 -0.5159  0.1648
  371MOL0     C48852   4.037   2.413   4.996  0.4072 -0.6212  0.1384
  371MOL0     C48853   4.043   2.515   5.113  0.3715 -0.7145  0.1355
  371MOL0     C48854   3.952   2.469   5.233 -0.1817 -0.7134  0.1124
  371MOL0     C48855   4.023   2.371   5.325  0.2681 -0.6338  0.6042
  371MOL0     C48856   3.962   2.337   5.459  0.0087  0.6503 -1.2455
  371MOL0     N48857   4.058   2.260   5.541  0.3066  0.3555 -0.6529
  371MOL0     C48858   4.150   2.296   5.629 -0.0279 -0.3616 -0.0623
  371MOL0     C48859   4.198   2.178   5.670 -0.2250 -1.0296  0.5992
  371MOL0     C48860   4.319   2.150   5.754 -0.5678 -0.4308 -0.6123
  371MOL0     C48861   4.294   2.124   5.900  0.7661 -0.3559  0.2004
  371MOL0     C48862   4.216   1.998   5.938 -0.3838  0.2356 -0.2157
  371MOL0     C48863   4.192   2.015   6.086  0.0916  0.2948 -0.4542
  371MOL0     O48864   4.329   2.010   6.147  0.1149  1.2259 -0.8584
  371MOL0     C48865   4.347   2.029   6.284 -0.1965  0.3894  0.1921
  371MOL0     C48866   4.302   2.142   6.349 -0.6472  0.2514 -0.2021
  371MOL0     C48867   4.304   2.154   6.494 -0.1877  0.0906  0.3415
  371MOL0     C48868   4.348   2.045   6.565  0.7026 -0.7690  0.1823
  371MOL0     C48869   4.354   2.065   6.713 -1.0835  0.7777  0.4361
  371MOL0     O48870   4.349   2.191   6.754  0.0244 -0.0329 -0.4137
  371MOL0     C48871   4.354   2.201   6.889 -0.0074 -0.2465  1.1674
  371MOL0     C48872   4.239   2.258   6.954 -0.0655  0.2581  0.0222
  371MOL0     C48873   4.231   2.267   7.091  0.2972 -0.0719  0.0249
  371MOL0     C48874   4.335   2.223   7.175  0.5398 -0.2212 -0.2072
  371MOL0     O48875   4.329   2.228   7.313  1.0944 -0.5293  0.1446
  371MOL0     C48876   4.248   2.336   7.375  0.4138  0.1247  0.7841
  371MOL0     C48877   4.314   2.378   7.506  0.2963  0.8675 -0.6780
  371MOL0     C48878   4.239   2.487   7.575 -0.0933 -0.9408  0.0973
  371MOL0     C48879   4.318   2.554   7.687  0.5659  0.1997 -0.1986
  371MOL0     C48880   4.261   2.689   7.734  0.1675 -1.0306  0.3962
  371MOL0     C48881   4.355   2.762   7.830 -0.1829  0.4637  1.1425
  371MOL0     C48882   4.478   2.822   7.761 -0.2838  0.8695  0.5578
  371MOL0     C48883   4.472   2.910   7.638  0.1371 -0.4533 -0.0287
  371MOL0    Cl48884   4.635   2.954   7.609  0.2500 -0.4181  0.2392
  371MOL0     C48885   4.442   2.171   7.107  0.4922 -1.0022  0.4956
  371MOL0     C48886   4.455   2.165   6.970 -0.0492  0.4309  0.3316
  371MOL0     O48887   4.342   1.965   6.783 -0.1972  0.5612 -0.5664
  371MOL0     C48888   4.389   1.928   6.506  0.5982  0.6118 -0.0115
  371MOL0     C48889   4.390   1.917   6.361  0.2438 -0.6313  0.1655
  371MOL0     N48890   4.136   2.075   5.609  0.0387  0.0274  0.5783
  371MOL0     N48891   4.054   2.124   5.524 -0.1086 -0.4217 -0.0506
  371MOL0     C48892   4.260   2.493   4.370  0.2707 -0.5451  1.3202
  371MOL0     C48893   4.269   2.518   4.234 -0.3793 -0.9729  0.1785
  371MOL0     C48894   4.251   2.474   3.803 -0.4294 -1.2129 -0.7389
  371MOL0     C48895   4.236   2.608   3.747 -0.6414 -0.7623  0.9255
  371MOL0     C48896   4.273   2.638   3.612  0.4668  0.3924 -0.4437
  371MOL0     C48897   4.302   2.542   3.522  0.3497  0.5889  0.5926
  371MOL0     O48898   4.302   2.583   3.390 -0.3384 -0.0362  0.6809
  371MOL0     C48899   4.401   2.512   3.303 -0.3063  0.0958 -0.3701
  371MOL0     C48900   4.551   2.536   3.337  0.2008 -0.0583  0.2894
  371MOL0     C48901   4.597   2.683   3.329 -0.3914  0.2945 -0.3219
  371MOL0     C48902   4.745   2.714   3.306 -0.7819  0.6501 -0.4392
  371MOL0     C48903   4.774   2.849   3.277  0.1145  0.4462 -0.1323
  371MOL0     C48904   4.788   2.962   3.233 -0.8451  1.0795  0.3775
  371MOL0     C48905   4.308   2.407   3.571 -0.1567 -0.6862  0.4936
  371MOL0     C48906   4.286   2.371   3.708  0.5040 -0.2201 -0.9948
  371MOL0     H48907   3.940   2.525   4.164  1.9204 -0.1629 -3.6974
  371MOL0     H48908   3.933   2.480   4.392 -0.2309  1.2283 -0.1766
  371MOL0     H48909   4.225   2.619   4.606 -2.9707 -0.3712 -1.5258
  371MOL0     H48910   4.305   2.471   4.648 -0.2592  0.1446  1.1584
  371MOL0     H48911   4.034   2.571   4.781  0.8154 -1.7633 -0.0685
  371MOL0     H48912   4.198   2.616   4.841  1.7673 -0.2364 -0.3037
  371MOL0     H48913   4.259   2.407   4.916 -0.2422 -4.1854 -0.8427
  371MOL0     H48914   4.140   2.333   4.828 -0.9730 -1.4184  1.5364
  371MOL0     H48915   3.951   2.444   4.935  1.9963 -0.4430 -2.1509
  371MOL0     H48916   4.047   2.312   5.035  1.6849 -1.5626 -2.3854
  371MOL0     H48917   4.007   2.609   5.070  0.3457  0.2488  2.1561
  371MOL0     H48918   4.148   2.530   5.141  0.3540  1.6537 -0.8184
  371MOL0     H48919   3.853   2.438   5.198  0.3223 -0.6271 -1.4563
  371MOL0     H48920   3.943   2.567   5.280  2.6510  0.3834 -1.4250
  371MOL0     H48921   4.023   2.271   5.281 -0.3683  0.7359 -2.8898
  371MOL0     H48922   4.126   2.405   5.339  0.1430 -0.0041  0.0186
  371MOL0     H48923   3.866   2.287   5.440 -0.8813  1.5100  0.6832
  371MOL0     H48924   3.956   2.430   5.517 -0.4846  0.5072 -1.0608
  371MOL0     H48925   4.194   2.395   5.636 -0.3996 -0.1041 -1.2867
  371MOL0     H48926   4.386   2.236   5.752  0.0618 -0.5046  4.4650
  371MOL0     H48927   4.375   2.068   5.709 -1.2030  0.0510 -2.3844
  371MOL0     H48928   4.238   2.209   5.940  0.2799 -0.4518 -0.2640
  371MOL0     H48929   4.390   2.116   5.952  0.5020  1.0196  0.9661
  371MOL0     H48930   4.120   2.000   5.885 -0.8458  1.6873  0.6060
  371MOL0     H48931   4.272   1.906   5.920  0.0852  0.2201  1.1876
  371MOL0     H48932   4.118   1.944   6.123 -0.9541  1.1692 -0.8179
  371MOL0     H48933   4.139   2.107   6.112 -1.4424 -0.5082 -0.6464
  371MOL0     H48934   4.270   2.231   6.296  3.2597 -0.2815 -4.0329
  371MOL0     H48935   4.266   2.242   6.543  3.2727  1.0125  1.6031
  371MOL0     H48936   4.153   2.287   6.894 -0.1129  0.5868  0.2501
  371MOL0     H48937   4.143   2.306   7.140 -0.2760 -2.6615  1.2717
  371MOL0     H48938   4.145   2.301   7.390 -0.0234  0.7332 -0.5676
  371MOL0     H48939   4.235   2.423   7.309 -3.6555  0.6438  1.9537
  371MOL0     H48940   4.418   2.413   7.496  1.0034 -1.3749 -1.9135
  371MOL0     H48941   4.322   2.295   7.576  0.3470  1.2393 -0.2364
  371MOL0     H48942   4.153   2.432   7.615  0.0015 -0.6565  0.7045
  371MOL0     H48943   4.201   2.565   7.508 -2.0166 -0.9659  1.0839
  371MOL0     H48944   4.312   2.477   7.764  4.2134 -1.6552 -1.5299
  371MOL0     H48945   4.423   2.567   7.656  0.8656 -0.9081  0.2919
  371MOL0     H48946   4.170   2.668   7.792 -1.0642  2.4979 -0.0439
  371MOL0     H48947   4.233   2.745   7.645  3.3508  0.8478  0.4546
  371MOL0     H48948   4.388   2.689   7.905 -0.0902  0.1806  0.8290
  371MOL0     H48949   4.305   2.841   7.887  1.0750  0.9861  1.5684
  371MOL0     H48950   4.529   2.880   7.838  4.2189  1.4126 -2.4365
  371MOL0     H48951   4.548   2.739   7.746  0.1622  1.2065  0.7448
  371MOL0     H48952   4.403   2.995   7.642 -1.0746 -1.4403  1.1332
  371MOL0     H48953   4.447   2.854   7.548 -2.9883  2.7338 -1.3683
  371MOL0     H48954   4.531   2.144   7.163  1.9466 -1.3838 -1.8651
  371MOL0     H48955   4.547   2.121   6.931  0.0271  2.3810 -1.9009
  371MOL0     H48956   4.421   1.838   6.559 -2.1940  1.3678  3.2864
  371MOL0     H48957   4.421   1.824   6.314  1.9788  0.5991 -1.2618
  371MOL0     H48958   4.351   2.483   4.427  0.5710 -0.1745  0.9204
  371MOL0     H48959   4.369   2.500   4.195 -0.6937  3.1332 -3.2441
  371MOL0     H48960   4.186   2.689   3.798 -1.3009 -0.7069  0.2097
  371MOL0     H48961   4.264   2.737   3.569  0.0956 -0.1714 -1.7065
  371MOL0     H48962   4.392   2.558   3.204  3.7227  0.2169 -0.8645
  371MOL0     H48963   4.384   2.405   3.289  0.0145  0.1674 -1.3980
  371MOL0     H48964   4.572   2.495   3.437 -1.3987 -2.1679 -0.1752
  371MOL0     H48965   4.606   2.474   3.266 -0.3040 -1.0641  0.7566
  371MOL0     H48966   4.558   2.740   3.413 -0.0657  0.8801 -0.5612
  371MOL0     H48967   4.553   2.714   3.233  0.2091 -0.8514 -0.9932
  371MOL0     H48968   4.802   2.677   3.392 -2.2251  0.1484  0.3459
  371MOL0     H48969   4.784   2.656   3.223 -1.5853  0.9605 -1.0461
  371MOL0     H48970   4.818   3.063   3.215  1.3049  0.2651 -0.8517
  371MOL0     H48971   4.309   2.319   3.508 -0.3004 -1.9404  2.1791
  371MOL0     H48972   4.286   2.267   3.739 -1.7221 -0.2198 -0.8518
  372MOL0     O48973  11.029   5.234   9.903 -0.3667  0.6567 -0.7212
  372MOL0     C48974  11.144   5.277   9.909  0.3361  0.0749  0.4773
  372MOL0     O48975  11.230   5.237  10.003 -1.0592  0.0814  0.6350
  372MOL0     C48976  11.188   5.161  10.113  0.1567 -0.5731  0.5679
  372MOL0     C48977  11.098   5.054  10.106  1.1175  0.5030  0.5353
  372MOL0     C48978  11.051   4.982  10.219  0.2988 -0.4784  0.9480
  372MOL0     C48979  11.106   5.015  10.346 -0.4767  0.7061 -0.4147
  372MOL0     O48980  11.063   4.942  10.453  0.2696 -0.2476  0.1613
  372MOL0     C48981  11.108   4.964  10.588  0.1175  0.4948  0.5419
  372MOL0     C48982  11.008   4.901  10.685 -0.2822  0.2228 -0.2790
  372MOL0     C48983  10.946   4.760  10.671  0.5109  0.6731  1.8679
  372MOL0     C48984  10.822   4.748  10.761  0.0364 -0.1986  1.1235
  372MOL0     C48985  10.710   4.666  10.705  0.2700 -0.3336  0.6614
  372MOL0     C48986  10.587   4.690  10.799 -0.5530 -0.3424 -0.1486
  372MOL0     C48987  10.471   4.608  10.767  0.5882  1.0686  0.2779
  372MOL0     C48988  10.480   4.461  10.813  0.8158  0.3748 -0.6138
  372MOL0     N48989  10.372   4.369  10.770 -0.0543  0.2447 -0.2075
  372MOL0     C48990  10.248   4.374  10.822 -0.7128  0.1094  0.0438
  372MOL0     C48991  10.168   4.286  10.760 -0.6908 -0.6068 -0.0594
  372MOL0     C48992  10.017   4.263  10.762 -1.4880  0.3004 -0.6171
  372MOL0     C48993   9.958   4.331  10.641  0.4758  0.3997 -0.0052
  372MOL0     C48994   9.817   4.279  10.610 -0.4182  0.8729  0.3767
  372MOL0     C48995   9.707   4.265  10.713 -0.4274 -0.8569 -0.5272
  372MOL0     O48996   9.595   4.192  10.646 -0.1789  0.2674 -0.4412
  372MOL0     C48997   9.479   4.205  10.710 -0.4834  0.2703  0.0453
  372MOL0     C48998   9.356   4.213  10.630  0.1020  0.0137 -0.2699
  372MOL0     C48999   9.227   4.233  10.693  0.3007  0.0979  0.3536
  372MOL0     C49000   9.221   4.235  10.831  0.6107 -0.2977 -0.1680
  372MOL0     C49001   9.092   4.258  10.905  0.6878  0.1754  0.3159
  372MOL0     O49002   8.978   4.284  10.843 -0.4853  0.0036  0.9991
  372MOL0     C49003   8.859   4.298  10.913  0.2143 -0.4690  0.0600
  372MOL0     C49004   8.827   4.213  11.014 -0.1217 -0.0125 -0.0047
  372MOL0     C49005   8.701   4.224  11.073 -0.5232  0.0909 -0.4753
  372MOL0     C49006   8.602   4.316  11.026 -0.0860 -0.3713 -0.1391
  372MOL0     O49007   8.472   4.309  11.071 -0.2058 -0.4105 -0.4602
  372MOL0     C49008   8.437   4.265  11.198 -0.8015  0.4732 -0.5428
  372MOL0     C49009   8.463   4.368  11.307  0.0118  0.1322  0.1008
  372MOL0     C49010   8.353   4.361  11.424 -0.0452 -0.1134  0.4728
  372MOL0     C49011   8.401   4.461  11.526 -0.2246 -0.1354  0.7604
  372MOL0     C49012   8.305   4.474  11.654 -0.9209  0.3982  0.6458
  372MOL0     C49013   8.363   4.595  11.742  0.4144 -0.1077 -0.0986
  372MOL0     C49014   8.250   4.680  11.806 -0.2001  0.5390  0.1651
  372MOL0     C49015   8.310   4.762  11.922  0.0156  0.0408  0.3654
  372MOL0    Cl49016   8.408   4.898  11.868  0.1883 -0.1273  0.4119
  372MOL0     C49017   8.628   4.395  10.918 -0.0431 -0.3132 -0.4836
  372MOL0     C49018   8.759   4.388  10.862  0.1039 -0.4576  0.7321
  372MOL0     O49019   9.105   4.255  11.029  0.4645 -0.7645 -0.2149
  372MOL0     C49020   9.337   4.217  10.908  0.0968  0.3689 -0.2198
  372MOL0     C49021   9.466   4.201  10.846  0.4149 -0.1998 -0.4566
  372MOL0     N49022  10.244   4.238  10.648  0.6403  0.5145 -0.5928
  372MOL0     N49023  10.364   4.293  10.650  0.3504  0.3550  0.2270
  372MOL0     C49024  11.200   5.120  10.355 -0.0099 -0.4439 -0.0864
  372MOL0     C49025  11.240   5.192  10.233 -0.1828 -0.0097 -0.0639
  372MOL0     C49026  11.187   5.353   9.790 -0.1017 -0.5231 -0.4587
  372MOL0     C49027  11.088   5.395   9.691 -0.4657 -0.1264 -0.2062
  372MOL0     C49028  11.129   5.467   9.578  0.7604  0.7778 -0.0446
  372MOL0     C49029  11.255   5.520   9.570 -0.3288 -0.1621 -1.4579
  372MOL0     O49030  11.294   5.591   9.455  0.0251  0.3824 -0.1820
  372MOL0     C49031  11.232   5.541   9.328  0.1995  0.2908  1.0034
  372MOL0     C49032  11.323   5.568   9.209 -0.4598 -0.3203 -0.5064
  372MOL0     C49033  11.243   5.552   9.081 -0.1625  0.1918  0.1795
  372MOL0     C49034  11.342   5.558   8.969  0.5335 -0.6517 -0.1509
  372MOL0     C49035  11.283   5.552   8.834 -0.1318  0.5876 -0.4659
  372MOL0     C49036  11.237   5.545   8.722 -0.5263  0.2486 -0.3058
  372MOL0     C49037  11.347   5.500   9.679  0.3545  0.3694  0.6255
  372MOL0     C49038  11.314   5.417   9.785 -0.1172 -0.5002 -0.4093
  372MOL0     H49039  11.044   5.023  10.017  2.2348 -0.5944  0.2227
  372MOL0     H49040  10.972   4.909  10.206  0.0651 -0.0804 -0.0104
  372MOL0     H49041  11.121   5.072  10.600  4.2534  0.2611 -0.5951
  372MOL0     H49042  11.210   4.926  10.585  1.2280  3.2485 -2.4093
  372MOL0     H49043  10.935   4.981  10.698  1.1917  1.8291 -1.5407
  372MOL0     H49044  11.056   4.890  10.783 -1.5821  0.3027  0.3777
  372MOL0     H49045  11.025   4.692  10.706  2.1659  0.5796 -1.6442
  372MOL0     H49046  10.927   4.746  10.564 -3.5035 -0.0978  2.5400
  372MOL0     H49047  10.853   4.718  10.862  0.3340  3.3126  2.2175
  372MOL0     H49048  10.782   4.849  10.770 -1.9803 -0.6735 -1.4230
  372MOL0     H49049  10.733   4.560  10.693  3.1910  0.0171  2.3493
  372MOL0     H49050  10.698   4.706  10.603  1.1894  0.5669  0.8875
  372MOL0     H49051  10.558   4.795  10.792 -4.1539 -1.2812 -1.5947
  372MOL0     H49052  10.618   4.666  10.901  1.0305  2.5943  0.1581
  372MOL0     H49053  10.383   4.654  10.814  0.6700  0.5826  0.9296
  372MOL0     H49054  10.446   4.609  10.661 -1.4691 -1.7070  0.6188
  372MOL0     H49055  10.493   4.439  10.919 -0.6981  2.0475 -0.0256
  372MOL0     H49056  10.565   4.422  10.756  1.3959  2.6118 -1.4084
  372MOL0     H49057  10.212   4.444  10.897  0.3657 -0.2930  0.9759
  372MOL0     H49058   9.987   4.304  10.859  1.9390 -0.1087  0.7871
  372MOL0     H49059   9.999   4.155  10.763  2.8141 -0.6644 -3.2080
  372MOL0     H49060  10.026   4.316  10.556  0.6515  1.0871  0.0030
  372MOL0     H49061   9.948   4.436  10.669 -1.4363  0.2950 -0.1552
  372MOL0     H49062   9.771   4.346  10.536  0.3157 -2.2523 -3.1984
  372MOL0     H49063   9.827   4.180  10.566  1.1441  1.0801  0.2118
  372MOL0     H49064   9.675   4.364  10.746  3.9047 -0.0622  2.1105
  372MOL0     H49065   9.745   4.203  10.795  0.7655  1.7009  0.9838
  372MOL0     H49066   9.365   4.200  10.523 -0.4981  1.2712 -0.4939
  372MOL0     H49067   9.135   4.245  10.637  0.5801  0.7674  0.0230
  372MOL0     H49068   8.895   4.141  11.058 -2.4856 -1.5418  1.3521
  372MOL0     H49069   8.694   4.166  11.164 -1.0563  2.7119  1.2536
  372MOL0     H49070   8.495   4.178  11.230  2.8400  2.3999 -1.3284
  372MOL0     H49071   8.333   4.233  11.202 -0.1671 -1.6314  0.5588
  372MOL0     H49072   8.459   4.466  11.258  4.1791  0.2215 -0.4116
  372MOL0     H49073   8.566   4.371  11.342 -0.7001 -0.6784  2.4947
  372MOL0     H49074   8.367   4.260  11.462 -1.6881 -0.7078 -0.4413
  372MOL0     H49075   8.253   4.370  11.382  0.6395  3.3154 -0.8116
  372MOL0     H49076   8.497   4.421  11.561 -0.4022 -1.5228 -0.2718
  372MOL0     H49077   8.424   4.561  11.486  1.8225  0.0986  2.2969
  372MOL0     H49078   8.296   4.382  11.714 -1.0632  0.7530  1.1802
  372MOL0     H49079   8.211   4.502  11.608  0.0568  0.5446 -1.3484
  372MOL0     H49080   8.424   4.667  11.686  2.1442 -0.4103  1.3146
  372MOL0     H49081   8.444   4.563  11.808  1.8608 -2.3496 -2.7038
  372MOL0     H49082   8.208   4.744  11.728  1.6042 -0.4856 -1.7569
  372MOL0     H49083   8.166   4.615  11.832  0.3464 -1.1743 -1.9869
  372MOL0     H49084   8.373   4.701  11.988  4.4903  2.8686 -0.8367
  372MOL0     H49085   8.222   4.797  11.976 -0.3974  0.0273 -0.2857
  372MOL0     H49086   8.544   4.446  10.873 -2.2464 -5.0956 -2.5131
  372MOL0     H49087   8.791   4.439  10.772 -0.2661  1.2287  1.5179
  372MOL0     H49088   9.333   4.226  11.017 -1.5915  4.5500 -0.4516
  372MOL0     H49089   9.544   4.198  10.922 -1.9757  0.7155  2.2085
  372MOL0     H49090  11.239   5.159  10.449  2.5994 -1.4513 -0.6629
  372MOL0     H49091  11.316   5.270  10.235 -0.4660  0.3506 -1.6906
  372MOL0     H49092  10.988   5.353   9.691 -1.2203  1.5728  1.0764
  372MOL0     H49093  11.056   5.480   9.498 -0.9042 -2.1102  0.8555
  372MOL0     H49094  11.129   5.580   9.329  0.5525  1.5881  5.0601
  372MOL0     H49095  11.212   5.434   9.326 -0.5517  0.3861 -1.6252
  372MOL0     H49096  11.357   5.672   9.217 -0.6957 -0.2995  0.3883
  372MOL0     H49097  11.414   5.507   9.210 -1.0490 -1.3515 -3.1178
  372MOL0     H49098  11.154   5.616   9.073 -0.8236 -0.8055 -0.6187
  372MOL0     H49099  11.205   5.450   9.087  0.3106 -0.2647 -2.9811
  372MOL0     H49100  11.403   5.648   8.983 -0.3497 -0.1566  0.5642
  372MOL0     H49101  11.409   5.472   8.978  2.9384  1.1691  0.7251
  372MOL0     H49102  11.206   5.509   8.626 -2.6802 -1.9482  1.0901
  372MOL0     H49103  11.446   5.544   9.685  1.3960 -1.8497  0.9067
  372MOL0     H49104  11.386   5.391   9.862  3.3177 -0.6528 -3.3482
  373MOL0     O49105   0.979  10.885   2.452 -0.1583  0.3633  0.5094
  373MOL0     C49106   0.880  10.912   2.374  0.0866  0.1516  0.2018
  373MOL0     O49107   0.752  10.873   2.392  0.3382  0.1854 -0.5222
  373MOL0     C49108   0.729  10.787   2.495 -0.4267  0.3304 -0.9974
  373MOL0     C49109   0.690  10.649   2.474 -0.2088  0.0827  1.0141
  373MOL0     C49110   0.615  10.578   2.573 -0.3015 -0.2457 -0.1841
  373MOL0     C49111   0.600  10.625   2.703 -0.0154  0.0402  0.2088
  373MOL0     O49112   0.535  10.547   2.799 -0.5099 -0.2631 -0.3228
  373MOL0     C49113   0.479  10.409   2.765  0.2789  0.0018 -0.2125
  373MOL0     C49114   0.344  10.422   2.684 -0.3964 -0.9814  0.0504
  373MOL0     C49115   0.252  10.306   2.691  0.2019 -0.0002 -0.1487
  373MOL0     C49116   0.320  10.184   2.619 -0.6045 -1.2747 -0.2145
  373MOL0     C49117   0.242  10.058   2.598  0.7418  0.6040 -0.7516
  373MOL0     C49118   0.164  10.064   2.462  0.0752  0.9734  0.4950
  373MOL0     C49119   0.106   9.927   2.404 -0.9478 -0.3685 -0.1195
  373MOL0     C49120   0.096   9.938   2.249 -0.0648 -0.1109 -0.6816
  373MOL0     N49121   0.073   9.805   2.188  0.0653  0.6528 -0.3671
  373MOL0     C49122  -0.048   9.741   2.172  0.2083  0.3877 -0.7720
  373MOL0     C49123  -0.018   9.624   2.113 -0.5520  0.6813 -0.4826
  373MOL0     C49124  -0.137   9.538   2.071 -0.2441 -0.0997  0.5549
  373MOL0     C49125  -0.193   9.593   1.941  0.9834 -0.3398  0.3198
  373MOL0     C49126  -0.322   9.521   1.901  0.3192 -0.6346 -0.1625
  373MOL0     C49127  -0.296   9.387   1.856  0.4812 -0.7316  0.6840
  373MOL0     O49128  -0.415   9.323   1.811  0.1492 -0.6264 -0.7192
  373MOL0     C49129  -0.478   9.227   1.867  0.4375 -0.0575  0.2895
  373MOL0     C49130  -0.453   9.169   1.999  0.2358 -0.6692 -0.1082
  373MOL0     C49131  -0.553   9.082   2.042 -0.8282 -0.9849 -0.4159
  373MOL0     C49132  -0.665   9.043   1.970  0.1377 -0.7008  0.1044
  373MOL0     C49133  -0.772   8.951   2.029 -0.4350 -0.1178 -0.0049
  373MOL0     O49134  -0.873   8.904   1.951 -0.0856  0.1585 -0.3341
  373MOL0     C49135  -0.957   8.812   1.988  0.1514  0.4857 -0.5270
  373MOL0     C49136  -1.000   8.787   2.121  0.3022 -0.3489  0.2253
  373MOL0     C49137  -1.093   8.690   2.157 -0.8023  0.2341  0.0297
  373MOL0     C49138  -1.155   8.623   2.054 -0.2089 -0.2475 -0.8482
  373MOL0     O49139  -1.248   8.519   2.072 -0.2086 -0.6119 -0.0539
  373MOL0     C49140  -1.294   8.475   2.204  0.4186 -0.0097 -1.2490
  373MOL0     C49141  -1.371   8.342   2.200 -0.4509 -1.2225  0.2671
  373MOL0     C49142  -1.477   8.350   2.095  0.4081 -0.4216 -0.1390
  373MOL0     C49143  -1.570   8.229   2.097  0.3223 -0.2580  0.5890
  373MOL0     C49144  -1.704   8.266   2.040  0.4568  0.1772  0.8485
  373MOL0     C49145  -1.781   8.132   2.025  0.4043  0.9084 -0.0940
  373MOL0     C49146  -1.918   8.155   1.942 -0.3169 -0.4225 -0.2217
  373MOL0     C49147  -1.995   8.028   1.928 -0.0914  0.8055  0.6031
  373MOL0    Cl49148  -2.044   7.977   2.091 -0.0330  0.2004  0.1187
  373MOL0     C49149  -1.123   8.642   1.923 -0.1518  0.4297  1.3930
  373MOL0     C49150  -1.021   8.732   1.884  0.3707  0.3635  0.1275
  373MOL0     O49151  -0.758   8.918   2.151  0.7179 -0.7882  0.4985
  373MOL0     C49152  -0.688   9.099   1.846  0.1613  0.0754 -0.3206
  373MOL0     C49153  -0.588   9.181   1.797 -0.3873 -0.6886 -0.1118
  373MOL0     N49154   0.120   9.611   2.094 -0.1494 -0.2596  0.4060
  373MOL0     N49155   0.170   9.716   2.150 -0.3666  0.0763  0.0486
  373MOL0     C49156   0.642  10.755   2.727  0.6253  0.8011 -0.5792
  373MOL0     C49157   0.706  10.833   2.630 -0.4732  0.0781 -0.1482
  373MOL0     C49158   0.907  10.986   2.250 -0.5796 -0.0907  0.3664
  373MOL0     C49159   1.043  11.031   2.227 -0.0580 -1.2749  0.1555
  373MOL0     C49160   1.069  11.113   2.119 -0.0192 -0.3314 -0.3770
  373MOL0     C49161   0.975  11.157   2.032  0.4818 -0.1033 -0.0587
  373MOL0     O49162   1.008  11.249   1.927  0.4528 -0.6352 -1.3004
  373MOL0     C49163   1.070  11.380   1.973  0.2369 -0.7236  0.4672
  373MOL0     C49164   0.980  11.464   2.072 -0.1614 -0.4729 -0.8467
  373MOL0     C49165   0.832  11.487   2.028 -0.6465 -0.2314  0.2796
  373MOL0     C49166   0.827  11.543   1.886  0.4973  0.2403 -0.2553
  373MOL0     C49167   0.723  11.648   1.862 -0.9485 -0.6061 -0.1397
  373MOL0     C49168   0.643  11.731   1.820  0.3716 -0.3745 -0.4642
  373MOL0     C49169   0.846  11.112   2.051  1.1672 -0.9538 -1.0428
  373MOL0     C49170   0.806  11.039   2.165  0.0690  0.2527  0.6396
  373MOL0     H49171   0.697  10.603   2.376 -2.2415 -0.8129  1.2287
  373MOL0     H49172   0.574  10.484   2.539 -0.6519  0.2406 -1.1360
  373MOL0     H49173   0.458  10.354   2.856 -0.5124  1.7398  0.7182
  373MOL0     H49174   0.548  10.347   2.708  0.8535 -1.7760  2.2847
  373MOL0     H49175   0.364  10.435   2.577 -0.7818  0.0789  0.0972
  373MOL0     H49176   0.282  10.504   2.720  0.7853  0.2048 -0.5264
  373MOL0     H49177   0.156  10.326   2.642 -0.1502 -0.5689  0.2795
  373MOL0     H49178   0.230  10.277   2.795  0.9001 -5.6830 -1.2452
  373MOL0     H49179   0.370  10.227   2.531 -0.9777  1.7645  0.9420
  373MOL0     H49180   0.400  10.149   2.685 -2.0567  0.0062  2.4022
  373MOL0     H49181   0.168  10.041   2.677  0.6615 -1.0667 -1.1416
  373MOL0     H49182   0.311   9.973   2.603 -3.9637 -3.6047  3.7992
  373MOL0     H49183   0.238  10.097   2.388  0.9039 -1.7431  0.0298
  373MOL0     H49184   0.081  10.135   2.460  0.8128  1.9836 -3.5270
  373MOL0     H49185   0.169   9.838   2.409 -3.4525 -2.2628  0.2118
  373MOL0     H49186   0.012   9.898   2.453 -0.7814 -0.9900 -0.1544
  373MOL0     H49187   0.183   9.989   2.206 -1.5491  0.6778 -2.9331
  373MOL0     H49188   0.022  10.015   2.222  1.1065  0.8362 -1.2612
  373MOL0     H49189  -0.142   9.784   2.204 -1.5912 -1.4791 -3.1135
  373MOL0     H49190  -0.214   9.537   2.148 -0.9567 -2.3311 -0.1122
  373MOL0     H49191  -0.101   9.437   2.050 -1.9526 -0.2530 -2.2418
  373MOL0     H49192  -0.124   9.584   1.857 -0.2832 -0.7149 -0.7092
  373MOL0     H49193  -0.211   9.697   1.971 -0.1508 -0.3418 -0.3374
  373MOL0     H49194  -0.390   9.515   1.987 -1.1104  2.3086 -0.9567
  373MOL0     H49195  -0.380   9.583   1.833 -1.6896 -1.3959  0.7813
  373MOL0     H49196  -0.249   9.335   1.940 -0.2228  0.5367  1.9232
  373MOL0     H49197  -0.229   9.394   1.770 -0.8808  4.1521 -0.3236
  373MOL0     H49198  -0.374   9.206   2.064 -1.1576  2.2087  0.0927
  373MOL0     H49199  -0.539   9.055   2.147  2.7460  2.3341  0.1618
  373MOL0     H49200  -0.961   8.846   2.204  3.5762 -2.0655  0.0567
  373MOL0     H49201  -1.101   8.674   2.264 -2.2918 -3.8544 -0.5214
  373MOL0     H49202  -1.362   8.547   2.252  1.7697  0.1010  0.6147
  373MOL0     H49203  -1.207   8.472   2.270 -0.3138  5.7263  0.6053
  373MOL0     H49204  -1.421   8.321   2.295 -2.2473 -0.5942 -0.4953
  373MOL0     H49205  -1.309   8.261   2.162  1.2175  0.9127 -1.8884
  373MOL0     H49206  -1.428   8.350   1.997  0.6575 -3.9338 -0.1378
  373MOL0     H49207  -1.533   8.443   2.106 -1.8593 -1.8806  1.9171
  373MOL0     H49208  -1.532   8.144   2.040 -2.3432 -1.3053  0.2052
  373MOL0     H49209  -1.578   8.194   2.201 -0.3701  2.3618  1.4958
  373MOL0     H49210  -1.697   8.326   1.949 -3.0010 -3.2757 -2.0884
  373MOL0     H49211  -1.760   8.323   2.115  2.4768  0.8579  1.9218
  373MOL0     H49212  -1.801   8.079   2.119 -1.4546 -2.7303 -2.3349
  373MOL0     H49213  -1.721   8.077   1.952  1.2527  2.8560 -0.9467
  373MOL0     H49214  -1.978   8.226   1.999  5.3276  2.1418  3.4280
  373MOL0     H49215  -1.896   8.205   1.847  0.0397  1.0970  0.6268
  373MOL0     H49216  -1.939   7.947   1.879 -3.4499 -2.6885  1.9780
  373MOL0     H49217  -2.081   8.050   1.864  1.4870  2.5899 -1.0347
  373MOL0     H49218  -1.172   8.574   1.855  0.8484  2.2812 -1.3496
  373MOL0     H49219  -1.005   8.745   1.777  2.3714  0.4035  0.3800
  373MOL0     H49220  -0.777   9.077   1.789 -0.6974 -2.1458  1.7064
  373MOL0     H49221  -0.592   9.213   1.693  1.2582  1.2117  0.3561
  373MOL0     H49222   0.619  10.789   2.828 -0.1682  1.2200 -0.8937
  373MOL0     H49223   0.737  10.935   2.652 -2.3104  0.4051  1.2119
  373MOL0     H49224   1.131  10.988   2.273  1.8317  0.3607 -1.6923
  373MOL0     H49225   1.175  11.136   2.113 -0.1543 -0.1346 -2.9393
  373MOL0     H49226   1.093  11.449   1.892 -2.2059  0.7198  0.9126
  373MOL0     H49227   1.167  11.363   2.020  1.5180 -1.0830 -2.1138
  373MOL0     H49228   0.997  11.424   2.173 -0.3114  0.5085 -0.4255
  373MOL0     H49229   1.030  11.560   2.089 -0.6170 -0.5121  0.9413
  373MOL0     H49230   0.784  11.544   2.108 -1.5833  1.5300 -1.4656
  373MOL0     H49231   0.781  11.390   2.031  2.4456 -2.3558 -4.3416
  373MOL0     H49232   0.923  11.570   1.841  0.8713 -2.7921 -1.5209
  373MOL0     H49233   0.807  11.456   1.823  2.7716 -0.2618 -0.3676
  373MOL0     H49234   0.571  11.807   1.798 -0.5127 -0.9858  0.3092
  373MOL0     H49235   0.772  11.149   1.982  2.5119 -2.1770 -3.2488
  373MOL0     H49236   0.702  11.011   2.179  0.7470 -1.6699  2.5490
  374MOL0     O49237   4.688   1.169   9.235 -1.1382 -1.1549 -0.3737
  374MOL0     C49238   4.573   1.153   9.253 -0.0782 -0.2671  0.2939
  374MOL0     O49239   4.517   1.108   9.384 -0.1552  0.1111 -0.7267
  374MOL0     C49240   4.605   1.097   9.492 -0.0606  0.3161  0.2412
  374MOL0     C49241   4.655   1.207   9.556 -0.0009  0.7212  0.0801
  374MOL0     C49242   4.752   1.197   9.653  0.4219  0.7241 -0.3034
  374MOL0     C49243   4.784   1.077   9.711  0.1795 -0.0056 -0.0259
  374MOL0     O49244   4.864   1.057   9.824 -0.2601  0.3346  0.7484
  374MOL0     C49245   4.999   1.106   9.828  0.5265 -0.1456 -0.1736
  374MOL0     C49246   5.084   1.053   9.706  0.4370  0.1993  0.1529
  374MOL0     C49247   5.100   0.895   9.709 -0.7728  0.5846 -0.2527
  374MOL0     C49248   5.151   0.840   9.848 -0.2349 -0.9356  0.3813
  374MOL0     C49249   5.158   0.688   9.845 -0.5983  0.2740 -0.3499
  374MOL0     C49250   5.198   0.653   9.995  1.1082 -0.7584 -0.5723
  374MOL0     C49251   5.199   0.507  10.022  0.4672  0.4712  0.0229
  374MOL0     C49252   5.228   0.471  10.174 -0.5253 -0.2219  0.6881
  374MOL0     N49253   5.138   0.546  10.259  0.7510 -0.8290  0.2017
  374MOL0     C49254   5.001   0.541  10.258  0.6197  0.1853  0.1413
  374MOL0     C49255   4.953   0.650  10.315  0.9497 -0.2388 -0.0511
  374MOL0     C49256   4.806   0.675  10.329 -0.1042 -0.3702 -0.3411
  374MOL0     C49257   4.727   0.684  10.193 -0.6716 -1.0071  0.2250
  374MOL0     C49258   4.761   0.814  10.127  0.8387  1.3789  0.1675
  374MOL0     C49259   4.664   0.927  10.169  0.9580  0.7314  0.0932
  374MOL0     O49260   4.525   0.891  10.171  0.4742  0.6157  0.3504
  374MOL0     C49261   4.457   0.907  10.054 -0.2458  1.0386  0.7470
  374MOL0     C49262   4.513   0.925   9.923 -0.1308  0.2700 -0.9864
  374MOL0     C49263   4.426   0.920   9.813  0.1865  0.6407  0.2271
  374MOL0     C49264   4.287   0.894   9.823 -0.7138 -0.2747  0.6438
  374MOL0     C49265   4.199   0.925   9.711 -0.2666  0.7273  1.3940
  374MOL0     O49266   4.255   0.972   9.595  0.0542  0.6408 -0.2113
  374MOL0     C49267   4.168   1.011   9.497  0.6194 -0.6956  0.8604
  374MOL0     C49268   4.185   0.972   9.366  0.6116 -0.6667 -0.3182
  374MOL0     C49269   4.108   1.021   9.261 -0.1778  0.8987 -0.3669
  374MOL0     C49270   4.010   1.122   9.284  0.6866  0.7853  0.2726
  374MOL0     O49271   3.940   1.171   9.174  0.5928 -0.1056  0.1890
  374MOL0     C49272   3.800   1.209   9.177  0.0654  0.5610  1.2584
  374MOL0     C49273   3.720   1.079   9.174  0.2172 -0.2190 -0.2470
  374MOL0     C49274   3.589   1.081   9.257  0.0424 -0.4887  0.8315
  374MOL0     C49275   3.522   0.946   9.263  0.3751 -0.8861 -0.4620
  374MOL0     C49276   3.584   0.864   9.375 -0.7924 -0.5801 -0.2971
  374MOL0     C49277   3.515   0.736   9.396 -0.9779  0.9123  0.4882
  374MOL0     C49278   3.563   0.677   9.528 -0.7712  0.0597 -0.8806
  374MOL0     C49279   3.499   0.542   9.547 -0.1387  0.4714  0.4468
  374MOL0    Cl49280   3.598   0.415   9.454  0.3401 -0.4169 -0.4776
  374MOL0     C49281   3.995   1.169   9.414  0.0379 -0.1922  0.4981
  374MOL0     C49282   4.075   1.118   9.521  0.0343  0.5855  0.1331
  374MOL0     O49283   4.080   0.901   9.733  0.6353 -0.7368 -0.4809
  374MOL0     C49284   4.239   0.863   9.951  0.9470 -0.3595 -0.1597
  374MOL0     C49285   4.321   0.877  10.064 -0.1603  0.1240  0.3463
  374MOL0     N49286   5.058   0.717  10.366  0.1164 -0.7112  0.3161
  374MOL0     N49287   5.175   0.665  10.326  0.3022  0.3592  1.2454
  374MOL0     C49288   4.730   0.957   9.655  0.1722  0.4310 -0.4128
  374MOL0     C49289   4.631   0.970   9.551  0.3228 -0.6992 -0.0743
  374MOL0     C49290   4.482   1.199   9.156  0.2256  0.3909 -0.0814
  374MOL0     C49291   4.345   1.219   9.192 -0.8617 -1.1694 -0.5167
  374MOL0     C49292   4.257   1.270   9.087  0.2687 -0.8937  0.5114
  374MOL0     C49293   4.304   1.281   8.954  0.3123 -0.4844  0.4894
  374MOL0     O49294   4.219   1.317   8.851 -0.0629  0.4614 -0.2008
  374MOL0     C49295   4.166   1.445   8.838  0.3805  0.1915  1.3044
  374MOL0     C49296   4.098   1.462   8.697  0.0049  0.0723 -0.6762
  374MOL0     C49297   4.074   1.611   8.677 -0.8505  0.3228  0.1115
  374MOL0     C49298   4.043   1.659   8.540 -0.6889 -1.3673 -0.2728
  374MOL0     C49299   4.131   1.602   8.439  0.3302  0.4817  1.1119
  374MOL0     C49300   4.211   1.552   8.357 -0.3112 -0.6867 -0.3736
  374MOL0     C49301   4.438   1.276   8.924  0.5666 -0.2819 -0.7457
  374MOL0     C49302   4.519   1.234   9.021 -0.6463 -0.3855  0.2290
  374MOL0     H49303   4.637   1.307   9.520 -2.8622  1.7163  3.6217
  374MOL0     H49304   4.795   1.280   9.709 -2.3349  1.1063  1.4780
  374MOL0     H49305   5.041   1.089   9.928 -1.9769  0.5736  1.1025
  374MOL0     H49306   5.005   1.213   9.804 -2.4522 -0.1189 -1.1790
  374MOL0     H49307   5.181   1.101   9.720 -0.1625  0.8472  2.4228
  374MOL0     H49308   5.036   1.090   9.614  0.3849 -2.7602 -1.1465
  374MOL0     H49309   5.170   0.866   9.630 -2.3170 -1.0216 -1.1123
  374MOL0     H49310   4.999   0.855   9.693  0.2222 -1.4570 -1.7812
  374MOL0     H49311   5.246   0.883   9.880 -0.9395 -0.2885  1.7024
  374MOL0     H49312   5.084   0.873   9.929 -0.2836 -2.6320  1.0876
  374MOL0     H49313   5.242   0.648   9.787  0.1795  1.9508 -0.4491
  374MOL0     H49314   5.054   0.657   9.831 -1.0349 -1.6637  4.7234
  374MOL0     H49315   5.128   0.703  10.064 -0.9368 -1.6442 -1.9156
  374MOL0     H49316   5.291   0.704  10.021 -0.1065  1.9712 -1.1541
  374MOL0     H49317   5.109   0.451   9.996  1.6335 -1.2432 -0.5178
  374MOL0     H49318   5.279   0.474   9.955 -1.8002  1.2647 -3.3013
  374MOL0     H49319   5.326   0.500  10.214 -0.1645 -3.4730  2.4990
  374MOL0     H49320   5.224   0.364  10.193  0.6687 -0.5878 -0.9582
  374MOL0     H49321   4.941   0.467  10.207  0.0997  0.9221 -0.3215
  374MOL0     H49322   4.793   0.762  10.395 -0.1706 -0.8894  0.3444
  374MOL0     H49323   4.769   0.594  10.392  3.5867 -3.6281 -1.9278
  374MOL0     H49324   4.621   0.672  10.215 -0.8362  1.9076  1.5513
  374MOL0     H49325   4.762   0.611  10.119  1.4732 -1.6502  1.7720
  374MOL0     H49326   4.857   0.857  10.159  1.7539  2.7802 -3.9057
  374MOL0     H49327   4.765   0.814  10.018  1.5108  0.1036  0.1764
  374MOL0     H49328   4.679   1.017  10.108  0.2955  1.1450  0.5269
  374MOL0     H49329   4.693   0.944  10.274 -3.6443 -2.9872  2.3389
  374MOL0     H49330   4.617   0.953   9.912  1.1507 -3.9605 -1.0790
  374MOL0     H49331   4.462   0.947   9.714 -1.0660 -2.2420 -1.1178
  374MOL0     H49332   4.259   0.895   9.346  0.9647 -0.8087  1.3693
  374MOL0     H49333   4.121   0.975   9.163 -2.4920  1.7154 -1.1173
  374MOL0     H49334   3.780   1.282   9.098  1.0352  1.0204  1.4211
  374MOL0     H49335   3.770   1.259   9.270 -0.5029  1.1693  0.7626
  374MOL0     H49336   3.773   1.001   9.229  0.1058 -0.1115  0.0135
  374MOL0     H49337   3.697   1.049   9.071 -0.2020  0.6073 -0.4063
  374MOL0     H49338   3.516   1.149   9.210  2.6192  0.8962 -1.4751
  374MOL0     H49339   3.605   1.130   9.353 -1.3428  4.5380 -1.1534
  374MOL0     H49340   3.415   0.955   9.283  0.7251 -1.4372  1.9585
  374MOL0     H49341   3.541   0.896   9.167  1.2809 -0.3715 -0.5642
  374MOL0     H49342   3.563   0.919   9.467 -3.7010 -4.4471  1.6564
  374MOL0     H49343   3.693   0.855   9.366  0.0978  5.0778  1.3977
  374MOL0     H49344   3.540   0.665   9.317 -1.7051  0.4754  0.6367
  374MOL0     H49345   3.408   0.758   9.395 -0.4730  3.6871  0.3442
  374MOL0     H49346   3.672   0.669   9.529 -0.7219  0.6845  0.1542
  374MOL0     H49347   3.518   0.738   9.608  1.1380  2.7231 -1.7173
  374MOL0     H49348   3.404   0.540   9.492  0.6085 -2.2576 -0.9220
  374MOL0     H49349   3.495   0.517   9.653  4.3181  1.1812  0.9521
  374MOL0     H49350   3.914   1.240   9.429 -1.5627 -1.9338  0.4063
  374MOL0     H49351   4.063   1.153   9.623 -2.3283  1.3505 -0.3398
  374MOL0     H49352   4.132   0.842   9.952  0.8298  0.2169  0.3686
  374MOL0     H49353   4.287   0.860  10.165 -1.0135 -1.5552 -0.1985
  374MOL0     H49354   4.753   0.864   9.705 -0.8423 -0.5999 -1.7816
  374MOL0     H49355   4.564   0.893   9.515  0.6593  1.0400 -5.2539
  374MOL0     H49356   4.302   1.198   9.289 -2.1725  3.5452  0.1637
  374MOL0     H49357   4.150   1.269   9.103  0.3368 -2.3038  0.9475
  374MOL0     H49358   4.250   1.512   8.859  0.1443  1.0647 -0.4014
  374MOL0     H49359   4.089   1.461   8.914  0.5710 -0.6456  1.6871
  374MOL0     H49360   4.164   1.414   8.624  3.1084  1.4519  1.0325
  374MOL0     H49361   4.007   1.401   8.703  0.4642 -0.4711  1.9981
  374MOL0     H49362   4.169   1.653   8.709  0.7102  0.0908 -3.7309
  374MOL0     H49363   3.996   1.645   8.746  1.0820  0.6277  2.2585
  374MOL0     H49364   3.946   1.626   8.501  0.8320 -2.2990 -3.6448
  374MOL0     H49365   4.049   1.768   8.542 -3.0250 -1.2062  1.6291
  374MOL0     H49366   4.278   1.510   8.285  1.5377 -0.4342  1.1317
  374MOL0     H49367   4.471   1.298   8.823  2.3769  3.3978  0.4566
  374MOL0     H49368   4.622   1.236   8.989 -0.6370  1.8496  0.2249
  375MOL0     O49369   6.576  10.191   0.428 -0.9482 -1.1522 -0.3011
  375MOL0     C49370   6.488  10.281   0.400  0.3519 -0.0723  0.1029
  375MOL0     O49371   6.504  10.419   0.390  0.8730  0.4584  0.7995
  375MOL0     C49372   6.621  10.471   0.444  0.4237  0.9788  0.3933
  375MOL0     C49373   6.709  10.561   0.390 -0.3026  0.4501 -0.0503
  375MOL0     C49374   6.794  10.647   0.463 -1.0242  0.8487  0.2054
  375MOL0     C49375   6.815  10.633   0.599 -0.2208  0.0810  0.5700
  375MOL0     O49376   6.904  10.716   0.658  0.0646  0.2740  0.8774
  375MOL0     C49377   6.849  10.837   0.723  0.5763 -0.0636 -0.1624
  375MOL0     C49378   6.948  10.867   0.838  0.6025  0.2708  0.4808
  375MOL0     C49379   6.963  11.001   0.915  0.1666 -0.3057 -0.0818
  375MOL0     C49380   6.830  11.058   0.979  0.6085 -0.3785  0.1905
  375MOL0     C49381   6.871  11.155   1.095 -0.7798  0.3767 -0.2093
  375MOL0     C49382   6.762  11.205   1.201 -0.7304  0.1453  0.4814
  375MOL0     C49383   6.652  11.285   1.136  0.0380 -0.3656  0.1516
  375MOL0     C49384   6.694  11.400   1.041 -0.6356 -0.8187  0.8374
  375MOL0     N49385   6.749  11.510   1.126 -0.4308  0.1731 -0.0225
  375MOL0     C49386   6.872  11.568   1.123 -0.7963 -0.3657  0.2911
  375MOL0     C49387   6.869  11.680   1.208 -0.1182  0.0680  0.9712
  375MOL0     C49388   6.994  11.758   1.254  0.5540  0.2375  0.3447
  375MOL0     C49389   6.949  11.899   1.294 -0.8272 -0.3902 -0.1851
  375MOL0     C49390   7.071  11.996   1.310 -0.7575  0.3134  0.1752
  375MOL0     C49391   7.063  12.093   1.432 -0.3895 -0.3029 -0.1760
  375MOL0     O49392   7.198  12.117   1.484 -0.4420  0.5846 -0.7836
  375MOL0     C49393   7.199  12.203   1.591  0.0313  0.0286 -0.3117
  375MOL0     C49394   7.327  12.222   1.638 -0.7276  0.0902  0.5702
  375MOL0     C49395   7.355  12.298   1.753 -0.7639  0.3914 -0.0451
  375MOL0     C49396   7.250  12.363   1.822 -1.1067  0.9029  0.4986
  375MOL0     C49397   7.278  12.449   1.941  0.8007 -0.0734 -0.3020
  375MOL0     O49398   7.406  12.479   1.963 -0.1700  0.8574  0.7088
  375MOL0     C49399   7.424  12.563   2.070  0.3440  0.4305 -0.8116
  375MOL0     C49400   7.445  12.694   2.047 -0.0482 -0.4379  0.3385
  375MOL0     C49401   7.443  12.796   2.153 -0.0242  0.2795 -0.4095
  375MOL0     C49402   7.435  12.751   2.285  0.0251 -1.1091 -0.2643
  375MOL0     O49403   7.426  12.853   2.378 -0.4744 -0.1200  0.5700
  375MOL0     C49404   7.436  12.825   2.519 -0.7479 -0.7860  0.3673
  375MOL0     C49405   7.443  12.955   2.592  0.0153 -0.3080  0.2762
  375MOL0     C49406   7.325  13.044   2.557  0.8403 -0.2276 -0.1440
  375MOL0     C49407   7.331  13.184   2.622 -0.0627  0.3786  0.2067
  375MOL0     C49408   7.209  13.271   2.604 -0.4859  0.1530 -0.3351
  375MOL0     C49409   7.219  13.404   2.688 -0.4696  0.7322 -1.1807
  375MOL0     C49410   7.113  13.496   2.634 -0.2698  0.0458  0.4325
  375MOL0     C49411   6.987  13.479   2.706 -0.1579 -0.1824  0.1482
  375MOL0    Cl49412   7.010  13.556   2.864 -0.1172  0.1027 -0.3310
  375MOL0     C49413   7.413  12.611   2.311 -0.0740  0.1425 -0.2128
  375MOL0     C49414   7.415  12.519   2.204  0.2702  0.2421  0.1791
  375MOL0     O49415   7.174  12.478   2.001  0.6681 -0.4088  0.2641
  375MOL0     C49416   7.127  12.366   1.759 -0.5867  0.1261 -0.0629
  375MOL0     C49417   7.095  12.276   1.656  0.1312 -1.0355  0.2695
  375MOL0     N49418   6.752  11.667   1.273  0.9349 -0.0729  0.5436
  375MOL0     N49419   6.677  11.582   1.212  0.2811  0.6306  0.5821
  375MOL0     C49420   6.734  10.535   0.664 -0.7203 -0.4832 -0.1445
  375MOL0     C49421   6.642  10.457   0.582  0.5725  0.6993  0.5680
  375MOL0     C49422   6.346  10.242   0.369  0.3601  0.2517 -0.2799
  375MOL0     C49423   6.248  10.324   0.305 -1.1882 -0.1535  0.1466
  375MOL0     C49424   6.116  10.276   0.297 -0.1340 -1.1286  0.5313
  375MOL0     C49425   6.072  10.158   0.338  0.0617  0.3861 -0.3363
  375MOL0     O49426   5.937  10.125   0.329 -0.4938 -0.1487 -0.6509
  375MOL0     C49427   5.893   9.990   0.361 -0.2609  0.2483  1.0674
  375MOL0     C49428   5.752   9.977   0.309 -0.1748  0.3380 -0.0894
  375MOL0     C49429   5.629  10.017   0.409 -0.4642 -0.7388 -0.9307
  375MOL0     C49430   5.591  10.161   0.428  0.6267  0.3317  1.0444
  375MOL0     C49431   5.499  10.194   0.536  0.1525 -0.6875  0.7021
  375MOL0     C49432   5.406  10.196   0.605  0.1044 -0.7351 -0.1758
  375MOL0     C49433   6.181  10.072   0.389 -0.4565  0.0742 -1.1617
  375MOL0     C49434   6.310  10.119   0.408 -0.0200  1.7066  0.3123
  375MOL0     H49435   6.700  10.578   0.283 -2.8703  0.8279  0.1543
  375MOL0     H49436   6.856  10.721   0.413 -0.9136  2.4620  2.5416
  375MOL0     H49437   6.751  10.822   0.768 -0.5043  0.5071 -2.1988
  375MOL0     H49438   6.852  10.921   0.652  1.5712  0.7181  0.7734
  375MOL0     H49439   7.049  10.844   0.803 -0.9633 -2.5253 -2.8024
  375MOL0     H49440   6.916  10.795   0.913 -0.7949 -0.4765 -0.7662
  375MOL0     H49441   6.989  11.071   0.836  0.9022  1.6267  1.7696
  375MOL0     H49442   7.046  10.993   0.986  0.4451  0.2362 -0.3452
  375MOL0     H49443   6.751  11.097   0.913  2.1790 -0.1736 -1.6358
  375MOL0     H49444   6.780  10.982   1.041 -1.2142  0.4735 -0.1491
  375MOL0     H49445   6.937  11.237   1.065  5.4325 -4.9526 -3.4214
  375MOL0     H49446   6.939  11.109   1.167 -0.5343  1.0325 -0.0098
  375MOL0     H49447   6.815  11.259   1.279 -1.8108 -2.2603  3.0865
  375MOL0     H49448   6.704  11.131   1.259  0.4893 -0.2946  1.1817
  375MOL0     H49449   6.596  11.213   1.076 -0.5213 -2.4040  2.9289
  375MOL0     H49450   6.582  11.329   1.209  0.9218 -0.1308  0.8783
  375MOL0     H49451   6.613  11.435   0.977  1.8227  0.5254 -1.7508
  375MOL0     H49452   6.771  11.370   0.969 -2.1019 -0.3922 -0.9676
  375MOL0     H49453   6.959  11.534   1.067  0.4654  0.8902  1.3922
  375MOL0     H49454   7.062  11.764   1.169  0.3548 -1.0640  0.0731
  375MOL0     H49455   7.040  11.704   1.338  0.0350 -1.9504 -0.7115
  375MOL0     H49456   6.897  11.904   1.390  1.4156  1.0162  1.0413
  375MOL0     H49457   6.883  11.938   1.216  0.3963 -0.0941 -1.1139
  375MOL0     H49458   7.148  11.923   1.336 -1.0784  0.1972  0.8176
  375MOL0     H49459   7.111  12.048   1.223 -1.0285  0.5730  0.2035
  375MOL0     H49460   7.010  12.043   1.514  1.8479 -1.1544  0.8061
  375MOL0     H49461   7.025  12.189   1.395 -2.2949 -0.9038  0.0781
  375MOL0     H49462   7.417  12.188   1.588 -0.8071  2.7719 -1.5801
  375MOL0     H49463   7.460  12.298   1.782  0.4243 -3.1843 -3.4845
  375MOL0     H49464   7.441  12.724   1.943 -0.0627  1.9109  0.9545
  375MOL0     H49465   7.434  12.901   2.128 -0.3930  0.1825 -0.6947
  375MOL0     H49466   7.528  12.770   2.543 -0.6618 -0.3560  1.0313
  375MOL0     H49467   7.352  12.761   2.546 -0.7498 -1.3525 -0.8969
  375MOL0     H49468   7.531  13.010   2.558  0.3872  0.3652  2.2460
  375MOL0     H49469   7.439  12.925   2.697  2.3062 -0.5121  0.3466
  375MOL0     H49470   7.239  12.989   2.597 -0.3468  1.8017  0.2294
  375MOL0     H49471   7.315  13.050   2.449 -2.0381  0.6082  0.0933
  375MOL0     H49472   7.337  13.152   2.727 -0.9316  0.1798  0.2089
  375MOL0     H49473   7.424  13.237   2.600 -0.3915  1.5807  1.5753
  375MOL0     H49474   7.118  13.217   2.633 -0.2315 -1.0067 -1.5880
  375MOL0     H49475   7.212  13.285   2.495  0.0176 -5.1319 -1.2475
  375MOL0     H49476   7.321  13.442   2.673  1.6536 -2.6132  2.7030
  375MOL0     H49477   7.212  13.380   2.795  1.4884 -1.1006 -1.3845
  375MOL0     H49478   7.145  13.601   2.641  3.4219 -0.9897  1.3038
  375MOL0     H49479   7.100  13.472   2.528  1.4577 -0.0443  0.2162
  375MOL0     H49480   6.950  13.377   2.718 -1.2051  0.1208 -0.3852
  375MOL0     H49481   6.914  13.531   2.643  0.5920  0.4746 -0.2057
  375MOL0     H49482   7.396  12.581   2.414  0.1731  2.3211  0.5204
  375MOL0     H49483   7.400  12.416   2.234  1.0011  0.4439  1.3358
  375MOL0     H49484   7.062  12.441   1.802  1.4477  1.3072  1.1074
  375MOL0     H49485   6.995  12.282   1.614  0.7587 -1.1196 -1.3120
  375MOL0     H49486   6.747  10.505   0.767 -0.0064 -0.3911 -0.2019
  375MOL0     H49487   6.576  10.392   0.640 -1.1033  0.7042 -1.2445
  375MOL0     H49488   6.269  10.425   0.272 -3.0887  0.1114 -0.3736
  375MOL0     H49489   6.041  10.337   0.249 -1.9255 -2.5951  1.3708
  375MOL0     H49490   5.903   9.940   0.458  1.7805 -0.5570  0.4990
  375MOL0     H49491   5.943   9.929   0.285 -0.1472  1.7372 -0.0962
  375MOL0     H49492   5.740  10.020   0.209  1.9471  0.4840 -0.3309
  375MOL0     H49493   5.730   9.870   0.301  0.9892 -0.0383  1.2526
  375MOL0     H49494   5.650   9.973   0.507 -5.2236  1.6370  1.4684
  375MOL0     H49495   5.544   9.966   0.361 -2.1436 -2.6029  3.5450
  375MOL0     H49496   5.680  10.219   0.455  1.2814  0.5863 -1.4291
  375MOL0     H49497   5.549  10.178   0.329 -1.1479 -3.5717  0.9241
  375MOL0     H49498   5.328  10.189   0.678  0.5891 -1.9062  0.2603
  375MOL0     H49499   6.154   9.972   0.420 -2.3242  0.8343 -0.1667
  375MOL0     H49500   6.378  10.049   0.456  0.4521  1.9150 -0.0496
  376MOL0     O49501   6.297   7.807   5.188  0.2827  0.1974 -0.2362
  376MOL0     C49502   6.190   7.768   5.234 -1.1693 -0.2676  1.0842
  376MOL0     O49503   6.172   7.642   5.287 -0.2166  0.1814 -0.3307
  376MOL0     C49504   6.265   7.552   5.262 -0.2299  0.7183 -0.0904
  376MOL0     C49505   6.387   7.561   5.333 -0.0843 -0.9121  0.3680
  376MOL0     C49506   6.485   7.458   5.311 -0.7426  0.2271  0.1688
  376MOL0     C49507   6.458   7.348   5.234 -0.6771 -0.0150  0.2175
  376MOL0     O49508   6.526   7.225   5.238  0.8056  0.1712 -0.0899
  376MOL0     C49509   6.618   7.213   5.344 -0.8660  0.0480 -0.3518
  376MOL0     C49510   6.669   7.064   5.349 -1.5297 -0.3112 -0.4584
  376MOL0     C49511   6.565   6.955   5.348  0.3103  0.2914  0.3359
  376MOL0     C49512   6.628   6.816   5.377 -0.0298 -0.0136 -0.9265
  376MOL0     C49513   6.558   6.712   5.468  0.4446 -0.6025  0.2965
  376MOL0     C49514   6.554   6.734   5.615  0.7626  0.4267 -0.6602
  376MOL0     C49515   6.500   6.599   5.686 -0.5417  0.2700 -0.3520
  376MOL0     C49516   6.503   6.606   5.833  0.3151 -0.0663 -0.3864
  376MOL0     N49517   6.628   6.543   5.885 -0.2458  0.0922 -0.1378
  376MOL0     C49518   6.636   6.434   5.969  0.3779 -0.7981 -0.4769
  376MOL0     C49519   6.763   6.431   6.009 -0.8455 -0.3238 -0.8826
  376MOL0     C49520   6.809   6.348   6.118 -0.6698  0.1685  0.1875
  376MOL0     C49521   6.813   6.415   6.258  0.1669  0.4536 -0.2626
  376MOL0     C49522   6.952   6.399   6.332  0.0431  0.3224 -0.1621
  376MOL0     C49523   6.940   6.453   6.473 -0.7213  0.7349  0.8005
  376MOL0     O49524   7.065   6.503   6.525  0.9673  0.4020  1.0558
  376MOL0     C49525   7.167   6.421   6.550 -0.7662  0.8025  0.0889
  376MOL0     C49526   7.166   6.280   6.537 -0.2436  0.9917 -0.6058
  376MOL0     C49527   7.281   6.198   6.550  1.4015  0.1636 -0.5729
  376MOL0     C49528   7.408   6.248   6.575  0.0715 -0.9512  0.4535
  376MOL0     C49529   7.531   6.162   6.577  0.4479 -0.9442 -0.0030
  376MOL0     O49530   7.523   6.045   6.512 -0.8987  0.0635  0.2132
  376MOL0     C49531   7.634   5.956   6.517  0.8614  0.4894 -0.8492
  376MOL0     C49532   7.669   5.895   6.639  0.1644 -0.4969 -0.4539
  376MOL0     C49533   7.764   5.801   6.652 -0.0168 -0.4286  0.0136
  376MOL0     C49534   7.819   5.755   6.537 -0.4348  0.9171 -0.3927
  376MOL0     O49535   7.911   5.651   6.537  0.2189 -0.0696  0.9269
  376MOL0     C49536   7.924   5.562   6.649 -0.4854 -0.5125 -0.8439
  376MOL0     C49537   8.026   5.459   6.628  0.2647 -0.1248 -0.6027
  376MOL0     C49538   8.013   5.375   6.507 -0.3900  0.5480 -0.1462
  376MOL0     C49539   8.104   5.253   6.488  0.1597  0.4570 -0.2884
  376MOL0     C49540   8.257   5.281   6.509  0.2077  0.3857 -0.2107
  376MOL0     C49541   8.341   5.154   6.486  0.6689 -0.0727 -0.8535
  376MOL0     C49542   8.262   5.017   6.517  0.4049 -0.0516  0.2542
  376MOL0     C49543   8.349   4.896   6.475 -0.2769  0.3213 -0.2664
  376MOL0    Cl49544   8.312   4.751   6.573 -0.2616 -0.0607  0.6605
  376MOL0     C49545   7.801   5.813   6.413 -0.9587  0.2461 -0.1690
  376MOL0     C49546   7.697   5.908   6.405 -0.3286  0.2442 -0.1108
  376MOL0     O49547   7.634   6.207   6.635 -0.8401 -0.4794 -0.2093
  376MOL0     C49548   7.411   6.384   6.604  0.9918  0.3018  0.4335
  376MOL0     C49549   7.299   6.459   6.588  0.1884 -0.0273  0.1140
  376MOL0     N49550   6.822   6.538   5.957 -0.5681  0.6637  0.1351
  376MOL0     N49551   6.743   6.612   5.889  0.1701 -0.1491 -0.0118
  376MOL0     C49552   6.329   7.334   5.183 -0.6885 -0.0107 -0.5158
  376MOL0     C49553   6.236   7.435   5.200 -0.0097 -0.0656  1.0899
  376MOL0     C49554   6.079   7.873   5.255 -0.5098  0.5611 -0.1567
  376MOL0     C49555   5.968   7.825   5.337 -1.2207  1.3396  1.0538
  376MOL0     C49556   5.858   7.911   5.363 -0.1385  0.1729 -0.5702
  376MOL0     C49557   5.869   8.048   5.329  0.8560  0.2599 -0.3129
  376MOL0     O49558   5.773   8.140   5.361  0.6255 -0.3561  0.4447
  376MOL0     C49559   5.694   8.125   5.489 -0.3793  0.1299  1.2289
  376MOL0     C49560   5.630   8.259   5.512 -0.0582 -0.8750 -0.4034
  376MOL0     C49561   5.571   8.263   5.655 -0.3900 -0.1681 -0.0306
  376MOL0     C49562   5.524   8.401   5.700  0.3811 -0.9250  0.5078
  376MOL0     C49563   5.652   8.469   5.744 -0.2235  0.3413 -0.7734
  376MOL0     C49564   5.764   8.521   5.772  0.4394  1.0423 -0.2625
  376MOL0     C49565   5.977   8.081   5.247  0.0158  0.8647 -0.6246
  376MOL0     C49566   6.083   7.997   5.209 -0.9087 -0.9669 -0.6596
  376MOL0     H49567   6.410   7.654   5.384 -0.8469  0.4579 -1.6375
  376MOL0     H49568   6.584   7.467   5.355 -0.0987  3.5916 -1.6635
  376MOL0     H49569   6.567   7.231   5.439 -2.1955 -2.8962 -0.4023
  376MOL0     H49570   6.703   7.278   5.322 -1.1171  0.7866  0.7968
  376MOL0     H49571   6.733   7.061   5.438  1.2636  2.9951 -2.1111
  376MOL0     H49572   6.743   7.067   5.269 -4.5802  2.1283 -3.5055
  376MOL0     H49573   6.507   6.962   5.256 -3.1190 -0.7958  2.2159
  376MOL0     H49574   6.499   6.983   5.431  0.4413 -1.5704  1.1194
  376MOL0     H49575   6.633   6.762   5.282  2.6507 -0.0346 -0.8362
  376MOL0     H49576   6.731   6.826   5.410  0.1488 -3.4798 -0.0321
  376MOL0     H49577   6.616   6.620   5.455  2.8057  0.6621  1.3383
  376MOL0     H49578   6.463   6.685   5.421  1.5708 -1.4979 -1.6056
  376MOL0     H49579   6.487   6.817   5.641 -0.7117 -0.4580 -1.4978
  376MOL0     H49580   6.654   6.759   5.651  0.4426 -0.6222  1.0631
  376MOL0     H49581   6.405   6.561   5.646  0.2500 -2.2536 -0.0160
  376MOL0     H49582   6.570   6.520   5.660 -0.1661  0.2003  0.8140
  376MOL0     H49583   6.428   6.539   5.877 -0.4434  0.8863 -0.1874
  376MOL0     H49584   6.491   6.710   5.865  0.3755 -0.5194  1.1713
  376MOL0     H49585   6.559   6.358   5.979  1.6333 -2.1141 -0.4118
  376MOL0     H49586   6.906   6.311   6.083 -1.6978 -0.8809 -1.7192
  376MOL0     H49587   6.746   6.261   6.138  2.1375 -1.3497  3.4372
  376MOL0     H49588   6.748   6.359   6.326  0.4289  0.8439  0.3060
  376MOL0     H49589   6.778   6.516   6.239 -2.0132  0.8746  4.6783
  376MOL0     H49590   6.977   6.293   6.333 -3.0422 -0.5144 -0.4730
  376MOL0     H49591   7.032   6.454   6.282  2.6278 -0.9632  2.2528
  376MOL0     H49592   6.880   6.380   6.528 -0.7023  1.1049  1.3216
  376MOL0     H49593   6.875   6.541   6.472  0.3744  1.6169 -1.5304
  376MOL0     H49594   7.071   6.229   6.521  0.2552  0.6816 -3.0244
  376MOL0     H49595   7.264   6.091   6.539 -0.2904  0.5209 -1.8194
  376MOL0     H49596   7.621   5.936   6.727  0.9776  0.8292 -0.6092
  376MOL0     H49597   7.780   5.739   6.739  0.7476 -0.2390  0.0085
  376MOL0     H49598   7.840   5.511   6.696  2.8873 -3.2373  2.9394
  376MOL0     H49599   7.963   5.632   6.723 -5.9829 -0.0905  2.1313
  376MOL0     H49600   8.041   5.399   6.718  2.6159 -0.8161 -1.3889
  376MOL0     H49601   8.120   5.512   6.616 -0.6817  2.0677  0.9964
  376MOL0     H49602   8.032   5.436   6.418 -2.4829 -1.1527 -1.9062
  376MOL0     H49603   7.911   5.339   6.491  0.2900 -1.3266 -0.4595
  376MOL0     H49604   8.074   5.177   6.561 -0.0882  0.0704 -0.7896
  376MOL0     H49605   8.092   5.219   6.385  1.5191 -0.5108 -0.1657
  376MOL0     H49606   8.262   5.306   6.616 -1.8386 -0.6560  0.1865
  376MOL0     H49607   8.292   5.359   6.441  0.4752  0.9282  0.5316
  376MOL0     H49608   8.437   5.157   6.539  1.6698  1.7177 -2.6225
  376MOL0     H49609   8.366   5.164   6.380  1.5710 -2.1993 -0.8882
  376MOL0     H49610   8.222   5.018   6.619 -2.0174  4.6055 -0.4638
  376MOL0     H49611   8.181   5.021   6.444 -0.0698  2.8277  0.8164
  376MOL0     H49612   8.444   4.918   6.525 -1.3552 -0.0223  2.0771
  376MOL0     H49613   8.362   4.870   6.369 -0.9220 -1.0787 -0.0254
  376MOL0     H49614   7.839   5.784   6.316  1.8819 -0.8635  1.1580
  376MOL0     H49615   7.663   5.949   6.310  3.9787  0.6949 -1.6830
  376MOL0     H49616   7.503   6.436   6.628  0.4160  0.4562  2.4869
  376MOL0     H49617   7.304   6.566   6.608 -2.0756  0.3048 -0.7734
  376MOL0     H49618   6.285   7.248   5.133 -0.8951  0.9244 -2.0250
  376MOL0     H49619   6.139   7.417   5.156  1.1935  1.5864 -2.6762
  376MOL0     H49620   5.971   7.722   5.372 -0.3920 -0.1941 -2.9311
  376MOL0     H49621   5.775   7.870   5.419  0.4536 -0.0242  0.1715
  376MOL0     H49622   5.768   8.098   5.564 -0.8289  1.5811  2.2341
  376MOL0     H49623   5.616   8.050   5.473 -1.5083  1.3109  1.0137
  376MOL0     H49624   5.705   8.338   5.511 -0.3401 -0.6076 -0.9371
  376MOL0     H49625   5.568   8.294   5.429  2.5566  1.7138 -1.4418
  376MOL0     H49626   5.647   8.223   5.723  2.1185  1.1879 -1.8330
  376MOL0     H49627   5.490   8.190   5.655 -1.5095  0.8808 -3.6720
  376MOL0     H49628   5.487   8.460   5.616  0.1894  0.6010  1.6110
  376MOL0     H49629   5.446   8.400   5.776  1.4599 -1.5065  1.6486
  376MOL0     H49630   5.856   8.574   5.782  0.9570 -0.2996  4.3348
  376MOL0     H49631   5.998   8.181   5.210  0.5565  2.5893  3.7789
  376MOL0     H49632   6.159   8.038   5.143 -2.5673  1.3668 -1.2659
  377MOL0     O49633   7.396   4.716   7.528 -0.4857  0.2649 -0.2766
  377MOL0     C49634   7.327   4.778   7.449 -0.1808  0.4548  0.7222
  377MOL0     O49635   7.304   4.909   7.452 -0.7391  0.0376  1.0115
  377MOL0     C49636   7.360   4.984   7.556  0.6276 -0.4722 -0.2701
  377MOL0     C49637   7.494   4.996   7.554 -1.1185  0.0468  0.2010
  377MOL0     C49638   7.565   5.068   7.647 -0.1626  0.4948  0.7587
  377MOL0     C49639   7.495   5.139   7.749  0.7478 -0.9235  0.4432
  377MOL0     O49640   7.579   5.202   7.839  0.5080 -0.1522 -0.7011
  377MOL0     C49641   7.533   5.313   7.930  0.1194  0.1132  0.7817
  377MOL0     C49642   7.623   5.433   7.952  0.5616 -0.2988  0.9870
  377MOL0     C49643   7.591   5.528   8.063 -0.9308 -1.0687 -0.8002
  377MOL0     C49644   7.688   5.649   8.057  0.0774  0.1094 -0.2580
  377MOL0     C49645   7.647   5.755   8.167  0.3760 -0.1002  0.0998
  377MOL0     C49646   7.740   5.868   8.186 -0.8992  0.1926  0.3969
  377MOL0     C49647   7.741   5.953   8.301 -0.2657 -1.3379 -0.3989
  377MOL0     C49648   7.790   6.096   8.268  0.2907  0.2414  0.6863
  377MOL0     N49649   7.795   6.161   8.404 -0.4278 -0.5575  0.4735
  377MOL0     C49650   7.702   6.214   8.486 -0.8017  0.0338  1.1235
  377MOL0     C49651   7.778   6.259   8.589 -0.1940 -0.6745 -0.2012
  377MOL0     C49652   7.725   6.314   8.715 -0.8019 -0.1543 -0.2880
  377MOL0     C49653   7.655   6.200   8.782 -0.0884 -0.5187  0.4584
  377MOL0     C49654   7.651   6.227   8.931  0.5362  0.6804 -0.3768
  377MOL0     C49655   7.609   6.095   8.995  0.0622  1.0703 -0.6736
  377MOL0     O49656   7.552   6.119   9.122  0.2881  0.3781 -0.4093
  377MOL0     C49657   7.443   6.044   9.166  0.3032 -0.5579 -0.4781
  377MOL0     C49658   7.413   6.043   9.304  0.4163 -0.5034  0.1581
  377MOL0     C49659   7.315   5.960   9.361  1.0538 -0.5479  0.7294
  377MOL0     C49660   7.247   5.863   9.286 -0.4216  0.4361  0.0473
  377MOL0     C49661   7.157   5.769   9.362  0.0181  0.3328 -0.4405
  377MOL0     O49662   7.141   5.784   9.494  0.1274  0.0566  0.0269
  377MOL0     C49663   7.044   5.726   9.568 -0.4780 -0.7473  0.6838
  377MOL0     C49664   6.906   5.720   9.530 -1.0071 -1.0723  0.5140
  377MOL0     C49665   6.810   5.668   9.612 -0.0657  0.8472  0.5673
  377MOL0     C49666   6.852   5.620   9.735  0.2093  0.0099 -0.1797
  377MOL0     O49667   6.767   5.562   9.826 -1.4160 -0.0199  0.1821
  377MOL0     C49668   6.635   5.535   9.788  0.1430  0.5516 -0.1605
  377MOL0     C49669   6.560   5.469   9.907  0.2221 -0.1101 -0.4624
  377MOL0     C49670   6.646   5.377   9.995 -0.6825 -1.0224  0.3593
  377MOL0     C49671   6.559   5.291  10.085  0.1985 -1.0624 -1.0051
  377MOL0     C49672   6.637   5.188  10.161  0.2487 -0.2539  0.9157
  377MOL0     C49673   6.670   5.060  10.072 -1.0485  0.1116  0.6730
  377MOL0     C49674   6.722   4.942  10.153 -0.5155 -0.5328 -0.0980
  377MOL0     C49675   6.868   4.942  10.155 -0.0469  0.7971 -0.2674
  377MOL0    Cl49676   6.910   5.015  10.311  0.1781  0.2024  0.0379
  377MOL0     C49677   6.987   5.633   9.781  0.2418 -0.5451  0.8058
  377MOL0     C49678   7.090   5.680   9.693 -0.0032  0.4452 -0.6814
  377MOL0     O49679   7.101   5.687   9.290  0.2788  0.1837  0.1246
  377MOL0     C49680   7.280   5.857   9.147 -0.0701  0.3770 -0.3646
  377MOL0     C49681   7.384   5.934   9.092 -0.7302  0.8534 -0.1455
  377MOL0     N49682   7.913   6.231   8.574 -0.1178  0.2485  0.8800
  377MOL0     N49683   7.917   6.169   8.465 -0.2324 -0.7127 -1.0676
  377MOL0     C49684   7.354   5.125   7.753  0.1928  0.3038  0.5167
  377MOL0     C49685   7.289   5.041   7.661 -0.4188 -0.9094  0.2859
  377MOL0     C49686   7.258   4.710   7.335 -0.3987  0.1367  0.2716
  377MOL0     C49687   7.262   4.569   7.326 -0.1319  0.6735 -1.2160
  377MOL0     C49688   7.201   4.506   7.217  0.0076 -0.4178  0.0503
  377MOL0     C49689   7.150   4.579   7.110 -0.0899 -0.1628 -0.3908
  377MOL0     O49690   7.102   4.500   7.011 -0.3508  0.0772 -1.0309
  377MOL0     C49691   7.092   4.552   6.885 -0.0151  0.2994 -0.1547
  377MOL0     C49692   7.111   4.436   6.791  0.7710 -0.4550 -0.2368
  377MOL0     C49693   7.244   4.373   6.807  0.5901  0.1210 -0.4504
  377MOL0     C49694   7.357   4.425   6.718  0.1978  0.1655 -0.2816
  377MOL0     C49695   7.479   4.343   6.709  0.2045 -0.2696 -0.6363
  377MOL0     C49696   7.588   4.284   6.696 -0.1374  0.4176  0.7456
  377MOL0     C49697   7.138   4.711   7.117 -0.0419 -0.1495 -1.8327
  377MOL0     C49698   7.198   4.786   7.227 -0.6660 -0.0550  0.3696
  377MOL0     H49699   7.561   4.954   7.479 -1.2296  1.2653 -0.6032
  377MOL0     H49700   7.671   5.091   7.650 -0.1412  0.7783 -1.2120
  377MOL0     H49701   7.504   5.276   8.029 -4.8709  1.3294  0.0732
  377MOL0     H49702   7.437   5.351   7.893 -0.2243 -2.1692 -0.8230
  377MOL0     H49703   7.624   5.481   7.854 -0.8023  0.3967  1.2949
  377MOL0     H49704   7.724   5.392   7.967  2.2299  1.8226 -2.8171
  377MOL0     H49705   7.609   5.482   8.161 -1.3667  1.0667  0.3421
  377MOL0     H49706   7.494   5.579   8.052  0.4847  1.6170 -1.8167
  377MOL0     H49707   7.786   5.601   8.069 -0.7319 -2.0033 -1.5163
  377MOL0     H49708   7.693   5.712   7.968  0.9104  0.7079  0.1928
  377MOL0     H49709   7.628   5.707   8.264  0.3346 -3.1512 -1.3208
  377MOL0     H49710   7.548   5.788   8.133  1.0948  0.6518 -1.3683
  377MOL0     H49711   7.722   5.926   8.095  0.2930  0.3041  0.2133
  377MOL0     H49712   7.844   5.831   8.185 -1.1587 -0.5895 -1.3072
  377MOL0     H49713   7.639   5.963   8.338  0.4388  0.0836  1.2675
  377MOL0     H49714   7.793   5.918   8.391  0.1332 -1.7900 -0.7971
  377MOL0     H49715   7.707   6.147   8.219 -0.0286  0.4971  1.4696
  377MOL0     H49716   7.884   6.106   8.213 -0.4201  0.9596 -0.4464
  377MOL0     H49717   7.597   6.201   8.465 -0.1180  1.0467 -4.5975
  377MOL0     H49718   7.662   6.400   8.690 -0.1581  0.7591  1.1285
  377MOL0     H49719   7.810   6.346   8.775  0.7484 -2.0433 -1.3603
  377MOL0     H49720   7.710   6.107   8.763 -2.1841 -1.4152 -1.6174
  377MOL0     H49721   7.555   6.178   8.744 -1.3522 -0.7492  3.5661
  377MOL0     H49722   7.753   6.250   8.965  1.0337 -1.6645 -0.1230
  377MOL0     H49723   7.582   6.312   8.936  1.1324  1.1454  0.0743
  377MOL0     H49724   7.697   6.037   9.025  0.7123  2.4957  0.2654
  377MOL0     H49725   7.548   6.035   8.927  2.4308 -2.5236  0.0706
  377MOL0     H49726   7.469   6.106   9.373  0.2159  1.6771 -1.5566
  377MOL0     H49727   7.290   5.980   9.465 -1.4394  0.1469  0.0577
  377MOL0     H49728   6.885   5.749   9.428  2.3599 -1.0765 -0.2712
  377MOL0     H49729   6.707   5.657   9.582  0.2701  0.2011 -0.4205
  377MOL0     H49730   6.637   5.462   9.708 -0.2386  1.4820 -1.0424
  377MOL0     H49731   6.572   5.620   9.758  1.6986  1.7818 -0.0985
  377MOL0     H49732   6.477   5.413   9.860 -1.1024  1.2583  0.1624
  377MOL0     H49733   6.519   5.554   9.963  1.7810  0.6381 -0.4236
  377MOL0     H49734   6.705   5.447  10.055 -0.8519  1.7094 -2.3948
  377MOL0     H49735   6.720   5.310   9.952  2.6425 -0.7019  4.8477
  377MOL0     H49736   6.526   5.351  10.171  2.7018  0.9461 -1.3209
  377MOL0     H49737   6.471   5.249  10.035 -0.7967  1.7850 -1.8525
  377MOL0     H49738   6.573   5.152  10.242  0.7925 -1.8786  0.6737
  377MOL0     H49739   6.731   5.234  10.193  2.1927 -1.6826 -2.2484
  377MOL0     H49740   6.731   5.079   9.983  0.1791  1.3290  1.7468
  377MOL0     H49741   6.571   5.031  10.033 -1.5671  1.2732  1.0952
  377MOL0     H49742   6.675   4.936  10.252  1.1744 -1.1595  0.6982
  377MOL0     H49743   6.694   4.850  10.101 -0.8776 -1.1673  1.1824
  377MOL0     H49744   6.907   4.995  10.067  2.4556 -2.3821 -1.2625
  377MOL0     H49745   6.914   4.844  10.148 -1.0494  0.3981 -1.7108
  377MOL0     H49746   7.007   5.587   9.877 -0.7742 -0.8357  0.8892
  377MOL0     H49747   7.196   5.670   9.715  0.4465  0.4149 -2.6320
  377MOL0     H49748   7.218   5.790   9.087 -0.9161 -0.5426  1.4678
  377MOL0     H49749   7.413   5.906   8.991 -1.1125  3.0428 -0.9078
  377MOL0     H49750   7.291   5.170   7.829  0.3349 -2.0137  2.1204
  377MOL0     H49751   7.180   5.038   7.662 -0.4349 -2.2649 -1.2956
  377MOL0     H49752   7.325   4.513   7.394  0.0180  0.1197 -1.7993
  377MOL0     H49753   7.225   4.400   7.218 -0.7050 -0.6563  3.7277
  377MOL0     H49754   7.168   4.629   6.868 -0.5239  0.2579 -3.0939
  377MOL0     H49755   6.995   4.600   6.871 -1.4639 -1.7619  2.0385
  377MOL0     H49756   7.027   4.368   6.808  1.2316 -0.7547  0.9216
  377MOL0     H49757   7.109   4.491   6.696 -1.2575 -1.7345 -0.9934
  377MOL0     H49758   7.234   4.273   6.765 -0.9609  0.2366 -0.4174
  377MOL0     H49759   7.278   4.364   6.911 -1.5472  0.1243  0.3001
  377MOL0     H49760   7.324   4.433   6.614 -1.1925 -0.8347  0.0528
  377MOL0     H49761   7.380   4.528   6.748 -0.1718  0.1531  0.0474
  377MOL0     H49762   7.687   4.243   6.697 -0.0749  0.5687  1.8620
  377MOL0     H49763   7.095   4.769   7.037  0.3432  1.0280 -1.2209
  377MOL0     H49764   7.188   4.894   7.241  1.0348  0.1342  0.2838
  378MOL0     O49765   2.177   4.301   4.695 -0.5775 -0.8899 -1.1993
  378MOL0     C49766   2.268   4.312   4.779  1.2688  0.3888  0.4630
  378MOL0     O49767   2.406   4.325   4.753  0.6992  0.2119 -0.1763
  378MOL0     C49768   2.472   4.355   4.633  0.1590  1.5915  0.1412
  378MOL0     C49769   2.585   4.425   4.647 -0.7156  0.3357  0.7190
  378MOL0     C49770   2.656   4.472   4.539 -0.6133  0.2727  0.1445
  378MOL0     C49771   2.603   4.455   4.405  0.5706 -0.0786  1.1884
  378MOL0     O49772   2.662   4.504   4.289  0.1024  0.1653  0.1849
  378MOL0     C49773   2.575   4.572   4.199 -0.0845  0.1369 -0.0956
  378MOL0     C49774   2.652   4.641   4.086 -0.0169  0.2242  0.2231
  378MOL0     C49775   2.767   4.721   4.145  0.1034  0.6357  0.7516
  378MOL0     C49776   2.826   4.807   4.033 -0.6220 -0.6463  0.5183
  378MOL0     C49777   2.912   4.911   4.103 -0.7418 -0.8258  0.6129
  378MOL0     C49778   2.995   4.986   4.004  0.2436 -0.0126 -0.5180
  378MOL0     C49779   3.094   4.900   3.934  0.5051 -1.0604 -0.7113
  378MOL0     C49780   3.203   4.981   3.866 -0.2553  0.7014 -1.1552
  378MOL0     N49781   3.162   5.085   3.774 -0.1438  0.1833 -0.7707
  378MOL0     C49782   3.214   5.212   3.773 -0.2351 -0.2268 -0.4501
  378MOL0     C49783   3.182   5.258   3.648  0.0933 -0.5776  0.3097
  378MOL0     C49784   3.244   5.385   3.591 -0.4521 -0.6000 -0.5775
  378MOL0     C49785   3.151   5.508   3.574  0.0635  0.3359  0.0343
  378MOL0     C49786   3.239   5.627   3.512 -0.5157  0.4037 -0.2582
  378MOL0     C49787   3.269   5.585   3.360  0.5056 -0.0197 -0.0839
  378MOL0     O49788   3.263   5.698   3.268 -1.3651 -0.5804  0.5134
  378MOL0     C49789   3.261   5.658   3.135  0.7250 -0.4350  1.4421
  378MOL0     C49790   3.183   5.742   3.049 -0.7417  0.6834  2.0687
  378MOL0     C49791   3.181   5.729   2.908 -0.3627 -0.4707 -0.3911
  378MOL0     C49792   3.233   5.609   2.854 -0.3591  0.4596 -0.0121
  378MOL0     C49793   3.222   5.581   2.714 -0.2012  0.2558  0.8787
  378MOL0     O49794   3.203   5.694   2.634  0.4271  0.4161  0.2044
  378MOL0     C49795   3.199   5.677   2.500 -0.1166  0.5322 -0.1698
  378MOL0     C49796   3.291   5.607   2.425  0.2493 -0.3704  0.2152
  378MOL0     C49797   3.279   5.603   2.284  0.0940  0.8014  0.4011
  378MOL0     C49798   3.168   5.662   2.218 -1.5154 -0.0293 -0.1265
  378MOL0     O49799   3.175   5.661   2.085 -0.4452  1.7263  0.0666
  378MOL0     C49800   3.062   5.703   2.009  0.8272  0.8156  0.3072
  378MOL0     C49801   3.076   5.676   1.863  0.8836 -0.0579  1.6709
  378MOL0     C49802   2.953   5.697   1.772 -0.0402  0.4222 -0.0611
  378MOL0     C49803   2.916   5.849   1.770 -0.4359 -0.2907 -0.6493
  378MOL0     C49804   2.790   5.882   1.695 -0.1121  0.1072 -0.2455
  378MOL0     C49805   2.761   6.036   1.711  0.8565  0.4210 -1.2639
  378MOL0     C49806   2.866   6.126   1.651  0.4710 -0.7173  0.4143
  378MOL0     C49807   2.818   6.269   1.637  0.4579  0.5559 -0.2135
  378MOL0    Cl49808   2.795   6.334   1.799  0.4475 -0.0027 -0.3584
  378MOL0     C49809   3.075   5.729   2.298 -0.5430 -0.2290  1.0484
  378MOL0     C49810   3.092   5.734   2.433  0.5965  0.1785  0.3903
  378MOL0     O49811   3.226   5.466   2.674 -0.7174  0.1285  0.1554
  378MOL0     C49812   3.288   5.517   2.948 -0.7540 -0.4903 -0.6584
  378MOL0     C49813   3.295   5.532   3.082 -0.3450 -0.9104  0.8288
  378MOL0     N49814   3.110   5.162   3.581 -0.3353 -0.1611  0.3663
  378MOL0     N49815   3.109   5.050   3.648  1.1548 -0.6113 -0.1957
  378MOL0     C49816   2.492   4.369   4.386 -0.3427 -0.2475 -1.3112
  378MOL0     C49817   2.417   4.328   4.498  0.0592 -0.0400  0.5686
  378MOL0     C49818   2.225   4.294   4.925 -0.5771  0.9459  0.5439
  378MOL0     C49819   2.096   4.281   4.970 -0.0619 -0.5561 -0.1071
  378MOL0     C49820   2.054   4.278   5.110  0.5485  0.0211 -0.6709
  378MOL0     C49821   2.161   4.262   5.207  1.1366  0.7739  0.4453
  378MOL0     O49822   2.133   4.255   5.341 -0.6450  0.3830  0.7164
  378MOL0     C49823   2.031   4.161   5.373  0.5080 -0.7786  0.2005
  378MOL0     C49824   2.043   4.151   5.522  0.0803  0.8338 -0.9245
  378MOL0     C49825   2.171   4.097   5.588  0.6676 -0.0754 -0.4006
  378MOL0     C49826   2.195   3.946   5.570 -0.1718 -0.0686  0.3581
  378MOL0     C49827   2.311   3.921   5.660 -0.0958 -0.4034 -0.7759
  378MOL0     C49828   2.409   3.916   5.726 -0.4598  0.1407  0.1491
  378MOL0     C49829   2.295   4.269   5.160  0.0476  0.2286 -0.2635
  378MOL0     C49830   2.330   4.281   5.026  0.4563 -0.0781  0.2797
  378MOL0     H49831   2.633   4.449   4.741  1.7277 -0.7728 -0.1455
  378MOL0     H49832   2.749   4.527   4.551 -0.4591  1.3298 -4.1114
  378MOL0     H49833   2.518   4.648   4.253 -1.3481 -0.9965  0.2345
  378MOL0     H49834   2.500   4.509   4.150 -1.1606 -0.5771  2.3116
  378MOL0     H49835   2.588   4.703   4.022 -0.7771  1.0548  1.7219
  378MOL0     H49836   2.692   4.557   4.028 -1.6397 -0.8849  0.6354
  378MOL0     H49837   2.845   4.659   4.190 -0.3549 -0.8327 -0.4142
  378MOL0     H49838   2.723   4.785   4.222 -2.1760  0.9475 -0.7001
  378MOL0     H49839   2.882   4.745   3.963 -0.6095 -0.2362  0.1596
  378MOL0     H49840   2.742   4.851   3.979 -0.5900 -3.1383 -1.7620
  378MOL0     H49841   2.966   4.865   4.186 -0.7316  0.3523  1.2976
  378MOL0     H49842   2.843   4.980   4.152  0.8499 -1.2371  3.6838
  378MOL0     H49843   3.046   5.069   4.055 -2.0277  1.5517 -0.6464
  378MOL0     H49844   2.927   5.037   3.935 -0.2482  2.2462  1.4858
  378MOL0     H49845   3.147   4.842   4.011  3.4502  2.0514 -0.1598
  378MOL0     H49846   3.044   4.838   3.859 -4.4267  0.6618  0.7449
  378MOL0     H49847   3.262   4.909   3.808  1.7477  0.5635  0.9251
  378MOL0     H49848   3.270   5.019   3.943 -2.0750  1.5309  0.0914
  378MOL0     H49849   3.271   5.266   3.848  1.3263  1.8262 -2.9000
  378MOL0     H49850   3.287   5.355   3.496  1.4883  0.4523 -0.0772
  378MOL0     H49851   3.324   5.422   3.655 -0.9910 -0.8894  0.2934
  378MOL0     H49852   3.108   5.542   3.668  1.0239 -1.5683  1.2174
  378MOL0     H49853   3.074   5.476   3.504  2.1311 -1.5205 -1.5218
  378MOL0     H49854   3.193   5.725   3.525  4.0646  3.1376 -2.0066
  378MOL0     H49855   3.330   5.640   3.571 -2.7737  3.5508  2.9155
  378MOL0     H49856   3.188   5.522   3.323  0.1412 -2.2472  3.9300
  378MOL0     H49857   3.366   5.534   3.371 -0.1889 -1.5895 -1.0044
  378MOL0     H49858   3.143   5.835   3.089 -1.6577  1.1001  0.3442
  378MOL0     H49859   3.131   5.809   2.855 -0.9418 -0.1474  0.6394
  378MOL0     H49860   3.371   5.559   2.479  1.7854  0.5048 -1.2034
  378MOL0     H49861   3.347   5.552   2.218 -1.0406  1.3518 -1.2638
  378MOL0     H49862   3.033   5.808   2.018  0.0811  0.6309  0.1146
  378MOL0     H49863   2.974   5.644   2.038  0.4969 -0.1000 -2.2470
  378MOL0     H49864   3.116   5.575   1.854  0.3992 -0.1149 -0.4015
  378MOL0     H49865   3.151   5.747   1.827 -0.3163  1.0338  1.2565
  378MOL0     H49866   2.871   5.644   1.822 -1.3853  2.8742  0.4702
  378MOL0     H49867   2.978   5.648   1.677 -0.2465 -0.2009  0.2001
  378MOL0     H49868   2.912   5.896   1.869  0.5654 -1.4389 -0.0450
  378MOL0     H49869   3.000   5.901   1.724  0.3682  1.6569  2.6652
  378MOL0     H49870   2.702   5.826   1.727  1.0040 -1.7295 -0.2418
  378MOL0     H49871   2.812   5.864   1.589  0.2450  0.5142 -0.2406
  378MOL0     H49872   2.753   6.060   1.818 -1.2780 -3.5498 -0.3333
  378MOL0     H49873   2.665   6.050   1.661 -1.4890 -3.5357  1.5259
  378MOL0     H49874   2.953   6.135   1.717  1.5319  3.6358 -1.2869
  378MOL0     H49875   2.910   6.086   1.560  1.2198 -0.7578  0.7863
  378MOL0     H49876   2.727   6.277   1.577  0.6628  1.4643 -0.4125
  378MOL0     H49877   2.893   6.317   1.574  0.9015  1.0539  0.6710
  378MOL0     H49878   2.985   5.781   2.268 -0.1649  1.8723  3.3000
  378MOL0     H49879   3.022   5.793   2.491 -0.2134 -2.3169  2.0787
  378MOL0     H49880   3.325   5.419   2.920 -0.6923 -1.5561  2.6484
  378MOL0     H49881   3.343   5.464   3.151 -1.6260 -1.0721  1.5956
  378MOL0     H49882   2.456   4.337   4.289 -2.8919  0.8136 -0.7883
  378MOL0     H49883   2.319   4.282   4.489  0.9957 -1.7911 -1.5781
  378MOL0     H49884   2.028   4.271   4.885  1.0384 -1.1418 -0.9463
  378MOL0     H49885   1.950   4.294   5.133 -0.0740 -2.6422 -1.3299
  378MOL0     H49886   2.045   4.062   5.328  1.1559  0.2455 -1.9811
  378MOL0     H49887   1.933   4.198   5.342 -0.3669 -1.9782  1.4015
  378MOL0     H49888   2.037   4.256   5.551  0.5864  1.3252 -2.4815
  378MOL0     H49889   1.951   4.101   5.554 -0.6045  2.2126 -0.6543
  378MOL0     H49890   2.150   4.118   5.693  0.7122  1.3616 -0.6624
  378MOL0     H49891   2.258   4.156   5.555  3.8418 -4.1296 -0.1284
  378MOL0     H49892   2.113   3.879   5.596 -0.0164 -1.0784 -1.6349
  378MOL0     H49893   2.221   3.931   5.465 -0.9957  0.0041  0.1284
  378MOL0     H49894   2.488   3.908   5.798 -1.2898 -2.3735  0.8818
  378MOL0     H49895   2.383   4.274   5.223 -0.0566  0.0272 -0.1002
  378MOL0     H49896   2.437   4.287   5.009  0.3817 -0.6047 -0.4241
  379MOL0     O49897   3.486   1.204   1.016 -0.1442 -0.2847  0.3215
  379MOL0     C49898   3.591   1.191   0.962 -0.2866 -0.0414  0.6133
  379MOL0     O49899   3.644   1.070   0.911  0.4100 -0.3910 -0.0327
  379MOL0     C49900   3.573   0.954   0.929 -0.6709  0.0837 -0.3334
  379MOL0     C49901   3.437   0.937   0.881  0.2046  0.0921  0.0108
  379MOL0     C49902   3.375   0.811   0.905 -0.5157  0.2545 -0.4247
  379MOL0     C49903   3.439   0.705   0.962 -0.2137 -0.1818  0.3968
  379MOL0     O49904   3.385   0.594   1.018  1.0104  0.5739  0.3905
  379MOL0     C49905   3.247   0.571   0.996  0.1433  0.0984 -0.0417
  379MOL0     C49906   3.183   0.472   1.091  0.5821 -0.5495  0.1379
  379MOL0     C49907   3.175   0.531   1.241 -0.0273  0.4987  1.0304
  379MOL0     C49908   3.105   0.427   1.325  0.0617  0.3485 -0.3328
  379MOL0     C49909   3.037   0.497   1.449 -1.0772  0.0352  0.2800
  379MOL0     C49910   3.132   0.581   1.538 -0.4264 -0.7251 -1.0928
  379MOL0     C49911   3.231   0.497   1.608  0.3473 -0.4675  0.5200
  379MOL0     C49912   3.332   0.581   1.694 -0.5915  0.4902 -0.8484
  379MOL0     N49913   3.271   0.660   1.799 -0.0079  0.3907  0.8669
  379MOL0     C49914   3.294   0.792   1.803  0.1451 -0.0479  0.1374
  379MOL0     C49915   3.233   0.827   1.922 -0.3774 -0.6474 -0.5725
  379MOL0     C49916   3.220   0.959   1.983  0.1139 -0.6101  0.3253
  379MOL0     C49917   3.109   1.040   1.914  0.5131 -0.7174 -0.2218
  379MOL0     C49918   3.114   1.194   1.955  0.2343  0.8492  0.1031
  379MOL0     C49919   3.005   1.265   1.871 -0.4092  0.0322 -0.2657
  379MOL0     O49920   2.881   1.198   1.908  0.3645 -0.2331 -0.9276
  379MOL0     C49921   2.769   1.226   1.824 -0.6215  0.1040 -0.5776
  379MOL0     C49922   2.739   1.349   1.762 -0.3005  0.7019  0.5990
  379MOL0     C49923   2.625   1.364   1.682 -0.0593  0.2277 -0.7314
  379MOL0     C49924   2.524   1.265   1.667 -0.1999 -1.3700 -0.3321
  379MOL0     C49925   2.405   1.282   1.586 -0.2201  0.4023 -0.6065
  379MOL0     O49926   2.419   1.379   1.492  0.3751  0.0658 -0.1114
  379MOL0     C49927   2.311   1.399   1.408  0.3818 -0.2207  1.3289
  379MOL0     C49928   2.337   1.418   1.272 -0.0954  0.7037 -0.6861
  379MOL0     C49929   2.242   1.442   1.186 -0.2254  0.5326 -0.1610
  379MOL0     C49930   2.112   1.469   1.229  0.3921 -0.3264 -0.6604
  379MOL0     O49931   2.002   1.508   1.152 -0.3772  0.1879  0.0712
  379MOL0     C49932   2.019   1.617   1.055  0.2024 -0.0695 -0.6123
  379MOL0     C49933   2.009   1.563   0.904  0.4004 -0.5992 -0.2516
  379MOL0     C49934   2.008   1.687   0.813  0.5485  0.1983  0.2163
  379MOL0     C49935   1.925   1.668   0.682  0.2102 -0.0867 -0.6892
  379MOL0     C49936   1.882   1.798   0.611  0.3912  0.5399 -0.8492
  379MOL0     C49937   1.996   1.896   0.574 -0.1843 -0.3939 -0.0451
  379MOL0     C49938   1.937   2.021   0.529 -0.5173 -0.1377 -0.1697
  379MOL0     C49939   2.023   2.097   0.425  0.5532 -0.9255  0.0328
  379MOL0    Cl49940   2.135   2.213   0.508 -0.3846  0.3484  0.6501
  379MOL0     C49941   2.082   1.452   1.361 -0.5935  0.9211  0.6389
  379MOL0     C49942   2.183   1.423   1.452  0.5274 -0.0138 -0.0745
  379MOL0     O49943   2.311   1.203   1.604  0.3774 -0.0674  0.4860
  379MOL0     C49944   2.552   1.140   1.722 -1.4335  0.3494 -0.7881
  379MOL0     C49945   2.674   1.116   1.800  0.0847 -0.6977  0.0913
  379MOL0     N49946   3.169   0.721   1.986  0.1542  0.1260  0.3693
  379MOL0     N49947   3.196   0.620   1.905  0.4950  0.7163  0.2690
  379MOL0     C49948   3.578   0.720   0.998 -0.4837  0.2283 -0.0970
  379MOL0     C49949   3.636   0.845   0.984 -0.3348 -0.9203  0.6330
  379MOL0     C49950   3.685   1.316   0.967 -0.2506  0.0050  0.4059
  379MOL0     C49951   3.806   1.306   0.898  0.5216 -0.0712 -0.0557
  379MOL0     C49952   3.887   1.423   0.891  0.0377 -0.4912 -0.7168
  379MOL0     C49953   3.860   1.548   0.952 -0.5074  0.2448 -0.4880
  379MOL0     O49954   3.947   1.650   0.949 -0.7101 -0.3890 -0.2205
  379MOL0     C49955   4.085   1.623   0.951 -1.1112  0.4369 -0.3939
  379MOL0     C49956   4.166   1.728   1.034  0.0856 -0.1088  0.4304
  379MOL0     C49957   4.138   1.872   0.979 -0.1089 -0.5600  0.7138
  379MOL0     C49958   4.191   1.898   0.835  0.0579  0.1911 -0.2274
  379MOL0     C49959   4.337   1.860   0.819  0.3603  1.1071 -0.9690
  379MOL0     C49960   4.451   1.818   0.789 -0.2222  0.2847 -0.0358
  379MOL0     C49961   3.742   1.549   1.024  0.1794  0.2072 -0.7881
  379MOL0     C49962   3.650   1.444   1.026 -0.5888 -0.2598  1.1343
  379MOL0     H49963   3.393   1.025   0.833 -1.1124  0.6212  2.0582
  379MOL0     H49964   3.268   0.807   0.887 -0.1605 -0.1818 -2.9287
  379MOL0     H49965   3.243   0.533   0.894 -0.1721 -0.7922  0.2935
  379MOL0     H49966   3.179   0.655   1.010 -0.0392 -0.3979  2.5250
  379MOL0     H49967   3.228   0.373   1.086  0.1185 -0.8397  1.3899
  379MOL0     H49968   3.083   0.454   1.050  0.3213 -3.7468  1.9005
  379MOL0     H49969   3.108   0.617   1.246  2.0817  2.4168 -1.4933
  379MOL0     H49970   3.273   0.551   1.285  0.7583 -0.8899 -0.0001
  379MOL0     H49971   3.030   0.384   1.257  1.6352  0.3544 -2.1768
  379MOL0     H49972   3.182   0.353   1.349  3.3967  3.8186  0.6135
  379MOL0     H49973   2.994   0.416   1.509  0.5095  0.5211  2.2004
  379MOL0     H49974   2.955   0.564   1.421 -1.3557 -0.0403  0.8952
  379MOL0     H49975   3.082   0.647   1.610  1.6250 -1.5333  1.1696
  379MOL0     H49976   3.182   0.657   1.476 -1.4165 -0.1925 -1.2714
  379MOL0     H49977   3.174   0.423   1.665 -1.4910 -0.2060 -0.8800
  379MOL0     H49978   3.287   0.437   1.536 -1.3090  0.5070 -1.7042
  379MOL0     H49979   3.394   0.637   1.624 -0.0388 -1.0774 -1.6531
  379MOL0     H49980   3.395   0.513   1.752 -0.6343  2.8308  2.2101
  379MOL0     H49981   3.356   0.851   1.736 -1.2278  2.1509  0.6990
  379MOL0     H49982   3.317   1.009   1.969  0.1335 -0.2765  1.4827
  379MOL0     H49983   3.201   0.951   2.091  1.5571 -0.5374  0.6025
  379MOL0     H49984   3.017   1.003   1.960  0.0672  1.0269  0.3760
  379MOL0     H49985   3.109   1.027   1.806  2.3875 -2.7881 -0.0367
  379MOL0     H49986   3.090   1.211   2.061 -1.7007  0.1072 -0.1917
  379MOL0     H49987   3.212   1.235   1.927 -0.2783  1.1904 -1.2335
  379MOL0     H49988   3.026   1.256   1.764  0.6102  1.8328 -0.2500
  379MOL0     H49989   3.006   1.372   1.896  0.7812  0.6149 -2.5521
  379MOL0     H49990   2.804   1.435   1.781  0.5305  0.5303 -1.2811
  379MOL0     H49991   2.620   1.465   1.643  1.5677  1.5654  2.1929
  379MOL0     H49992   2.438   1.394   1.242 -0.8286 -1.0850 -1.8708
  379MOL0     H49993   2.257   1.442   1.079  0.6740  1.5204 -0.0437
  379MOL0     H49994   2.107   1.681   1.071 -0.7200  1.1040 -0.0835
  379MOL0     H49995   1.930   1.675   1.081 -0.7521 -1.5723 -0.4186
  379MOL0     H49996   1.916   1.507   0.890  0.2448 -0.5394  0.4752
  379MOL0     H49997   2.094   1.498   0.881  0.3216 -0.0825 -2.0871
  379MOL0     H49998   2.108   1.715   0.780  0.3658 -0.2504 -0.7530
  379MOL0     H49999   1.972   1.770   0.874  1.2283  0.7733 -0.1520
  379MOL0     H50000   1.981   1.598   0.619  1.4366 -1.7303  2.0649
  379MOL0     H50001   1.830   1.619   0.706  0.4250  0.3351  1.2119
  379MOL0     H50002   1.810   1.844   0.680  3.7931  0.4066  3.2170
  379MOL0     H50003   1.845   1.773   0.511  1.5230  2.7047 -1.8761
  379MOL0     H50004   2.060   1.841   0.504  1.9035 -1.1412  2.2870
  379MOL0     H50005   2.048   1.910   0.669 -0.7780 -2.7157  0.6925
  379MOL0     H50006   1.839   1.992   0.490 -1.4240  1.7878  0.5280
  379MOL0     H50007   1.911   2.089   0.611 -0.7778  0.8005 -1.0136
  379MOL0     H50008   1.959   2.153   0.356 -0.9746 -0.0713  2.0638
  379MOL0     H50009   2.080   2.033   0.356 -0.4889 -2.6881  0.7445
  379MOL0     H50010   1.977   1.462   1.387  0.0356  2.1082  2.9809
  379MOL0     H50011   2.158   1.406   1.557  0.6989  1.4385  0.2245
  379MOL0     H50012   2.475   1.064   1.727 -2.3873  1.3741  0.8084
  379MOL0     H50013   2.698   1.028   1.859  1.2716 -1.1885 -1.0726
  379MOL0     H50014   3.639   0.642   1.041  0.7176 -0.3404 -2.6599
  379MOL0     H50015   3.733   0.875   1.024 -1.1657  4.0747 -0.4894
  379MOL0     H50016   3.840   1.215   0.851  3.4111 -1.4585  4.1217
  379MOL0     H50017   3.970   1.406   0.824 -0.9922 -2.6608 -1.5497
  379MOL0     H50018   4.123   1.601   0.851  1.0959 -0.6700  0.6187
  379MOL0     H50019   4.095   1.522   0.993  0.9824  0.0855 -1.6046
  379MOL0     H50020   4.139   1.729   1.140 -1.6913 -0.8016  0.0245
  379MOL0     H50021   4.269   1.692   1.025  0.4828  1.4067 -2.1946
  379MOL0     H50022   4.197   1.928   1.052  0.2117 -1.6361  1.3125
  379MOL0     H50023   4.034   1.899   1.002  0.0857  0.4908  0.3928
  379MOL0     H50024   4.130   1.843   0.763  2.3035 -1.2264 -1.1468
  379MOL0     H50025   4.183   2.002   0.802 -1.2642  0.2427  0.1816
  379MOL0     H50026   4.546   1.791   0.748 -1.2191 -0.9758 -1.6555
  379MOL0     H50027   3.716   1.638   1.082  2.4506  0.5091 -0.1260
  379MOL0     H50028   3.557   1.459   1.079 -0.8150 -2.8702  1.6207
  380MOL0     O50029   6.179   8.180   6.744  0.2953  0.4560  0.0970
  380MOL0     C50030   6.112   8.259   6.677  0.1106  0.0247 -0.7506
  380MOL0     O50031   5.974   8.247   6.651 -0.0824  0.5527 -0.5393
  380MOL0     C50032   5.910   8.142   6.720 -0.4395 -0.6814 -0.7484
  380MOL0     C50033   5.883   8.163   6.860  0.7418 -0.2564  0.4231
  380MOL0     C50034   5.800   8.072   6.923 -0.4462 -0.1705  0.3116
  380MOL0     C50035   5.756   7.953   6.861 -1.1693  0.8730 -0.0546
  380MOL0     O50036   5.668   7.872   6.916  0.3894  0.2711 -0.6766
  380MOL0     C50037   5.554   7.934   6.987  0.0689  0.3088 -0.3396
  380MOL0     C50038   5.435   7.835   7.002 -0.4880 -0.8504 -0.8663
  380MOL0     C50039   5.328   7.839   6.887 -0.0302 -0.9398  0.3675
  380MOL0     C50040   5.251   7.710   6.865  0.1742  0.5147  0.9175
  380MOL0     C50041   5.136   7.744   6.775  0.3890  0.4685 -0.7348
  380MOL0     C50042   5.002   7.771   6.851 -0.3857  1.1032  0.3823
  380MOL0     C50043   5.000   7.897   6.942  0.5861  0.4037 -0.0474
  380MOL0     C50044   5.047   7.871   7.087  0.7670  0.6719 -0.6941
  380MOL0     N50045   4.962   7.779   7.162  0.1472  0.9780 -0.4523
  380MOL0     C50046   4.912   7.802   7.282 -0.1656  0.3033  0.2157
  380MOL0     C50047   4.860   7.684   7.335  0.2819  0.6833 -0.3556
  380MOL0     C50048   4.790   7.656   7.461  1.0276  0.5676 -0.0101
  380MOL0     C50049   4.885   7.612   7.573  0.0744 -0.9890  0.0332
  380MOL0     C50050   4.940   7.473   7.551 -0.7776 -0.3090 -0.9643
  380MOL0     C50051   4.850   7.364   7.607 -0.6449 -1.1757 -0.3217
  380MOL0     O50052   4.832   7.373   7.751 -0.9572 -0.6605  0.1786
  380MOL0     C50053   4.741   7.296   7.814 -0.3300  0.2325 -1.4313
  380MOL0     C50054   4.664   7.202   7.747  0.5765 -0.8827  0.1933
  380MOL0     C50055   4.595   7.114   7.826 -0.7497  0.7227  0.3856
  380MOL0     C50056   4.582   7.126   7.962  0.8492  0.4434 -0.3452
  380MOL0     C50057   4.497   7.021   8.035 -0.0816  0.6579  0.3279
  380MOL0     O50058   4.453   6.917   7.953  0.2822  0.1575 -0.5162
  380MOL0     C50059   4.418   6.783   7.991  0.2223  0.0105 -0.1454
  380MOL0     C50060   4.439   6.727   8.118  0.5053 -0.2592 -0.2394
  380MOL0     C50061   4.386   6.603   8.148  0.7274 -0.3799 -0.6606
  380MOL0     C50062   4.319   6.519   8.061 -0.2753 -0.2000 -0.5686
  380MOL0     O50063   4.289   6.397   8.108  0.7598 -0.9545  0.1026
  380MOL0     C50064   4.151   6.358   8.093  0.4775  1.1108  0.4761
  380MOL0     C50065   4.104   6.274   8.212  0.0600 -0.7338  0.0050
  380MOL0     C50066   4.080   6.357   8.337  0.2660 -0.3828  0.9676
  380MOL0     C50067   3.962   6.450   8.303  0.1544  0.3301 -0.8601
  380MOL0     C50068   3.888   6.487   8.437  0.7283  0.2601  0.3737
  380MOL0     C50069   3.782   6.592   8.416  0.9002 -0.4543 -0.2725
  380MOL0     C50070   3.717   6.621   8.547 -0.2572 -0.5690 -0.3457
  380MOL0     C50071   3.646   6.752   8.544 -0.2321  0.0707  0.2197
  380MOL0    Cl50072   3.626   6.841   8.704  0.0779  0.3975 -0.3847
  380MOL0     C50073   4.304   6.569   7.926 -0.4189 -1.3192 -0.5476
  380MOL0     C50074   4.349   6.700   7.901 -0.3781 -0.3524  0.4540
  380MOL0     O50075   4.470   7.029   8.156  0.4911 -1.1801  0.7168
  380MOL0     C50076   4.650   7.224   8.033 -0.2461 -0.5476  0.4671
  380MOL0     C50077   4.727   7.308   7.952 -1.0472  0.0766  0.7046
  380MOL0     N50078   4.883   7.583   7.239 -0.0911 -0.3602 -0.4028
  380MOL0     N50079   4.945   7.639   7.139  0.0656 -0.2639 -0.1089
  380MOL0     C50080   5.788   7.935   6.723 -0.0248  0.1760  0.2233
  380MOL0     C50081   5.862   8.028   6.654 -0.1838  0.2731 -0.5572
  380MOL0     C50082   6.183   8.369   6.630  0.5474  0.5216 -0.5049
  380MOL0     C50083   6.321   8.371   6.614 -0.2780 -0.8442 -0.5519
  380MOL0     C50084   6.384   8.472   6.543 -0.5668  0.4554  0.2620
  380MOL0     C50085   6.301   8.573   6.477 -1.2712  0.4631  0.1633
  380MOL0     O50086   6.377   8.673   6.413  0.4257 -0.2373 -0.4695
  380MOL0     C50087   6.291   8.780   6.364  0.3343 -0.3665  0.3558
  380MOL0     C50088   6.366   8.845   6.244 -0.3302 -0.0025 -0.6852
  380MOL0     C50089   6.496   8.931   6.288 -0.0357  0.0777  0.6780
  380MOL0     C50090   6.461   9.063   6.356  0.6830  0.1856  0.1364
  380MOL0     C50091   6.559   9.168   6.326  0.4972  0.0701 -0.0988
  380MOL0     C50092   6.628   9.263   6.292 -0.4439 -0.2343 -0.2361
  380MOL0     C50093   6.164   8.563   6.495 -0.4311  0.5537  0.6033
  380MOL0     C50094   6.106   8.471   6.576  0.0775  0.0388  0.3272
  380MOL0     H50095   5.920   8.254   6.906  2.3937 -0.9872  0.6031
  380MOL0     H50096   5.784   8.098   7.027  1.5611  1.3281  0.3061
  380MOL0     H50097   5.517   8.026   6.940  0.6232 -0.2937 -1.9978
  380MOL0     H50098   5.611   7.969   7.074 -0.9277  0.7342  0.1599
  380MOL0     H50099   5.383   7.866   7.093  0.1443  0.2002 -0.8413
  380MOL0     H50100   5.483   7.738   7.015  1.6606 -0.0333 -2.1642
  380MOL0     H50101   5.371   7.866   6.790 -0.6513 -1.0206  0.0650
  380MOL0     H50102   5.266   7.926   6.910  0.7834 -0.1943 -0.2088
  380MOL0     H50103   5.309   7.629   6.820 -1.3406  1.4071 -3.0613
  380MOL0     H50104   5.211   7.673   6.960 -1.4276  1.3423  0.6016
  380MOL0     H50105   5.123   7.653   6.716  1.1854 -1.4441  1.8687
  380MOL0     H50106   5.165   7.823   6.704 -3.4725  0.8147 -2.1755
  380MOL0     H50107   4.977   7.683   6.911 -0.5005  0.4998 -0.5406
  380MOL0     H50108   4.918   7.772   6.781 -0.7298 -1.8257  0.6438
  380MOL0     H50109   5.053   7.981   6.897  3.2652 -0.9680  0.3340
  380MOL0     H50110   4.892   7.910   6.950  0.5641 -0.0138  0.4166
  380MOL0     H50111   5.041   7.972   7.130 -0.8533  1.2870 -2.2422
  380MOL0     H50112   5.150   7.836   7.079  0.4657 -0.2701 -0.4702
  380MOL0     H50113   4.905   7.905   7.315 -1.0015  0.1043  0.6783
  380MOL0     H50114   4.723   7.572   7.442  2.4842 -0.8869  1.0104
  380MOL0     H50115   4.732   7.746   7.486 -0.5160 -0.6451  0.9526
  380MOL0     H50116   4.824   7.612   7.665  0.3027 -1.3873  0.1840
  380MOL0     H50117   4.959   7.690   7.589  1.0104 -1.8348 -0.0893
  380MOL0     H50118   4.958   7.454   7.445 -4.7973 -2.2868 -1.4435
  380MOL0     H50119   5.037   7.458   7.600 -1.8016 -1.9307  0.6861
  380MOL0     H50120   4.886   7.264   7.579  0.6448 -0.3659 -1.6945
  380MOL0     H50121   4.748   7.371   7.567 -0.7755  1.5996  0.3133
  380MOL0     H50122   4.674   7.197   7.639  1.2819 -0.1620  0.2148
  380MOL0     H50123   4.546   7.028   7.783  1.8995 -1.1416  0.8513
  380MOL0     H50124   4.491   6.782   8.195 -0.6271  2.7605 -1.4869
  380MOL0     H50125   4.404   6.562   8.247  0.2316 -1.0622 -0.8446
  380MOL0     H50126   4.153   6.286   8.010  1.8129 -0.9465  2.1898
  380MOL0     H50127   4.087   6.441   8.061  1.3363  1.3685 -0.6328
  380MOL0     H50128   4.178   6.197   8.238  0.9756 -0.1799 -0.9087
  380MOL0     H50129   4.012   6.223   8.182  0.3768 -2.7380  2.1751
  380MOL0     H50130   4.164   6.419   8.369 -1.4208  2.1363  0.7915
  380MOL0     H50131   4.058   6.284   8.415  1.1678  0.9518  2.5382
  380MOL0     H50132   3.999   6.543   8.258  0.4987  1.2198  1.1923
  380MOL0     H50133   3.893   6.419   8.224 -0.8849  1.4072 -0.4021
  380MOL0     H50134   3.962   6.509   8.514  1.1919 -2.7046  0.8810
  380MOL0     H50135   3.822   6.405   8.467 -1.2833  0.7293 -2.3522
  380MOL0     H50136   3.706   6.561   8.343  0.6951 -0.7975  0.0840
  380MOL0     H50137   3.842   6.678   8.383  1.4851  0.3213  2.5288
  380MOL0     H50138   3.654   6.537   8.578 -3.0951  2.2140  2.0803
  380MOL0     H50139   3.801   6.629   8.616  0.2273  0.4760 -1.0387
  380MOL0     H50140   3.544   6.739   8.505 -1.1147  3.7859  0.9179
  380MOL0     H50141   3.695   6.815   8.469 -1.4245 -1.3993 -1.9103
  380MOL0     H50142   4.266   6.500   7.851 -0.8980 -2.9380  1.1253
  380MOL0     H50143   4.321   6.748   7.807  1.6558  2.4289  1.1346
  380MOL0     H50144   4.649   7.225   8.141  2.6137  1.2169  0.5831
  380MOL0     H50145   4.783   7.390   7.996 -1.8160  0.0398  1.8103
  380MOL0     H50146   5.741   7.852   6.672 -0.1289 -0.1791  0.8796
  380MOL0     H50147   5.882   8.020   6.548 -2.5958  1.9495 -1.2444
  380MOL0     H50148   6.371   8.281   6.648  1.7495  0.0489 -1.0248
  380MOL0     H50149   6.489   8.494   6.531 -0.9426  1.6793 -1.0641
  380MOL0     H50150   6.280   8.847   6.450 -1.6002 -1.4572  1.0423
  380MOL0     H50151   6.192   8.755   6.323  0.9130  2.2655 -3.1805
  380MOL0     H50152   6.399   8.759   6.185 -1.3513 -1.0724  0.2490
  380MOL0     H50153   6.293   8.893   6.180 -1.9848  0.3538  1.3604
  380MOL0     H50154   6.549   8.942   6.193 -2.2460  1.4319 -0.4864
  380MOL0     H50155   6.547   8.872   6.365  0.9121  0.8020  0.6218
  380MOL0     H50156   6.364   9.102   6.324 -0.1919  1.9769  4.3393
  380MOL0     H50157   6.451   9.048   6.464  1.7488 -0.5793  0.1460
  380MOL0     H50158   6.698   9.333   6.253  0.7719 -0.5530  1.3035
  380MOL0     H50159   6.090   8.633   6.458  1.8224  4.2077  2.3613
  380MOL0     H50160   5.999   8.464   6.594 -0.2670  1.6378 -0.9222
  381MOL0     O50161   3.282   0.522   6.215  0.7479 -0.3141  0.1223
  381MOL0     C50162   3.351   0.610   6.256 -0.1162 -0.6110 -0.5408
  381MOL0     O50163   3.321   0.687   6.371  0.0570  0.6482  0.5941
  381MOL0     C50164   3.206   0.669   6.444 -0.9952  0.5568 -0.9635
  381MOL0     C50165   3.194   0.759   6.548  0.4443 -0.0158  0.3885
  381MOL0     C50166   3.083   0.756   6.639 -0.6258  0.0380 -0.2439
  381MOL0     C50167   2.981   0.666   6.606 -0.2514  0.5670  0.8692
  381MOL0     O50168   2.875   0.671   6.689 -0.4915 -0.0092  0.5023
  381MOL0     C50169   2.756   0.599   6.665 -0.0662  0.5250  0.1489
  381MOL0     C50170   2.654   0.603   6.781  0.4931 -0.4498  0.4169
  381MOL0     C50171   2.618   0.743   6.825 -0.1465 -0.2682 -0.6266
  381MOL0     C50172   2.501   0.724   6.917  0.8201 -0.0820 -0.1191
  381MOL0     C50173   2.443   0.867   6.953  0.7731  0.6242 -1.1690
  381MOL0     C50174   2.359   0.861   7.082  0.1009  0.1666 -1.2148
  381MOL0     C50175   2.353   0.995   7.152  0.9683 -0.3316 -0.7793
  381MOL0     C50176   2.256   1.000   7.274 -0.3220  0.2630  0.1598
  381MOL0     N50177   2.124   1.049   7.247  0.1430  0.4755 -0.0411
  381MOL0     C50178   2.045   1.002   7.148  0.8170  0.1934  0.5639
  381MOL0     C50179   1.959   1.093   7.128  1.1359 -0.0504  0.4943
  381MOL0     C50180   1.865   1.108   7.015  1.0302  0.5233 -0.5455
  381MOL0     C50181   1.724   1.126   7.068  0.1633  0.9187  0.5650
  381MOL0     C50182   1.633   0.989   7.078 -0.1504 -0.5925 -0.5505
  381MOL0     C50183   1.520   1.007   7.173  0.0385 -0.5838 -0.2456
  381MOL0     O50184   1.447   1.117   7.119  0.7607 -0.2093 -0.0443
  381MOL0     C50185   1.317   1.136   7.164 -0.2649  0.6198  0.7483
  381MOL0     C50186   1.258   1.248   7.114  0.2512 -0.2387 -0.8099
  381MOL0     C50187   1.123   1.267   7.144 -1.2776 -0.3939 -0.4886
  381MOL0     C50188   1.055   1.189   7.238  0.1464 -0.2760 -0.5215
  381MOL0     C50189   0.911   1.206   7.264 -0.3610  1.3382  0.9988
  381MOL0     O50190   0.848   1.121   7.355  0.6319 -0.3760 -0.6737
  381MOL0     C50191   0.715   1.137   7.382  0.0872  0.5912 -0.0088
  381MOL0     C50192   0.640   1.254   7.378 -0.3454 -0.9514  0.1431
  381MOL0     C50193   0.501   1.248   7.385 -0.2567 -0.7981  0.6024
  381MOL0     C50194   0.427   1.126   7.384 -0.1101 -0.5134  0.2226
  381MOL0     O50195   0.286   1.131   7.368 -0.3716 -0.7910  0.0740
  381MOL0     C50196   0.236   1.023   7.290 -0.1627 -0.5566  0.2791
  381MOL0     C50197   0.091   1.042   7.251 -0.8658  0.5061  0.4605
  381MOL0     C50198   0.013   1.113   7.368 -0.1174  1.1147  0.8487
  381MOL0     C50199  -0.134   1.134   7.327  0.4245  0.1892  0.4882
  381MOL0     C50200  -0.200   1.168   7.462  0.1338 -0.5170 -0.4637
  381MOL0     C50201  -0.351   1.198   7.442 -0.0982  1.2646  0.0692
  381MOL0     C50202  -0.422   1.290   7.548  0.3285  0.3300  0.5997
  381MOL0     C50203  -0.480   1.425   7.493  0.5466  0.4180  0.4264
  381MOL0    Cl50204  -0.594   1.399   7.354 -0.2091  0.0341  0.3160
  381MOL0     C50205   0.501   1.009   7.410  0.1738  0.5211 -0.0788
  381MOL0     C50206   0.642   1.017   7.410 -0.0438 -0.7151 -0.2332
  381MOL0     O50207   0.862   1.302   7.210 -0.5417 -1.0052  0.2570
  381MOL0     C50208   1.128   1.088   7.303  0.1005  1.0953  0.1785
  381MOL0     C50209   1.255   1.049   7.258 -0.2601 -0.1668  0.4439
  381MOL0     N50210   1.970   1.194   7.218 -0.5066  0.2726 -0.2880
  381MOL0     N50211   2.072   1.163   7.293  0.2370  0.2465  0.5279
  381MOL0     C50212   2.987   0.569   6.505  0.2512 -0.1990 -0.0921
  381MOL0     C50213   3.103   0.570   6.436 -0.3500  0.8191 -0.0593
  381MOL0     C50214   3.480   0.637   6.194  0.5105  0.4927  0.2364
  381MOL0     C50215   3.575   0.723   6.260  0.4042  0.0557  0.9152
  381MOL0     C50216   3.695   0.745   6.189 -0.4436  1.0704  0.0451
  381MOL0     C50217   3.726   0.690   6.065  0.1683  0.2412  0.1347
  381MOL0     O50218   3.844   0.729   6.011 -0.7965 -0.6221 -0.3409
  381MOL0     C50219   3.933   0.623   5.980  0.3317 -0.0408  0.0501
  381MOL0     C50220   4.042   0.655   5.881 -0.1848 -0.4092 -0.1879
  381MOL0     C50221   4.140   0.540   5.859 -0.5597  0.5012 -0.2417
  381MOL0     C50222   4.222   0.478   5.981  0.7046  0.0298 -0.2346
  381MOL0     C50223   4.305   0.572   6.062  0.0686  0.3297 -1.3303
  381MOL0     C50224   4.370   0.637   6.141 -0.3296 -0.3350 -0.0174
  381MOL0     C50225   3.638   0.593   6.015 -0.2369 -0.9067  0.0326
  381MOL0     C50226   3.514   0.573   6.079 -0.5980  0.8957  0.1702
  381MOL0     H50227   3.269   0.834   6.571  1.3790 -1.3458  1.9564
  381MOL0     H50228   3.076   0.807   6.734  3.9098 -0.4844  0.6069
  381MOL0     H50229   2.774   0.491   6.660 -2.8255  0.0459 -2.2055
  381MOL0     H50230   2.713   0.638   6.572  0.2325 -1.7118 -0.9966
  381MOL0     H50231   2.696   0.534   6.855  0.8107 -0.4585  0.2276
  381MOL0     H50232   2.563   0.556   6.744  2.4369 -3.0802 -1.4050
  381MOL0     H50233   2.596   0.809   6.740  3.7430  2.0999 -0.0357
  381MOL0     H50234   2.698   0.796   6.878 -0.5873  0.1279 -0.3410
  381MOL0     H50235   2.423   0.669   6.863 -1.6865  2.2098  0.9157
  381MOL0     H50236   2.528   0.668   7.007  6.1375  0.0246 -1.3451
  381MOL0     H50237   2.372   0.905   6.878 -0.5383  1.0508  0.2324
  381MOL0     H50238   2.523   0.939   6.967  1.6701 -0.7923  1.6116
  381MOL0     H50239   2.402   0.799   7.161  0.8304 -1.3078 -2.7088
  381MOL0     H50240   2.259   0.824   7.060  0.7051 -2.1924 -0.2963
  381MOL0     H50241   2.450   1.035   7.185  0.9795  0.0033 -1.2093
  381MOL0     H50242   2.325   1.068   7.076  2.9584 -0.5642 -1.7850
  381MOL0     H50243   2.303   1.054   7.357  0.5961  0.2161 -0.3191
  381MOL0     H50244   2.252   0.899   7.315  3.2990 -0.4827 -0.9188
  381MOL0     H50245   2.050   0.902   7.105  1.5881  0.2077  0.6107
  381MOL0     H50246   1.869   1.020   6.950  0.9668  2.6795 -3.7048
  381MOL0     H50247   1.900   1.186   6.947  1.9217 -0.7006 -1.5418
  381MOL0     H50248   1.666   1.196   7.007 -0.1431  0.2072  0.0401
  381MOL0     H50249   1.726   1.166   7.170 -2.1261 -0.2433  1.1145
  381MOL0     H50250   1.592   0.975   6.978  0.1135 -1.7900 -0.5050
  381MOL0     H50251   1.699   0.905   7.104 -0.4529 -0.8487 -0.6168
  381MOL0     H50252   1.553   1.020   7.276  3.9369  0.5045 -1.4414
  381MOL0     H50253   1.458   0.917   7.182 -1.3817  0.3006 -0.9402
  381MOL0     H50254   1.283   1.307   7.027  0.0926 -1.5132 -1.7515
  381MOL0     H50255   1.069   1.353   7.104 -0.8760  1.3526  2.4051
  381MOL0     H50256   0.685   1.353   7.375 -2.0353 -0.1357  0.3595
  381MOL0     H50257   0.446   1.340   7.403 -3.2968 -2.5304  0.7176
  381MOL0     H50258   0.244   0.929   7.344 -0.1484 -1.3389 -1.0506
  381MOL0     H50259   0.300   0.993   7.206 -0.0586 -1.9519  0.8340
  381MOL0     H50260   0.044   0.947   7.228 -2.1364  1.3645 -0.6231
  381MOL0     H50261   0.078   1.106   7.162 -1.2436 -0.1153  0.0650
  381MOL0     H50262   0.060   1.207   7.396 -0.4746  1.1611  1.3121
  381MOL0     H50263   0.016   1.062   7.465 -1.3255  0.5590  0.6190
  381MOL0     H50264  -0.142   1.220   7.260  3.7702 -0.5586 -1.0649
  381MOL0     H50265  -0.181   1.046   7.281  0.1526  1.3562 -1.6196
  381MOL0     H50266  -0.155   1.262   7.494  0.9454 -1.5387  1.5777
  381MOL0     H50267  -0.182   1.089   7.535  1.4098  0.0059 -0.1774
  381MOL0     H50268  -0.399   1.099   7.444  2.3224 -0.2042 -3.8084
  381MOL0     H50269  -0.365   1.247   7.345  1.1251  1.5593  0.0343
  381MOL0     H50270  -0.516   1.245   7.582 -2.3967  2.8085 -2.8196
  381MOL0     H50271  -0.351   1.302   7.630  0.6757  0.1009  0.3384
  381MOL0     H50272  -0.399   1.488   7.453 -0.0186  1.7310  1.2864
  381MOL0     H50273  -0.535   1.484   7.566 -0.7706 -1.1629  0.7528
  381MOL0     H50274   0.453   0.918   7.445  1.7829 -0.9038 -1.4094
  381MOL0     H50275   0.702   0.926   7.409  0.4275 -0.4320 -2.4313
  381MOL0     H50276   1.085   1.021   7.377 -0.3614 -3.5162 -3.7836
  381MOL0     H50277   1.312   0.964   7.294  1.6384 -0.7687 -3.5287
  381MOL0     H50278   2.905   0.504   6.475  0.7833 -0.9505  0.0519
  381MOL0     H50279   3.107   0.487   6.366 -0.9415 -0.2030  1.0819
  381MOL0     H50280   3.549   0.784   6.346 -0.4552  0.9264  0.0565
  381MOL0     H50281   3.772   0.805   6.236  0.7026 -0.4979  0.2287
  381MOL0     H50282   3.876   0.542   5.933 -2.7222  1.6768  0.5546
  381MOL0     H50283   3.974   0.583   6.073  1.4454  2.2840  0.6251
  381MOL0     H50284   4.001   0.675   5.782  1.4387 -0.7335 -0.9603
  381MOL0     H50285   4.106   0.738   5.913  0.3264 -0.6677 -0.5176
  381MOL0     H50286   4.206   0.596   5.791 -0.7336  1.4179  0.3415
  381MOL0     H50287   4.093   0.458   5.803 -2.4584  1.7277 -0.4996
  381MOL0     H50288   4.148   0.429   6.046  2.6398 -2.1781  0.4598
  381MOL0     H50289   4.291   0.406   5.936 -1.4286 -1.8243 -0.7044
  381MOL0     H50290   4.422   0.691   6.217 -3.7460  0.3862  2.0164
  381MOL0     H50291   3.672   0.540   5.927  0.9289 -0.4682  0.2044
  381MOL0     H50292   3.458   0.494   6.031  1.3388 -0.2417 -0.3490
  382MOL0     O50293   1.575   4.194   7.168  0.6374 -0.3333  0.5102
  382MOL0     C50294   1.544   4.294   7.229  0.4932 -1.2690 -0.0093
  382MOL0     O50295   1.534   4.426   7.183 -0.5116 -0.8281 -0.1320
  382MOL0     C50296   1.564   4.435   7.053 -0.2610  0.3831  0.6046
  382MOL0     C50297   1.695   4.464   7.008 -0.2390  1.1852 -0.4861
  382MOL0     C50298   1.728   4.471   6.875 -0.2917 -0.0116  0.8087
  382MOL0     C50299   1.624   4.458   6.776 -0.5809  0.8732 -0.9989
  382MOL0     O50300   1.640   4.449   6.647 -0.3762 -0.4973  0.1561
  382MOL0     C50301   1.770   4.477   6.580 -0.4175 -0.3383 -0.6400
  382MOL0     C50302   1.767   4.425   6.441  0.0870  0.2004  0.5530
  382MOL0     C50303   1.736   4.272   6.440  1.4604  0.1724  0.1974
  382MOL0     C50304   1.738   4.215   6.294 -0.5221  0.6182 -0.1045
  382MOL0     C50305   1.729   4.062   6.291 -0.0485  0.6120  0.2273
  382MOL0     C50306   1.605   4.000   6.346 -0.3164  0.1136  0.1759
  382MOL0     C50307   1.600   3.852   6.287 -1.0358 -1.3836  0.3346
  382MOL0     C50308   1.508   3.766   6.366 -0.0843  0.0777 -0.0482
  382MOL0     N50309   1.481   3.642   6.293  0.7744 -0.2890  0.2623
  382MOL0     C50310   1.397   3.625   6.186 -0.2857  0.3438 -0.2139
  382MOL0     C50311   1.419   3.495   6.158 -0.1989  0.2496 -1.1111
  382MOL0     C50312   1.340   3.428   6.051  0.1680 -1.2953 -0.0208
  382MOL0     C50313   1.191   3.419   6.091  0.3507 -0.8227  0.0464
  382MOL0     C50314   1.127   3.288   6.027 -0.0036 -0.8701  0.2443
  382MOL0     C50315   0.968   3.288   6.054 -0.1206 -0.3339  0.6585
  382MOL0     O50316   0.951   3.246   6.188  0.6450 -0.9207 -0.1505
  382MOL0     C50317   0.885   3.130   6.211  0.1964  0.9686 -0.4750
  382MOL0     C50318   0.852   3.108   6.347  0.2723  0.9434  0.9798
  382MOL0     C50319   0.765   2.997   6.384 -0.3048 -0.5794  0.8491
  382MOL0     C50320   0.713   2.899   6.291 -0.7192 -0.6696  0.2655
  382MOL0     C50321   0.621   2.781   6.319 -0.6761 -0.8848  0.7411
  382MOL0     O50322   0.587   2.705   6.211 -0.1353 -0.1665  0.5732
  382MOL0     C50323   0.510   2.588   6.215 -0.9259 -0.5577 -1.0722
  382MOL0     C50324   0.484   2.518   6.338  0.4865  0.0931  1.3767
  382MOL0     C50325   0.392   2.409   6.339 -0.5849 -0.0967 -0.1143
  382MOL0     C50326   0.331   2.377   6.213  0.0319 -0.1715 -0.1074
  382MOL0     O50327   0.257   2.258   6.229 -0.5000  0.5478  0.0057
  382MOL0     C50328   0.212   2.184   6.122 -0.3250  0.0168 -0.8821
  382MOL0     C50329   0.102   2.105   6.172  0.1120  0.5176 -0.8195
  382MOL0     C50330   0.047   2.011   6.063  0.0948  0.1760 -0.1119
  382MOL0     C50331   0.021   2.071   5.929 -0.0333  0.3661  0.3452
  382MOL0     C50332  -0.076   2.190   5.927  1.0078 -0.4454 -0.1077
  382MOL0     C50333  -0.107   2.218   5.783 -0.3288 -1.0192  0.4398
  382MOL0     C50334  -0.160   2.356   5.739  0.1521  0.2533  0.2032
  382MOL0     C50335  -0.116   2.399   5.601 -1.8171  0.8161  0.0290
  382MOL0    Cl50336  -0.199   2.281   5.490 -0.0175  0.3483 -0.6511
  382MOL0     C50337   0.365   2.443   6.092 -0.3079  0.7569  0.1768
  382MOL0     C50338   0.455   2.552   6.096  0.6982 -0.0059 -1.0345
  382MOL0     O50339   0.572   2.775   6.432 -0.4109 -0.4622  0.6982
  382MOL0     C50340   0.748   2.921   6.153 -0.8093  0.6949 -0.6166
  382MOL0     C50341   0.836   3.027   6.120 -0.7149 -0.5438 -0.6874
  382MOL0     N50342   1.522   3.441   6.230  0.6603  0.3896  0.0133
  382MOL0     N50343   1.559   3.534   6.306  0.1640 -1.3892  0.0945
  382MOL0     C50344   1.496   4.435   6.823  0.2100  0.1221  0.1095
  382MOL0     C50345   1.466   4.422   6.957  1.0412 -0.5481 -0.2220
  382MOL0     C50346   1.506   4.285   7.373  0.8079  0.2094  0.7327
  382MOL0     C50347   1.565   4.186   7.454 -0.5372 -0.5492 -1.4290
  382MOL0     C50348   1.510   4.168   7.585  1.0080  0.0138 -0.3542
  382MOL0     C50349   1.404   4.253   7.628 -0.5246  0.3412  0.0595
  382MOL0     O50350   1.375   4.238   7.759  0.3650  0.1022 -0.7013
  382MOL0     C50351   1.276   4.136   7.791  0.7346 -0.0943 -0.0096
  382MOL0     C50352   1.131   4.201   7.787 -0.7161  0.3581 -0.5081
  382MOL0     C50353   1.125   4.315   7.890 -0.2347  0.6160  1.0111
  382MOL0     C50354   0.987   4.354   7.907  0.8762 -0.3216 -0.2424
  382MOL0     C50355   0.957   4.453   8.012  0.1466  1.1787  0.5139
  382MOL0     C50356   0.904   4.501   8.111 -0.5202  0.2270  0.0960
  382MOL0     C50357   1.362   4.361   7.558 -0.6888 -0.7998  0.7677
  382MOL0     C50358   1.418   4.377   7.425 -0.4012 -0.4031 -0.4559
  382MOL0     H50359   1.775   4.458   7.081 -0.0768 -2.2696 -0.7748
  382MOL0     H50360   1.832   4.499   6.857  0.2663 -2.0524  0.5477
  382MOL0     H50361   1.850   4.427   6.635 -0.5789 -1.8586 -1.7322
  382MOL0     H50362   1.793   4.583   6.587  2.1037 -0.7138 -2.1180
  382MOL0     H50363   1.858   4.439   6.382 -0.4765 -2.3605 -1.0877
  382MOL0     H50364   1.688   4.478   6.389 -0.9730 -3.3042 -1.7989
  382MOL0     H50365   1.637   4.253   6.483  1.8697  0.2767  1.2144
  382MOL0     H50366   1.817   4.223   6.494  2.4056  0.0531 -1.2691
  382MOL0     H50367   1.659   4.257   6.231 -1.3290 -0.8604 -0.1088
  382MOL0     H50368   1.829   4.247   6.242 -2.0771  0.7416 -2.9504
  382MOL0     H50369   1.811   4.011   6.341 -1.3680  0.4815  2.3757
  382MOL0     H50370   1.744   4.046   6.184 -1.2107 -0.4256  0.2011
  382MOL0     H50371   1.522   4.063   6.314  0.7257 -0.3455 -3.9128
  382MOL0     H50372   1.618   4.009   6.455 -1.7650 -0.5504  0.4301
  382MOL0     H50373   1.597   3.865   6.179  1.2730 -0.2426  0.3461
  382MOL0     H50374   1.694   3.797   6.300  0.1371  0.1105 -1.3367
  382MOL0     H50375   1.417   3.823   6.388 -1.4034 -1.6402 -0.7783
  382MOL0     H50376   1.571   3.744   6.453  2.9644  0.3743 -2.0473
  382MOL0     H50377   1.319   3.686   6.142  0.6040  0.3194 -1.8869
  382MOL0     H50378   1.393   3.347   6.001  1.1027  0.6104 -2.2997
  382MOL0     H50379   1.335   3.509   5.978  1.4846  1.8292  3.0532
  382MOL0     H50380   1.141   3.511   6.057  1.7444 -0.7728 -2.0095
  382MOL0     H50381   1.178   3.410   6.200  1.2505 -1.3465  0.1135
  382MOL0     H50382   1.137   3.292   5.918  1.6198 -2.5742  0.2859
  382MOL0     H50383   1.177   3.194   6.051  1.4063 -0.5542 -1.2373
  382MOL0     H50384   0.924   3.215   5.986 -3.1659 -0.8363  2.9596
  382MOL0     H50385   0.907   3.375   6.027  1.3526  0.4648 -0.1980
  382MOL0     H50386   0.902   3.167   6.423 -0.9579  1.2590  1.5880
  382MOL0     H50387   0.740   2.978   6.488 -0.9199  0.0665  0.8347
  382MOL0     H50388   0.549   2.559   6.414  3.9778  3.5103 -2.9374
  382MOL0     H50389   0.373   2.356   6.431  1.3941  3.7006  2.7686
  382MOL0     H50390   0.292   2.126   6.075  0.1295 -0.7965  0.8403
  382MOL0     H50391   0.176   2.260   6.052  0.9927  1.6482  0.1531
  382MOL0     H50392   0.024   2.172   6.208 -0.7061 -2.4882  3.6764
  382MOL0     H50393   0.144   2.051   6.257 -2.9426 -1.6611 -0.5399
  382MOL0     H50394  -0.040   1.960   6.105  1.1471 -1.8783 -0.2671
  382MOL0     H50395   0.123   1.934   6.046  1.0526  1.3439 -1.3634
  382MOL0     H50396   0.124   2.093   5.899  0.1666  1.3801  1.6871
  382MOL0     H50397  -0.015   1.999   5.855 -1.6105  2.0811 -0.6462
  382MOL0     H50398  -0.039   2.287   5.962 -3.8189  1.7180 -0.0586
  382MOL0     H50399  -0.158   2.156   5.991 -0.6206  0.6947 -1.4905
  382MOL0     H50400  -0.174   2.135   5.756 -2.9110  1.3885 -1.1683
  382MOL0     H50401  -0.017   2.199   5.724  0.3388  0.9055  0.7631
  382MOL0     H50402  -0.268   2.349   5.749  0.1899 -1.3381 -0.1293
  382MOL0     H50403  -0.133   2.434   5.811  2.0312  0.5449 -0.7545
  382MOL0     H50404  -0.007   2.388   5.594 -1.4727  1.3379  3.0362
  382MOL0     H50405  -0.144   2.502   5.577  0.5262  0.8138 -3.4700
  382MOL0     H50406   0.322   2.403   6.001 -0.5253 -0.4926  0.8135
  382MOL0     H50407   0.467   2.607   6.004 -0.8991 -2.4089 -2.7956
  382MOL0     H50408   0.711   2.858   6.073 -2.1336  0.4874  0.1340
  382MOL0     H50409   0.860   3.039   6.014  3.4962 -1.0446  0.0488
  382MOL0     H50410   1.414   4.430   6.752  1.6443  0.4120 -1.6683
  382MOL0     H50411   1.367   4.394   6.994  1.6958  0.7417  2.8594
  382MOL0     H50412   1.650   4.132   7.414  1.3158  2.0251 -1.2428
  382MOL0     H50413   1.562   4.093   7.645 -2.5883 -1.4241  1.2931
  382MOL0     H50414   1.285   4.081   7.884  0.6632  1.5030  0.9797
  382MOL0     H50415   1.283   4.064   7.709  0.3194 -0.9254  0.6780
  382MOL0     H50416   1.090   4.242   7.694 -1.0162  1.1290 -0.0438
  382MOL0     H50417   1.062   4.122   7.817  1.6458 -2.1048 -1.1102
  382MOL0     H50418   1.187   4.392   7.841 -1.2914  1.1675  0.5094
  382MOL0     H50419   1.158   4.285   7.990  0.0014  1.9983  1.3820
  382MOL0     H50420   0.944   4.394   7.815 -0.3334  0.9223  0.8305
  382MOL0     H50421   0.923   4.268   7.928 -3.9692  2.2228 -3.0135
  382MOL0     H50422   0.859   4.532   8.202 -0.0754  2.6714 -0.4579
  382MOL0     H50423   1.295   4.439   7.593  1.7717  2.4053 -1.1117
  382MOL0     H50424   1.396   4.463   7.363 -3.4739  0.6795  1.9449
  383MOL0     O50425   7.868   7.706   3.139  0.9836  0.0546 -0.1608
  383MOL0     C50426   7.841   7.643   3.036  0.5301  0.3700 -0.7771
  383MOL0     O50427   7.932   7.597   2.939 -1.4285 -0.0991  0.1486
  383MOL0     C50428   8.065   7.642   2.933  0.6711  0.5862  0.8611
  383MOL0     C50429   8.141   7.719   3.018 -0.0808  0.0582 -0.2226
  383MOL0     C50430   8.283   7.743   3.009  0.2643 -0.2124  0.2135
  383MOL0     C50431   8.349   7.695   2.893 -0.4388  0.9866 -0.0083
  383MOL0     O50432   8.471   7.735   2.844  0.1052  0.1012 -0.0684
  383MOL0     C50433   8.529   7.854   2.906 -0.7332  0.0252  1.2644
  383MOL0     C50434   8.620   7.916   2.788 -0.8376 -0.4898 -0.4078
  383MOL0     C50435   8.719   8.025   2.825  0.2534  0.3277 -0.6013
  383MOL0     C50436   8.828   7.981   2.921 -0.0399  0.0591  0.1888
  383MOL0     C50437   8.913   7.866   2.861  0.6217  0.6845  1.0783
  383MOL0     C50438   9.050   7.856   2.928  0.2271  0.2070 -0.1029
  383MOL0     C50439   9.169   7.809   2.832 -0.0617  0.2624  0.0084
  383MOL0     C50440   9.307   7.807   2.895  0.8749  0.5784  0.9490
  383MOL0     N50441   9.397   7.719   2.829  0.1494 -0.2479  0.5523
  383MOL0     C50442   9.421   7.586   2.868 -0.0541 -0.0334  0.3747
  383MOL0     C50443   9.478   7.533   2.760  0.0087 -0.8119 -0.2507
  383MOL0     C50444   9.506   7.389   2.750 -0.2009  0.2596  0.5007
  383MOL0     C50445   9.635   7.337   2.817  0.4131 -0.2092  0.0783
  383MOL0     C50446   9.650   7.359   2.964 -0.3235 -0.1231  0.4123
  383MOL0     C50447   9.780   7.296   3.022 -0.1557 -1.0178 -0.5371
  383MOL0     O50448   9.770   7.286   3.165 -0.5950  0.0232  0.9602
  383MOL0     C50449   9.811   7.381   3.246 -0.3487 -0.2991  0.1171
  383MOL0     C50450   9.849   7.511   3.212 -0.4576 -0.3899 -0.5679
  383MOL0     C50451   9.889   7.599   3.319 -0.3810  1.1644 -0.2615
  383MOL0     C50452   9.886   7.563   3.451 -0.2220  0.1938 -0.3509
  383MOL0     C50453   9.925   7.655   3.561 -0.0180  0.8203 -0.0174
  383MOL0     O50454  10.014   7.767   3.532  0.2365  0.0614 -0.0144
  383MOL0     C50455  10.069   7.857   3.631 -0.2092  0.4290 -0.1993
  383MOL0     C50456  10.024   7.893   3.757  0.5177  0.5666 -1.1308
  383MOL0     C50457  10.079   7.985   3.844 -0.6736 -0.3398 -0.1605
  383MOL0     C50458  10.204   8.037   3.818  0.4677 -0.2396  0.2934
  383MOL0     O50459  10.253   8.122   3.903  0.3710  0.4094 -0.1123
  383MOL0     C50460  10.356   8.223   3.864 -0.0592  0.8659  0.5824
  383MOL0     C50461  10.374   8.312   3.987 -0.8634 -0.5990  0.2937
  383MOL0     C50462  10.421   8.449   3.938 -0.8363 -0.5243  0.7258
  383MOL0     C50463  10.555   8.456   3.865  0.0255 -0.5711 -1.6716
  383MOL0     C50464  10.668   8.444   3.967 -0.7961 -0.9791 -0.2775
  383MOL0     C50465  10.801   8.503   3.922  0.9064  0.3308 -0.0142
  383MOL0     C50466  10.794   8.655   3.910  0.2556  0.7710 -0.4461
  383MOL0     C50467  10.933   8.708   3.886  0.0270 -0.7764  0.9211
  383MOL0    Cl50468  11.030   8.705   4.032  0.1117 -0.2497  0.2077
  383MOL0     C50469  10.269   8.002   3.693  0.1122 -0.8172 -0.2300
  383MOL0     C50470  10.199   7.913   3.609  0.1735 -0.4324  0.6780
  383MOL0     O50471   9.885   7.625   3.675  0.6212  0.2823  0.5052
  383MOL0     C50472   9.844   7.435   3.485 -0.2342  0.3915  0.9327
  383MOL0     C50473   9.801   7.353   3.381  0.4186  0.7345 -0.2413
  383MOL0     N50474   9.489   7.630   2.661 -0.6321  0.5540  0.3282
  383MOL0     N50475   9.445   7.748   2.707 -0.6040 -0.4020  0.9385
  383MOL0     C50476   8.273   7.612   2.808 -0.4717 -0.7275 -0.1236
  383MOL0     C50477   8.137   7.585   2.826 -0.5075 -0.1763 -0.4624
  383MOL0     C50478   7.697   7.603   3.010 -0.2741  0.3623  0.4751
  383MOL0     C50479   7.653   7.505   2.922  0.0095  0.4286  1.2422
  383MOL0     C50480   7.522   7.490   2.897  0.3809 -0.0473 -1.1202
  383MOL0     C50481   7.424   7.562   2.966 -0.1102  0.5345  1.0583
  383MOL0     O50482   7.293   7.548   2.948 -1.0361 -0.5427 -0.4837
  383MOL0     C50483   7.242   7.444   2.859 -0.1151  0.1774 -0.0292
  383MOL0     C50484   7.106   7.403   2.905  0.5149 -0.0786 -0.2760
  383MOL0     C50485   6.994   7.512   2.895  0.1839 -0.5740 -0.5664
  383MOL0     C50486   6.859   7.465   2.945  0.1977  0.3896  0.9587
  383MOL0     C50487   6.857   7.413   3.081 -0.4409 -0.3564 -0.6713
  383MOL0     C50488   6.870   7.391   3.200  0.8160 -0.6289 -0.2578
  383MOL0     C50489   7.473   7.666   3.049 -0.3458  0.2619  0.3610
  383MOL0     C50490   7.605   7.686   3.070  0.1735  0.4532  0.9104
  383MOL0     H50491   8.084   7.768   3.096  1.6518  1.0920  0.4671
  383MOL0     H50492   8.335   7.810   3.077 -0.8138 -0.7626  1.6506
  383MOL0     H50493   8.590   7.821   2.991  0.7752  1.3971  0.7690
  383MOL0     H50494   8.471   7.935   2.951 -1.5428  2.0857 -3.0067
  383MOL0     H50495   8.562   7.958   2.705  0.5292  2.2926 -0.0735
  383MOL0     H50496   8.674   7.836   2.736 -0.3358  0.6685 -1.7365
  383MOL0     H50497   8.658   8.104   2.869 -3.4337 -3.0773  1.0145
  383MOL0     H50498   8.760   8.066   2.732 -0.1140 -2.6095 -2.1717
  383MOL0     H50499   8.899   8.064   2.930  1.3514 -1.0951  0.0608
  383MOL0     H50500   8.789   7.951   3.019 -2.9392  0.2784 -0.8137
  383MOL0     H50501   8.935   7.878   2.755  2.3678  2.3450  1.5565
  383MOL0     H50502   8.859   7.775   2.886  1.2121  0.2068  0.6216
  383MOL0     H50503   9.035   7.809   3.026  0.4374  0.1148 -0.1136
  383MOL0     H50504   9.079   7.955   2.965 -1.3838  0.9995 -0.9024
  383MOL0     H50505   9.147   7.710   2.792  0.0608  0.7294 -1.2514
  383MOL0     H50506   9.167   7.883   2.752  0.5712  0.9237  0.5909
  383MOL0     H50507   9.307   7.765   2.996 -1.2512 -1.6313  0.1246
  383MOL0     H50508   9.347   7.909   2.907  2.8002  0.5910 -3.6017
  383MOL0     H50509   9.389   7.533   2.958 -0.3664  1.0001  0.8898
  383MOL0     H50510   9.521   7.381   2.642  2.4915  1.1959  0.7501
  383MOL0     H50511   9.417   7.339   2.791 -1.8202  1.6679 -1.1291
  383MOL0     H50512   9.715   7.369   2.751 -0.6330  0.5651 -0.8628
  383MOL0     H50513   9.641   7.228   2.807  2.4139 -0.3312  2.0243
  383MOL0     H50514   9.643   7.467   2.979 -2.0884  0.0148 -1.1066
  383MOL0     H50515   9.561   7.314   3.009  0.4105 -2.4321 -0.3278
  383MOL0     H50516   9.863   7.360   2.990 -0.2643 -1.6732 -2.2782
  383MOL0     H50517   9.797   7.198   2.976 -0.2880 -0.1239 -2.5866
  383MOL0     H50518   9.850   7.556   3.114 -1.5954  3.9410  1.1780
  383MOL0     H50519   9.918   7.702   3.301  2.0125  0.3818 -1.2364
  383MOL0     H50520   9.934   7.852   3.802  0.8323  1.0721 -0.0181
  383MOL0     H50521  10.042   8.004   3.944  0.3458 -2.2333  0.6446
  383MOL0     H50522  10.323   8.269   3.770  0.0086  1.2549  0.7473
  383MOL0     H50523  10.448   8.166   3.854 -0.3849  0.2768  0.8790
  383MOL0     H50524  10.429   8.268   4.071 -1.8720  2.2146  2.6016
  383MOL0     H50525  10.274   8.324   4.030 -1.1995 -4.9005  1.2402
  383MOL0     H50526  10.417   8.519   4.022  1.1054 -1.0977  1.3317
  383MOL0     H50527  10.339   8.483   3.874  2.3072  1.7840 -2.4362
  383MOL0     H50528  10.571   8.383   3.784  3.4176 -2.4000  0.3922
  383MOL0     H50529  10.557   8.557   3.822 -2.6107  0.6692  0.8258
  383MOL0     H50530  10.670   8.340   3.999 -1.7996 -0.6816  0.8290
  383MOL0     H50531  10.641   8.503   4.055 -0.6155  1.2400 -1.6397
  383MOL0     H50532  10.802   8.465   3.820 -1.0596  0.5785 -0.1647
  383MOL0     H50533  10.888   8.472   3.982  0.9481  0.1626 -0.1617
  383MOL0     H50534  10.748   8.685   3.816  0.9036  1.3094 -0.6029
  383MOL0     H50535  10.748   8.711   3.992 -2.2188 -1.5617 -0.1126
  383MOL0     H50536  10.933   8.808   3.842  1.7970 -0.9203  0.5154
  383MOL0     H50537  10.978   8.656   3.801 -1.3137 -0.4348 -0.0415
  383MOL0     H50538  10.365   8.045   3.669  0.7435  1.2495  4.6809
  383MOL0     H50539  10.244   7.901   3.511 -0.4603 -2.1707  0.5722
  383MOL0     H50540   9.844   7.405   3.589  1.6899  0.2144  0.9256
  383MOL0     H50541   9.762   7.255   3.403  0.4519  0.8934  0.5640
  383MOL0     H50542   8.328   7.581   2.719  0.9134  3.0366 -0.7408
  383MOL0     H50543   8.079   7.527   2.755  0.6745 -0.5763 -1.1178
  383MOL0     H50544   7.731   7.445   2.876 -1.4161  0.4490 -1.3577
  383MOL0     H50545   7.494   7.421   2.818  0.4572 -2.0432  0.5005
  383MOL0     H50546   7.310   7.358   2.854  2.7529  2.3216 -0.7642
  383MOL0     H50547   7.242   7.482   2.756 -0.2934  1.8410  0.5589
  383MOL0     H50548   7.063   7.331   2.834 -2.1382 -0.4857  1.5785
  383MOL0     H50549   7.104   7.363   3.007 -0.1178  1.8502  0.5171
  383MOL0     H50550   6.980   7.551   2.794  1.1420  1.9820  0.2211
  383MOL0     H50551   7.031   7.601   2.946 -1.5660  1.0464 -2.0268
  383MOL0     H50552   6.786   7.546   2.937 -1.2601 -1.0050 -1.9176
  383MOL0     H50553   6.822   7.382   2.883  0.3417  0.8738  0.2087
  383MOL0     H50554   6.872   7.392   3.307  3.4016  2.7332 -0.1695
  383MOL0     H50555   7.406   7.745   3.082  0.8253  0.2460  3.0194
  383MOL0     H50556   7.632   7.773   3.129 -1.5935  0.3799  1.9008
  384MOL0     O50557   3.915   9.609   2.020 -0.1674 -0.1265 -0.4432
  384MOL0     C50558   3.921   9.698   2.113 -0.9061  0.4728  0.3046
  384MOL0     O50559   3.974   9.823   2.106 -0.2584  0.8589  0.4325
  384MOL0     C50560   4.018   9.878   1.992  0.5906 -0.3688 -0.3308
  384MOL0     C50561   4.150   9.925   1.985  0.3479 -0.3397 -0.4446
  384MOL0     C50562   4.208   9.963   1.865  0.1120 -0.7034 -0.1241
  384MOL0     C50563   4.125   9.994   1.763 -0.0447  0.1537 -0.4566
  384MOL0     O50564   4.172  10.042   1.646  1.6509 -0.4603 -0.8335
  384MOL0     C50565   4.157  10.184   1.628 -1.0326 -0.1224  0.3709
  384MOL0     C50566   4.246  10.231   1.513  0.4296 -0.6461  0.6651
  384MOL0     C50567   4.212  10.372   1.453 -0.3588  0.4507  0.4705
  384MOL0     C50568   4.261  10.395   1.311  1.2178 -0.0965 -0.2560
  384MOL0     C50569   4.399  10.351   1.271 -0.6356  0.2018  0.2555
  384MOL0     C50570   4.437  10.395   1.137 -0.4219 -0.1644  0.8923
  384MOL0     C50571   4.458  10.552   1.129  0.1673 -0.0971 -0.4497
  384MOL0     C50572   4.467  10.606   0.985 -0.9134  0.0245 -0.2426
  384MOL0     N50573   4.580  10.549   0.915 -1.3155  0.4049  0.1007
  384MOL0     C50574   4.704  10.607   0.905  0.0263 -0.5164 -0.2052
  384MOL0     C50575   4.790  10.521   0.837  0.1990  0.4109 -0.2321
  384MOL0     C50576   4.944  10.544   0.836  0.0146  0.0003  0.3953
  384MOL0     C50577   5.013  10.506   0.701  0.8993  0.7638  0.8344
  384MOL0     C50578   5.164  10.481   0.705 -0.1111 -0.6981  0.2105
  384MOL0     C50579   5.220  10.462   0.561  0.2279  0.0578 -0.8260
  384MOL0     O50580   5.217  10.591   0.500 -0.1719 -0.1090  1.4531
  384MOL0     C50581   5.255  10.608   0.373 -0.3852 -0.0829 -0.9769
  384MOL0     C50582   5.246  10.734   0.324  0.5001 -0.7877  0.7425
  384MOL0     C50583   5.281  10.759   0.188  0.6610 -1.2948  0.5650
  384MOL0     C50584   5.327  10.661   0.107 -0.3785  1.0613 -0.2067
  384MOL0     C50585   5.374  10.693  -0.023 -0.2363  0.2470  1.2870
  384MOL0     O50586   5.353  10.822  -0.072  0.8021 -0.2075 -0.1683
  384MOL0     C50587   5.376  10.854  -0.203 -1.2317  0.1118  0.5979
  384MOL0     C50588   5.280  10.866  -0.299 -0.0135  0.8669 -0.2370
  384MOL0     C50589   5.310  10.919  -0.430 -0.1683 -1.1511  0.1648
  384MOL0     C50590   5.448  10.931  -0.478  0.0326 -0.5335 -0.0384
  384MOL0     O50591   5.467  10.988  -0.601  0.2683  0.7885  0.7090
  384MOL0     C50592   5.591  11.014  -0.660  0.0522  0.1850  0.2429
  384MOL0     C50593   5.629  11.166  -0.647  0.2341 -0.0779  1.3728
  384MOL0     C50594   5.537  11.260  -0.714  0.3380 -0.4256  0.7780
  384MOL0     C50595   5.526  11.241  -0.870  0.4727 -0.8585 -0.0321
  384MOL0     C50596   5.452  11.359  -0.933  0.3027  0.5616 -0.1623
  384MOL0     C50597   5.433  11.360  -1.086  0.5068  0.6507 -0.4806
  384MOL0     C50598   5.354  11.473  -1.137 -0.4111  0.4757 -0.2829
  384MOL0     C50599   5.454  11.556  -1.226  0.2297  0.3555  0.1367
  384MOL0    Cl50600   5.546  11.661  -1.121 -0.1617  0.0498  0.4297
  384MOL0     C50601   5.539  10.895  -0.387 -0.3138 -0.8109 -0.1302
  384MOL0     C50602   5.509  10.874  -0.248 -0.0344  0.4503  1.4560
  384MOL0     O50603   5.428  10.600  -0.081 -0.2975 -0.2551  0.6228
  384MOL0     C50604   5.342  10.525   0.161 -0.3063 -0.4630 -0.9449
  384MOL0     C50605   5.293  10.502   0.294  0.2531  0.1389  0.3540
  384MOL0     N50606   4.713  10.411   0.807 -0.0275  0.0576 -0.5687
  384MOL0     N50607   4.593  10.425   0.856 -0.6180 -0.2469 -0.1863
  384MOL0     C50608   3.987   9.961   1.763  0.1613 -0.6752 -0.0604
  384MOL0     C50609   3.929   9.903   1.879 -0.8598  0.0185 -0.1190
  384MOL0     C50610   3.868   9.655   2.249  0.0427 -0.5360  0.8006
  384MOL0     C50611   3.896   9.734   2.359  1.2212 -0.3434 -0.4430
  384MOL0     C50612   3.841   9.716   2.485  0.3933  0.4370 -0.2218
  384MOL0     C50613   3.755   9.603   2.511  0.5153 -0.2328  0.1430
  384MOL0     O50614   3.703   9.570   2.640 -1.1529  0.6878  0.3789
  384MOL0     C50615   3.628   9.669   2.698 -0.6191 -0.6124 -0.2665
  384MOL0     C50616   3.549   9.615   2.805 -0.3783  0.1521 -0.0348
  384MOL0     C50617   3.630   9.561   2.915 -0.1936 -0.0811 -0.6520
  384MOL0     C50618   3.543   9.475   3.008 -0.1268  0.3285  0.2866
  384MOL0     C50619   3.607   9.461   3.138 -0.8242 -0.5573 -0.2521
  384MOL0     C50620   3.663   9.450   3.248 -0.0700 -0.6029  0.3822
  384MOL0     C50621   3.741   9.509   2.408  1.5827 -0.6483 -0.3749
  384MOL0     C50622   3.791   9.533   2.275  0.1108 -0.2285 -0.2346
  384MOL0     H50623   4.213   9.935   2.073 -1.5303  4.2798  0.6698
  384MOL0     H50624   4.314   9.989   1.861 -0.0745 -0.0229 -0.9195
  384MOL0     H50625   4.203  10.228   1.717 -0.2471  0.7781 -0.4575
  384MOL0     H50626   4.050  10.206   1.623 -1.3902 -1.3222  2.0200
  384MOL0     H50627   4.224  10.167   1.427  0.0620 -0.4840  0.6337
  384MOL0     H50628   4.352  10.212   1.532  0.5478 -5.4572 -3.1281
  384MOL0     H50629   4.249  10.440   1.531 -1.2268  0.9078  0.5042
  384MOL0     H50630   4.103  10.388   1.455 -0.6539 -1.3687  1.0453
  384MOL0     H50631   4.185  10.357   1.242  1.4447  1.0075 -1.1434
  384MOL0     H50632   4.249  10.504   1.303 -1.8718 -0.1576  1.9053
  384MOL0     H50633   4.402  10.242   1.276  2.9015  0.1581 -0.4698
  384MOL0     H50634   4.473  10.385   1.345  3.3935 -1.4471 -2.6608
  384MOL0     H50635   4.364  10.360   1.064 -1.8864 -3.8524  3.7874
  384MOL0     H50636   4.528  10.344   1.104 -0.6107 -1.6129  2.4433
  384MOL0     H50637   4.370  10.605   1.166 -0.1781 -0.9761  0.0299
  384MOL0     H50638   4.548  10.579   1.185  0.1137 -2.0417  0.6786
  384MOL0     H50639   4.486  10.714   0.992  1.7277 -0.5148  3.2823
  384MOL0     H50640   4.383  10.583   0.918 -0.4496 -5.8863  0.6594
  384MOL0     H50641   4.741  10.698   0.952  1.5212 -1.3548  0.2830
  384MOL0     H50642   4.982  10.470   0.907 -1.0486  0.2528  1.2602
  384MOL0     H50643   4.976  10.647   0.856  1.8163 -0.0526 -1.8800
  384MOL0     H50644   4.988  10.588   0.633 -4.1610  0.4759  1.9422
  384MOL0     H50645   4.963  10.428   0.643 -1.5777  2.6606  0.2297
  384MOL0     H50646   5.211  10.571   0.746 -1.2347  0.1875 -0.3748
  384MOL0     H50647   5.189  10.391   0.761  2.0384  0.2207  0.8347
  384MOL0     H50648   5.181  10.369   0.518  1.8585 -0.5670 -1.0474
  384MOL0     H50649   5.325  10.436   0.579  0.0791  0.5780  0.9873
  384MOL0     H50650   5.213  10.799   0.404  0.1075 -0.2145  0.1257
  384MOL0     H50651   5.295  10.861   0.156  1.3630 -1.1432  1.2995
  384MOL0     H50652   5.179  10.831  -0.279 -0.1242  0.7509 -0.9852
  384MOL0     H50653   5.224  10.942  -0.491 -0.1309 -2.1981 -0.3141
  384MOL0     H50654   5.579  10.999  -0.768 -2.0198 -0.5144  0.5333
  384MOL0     H50655   5.672  10.953  -0.619 -0.2991  0.7241  1.7886
  384MOL0     H50656   5.733  11.170  -0.681 -0.7694  2.0605 -1.8342
  384MOL0     H50657   5.620  11.186  -0.540  0.6133 -2.8456  1.9977
  384MOL0     H50658   5.578  11.358  -0.688 -3.5144  1.0879  1.9448
  384MOL0     H50659   5.439  11.263  -0.665  0.0163  2.5386  0.1355
  384MOL0     H50660   5.627  11.228  -0.910  0.9430 -2.3647  1.5146
  384MOL0     H50661   5.482  11.144  -0.894  2.4353 -2.5687  2.6787
  384MOL0     H50662   5.500  11.452  -0.901  0.9796 -0.6814  2.7843
  384MOL0     H50663   5.351  11.349  -0.894  1.2066 -3.8803  1.6317
  384MOL0     H50664   5.378  11.268  -1.109 -1.6881  1.3466  1.5255
  384MOL0     H50665   5.533  11.353  -1.130  0.6722  1.1706 -0.1905
  384MOL0     H50666   5.274  11.441  -1.205 -2.8121  0.4458  2.3471
  384MOL0     H50667   5.304  11.529  -1.057 -0.3786 -0.1236  0.1680
  384MOL0     H50668   5.389  11.615  -1.292 -0.5457 -0.7973 -0.1647
  384MOL0     H50669   5.516  11.495  -1.292  0.6117  0.7680  0.1057
  384MOL0     H50670   5.644  10.913  -0.406 -0.2453 -0.0003  0.9461
  384MOL0     H50671   5.592  10.880  -0.178  2.2300 -0.9302 -0.9085
  384MOL0     H50672   5.395  10.451   0.101 -1.5231 -3.0804  1.0014
  384MOL0     H50673   5.291  10.401   0.334 -2.2504  0.9652  2.6797
  384MOL0     H50674   3.934   9.991   1.674 -0.7639  1.2678  1.0657
  384MOL0     H50675   3.823   9.882   1.890 -0.5104 -0.8443  2.1826
  384MOL0     H50676   3.953   9.826   2.357 -1.1954  1.2288 -1.4425
  384MOL0     H50677   3.862   9.788   2.563  2.4482  2.8821 -2.8386
  384MOL0     H50678   3.569   9.707   2.614  2.2726  1.4114 -1.5681
  384MOL0     H50679   3.695   9.747   2.734  1.5963 -2.9688  1.0874
  384MOL0     H50680   3.501   9.695   2.861  0.3817  0.3645  0.3237
  384MOL0     H50681   3.481   9.542   2.760  0.0909 -1.2881  1.5000
  384MOL0     H50682   3.677   9.646   2.965  1.2406 -1.3093  0.1517
  384MOL0     H50683   3.716   9.503   2.881  2.1353  2.2766  0.8032
  384MOL0     H50684   3.439   9.506   3.024 -0.8466 -2.9207  3.0221
  384MOL0     H50685   3.547   9.370   2.979  2.8177  0.0962  1.2232
  384MOL0     H50686   3.718   9.447   3.340  1.1877 -0.6244 -0.3346
  384MOL0     H50687   3.670   9.433   2.437 -0.1458  1.2116  0.5626
  384MOL0     H50688   3.769   9.466   2.193  0.2245  0.7928 -1.1284
  385MOL0     O50689   4.150   3.011  10.471 -0.0124  0.6332 -0.7644
  385MOL0     C50690   4.132   3.131  10.475 -0.4508 -0.2021  0.2696
  385MOL0     O50691   4.089   3.209  10.377 -0.6080  0.6387  0.3693
  385MOL0     C50692   4.064   3.155  10.253 -0.9685 -0.6204  0.1075
  385MOL0     C50693   4.153   3.066  10.189 -1.2317 -0.2675  1.1746
  385MOL0     C50694   4.114   3.026  10.051 -0.5314 -0.3292 -0.6087
  385MOL0     C50695   4.010   3.078   9.979 -0.8927 -0.8397  0.5529
  385MOL0     O50696   3.956   3.038   9.857  0.0450 -0.2044  0.5880
  385MOL0     C50697   4.041   2.989   9.756 -0.1324  0.0062  0.3678
  385MOL0     C50698   3.945   2.976   9.633 -0.6568 -0.1250  0.0830
  385MOL0     C50699   3.819   2.888   9.640 -0.0612  0.8560  0.0290
  385MOL0     C50700   3.846   2.741   9.678  0.2662  0.2030 -0.5703
  385MOL0     C50701   3.730   2.655   9.669 -0.6538  0.0602  0.3337
  385MOL0     C50702   3.759   2.519   9.728  0.7369  0.2978 -0.0952
  385MOL0     C50703   3.851   2.414   9.665  0.2157  0.0943 -0.2420
  385MOL0     C50704   3.993   2.416   9.726  0.0028 -0.1934 -0.8626
  385MOL0     N50705   4.085   2.508   9.659  0.6550 -0.5689  0.1952
  385MOL0     C50706   4.112   2.531   9.525  1.0661 -0.0685  0.0666
  385MOL0     C50707   4.202   2.627   9.515  0.1846  0.3536  0.4144
  385MOL0     C50708   4.240   2.695   9.383  0.1139 -0.2890 -0.7780
  385MOL0     C50709   4.389   2.694   9.367 -0.3712 -0.2574  0.4078
  385MOL0     C50710   4.460   2.782   9.269 -0.2050  0.7118  0.4422
  385MOL0     C50711   4.392   2.778   9.136  0.4663  0.1043  0.8086
  385MOL0     O50712   4.425   2.671   9.047 -1.0073 -0.1299 -0.2646
  385MOL0     C50713   4.360   2.552   9.057  0.6304 -0.5243  0.0368
  385MOL0     C50714   4.449   2.455   9.059 -0.5480 -0.5987 -0.0547
  385MOL0     C50715   4.407   2.324   9.078  0.1234 -0.4904  0.6978
  385MOL0     C50716   4.267   2.290   9.089  0.9148  0.0296  0.3623
  385MOL0     C50717   4.215   2.149   9.100  0.1288  1.2098 -0.3447
  385MOL0     O50718   4.310   2.049   9.074 -0.4135  0.2459  0.7025
  385MOL0     C50719   4.301   1.926   9.127 -0.7514 -0.5879  0.3004
  385MOL0     C50720   4.228   1.892   9.244  1.1378  0.5786 -0.4400
  385MOL0     C50721   4.234   1.760   9.303  0.1838 -0.6431  0.2143
  385MOL0     C50722   4.313   1.668   9.240  0.8060  1.0693  0.2874
  385MOL0     O50723   4.339   1.543   9.298  0.0295 -0.9280 -0.0962
  385MOL0     C50724   4.358   1.538   9.445  0.0478  0.1007  0.1956
  385MOL0     C50725   4.259   1.437   9.500 -0.5826  0.4000  0.6308
  385MOL0     C50726   4.261   1.429   9.657  0.1584  0.0975  0.4018
  385MOL0     C50727   4.397   1.378   9.704 -0.1659  0.4015 -0.0997
  385MOL0     C50728   4.372   1.358   9.855 -0.2613 -0.2797  0.9816
  385MOL0     C50729   4.498   1.329   9.946 -0.2075  0.1323  0.2223
  385MOL0     C50730   4.621   1.407   9.934 -0.2944 -0.6911 -0.8534
  385MOL0     C50731   4.739   1.337   9.990 -0.5551  0.3856 -0.6391
  385MOL0    Cl50732   4.712   1.308  10.162 -0.3914  0.1739 -0.0242
  385MOL0     C50733   4.379   1.695   9.120 -0.1700 -0.8591  0.1387
  385MOL0     C50734   4.384   1.825   9.069 -0.2521  0.3463  0.4449
  385MOL0     O50735   4.094   2.135   9.129  0.2400 -0.1878  1.1273
  385MOL0     C50736   4.180   2.400   9.082  0.9757 -0.4574  0.9674
  385MOL0     C50737   4.224   2.531   9.069 -0.3240 -0.5566 -0.1671
  385MOL0     N50738   4.236   2.662   9.645  0.6931  0.7471  0.5466
  385MOL0     N50739   4.175   2.591   9.725  0.8750 -0.0552 -0.2390
  385MOL0     C50740   3.935   3.176  10.046  0.0415  0.1745  1.0374
  385MOL0     C50741   3.960   3.215  10.179  0.2748 -0.8322 -0.4875
  385MOL0     C50742   4.173   3.207  10.590 -0.1864  0.5011 -0.0630
  385MOL0     C50743   4.231   3.151  10.702  0.2976 -0.5280  0.2539
  385MOL0     C50744   4.267   3.220  10.819 -0.9949 -0.1609  0.8338
  385MOL0     C50745   4.257   3.354  10.817 -0.1888 -0.2036  0.3916
  385MOL0     O50746   4.268   3.401  10.948 -0.6190  0.0468 -0.0042
  385MOL0     C50747   4.285   3.541  10.952 -0.7545 -0.2244  0.1078
  385MOL0     C50748   4.292   3.604  11.092 -0.0373 -1.1123 -0.6563
  385MOL0     C50749   4.322   3.760  11.089 -0.3139 -0.1762 -0.1680
  385MOL0     C50750   4.368   3.821  11.232 -0.5797 -0.2876  0.6483
  385MOL0     C50751   4.404   3.962  11.224 -0.7684 -0.3065 -0.1642
  385MOL0     C50752   4.420   4.079  11.222 -0.0688 -0.0937  0.9873
  385MOL0     C50753   4.206   3.422  10.705  0.6140 -0.4914 -0.1638
  385MOL0     C50754   4.167   3.348  10.593  0.1401  0.6088  0.1397
  385MOL0     H50755   4.234   3.014  10.239  0.0311  0.8850  0.4051
  385MOL0     H50756   4.184   2.956  10.007  2.3856  2.5475 -0.9766
  385MOL0     H50757   4.087   2.896   9.792  4.3918  1.2237 -1.5600
  385MOL0     H50758   4.126   3.058   9.751 -0.1484  0.3769  3.3339
  385MOL0     H50759   4.006   2.939   9.550 -3.1054 -0.5321 -1.6442
  385MOL0     H50760   3.909   3.073   9.595 -0.0368 -0.7810 -2.3831
  385MOL0     H50761   3.779   2.893   9.538  3.2808  0.8076 -1.4241
  385MOL0     H50762   3.742   2.934   9.702  0.6598 -0.3825  1.9175
  385MOL0     H50763   3.919   2.694   9.611  0.1337 -1.2864  0.3047
  385MOL0     H50764   3.889   2.742   9.779 -0.3485  1.3240 -0.2993
  385MOL0     H50765   3.702   2.634   9.566  2.4523 -3.3090 -0.0474
  385MOL0     H50766   3.633   2.688   9.706 -2.2333 -2.7680 -0.9395
  385MOL0     H50767   3.659   2.477   9.717 -0.7543  3.7814 -1.3600
  385MOL0     H50768   3.777   2.527   9.836  0.2993  0.6211 -0.0438
  385MOL0     H50769   3.804   2.316   9.675  2.2642 -1.0480 -1.1224
  385MOL0     H50770   3.864   2.434   9.559 -0.8966  3.6036  0.1479
  385MOL0     H50771   4.046   2.321   9.717  2.1763  0.8295  0.2840
  385MOL0     H50772   3.997   2.436   9.834  0.8401 -0.3209 -0.8569
  385MOL0     H50773   4.066   2.502   9.431 -1.1493 -0.4163  1.1846
  385MOL0     H50774   4.202   2.797   9.379 -1.3666 -0.7525  0.5497
  385MOL0     H50775   4.192   2.643   9.300 -1.0271  1.5897 -1.3567
  385MOL0     H50776   4.413   2.597   9.324 -0.0098  0.4627 -1.0676
  385MOL0     H50777   4.435   2.713   9.465  0.1572 -0.6125  0.2348
  385MOL0     H50778   4.445   2.887   9.297 -0.7054  0.8691 -0.3853
  385MOL0     H50779   4.568   2.764   9.267 -0.2529 -0.1279 -3.8986
  385MOL0     H50780   4.430   2.868   9.087 -0.3005 -0.8826 -1.7634
  385MOL0     H50781   4.284   2.794   9.146  1.0303  4.6458  1.9294
  385MOL0     H50782   4.557   2.468   9.057 -0.2541 -2.6336 -2.4928
  385MOL0     H50783   4.486   2.253   9.099  1.0028 -0.2880 -1.5930
  385MOL0     H50784   4.163   1.971   9.282  0.8332 -0.0455  0.3728
  385MOL0     H50785   4.167   1.732   9.383  1.6888 -1.8004  1.1237
  385MOL0     H50786   4.358   1.639   9.487 -1.5652  1.7710 -3.3448
  385MOL0     H50787   4.459   1.497   9.447  0.5831  0.6680 -4.1355
  385MOL0     H50788   4.284   1.338   9.462 -2.6570 -0.8423  2.2472
  385MOL0     H50789   4.156   1.456   9.466  0.3039 -0.0826 -2.6693
  385MOL0     H50790   4.168   1.388   9.696 -0.8460  1.1894 -0.7394
  385MOL0     H50791   4.254   1.538   9.669  0.0045  0.1943 -0.4532
  385MOL0     H50792   4.417   1.282   9.655 -1.5463  1.6610 -3.4268
  385MOL0     H50793   4.485   1.440   9.683  1.0904 -0.9600  0.9762
  385MOL0     H50794   4.309   1.268   9.856 -0.9125  0.1721  1.8444
  385MOL0     H50795   4.298   1.429   9.893 -2.6225 -2.1621  0.1591
  385MOL0     H50796   4.529   1.227   9.920  2.3571  0.0918  2.9616
  385MOL0     H50797   4.469   1.347  10.050  2.9241  2.4927  0.8188
  385MOL0     H50798   4.640   1.421   9.827  2.8747  1.7317 -0.1351
  385MOL0     H50799   4.600   1.501   9.985  0.8653 -0.2921 -1.0793
  385MOL0     H50800   4.833   1.392   9.983  1.5478 -2.5967  1.6077
  385MOL0     H50801   4.741   1.245   9.930 -2.2192  1.0643 -1.8135
  385MOL0     H50802   4.446   1.621   9.076  0.0241 -1.5210  1.5010
  385MOL0     H50803   4.463   1.820   8.995  0.8108 -0.0381  1.5611
  385MOL0     H50804   4.074   2.379   9.069  1.8494 -3.9142 -2.1767
  385MOL0     H50805   4.168   2.622   9.056  1.7597  0.8222 -0.0014
  385MOL0     H50806   3.864   3.233   9.987  0.2570  0.4985  1.0916
  385MOL0     H50807   3.906   3.293  10.232 -2.7320 -1.3979 -2.4893
  385MOL0     H50808   4.245   3.044  10.705  0.8048 -0.4445  2.6245
  385MOL0     H50809   4.314   3.162  10.898 -0.1083 -1.0687 -0.3119
  385MOL0     H50810   4.204   3.582  10.890 -4.5558 -3.5711  2.4001
  385MOL0     H50811   4.384   3.565  10.913 -0.9156  0.4944  0.1278
  385MOL0     H50812   4.201   3.590  11.151 -0.8044  0.9124 -1.2631
  385MOL0     H50813   4.362   3.549  11.154 -0.1366  1.2357  1.7056
  385MOL0     H50814   4.227   3.801  11.052 -0.8917 -0.0866  1.3411
  385MOL0     H50815   4.397   3.775  11.011 -0.0306  0.0240  0.1400
  385MOL0     H50816   4.291   3.803  11.307 -0.9604  0.1699  0.3717
  385MOL0     H50817   4.450   3.759  11.268 -2.7098 -2.1412  2.6351
  385MOL0     H50818   4.421   4.184  11.204 -2.4655 -0.3790 -1.3315
  385MOL0     H50819   4.204   3.529  10.687  0.5143 -0.5322 -0.3931
  385MOL0     H50820   4.133   3.392  10.500  1.4873  1.9565  0.2572
  386MOL0     O50821   6.178   5.999  10.596  0.3035 -1.1071 -0.6543
  386MOL0     C50822   6.265   5.980  10.681  1.1080  0.7732 -0.0730
  386MOL0     O50823   6.397   6.041  10.686  1.0356 -0.2867 -0.0695
  386MOL0     C50824   6.433   6.126  10.580 -0.1324  0.2606  0.5075
  386MOL0     C50825   6.482   6.247  10.608 -0.3832 -0.2640  0.2720
  386MOL0     C50826   6.519   6.324  10.494  0.2866  0.2976  0.2020
  386MOL0     C50827   6.503   6.281  10.359 -0.1626  0.7400 -0.9240
  386MOL0     O50828   6.535   6.371  10.259 -0.3812 -0.1600  0.2135
  386MOL0     C50829   6.508   6.349  10.123 -0.1246  0.5787  0.2353
  386MOL0     C50830   6.596   6.436  10.045  0.2050 -0.0670 -0.0859
  386MOL0     C50831   6.554   6.422   9.899 -0.3350  0.4782  0.1777
  386MOL0     C50832   6.657   6.495   9.812 -0.5162  0.5429 -0.1036
  386MOL0     C50833   6.628   6.492   9.663 -0.9759 -0.6842  0.1508
  386MOL0     C50834   6.710   6.600   9.580  0.8790 -0.6381 -0.0071
  386MOL0     C50835   6.721   6.580   9.429 -1.0279 -0.0548 -0.1245
  386MOL0     C50836   6.621   6.656   9.343  0.2128 -0.7923 -0.8206
  386MOL0     N50837   6.485   6.602   9.370 -0.2106 -0.3414 -0.5168
  386MOL0     C50838   6.401   6.656   9.467  0.0866  0.0688  1.0077
  386MOL0     C50839   6.289   6.575   9.455  0.2745 -1.4244 -1.0474
  386MOL0     C50840   6.172   6.607   9.532  0.3618  0.5785 -0.1317
  386MOL0     C50841   6.192   6.549   9.662 -0.8494  0.3538  0.3881
  386MOL0     C50842   6.058   6.532   9.737 -0.0572 -0.2737 -0.5897
  386MOL0     C50843   6.075   6.425   9.851 -0.9216 -0.1940  0.6636
  386MOL0     O50844   6.084   6.290   9.807  0.0494  0.4461 -0.4241
  386MOL0     C50845   5.982   6.226   9.733 -0.5204 -0.3461  1.1340
  386MOL0     C50846   6.023   6.105   9.660  0.4020 -0.1369  0.2742
  386MOL0     C50847   5.930   6.037   9.581 -0.2213  0.0264 -0.1141
  386MOL0     C50848   5.796   6.080   9.580  0.3007 -0.1207 -1.6107
  386MOL0     C50849   5.683   6.003   9.520 -0.1884 -0.1644 -0.3335
  386MOL0     O50850   5.557   6.058   9.530  0.3360  0.3817 -1.1496
  386MOL0     C50851   5.434   6.012   9.488  0.2866 -0.1387 -0.2158
  386MOL0     C50852   5.320   6.048   9.571  0.6522  0.9968  0.5292
  386MOL0     C50853   5.196   6.005   9.521  0.7142  0.4725  1.1906
  386MOL0     C50854   5.181   5.922   9.407  0.2895 -0.9600 -1.1614
  386MOL0     O50855   5.059   5.873   9.353  0.2511 -0.8944 -0.2072
  386MOL0     C50856   4.940   5.874   9.438 -0.6437  0.6279 -0.7502
  386MOL0     C50857   4.963   5.768   9.547  0.5138 -0.0512  0.6470
  386MOL0     C50858   4.835   5.723   9.614  0.1473 -0.0291  0.4285
  386MOL0     C50859   4.756   5.829   9.699 -0.1809  1.0676 -1.1170
  386MOL0     C50860   4.682   5.748   9.805  0.1892 -1.0184 -0.6609
  386MOL0     C50861   4.565   5.657   9.748 -0.4079  0.7083 -0.5882
  386MOL0     C50862   4.478   5.611   9.863  0.1759  0.7597 -0.1169
  386MOL0     C50863   4.353   5.533   9.802 -0.9942  0.1645 -1.6751
  386MOL0    Cl50864   4.258   5.498   9.935 -0.6084  0.4895 -0.0583
  386MOL0     C50865   5.294   5.893   9.329 -0.2726  0.5146  0.1756
  386MOL0     C50866   5.419   5.927   9.378  0.3744 -0.0276 -0.3074
  386MOL0     O50867   5.723   5.907   9.454  0.3667  0.1815  0.1736
  386MOL0     C50868   5.763   6.190   9.659  0.6089  0.8476 -0.1363
  386MOL0     C50869   5.847   6.267   9.727 -1.5543  0.5316 -0.5168
  386MOL0     N50870   6.310   6.489   9.360 -0.5725  0.7316 -0.2301
  386MOL0     N50871   6.421   6.510   9.291 -1.0014 -0.5752  0.4012
  386MOL0     C50872   6.447   6.158  10.340  0.1035 -0.2858  0.0467
  386MOL0     C50873   6.418   6.080  10.447 -0.1010  0.3304 -0.1747
  386MOL0     C50874   6.226   5.891  10.796  0.9389  0.4885  0.2466
  386MOL0     C50875   6.093   5.838  10.794  0.7912  0.6812 -0.0532
  386MOL0     C50876   6.053   5.767  10.902 -0.0725  0.8792 -0.4464
  386MOL0     C50877   6.130   5.742  11.016 -0.3309 -0.6167 -0.8090
  386MOL0     O50878   6.084   5.681  11.127 -0.4621  0.7110 -0.6646
  386MOL0     C50879   5.946   5.715  11.157 -0.1854 -0.4185 -0.1436
  386MOL0     C50880   5.936   5.710  11.308  0.5640  0.1243 -0.0219
  386MOL0     C50881   5.799   5.736  11.356  0.3922 -0.2964 -0.1087
  386MOL0     C50882   5.771   5.721  11.506 -0.2657  0.2176 -0.2063
  386MOL0     C50883   5.625   5.702  11.541  0.0467 -0.0492 -1.2981
  386MOL0     C50884   5.506   5.698  11.563  0.2764  0.4738  0.0914
  386MOL0     C50885   6.253   5.807  11.018  0.2577 -0.4739 -0.1044
  386MOL0     C50886   6.310   5.880  10.909 -0.1070  0.8744 -0.8521
  386MOL0     H50887   6.495   6.297  10.703 -1.5889  0.6903 -0.0370
  386MOL0     H50888   6.565   6.414  10.533 -0.8249  1.2976 -0.7230
  386MOL0     H50889   6.407   6.387  10.105  0.5316  3.0861  1.4625
  386MOL0     H50890   6.532   6.244  10.103  0.7099  0.6199  0.9562
  386MOL0     H50891   6.700   6.404  10.056 -0.2249 -3.1418 -3.2700
  386MOL0     H50892   6.590   6.542  10.074 -0.8205  0.2898 -1.5013
  386MOL0     H50893   6.454   6.459   9.878 -0.8548 -2.2397 -2.6522
  386MOL0     H50894   6.558   6.316   9.873  1.5501  0.7711 -0.9379
  386MOL0     H50895   6.668   6.601   9.835  1.4347  0.4490 -0.4512
  386MOL0     H50896   6.757   6.459   9.836  0.8927  2.5080 -2.5839
  386MOL0     H50897   6.528   6.536   9.655 -0.3546  0.6158 -0.8803
  386MOL0     H50898   6.633   6.389   9.624 -0.2038 -0.3604 -0.6483
  386MOL0     H50899   6.811   6.587   9.620  0.6670 -1.3133  0.3168
  386MOL0     H50900   6.678   6.697   9.619  1.5065 -1.2587  2.2136
  386MOL0     H50901   6.818   6.625   9.408 -0.3855 -0.9079  0.9338
  386MOL0     H50902   6.736   6.477   9.393 -2.1347 -0.3323  0.1518
  386MOL0     H50903   6.649   6.653   9.237 -4.5624  0.9946 -2.3863
  386MOL0     H50904   6.638   6.759   9.374  2.3328 -1.5994  1.0363
  386MOL0     H50905   6.429   6.730   9.542  0.7804  0.6366  0.2070
  386MOL0     H50906   6.084   6.554   9.493  1.2922 -0.0876 -1.3933
  386MOL0     H50907   6.153   6.714   9.534  0.4743  0.5890  0.3109
  386MOL0     H50908   6.270   6.595   9.723 -1.2201  0.9968  0.3910
  386MOL0     H50909   6.228   6.447   9.650  1.3762  1.1557 -0.1454
  386MOL0     H50910   6.020   6.619   9.791 -2.4184 -2.5759  1.7518
  386MOL0     H50911   5.980   6.497   9.669 -0.9948  1.7498 -0.6173
  386MOL0     H50912   5.997   6.438   9.926 -1.4937 -0.1288  0.0762
  386MOL0     H50913   6.168   6.446   9.903  1.7940 -0.0033 -3.7136
  386MOL0     H50914   6.129   6.079   9.665  0.3391 -0.6523 -0.7387
  386MOL0     H50915   5.968   5.954   9.522  0.0554 -0.2791  0.4875
  386MOL0     H50916   5.345   6.113   9.654  4.2007 -0.6818  0.9801
  386MOL0     H50917   5.103   6.048   9.557  0.0527  0.1858 -0.1046
  386MOL0     H50918   4.855   5.840   9.378  0.0788 -2.8162 -0.0329
  386MOL0     H50919   4.918   5.973   9.480 -2.1997 -0.2523  0.6160
  386MOL0     H50920   5.036   5.804   9.620 -0.7550  0.1487  1.8711
  386MOL0     H50921   4.997   5.673   9.503 -2.6872 -1.8554  1.6933
  386MOL0     H50922   4.856   5.636   9.676  1.9613  1.0359  1.4007
  386MOL0     H50923   4.762   5.692   9.538  0.2699  0.4736  0.0996
  386MOL0     H50924   4.828   5.897   9.747 -1.4509  0.7838  1.3380
  386MOL0     H50925   4.694   5.889   9.631 -0.2253  1.2761 -0.8975
  386MOL0     H50926   4.649   5.818   9.882  3.6006  0.9013 -0.7574
  386MOL0     H50927   4.744   5.672   9.853 -0.8697 -2.1074 -0.9530
  386MOL0     H50928   4.607   5.575   9.688  0.1888 -0.6314  1.5582
  386MOL0     H50929   4.504   5.719   9.682 -2.7280  2.8168  3.1799
  386MOL0     H50930   4.527   5.548   9.938  3.1346 -1.8033 -3.8194
  386MOL0     H50931   4.449   5.696   9.925  2.3394 -0.8964  3.5092
  386MOL0     H50932   4.398   5.445   9.757 -0.8867  0.3579 -1.9474
  386MOL0     H50933   4.307   5.593   9.723  2.5831  2.5888 -2.1559
  386MOL0     H50934   5.291   5.820   9.248 -0.8770 -0.1677  0.8073
  386MOL0     H50935   5.499   5.886   9.318  0.7437  3.2898 -2.3238
  386MOL0     H50936   5.661   6.221   9.679  0.8491  0.1423  2.5252
  386MOL0     H50937   5.817   6.354   9.786 -1.2425  2.1349 -2.6167
  386MOL0     H50938   6.413   6.133  10.240  0.0615  1.3360 -0.3774
  386MOL0     H50939   6.381   5.984  10.413  3.5132 -0.2694 -2.9928
  386MOL0     H50940   6.029   5.836  10.706 -0.3039  1.3973  0.7031
  386MOL0     H50941   5.950   5.731  10.907  0.2976 -0.0343  2.8059
  386MOL0     H50942   5.881   5.640  11.111 -0.3921 -1.9018  2.4063
  386MOL0     H50943   5.928   5.819  11.127  1.7575  0.4554  1.5512
  386MOL0     H50944   5.977   5.611  11.331 -0.0309  0.0143  0.6022
  386MOL0     H50945   6.001   5.789  11.347  2.6890 -1.2558 -0.5782
  386MOL0     H50946   5.726   5.671  11.306 -0.4140 -1.2000  2.1252
  386MOL0     H50947   5.768   5.837  11.327  1.1747  0.3436  1.1933
  386MOL0     H50948   5.832   5.641  11.550  0.2219  1.3866  1.3632
  386MOL0     H50949   5.814   5.810  11.554  4.9670 -1.2934 -1.4600
  386MOL0     H50950   5.400   5.697  11.575  0.5348 -1.2614  3.1933
  386MOL0     H50951   6.314   5.790  11.106  0.1396 -0.5229 -0.0315
  386MOL0     H50952   6.413   5.912  10.900  0.9101 -2.6136 -5.2446
  387MOL0     O50953   5.706   6.044   6.578  0.5604  0.7571  0.4570
  387MOL0     C50954   5.639   6.125   6.522  0.3390 -0.1844  0.6029
  387MOL0     O50955   5.513   6.163   6.554 -0.5717  0.4520  0.5414
  387MOL0     C50956   5.467   6.112   6.674 -0.0213  0.5677 -0.4211
  387MOL0     C50957   5.521   6.158   6.792 -0.4379  0.5580 -0.9572
  387MOL0     C50958   5.484   6.097   6.919 -0.1986  0.4164  0.8208
  387MOL0     C50959   5.394   5.984   6.920  0.5642 -0.1052 -0.3684
  387MOL0     O50960   5.334   5.916   7.028 -0.0495 -0.2458 -0.0954
  387MOL0     C50961   5.322   6.010   7.135  0.1868  0.6539 -0.4951
  387MOL0     C50962   5.234   5.948   7.244  0.3873  0.8007  0.2696
  387MOL0     C50963   5.093   5.973   7.201 -0.1228  0.4081  0.2580
  387MOL0     C50964   4.992   5.940   7.318 -0.1873  0.3079 -0.8550
  387MOL0     C50965   4.848   5.941   7.263  0.5321  0.9087 -0.0201
  387MOL0     C50966   4.829   5.799   7.183  0.0364 -0.5680  0.0057
  387MOL0     C50967   4.678   5.769   7.175 -0.2972  0.0164  0.8140
  387MOL0     C50968   4.642   5.672   7.283  0.0516 -0.3769 -0.1873
  387MOL0     N50969   4.497   5.645   7.284 -0.0062  0.0034  0.9214
  387MOL0     C50970   4.439   5.558   7.194 -0.6147 -0.6034 -0.0457
  387MOL0     C50971   4.310   5.548   7.236 -1.1145 -0.0366 -0.2807
  387MOL0     C50972   4.211   5.451   7.171  0.2524  0.3898 -0.3737
  387MOL0     C50973   4.214   5.308   7.219 -0.2868  0.3149 -0.0375
  387MOL0     C50974   4.165   5.209   7.105  0.0892  0.4185  0.4910
  387MOL0     C50975   4.181   5.062   7.137  0.0856  0.3269 -0.5742
  387MOL0     O50976   4.074   5.001   7.228  0.0891 -0.1918  0.3916
  387MOL0     C50977   4.046   4.866   7.212  0.5119 -0.1011  0.5468
  387MOL0     C50978   4.152   4.777   7.210  0.1653  0.3907 -0.6182
  387MOL0     C50979   4.125   4.637   7.185  0.2945  0.0846 -0.8301
  387MOL0     C50980   3.989   4.591   7.164 -0.0094 -0.0245  0.3292
  387MOL0     C50981   3.960   4.449   7.126  0.2632 -1.0762  0.0510
  387MOL0     O50982   4.061   4.358   7.129 -0.7755  0.2219 -0.8844
  387MOL0     C50983   4.045   4.218   7.144  1.2561 -0.6192  0.2180
  387MOL0     C50984   3.945   4.164   7.224 -0.1933 -0.7650  0.4015
  387MOL0     C50985   3.921   4.025   7.230 -0.0952 -0.0502 -0.4520
  387MOL0     C50986   4.016   3.931   7.174  0.1166  0.3907  0.1413
  387MOL0     O50987   4.029   3.798   7.196  0.0343 -0.0003  0.1581
  387MOL0     C50988   3.925   3.737   7.270  0.4467 -0.0190 -0.1968
  387MOL0     C50989   3.954   3.591   7.317 -0.3039 -0.0760  0.3298
  387MOL0     C50990   3.837   3.528   7.390 -0.6319 -0.4395  0.3813
  387MOL0     C50991   3.891   3.410   7.461  0.1602  0.0699  1.5787
  387MOL0     C50992   3.799   3.364   7.559  0.4376  0.0166 -0.6454
  387MOL0     C50993   3.655   3.324   7.495  0.2124  0.6916 -1.2608
  387MOL0     C50994   3.561   3.287   7.610 -0.2802 -0.0761 -0.5715
  387MOL0     C50995   3.429   3.361   7.595  0.4393 -0.0182  0.4683
  387MOL0    Cl50996   3.296   3.278   7.671  0.0829 -0.0849 -0.2356
  387MOL0     C50997   4.119   3.995   7.099 -0.1512 -0.8179 -0.4488
  387MOL0     C50998   4.132   4.132   7.079 -0.0960  0.6291 -0.5712
  387MOL0     O50999   3.843   4.422   7.108  0.2470  0.5831  0.8701
  387MOL0     C51000   3.884   4.686   7.175 -0.8230 -0.1802  0.3527
  387MOL0     C51001   3.910   4.816   7.207 -0.5064 -0.7124 -0.6988
  387MOL0     N51002   4.291   5.642   7.337 -0.9517  0.4765 -1.0337
  387MOL0     N51003   4.405   5.692   7.373  0.3701 -0.6274 -0.0284
  387MOL0     C51004   5.349   5.941   6.790  0.1666  0.3345  0.1531
  387MOL0     C51005   5.386   6.003   6.668 -0.4953  0.7478 -0.6649
  387MOL0     C51006   5.695   6.187   6.397  0.5477  0.1484  0.0326
  387MOL0     C51007   5.622   6.294   6.332 -0.1842 -0.5549 -0.2705
  387MOL0     C51008   5.678   6.378   6.233  0.2493  0.7525  0.0417
  387MOL0     C51009   5.809   6.343   6.184  0.7026  0.7053  0.0058
  387MOL0     O51010   5.861   6.424   6.082 -0.2397  0.1095  0.6826
  387MOL0     C51011   6.001   6.411   6.041  0.1143  0.6524  1.2202
  387MOL0     C51012   6.027   6.512   5.933 -0.3532 -0.1675  0.0765
  387MOL0     C51013   6.001   6.660   5.961 -0.5102 -1.1716  0.1528
  387MOL0     C51014   6.124   6.731   6.031 -0.2744  0.4989 -0.4443
  387MOL0     C51015   6.126   6.872   5.993  0.5881 -0.3898 -0.2000
  387MOL0     C51016   6.123   6.990   5.975  0.1562 -0.1691  0.1730
  387MOL0     C51017   5.881   6.232   6.244 -0.4045 -0.2385 -0.0680
  387MOL0     C51018   5.821   6.165   6.355  0.2303 -0.0247  0.4313
  387MOL0     H51019   5.605   6.225   6.796 -2.1072  2.7264  1.3805
  387MOL0     H51020   5.529   6.133   7.010  2.0232  1.9832 -0.7925
  387MOL0     H51021   5.287   6.112   7.118 -2.8549  0.4364  3.1407
  387MOL0     H51022   5.421   6.016   7.180 -0.6021  0.5218  1.3377
  387MOL0     H51023   5.251   6.000   7.338  0.2592  0.6300  0.3864
  387MOL0     H51024   5.258   5.843   7.258 -3.7557  0.0381  3.4695
  387MOL0     H51025   5.068   5.914   7.112  2.9855 -1.3422  0.3834
  387MOL0     H51026   5.073   6.080   7.189  0.2181  0.7561  2.4890
  387MOL0     H51027   5.014   5.856   7.384  1.1333  1.7176  0.5961
  387MOL0     H51028   4.984   6.019   7.394  0.4137 -1.7447  1.4706
  387MOL0     H51029   4.835   6.024   7.193  1.1001  2.2876  1.4434
  387MOL0     H51030   4.776   5.957   7.343 -1.6000  1.6818 -1.9911
  387MOL0     H51031   4.890   5.722   7.230  0.9713  1.4844  2.3908
  387MOL0     H51032   4.862   5.807   7.079 -3.9687  2.8613 -1.3053
  387MOL0     H51033   4.618   5.861   7.177 -4.8148 -2.5379 -0.8370
  387MOL0     H51034   4.654   5.715   7.082  0.7054 -2.1492  1.7340
  387MOL0     H51035   4.667   5.713   7.381 -2.1493  0.9298 -0.1082
  387MOL0     H51036   4.689   5.574   7.279 -0.7629 -1.0473  3.3354
  387MOL0     H51037   4.484   5.500   7.114 -3.2901 -2.0691 -0.5955
  387MOL0     H51038   4.231   5.459   7.063 -1.5123  3.2396 -0.6066
  387MOL0     H51039   4.110   5.485   7.195 -0.3302 -1.1282 -0.5423
  387MOL0     H51040   4.145   5.311   7.304 -1.1358 -0.4108 -0.6884
  387MOL0     H51041   4.313   5.274   7.251 -0.3529 -2.1485 -2.1504
  387MOL0     H51042   4.060   5.225   7.076 -0.3055 -0.2844  1.4492
  387MOL0     H51043   4.231   5.227   7.020 -0.8620 -1.9077 -0.8354
  387MOL0     H51044   4.271   5.038   7.195 -0.0220 -1.8483 -1.2139
  387MOL0     H51045   4.184   5.005   7.044 -0.2281  0.5951 -0.7477
  387MOL0     H51046   4.255   4.809   7.220  0.7557 -1.5312 -0.0899
  387MOL0     H51047   4.202   4.562   7.174  0.6731  0.4498 -0.7192
  387MOL0     H51048   3.878   4.232   7.276  1.0557 -0.7600  2.0724
  387MOL0     H51049   3.828   3.982   7.266  0.3766 -0.5085  0.2425
  387MOL0     H51050   3.829   3.732   7.217 -0.5970 -4.1460  1.7016
  387MOL0     H51051   3.909   3.794   7.362 -1.8395 -0.2581 -0.3754
  387MOL0     H51052   4.044   3.589   7.379 -0.3295  1.2050  0.4487
  387MOL0     H51053   3.963   3.539   7.221  0.1051  2.5327 -1.1514
  387MOL0     H51054   3.759   3.500   7.319  2.2150 -1.6724 -2.4613
  387MOL0     H51055   3.809   3.605   7.463 -0.7512  0.0418 -0.1679
  387MOL0     H51056   3.917   3.336   7.385 -0.4177  2.1014 -0.7219
  387MOL0     H51057   3.987   3.429   7.510  1.4493  0.4216 -0.9059
  387MOL0     H51058   3.785   3.445   7.631 -1.1050 -3.2071  3.0359
  387MOL0     H51059   3.854   3.285   7.611 -0.8372  0.2910  1.2302
  387MOL0     H51060   3.669   3.233   7.435  0.0823  1.9534 -3.3179
  387MOL0     H51061   3.608   3.394   7.424 -0.8927  0.0626 -1.1703
  387MOL0     H51062   3.542   3.179   7.621 -1.6807  0.4174  3.6602
  387MOL0     H51063   3.604   3.317   7.706  1.0295 -3.3177 -0.0176
  387MOL0     H51064   3.417   3.362   7.487 -2.6428  0.9528  0.7321
  387MOL0     H51065   3.448   3.461   7.636  0.8232  1.3364 -2.7388
  387MOL0     H51066   4.195   3.930   7.057 -0.4391 -0.2988 -1.8255
  387MOL0     H51067   4.210   4.171   7.014  0.3253 -1.0203 -1.1237
  387MOL0     H51068   3.784   4.651   7.153  0.6750 -2.8263 -3.3111
  387MOL0     H51069   3.825   4.882   7.223  0.9309  1.2272 -0.6379
  387MOL0     H51070   5.267   5.870   6.783  1.3944 -1.1889  0.6592
  387MOL0     H51071   5.341   5.968   6.575  0.8830  2.5759 -2.0732
  387MOL0     H51072   5.524   6.317   6.374  1.7063  0.8094  3.9314
  387MOL0     H51073   5.623   6.458   6.185 -2.1832 -1.9061 -1.9880
  387MOL0     H51074   6.030   6.316   5.995 -0.7719  0.1958  1.5771
  387MOL0     H51075   6.072   6.427   6.122  2.7073  0.7355 -0.9347
  387MOL0     H51076   6.134   6.497   5.916  0.6202 -1.4198  5.2577
  387MOL0     H51077   5.971   6.502   5.840  0.7871  4.3303 -1.3258
  387MOL0     H51078   5.910   6.683   6.017  0.3508 -1.6697  1.8249
  387MOL0     H51079   5.978   6.711   5.868 -1.0402  1.0428  1.4255
  387MOL0     H51080   6.119   6.721   6.139 -0.6325  1.6070 -0.3468
  387MOL0     H51081   6.216   6.676   6.008 -1.0069 -0.2468 -1.7210
  387MOL0     H51082   6.127   7.094   5.952 -2.7947 -0.2972 -1.3866
  387MOL0     H51083   5.989   6.230   6.237 -0.1518  1.1806  2.3202
  387MOL0     H51084   5.878   6.087   6.405  2.4266  0.7893 -0.6767
  388MOL0     O51085   4.328   9.340   5.777  0.4386  0.4091 -0.5967
  388MOL0     C51086   4.416   9.249   5.791 -0.8259  0.0949 -0.5251
  388MOL0     O51087   4.528   9.217   5.713  0.3088  0.4722  0.1891
  388MOL0     C51088   4.557   9.268   5.594  0.4523 -0.4209 -0.3486
  388MOL0     C51089   4.545   9.402   5.561 -0.0849  0.2962  0.1705
  388MOL0     C51090   4.553   9.449   5.427  0.7587  0.3914 -0.4191
  388MOL0     C51091   4.581   9.362   5.326 -0.0989 -0.4159 -0.1954
  388MOL0     O51092   4.570   9.414   5.203 -0.5692 -0.2832  0.2600
  388MOL0     C51093   4.617   9.338   5.087 -0.2413  0.3869  1.0785
  388MOL0     C51094   4.655   9.448   4.976 -0.2995  0.2710  0.0429
  388MOL0     C51095   4.804   9.492   5.000  1.5988  0.3764 -0.3794
  388MOL0     C51096   4.820   9.624   4.924 -0.6803  0.1543 -0.5747
  388MOL0     C51097   4.911   9.725   5.002 -0.8788  0.5337  0.0925
  388MOL0     C51098   4.982   9.828   4.903 -0.3163  0.7346  0.4146
  388MOL0     C51099   4.884   9.925   4.836 -0.0258  0.0742  0.4243
  388MOL0     C51100   4.961   9.983   4.717 -0.6022 -0.6221 -0.3252
  388MOL0     N51101   4.924  10.122   4.679 -1.0351  0.4457 -0.5213
  388MOL0     C51102   5.004  10.190   4.598  0.7327 -0.9949  0.8893
  388MOL0     C51103   4.940  10.307   4.604 -0.4952  0.4657 -0.4143
  388MOL0     C51104   5.003  10.435   4.552  0.7850  1.0660  0.0281
  388MOL0     C51105   4.917  10.506   4.444  0.0039  0.4760  0.0216
  388MOL0     C51106   4.933  10.422   4.320 -0.1031 -1.2247  0.3777
  388MOL0     C51107   4.848  10.292   4.308 -0.3852 -0.3540  0.3118
  388MOL0     O51108   4.716  10.315   4.249  0.4752 -0.9102 -0.5581
  388MOL0     C51109   4.696  10.299   4.116  0.5399  0.9232 -0.8133
  388MOL0     C51110   4.801  10.324   4.021 -0.9805  0.2711 -0.8079
  388MOL0     C51111   4.795  10.292   3.883  1.1455 -0.2232 -0.7583
  388MOL0     C51112   4.669  10.225   3.842 -0.2940 -0.7464  0.1971
  388MOL0     C51113   4.648  10.206   3.697  0.0668 -1.0296 -0.5908
  388MOL0     O51114   4.523  10.223   3.648  0.4884 -0.6619 -0.2193
  388MOL0     C51115   4.505  10.217   3.515  0.3861 -0.7733 -0.1517
  388MOL0     C51116   4.580  10.303   3.428 -0.1328  0.4887  0.2809
  388MOL0     C51117   4.558  10.292   3.290 -0.5950  1.0357  0.1097
  388MOL0     C51118   4.458  10.214   3.238 -0.0621  0.3285  0.0012
  388MOL0     O51119   4.424  10.201   3.103 -0.4449 -0.6833  0.1150
  388MOL0     C51120   4.516  10.103   3.051 -0.1649 -0.2601 -0.1723
  388MOL0     C51121   4.528  10.118   2.900  0.0408 -0.1345  0.5843
  388MOL0     C51122   4.518   9.981   2.829  0.0891  0.5041  0.4944
  388MOL0     C51123   4.641   9.891   2.858 -0.1339 -0.2609 -0.4216
  388MOL0     C51124   4.632   9.755   2.786 -0.2856  0.0156  0.9686
  388MOL0     C51125   4.697   9.757   2.652  0.4174 -0.4765 -1.1855
  388MOL0     C51126   4.760   9.627   2.607 -0.9206 -0.5847 -0.6799
  388MOL0     C51127   4.889   9.592   2.691 -0.2993 -0.1576 -0.8522
  388MOL0    Cl51128   4.986   9.462   2.599 -0.2196 -0.3980  0.0152
  388MOL0     C51129   4.381  10.128   3.320 -0.4766  0.6931  0.3327
  388MOL0     C51130   4.398  10.142   3.466 -0.3612  0.4877  0.2604
  388MOL0     O51131   4.749  10.158   3.646 -0.6395  0.3568  0.7724
  388MOL0     C51132   4.561  10.221   3.935 -0.4053 -0.6971 -0.4462
  388MOL0     C51133   4.578  10.242   4.073  0.6079 -0.3175  0.2297
  388MOL0     N51134   4.834  10.310   4.690  0.0869 -0.0531 -0.1859
  388MOL0     N51135   4.841  10.194   4.743  0.3204 -0.0473  0.1910
  388MOL0     C51136   4.594   9.228   5.357 -0.8004 -0.1608 -0.4815
  388MOL0     C51137   4.593   9.183   5.492 -0.4607  0.2390  0.4498
  388MOL0     C51138   4.390   9.158   5.910  0.0326  0.5850  0.3059
  388MOL0     C51139   4.458   9.035   5.920 -1.0449 -0.2837 -0.5103
  388MOL0     C51140   4.421   8.936   6.016  0.0145 -0.0871  0.3295
  388MOL0     C51141   4.323   8.962   6.110 -0.8205 -0.0622 -0.4984
  388MOL0     O51142   4.306   8.859   6.195 -0.5300  0.3890 -0.2865
  388MOL0     C51143   4.167   8.815   6.193 -0.3022  0.6659 -0.3141
  388MOL0     C51144   4.146   8.720   6.074 -0.1716  0.1355  0.3426
  388MOL0     C51145   4.214   8.580   6.091  0.0126 -0.6824  0.0936
  388MOL0     C51146   4.168   8.489   5.977  0.3078 -0.0519  0.7474
  388MOL0     C51147   4.263   8.374   5.969  0.0865  0.2210  0.3977
  388MOL0     C51148   4.337   8.280   5.971  0.4206  0.0972  0.5063
  388MOL0     C51149   4.254   9.086   6.099 -1.3080  0.3718 -0.1398
  388MOL0     C51150   4.290   9.184   6.007  0.3374  0.5431  0.2532
  388MOL0     H51151   4.510   9.469   5.639 -0.1611 -0.9482  1.2354
  388MOL0     H51152   4.529   9.550   5.395 -3.3230 -0.3841 -0.3390
  388MOL0     H51153   4.537   9.279   5.041  0.6688 -2.0308  2.3771
  388MOL0     H51154   4.695   9.263   5.108  0.6330  0.9847  0.0602
  388MOL0     H51155   4.574   9.520   4.987 -1.2630 -1.1522  3.6079
  388MOL0     H51156   4.641   9.418   4.872 -0.8076  4.4265 -1.3010
  388MOL0     H51157   4.884   9.422   4.974  1.3092 -0.1513  0.1331
  388MOL0     H51158   4.804   9.508   5.108 -0.7761 -1.3680 -0.0335
  388MOL0     H51159   4.860   9.605   4.824  1.1198  0.3519  0.0749
  388MOL0     H51160   4.729   9.685   4.918 -1.6311 -1.2875 -2.1290
  388MOL0     H51161   4.976   9.655   5.054 -3.7953 -1.6764  1.0689
  388MOL0     H51162   4.866   9.785   5.081  1.7439 -1.1416  3.0705
  388MOL0     H51163   5.049   9.771   4.839  0.6209  0.9559  1.1859
  388MOL0     H51164   5.044   9.896   4.962 -1.5235  3.3939 -1.1595
  388MOL0     H51165   4.793   9.876   4.801  0.1565 -1.7939  2.3246
  388MOL0     H51166   4.856  10.004   4.907 -0.5214 -0.7620  1.1757
  388MOL0     H51167   4.942   9.914   4.634 -0.3832  0.5494 -1.3881
  388MOL0     H51168   5.070   9.986   4.730 -0.6985  0.4798  0.3511
  388MOL0     H51169   5.100  10.173   4.551 -0.9877  0.2889 -3.6364
  388MOL0     H51170   5.102  10.413   4.512 -0.2579  0.8904 -2.6691
  388MOL0     H51171   5.011  10.490   4.646 -2.0180  1.5891  0.0368
  388MOL0     H51172   4.962  10.606   4.437 -1.5482  1.2397  0.4038
  388MOL0     H51173   4.816  10.516   4.486  0.1707  0.1664  0.4971
  388MOL0     H51174   4.893  10.487   4.241 -0.9014 -1.0767  0.8916
  388MOL0     H51175   5.040  10.407   4.303 -0.0625 -0.1000 -0.4170
  388MOL0     H51176   4.822  10.237   4.399 -2.0063 -1.4392 -0.7421
  388MOL0     H51177   4.909  10.235   4.238  1.2761  1.8090 -0.1088
  388MOL0     H51178   4.895  10.368   4.055  3.2153 -4.3439 -4.7327
  388MOL0     H51179   4.878  10.309   3.816  1.9136  1.3226  0.5053
  388MOL0     H51180   4.662  10.364   3.464 -0.8511  1.2436  0.6542
  388MOL0     H51181   4.627  10.336   3.218 -0.2584  0.2716 -0.0458
  388MOL0     H51182   4.464  10.007   3.062 -4.3916  1.6719 -1.1715
  388MOL0     H51183   4.607  10.093   3.110 -0.3635  2.3636  0.7258
  388MOL0     H51184   4.620  10.161   2.861 -1.4050  1.1238 -1.6044
  388MOL0     H51185   4.447  10.180   2.862 -1.7536 -2.6594 -0.0114
  388MOL0     H51186   4.514   9.993   2.720  1.0362 -0.7741  0.2979
  388MOL0     H51187   4.429   9.923   2.857  0.2130 -0.6574 -1.3577
  388MOL0     H51188   4.733   9.944   2.835  0.3665  0.1651  2.2272
  388MOL0     H51189   4.640   9.885   2.967  2.3390 -0.4556 -0.3594
  388MOL0     H51190   4.528   9.722   2.774  0.3856 -1.3164 -2.1695
  388MOL0     H51191   4.678   9.685   2.856 -1.3747 -0.8138  0.8737
  388MOL0     H51192   4.775   9.833   2.647  0.2108 -0.3252 -2.6754
  388MOL0     H51193   4.619   9.775   2.577 -0.6233 -0.9467 -0.2605
  388MOL0     H51194   4.698   9.537   2.611 -1.0688 -0.4334  1.5833
  388MOL0     H51195   4.784   9.652   2.503 -0.3392 -0.3466 -0.4934
  388MOL0     H51196   4.861   9.557   2.791 -0.9229 -1.1186 -1.3494
  388MOL0     H51197   4.950   9.682   2.704 -0.1664 -0.4248  0.4250
  388MOL0     H51198   4.302  10.061   3.289  1.6107 -2.1967  0.8357
  388MOL0     H51199   4.347  10.067   3.524  1.6434 -0.4531  0.8993
  388MOL0     H51200   4.455  10.218   3.909 -1.5860  0.4907  3.5517
  388MOL0     H51201   4.493  10.240   4.141  1.3721  0.3209  1.2374
  388MOL0     H51202   4.599   9.149   5.282 -1.2416  0.7252 -1.4571
  388MOL0     H51203   4.594   9.075   5.500 -3.9374 -0.0966 -1.4389
  388MOL0     H51204   4.537   8.998   5.855 -0.4880 -1.2088  0.6543
  388MOL0     H51205   4.475   8.843   6.008  0.8351  0.1196  2.5012
  388MOL0     H51206   4.090   8.893   6.194 -0.7278  0.3170 -2.2360
  388MOL0     H51207   4.151   8.751   6.280 -0.6253 -2.0072 -2.2233
  388MOL0     H51208   4.043   8.697   6.049 -0.1238 -1.2077  1.3024
  388MOL0     H51209   4.178   8.779   5.988 -1.1195 -1.1334 -0.9018
  388MOL0     H51210   4.192   8.535   6.188 -3.6252 -1.3554 -0.8865
  388MOL0     H51211   4.321   8.605   6.091  0.4244 -1.8461 -3.4862
  388MOL0     H51212   4.065   8.460   6.000 -0.0164  0.7835  0.3979
  388MOL0     H51213   4.174   8.546   5.884  0.1308 -1.4324 -0.1363
  388MOL0     H51214   4.391   8.191   5.945 -3.3435 -1.6679 -2.1118
  388MOL0     H51215   4.164   9.095   6.158  0.6037  0.9754  2.9074
  388MOL0     H51216   4.235   9.276   5.994 -1.0533 -0.4122 -0.7798
  389MOL0     O51217  10.029  10.993   5.435 -0.0539 -0.4424 -0.1508
  389MOL0     C51218   9.968  11.098   5.448 -0.5348 -0.0653  0.0765
  389MOL0     O51219   9.867  11.133   5.536 -0.3487  0.4293 -0.1643
  389MOL0     C51220   9.824  11.038   5.625 -0.4000  0.4338  0.6518
  389MOL0     C51221   9.858  11.055   5.764 -0.2992 -0.1924 -0.1741
  389MOL0     C51222   9.793  10.971   5.859 -1.0155  0.7259  0.8868
  389MOL0     C51223   9.712  10.864   5.816 -0.0769  0.6526 -1.0648
  389MOL0     O51224   9.660  10.772   5.909 -0.6692  0.4832 -0.2409
  389MOL0     C51225   9.595  10.837   6.019  0.6773  0.7101  1.0557
  389MOL0     C51226   9.468  10.759   6.052  0.3639 -0.3956 -0.3746
  389MOL0     C51227   9.489  10.607   6.077 -0.2217  0.5553 -0.8418
  389MOL0     C51228   9.356  10.526   6.067 -0.0465 -1.3728  0.4015
  389MOL0     C51229   9.369  10.374   6.070  0.4149  0.0066 -0.7391
  389MOL0     C51230   9.235  10.304   6.071  0.7736  0.2866 -0.4471
  389MOL0     C51231   9.229  10.157   6.018 -0.4902 -0.0552  0.1201
  389MOL0     C51232   9.355  10.074   6.053  0.4345  0.7119  0.7443
  389MOL0     N51233   9.352   9.934   5.985 -0.4255 -0.3277  0.2877
  389MOL0     C51234   9.260   9.832   6.010  0.0299 -0.4313  0.1652
  389MOL0     C51235   9.304   9.722   5.946 -0.1446 -0.8992 -0.0052
  389MOL0     C51236   9.229   9.585   5.952 -0.5890 -0.1013 -0.7991
  389MOL0     C51237   9.099   9.572   5.858 -0.7421  0.7057  0.0804
  389MOL0     C51238   9.133   9.631   5.716 -0.5436 -0.6376  0.2091
  389MOL0     C51239   9.013   9.636   5.633  0.3234 -0.1055  0.7448
  389MOL0     O51240   8.877   9.655   5.697 -0.6145  0.6133 -0.1341
  389MOL0     C51241   8.859   9.779   5.752  0.2221 -0.2060 -0.0725
  389MOL0     C51242   8.940   9.892   5.740 -0.3838  0.4909 -0.3014
  389MOL0     C51243   8.905  10.014   5.800 -0.3746 -1.0294 -0.1242
  389MOL0     C51244   8.793  10.021   5.884  0.6375  0.3487 -0.3216
  389MOL0     C51245   8.766  10.148   5.961  0.5043 -0.0461  0.2018
  389MOL0     O51246   8.806  10.267   5.906 -0.0035 -0.0242 -0.3238
  389MOL0     C51247   8.770  10.384   5.970 -0.3570 -0.5546  0.4478
  389MOL0     C51248   8.846  10.433   6.078  0.6384  0.3671 -1.0261
  389MOL0     C51249   8.820  10.554   6.136 -0.5517  0.5192 -0.1880
  389MOL0     C51250   8.719  10.632   6.086  0.6248 -1.1335 -0.2021
  389MOL0     O51251   8.712  10.759   6.152  0.2224  0.8943  0.6420
  389MOL0     C51252   8.605  10.846   6.113  0.7286  0.4482 -0.3071
  389MOL0     C51253   8.462  10.810   6.167  0.0729  0.0170  0.1119
  389MOL0     C51254   8.465  10.831   6.325  0.8230 -0.1836 -0.7488
  389MOL0     C51255   8.343  10.748   6.387  0.1489 -0.3500 -0.1735
  389MOL0     C51256   8.367  10.702   6.527 -0.2915  0.8669  0.1883
  389MOL0     C51257   8.240  10.664   6.610 -0.2140 -0.1747 -0.4758
  389MOL0     C51258   8.285  10.618   6.749  0.0928  0.1551 -0.4136
  389MOL0     C51259   8.175  10.598   6.846 -0.1322 -0.2391  0.2330
  389MOL0    Cl51260   8.066  10.470   6.779 -0.2365  0.0081 -0.4333
  389MOL0     C51261   8.636  10.582   5.980 -0.2413  0.7510  0.6558
  389MOL0     C51262   8.659  10.456   5.925  0.2391 -0.2976  0.6081
  389MOL0     O51263   8.693  10.137   6.065 -0.4051 -0.2915  0.5114
  389MOL0     C51264   8.710   9.909   5.910 -0.6927  0.3659  0.5346
  389MOL0     C51265   8.742   9.794   5.830 -0.9506  0.0023 -0.1489
  389MOL0     N51266   9.425   9.753   5.891  0.2246  0.4187 -0.7619
  389MOL0     N51267   9.463   9.876   5.917 -0.5965 -0.2566  0.9084
  389MOL0     C51268   9.698  10.838   5.679  0.2937 -0.5892 -1.2122
  389MOL0     C51269   9.739  10.934   5.585  0.6274 -0.4356 -0.9523
  389MOL0     C51270  10.002  11.203   5.349 -0.9874  0.1371 -0.8238
  389MOL0     C51271   9.961  11.326   5.372 -0.4114 -0.3848 -0.2695
  389MOL0     C51272   9.974  11.430   5.277 -0.2192  0.0951  1.1175
  389MOL0     C51273  10.030  11.417   5.151  0.3244  0.1659 -0.0147
  389MOL0     O51274  10.045  11.513   5.050 -0.0324 -0.0438  0.2921
  389MOL0     C51275   9.984  11.640   5.051  0.0971 -0.3685 -0.3295
  389MOL0     C51276  10.065  11.739   5.142  0.1303  0.1309 -0.5744
  389MOL0     C51277  10.013  11.883   5.131  0.5237 -0.0382 -0.9278
  389MOL0     C51278  10.083  11.973   5.232 -0.5039 -1.1870 -0.1564
  389MOL0     C51279  10.031  12.117   5.226  0.0878 -0.1870 -0.3670
  389MOL0     C51280  10.002  12.237   5.222  0.0524  0.0660  0.1126
  389MOL0     C51281  10.090  11.292   5.136  0.6584  0.0153 -0.2630
  389MOL0     C51282  10.070  11.183   5.229  0.1594  0.5050 -0.2554
  389MOL0     H51283   9.921  11.139   5.791  1.2004 -1.9497  2.2280
  389MOL0     H51284   9.816  10.970   5.965  0.9682 -2.4519  0.5417
  389MOL0     H51285   9.568  10.938   5.988 -1.9855  1.1654  4.3056
  389MOL0     H51286   9.652  10.846   6.112  2.0017 -1.8345  0.5922
  389MOL0     H51287   9.402  10.767   5.964  2.0109  4.8023 -1.4837
  389MOL0     H51288   9.422  10.808   6.138 -0.4828  2.4479 -2.2967
  389MOL0     H51289   9.521  10.593   6.181  1.8552 -1.4921 -1.6755
  389MOL0     H51290   9.558  10.554   6.011  0.0211 -1.0561  0.6314
  389MOL0     H51291   9.297  10.565   6.151  1.3553  0.1920  0.7142
  389MOL0     H51292   9.308  10.551   5.972 -0.4104 -1.1230  0.6471
  389MOL0     H51293   9.421  10.338   6.159  3.0797  1.5899 -1.5569
  389MOL0     H51294   9.426  10.340   5.984 -2.0216  1.1044 -2.9218
  389MOL0     H51295   9.159  10.358   6.014 -1.1574 -2.2850 -0.4642
  389MOL0     H51296   9.202  10.309   6.175  3.1296  0.0299  0.3907
  389MOL0     H51297   9.137  10.134   6.072 -0.9226 -0.6661 -0.8466
  389MOL0     H51298   9.229  10.155   5.909  2.9971 -2.3323 -0.0235
  389MOL0     H51299   9.368  10.041   6.156 -1.4087  0.9574  1.0877
  389MOL0     H51300   9.443  10.128   6.016 -2.3115  4.8374 -0.3884
  389MOL0     H51301   9.174   9.841   6.076  0.1269 -0.2224  0.2627
  389MOL0     H51302   9.198   9.559   6.054  1.0236 -0.9974 -0.5074
  389MOL0     H51303   9.300   9.502   5.943 -1.3516 -1.1282  1.7332
  389MOL0     H51304   9.016   9.627   5.903 -0.1123  0.5104  1.5414
  389MOL0     H51305   9.074   9.467   5.843  1.1332  0.2508 -0.1273
  389MOL0     H51306   9.164   9.735   5.731  0.7360 -0.5423 -2.5194
  389MOL0     H51307   9.218   9.581   5.667  0.9679  0.3321  1.7262
  389MOL0     H51308   9.012   9.534   5.594 -3.3313 -0.4350  1.3726
  389MOL0     H51309   9.025   9.702   5.547 -0.0528  0.4724  1.1294
  389MOL0     H51310   9.041   9.892   5.701 -0.1075  4.4867 -0.0343
  389MOL0     H51311   8.975  10.096   5.799  0.2335 -1.5381 -0.3570
  389MOL0     H51312   8.933  10.382   6.117 -0.0517  1.7783  2.7889
  389MOL0     H51313   8.889  10.578   6.216  0.8172 -1.4723 -0.6746
  389MOL0     H51314   8.600  10.849   6.004 -1.4939 -3.3263 -0.4552
  389MOL0     H51315   8.621  10.950   6.143 -1.3959  0.3589  1.3943
  389MOL0     H51316   8.464  10.701   6.157  1.4881 -0.1706  1.8607
  389MOL0     H51317   8.371  10.852   6.124 -1.3252 -0.4200  2.4852
  389MOL0     H51318   8.461  10.936   6.354 -3.9289 -1.1576  3.6699
  389MOL0     H51319   8.561  10.792   6.362 -0.1560 -0.4835  1.6867
  389MOL0     H51320   8.252  10.808   6.391 -0.8134 -1.7528 -0.3274
  389MOL0     H51321   8.314  10.657   6.334  1.6493 -0.9127 -0.0826
  389MOL0     H51322   8.407  10.787   6.584 -2.0995 -0.6453  4.1333
  389MOL0     H51323   8.447  10.630   6.544 -2.6005 -1.3311  3.0553
  389MOL0     H51324   8.188  10.578   6.567 -2.9803  0.3723  1.4720
  389MOL0     H51325   8.173  10.749   6.629 -0.3152 -0.9321  3.5899
  389MOL0     H51326   8.339  10.525   6.727 -0.5227 -0.4673  0.6133
  389MOL0     H51327   8.349  10.700   6.782  0.2176 -0.5420  1.1684
  389MOL0     H51328   8.146  10.701   6.868  4.3804  0.8329  2.2478
  389MOL0     H51329   8.228  10.564   6.936  0.7027  2.7418  0.9781
  389MOL0     H51330   8.559  10.628   5.920 -0.9541 -2.3178 -0.9546
  389MOL0     H51331   8.593  10.408   5.854  0.5061 -1.2176  0.9546
  389MOL0     H51332   8.634   9.894   5.986  1.0956 -1.9527  2.0020
  389MOL0     H51333   8.681   9.705   5.842 -1.9528  0.5911 -0.8076
  389MOL0     H51334   9.639  10.755   5.641 -0.9127 -1.2036  1.7204
  389MOL0     H51335   9.725  10.918   5.479 -0.1405  0.8364 -1.0594
  389MOL0     H51336   9.914  11.355   5.465 -2.0065 -0.5960 -0.9778
  389MOL0     H51337   9.928  11.526   5.302 -1.6128 -1.1511  3.6865
  389MOL0     H51338   9.879  11.636   5.082 -0.5260  0.2401 -2.2084
  389MOL0     H51339   9.978  11.674   4.947  1.8585 -0.4815 -0.4923
  389MOL0     H51340  10.057  11.708   5.246  0.3428 -1.4991 -1.0135
  389MOL0     H51341  10.172  11.734   5.124 -0.2365  0.9881 -3.6038
  389MOL0     H51342   9.908  11.899   5.156  0.9607  2.2985 -0.3905
  389MOL0     H51343  10.029  11.918   5.028 -0.2726 -0.5728 -1.2448
  389MOL0     H51344  10.084  11.931   5.334  3.2466 -3.0906 -0.7903
  389MOL0     H51345  10.187  11.988   5.203 -0.0884 -1.9313  0.8663
  389MOL0     H51346   9.983  12.343   5.218  1.8654  0.5329  1.9863
  389MOL0     H51347  10.150  11.273   5.048 -0.1291  0.2962 -0.8689
  389MOL0     H51348  10.115  11.084   5.222  3.0086  1.6058  1.1460
  390MOL0     O51349   2.021   6.567   4.585  0.0308 -0.0156  0.2018
  390MOL0     C51350   2.093   6.574   4.485  1.2091 -0.1006  1.5109
  390MOL0     O51351   2.231   6.617   4.486  0.1776  0.6035 -0.4130
  390MOL0     C51352   2.296   6.678   4.589  0.7076 -0.2068 -1.6738
  390MOL0     C51353   2.228   6.748   4.691 -0.6131 -0.2738 -0.3651
  390MOL0     C51354   2.298   6.831   4.770  0.8423  0.2043 -0.0966
  390MOL0     C51355   2.437   6.855   4.763  0.7263  0.1358  0.6978
  390MOL0     O51356   2.481   6.946   4.850 -0.0804  0.1872 -0.2064
  390MOL0     C51357   2.616   6.988   4.852  0.3715  0.0350 -0.3040
  390MOL0     C51358   2.639   7.128   4.913 -1.6008  0.2272 -0.1014
  390MOL0     C51359   2.551   7.232   4.876  0.1802 -0.3976  0.2418
  390MOL0     C51360   2.566   7.350   4.964 -0.5682 -0.8381 -0.7998
  390MOL0     C51361   2.490   7.474   4.920  0.6960  0.8438  0.0995
  390MOL0     C51362   2.535   7.594   4.991 -0.2049 -0.3637 -0.3418
  390MOL0     C51363   2.439   7.700   4.967 -1.2061 -0.0363  0.1023
  390MOL0     C51364   2.466   7.825   5.060  0.3459 -0.5841  0.4150
  390MOL0     N51365   2.351   7.914   5.077  0.3124  0.1594  0.4465
  390MOL0     C51366   2.222   7.877   5.088  0.5846  0.5271  0.9366
  390MOL0     C51367   2.151   7.981   5.048  0.7318  0.0704  0.4063
  390MOL0     C51368   2.001   7.992   5.021  0.5313  0.7027  0.5447
  390MOL0     C51369   1.932   8.061   5.143 -0.0131 -0.9638 -0.0562
  390MOL0     C51370   1.925   7.980   5.270  0.0003 -0.1033 -0.1179
  390MOL0     C51371   1.826   8.058   5.358 -0.9565 -1.2594  0.7143
  390MOL0     O51372   1.893   8.175   5.414 -0.3278  0.3283 -0.2653
  390MOL0     C51373   1.817   8.253   5.497  0.3326 -0.0651  0.0754
  390MOL0     C51374   1.878   8.342   5.573  0.2921 -0.3644 -0.4706
  390MOL0     C51375   1.818   8.432   5.664 -0.2432  0.5191 -0.3657
  390MOL0     C51376   1.680   8.432   5.678 -0.3648 -1.1459  0.2222
  390MOL0     C51377   1.618   8.536   5.760  0.0244  0.3328  0.0672
  390MOL0     O51378   1.484   8.547   5.752  0.1250  0.0784  0.3421
  390MOL0     C51379   1.418   8.613   5.851  0.4408 -0.4143 -0.5028
  390MOL0     C51380   1.418   8.556   5.975 -0.9824  1.1482  0.0606
  390MOL0     C51381   1.328   8.604   6.072 -0.7631  0.3429 -0.8057
  390MOL0     C51382   1.238   8.717   6.055 -0.5104  0.2135  1.2041
  390MOL0     O51383   1.159   8.756   6.153 -0.0590  0.7090 -0.1833
  390MOL0     C51384   1.174   8.892   6.191  0.0835  0.0886  0.0531
  390MOL0     C51385   1.097   8.923   6.323  0.0523  0.8359  0.4690
  390MOL0     C51386   1.155   8.870   6.452 -0.3054 -1.3253  0.4143
  390MOL0     C51387   1.170   8.718   6.460 -0.8770  0.1497  0.7602
  390MOL0     C51388   1.211   8.659   6.588 -0.6182 -0.4910  0.4139
  390MOL0     C51389   1.098   8.622   6.688 -0.0179 -0.0095  0.0478
  390MOL0     C51390   1.132   8.573   6.831 -0.4524  0.3211 -0.3410
  390MOL0     C51391   1.012   8.562   6.927  0.1043  0.4698 -1.1877
  390MOL0    Cl51392   0.899   8.433   6.883 -0.5085 -0.0031  0.1530
  390MOL0     C51393   1.240   8.772   5.927 -0.1754 -1.0686 -0.7829
  390MOL0     C51394   1.325   8.720   5.830 -0.2765 -0.2353 -0.9147
  390MOL0     O51395   1.691   8.609   5.832 -0.4830  0.7526 -0.2303
  390MOL0     C51396   1.603   8.342   5.600  0.1550  0.5859 -0.2119
  390MOL0     C51397   1.673   8.256   5.516 -0.1064 -0.5511 -1.0498
  390MOL0     N51398   2.233   8.092   5.045  0.6250 -0.2977 -0.6517
  390MOL0     N51399   2.356   8.048   5.062  0.3384  0.0935  0.1111
  390MOL0     C51400   2.512   6.779   4.674  0.2678 -0.3919 -0.7101
  390MOL0     C51401   2.440   6.687   4.588 -0.2706 -0.5460 -0.1597
  390MOL0     C51402   2.031   6.530   4.361 -0.1330 -1.0342  0.6588
  390MOL0     C51403   1.894   6.499   4.352  0.0612  0.7503 -0.0337
  390MOL0     C51404   1.829   6.479   4.223 -0.1722  0.3853  0.5166
  390MOL0     C51405   1.894   6.505   4.108 -0.6886 -0.1543 -0.0161
  390MOL0     O51406   1.801   6.482   4.006  0.3334 -0.0399  0.5385
  390MOL0     C51407   1.849   6.508   3.868  0.1932 -0.2574  0.8381
  390MOL0     C51408   1.858   6.657   3.845 -0.1698 -0.7917 -0.2304
  390MOL0     C51409   1.901   6.699   3.704  0.8489  0.7124 -0.8129
  390MOL0     C51410   1.784   6.700   3.601 -0.0117  0.5197  0.2047
  390MOL0     C51411   1.657   6.774   3.632  0.8664  0.9567  0.0734
  390MOL0     C51412   1.558   6.832   3.664  0.4535 -0.1692  0.0315
  390MOL0     C51413   2.029   6.526   4.106 -0.2979 -1.0446 -0.3640
  390MOL0     C51414   2.095   6.543   4.233  0.5660 -0.2413 -2.1688
  390MOL0     H51415   2.120   6.752   4.701 -0.8054  1.0834 -2.4158
  390MOL0     H51416   2.232   6.873   4.845  3.3793  0.9104  1.8866
  390MOL0     H51417   2.662   6.986   4.753  1.9285 -1.8333  0.4061
  390MOL0     H51418   2.669   6.916   4.914 -1.8030  0.1784  1.8759
  390MOL0     H51419   2.741   7.159   4.889 -1.1890 -2.4942 -2.4010
  390MOL0     H51420   2.639   7.111   5.021 -1.8237 -4.1113 -0.5926
  390MOL0     H51421   2.449   7.193   4.869  0.6717 -1.6875 -0.0526
  390MOL0     H51422   2.589   7.259   4.777  1.0423 -0.9993  0.3960
  390MOL0     H51423   2.526   7.320   5.062 -0.1864 -1.2687 -0.7754
  390MOL0     H51424   2.673   7.371   4.967 -0.8337  0.9219 -2.0421
  390MOL0     H51425   2.383   7.472   4.946  1.1819 -2.9572  2.7154
  390MOL0     H51426   2.491   7.487   4.812  0.8880 -0.4367 -0.0705
  390MOL0     H51427   2.636   7.627   4.963  0.2437 -1.0300  0.4270
  390MOL0     H51428   2.538   7.565   5.096  0.7598  2.0252  0.3545
  390MOL0     H51429   2.436   7.728   4.861 -0.6792  0.4629  0.2131
  390MOL0     H51430   2.340   7.660   4.994 -0.7400 -2.1300 -1.0291
  390MOL0     H51431   2.550   7.883   5.020 -1.8876  2.8107  0.1956
  390MOL0     H51432   2.506   7.792   5.157  2.5253  0.0252 -0.2107
  390MOL0     H51433   2.175   7.780   5.105  0.9112  0.1607 -0.1555
  390MOL0     H51434   1.964   7.891   5.000  2.0476  0.5382 -1.6708
  390MOL0     H51435   1.990   8.051   4.930  4.2009 -1.2936 -1.4110
  390MOL0     H51436   1.831   8.088   5.110 -0.5187 -2.1402  0.4842
  390MOL0     H51437   1.990   8.151   5.167 -0.1884 -0.3707 -1.7241
  390MOL0     H51438   1.879   7.884   5.246  3.4735 -1.3883 -2.2748
  390MOL0     H51439   2.023   7.963   5.316  1.0649  1.0190 -1.8672
  390MOL0     H51440   1.783   7.992   5.434 -3.0669 -2.1081 -1.0829
  390MOL0     H51441   1.745   8.086   5.289  0.6038 -1.5876 -1.3573
  390MOL0     H51442   1.985   8.348   5.556  0.8333  0.6055  2.6667
  390MOL0     H51443   1.885   8.495   5.721 -1.6762  0.6313  1.2531
  390MOL0     H51444   1.491   8.479   5.997 -0.2468  1.8904  0.2873
  390MOL0     H51445   1.325   8.558   6.170 -0.0235  2.7619  0.4464
  390MOL0     H51446   1.136   8.961   6.114  0.1711 -0.1921 -0.2421
  390MOL0     H51447   1.280   8.912   6.209 -0.2491 -0.0808  2.6499
  390MOL0     H51448   0.997   8.879   6.309  0.2348 -0.6234  3.2106
  390MOL0     H51449   1.090   9.032   6.320  0.1540  0.8276 -0.3471
  390MOL0     H51450   1.074   8.899   6.519 -1.1511 -1.0728 -0.6905
  390MOL0     H51451   1.249   8.923   6.472 -0.1503 -1.8458  1.1061
  390MOL0     H51452   1.081   8.671   6.418 -1.2162  1.9565 -0.6622
  390MOL0     H51453   1.252   8.686   6.396 -0.2469 -1.6622  2.3693
  390MOL0     H51454   1.281   8.731   6.631  0.2255  0.4254 -2.3088
  390MOL0     H51455   1.263   8.566   6.563 -1.1431 -1.2014  1.8555
  390MOL0     H51456   1.035   8.549   6.636 -0.6118 -0.1628  0.9714
  390MOL0     H51457   1.038   8.712   6.697 -0.4713 -0.2536 -0.4709
  390MOL0     H51458   1.186   8.479   6.823 -1.1375  0.0493 -2.2781
  390MOL0     H51459   1.209   8.636   6.876 -0.5205 -0.3964  0.8001
  390MOL0     H51460   0.965   8.659   6.944  0.9033  0.5327  1.0121
  390MOL0     H51461   1.056   8.548   7.026 -1.3789  5.0056  0.3816
  390MOL0     H51462   1.188   8.866   5.919  1.3070 -0.0444  0.8422
  390MOL0     H51463   1.336   8.761   5.730 -1.6079 -0.4005 -1.1470
  390MOL0     H51464   1.495   8.337   5.596  0.2681 -1.6673 -2.5503
  390MOL0     H51465   1.608   8.197   5.452  0.6254 -2.2258 -0.3337
  390MOL0     H51466   2.620   6.786   4.676  0.3086 -1.0662  0.6170
  390MOL0     H51467   2.484   6.637   4.502  1.7299  1.7282 -0.6018
  390MOL0     H51468   1.833   6.488   4.440  0.5596 -0.1333  0.2222
  390MOL0     H51469   1.725   6.450   4.214  0.6029 -2.2573 -0.8331
  390MOL0     H51470   1.772   6.481   3.796  0.8920  1.6473 -0.6984
  390MOL0     H51471   1.947   6.470   3.839 -0.7462  0.4713 -4.1063
  390MOL0     H51472   1.768   6.715   3.870  1.0925  0.2656  2.1327
  390MOL0     H51473   1.943   6.693   3.904 -1.3611  0.9531  0.4823
  390MOL0     H51474   1.976   6.628   3.668 -0.2718 -0.2644 -1.2802
  390MOL0     H51475   1.950   6.796   3.698  1.0771  0.5269 -2.2944
  390MOL0     H51476   1.825   6.722   3.503 -0.6005 -2.5260 -0.8070
  390MOL0     H51477   1.764   6.593   3.598  0.1235  0.5038 -0.1080
  390MOL0     H51478   1.475   6.892   3.694  0.9806  1.3258 -1.3219
  390MOL0     H51479   2.095   6.539   4.020  1.6798 -0.6353  1.1460
  390MOL0     H51480   2.201   6.567   4.233  0.5530 -0.1287 -0.9361
  391MOL0     O51481   1.038   2.311   8.581  0.4965  0.7730  0.1101
  391MOL0     C51482   1.052   2.239   8.680  0.6519  0.0768 -0.0093
  391MOL0     O51483   1.138   2.267   8.786 -0.1942  0.0854 -0.7193
  391MOL0     C51484   1.210   2.389   8.788 -0.0284  0.2047  0.3669
  391MOL0     C51485   1.243   2.467   8.678  0.4113 -0.9794  0.4866
  391MOL0     C51486   1.276   2.605   8.698 -0.0180  0.2257  1.7758
  391MOL0     C51487   1.296   2.659   8.824 -0.5107 -0.4144  0.1643
  391MOL0     O51488   1.343   2.787   8.832  0.1621 -0.3886 -0.0193
  391MOL0     C51489   1.378   2.838   8.965 -0.3627 -0.5943  0.3264
  391MOL0     C51490   1.403   2.985   8.942  0.2018  0.4927  0.3928
  391MOL0     C51491   1.284   3.055   8.862  0.5694  0.0141 -0.3345
  391MOL0     C51492   1.276   3.208   8.891 -1.2549  0.1949  0.0704
  391MOL0     C51493   1.214   3.284   8.771 -0.4729  0.0125  0.3692
  391MOL0     C51494   1.075   3.248   8.757  0.5762  0.2346  0.1874
  391MOL0     C51495   0.982   3.250   8.885 -1.2651 -0.1899  0.9146
  391MOL0     C51496   0.839   3.246   8.836 -0.9476  0.9295  0.2272
  391MOL0     N51497   0.734   3.251   8.949  0.8788  0.6688  0.1260
  391MOL0     C51498   0.730   3.183   9.069  0.3189  0.4852 -0.6558
  391MOL0     C51499   0.610   3.227   9.127 -0.1030 -0.1746  0.1624
  391MOL0     C51500   0.571   3.212   9.279  0.2552  0.0959  0.3546
  391MOL0     C51501   0.476   3.320   9.333  0.0843  0.2245  0.0238
  391MOL0     C51502   0.466   3.301   9.487 -0.0235 -0.6550 -0.2358
  391MOL0     C51503   0.410   3.432   9.533  0.4558  0.2703  0.0181
  391MOL0     O51504   0.388   3.436   9.672 -0.2177 -0.4006 -0.9532
  391MOL0     C51505   0.260   3.479   9.707 -0.3031 -0.5129  0.3492
  391MOL0     C51506   0.182   3.585   9.649 -0.1009  0.2230  0.7699
  391MOL0     C51507   0.060   3.618   9.710 -0.5904  0.4469  0.1662
  391MOL0     C51508   0.013   3.549   9.817 -1.2941 -0.9291 -0.3621
  391MOL0     C51509  -0.122   3.589   9.874 -0.4740  0.0552 -0.0313
  391MOL0     O51510  -0.204   3.667   9.800  0.0224  0.0224  0.5628
  391MOL0     C51511  -0.328   3.699   9.841 -0.3706 -0.1858  1.0502
  391MOL0     C51512  -0.375   3.819   9.791  0.7602  0.2391 -0.0465
  391MOL0     C51513  -0.501   3.863   9.830  0.0197  1.1138 -0.1805
  391MOL0     C51514  -0.584   3.795   9.914  0.0538 -0.1766 -0.2840
  391MOL0     O51515  -0.713   3.832   9.938  0.4701  0.2838 -0.6326
  391MOL0     C51516  -0.759   3.815  10.068 -0.3457  0.1221  0.9703
  391MOL0     C51517  -0.898   3.860  10.084  0.3319 -0.6015 -0.5105
  391MOL0     C51518  -0.948   3.897  10.225 -0.9068  0.5477 -0.6458
  391MOL0     C51519  -1.103   3.884  10.224  0.3037  0.1436  0.1234
  391MOL0     C51520  -1.161   3.923  10.356 -0.2786 -0.4331  0.0610
  391MOL0     C51521  -1.315   3.942  10.351  0.4194 -0.9544  1.1833
  391MOL0     C51522  -1.388   3.806  10.341  0.1374 -0.6124 -0.4172
  391MOL0     C51523  -1.546   3.827  10.307  0.5458 -0.4575  0.6025
  391MOL0    Cl51524  -1.616   3.923  10.430  0.1435  0.0656 -0.2481
  391MOL0     C51525  -0.540   3.670   9.956 -0.1697 -0.4242  0.3084
  391MOL0     C51526  -0.413   3.630   9.927 -0.6876 -0.3046 -0.8396
  391MOL0     O51527  -0.155   3.533   9.981 -0.0282 -0.4029 -0.0922
  391MOL0     C51528   0.086   3.449   9.875  0.3100 -0.5001  0.1890
  391MOL0     C51529   0.201   3.404   9.809  0.7320 -0.2311 -0.7037
  391MOL0     N51530   0.550   3.312   9.042 -0.5283 -0.0818  0.3853
  391MOL0     N51531   0.626   3.324   8.935 -0.5607  0.5278  0.6831
  391MOL0     C51532   1.277   2.575   8.934  0.2634  0.3623 -0.5463
  391MOL0     C51533   1.232   2.443   8.917  0.1712  0.8292  0.1835
  391MOL0     C51534   0.999   2.102   8.645 -0.6707  0.8054  0.4894
  391MOL0     C51535   0.942   2.072   8.514 -0.2417  0.9134 -0.1043
  391MOL0     C51536   0.901   1.940   8.474  0.7902 -0.7254  0.5315
  391MOL0     C51537   0.925   1.829   8.563 -0.1578  0.2560 -0.3696
  391MOL0     O51538   0.913   1.695   8.527 -0.1083 -0.0642  0.5139
  391MOL0     C51539   0.781   1.662   8.484  0.6528  0.3021 -0.3758
  391MOL0     C51540   0.766   1.513   8.444  0.4695  0.2456 -0.2307
  391MOL0     C51541   0.815   1.412   8.547  0.3740 -0.4406 -0.8365
  391MOL0     C51542   0.810   1.274   8.487  0.4032  0.6573  0.2763
  391MOL0     C51543   0.932   1.201   8.498  1.2801  0.2376  0.8345
  391MOL0     C51544   1.044   1.155   8.515  0.0397  0.2485 -0.0344
  391MOL0     C51545   0.986   1.856   8.686 -0.3860  0.4708  0.4262
  391MOL0     C51546   1.019   1.988   8.732 -0.2166 -0.2693 -0.1847
  391MOL0     H51547   1.225   2.429   8.578  0.7415  0.5987 -0.2097
  391MOL0     H51548   1.307   2.658   8.609  1.0550 -1.2050  1.2631
  391MOL0     H51549   1.467   2.792   9.010  0.6850  1.6092  0.6467
  391MOL0     H51550   1.299   2.820   9.039  0.0562  0.7247  1.1331
  391MOL0     H51551   1.497   3.004   8.889  0.7768  0.2654  1.3109
  391MOL0     H51552   1.407   3.029   9.042  3.8377  1.7262 -0.1220
  391MOL0     H51553   1.186   3.012   8.886 -0.4441  2.2873 -0.0921
  391MOL0     H51554   1.295   3.041   8.754 -3.1184 -1.5982 -0.6739
  391MOL0     H51555   1.238   3.224   8.992 -1.4032 -1.3044  0.2814
  391MOL0     H51556   1.375   3.255   8.896 -1.2646  0.5359 -2.1589
  391MOL0     H51557   1.276   3.272   8.682  1.6355  5.7072  0.6711
  391MOL0     H51558   1.219   3.391   8.791 -0.6245 -0.0015  0.4790
  391MOL0     H51559   1.071   3.146   8.718  0.5683  0.3606 -0.1373
  391MOL0     H51560   1.047   3.324   8.683  1.4368  0.4837  0.1066
  391MOL0     H51561   1.010   3.164   8.945  0.7866 -0.6202 -0.5436
  391MOL0     H51562   1.005   3.341   8.941 -4.0768  1.0753  0.1564
  391MOL0     H51563   0.821   3.158   8.775 -1.3004  3.0119 -2.8720
  391MOL0     H51564   0.818   3.333   8.773 -1.5820 -0.2617 -1.2420
  391MOL0     H51565   0.811   3.128   9.115  1.7610  2.7473 -0.3624
  391MOL0     H51566   0.664   3.201   9.335  1.2467  2.6884 -0.6145
  391MOL0     H51567   0.529   3.111   9.281  3.6117 -1.6960 -3.9704
  391MOL0     H51568   0.379   3.320   9.283  0.6078 -1.8241 -1.0615
  391MOL0     H51569   0.514   3.422   9.323 -1.6693  1.2374  2.6150
  391MOL0     H51570   0.395   3.224   9.519 -1.7806  1.8025  2.2703
  391MOL0     H51571   0.564   3.294   9.536  0.5468 -0.6595 -1.3635
  391MOL0     H51572   0.318   3.445   9.475  0.3960  0.7785  0.2203
  391MOL0     H51573   0.478   3.515   9.511  1.1067 -0.1248  0.5062
  391MOL0     H51574   0.229   3.630   9.562  2.1463  2.7968  3.1198
  391MOL0     H51575   0.024   3.711   9.669 -1.1714 -0.8335 -2.4225
  391MOL0     H51576  -0.322   3.882   9.720 -0.4842 -2.2562 -3.4399
  391MOL0     H51577  -0.539   3.959   9.795 -2.5624 -0.0232 -0.7235
  391MOL0     H51578  -0.682   3.866  10.127  1.2100 -1.3895  0.3302
  391MOL0     H51579  -0.767   3.708  10.089  1.6853 -0.0281  1.2582
  391MOL0     H51580  -0.959   3.782  10.037 -0.8481  0.5895 -1.0071
  391MOL0     H51581  -0.904   3.952  10.025 -1.8965  0.9652  1.9408
  391MOL0     H51582  -0.907   3.992  10.261 -0.4748  0.8229 -1.8097
  391MOL0     H51583  -0.901   3.826  10.293  0.8973  3.6104  1.5926
  391MOL0     H51584  -1.147   3.957  10.156 -2.9546  2.5722  4.3371
  391MOL0     H51585  -1.130   3.783  10.192  0.6756 -0.5116  1.7555
  391MOL0     H51586  -1.111   4.015  10.387 -0.1143 -0.3789 -0.3571
  391MOL0     H51587  -1.150   3.852  10.439 -1.4375  0.1392  0.7258
  391MOL0     H51588  -1.357   3.999  10.268  0.3688 -0.0203  1.8334
  391MOL0     H51589  -1.339   4.000  10.441  1.0209  0.9522  0.1747
  391MOL0     H51590  -1.336   3.741  10.270  0.4066 -2.1650  1.1551
  391MOL0     H51591  -1.388   3.765  10.442  1.9793  2.1131  0.7979
  391MOL0     H51592  -1.600   3.732  10.297  0.8348 -0.9699  3.2293
  391MOL0     H51593  -1.561   3.882  10.214 -0.2439 -0.0324  0.9673
  391MOL0     H51594  -0.597   3.604  10.021 -0.6432  1.1827  1.6171
  391MOL0     H51595  -0.390   3.537   9.978  0.1880  1.6981  2.7483
  391MOL0     H51596   0.039   3.397   9.958  0.5574 -0.4869  0.3372
  391MOL0     H51597   0.252   3.324   9.861 -2.2279 -1.2752  0.7871
  391MOL0     H51598   1.290   2.604   9.038  1.5578 -1.1286 -0.2546
  391MOL0     H51599   1.223   2.385   9.008 -0.3652  2.1735  1.0264
  391MOL0     H51600   0.931   2.162   8.454  2.7845  2.0644  0.8491
  391MOL0     H51601   0.859   1.923   8.375 -0.8116  3.6301  0.2815
  391MOL0     H51602   0.774   1.734   8.402 -1.0842  2.6620  1.6871
  391MOL0     H51603   0.704   1.692   8.555  0.8282  5.4890 -1.9468
  391MOL0     H51604   0.660   1.503   8.420 -0.0289  0.4833  1.7189
  391MOL0     H51605   0.836   1.517   8.360  2.0470  3.6428  1.0512
  391MOL0     H51606   0.746   1.416   8.631  3.5759  0.2219  1.9994
  391MOL0     H51607   0.917   1.439   8.579  0.4340 -0.6258 -0.8666
  391MOL0     H51608   0.736   1.216   8.543  2.5154 -1.8739  0.6438
  391MOL0     H51609   0.782   1.286   8.382 -3.2032 -2.8929  0.5814
  391MOL0     H51610   1.124   1.090   8.541  0.0884  0.1901 -0.3258
  391MOL0     H51611   1.008   1.770   8.748 -2.8734 -1.5364 -1.2346
  391MOL0     H51612   1.077   2.011   8.820 -1.6681 -0.1036  0.7557
  392MOL0     O51613   1.105   9.070   1.082  0.6982 -0.3433 -0.0509
  392MOL0     C51614   1.141   9.179   1.123  0.6911 -0.8032  0.2844
  392MOL0     O51615   1.275   9.225   1.146  0.6015  0.5149  0.3707
  392MOL0     C51616   1.362   9.142   1.212  0.1251 -1.0286  0.7069
  392MOL0     C51617   1.351   9.009   1.246  0.0673  0.6105  0.1508
  392MOL0     C51618   1.453   8.928   1.304  0.4023  0.3396 -0.2608
  392MOL0     C51619   1.580   8.992   1.315 -1.0173  0.4997 -0.9539
  392MOL0     O51620   1.674   8.911   1.372  0.2872  0.0480  0.0097
  392MOL0     C51621   1.809   8.923   1.321  0.4761  0.0013 -0.8280
  392MOL0     C51622   1.853   8.774   1.297 -1.0902  0.0310 -0.0366
  392MOL0     C51623   1.773   8.709   1.187  0.3263  0.7705 -0.5637
  392MOL0     C51624   1.824   8.564   1.155  1.2092 -0.0471  0.0389
  392MOL0     C51625   1.719   8.480   1.073 -0.0389  0.0251  0.7730
  392MOL0     C51626   1.679   8.547   0.947  1.0535  0.1105  0.8203
  392MOL0     C51627   1.567   8.475   0.882 -0.1053  0.0716 -0.4457
  392MOL0     C51628   1.634   8.386   0.774 -0.3376 -0.2895  0.1811
  392MOL0     N51629   1.538   8.293   0.721 -0.9091  0.3744 -0.4849
  392MOL0     C51630   1.434   8.326   0.641  1.0412  0.5521  0.4404
  392MOL0     C51631   1.394   8.208   0.591  0.1987  0.7789 -0.3551
  392MOL0     C51632   1.274   8.179   0.497 -0.6080 -0.0903 -0.2294
  392MOL0     C51633   1.144   8.191   0.577 -0.7367 -0.3333 -0.2103
  392MOL0     C51634   1.016   8.152   0.501  0.0961  1.0113 -0.0150
  392MOL0     C51635   0.900   8.111   0.598 -0.2014  0.4257 -1.6689
  392MOL0     O51636   0.826   8.220   0.653 -0.0132  0.0193 -0.1988
  392MOL0     C51637   0.761   8.308   0.565 -0.3363  0.5221 -0.0207
  392MOL0     C51638   0.706   8.255   0.442  1.1476 -0.4893  0.2805
  392MOL0     C51639   0.620   8.343   0.375 -1.3626  0.5337  0.6927
  392MOL0     C51640   0.586   8.467   0.425  1.4291 -1.1858  1.7772
  392MOL0     C51641   0.494   8.553   0.345  0.6500  0.1744  0.2015
  392MOL0     O51642   0.458   8.493   0.221 -0.6130 -0.6057 -0.7461
  392MOL0     C51643   0.372   8.565   0.137 -0.8135  0.4714 -0.6658
  392MOL0     C51644   0.245   8.524   0.107 -0.0496  0.3279 -0.0127
  392MOL0     C51645   0.167   8.611   0.022  0.1272 -0.4291  1.1203
  392MOL0     C51646   0.218   8.730  -0.038 -0.8749 -0.1711 -0.3608
  392MOL0     O51647   0.139   8.794  -0.125 -0.7579 -0.3492 -0.3744
  392MOL0     C51648   0.180   8.921  -0.165 -0.2249  0.7349 -1.2130
  392MOL0     C51649   0.071   8.991  -0.230 -0.3879  0.1278 -0.3172
  392MOL0     C51650   0.022   8.902  -0.351 -0.6208  0.2474 -0.4837
  392MOL0     C51651  -0.089   8.975  -0.438 -0.5368 -0.4248  0.0745
  392MOL0     C51652  -0.125   8.899  -0.571 -0.8718  0.3586 -0.6914
  392MOL0     C51653  -0.181   8.990  -0.680  1.1458  0.6773  0.0154
  392MOL0     C51654  -0.265   8.911  -0.788 -0.6956  0.5833 -0.4935
  392MOL0     C51655  -0.270   9.000  -0.913 -0.1030  0.2135  0.1385
  392MOL0    Cl51656  -0.329   8.916  -1.044 -0.4325 -0.4973 -0.1177
  392MOL0     C51657   0.342   8.768   0.005  0.0848  0.0985 -0.8680
  392MOL0     C51658   0.418   8.690   0.093 -0.8582 -0.5072  0.5074
  392MOL0     O51659   0.448   8.660   0.392 -1.2114 -0.3284 -0.1421
  392MOL0     C51660   0.658   8.525   0.528 -0.3396  0.2485  0.6184
  392MOL0     C51661   0.742   8.441   0.601  0.1402  0.0529 -0.4956
  392MOL0     N51662   1.472   8.115   0.655 -0.1440 -0.3962 -0.3370
  392MOL0     N51663   1.555   8.158   0.738  0.4745 -0.1713  0.1091
  392MOL0     C51664   1.592   9.128   1.271  0.2722 -0.4689 -0.5758
  392MOL0     C51665   1.484   9.205   1.241  0.2779 -0.3783  0.9617
  392MOL0     C51666   1.046   9.288   1.093  0.2278 -0.5543  0.2154
  392MOL0     C51667   1.091   9.418   1.055 -0.2930  0.7878  0.4727
  392MOL0     C51668   1.000   9.523   1.034 -0.2185 -0.8744  0.0079
  392MOL0     C51669   0.859   9.502   1.042  0.1493 -0.0797 -0.1343
  392MOL0     O51670   0.780   9.603   1.019 -0.4471  0.0709  0.3418
  392MOL0     C51671   0.639   9.576   0.991 -0.4062 -0.0486 -0.1643
  392MOL0     C51672   0.567   9.699   0.948 -0.0471 -0.0048 -0.5383
  392MOL0     C51673   0.544   9.801   1.061 -0.9156  0.5226 -0.4037
  392MOL0     C51674   0.441   9.913   1.037 -1.0032  0.8630  0.3071
  392MOL0     C51675   0.396   9.971   1.165  0.2820 -1.1523 -0.0984
  392MOL0     C51676   0.375  10.034   1.266 -0.4210 -0.0008  0.1393
  392MOL0     C51677   0.812   9.373   1.078 -0.1102 -0.0488 -0.5721
  392MOL0     C51678   0.910   9.274   1.104 -0.5867  1.1071 -1.0396
  392MOL0     H51679   1.249   8.972   1.250  0.9302 -1.9352  4.5848
  392MOL0     H51680   1.436   8.822   1.319 -2.6464  0.5530 -1.3474
  392MOL0     H51681   1.869   8.961   1.404 -1.3838 -2.9728  2.1617
  392MOL0     H51682   1.841   8.976   1.232  2.4836 -1.3477 -0.9775
  392MOL0     H51683   1.841   8.720   1.392 -0.2493  0.9839  0.6302
  392MOL0     H51684   1.958   8.767   1.269 -1.1351  0.0701 -0.2137
  392MOL0     H51685   1.776   8.782   1.106 -0.1159  0.5032 -0.8254
  392MOL0     H51686   1.668   8.701   1.219  0.8494  0.4569  1.1903
  392MOL0     H51687   1.922   8.583   1.111  0.9172  0.1991 -0.5129
  392MOL0     H51688   1.842   8.508   1.247 -1.3452  1.2642  1.4721
  392MOL0     H51689   1.639   8.464   1.145 -0.0346 -3.5094  0.1918
  392MOL0     H51690   1.768   8.382   1.064  1.7500  1.0035 -0.9114
  392MOL0     H51691   1.761   8.556   0.875 -1.7893  0.0875 -2.7056
  392MOL0     H51692   1.657   8.652   0.968  1.8537  0.0830  1.8914
  392MOL0     H51693   1.489   8.431   0.946 -0.6974 -0.2208 -1.3433
  392MOL0     H51694   1.516   8.556   0.830 -2.1399 -1.6860 -1.3699
  392MOL0     H51695   1.718   8.327   0.811  1.2672 -0.4470 -3.3134
  392MOL0     H51696   1.669   8.456   0.697  1.3056 -2.5842 -1.2903
  392MOL0     H51697   1.388   8.420   0.614  0.1176 -0.2966 -1.0844
  392MOL0     H51698   1.283   8.076   0.462 -1.5632 -1.7046  3.7113
  392MOL0     H51699   1.283   8.256   0.419 -1.9067  3.1503  2.5453
  392MOL0     H51700   1.136   8.295   0.612 -1.6686 -0.5594  0.2840
  392MOL0     H51701   1.149   8.128   0.666 -1.6086 -0.5291 -0.2975
  392MOL0     H51702   0.982   8.235   0.439 -2.1579 -0.9117 -1.5545
  392MOL0     H51703   1.042   8.064   0.442  4.0472  1.2082  1.1584
  392MOL0     H51704   0.943   8.056   0.682  0.9563  2.1420 -1.0782
  392MOL0     H51705   0.823   8.045   0.556 -0.8961 -0.0569  0.2455
  392MOL0     H51706   0.718   8.157   0.397  3.0158 -1.7486  3.2399
  392MOL0     H51707   0.586   8.309   0.278 -1.1767 -1.1555  1.1855
  392MOL0     H51708   0.207   8.430   0.147 -0.3465  1.7126  3.2412
  392MOL0     H51709   0.062   8.589   0.007  0.1844 -0.5879  0.9533
  392MOL0     H51710   0.262   8.927  -0.236  1.5951  1.8501  0.8626
  392MOL0     H51711   0.205   8.977  -0.074  2.5182  1.3867 -2.2902
  392MOL0     H51712   0.109   9.079  -0.283  2.8255 -0.5250  0.6266
  392MOL0     H51713  -0.018   9.011  -0.171 -0.1889 -1.7778  0.7089
  392MOL0     H51714  -0.025   8.820  -0.296 -0.5673  1.7286  1.8963
  392MOL0     H51715   0.100   8.866  -0.419 -2.1113  0.7310 -2.5381
  392MOL0     H51716  -0.176   8.989  -0.374  0.9542  4.2692  1.5223
  392MOL0     H51717  -0.070   9.079  -0.466  0.9516 -0.7594 -0.2493
  392MOL0     H51718  -0.195   8.818  -0.549 -1.6470  0.1318 -3.5513
  392MOL0     H51719  -0.032   8.848  -0.599 -1.4439  0.0654 -2.1917
  392MOL0     H51720  -0.098   9.046  -0.725  2.4256 -1.9429 -1.0749
  392MOL0     H51721  -0.252   9.051  -0.622  0.2392  0.1888 -0.5674
  392MOL0     H51722  -0.219   8.814  -0.808 -0.7294  0.2723  0.8175
  392MOL0     H51723  -0.370   8.892  -0.763 -0.6571 -2.3116 -2.1447
  392MOL0     H51724  -0.166   9.022  -0.937  0.0172 -2.2370 -2.1043
  392MOL0     H51725  -0.329   9.091  -0.898  0.4368  0.5650  0.1388
  392MOL0     H51726   0.379   8.857  -0.045 -2.7959  0.1520 -3.1463
  392MOL0     H51727   0.515   8.729   0.121 -0.2541 -1.3206 -0.3923
  392MOL0     H51728   0.642   8.626   0.562  3.1497  0.4705  2.0626
  392MOL0     H51729   0.800   8.471   0.688 -2.0540  2.7178  0.2095
  392MOL0     H51730   1.686   9.181   1.277 -0.0089 -0.1326  2.3128
  392MOL0     H51731   1.504   9.310   1.221  2.0683 -0.6423  1.1817
  392MOL0     H51732   1.194   9.436   1.028 -0.4752  0.0632 -0.7603
  392MOL0     H51733   1.028   9.623   1.002 -3.5844  0.6207  1.2483
  392MOL0     H51734   0.597   9.529   1.081  0.9300  0.2901  0.6718
  392MOL0     H51735   0.634   9.499   0.913 -0.9203  0.2780 -0.4601
  392MOL0     H51736   0.632   9.752   0.877  2.9577 -1.3013  1.0529
  392MOL0     H51737   0.466   9.674   0.913 -0.8171  0.3126  1.3631
  392MOL0     H51738   0.639   9.843   1.095  0.0395 -1.0204 -1.0656
  392MOL0     H51739   0.493   9.738   1.135 -1.6611  0.1661 -1.2068
  392MOL0     H51740   0.485   9.985   0.967 -0.7441  1.2086  0.8265
  392MOL0     H51741   0.351   9.876   0.987 -0.3570 -0.0817 -0.1872
  392MOL0     H51742   0.383  10.103   1.348  1.4644  0.7388 -0.6240
  392MOL0     H51743   0.706   9.353   1.075 -0.3542  1.2564 -3.4012
  392MOL0     H51744   0.875   9.178   1.140 -3.0238  1.9014 -1.0942
  393MOL0     O51745   5.604  10.359   7.835  0.1094  0.7635  0.3493
  393MOL0     C51746   5.672  10.299   7.762 -0.4302  0.1826  0.1977
  393MOL0     O51747   5.722  10.180   7.789 -0.5668 -0.5468  0.8095
  393MOL0     C51748   5.702  10.107   7.909 -0.7365  0.4120 -0.1168
  393MOL0     C51749   5.817  10.032   7.954  0.1341 -0.0479  0.8480
  393MOL0     C51750   5.794   9.947   8.065  0.3542  0.0687  0.1777
  393MOL0     C51751   5.666   9.937   8.125  0.2593  0.5645  0.0456
  393MOL0     O51752   5.631   9.866   8.243  0.8039 -0.1813  0.1791
  393MOL0     C51753   5.729   9.793   8.305 -0.6514 -0.3853 -0.5573
  393MOL0     C51754   5.676   9.716   8.426  0.0034  0.3945 -0.3508
  393MOL0     C51755   5.565   9.619   8.382 -0.2406 -0.0255  1.3161
  393MOL0     C51756   5.558   9.489   8.465 -1.0339 -0.3755  0.0597
  393MOL0     C51757   5.412   9.439   8.463  0.5056  0.1141 -1.1721
  393MOL0     C51758   5.394   9.285   8.458  0.9710 -0.0055  0.2329
  393MOL0     C51759   5.465   9.210   8.568 -0.1708  0.1017 -0.6336
  393MOL0     C51760   5.417   9.261   8.706 -0.0938 -0.2211 -1.4396
  393MOL0     N51761   5.275   9.228   8.738 -0.2117  0.8122 -0.1859
  393MOL0     C51762   5.168   9.314   8.732  0.8595 -0.4660  0.2530
  393MOL0     C51763   5.061   9.245   8.772  1.0617 -0.2084  0.6804
  393MOL0     C51764   4.919   9.284   8.757  0.4535 -0.0905  0.2690
  393MOL0     C51765   4.865   9.243   8.620 -0.3874 -0.9460 -0.2593
  393MOL0     C51766   4.713   9.234   8.594 -0.7048  0.2826  0.0383
  393MOL0     C51767   4.649   9.136   8.497  0.8347  0.2186 -0.2938
  393MOL0     O51768   4.656   9.208   8.369  0.5926  0.0545  0.2166
  393MOL0     C51769   4.765   9.218   8.286 -0.6388 -0.2762 -0.1589
  393MOL0     C51770   4.889   9.138   8.305  0.1501 -0.7627  0.0786
  393MOL0     C51771   4.985   9.137   8.206 -0.1765  0.1213  0.0256
  393MOL0     C51772   4.964   9.211   8.083 -0.7333 -0.4397 -0.4691
  393MOL0     C51773   5.070   9.206   7.987  0.6122  0.2354 -0.0922
  393MOL0     O51774   5.196   9.205   8.032  0.0844 -0.3367 -0.0272
  393MOL0     C51775   5.293   9.167   7.944 -0.6918  0.7209 -0.0581
  393MOL0     C51776   5.320   9.237   7.824  0.3852  0.6827 -0.1227
  393MOL0     C51777   5.441   9.215   7.749  0.4949 -0.6812 -0.4139
  393MOL0     C51778   5.531   9.116   7.794 -0.1128  0.2307 -0.1493
  393MOL0     O51779   5.647   9.092   7.721 -0.4382  0.1596 -0.4060
  393MOL0     C51780   5.710   8.961   7.751 -0.7574 -0.3861 -0.6270
  393MOL0     C51781   5.828   8.948   7.662 -0.0548  0.8365  0.2583
  393MOL0     C51782   5.856   8.800   7.637  0.3167 -0.3191 -0.4013
  393MOL0     C51783   5.951   8.785   7.522 -0.4711  0.9803  1.0678
  393MOL0     C51784   6.014   8.647   7.493 -0.6823 -0.1891  0.1257
  393MOL0     C51785   6.108   8.641   7.376  0.1552 -0.3640 -0.1808
  393MOL0     C51786   6.213   8.519   7.414 -0.1914  0.5365  1.4162
  393MOL0     C51787   6.317   8.505   7.301 -0.0040 -0.0124 -0.5918
  393MOL0    Cl51788   6.399   8.651   7.287 -0.0377 -0.0385  0.2019
  393MOL0     C51789   5.506   9.050   7.920  1.3041 -0.2519  0.1358
  393MOL0     C51790   5.393   9.080   7.992  0.2802  0.8693 -0.2331
  393MOL0     O51791   5.037   9.204   7.871 -0.0024 -0.3319 -0.9133
  393MOL0     C51792   4.850   9.288   8.066  1.2596 -0.1304  0.8481
  393MOL0     C51793   4.748   9.288   8.160  0.7202 -0.0057 -0.2401
  393MOL0     N51794   5.105   9.112   8.802 -0.5393 -0.2150  0.2547
  393MOL0     N51795   5.229   9.101   8.783 -0.1330 -0.1147 -0.0258
  393MOL0     C51796   5.561  10.021   8.080 -1.1487  0.7063 -0.0355
  393MOL0     C51797   5.576  10.103   7.965  0.0595 -0.5939 -0.7346
  393MOL0     C51798   5.711  10.370   7.643 -0.1505  0.3029  0.0661
  393MOL0     C51799   5.840  10.348   7.576  0.0080 -0.1290 -0.9885
  393MOL0     C51800   5.871  10.431   7.468 -1.0152  0.6476  1.2341
  393MOL0     C51801   5.773  10.515   7.408  0.2517 -0.1331 -0.0968
  393MOL0     O51802   5.809  10.583   7.296  0.1423  0.1803 -0.0876
  393MOL0     C51803   5.738  10.535   7.175 -1.5300  0.6091  0.4627
  393MOL0     C51804   5.801  10.589   7.047 -0.4642 -0.8660  0.6658
  393MOL0     C51805   5.795  10.737   7.024  0.1954  0.4634  0.4632
  393MOL0     C51806   5.838  10.780   6.878  0.7831  0.1798 -0.2863
  393MOL0     C51807   5.945  10.709   6.808  0.0698  0.4672  0.0245
  393MOL0     C51808   6.032  10.639   6.757  0.3965  0.5752 -0.0087
  393MOL0     C51809   5.643  10.537   7.470  0.1257  0.0944  0.9676
  393MOL0     C51810   5.615  10.461   7.583  0.5397  0.3021 -0.8130
  393MOL0     H51811   5.919  10.053   7.923  0.1086 -0.1639  0.6834
  393MOL0     H51812   5.873   9.885   8.107  1.7743  1.3066 -0.5295
  393MOL0     H51813   5.810   9.860   8.335 -2.1604  1.3800 -0.2738
  393MOL0     H51814   5.775   9.722   8.235 -2.0273  0.4851 -2.4375
  393MOL0     H51815   5.646   9.781   8.508 -1.8183 -1.5840  0.6393
  393MOL0     H51816   5.752   9.653   8.473 -0.1619 -0.5334 -1.2997
  393MOL0     H51817   5.569   9.590   8.276 -3.1537  0.9197  0.8469
  393MOL0     H51818   5.474   9.681   8.383 -0.6952 -0.6646  0.8888
  393MOL0     H51819   5.636   9.419   8.433  0.3067  1.0637  0.0831
  393MOL0     H51820   5.593   9.517   8.565  2.1445  0.0953 -1.0624
  393MOL0     H51821   5.360   9.477   8.375 -0.2246 -0.8568 -1.1708
  393MOL0     H51822   5.356   9.488   8.543  3.2672 -0.4914  1.3324
  393MOL0     H51823   5.437   9.254   8.363 -0.3136 -0.9900 -0.0507
  393MOL0     H51824   5.289   9.253   8.451  0.7051  1.1415 -1.3351
  393MOL0     H51825   5.449   9.103   8.554 -1.2228 -0.1050  1.7269
  393MOL0     H51826   5.570   9.239   8.559 -0.1390 -0.4350 -2.6430
  393MOL0     H51827   5.434   9.369   8.715 -1.4939 -0.1437  1.0241
  393MOL0     H51828   5.481   9.208   8.778  0.7224  0.8486 -1.3537
  393MOL0     H51829   5.169   9.418   8.701 -2.0703 -0.6694 -0.8361
  393MOL0     H51830   4.907   9.392   8.758  4.3028  0.4661 -0.3142
  393MOL0     H51831   4.853   9.246   8.836 -0.3171  0.8874  0.1123
  393MOL0     H51832   4.905   9.145   8.594 -0.0463  0.1508 -4.6586
  393MOL0     H51833   4.902   9.314   8.545 -0.2903 -1.7459 -0.9799
  393MOL0     H51834   4.676   9.200   8.691  1.4972  0.9396  1.1523
  393MOL0     H51835   4.665   9.331   8.582 -2.7374 -0.8612 -2.0604
  393MOL0     H51836   4.546   9.123   8.530  0.7877  1.0901 -0.0596
  393MOL0     H51837   4.703   9.041   8.496  2.7968  1.2725 -0.4467
  393MOL0     H51838   4.896   9.080   8.396  0.3816 -0.2749  0.3755
  393MOL0     H51839   5.069   9.071   8.225 -0.9637 -1.2002 -0.9487
  393MOL0     H51840   5.248   9.312   7.793 -1.2561 -1.5288 -2.1271
  393MOL0     H51841   5.460   9.269   7.657  2.7867  2.0202  1.4729
  393MOL0     H51842   5.628   8.891   7.732 -1.3900 -0.4780  1.9741
  393MOL0     H51843   5.746   8.944   7.853  0.6655  3.5539 -0.3013
  393MOL0     H51844   5.912   9.003   7.706  0.5598  1.7365 -1.9244
  393MOL0     H51845   5.809   8.991   7.563 -0.9021 -1.0324 -0.4478
  393MOL0     H51846   5.765   8.741   7.623  0.9990 -1.0584 -1.9234
  393MOL0     H51847   5.898   8.765   7.732  1.7569  2.3069  0.0205
  393MOL0     H51848   5.901   8.810   7.428 -1.0643 -2.5380  0.2940
  393MOL0     H51849   6.031   8.858   7.530 -1.5031  1.9859  2.7171
  393MOL0     H51850   5.932   8.575   7.489 -0.8779 -0.2219  3.0609
  393MOL0     H51851   6.068   8.636   7.587  0.5700  1.9711 -0.2732
  393MOL0     H51852   6.166   8.732   7.363 -1.0318  0.0668 -3.0027
  393MOL0     H51853   6.054   8.631   7.282  0.3523 -1.8447 -0.1594
  393MOL0     H51854   6.272   8.550   7.500  0.3889 -0.2896  1.3307
  393MOL0     H51855   6.167   8.421   7.431  1.0352 -0.7918 -1.9756
  393MOL0     H51856   6.263   8.472   7.212  2.6809 -0.3401 -2.1998
  393MOL0     H51857   6.381   8.419   7.322 -1.1937 -0.6902  0.4582
  393MOL0     H51858   5.570   8.976   7.967  1.6320 -0.7186 -1.0068
  393MOL0     H51859   5.406   9.020   8.082  1.5659  0.5378 -0.6256
  393MOL0     H51860   4.817   9.339   7.976  4.5935 -1.5782 -1.4132
  393MOL0     H51861   4.657   9.341   8.135 -0.8772 -2.4656  0.0069
  393MOL0     H51862   5.467  10.014   8.134 -1.3842  1.8037 -0.2811
  393MOL0     H51863   5.494  10.169   7.938  0.0525 -0.0083  0.5920
  393MOL0     H51864   5.928  10.291   7.605 -0.1684 -0.1684 -0.5223
  393MOL0     H51865   5.975  10.434   7.439 -1.0867 -2.4446  0.2600
  393MOL0     H51866   5.631  10.558   7.184 -1.9836 -1.5484  1.2824
  393MOL0     H51867   5.744  10.426   7.166 -0.1111  0.5831  1.4194
  393MOL0     H51868   5.904  10.557   7.063 -0.9156 -3.3148 -0.9419
  393MOL0     H51869   5.756  10.546   6.958 -0.5884  0.7476 -0.0893
  393MOL0     H51870   5.860  10.781   7.101  1.3069  1.0702 -0.7917
  393MOL0     H51871   5.691  10.766   7.038  0.0872  1.6467 -2.2027
  393MOL0     H51872   5.753  10.785   6.810  1.2462  3.3486 -0.8314
  393MOL0     H51873   5.874  10.883   6.892 -0.7072  0.8258 -0.9400
  393MOL0     H51874   6.099  10.575   6.705 -1.0630 -1.0130 -0.0195
  393MOL0     H51875   5.574  10.604   7.420  0.2586 -0.4441  0.0319
  393MOL0     H51876   5.524  10.472   7.640 -0.0970  2.0105 -2.0563
  394MOL0     O51877   2.928   4.259  10.748  0.3308  0.4744  0.0536
  394MOL0     C51878   2.899   4.380  10.747 -1.1454  0.3986  1.1318
  394MOL0     O51879   2.965   4.480  10.807  0.0492  0.2567  0.2958
  394MOL0     C51880   3.090   4.451  10.855 -1.7751  0.8254 -0.5333
  394MOL0     C51881   3.118   4.351  10.947 -0.6103  1.0588  0.4698
  394MOL0     C51882   3.249   4.331  10.982  0.1656  0.3420 -0.8764
  394MOL0     C51883   3.358   4.399  10.936  0.8016  0.2393 -0.3319
  394MOL0     O51884   3.477   4.377  11.000 -0.5087 -0.3146  0.3048
  394MOL0     C51885   3.602   4.424  10.942  0.1690  0.4660  0.1839
  394MOL0     C51886   3.713   4.393  11.031  0.5001  0.1186 -0.5332
  394MOL0     C51887   3.830   4.494  11.016 -1.1982  0.2501  0.1011
  394MOL0     C51888   3.804   4.622  11.096  0.3573 -0.5432 -0.0582
  394MOL0     C51889   3.907   4.737  11.092  0.3744 -1.5605  0.4319
  394MOL0     C51890   4.046   4.708  11.146  0.2556 -0.0040  0.7545
  394MOL0     C51891   4.125   4.837  11.121 -0.1435  0.3248 -0.7437
  394MOL0     C51892   4.093   4.950  11.235  0.6981 -0.7518 -0.2454
  394MOL0     N51893   4.198   5.059  11.226  0.0149 -0.5435 -0.2307
  394MOL0     C51894   4.204   5.171  11.304 -0.4554 -0.0715  0.0843
  394MOL0     C51895   4.314   5.248  11.263  1.2856  0.2349  0.6481
  394MOL0     C51896   4.358   5.383  11.314 -0.2775  1.1718  0.5215
  394MOL0     C51897   4.424   5.362  11.453 -0.2969 -0.6673 -0.3461
  394MOL0     C51898   4.464   5.504  11.501 -0.1471  0.4139  0.1512
  394MOL0     C51899   4.504   5.483  11.643 -0.2703  0.1114 -0.4923
  394MOL0     O51900   4.536   5.609  11.702 -0.2021 -0.1020 -0.6648
  394MOL0     C51901   4.667   5.638  11.711 -0.2737  1.1628  0.3249
  394MOL0     C51902   4.734   5.622  11.840  0.0765 -0.6634  0.1085
  394MOL0     C51903   4.870   5.636  11.844  0.0187  0.7710  0.3196
  394MOL0     C51904   4.949   5.653  11.725  1.1147 -0.2858 -1.4049
  394MOL0     C51905   5.101   5.675  11.742 -0.0605  1.2233 -0.3657
  394MOL0     O51906   5.146   5.705  11.871 -1.1197 -0.5185 -0.5834
  394MOL0     C51907   5.268   5.758  11.890  0.4162  0.7726 -0.0084
  394MOL0     C51908   5.343   5.710  11.998  0.7891  0.7053 -0.7239
  394MOL0     C51909   5.467   5.763  12.037 -0.1926 -0.0674  0.7807
  394MOL0     C51910   5.534   5.853  11.951 -0.3730  0.0021 -0.2990
  394MOL0     O51911   5.647   5.929  11.988  0.2426  0.4960 -0.1826
  394MOL0     C51912   5.759   5.890  11.907  0.4673 -0.1110 -0.0144
  394MOL0     C51913   5.894   5.909  11.980  0.2167 -0.3294 -0.1515
  394MOL0     C51914   6.026   5.891  11.903  0.0640 -0.4619 -0.8321
  394MOL0     C51915   6.031   5.750  11.852 -0.2265  0.2180 -0.4447
  394MOL0     C51916   6.176   5.706  11.821  0.0893 -0.2339  0.2628
  394MOL0     C51917   6.240   5.781  11.703 -0.4093  0.3749 -0.0355
  394MOL0     C51918   6.383   5.733  11.669  0.0297  0.1421 -0.0981
  394MOL0     C51919   6.448   5.859  11.600  0.3506  0.9338 -0.1695
  394MOL0    Cl51920   6.597   5.801  11.504  0.2446 -0.6453  0.0682
  394MOL0     C51921   5.456   5.899  11.845  0.5566 -0.3251  0.4400
  394MOL0     C51922   5.324   5.854  11.810 -0.2925  0.1637 -0.4835
  394MOL0     O51923   5.166   5.674  11.633  0.1059  0.0227 -0.2200
  394MOL0     C51924   4.890   5.672  11.604 -0.2719  0.1692 -0.3250
  394MOL0     C51925   4.746   5.657  11.592 -0.4152  0.2391 -0.6539
  394MOL0     N51926   4.368   5.177  11.153  0.6747 -0.5479  0.5601
  394MOL0     N51927   4.299   5.067  11.133 -0.0940 -0.7983 -0.2560
  394MOL0     C51928   3.327   4.497  10.837  0.5480  0.2238  0.3795
  394MOL0     C51929   3.193   4.519  10.793 -1.1180  0.5698  0.2950
  394MOL0     C51930   2.775   4.411  10.691  0.1136 -0.7157  0.3323
  394MOL0     C51931   2.670   4.320  10.686  0.1874  0.9605  0.2737
  394MOL0     C51932   2.538   4.360  10.642  0.0932  0.1542 -0.4857
  394MOL0     C51933   2.519   4.497  10.603  0.1309  0.5492  0.4701
  394MOL0     O51934   2.403   4.539  10.550 -0.4109  0.0446  0.3066
  394MOL0     C51935   2.294   4.450  10.549 -1.0940  0.3717  0.1824
  394MOL0     C51936   2.170   4.536  10.516  0.0221  0.0930 -0.8151
  394MOL0     C51937   2.041   4.450  10.515  0.1147 -0.3727 -0.5338
  394MOL0     C51938   1.927   4.543  10.521  0.6862 -0.0639  0.0067
  394MOL0     C51939   1.802   4.465  10.524  0.1077 -1.4350  0.1783
  394MOL0     C51940   1.725   4.372  10.549 -0.1151 -0.3415  0.6654
  394MOL0     C51941   2.623   4.591  10.618 -0.7455  0.4046 -0.1707
  394MOL0     C51942   2.751   4.546  10.657  0.7136 -0.5906 -0.6103
  394MOL0     H51943   3.038   4.293  10.992  0.1398 -1.1902 -0.9078
  394MOL0     H51944   3.273   4.268  11.067 -1.5213 -1.5323 -1.7129
  394MOL0     H51945   3.590   4.533  10.944 -0.7760  0.3985 -0.5344
  394MOL0     H51946   3.632   4.386  10.844  1.1620  1.5754  0.0392
  394MOL0     H51947   3.734   4.292  10.994 -1.8435  0.7398 -4.0092
  394MOL0     H51948   3.671   4.383  11.131 -1.6117 -2.3836 -1.5420
  394MOL0     H51949   3.848   4.516  10.910 -3.4302  0.9711 -0.1904
  394MOL0     H51950   3.921   4.451  11.059  0.8296 -0.5195 -4.3725
  394MOL0     H51951   3.720   4.674  11.049  0.1606 -3.8867 -3.9277
  394MOL0     H51952   3.784   4.595  11.200 -0.3309 -1.2468 -0.3671
  394MOL0     H51953   3.857   4.825  11.133 -0.6601 -1.7272 -0.4333
  394MOL0     H51954   3.927   4.768  10.989  1.8621 -1.1469  0.8110
  394MOL0     H51955   4.088   4.628  11.084 -2.2702 -0.3989 -0.6308
  394MOL0     H51956   4.052   4.675  11.250 -2.7064 -1.5814  0.5443
  394MOL0     H51957   4.230   4.810  11.131  0.2427  2.5553  2.9922
  394MOL0     H51958   4.108   4.875  11.019  1.3974 -0.4739 -1.3213
  394MOL0     H51959   4.098   4.907  11.335  1.1017 -0.1951 -0.0203
  394MOL0     H51960   3.995   4.998  11.222 -0.1587 -2.5414 -0.7410
  394MOL0     H51961   4.135   5.198  11.383 -0.1954  1.7107 -0.2704
  394MOL0     H51962   4.271   5.450  11.319 -0.6094  0.7076  1.1225
  394MOL0     H51963   4.426   5.431  11.243  0.9354  0.7392  1.3500
  394MOL0     H51964   4.512   5.298  11.446 -1.4291 -2.2057 -0.8658
  394MOL0     H51965   4.345   5.316  11.513 -1.3872  2.9872  1.3069
  394MOL0     H51966   4.538   5.549  11.434 -1.9868  5.6491  1.1330
  394MOL0     H51967   4.381   5.574  11.495  1.3241  2.1300 -2.5116
  394MOL0     H51968   4.586   5.411  11.654  0.9458  1.5699  0.4084
  394MOL0     H51969   4.416   5.441  11.691  2.2881 -1.0405  3.7745
  394MOL0     H51970   4.672   5.610  11.928  0.4396 -1.1361  0.3049
  394MOL0     H51971   4.907   5.626  11.945 -1.3702  0.3023  0.8092
  394MOL0     H51972   5.288   5.636  12.056  0.3170 -0.2604 -2.3332
  394MOL0     H51973   5.513   5.724  12.127  0.0066 -0.3229  0.5691
  394MOL0     H51974   5.777   5.948  11.815  1.0523 -0.5387 -0.1798
  394MOL0     H51975   5.754   5.790  11.864  1.4601  1.3025 -3.8584
  394MOL0     H51976   5.905   5.852  12.074  2.7970  1.6212  0.8664
  394MOL0     H51977   5.890   6.015  12.003  3.7082 -0.3500  1.3157
  394MOL0     H51978   6.106   5.897  11.977  1.4748 -1.0935 -2.2359
  394MOL0     H51979   6.043   5.961  11.821  2.0889 -0.7779 -0.7478
  394MOL0     H51980   5.989   5.679  11.924  1.1536  2.7384  3.1303
  394MOL0     H51981   5.969   5.742  11.763  1.2240 -2.0268 -1.3293
  394MOL0     H51982   6.190   5.601  11.796  2.6149  0.6705 -2.7985
  394MOL0     H51983   6.244   5.725  11.905  0.0121 -2.0378  0.7764
  394MOL0     H51984   6.225   5.884  11.738 -0.5454  0.2894  0.1551
  394MOL0     H51985   6.185   5.779  11.609 -0.3262 -3.6498 -0.1452
  394MOL0     H51986   6.447   5.709  11.754  3.0541 -2.2045 -2.7884
  394MOL0     H51987   6.385   5.649  11.599  2.8218 -0.6199  0.7525
  394MOL0     H51988   6.484   5.931  11.673 -0.9412  0.1871  1.2631
  394MOL0     H51989   6.378   5.897  11.525  1.3799 -1.8732 -2.7833
  394MOL0     H51990   5.493   5.977  11.779  1.0159 -0.1602  0.8927
  394MOL0     H51991   5.278   5.899  11.723 -2.0056  1.6692  1.1176
  394MOL0     H51992   4.957   5.689  11.520  0.1866  1.6495  0.3090
  394MOL0     H51993   4.710   5.667  11.490  0.7001  2.5771 -0.9092
  394MOL0     H51994   3.406   4.555  10.792 -2.5992  2.4140 -2.8365
  394MOL0     H51995   3.161   4.588  10.715 -1.4188 -0.1551 -0.2389
  394MOL0     H51996   2.684   4.216  10.714  1.1823  1.3038  1.1311
  394MOL0     H51997   2.461   4.283  10.638 -1.3747  1.5838 -4.1674
  394MOL0     H51998   2.283   4.402  10.647  0.9582 -0.7205 -0.0451
  394MOL0     H51999   2.310   4.376  10.470  0.2569 -0.1805  0.9183
  394MOL0     H52000   2.161   4.616  10.590 -0.4801  1.3498 -2.1839
  394MOL0     H52001   2.197   4.585  10.422  0.4160  0.8950 -0.2902
  394MOL0     H52002   2.041   4.379  10.597  2.3126  0.0130 -0.1356
  394MOL0     H52003   2.040   4.385  10.427 -3.3173  1.6529 -2.1882
  394MOL0     H52004   1.926   4.614  10.604 -1.4511 -0.7669  0.6352
  394MOL0     H52005   1.928   4.607  10.432  3.0859 -0.6806 -0.4746
  394MOL0     H52006   1.668   4.286  10.577  1.5131 -2.0034 -0.8275
  394MOL0     H52007   2.619   4.697  10.596 -0.5470 -0.0889 -2.8884
  394MOL0     H52008   2.831   4.615  10.680 -2.2075  2.8161  0.3248
  395MOL0     O52009  10.186   8.269   0.245 -0.4006  0.1300 -0.5283
  395MOL0     C52010  10.135   8.353   0.309 -0.2031 -0.4668 -0.8521
  395MOL0     O52011  10.052   8.453   0.264  0.3174  0.4803  0.8036
  395MOL0     C52012  10.008   8.441   0.132 -0.0056  0.8367  0.0702
  395MOL0     C52013  10.088   8.409   0.026 -1.4753 -0.6575 -0.1019
  395MOL0     C52014  10.041   8.394  -0.096 -0.2247  0.4029  0.9571
  395MOL0     C52015   9.899   8.408  -0.116  1.0547 -0.7357 -0.0102
  395MOL0     O52016   9.841   8.415  -0.241  0.0708 -0.4547  0.0113
  395MOL0     C52017   9.887   8.328  -0.348 -0.6092 -0.4128  0.1303
  395MOL0     C52018   9.946   8.394  -0.476 -0.4354  0.6524 -0.2165
  395MOL0     C52019  10.028   8.296  -0.547  0.4013 -0.0347 -0.7234
  395MOL0     C52020  10.118   8.370  -0.649  0.2609  0.7161 -0.5073
  395MOL0     C52021  10.213   8.278  -0.738 -0.2090  0.4737  0.3143
  395MOL0     C52022  10.134   8.190  -0.839  0.1282 -0.6112  0.1051
  395MOL0     C52023  10.232   8.133  -0.943 -0.2208  0.5839  0.7303
  395MOL0     C52024  10.147   8.094  -1.070 -0.3207 -0.6635  0.0130
  395MOL0     N52025  10.084   8.217  -1.121  0.4686  0.2327 -0.0385
  395MOL0     C52026  10.157   8.321  -1.190  0.0509  0.9029  0.1040
  395MOL0     C52027  10.057   8.398  -1.240 -0.1552  0.9532 -0.5280
  395MOL0     C52028  10.078   8.515  -1.342 -0.1060 -0.1605 -0.3408
  395MOL0     C52029  10.139   8.643  -1.284  0.4999  0.5498 -0.5019
  395MOL0     C52030  10.101   8.681  -1.140 -0.1576  1.0756 -0.1267
  395MOL0     C52031  10.153   8.821  -1.114 -0.3218  0.0444 -1.0859
  395MOL0     O52032  10.118   8.853  -0.971 -0.2957 -0.6020  1.1460
  395MOL0     C52033  10.197   8.819  -0.876 -0.3111 -0.4446  0.1899
  395MOL0     C52034  10.343   8.826  -0.886  0.1672 -0.4302  0.5809
  395MOL0     C52035  10.420   8.787  -0.779 -0.1372  0.1804 -1.5031
  395MOL0     C52036  10.365   8.735  -0.659 -0.1814  0.5462  0.1769
  395MOL0     C52037  10.452   8.700  -0.549  0.7113  0.2973  0.5162
  395MOL0     O52038  10.391   8.615  -0.460 -0.2915  0.2443  0.7482
  395MOL0     C52039  10.459   8.585  -0.347 -0.2042 -0.0100 -0.6535
  395MOL0     C52040  10.596   8.558  -0.336 -0.5538  0.5227  0.3907
  395MOL0     C52041  10.659   8.542  -0.220 -0.2519 -0.3871  0.3176
  395MOL0     C52042  10.585   8.541  -0.101 -1.0732  0.9522 -0.6845
  395MOL0     O52043  10.652   8.498   0.007  0.0111  0.4199  0.1942
  395MOL0     C52044  10.614   8.571   0.126  0.3840 -0.0820 -0.4894
  395MOL0     C52045  10.628   8.459   0.241  0.3666 -0.5718 -0.4028
  395MOL0     C52046  10.578   8.522   0.377 -0.1574  0.0652  0.3146
  395MOL0     C52047  10.585   8.428   0.495 -0.6231  0.2085  0.6760
  395MOL0     C52048  10.531   8.495   0.623  1.0366  0.7445  0.1285
  395MOL0     C52049  10.633   8.573   0.690 -1.2355  0.0521  0.6266
  395MOL0     C52050  10.751   8.491   0.752  0.4718 -0.1020 -0.5475
  395MOL0     C52051  10.827   8.553   0.875  0.4750 -0.5116 -0.3770
  395MOL0    Cl52052  10.967   8.464   0.924  0.7125 -0.4057 -0.0231
  395MOL0     C52053  10.448   8.555  -0.113  0.0379 -0.5894 -1.4948
  395MOL0     C52054  10.382   8.585  -0.230  0.0698 -0.1972  0.0803
  395MOL0     O52055  10.558   8.754  -0.534 -0.6418 -0.1098  0.0530
  395MOL0     C52056  10.223   8.725  -0.645 -0.9114  0.0931 -0.4411
  395MOL0     C52057  10.146   8.771  -0.759 -0.3545  0.0953 -0.3959
  395MOL0     N52058   9.934   8.336  -1.207 -0.3746  0.5259 -0.6480
  395MOL0     N52059   9.948   8.227  -1.140  0.5874  0.1027  0.0967
  395MOL0     C52060   9.813   8.449  -0.017 -0.6168  0.1766  0.0082
  395MOL0     C52061   9.870   8.465   0.111  0.7180 -0.4790  0.8051
  395MOL0     C52062  10.153   8.367   0.456 -0.5537  0.8952  0.5125
  395MOL0     C52063  10.137   8.486   0.534 -0.2256  0.1162 -0.1696
  395MOL0     C52064  10.115   8.478   0.679  0.2052 -0.6927  1.3553
  395MOL0     C52065  10.146   8.359   0.744  0.7711 -0.4438  0.1576
  395MOL0     O52066  10.158   8.364   0.878 -0.0818 -0.0197 -0.5821
  395MOL0     C52067  10.152   8.239   0.956 -1.1055  0.4791  0.6363
  395MOL0     C52068  10.288   8.241   1.020  0.2108 -0.2505 -0.2043
  395MOL0     C52069  10.307   8.125   1.128  1.0336 -0.2751  0.3185
  395MOL0     C52070  10.442   8.128   1.200  0.6243 -0.1390 -0.0152
  395MOL0     C52071  10.553   8.162   1.101  1.4808  0.0096  0.4095
  395MOL0     C52072  10.648   8.197   1.041  0.0900  1.0645  0.4319
  395MOL0     C52073  10.186   8.248   0.667  0.2089 -0.1632  0.6784
  395MOL0     C52074  10.187   8.255   0.528  0.2025  0.2385  0.2886
  395MOL0     H52075  10.195   8.407   0.040 -1.6294 -0.9754  1.1410
  395MOL0     H52076  10.106   8.376  -0.181 -2.4224  0.0033 -0.7262
  395MOL0     H52077   9.800   8.270  -0.379 -1.2260  1.1451 -1.2498
  395MOL0     H52078   9.957   8.252  -0.313 -3.1860 -1.5983  3.1539
  395MOL0     H52079  10.006   8.483  -0.454 -2.4448  2.3019 -1.0033
  395MOL0     H52080   9.865   8.422  -0.543 -0.4203  0.0217 -0.5041
  395MOL0     H52081   9.965   8.224  -0.599 -0.0378  0.7120 -1.2505
  395MOL0     H52082  10.097   8.243  -0.481  0.5524  0.1209 -0.7542
  395MOL0     H52083  10.049   8.432  -0.706  1.4619  2.0312 -0.5734
  395MOL0     H52084  10.175   8.434  -0.581  2.6310 -1.7317 -0.0444
  395MOL0     H52085  10.268   8.210  -0.671 -2.9507 -1.5964  0.6693
  395MOL0     H52086  10.283   8.345  -0.789 -1.1726  1.2120 -0.0611
  395MOL0     H52087  10.054   8.246  -0.888 -0.3743 -2.3350 -1.1315
  395MOL0     H52088  10.082   8.108  -0.789 -0.6957 -0.3533 -0.3096
  395MOL0     H52089  10.297   8.219  -0.958 -1.7896  1.3332 -2.6939
  395MOL0     H52090  10.289   8.049  -0.903  0.9632  1.7984  1.6888
  395MOL0     H52091  10.076   8.014  -1.049 -1.6086 -0.4561 -2.9866
  395MOL0     H52092  10.215   8.056  -1.147 -0.1771 -0.3195 -0.0343
  395MOL0     H52093  10.265   8.314  -1.204 -0.0483 -0.6090 -0.1380
  395MOL0     H52094   9.981   8.540  -1.386 -2.5178 -3.3562  2.5053
  395MOL0     H52095  10.146   8.472  -1.415 -1.7592 -1.2296 -1.3147
  395MOL0     H52096  10.097   8.725  -1.344  0.1968  0.4975 -0.3657
  395MOL0     H52097  10.247   8.635  -1.301  0.5790  0.2313  0.1212
  395MOL0     H52098   9.996   8.664  -1.114 -0.2814  2.1609  0.1485
  395MOL0     H52099  10.159   8.616  -1.074  2.2960  2.7927 -0.4907
  395MOL0     H52100  10.105   8.883  -1.189 -2.3647 -0.9764 -0.6738
  395MOL0     H52101  10.261   8.838  -1.122  0.0979 -1.6878  0.1927
  395MOL0     H52102  10.397   8.859  -0.974 -3.8103  0.5102 -1.7728
  395MOL0     H52103  10.527   8.802  -0.787  0.6941 -3.4774  0.5041
  395MOL0     H52104  10.647   8.571  -0.431 -1.4357  5.0250  0.2983
  395MOL0     H52105  10.767   8.529  -0.222 -0.1548  0.3890 -1.1734
  395MOL0     H52106  10.511   8.604   0.136  0.5991  0.2388  0.8575
  395MOL0     H52107  10.681   8.656   0.141 -2.5363  2.7487 -2.1673
  395MOL0     H52108  10.727   8.415   0.228  0.0883 -1.1442 -0.6064
  395MOL0     H52109  10.560   8.375   0.225  1.5682 -1.2594 -2.2254
  395MOL0     H52110  10.481   8.568   0.354  0.0600 -0.5500 -2.1016
  395MOL0     H52111  10.641   8.609   0.397 -0.5899  0.4028  0.2328
  395MOL0     H52112  10.515   8.350   0.466 -3.0727  2.9673 -1.4597
  395MOL0     H52113  10.685   8.389   0.519 -0.2092  0.4485 -0.5511
  395MOL0     H52114  10.499   8.415   0.689  2.1111  1.4655  1.5818
  395MOL0     H52115  10.437   8.550   0.608  1.7423  2.2344  0.9926
  395MOL0     H52116  10.574   8.618   0.770 -2.2615 -1.0718  0.5199
  395MOL0     H52117  10.675   8.648   0.623 -0.5332 -0.8827 -0.0010
  395MOL0     H52118  10.706   8.395   0.777 -0.9427 -0.1711 -2.9847
  395MOL0     H52119  10.824   8.471   0.673 -2.2327 -0.4623 -3.1338
  395MOL0     H52120  10.764   8.545   0.964  2.9607  0.3137  1.5524
  395MOL0     H52121  10.842   8.660   0.857  0.8449 -0.7689 -1.7191
  395MOL0     H52122  10.397   8.541  -0.018  2.1708 -0.4610 -0.2654
  395MOL0     H52123  10.277   8.610  -0.232 -0.1275 -1.0334 -0.9537
  395MOL0     H52124  10.176   8.700  -0.551 -1.9998 -2.2244 -1.5379
  395MOL0     H52125  10.038   8.782  -0.758 -0.2486  1.2375  0.0106
  395MOL0     H52126   9.713   8.479  -0.047 -0.3935 -1.0664 -2.2285
  395MOL0     H52127   9.814   8.493   0.199  0.0736  1.6713 -0.2256
  395MOL0     H52128  10.098   8.572   0.480 -3.1861 -1.9611 -1.6508
  395MOL0     H52129  10.094   8.560   0.746  2.0186  1.5757 -0.6391
  395MOL0     H52130  10.132   8.145   0.903  3.2164 -0.2134 -0.0659
  395MOL0     H52131  10.079   8.253   1.037  0.4312  1.1408  1.9514
  395MOL0     H52132  10.366   8.230   0.944 -0.8488  1.3276 -1.5721
  395MOL0     H52133  10.295   8.338   1.070 -0.6207 -0.8773  1.2154
  395MOL0     H52134  10.302   8.030   1.073  0.3220  0.9000 -1.7442
  395MOL0     H52135  10.221   8.125   1.197 -2.1833 -2.6089 -3.2769
  395MOL0     H52136  10.441   8.213   1.268  2.3379  0.7034 -0.9920
  395MOL0     H52137  10.466   8.039   1.258  0.3491 -0.2907 -0.1279
  395MOL0     H52138  10.743   8.219   0.998 -0.3666 -0.7012 -1.6712
  395MOL0     H52139  10.225   8.162   0.721 -0.0741  0.3435  1.7234
  395MOL0     H52140  10.220   8.164   0.480 -0.2343 -0.0596  0.5406
  396MOL0     O52141   9.261   0.608  11.080  0.0362 -0.1005  0.9523
  396MOL0     C52142   9.218   0.611  10.958  0.7625  0.1756 -1.0544
  396MOL0     O52143   9.226   0.714  10.868  0.6249 -0.7553  0.0180
  396MOL0     C52144   9.310   0.818  10.886 -0.6237  0.8687 -0.1932
  396MOL0     C52145   9.426   0.799  10.953 -0.2680 -0.0660  0.0903
  396MOL0     C52146   9.518   0.905  10.935  0.0263 -0.4653 -0.4094
  396MOL0     C52147   9.483   1.021  10.855 -0.9913 -1.6737 -0.4005
  396MOL0     O52148   9.593   1.113  10.852 -0.1193  0.1431  0.7992
  396MOL0     C52149   9.602   1.222  10.762 -0.5671 -0.6932 -0.0536
  396MOL0     C52150   9.739   1.271  10.765  0.6171 -0.3460  0.8301
  396MOL0     C52151   9.832   1.159  10.717 -0.3711 -0.0812 -0.6649
  396MOL0     C52152   9.979   1.223  10.698 -0.8089  0.1352  0.1509
  396MOL0     C52153   9.983   1.330  10.585  0.1744 -0.7405 -0.8445
  396MOL0     C52154   9.918   1.305  10.447  0.2014 -0.2601 -0.6375
  396MOL0     C52155   9.940   1.426  10.356  0.7242 -0.6896  1.3952
  396MOL0     C52156   9.952   1.396  10.203 -0.4698 -0.6323  0.9220
  396MOL0     N52157   9.965   1.525  10.126 -0.4929 -0.0005 -0.9693
  396MOL0     C52158   9.872   1.580  10.043  0.0424  0.6160  0.0636
  396MOL0     C52159   9.932   1.698  10.007 -0.0719  0.1700 -0.4928
  396MOL0     C52160   9.862   1.802   9.927 -0.5555 -1.0220 -0.4493
  396MOL0     C52161   9.939   1.870   9.809 -0.6202  0.9056  0.2854
  396MOL0     C52162   9.847   1.921   9.697 -0.1953 -1.3833  0.4088
  396MOL0     C52163   9.917   1.941   9.567 -1.2216  0.7317 -0.4914
  396MOL0     O52164  10.030   2.035   9.583 -0.2769  0.6063  0.3295
  396MOL0     C52165  10.023   2.171   9.554 -0.1941  0.2802 -0.4159
  396MOL0     C52166   9.905   2.245   9.545  0.5221  0.6310  0.5102
  396MOL0     C52167   9.905   2.386   9.507  1.2827  0.0764  0.1460
  396MOL0     C52168  10.027   2.458   9.507 -0.2847  0.0019 -0.1689
  396MOL0     C52169  10.022   2.612   9.484  0.6539  0.4830  0.0411
  396MOL0     O52170   9.906   2.672   9.448 -0.4132 -0.7427  0.7393
  396MOL0     C52171   9.916   2.807   9.423  0.4285  0.7168  0.1903
  396MOL0     C52172   9.946   2.905   9.518 -0.8459  0.3540  0.8590
  396MOL0     C52173   9.936   3.039   9.472  0.6196 -0.0942 -0.5023
  396MOL0     C52174   9.897   3.081   9.349  0.4880  0.3308  0.0433
  396MOL0     O52175   9.894   3.212   9.301  0.4719 -0.3350  0.3488
  396MOL0     C52176   9.813   3.244   9.182  0.6312 -0.6903 -0.5478
  396MOL0     C52177   9.748   3.387   9.187  0.0985 -0.2140 -0.9214
  396MOL0     C52178   9.640   3.399   9.080  0.1720 -0.2775 -0.8050
  396MOL0     C52179   9.686   3.401   8.937 -0.1925  0.7599 -0.1860
  396MOL0     C52180   9.566   3.421   8.832  0.6304  0.3927  0.0113
  396MOL0     C52181   9.619   3.415   8.686  0.2027  0.2202 -0.6987
  396MOL0     C52182   9.499   3.424   8.593 -0.2602  0.1245 -0.2234
  396MOL0     C52183   9.431   3.562   8.574  0.4363 -0.5185 -0.7585
  396MOL0    Cl52184   9.548   3.686   8.521  0.3074  0.3278 -0.0979
  396MOL0     C52185   9.862   2.974   9.258  0.1984 -0.4448 -0.4820
  396MOL0     C52186   9.857   2.841   9.301  0.2984  0.1393 -0.0041
  396MOL0     O52187  10.126   2.669   9.496  0.0600 -0.5549 -0.0273
  396MOL0     C52188  10.143   2.386   9.524  0.1366  0.0950  0.1254
  396MOL0     C52189  10.140   2.243   9.550 -0.4552 -0.1664 -0.4356
  396MOL0     N52190  10.062   1.699  10.056 -0.4939 -0.2519 -0.5948
  396MOL0     N52191  10.076   1.602  10.133 -0.5940 -0.3015  0.4682
  396MOL0     C52192   9.356   1.040  10.805  0.4644  0.1243 -0.0325
  396MOL0     C52193   9.267   0.934  10.821  0.1742  0.1512  0.0231
  396MOL0     C52194   9.143   0.484  10.918  0.3532  0.2209 -0.7441
  396MOL0     C52195   9.147   0.375  11.002  0.6675  0.8335  0.6015
  396MOL0     C52196   9.081   0.262  10.978 -0.7738  0.1525 -0.3625
  396MOL0     C52197   9.024   0.239  10.853  0.6972  0.0782 -0.5169
  396MOL0     O52198   8.976   0.118  10.808 -0.6425 -0.7399  0.7435
  396MOL0     C52199   8.969   0.004  10.896  1.7589 -0.0188  0.3344
  396MOL0     C52200   8.822  -0.011  10.957  0.0846  1.1099  0.1079
  396MOL0     C52201   8.776  -0.159  10.982 -0.2409  0.1757  0.5992
  396MOL0     C52202   8.679  -0.164  11.104  0.2689 -0.7060  0.3367
  396MOL0     C52203   8.556  -0.087  11.071  0.9025 -0.0847 -0.4623
  396MOL0     C52204   8.451  -0.019  11.063 -0.2530 -1.1837  1.2045
  396MOL0     C52205   9.018   0.355  10.770  0.8408 -0.1365 -0.4896
  396MOL0     C52206   9.076   0.479  10.798  1.2789  0.0877  0.1162
  396MOL0     H52207   9.465   0.708  10.995 -1.1404  0.1626  1.4417
  396MOL0     H52208   9.623   0.890  10.959  0.0533  2.1685  1.6009
  396MOL0     H52209   9.532   1.306  10.773  1.3221  0.9885 -0.1619
  396MOL0     H52210   9.585   1.189  10.659 -1.2078  2.3346 -1.0285
  396MOL0     H52211   9.740   1.318  10.863 -3.3343  1.0972  0.3389
  396MOL0     H52212   9.736   1.339  10.679  0.1147 -1.5649 -0.1651
  396MOL0     H52213   9.797   1.112  10.625 -0.2327 -2.9501  0.6526
  396MOL0     H52214   9.842   1.087  10.798  2.0420  1.5759  0.6542
  396MOL0     H52215  10.024   1.261  10.790 -1.7832  1.8173 -0.0263
  396MOL0     H52216  10.040   1.138  10.668 -0.4485  0.6886 -0.7414
  396MOL0     H52217  10.090   1.344  10.569 -0.0386 -0.4845 -2.1353
  396MOL0     H52218   9.931   1.416  10.628 -1.6097 -1.4140 -1.5760
  396MOL0     H52219   9.813   1.277  10.462  0.5844 -1.7588 -0.5527
  396MOL0     H52220   9.957   1.210  10.409 -0.4066 -2.0207  2.7333
  396MOL0     H52221   9.854   1.492  10.366  1.6389  0.7054  0.4129
  396MOL0     H52222  10.028   1.483  10.388  1.8137 -0.5400 -1.5564
  396MOL0     H52223   9.868   1.339  10.163  0.7250 -1.6889 -0.1437
  396MOL0     H52224  10.035   1.329  10.180  0.6561  0.7020  0.9914
  396MOL0     H52225   9.767   1.560  10.029  0.2217  1.0695 -2.4024
  396MOL0     H52226   9.834   1.890   9.984  2.4890  0.3093 -0.8417
  396MOL0     H52227   9.766   1.759   9.896 -1.0704 -1.0830  1.1517
  396MOL0     H52228  10.015   1.800   9.772 -0.8594 -0.1061  1.6140
  396MOL0     H52229   9.988   1.954   9.859 -1.1799  3.0587 -2.5450
  396MOL0     H52230   9.764   1.857   9.667  0.5849 -0.7451 -3.7012
  396MOL0     H52231   9.807   2.019   9.726 -0.4236 -1.3803  0.0902
  396MOL0     H52232   9.845   1.990   9.500 -2.1533  0.9688  0.6446
  396MOL0     H52233   9.958   1.848   9.528  1.5211  0.9090  1.6328
  396MOL0     H52234   9.806   2.202   9.543 -0.6594  3.2037 -0.7933
  396MOL0     H52235   9.811   2.436   9.488  0.0739 -0.9028  2.8741
  396MOL0     H52236   9.970   2.882   9.622 -0.3476 -1.3282  0.3971
  396MOL0     H52237   9.978   3.118   9.532  3.6813 -0.2833 -2.2244
  396MOL0     H52238   9.732   3.171   9.175 -0.6420  0.3340  2.1065
  396MOL0     H52239   9.885   3.237   9.100  1.0060 -1.3383 -0.1660
  396MOL0     H52240   9.833   3.456   9.180  0.7652 -0.3699  3.2143
  396MOL0     H52241   9.702   3.400   9.285  0.3140 -1.4637 -0.6380
  396MOL0     H52242   9.596   3.499   9.091  0.4360 -0.4767  5.1945
  396MOL0     H52243   9.559   3.329   9.104  1.2903 -0.8547  1.6143
  396MOL0     H52244   9.762   3.480   8.926 -0.8242  1.2247 -1.4356
  396MOL0     H52245   9.739   3.307   8.919  0.3207  1.4221 -2.4651
  396MOL0     H52246   9.516   3.514   8.860  2.2154  0.7960  1.7505
  396MOL0     H52247   9.505   3.333   8.856  0.0787  0.6319 -0.4904
  396MOL0     H52248   9.678   3.325   8.664  0.0979 -0.1208  0.3492
  396MOL0     H52249   9.678   3.505   8.669  1.8774 -0.6438  0.2944
  396MOL0     H52250   9.523   3.374   8.498 -1.9150 -0.0972 -0.5646
  396MOL0     H52251   9.428   3.350   8.632 -0.1124 -0.5761 -1.2198
  396MOL0     H52252   9.395   3.601   8.670  1.3021 -0.1257 -0.5845
  396MOL0     H52253   9.348   3.547   8.504  0.6591 -1.0933 -0.9037
  396MOL0     H52254   9.828   2.986   9.156 -1.1464 -0.3041 -0.0466
  396MOL0     H52255   9.809   2.768   9.237  1.0412  0.6117 -1.1181
  396MOL0     H52256  10.236   2.442   9.528  1.5113 -2.0751  0.3057
  396MOL0     H52257  10.235   2.196   9.574 -0.1398 -0.0597 -1.4514
  396MOL0     H52258   9.333   1.125  10.742 -1.2742 -0.8744 -0.8246
  396MOL0     H52259   9.166   0.951  10.787  0.7659  0.2978 -1.8323
  396MOL0     H52260   9.182   0.383  11.105 -0.5071 -0.5184  1.1316
  396MOL0     H52261   9.105   0.200  11.064 -0.1561  2.7956  1.4859
  396MOL0     H52262   9.023   0.011  10.991 -1.9871  2.1697  2.5643
  396MOL0     H52263   8.983  -0.093  10.849 -0.2231  0.1448 -0.7098
  396MOL0     H52264   8.825   0.052  11.047  0.3581  0.2759  0.6952
  396MOL0     H52265   8.751   0.039  10.891 -3.9166 -4.1114 -0.1064
  396MOL0     H52266   8.852  -0.235  11.001 -1.9400 -1.2666  1.9333
  396MOL0     H52267   8.721  -0.192  10.894  1.0563  1.2902 -0.6779
  396MOL0     H52268   8.649  -0.269  11.102  0.3439 -0.7256  0.2092
  396MOL0     H52269   8.715  -0.136  11.204  0.4244  0.3039  0.0154
  396MOL0     H52270   8.366   0.044  11.043  0.4612 -0.4560  0.3994
  396MOL0     H52271   8.976   0.332  10.673  0.5654 -1.4552 -0.0760
  396MOL0     H52272   9.084   0.562  10.728  2.1606 -0.4741 -0.4655
  397MOL0     O52273   4.203  10.565   9.039  0.2202 -1.1297  0.6772
  397MOL0     C52274   4.138  10.485   9.105 -0.1470  0.9903  0.1710
  397MOL0     O52275   4.093  10.362   9.054  0.0784  0.4744 -0.7296
  397MOL0     C52276   4.131  10.331   8.926  0.3365 -0.8414 -0.5887
  397MOL0     C52277   4.073  10.399   8.819  0.3228 -0.1471  0.4333
  397MOL0     C52278   4.104  10.358   8.684  0.7506 -0.2864 -0.3166
  397MOL0     C52279   4.203  10.259   8.672  0.2272 -0.2454  0.2217
  397MOL0     O52280   4.242  10.236   8.539 -0.5101 -0.2093 -1.2158
  397MOL0     C52281   4.324  10.133   8.510  0.5693 -0.6102 -0.1548
  397MOL0     C52282   4.345  10.125   8.355 -0.2664  1.3117  0.7471
  397MOL0     C52283   4.209  10.132   8.291  0.0664  0.5257  0.4120
  397MOL0     C52284   4.220  10.105   8.142 -0.4696 -0.0295 -0.2867
  397MOL0     C52285   4.125  10.000   8.095  0.8403 -1.0037 -0.5171
  397MOL0     C52286   3.977  10.033   8.129  0.2519  0.3563  0.2825
  397MOL0     C52287   3.942  10.174   8.082  0.1790  0.2010  0.5534
  397MOL0     C52288   3.796  10.184   8.061 -1.3128 -0.3932 -0.2265
  397MOL0     N52289   3.721  10.201   8.189 -0.5370 -0.4030  0.7214
  397MOL0     C52290   3.610  10.115   8.218  0.0523 -0.1164  0.1260
  397MOL0     C52291   3.582  10.153   8.345  0.1002  0.7683  0.2679
  397MOL0     C52292   3.463  10.118   8.443 -0.4454  0.8787  0.0477
  397MOL0     C52293   3.496  10.097   8.592 -0.1480  0.9979  0.4903
  397MOL0     C52294   3.392  10.011   8.650  0.3926  0.0972  0.6482
  397MOL0     C52295   3.412   9.851   8.629 -0.2016 -0.8241  0.1551
  397MOL0     O52296   3.511   9.791   8.714  0.3356  0.3267 -0.3261
  397MOL0     C52297   3.472   9.728   8.832 -0.0833  0.6558  0.4925
  397MOL0     C52298   3.343   9.718   8.886 -0.2374 -0.4441  0.3196
  397MOL0     C52299   3.321   9.661   9.010  0.2303  0.6268 -0.5733
  397MOL0     C52300   3.432   9.605   9.089  0.3489  0.3997 -0.4347
  397MOL0     C52301   3.412   9.546   9.225 -0.7168  0.4867  0.1853
  397MOL0     O52302   3.280   9.541   9.271 -0.5424  0.1856  0.6462
  397MOL0     C52303   3.271   9.500   9.406 -0.1493 -0.3174  0.4548
  397MOL0     C52304   3.228   9.588   9.504 -0.6430  0.5825  0.3459
  397MOL0     C52305   3.180   9.540   9.619 -0.7111  0.0642 -0.4305
  397MOL0     C52306   3.167   9.397   9.634 -0.3268 -0.6728  0.2939
  397MOL0     O52307   3.120   9.339   9.750  0.5984  0.3939  0.1224
  397MOL0     C52308   2.997   9.394   9.807  0.1525  0.6507 -0.7173
  397MOL0     C52309   2.922   9.286   9.890  0.5923  0.2462 -0.1077
  397MOL0     C52310   2.772   9.301   9.906 -0.2429 -0.6354 -0.1317
  397MOL0     C52311   2.705   9.191   9.997  0.0869  1.1417 -0.1589
  397MOL0     C52312   2.747   9.195  10.148  0.2748 -0.4880  0.8705
  397MOL0     C52313   2.624   9.282  10.211 -0.4822  0.5833  0.8469
  397MOL0     C52314   2.620   9.301  10.361 -0.2532 -0.4895 -0.5540
  397MOL0     C52315   2.496   9.375  10.406 -0.1296  0.7922  1.0579
  397MOL0    Cl52316   2.362   9.259  10.387  0.2474  0.0363  0.3551
  397MOL0     C52317   3.238   9.309   9.543  0.5771  0.1951  0.1839
  397MOL0     C52318   3.281   9.363   9.427 -0.0592  0.0099  0.1514
  397MOL0     O52319   3.518   9.514   9.288 -0.3617 -0.5488  0.4243
  397MOL0     C52320   3.563   9.603   9.031 -0.4241 -0.4063 -0.1689
  397MOL0     C52321   3.578   9.672   8.909 -0.8173 -0.8633  1.5257
  397MOL0     N52322   3.669  10.252   8.386 -0.6762 -0.2497 -0.2468
  397MOL0     N52323   3.755  10.281   8.291  0.1960  0.0387 -0.4059
  397MOL0     C52324   4.251  10.195   8.777  0.0804  0.3207 -0.0145
  397MOL0     C52325   4.216  10.234   8.910 -0.8148 -0.0136  0.1805
  397MOL0     C52326   4.123  10.507   9.246  0.9170 -0.2886 -0.5092
  397MOL0     C52327   4.179  10.623   9.303 -0.4496  0.2088 -1.1447
  397MOL0     C52328   4.166  10.635   9.452  0.4960  1.1539 -0.0691
  397MOL0     C52329   4.088  10.549   9.529 -0.1659 -0.0143  0.5154
  397MOL0     O52330   4.053  10.562   9.662  0.3552 -0.7536  0.1245
  397MOL0     C52331   4.096  10.670   9.745 -0.0263  0.7415 -0.1427
  397MOL0     C52332   4.004  10.787   9.741  0.0530  0.3227 -0.0940
  397MOL0     C52333   3.859  10.747   9.720 -0.2417  0.0301 -1.3598
  397MOL0     C52334   3.766  10.855   9.780 -0.6272  0.2153 -0.2987
  397MOL0     C52335   3.768  10.977   9.701  0.2670 -0.1026  0.0568
  397MOL0     C52336   3.761  11.075   9.624  1.0242  0.4600 -0.0394
  397MOL0     C52337   4.038  10.440   9.465 -0.6793 -0.2092  0.2062
  397MOL0     C52338   4.051  10.419   9.331  0.5965  0.1200  0.8710
  397MOL0     H52339   4.003  10.477   8.849 -2.5290 -3.0733  1.9143
  397MOL0     H52340   4.061  10.391   8.590 -1.4864 -0.4104  0.6072
  397MOL0     H52341   4.282  10.034   8.526 -1.0173  0.1133  0.3567
  397MOL0     H52342   4.415  10.141   8.571 -0.2259 -1.4624  1.1806
  397MOL0     H52343   4.395  10.032   8.327 -1.7075  0.4252  1.0537
  397MOL0     H52344   4.406  10.211   8.323 -0.2535  1.6261  1.5997
  397MOL0     H52345   4.180  10.236   8.303 -0.1884  0.4851  0.1480
  397MOL0     H52346   4.142  10.058   8.336  0.4146  0.6148  1.0865
  397MOL0     H52347   4.214  10.193   8.077  1.7231  0.7650  0.5106
  397MOL0     H52348   4.318  10.060   8.126  2.3073  4.9978  0.2307
  397MOL0     H52349   4.161   9.901   8.123  3.7605  0.5993  1.9613
  397MOL0     H52350   4.146   9.997   7.988 -0.3015 -0.5950 -0.7694
  397MOL0     H52351   3.948  10.009   8.232 -0.7406  1.9917  0.4192
  397MOL0     H52352   3.920   9.956   8.075  0.8394 -0.3427  0.6301
  397MOL0     H52353   3.981  10.247   8.153  1.6028 -0.0501  0.0654
  397MOL0     H52354   3.986  10.176   7.981 -1.9070 -1.5543 -0.4637
  397MOL0     H52355   3.772  10.095   8.002  0.0527  0.2062 -1.7889
  397MOL0     H52356   3.762  10.266   7.997 -0.1500  1.2179  1.1147
  397MOL0     H52357   3.565  10.044   8.149  0.4756  2.4228 -2.9848
  397MOL0     H52358   3.414  10.031   8.400  1.3389  0.0444 -0.3976
  397MOL0     H52359   3.391  10.199   8.451 -3.0620 -1.3073 -0.1583
  397MOL0     H52360   3.488  10.195   8.639 -0.6390  0.6877  1.0681
  397MOL0     H52361   3.597  10.055   8.608  0.5971  1.9487 -1.4551
  397MOL0     H52362   3.395  10.035   8.756 -0.7564 -0.3442  0.7946
  397MOL0     H52363   3.298  10.046   8.608  0.4410  0.6499  0.9913
  397MOL0     H52364   3.444   9.834   8.526 -0.3312  1.2669 -0.2805
  397MOL0     H52365   3.319   9.795   8.634 -2.2563  2.4002  1.1590
  397MOL0     H52366   3.265   9.779   8.842  2.4164  3.9053  1.0140
  397MOL0     H52367   3.221   9.669   9.051  1.1619  3.1910  1.4774
  397MOL0     H52368   3.232   9.694   9.479  1.6684  0.4801  0.1048
  397MOL0     H52369   3.140   9.607   9.694 -2.6620 -0.7835 -0.6391
  397MOL0     H52370   2.931   9.449   9.739 -2.8317  1.7212  2.7093
  397MOL0     H52371   3.027   9.470   9.880  0.0676  1.5885 -1.6286
  397MOL0     H52372   2.971   9.291   9.988  0.5277  2.7925 -0.1423
  397MOL0     H52373   2.944   9.189   9.844 -1.1509 -0.2193 -0.0608
  397MOL0     H52374   2.711   9.308   9.815 -2.0927  0.7075  1.1549
  397MOL0     H52375   2.761   9.396   9.959 -0.0655 -1.7130  1.9357
  397MOL0     H52376   2.596   9.190   9.992 -0.0436 -0.8407  1.4675
  397MOL0     H52377   2.746   9.098   9.955 -1.3178  1.6628 -2.8733
  397MOL0     H52378   2.847   9.234  10.168  0.5692 -0.9970  0.4196
  397MOL0     H52379   2.745   9.096  10.193  1.0129 -1.7294 -1.6346
  397MOL0     H52380   2.527   9.237  10.185 -1.0465  1.0080  2.1347
  397MOL0     H52381   2.618   9.374  10.152  3.5141 -0.6409 -1.9025
  397MOL0     H52382   2.615   9.201  10.403 -1.4461 -0.0103  0.5114
  397MOL0     H52383   2.711   9.346  10.404  1.3571 -3.4766 -0.5802
  397MOL0     H52384   2.480   9.468  10.350  1.0995  2.2067  2.9462
  397MOL0     H52385   2.518   9.394  10.511  2.2465 -3.8042  1.6480
  397MOL0     H52386   3.220   9.203   9.560  0.5810  0.2526  0.5451
  397MOL0     H52387   3.313   9.285   9.359  1.1129 -0.9521  1.7444
  397MOL0     H52388   3.645   9.560   9.087 -1.5156 -1.7912  0.4060
  397MOL0     H52389   3.677   9.694   8.870 -1.5745 -0.5700 -0.3241
  397MOL0     H52390   4.315  10.108   8.761 -2.4704 -1.5474 -0.7388
  397MOL0     H52391   4.271  10.194   8.995  2.4322  1.9250 -0.8048
  397MOL0     H52392   4.242  10.689   9.243  2.6570  1.4235  2.9818
  397MOL0     H52393   4.218  10.716   9.502  0.4766  0.9603  0.2633
  397MOL0     H52394   4.198  10.708   9.732 -0.4113  2.0769  0.5038
  397MOL0     H52395   4.090  10.631   9.847  1.8686  1.2291  0.1890
  397MOL0     H52396   4.014  10.853   9.827  1.0013  1.1993 -0.8503
  397MOL0     H52397   4.025  10.854   9.657 -2.6438 -0.1032 -1.2382
  397MOL0     H52398   3.818  10.655   9.763 -0.8603 -0.5809 -3.1548
  397MOL0     H52399   3.843  10.748   9.612 -3.7587  0.4350 -0.9764
  397MOL0     H52400   3.667  10.813   9.802 -0.5442  1.7944  4.1936
  397MOL0     H52401   3.805  10.867   9.882  1.1100 -1.4378 -0.7240
  397MOL0     H52402   3.764  11.152   9.550  1.5321  1.3265  0.8582
  397MOL0     H52403   3.979  10.364   9.515  1.6474 -3.0383 -1.0506
  397MOL0     H52404   4.012  10.333   9.278 -1.1853  0.5325  1.4683
  398MOL0     O52405   7.521   7.450   7.734  0.0827 -0.7267  0.1569
  398MOL0     C52406   7.432   7.446   7.646 -0.4205 -0.2356 -1.7248
  398MOL0     O52407   7.437   7.378   7.522 -0.3710  0.9316 -0.6997
  398MOL0     C52408   7.553   7.340   7.465 -0.4904 -0.2514 -0.5810
  398MOL0     C52409   7.639   7.430   7.412 -0.9859  1.0663  0.2889
  398MOL0     C52410   7.761   7.389   7.356  1.2039 -0.2775  0.2143
  398MOL0     C52411   7.798   7.255   7.358 -0.3407  0.0152 -0.4165
  398MOL0     O52412   7.928   7.227   7.317 -0.1184 -0.0738 -0.0508
  398MOL0     C52413   8.006   7.142   7.395  0.1927 -0.4015 -0.5516
  398MOL0     C52414   8.159   7.126   7.348 -0.6851  0.2597  0.7573
  398MOL0     C52415   8.212   7.259   7.307  1.0344 -0.7197  0.3562
  398MOL0     C52416   8.355   7.254   7.261 -0.0840  0.0194  0.4239
  398MOL0     C52417   8.420   7.394   7.229  0.5573 -0.0855 -0.4400
  398MOL0     C52418   8.385   7.460   7.092  0.2222 -0.4465  0.3114
  398MOL0     C52419   8.455   7.402   6.966  0.6096  0.0888  0.2318
  398MOL0     C52420   8.399   7.432   6.830  0.3275  0.3362 -0.1562
  398MOL0     N52421   8.483   7.364   6.727 -0.1320  0.4941  0.0444
  398MOL0     C52422   8.573   7.429   6.648 -0.3237  0.2924  0.3921
  398MOL0     C52423   8.651   7.329   6.592 -0.6813 -0.7407 -1.3782
  398MOL0     C52424   8.779   7.375   6.513  0.6803  0.2350 -0.3752
  398MOL0     C52425   8.896   7.355   6.603  0.7917 -0.8470 -0.0671
  398MOL0     C52426   9.012   7.418   6.531 -0.8925 -0.4997 -0.5152
  398MOL0     C52427   9.013   7.567   6.574  0.2692  0.5583 -0.9914
  398MOL0     O52428   9.065   7.650   6.468  0.6186 -0.9904  0.0653
  398MOL0     C52429   9.081   7.786   6.498 -0.2996  0.1670  0.2695
  398MOL0     C52430   9.070   7.847   6.622 -0.1186 -0.2023  0.4320
  398MOL0     C52431   9.098   7.984   6.638 -0.2037  0.5048 -0.2458
  398MOL0     C52432   9.145   8.058   6.530 -0.7709 -0.5873 -0.3791
  398MOL0     C52433   9.202   8.197   6.546  0.5659  0.2784 -0.0686
  398MOL0     O52434   9.285   8.257   6.448  0.1534  0.2601  0.8577
  398MOL0     C52435   9.361   8.369   6.468 -0.1504 -0.8591 -0.2100
  398MOL0     C52436   9.370   8.458   6.576  0.2438  0.6909  0.1523
  398MOL0     C52437   9.446   8.573   6.570 -0.3392  0.6205 -0.4954
  398MOL0     C52438   9.523   8.609   6.456  0.4199 -1.2276 -1.1216
  398MOL0     O52439   9.591   8.724   6.448 -0.5321  0.1505  0.2361
  398MOL0     C52440   9.569   8.821   6.552  0.3003 -0.4016  0.3340
  398MOL0     C52441   9.631   8.947   6.502  0.1708 -1.0176 -1.0845
  398MOL0     C52442   9.584   9.059   6.593  0.1375 -1.1732 -0.7342
  398MOL0     C52443   9.623   9.198   6.531  0.0257 -0.2468 -0.7174
  398MOL0     C52444   9.513   9.308   6.549  0.2331 -0.0154  0.2709
  398MOL0     C52445   9.547   9.381   6.674  0.9590 -0.6447 -0.1025
  398MOL0     C52446   9.428   9.471   6.715  0.0027 -0.9730 -0.4271
  398MOL0     C52447   9.287   9.403   6.742 -0.3111  0.1712  0.1522
  398MOL0    Cl52448   9.193   9.484   6.857  0.0368  0.1612 -0.3493
  398MOL0     C52449   9.530   8.516   6.359  0.4276  0.6254 -0.8487
  398MOL0     C52450   9.456   8.397   6.369  0.5317  0.6154 -0.9064
  398MOL0     O52451   9.157   8.249   6.648  0.0051  0.1197 -0.5864
  398MOL0     C52452   9.167   7.994   6.413 -0.3928 -0.7272 -0.1724
  398MOL0     C52453   9.146   7.858   6.393  0.0394  0.0130 -0.1474
  398MOL0     N52454   8.604   7.205   6.636  0.6606 -0.3180 -0.2089
  398MOL0     N52455   8.501   7.225   6.713  0.6363 -0.9527 -1.1534
  398MOL0     C52456   7.711   7.158   7.396 -0.4548 -0.2493  0.2498
  398MOL0     C52457   7.582   7.203   7.448 -0.1058 -0.3390  0.1023
  398MOL0     C52458   7.307   7.520   7.674  0.4657 -0.0837 -0.0937
  398MOL0     C52459   7.298   7.611   7.787 -0.0207  0.1285  1.0691
  398MOL0     C52460   7.194   7.693   7.810  0.1198 -0.4275  0.7049
  398MOL0     C52461   7.079   7.680   7.732  2.0245  0.2951  1.6966
  398MOL0     O52462   6.964   7.734   7.781  0.0319  0.5098  1.0432
  398MOL0     C52463   6.850   7.646   7.747 -0.9202  0.1570  0.5703
  398MOL0     C52464   6.736   7.670   7.848  0.0327 -0.4831  0.0635
  398MOL0     C52465   6.777   7.648   7.996 -0.4156  1.0861  0.1031
  398MOL0     C52466   6.660   7.613   8.094  0.4119  0.2463  0.1364
  398MOL0     C52467   6.593   7.728   8.142 -0.5018  0.9549  0.5796
  398MOL0     C52468   6.551   7.828   8.193 -0.2706 -0.0326  0.9063
  398MOL0     C52469   7.086   7.601   7.609  0.5339  0.4229 -0.8616
  398MOL0     C52470   7.200   7.529   7.583  0.4142 -0.3094  0.3091
  398MOL0     H52471   7.615   7.536   7.415  2.1376  1.9575 -1.8543
  398MOL0     H52472   7.830   7.455   7.305  0.7166  0.3440  0.3519
  398MOL0     H52473   7.951   7.050   7.371 -2.5882  1.1232 -0.3333
  398MOL0     H52474   8.003   7.161   7.503 -0.2169 -0.5509 -0.5369
  398MOL0     H52475   8.163   7.063   7.258 -1.0347 -0.2607  1.0945
  398MOL0     H52476   8.224   7.076   7.419  0.7532  0.0518 -0.6425
  398MOL0     H52477   8.201   7.321   7.397 -1.5747  1.7799 -1.4904
  398MOL0     H52478   8.149   7.308   7.232  1.2164  0.5419  0.9994
  398MOL0     H52479   8.408   7.213   7.347 -1.4668 -1.3961  0.6525
  398MOL0     H52480   8.367   7.177   7.184 -0.3853  0.9807 -0.6050
  398MOL0     H52481   8.529   7.391   7.242  0.3609  1.9499  3.3945
  398MOL0     H52482   8.410   7.469   7.308  1.0013  0.0259 -0.4815
  398MOL0     H52483   8.408   7.566   7.109 -1.5376 -0.1593  1.0881
  398MOL0     H52484   8.277   7.448   7.085  0.3719 -2.1000  0.4940
  398MOL0     H52485   8.558   7.439   6.970  0.1770  1.1839  3.4507
  398MOL0     H52486   8.455   7.293   6.975  0.0171  0.0752  0.1086
  398MOL0     H52487   8.399   7.541   6.816  2.4534  0.3231 -0.6304
  398MOL0     H52488   8.299   7.389   6.833  1.4872 -2.6609 -1.0835
  398MOL0     H52489   8.594   7.533   6.626  1.8928  0.1220  1.4085
  398MOL0     H52490   8.761   7.478   6.480 -1.1107  0.8036  2.0259
  398MOL0     H52491   8.804   7.316   6.425  1.1040 -0.6419  0.3066
  398MOL0     H52492   8.905   7.246   6.607  2.6624 -0.7298 -0.1910
  398MOL0     H52493   8.880   7.393   6.704 -1.7545 -2.1196  0.0861
  398MOL0     H52494   9.106   7.373   6.563 -1.0088  0.6950  1.7351
  398MOL0     H52495   9.013   7.394   6.425  0.3355  1.2850 -0.9600
  398MOL0     H52496   9.083   7.579   6.657 -0.3161 -1.0865 -0.2109
  398MOL0     H52497   8.917   7.595   6.619  0.0873  0.7471 -1.4916
  398MOL0     H52498   9.039   7.790   6.709  0.8365 -2.8598 -0.8709
  398MOL0     H52499   9.096   8.030   6.736  0.8410  0.6132 -0.2709
  398MOL0     H52500   9.295   8.447   6.654 -3.3309  0.7950 -2.9415
  398MOL0     H52501   9.427   8.624   6.663 -1.5065  2.0172 -1.4510
  398MOL0     H52502   9.623   8.799   6.644  0.0892 -1.4163  0.2265
  398MOL0     H52503   9.464   8.844   6.571  0.1492 -0.3793 -0.4734
  398MOL0     H52504   9.600   8.963   6.399  2.6468 -0.9302 -1.8837
  398MOL0     H52505   9.740   8.942   6.503  0.1415 -2.8618  0.6345
  398MOL0     H52506   9.633   9.035   6.688 -0.0490 -2.4609 -0.9347
  398MOL0     H52507   9.477   9.064   6.615  0.7033  0.1362  2.0364
  398MOL0     H52508   9.716   9.238   6.570 -0.8686 -0.4144  1.7679
  398MOL0     H52509   9.625   9.176   6.424 -1.1527  1.9781 -1.2483
  398MOL0     H52510   9.415   9.261   6.563 -1.0666  2.1151 -1.1614
  398MOL0     H52511   9.512   9.379   6.466  0.2173 -2.2825 -1.8039
  398MOL0     H52512   9.630   9.451   6.662 -0.8213  1.7129  0.6082
  398MOL0     H52513   9.578   9.307   6.748  4.6313  0.3565 -0.4543
  398MOL0     H52514   9.461   9.511   6.812  1.0006 -2.6604 -0.0380
  398MOL0     H52515   9.421   9.560   6.652 -0.7943 -1.2193 -0.6981
  398MOL0     H52516   9.301   9.296   6.757  0.1104  0.1314 -0.5144
  398MOL0     H52517   9.218   9.406   6.658 -1.8931  0.0438  1.3981
  398MOL0     H52518   9.591   8.524   6.270 -1.2519 -1.6579 -2.3199
  398MOL0     H52519   9.451   8.321   6.292 -2.2563  0.7251 -0.9437
  398MOL0     H52520   9.216   8.054   6.336  0.5990 -0.0892  0.9225
  398MOL0     H52521   9.167   7.813   6.296  2.3468 -2.8605  1.4936
  398MOL0     H52522   7.732   7.053   7.381  2.1137 -0.1988  2.5412
  398MOL0     H52523   7.506   7.127   7.465  1.2396 -2.7562 -3.3980
  398MOL0     H52524   7.382   7.606   7.856  1.6509 -0.8797 -0.9147
  398MOL0     H52525   7.206   7.763   7.893  3.8040 -0.5342  0.3996
  398MOL0     H52526   6.876   7.540   7.753 -1.1329  0.1130  0.7098
  398MOL0     H52527   6.817   7.672   7.646  1.8174  1.7439 -0.0112
  398MOL0     H52528   6.698   7.772   7.837 -0.0397 -0.4339  0.7589
  398MOL0     H52529   6.657   7.599   7.824 -1.3562  1.6951 -2.3127
  398MOL0     H52530   6.828   7.736   8.036 -0.7861  0.0866  2.9383
  398MOL0     H52531   6.848   7.564   7.994 -0.2260  1.2491 -0.4754
  398MOL0     H52532   6.599   7.534   8.050  1.0222 -1.0705  1.5445
  398MOL0     H52533   6.692   7.571   8.190  0.4555  4.2050  2.0633
  398MOL0     H52534   6.523   7.916   8.248  2.3270 -0.1656  2.6167
  398MOL0     H52535   7.005   7.579   7.540 -2.2322  0.8094  2.0091
  398MOL0     H52536   7.207   7.476   7.489  1.4106  2.0079 -1.0244
  399MOL0     O52537   7.658   7.989   9.051  0.1688 -0.2562  1.2174
  399MOL0     C52538   7.672   7.884   9.111 -0.6634 -1.2404 -0.2579
  399MOL0     O52539   7.570   7.810   9.172 -0.2553  0.1315  0.5248
  399MOL0     C52540   7.440   7.802   9.114  0.4603 -0.0740 -0.1681
  399MOL0     C52541   7.405   7.687   9.034 -0.0866  0.8799 -0.7334
  399MOL0     C52542   7.278   7.678   8.986  0.2828  0.0245  0.7693
  399MOL0     C52543   7.181   7.782   8.997  0.4794 -0.1891 -0.6782
  399MOL0     O52544   7.057   7.753   8.965  1.3713  0.4675  0.3668
  399MOL0     C52545   6.986   7.858   8.885  0.0772  0.0821  0.1108
  399MOL0     C52546   6.870   7.925   8.968  0.0511  0.4429 -0.5325
  399MOL0     C52547   6.775   7.830   9.048 -0.1024 -0.0446 -0.0659
  399MOL0     C52548   6.654   7.894   9.110  0.2915 -0.3931 -0.3293
  399MOL0     C52549   6.576   7.797   9.201  0.2107  0.2686 -0.1335
  399MOL0     C52550   6.652   7.756   9.333  0.7245 -0.2202  0.2769
  399MOL0     C52551   6.681   7.616   9.341  0.3965 -0.7694  0.0174
  399MOL0     C52552   6.768   7.561   9.460 -0.4152  1.1294  1.0789
  399MOL0     N52553   6.689   7.582   9.578  0.5577 -1.2283 -0.2447
  399MOL0     C52554   6.596   7.497   9.643 -0.1451  0.2447 -0.5649
  399MOL0     C52555   6.522   7.583   9.723 -0.0193  1.1402 -0.2850
  399MOL0     C52556   6.399   7.556   9.814 -0.0344  0.0976 -0.0489
  399MOL0     C52557   6.343   7.413   9.812 -0.3383 -0.4258 -0.9561
  399MOL0     C52558   6.228   7.396   9.920 -0.0152  0.9110 -0.1705
  399MOL0     C52559   6.142   7.271   9.890  0.1685 -1.3196 -0.7587
  399MOL0     O52560   6.014   7.263   9.964 -0.9425  0.5068 -0.8892
  399MOL0     C52561   5.965   7.136   9.986 -0.6457 -0.0365 -0.9297
  399MOL0     C52562   5.898   7.105  10.113 -0.0159 -0.0708  0.0484
  399MOL0     C52563   5.825   6.984  10.124 -0.1726 -0.7264 -0.2527
  399MOL0     C52564   5.818   6.884  10.030  0.6605 -0.2433  0.1350
  399MOL0     C52565   5.756   6.752  10.048 -0.0279 -0.1273 -0.2023
  399MOL0     O52566   5.735   6.678   9.937  0.1043 -0.4300  0.3442
  399MOL0     C52567   5.701   6.548   9.961  0.5581  0.1174  0.0918
  399MOL0     C52568   5.781   6.467  10.051 -0.3764  0.4000 -0.1101
  399MOL0     C52569   5.736   6.339  10.073  0.2746 -0.7056  0.3352
  399MOL0     C52570   5.634   6.278  10.010 -0.0661  0.3028 -0.1299
  399MOL0     O52571   5.625   6.147  10.045 -0.0025  0.6953 -0.3350
  399MOL0     C52572   5.505   6.069  10.013  0.0979  0.2907 -0.2485
  399MOL0     C52573   5.510   5.921  10.031  0.3100 -0.6756  0.2242
  399MOL0     C52574   5.393   5.856   9.950 -0.0578 -0.4649 -0.4943
  399MOL0     C52575   5.384   5.707   9.989  0.4693  0.0130 -1.0235
  399MOL0     C52576   5.287   5.631   9.901  0.0346 -0.3294 -0.1016
  399MOL0     C52577   5.165   5.571   9.958 -0.9713 -0.3699  0.3669
  399MOL0     C52578   5.070   5.681  10.003 -0.4159 -0.2437 -0.2448
  399MOL0     C52579   4.954   5.653  10.087 -0.6270  0.2985  0.4536
  399MOL0    Cl52580   4.863   5.509  10.016 -0.7573  0.5712 -0.5690
  399MOL0     C52581   5.548   6.362   9.929 -0.6705  0.4289 -0.2608
  399MOL0     C52582   5.582   6.495   9.912  0.5733  0.5089  0.6131
  399MOL0     O52583   5.712   6.729  10.166  0.1191  0.0616 -0.4758
  399MOL0     C52584   5.887   6.915   9.909  0.6190 -0.5056 -0.6073
  399MOL0     C52585   5.954   7.028   9.888 -0.5190  0.1724 -0.0023
  399MOL0     N52586   6.579   7.714   9.711  0.0111  0.5076  0.0408
  399MOL0     N52587   6.682   7.709   9.638  0.0470 -0.2827 -0.1590
  399MOL0     C52588   7.216   7.893   9.083  0.9770 -0.3270 -0.8137
  399MOL0     C52589   7.347   7.898   9.137 -0.6266 -0.0469  0.4606
  399MOL0     C52590   7.809   7.823   9.114  0.0773 -0.1937 -0.3293
  399MOL0     C52591   7.913   7.906   9.138 -0.7636  0.6390 -0.6426
  399MOL0     C52592   8.041   7.866   9.137  0.4422  0.4856  0.4214
  399MOL0     C52593   8.073   7.736   9.104 -0.2942 -0.4818  0.8122
  399MOL0     O52594   8.205   7.701   9.109  0.0100  0.1492  0.0287
  399MOL0     C52595   8.247   7.570   9.053  0.3750 -0.9555  0.8939
  399MOL0     C52596   8.389   7.529   9.091 -0.3952 -0.9877  0.4521
  399MOL0     C52597   8.481   7.632   9.015  0.0537  0.4416  0.4046
  399MOL0     C52598   8.631   7.616   9.045  0.2998 -0.7906  1.0031
  399MOL0     C52599   8.656   7.584   9.179 -0.0334  0.0964 -0.3556
  399MOL0     C52600   8.661   7.556   9.295  0.5401  0.5487 -1.4994
  399MOL0     C52601   7.970   7.648   9.092 -0.3573 -0.5300  1.1344
  399MOL0     C52602   7.835   7.691   9.082 -0.4742 -0.6120  0.0739
  399MOL0     H52603   7.489   7.621   9.010 -0.4292 -0.9170  2.4356
  399MOL0     H52604   7.257   7.594   8.920  1.9077 -1.3785  1.9196
  399MOL0     H52605   6.946   7.802   8.800  0.7095 -2.6461  1.5037
  399MOL0     H52606   7.054   7.933   8.844  2.4218 -2.6791 -1.4150
  399MOL0     H52607   6.819   8.005   8.914  1.7809  1.8473 -0.2173
  399MOL0     H52608   6.901   7.990   9.051 -3.7190 -0.8765  2.1741
  399MOL0     H52609   6.826   7.775   9.129 -0.5640  0.2752  0.4460
  399MOL0     H52610   6.739   7.748   8.985 -0.2628 -0.6744  0.8184
  399MOL0     H52611   6.691   7.978   9.169  1.9888 -1.8309  0.7103
  399MOL0     H52612   6.592   7.926   9.025  0.4808  0.0683 -0.2972
  399MOL0     H52613   6.548   7.707   9.146 -1.7191  2.5246 -3.1889
  399MOL0     H52614   6.479   7.838   9.234 -0.1186 -1.2175  0.8362
  399MOL0     H52615   6.598   7.784   9.424  0.0286  0.6875 -0.4032
  399MOL0     H52616   6.744   7.814   9.344  0.7556 -0.6081  2.5729
  399MOL0     H52617   6.592   7.552   9.340 -0.1775  0.0009  0.1506
  399MOL0     H52618   6.735   7.595   9.249  0.6156  1.1084 -0.3170
  399MOL0     H52619   6.867   7.609   9.459  0.1173  0.0517  0.4238
  399MOL0     H52620   6.790   7.454   9.455  1.1625  1.4840 -1.4992
  399MOL0     H52621   6.592   7.389   9.633 -3.3449 -0.1717  2.8858
  399MOL0     H52622   6.322   7.632   9.799  2.0897  2.8596  1.9845
  399MOL0     H52623   6.438   7.583   9.913  0.4684  1.0227 -0.4782
  399MOL0     H52624   6.421   7.337   9.823  2.2162  2.1825 -0.0116
  399MOL0     H52625   6.316   7.403   9.706  1.0554  1.2119 -1.5082
  399MOL0     H52626   6.274   7.397  10.019  0.7327  0.2237 -0.5059
  399MOL0     H52627   6.152   7.474   9.909 -2.0854 -1.1654 -1.6875
  399MOL0     H52628   6.212   7.190   9.913 -0.8579 -2.0716 -0.1710
  399MOL0     H52629   6.125   7.275   9.782 -0.8349  0.8787 -0.5718
  399MOL0     H52630   5.892   7.185  10.185 -0.0770  0.4804 -0.5603
  399MOL0     H52631   5.764   6.988  10.214  2.0191  2.7642  1.2749
  399MOL0     H52632   5.874   6.507  10.091  0.1053  1.6790 -2.3558
  399MOL0     H52633   5.783   6.279  10.150 -2.0307 -0.0900  2.3391
  399MOL0     H52634   5.479   6.077   9.907  1.8683 -3.3995 -1.1088
  399MOL0     H52635   5.418   6.112  10.064 -0.4689  0.6430 -1.4720
  399MOL0     H52636   5.491   5.900  10.137  0.0120  0.2419  0.3690
  399MOL0     H52637   5.609   5.885  10.002 -0.2729 -3.4504  1.4115
  399MOL0     H52638   5.399   5.871   9.842 -3.0064 -0.1216 -0.6998
  399MOL0     H52639   5.295   5.899   9.975  0.2087  1.0439 -1.8797
  399MOL0     H52640   5.482   5.660   9.976  1.4658  1.6052  0.3918
  399MOL0     H52641   5.362   5.697  10.096  2.0922  0.5797 -0.6021
  399MOL0     H52642   5.349   5.546   9.872  2.8251  0.8755  1.9542
  399MOL0     H52643   5.263   5.684   9.808 -1.4470 -1.5155 -0.4446
  399MOL0     H52644   5.197   5.501  10.036  0.8033  0.7904  0.7513
  399MOL0     H52645   5.115   5.527   9.872 -3.9123  0.4090  1.5663
  399MOL0     H52646   5.118   5.761  10.060 -0.3604 -0.3111 -0.1956
  399MOL0     H52647   5.022   5.728   9.917 -0.2051  2.8900  1.2139
  399MOL0     H52648   4.895   5.737  10.125 -1.9154 -1.2885  2.1648
  399MOL0     H52649   5.001   5.610  10.176 -0.7072 -4.2460 -1.4267
  399MOL0     H52650   5.460   6.318   9.882  0.3765 -2.9242  0.6978
  399MOL0     H52651   5.522   6.568   9.859 -0.1116 -0.0770  0.5495
  399MOL0     H52652   5.870   6.843   9.829 -2.9366  1.5507 -1.9742
  399MOL0     H52653   5.995   7.045   9.789  0.5366 -0.9775  0.2103
  399MOL0     H52654   7.142   7.971   9.091 -0.3472 -1.5937 -0.1965
  399MOL0     H52655   7.386   7.979   9.198 -1.8953 -1.5076  3.3951
  399MOL0     H52656   7.895   8.011   9.159  0.6819  0.1907  3.6288
  399MOL0     H52657   8.121   7.935   9.164  0.0624  1.8019 -1.6278
  399MOL0     H52658   8.238   7.575   8.944  1.0568  0.7601  0.8908
  399MOL0     H52659   8.182   7.494   9.099 -2.0302  1.3520  1.6056
  399MOL0     H52660   8.399   7.526   9.200  1.1165  0.0666  0.3700
  399MOL0     H52661   8.408   7.425   9.065 -1.2898 -1.1132  0.2448
  399MOL0     H52662   8.454   7.732   9.050 -2.2617  0.0090  0.0052
  399MOL0     H52663   8.466   7.625   8.907  2.4994  2.2897 -0.1432
  399MOL0     H52664   8.671   7.537   8.980 -1.1467 -1.0106  0.3339
  399MOL0     H52665   8.686   7.707   9.019 -3.2250  1.3481  0.4215
  399MOL0     H52666   8.645   7.529   9.397 -2.4203  0.7764 -1.8399
  399MOL0     H52667   7.981   7.541   9.079 -0.0938 -0.2282 -1.9389
  399MOL0     H52668   7.749   7.631   9.052 -1.6657  2.2189 -2.7649
  400MOL0     O52669   0.969   8.504   1.274 -0.3296  0.1728  0.5032
  400MOL0     C52670   1.082   8.471   1.234  0.7302 -0.6285  0.6771
  400MOL0     O52671   1.191   8.546   1.271 -0.1309  0.9519 -0.0063
  400MOL0     C52672   1.176   8.646   1.361  0.2050  0.6099 -0.2699
  400MOL0     C52673   1.075   8.749   1.345 -0.9689 -0.7346 -1.1064
  400MOL0     C52674   1.076   8.861   1.435  0.0885  0.9646  0.3113
  400MOL0     C52675   1.170   8.875   1.537 -0.3183  1.0874 -0.5508
  400MOL0     O52676   1.145   8.976   1.623 -0.2314 -0.1493 -0.1669
  400MOL0     C52677   1.214   8.975   1.749 -0.1372  0.8637 -0.0818
  400MOL0     C52678   1.126   9.036   1.863 -0.6925  0.0870  0.7859
  400MOL0     C52679   1.204   9.048   1.995 -0.7107  0.0108  0.4431
  400MOL0     C52680   1.110   9.100   2.108  0.1060 -0.3763  1.4572
  400MOL0     C52681   1.162   9.070   2.244  0.1462  0.4054  0.0948
  400MOL0     C52682   1.301   9.126   2.280  0.5601 -0.6473  0.2738
  400MOL0     C52683   1.308   9.286   2.307 -1.1471 -1.0650 -1.0395
  400MOL0     C52684   1.241   9.335   2.442  0.3052 -0.1750  0.8686
  400MOL0     N52685   1.282   9.255   2.559  0.3647 -0.3881  0.3821
  400MOL0     C52686   1.412   9.247   2.601  0.1678 -0.1125  0.1221
  400MOL0     C52687   1.407   9.178   2.723  0.3348 -0.5104 -0.1127
  400MOL0     C52688   1.511   9.165   2.821  0.6841 -0.1014  0.1694
  400MOL0     C52689   1.566   9.299   2.855 -0.4144 -1.0550 -0.6677
  400MOL0     C52690   1.458   9.378   2.940 -0.6630 -0.2971  0.6870
  400MOL0     C52691   1.488   9.526   2.932  0.1573  0.0074  0.4252
  400MOL0     O52692   1.592   9.542   3.031 -0.2513 -0.2911  0.4772
  400MOL0     C52693   1.657   9.668   3.042  0.0742  0.7157  0.0141
  400MOL0     C52694   1.784   9.658   3.100  0.8909  0.9346 -0.4684
  400MOL0     C52695   1.855   9.769   3.106 -0.5302  0.1889 -0.7417
  400MOL0     C52696   1.801   9.897   3.057  0.3183  0.5567  0.5465
  400MOL0     C52697   1.888  10.010   3.085  0.8759  0.6616 -0.7582
  400MOL0     O52698   1.837  10.138   3.060  0.0793 -0.3191  0.0197
  400MOL0     C52699   1.923  10.241   3.094 -0.2152 -1.0960 -0.9257
  400MOL0     C52700   1.868  10.344   3.177 -0.2170  0.0784  0.0722
  400MOL0     C52701   1.941  10.458   3.210  0.3524  0.2690  0.0019
  400MOL0     C52702   2.061  10.487   3.139  0.2748 -0.5340 -0.7295
  400MOL0     O52703   2.136  10.600   3.148 -0.3943  0.1408 -0.0699
  400MOL0     C52704   2.104  10.705   3.239  0.2402  0.1420  0.3296
  400MOL0     C52705   2.242  10.761   3.288 -0.1975 -0.0933 -0.5912
  400MOL0     C52706   2.242  10.897   3.370  0.0641  0.2498  0.0821
  400MOL0     C52707   2.192  11.015   3.289  0.5537  0.2147  1.0781
  400MOL0     C52708   2.174  11.138   3.380  0.3431  0.8448 -0.3942
  400MOL0     C52709   2.112  11.262   3.315  0.3507  0.8264  0.4047
  400MOL0     C52710   2.179  11.306   3.176 -0.4461  0.3746  0.0605
  400MOL0     C52711   2.309  11.373   3.187 -0.9059 -0.4551 -0.5244
  400MOL0    Cl52712   2.317  11.497   3.313 -0.3441 -0.1612 -0.0209
  400MOL0     C52713   2.110  10.387   3.055 -0.3707 -1.0307 -0.0448
  400MOL0     C52714   2.046  10.263   3.039 -0.9630  0.1137  0.1289
  400MOL0     O52715   2.010   9.989   3.109  1.6282 -0.1910  0.0624
  400MOL0     C52716   1.672   9.907   3.005  0.2137 -0.6960  1.2917
  400MOL0     C52717   1.597   9.792   2.999  1.4541  0.4486 -0.4411
  400MOL0     N52718   1.271   9.135   2.733  0.6068  0.0922 -0.2531
  400MOL0     N52719   1.208   9.182   2.637  0.5713  0.2377  0.0050
  400MOL0     C52720   1.267   8.771   1.540 -0.4758  0.2304  0.6714
  400MOL0     C52721   1.273   8.656   1.458  0.1838 -0.6298 -0.3662
  400MOL0     C52722   1.094   8.351   1.143 -0.0312 -0.9342 -0.3200
  400MOL0     C52723   0.987   8.268   1.111  0.0680  0.2996  0.1499
  400MOL0     C52724   1.002   8.155   1.027 -0.7484 -0.0656  0.7220
  400MOL0     C52725   1.138   8.113   0.979  0.6649 -0.3293 -0.1062
  400MOL0     O52726   1.146   7.989   0.916  0.2168  0.1028  0.5550
  400MOL0     C52727   1.267   7.918   0.912  0.0226 -0.0701  0.5166
  400MOL0     C52728   1.322   7.862   1.042  0.0790  0.1168  0.8337
  400MOL0     C52729   1.451   7.791   1.015 -0.0023  0.6697 -1.1787
  400MOL0     C52730   1.531   7.739   1.137 -0.1014 -0.4486  0.0619
  400MOL0     C52731   1.587   7.838   1.234  0.7942 -0.1401  0.1296
  400MOL0     C52732   1.638   7.934   1.280 -0.4664  0.8286 -1.2519
  400MOL0     C52733   1.244   8.199   1.016  0.2486  0.8958  0.2125
  400MOL0     C52734   1.222   8.313   1.102 -1.3658  0.5031 -0.3804
  400MOL0     H52735   0.998   8.750   1.268 -1.2568  0.7685 -0.8361
  400MOL0     H52736   0.998   8.937   1.429 -0.4485  0.7864  3.4306
  400MOL0     H52737   1.308   9.029   1.733  0.3111 -0.1543 -1.0202
  400MOL0     H52738   1.233   8.872   1.781  0.0409  1.9124  3.5798
  400MOL0     H52739   1.038   8.972   1.871  0.0590 -0.9270  1.1105
  400MOL0     H52740   1.096   9.136   1.830 -0.1542  0.9711  2.7889
  400MOL0     H52741   1.292   9.108   1.973  0.9287 -1.9180  1.4466
  400MOL0     H52742   1.239   8.953   2.036 -2.4958 -0.3882  1.1585
  400MOL0     H52743   1.087   9.206   2.089  0.0088 -0.7281 -0.5961
  400MOL0     H52744   1.021   9.040   2.087  1.1912 -1.0581 -1.7570
  400MOL0     H52745   1.166   8.963   2.267  3.7493  0.3675 -0.1872
  400MOL0     H52746   1.099   9.106   2.326  1.8078  1.5906  0.8989
  400MOL0     H52747   1.385   9.101   2.215 -1.4225 -4.2525 -1.2366
  400MOL0     H52748   1.331   9.074   2.372 -1.0927 -1.7588  0.2373
  400MOL0     H52749   1.411   9.320   2.320 -2.1006  1.3733  0.8208
  400MOL0     H52750   1.264   9.347   2.227  1.0449  1.3499 -0.5207
  400MOL0     H52751   1.132   9.328   2.441  0.3438 -1.1244  1.8427
  400MOL0     H52752   1.266   9.441   2.451 -0.2102  0.2865 -2.0692
  400MOL0     H52753   1.498   9.300   2.562 -0.8983  0.3293 -1.7992
  400MOL0     H52754   1.592   9.105   2.778  1.8600  0.8180  1.0212
  400MOL0     H52755   1.482   9.117   2.914 -0.9778 -0.1130 -0.3365
  400MOL0     H52756   1.606   9.349   2.767  3.2079 -1.9157  0.3383
  400MOL0     H52757   1.656   9.273   2.912  0.3689  1.6573 -0.5731
  400MOL0     H52758   1.353   9.371   2.911 -0.1943 -0.3475 -1.1414
  400MOL0     H52759   1.470   9.342   3.043 -1.1783  1.5832  1.4431
  400MOL0     H52760   1.399   9.583   2.959  0.0526 -0.7525  1.8341
  400MOL0     H52761   1.521   9.563   2.835  2.2179  1.4003  1.5879
  400MOL0     H52762   1.820   9.556   3.115  0.7342  0.6400 -1.9163
  400MOL0     H52763   1.955   9.771   3.147 -0.6757 -0.3937 -0.3522
  400MOL0     H52764   1.766  10.321   3.204 -0.5375 -1.3854 -2.1816
  400MOL0     H52765   1.916  10.504   3.305 -0.3205 -2.1312  1.0566
  400MOL0     H52766   2.031  10.673   3.315 -1.3000 -0.7650 -1.4435
  400MOL0     H52767   2.052  10.783   3.184  0.8993  1.8276  1.9946
  400MOL0     H52768   2.283  10.782   3.188  0.1082 -0.2734 -0.5044
  400MOL0     H52769   2.308  10.691   3.341  0.4109  2.0895  1.7210
  400MOL0     H52770   2.345  10.917   3.402 -0.2090  2.9417 -0.4604
  400MOL0     H52771   2.179  10.880   3.457 -4.7962  1.4975 -2.8328
  400MOL0     H52772   2.243  11.046   3.198 -1.9766  1.0426 -0.1458
  400MOL0     H52773   2.089  10.997   3.260  0.1924 -0.0289  2.4248
  400MOL0     H52774   2.273  11.161   3.419 -0.7466  2.3115  1.6603
  400MOL0     H52775   2.103  11.111   3.458  2.6771 -3.3412  0.5923
  400MOL0     H52776   2.118  11.345   3.385  0.7855 -1.7534  3.6650
  400MOL0     H52777   2.009  11.241   3.285 -0.0742 -0.6408  2.6496
  400MOL0     H52778   2.193  11.225   3.103 -1.3847 -0.0074  0.2826
  400MOL0     H52779   2.116  11.383   3.130 -0.0526 -0.3391 -1.7920
  400MOL0     H52780   2.332  11.418   3.090 -1.3152  1.2470  0.1222
  400MOL0     H52781   2.393  11.304   3.199  1.7250  2.1819 -2.1386
  400MOL0     H52782   2.196  10.415   2.995  0.5545 -1.4451  1.0550
  400MOL0     H52783   2.089  10.197   2.965 -0.0754  2.1659 -1.2793
  400MOL0     H52784   1.647  10.006   2.969  0.3381 -1.4767 -1.1549
  400MOL0     H52785   1.508   9.778   2.938  1.5004 -1.0169 -0.2219
  400MOL0     H52786   1.345   8.783   1.616  0.1495 -2.3036  0.5080
  400MOL0     H52787   1.349   8.582   1.480  2.3542  1.0430 -1.8527
  400MOL0     H52788   0.882   8.280   1.139 -0.0605  0.7772 -0.5256
  400MOL0     H52789   0.912   8.105   0.994 -1.0087  1.5011 -1.1327
  400MOL0     H52790   1.354   7.980   0.887  1.5634 -2.2443  0.1630
  400MOL0     H52791   1.231   7.846   0.838 -0.0870  2.0691 -1.6350
  400MOL0     H52792   1.347   7.945   1.109 -1.2126  0.4267  0.9655
  400MOL0     H52793   1.246   7.792   1.079  1.4943 -2.1847 -0.4270
  400MOL0     H52794   1.510   7.862   0.957 -1.7493  3.2542  0.0065
  400MOL0     H52795   1.427   7.701   0.958  1.2322 -0.2926 -0.2150
  400MOL0     H52796   1.473   7.659   1.184 -0.1362 -0.4064  0.0915
  400MOL0     H52797   1.613   7.677   1.100  0.2161 -1.6285  2.5355
  400MOL0     H52798   1.687   8.014   1.332 -1.9075 -0.7654  3.0025
  400MOL0     H52799   1.346   8.186   0.981  0.4662  4.7712 -1.0452
  400MOL0     H52800   1.309   8.375   1.125 -0.8548  0.3438 -1.8235
  401MOL0     O52801   7.592   7.995   1.833  0.0719  0.8607  0.2930
  401MOL0     C52802   7.484   8.056   1.815  0.1207 -0.0575 -0.4413
  401MOL0     O52803   7.362   7.996   1.814  0.6295 -0.5502 -0.2252
  401MOL0     C52804   7.358   7.863   1.853  0.1352  0.3497 -1.0244
  401MOL0     C52805   7.378   7.828   1.989  0.7992  0.9109  0.3996
  401MOL0     C52806   7.388   7.702   2.029 -0.8652  0.1125  0.0931
  401MOL0     C52807   7.372   7.596   1.928 -0.0183 -0.4077 -0.4482
  401MOL0     O52808   7.399   7.465   1.980  0.2860  0.1782  0.5148
  401MOL0     C52809   7.346   7.355   1.914 -0.1717  0.0746  0.2435
  401MOL0     C52810   7.337   7.231   2.004  0.1015 -0.6425  0.9074
  401MOL0     C52811   7.304   7.101   1.924  0.2364  0.1693 -0.3636
  401MOL0     C52812   7.156   7.098   1.886 -0.6844  0.3342 -1.0801
  401MOL0     C52813   7.138   6.965   1.813 -0.0298  0.7710 -0.4390
  401MOL0     C52814   6.996   6.962   1.755  0.0017  0.1866  0.8544
  401MOL0     C52815   6.987   6.830   1.673 -0.2240 -0.9013 -0.3828
  401MOL0     C52816   6.842   6.816   1.618 -0.5261 -0.6491  1.0576
  401MOL0     N52817   6.842   6.724   1.499  0.2471 -0.4543 -0.2554
  401MOL0     C52818   6.820   6.590   1.513  0.5471 -0.1493 -0.4512
  401MOL0     C52819   6.790   6.556   1.387  0.5105 -0.1668  0.5976
  401MOL0     C52820   6.770   6.412   1.335 -0.3449 -0.1368  0.1380
  401MOL0     C52821   6.896   6.340   1.364 -0.9223  0.0644 -0.2284
  401MOL0     C52822   6.882   6.184   1.378  0.2125  0.3162 -0.1206
  401MOL0     C52823   6.796   6.128   1.264 -0.2112  0.5624  0.2998
  401MOL0     O52824   6.807   5.983   1.272 -0.6758  0.3070 -0.5880
  401MOL0     C52825   6.686   5.909   1.274 -1.1018 -0.2174  0.4171
  401MOL0     C52826   6.703   5.784   1.333  0.1653  0.1512  0.1185
  401MOL0     C52827   6.594   5.700   1.366 -0.7261 -1.1046 -0.1071
  401MOL0     C52828   6.462   5.743   1.333 -0.2354 -0.0089  0.0410
  401MOL0     C52829   6.334   5.676   1.382 -0.1530  0.1922 -0.3653
  401MOL0     O52830   6.222   5.709   1.311 -0.2338 -1.0527 -0.4053
  401MOL0     C52831   6.094   5.677   1.352 -0.4007  0.9935  0.3339
  401MOL0     C52832   6.053   5.663   1.492 -0.2857  0.5634  1.0464
  401MOL0     C52833   5.919   5.628   1.509 -0.5812  0.0903  0.4747
  401MOL0     C52834   5.833   5.617   1.399 -0.2545 -0.0719 -0.3069
  401MOL0     O52835   5.706   5.585   1.434 -0.3868 -0.0884 -0.1229
  401MOL0     C52836   5.621   5.509   1.342 -0.1890 -0.1349 -0.8787
  401MOL0     C52837   5.610   5.364   1.397  0.5115 -0.5792 -0.0888
  401MOL0     C52838   5.627   5.256   1.282  0.2380  0.1179 -0.1314
  401MOL0     C52839   5.537   5.284   1.153 -0.8415  0.1003 -0.4299
  401MOL0     C52840   5.533   5.169   1.051  0.6880 -0.0499  0.5404
  401MOL0     C52841   5.659   5.143   0.964  1.0760 -1.4583  0.1730
  401MOL0     C52842   5.638   5.027   0.869  0.5025 -0.2822 -0.4960
  401MOL0     C52843   5.759   4.977   0.801  0.2524  0.3094  0.5983
  401MOL0    Cl52844   5.709   4.860   0.664 -0.2146 -0.6290 -0.0156
  401MOL0     C52845   5.873   5.635   1.265 -0.7395  0.1915  1.2683
  401MOL0     C52846   6.008   5.664   1.244 -0.2275  1.1233 -0.3205
  401MOL0     O52847   6.343   5.610   1.482 -0.2262  0.5414  0.0635
  401MOL0     C52848   6.451   5.870   1.268  0.1930  0.4094 -0.0894
  401MOL0     C52849   6.560   5.958   1.246 -0.1087 -0.5484 -0.1108
  401MOL0     N52850   6.779   6.666   1.301  0.3385  0.6925  0.1375
  401MOL0     N52851   6.819   6.767   1.373  0.0474  0.5498  0.8476
  401MOL0     C52852   7.330   7.628   1.798  0.2557 -0.2395 -1.4247
  401MOL0     C52853   7.317   7.764   1.761  0.1405 -0.5386 -0.7289
  401MOL0     C52854   7.479   8.192   1.795  0.0517 -0.0241 -1.3607
  401MOL0     C52855   7.595   8.274   1.823 -0.4982  0.5300  0.8271
  401MOL0     C52856   7.590   8.412   1.790  0.0251 -0.4438 -0.8591
  401MOL0     C52857   7.475   8.475   1.743 -0.5068  0.4136  0.0585
  401MOL0     O52858   7.491   8.604   1.690 -0.3999  0.0010  0.0311
  401MOL0     C52859   7.376   8.676   1.630  1.0956 -0.1155 -0.2654
  401MOL0     C52860   7.385   8.653   1.479  0.3065  0.4491 -0.3598
  401MOL0     C52861   7.511   8.724   1.416  0.0569 -0.8729  0.1988
  401MOL0     C52862   7.510   8.881   1.429 -0.5095 -0.0739  0.3256
  401MOL0     C52863   7.378   8.948   1.414 -0.4262 -0.4062  0.1894
  401MOL0     C52864   7.275   9.014   1.403 -0.0842  0.1351 -0.0624
  401MOL0     C52865   7.357   8.396   1.721 -0.3274  0.6283  0.7598
  401MOL0     C52866   7.366   8.253   1.745  0.3942 -0.2037 -0.1720
  401MOL0     H52867   7.389   7.915   2.054 -0.4327 -1.6436  4.4534
  401MOL0     H52868   7.402   7.673   2.133 -1.1180  1.5439  0.5450
  401MOL0     H52869   7.394   7.327   1.820 -5.2724 -4.4141 -1.5802
  401MOL0     H52870   7.246   7.383   1.878  0.4341  1.3933 -0.4909
  401MOL0     H52871   7.265   7.258   2.083  1.7859  1.3544  1.8517
  401MOL0     H52872   7.435   7.219   2.052  1.6776 -0.0592 -1.9575
  401MOL0     H52873   7.330   7.024   1.998 -1.9651 -0.7422 -0.4683
  401MOL0     H52874   7.376   7.094   1.841  4.3406  0.4173  2.8225
  401MOL0     H52875   7.094   7.091   1.976  1.4562  1.6025  0.6105
  401MOL0     H52876   7.124   7.173   1.813 -2.6752 -1.1927 -1.8603
  401MOL0     H52877   7.145   6.882   1.883  1.1434 -1.0300 -2.5771
  401MOL0     H52878   7.223   6.951   1.747  1.2080 -0.1311  1.2662
  401MOL0     H52879   6.984   7.058   1.705  1.5284 -0.6276 -1.2154
  401MOL0     H52880   6.938   6.952   1.847 -0.1969 -4.2243  0.4428
  401MOL0     H52881   7.060   6.828   1.591  2.3387 -1.0187  1.7725
  401MOL0     H52882   7.034   6.745   1.724  1.1153 -0.9465 -1.5934
  401MOL0     H52883   6.812   6.916   1.587  2.8430  0.1749  0.0303
  401MOL0     H52884   6.769   6.797   1.697 -2.1718  3.1436  0.6383
  401MOL0     H52885   6.825   6.528   1.602  0.9118 -0.8818 -0.9696
  401MOL0     H52886   6.749   6.414   1.228 -0.3506  0.2849  0.1438
  401MOL0     H52887   6.675   6.375   1.376 -2.2218  0.6369 -3.1629
  401MOL0     H52888   6.957   6.375   1.448  0.7993 -1.8608 -0.5758
  401MOL0     H52889   6.961   6.357   1.278 -0.5487 -4.9808 -1.2176
  401MOL0     H52890   6.983   6.143   1.383  0.6445  1.3515  5.4576
  401MOL0     H52891   6.839   6.155   1.474 -0.4141 -2.0665 -1.0624
  401MOL0     H52892   6.839   6.153   1.167 -1.6607 -3.5044 -1.6260
  401MOL0     H52893   6.696   6.170   1.255 -0.7402 -0.7981 -0.3924
  401MOL0     H52894   6.799   5.753   1.374  1.0625  0.6463 -1.4934
  401MOL0     H52895   6.610   5.614   1.431  0.3733  1.4781  3.3039
  401MOL0     H52896   6.129   5.681   1.568  1.2869  1.5083 -0.6683
  401MOL0     H52897   5.887   5.611   1.612 -0.7584 -0.1099  0.3889
  401MOL0     H52898   5.670   5.509   1.244  1.7797  3.9331 -0.1294
  401MOL0     H52899   5.520   5.551   1.340 -1.3776 -2.8205 -1.5140
  401MOL0     H52900   5.517   5.355   1.452  0.2389 -0.6508 -0.5561
  401MOL0     H52901   5.697   5.351   1.462 -1.3054  0.9390  2.8191
  401MOL0     H52902   5.596   5.157   1.316 -0.8673  0.4185 -0.2428
  401MOL0     H52903   5.734   5.242   1.263 -0.1033 -4.1856  0.1281
  401MOL0     H52904   5.436   5.316   1.179 -1.0910  0.3727 -1.6848
  401MOL0     H52905   5.584   5.370   1.106  0.5166  0.8358  2.0798
  401MOL0     H52906   5.458   5.189   0.975  0.5192  1.7565  1.1387
  401MOL0     H52907   5.498   5.080   1.105 -0.4850  0.2796  0.3377
  401MOL0     H52908   5.733   5.123   1.042  0.3983  1.2172  1.6474
  401MOL0     H52909   5.696   5.233   0.914  2.1535 -0.8952  1.8721
  401MOL0     H52910   5.598   4.937   0.916 -1.3413 -0.8881 -3.0391
  401MOL0     H52911   5.571   5.063   0.791 -0.8038  1.3974  1.3274
  401MOL0     H52912   5.826   4.917   0.863  2.1010 -1.9095 -3.1870
  401MOL0     H52913   5.804   5.065   0.755 -2.2319  2.3172  1.7083
  401MOL0     H52914   5.808   5.638   1.178  2.4712 -0.6278 -1.3257
  401MOL0     H52915   6.053   5.688   1.148  1.9441 -2.9114 -0.5097
  401MOL0     H52916   6.355   5.913   1.239  0.8529  1.5517 -0.6338
  401MOL0     H52917   6.542   6.055   1.201  2.1022 -0.9745 -2.0835
  401MOL0     H52918   7.305   7.550   1.728  0.2463 -0.7271 -0.8870
  401MOL0     H52919   7.300   7.807   1.663 -0.3709  0.8993 -0.0454
  401MOL0     H52920   7.674   8.220   1.872 -2.9255 -3.8836  0.3797
  401MOL0     H52921   7.676   8.475   1.809 -0.9369  0.5781  0.2532
  401MOL0     H52922   7.382   8.782   1.657 -0.1760 -0.5841  2.2131
  401MOL0     H52923   7.274   8.659   1.665  0.6739  0.7448 -1.0159
  401MOL0     H52924   7.394   8.546   1.459 -4.6491  0.1561 -2.4371
  401MOL0     H52925   7.294   8.694   1.433 -0.3496  0.5602  0.9835
  401MOL0     H52926   7.521   8.703   1.309  0.5930  1.8981 -0.3742
  401MOL0     H52927   7.595   8.693   1.478  1.3455 -1.3687 -1.7072
  401MOL0     H52928   7.544   8.915   1.528 -0.6501  1.4946 -0.1473
  401MOL0     H52929   7.584   8.928   1.364 -0.0158 -0.4147  0.6267
  401MOL0     H52930   7.183   9.065   1.381 -1.0207 -1.8491 -1.0245
  401MOL0     H52931   7.271   8.444   1.675 -0.4483  1.0904  1.4469
  401MOL0     H52932   7.270   8.205   1.723 -0.3058  0.5515  1.1148
  402MOL0     O52933   8.397   1.918   3.039  0.7490  0.3092 -0.8545
  402MOL0     C52934   8.504   1.870   3.007 -0.5084 -0.9897  0.5489
  402MOL0     O52935   8.582   1.785   3.087 -0.2122 -0.2573 -0.7005
  402MOL0     C52936   8.518   1.728   3.195  0.4196 -0.7322 -0.0071
  402MOL0     C52937   8.492   1.596   3.197  0.6421  0.4488  0.5688
  402MOL0     C52938   8.438   1.530   3.316  0.1130  0.8277  0.0067
  402MOL0     C52939   8.439   1.603   3.441  0.0937 -0.1017  0.7792
  402MOL0     O52940   8.400   1.538   3.559 -0.4376  0.1680 -0.0289
  402MOL0     C52941   8.398   1.616   3.685  0.0436  0.5745  0.1768
  402MOL0     C52942   8.291   1.577   3.775  0.4329  0.1734  0.4034
  402MOL0     C52943   8.301   1.437   3.848 -0.5817 -0.1560 -1.1249
  402MOL0     C52944   8.197   1.420   3.971  0.0833 -0.5466  0.1295
  402MOL0     C52945   8.200   1.287   4.037 -0.2658  0.7315 -0.1034
  402MOL0     C52946   8.333   1.258   4.112  0.5107 -0.1283 -0.1066
  402MOL0     C52947   8.356   1.345   4.241  0.3306  0.0893  0.3340
  402MOL0     C52948   8.257   1.309   4.350 -0.5163 -0.3101  0.7094
  402MOL0     N52949   8.213   1.172   4.374  0.1725 -0.4272 -0.3641
  402MOL0     C52950   8.265   1.075   4.459 -0.8980  0.0978  0.3081
  402MOL0     C52951   8.196   0.956   4.428  0.1275 -0.2963 -0.9153
  402MOL0     C52952   8.241   0.815   4.460  0.0146 -0.8116  0.6764
  402MOL0     C52953   8.278   0.788   4.606  0.0987 -0.1271 -1.0299
  402MOL0     C52954   8.307   0.639   4.641  0.0063 -0.5985  0.0340
  402MOL0     C52955   8.425   0.573   4.577 -0.0800 -0.1826  0.3226
  402MOL0     O52956   8.544   0.636   4.615 -0.0668 -0.5491 -0.3972
  402MOL0     C52957   8.630   0.682   4.516  0.0428  0.0991  0.6633
  402MOL0     C52958   8.738   0.759   4.564  0.6844  1.0924  0.4120
  402MOL0     C52959   8.844   0.806   4.479 -0.4226  0.7669  1.1179
  402MOL0     C52960   8.833   0.771   4.344  1.3594 -0.4772 -0.1592
  402MOL0     C52961   8.918   0.822   4.236 -0.3460 -1.0672  1.0129
  402MOL0     O52962   8.983   0.935   4.266  0.1790  0.5269 -0.0391
  402MOL0     C52963   9.092   0.977   4.184 -0.1240  0.3171 -0.0458
  402MOL0     C52964   9.221   0.963   4.232  0.2246 -0.5939 -0.3562
  402MOL0     C52965   9.331   1.013   4.159  0.2968 -0.0447 -0.1906
  402MOL0     C52966   9.315   1.078   4.042 -0.9424 -0.5622  0.1523
  402MOL0     O52967   9.437   1.110   3.975  0.0265  0.2518 -0.3935
  402MOL0     C52968   9.459   1.028   3.860  0.2018 -0.4460  0.3995
  402MOL0     C52969   9.613   1.005   3.854 -0.5679  0.5007  0.5618
  402MOL0     C52970   9.682   0.928   3.964 -0.8876 -0.2840  0.9448
  402MOL0     C52971   9.610   0.791   3.961  0.9166  0.2712  0.1484
  402MOL0     C52972   9.672   0.678   4.047 -1.2230  0.1640  0.4855
  402MOL0     C52973   9.794   0.609   3.964 -0.5267 -0.3385  0.1226
  402MOL0     C52974   9.750   0.519   3.844  0.0611 -0.7698  0.2606
  402MOL0     C52975   9.650   0.411   3.890  0.4145  1.3930  1.2479
  402MOL0    Cl52976   9.611   0.311   3.742 -0.1720 -0.0767  0.4147
  402MOL0     C52977   9.192   1.093   3.989  0.7327 -0.3099 -1.3262
  402MOL0     C52978   9.080   1.037   4.056 -0.0862  0.2932  0.2690
  402MOL0     O52979   8.934   0.752   4.136  0.6375  0.1368 -0.0338
  402MOL0     C52980   8.721   0.697   4.286 -1.0038 -0.0483 -0.3377
  402MOL0     C52981   8.621   0.652   4.375  0.0213 -0.0744  1.0720
  402MOL0     N52982   8.106   0.987   4.330  0.5648  0.8821 -0.0421
  402MOL0     N52983   8.120   1.111   4.305 -1.0402  0.7933  0.9716
  402MOL0     C52984   8.483   1.738   3.437 -0.7784 -0.3832 -0.1597
  402MOL0     C52985   8.519   1.798   3.315  0.3554 -0.0024  0.4075
  402MOL0     C52986   8.558   1.915   2.873 -0.2067  0.3447 -0.0094
  402MOL0     C52987   8.477   1.979   2.779  0.5864  0.0751  0.0351
  402MOL0     C52988   8.528   2.026   2.662  0.3792 -0.1800 -0.3134
  402MOL0     C52989   8.656   2.015   2.629 -0.2088  0.7165 -0.7139
  402MOL0     O52990   8.712   2.042   2.509 -0.5280  0.7176 -0.2264
  402MOL0     C52991   8.714   1.938   2.424 -0.3374  0.2829 -0.3431
  402MOL0     C52992   8.816   1.978   2.321 -0.3638 -0.1572 -0.2654
  402MOL0     C52993   8.824   1.876   2.203  0.8925 -0.1227 -0.3065
  402MOL0     C52994   8.915   1.921   2.087  0.2568  0.2605 -1.1693
  402MOL0     C52995   8.871   2.043   2.024 -1.1677  0.4451  0.4573
  402MOL0     C52996   8.825   2.125   1.949  0.5372  0.3454  0.2322
  402MOL0     C52997   8.745   1.951   2.727  0.0823 -0.7588  0.0843
  402MOL0     C52998   8.697   1.915   2.848  0.6027 -0.1962  0.1255
  402MOL0     H52999   8.513   1.540   3.107 -1.6818  0.6452 -0.1524
  402MOL0     H53000   8.401   1.428   3.318  0.0056  0.8096  3.4877
  402MOL0     H53001   8.403   1.725   3.674  3.0398  0.3316 -2.3372
  402MOL0     H53002   8.487   1.585   3.740 -0.5087 -0.3061  0.5950
  402MOL0     H53003   8.198   1.577   3.716  1.8283 -1.9680 -2.0088
  402MOL0     H53004   8.285   1.660   3.845  0.1425  0.3515  0.1700
  402MOL0     H53005   8.406   1.424   3.874 -0.4743  0.0974 -1.4316
  402MOL0     H53006   8.286   1.359   3.773  1.5594 -2.4881  0.6910
  402MOL0     H53007   8.210   1.502   4.042  2.1991 -2.3228  1.9583
  402MOL0     H53008   8.095   1.431   3.932  0.7090  1.8761 -1.0189
  402MOL0     H53009   8.176   1.207   3.967 -1.2344  2.1664 -1.4683
  402MOL0     H53010   8.119   1.282   4.110 -0.4484 -2.4774 -0.3943
  402MOL0     H53011   8.407   1.276   4.034  0.7524 -1.7806 -0.2986
  402MOL0     H53012   8.344   1.151   4.133  3.3108 -0.3517 -2.1343
  402MOL0     H53013   8.459   1.331   4.275  0.6180  1.3539  0.0300
  402MOL0     H53014   8.340   1.451   4.218 -1.1552 -0.2757 -0.4318
  402MOL0     H53015   8.166   1.360   4.318  0.0905 -1.7263 -4.2229
  402MOL0     H53016   8.282   1.349   4.448 -0.3219  1.7219 -0.1040
  402MOL0     H53017   8.353   1.076   4.522  1.6514 -3.2012 -2.7858
  402MOL0     H53018   8.326   0.799   4.393 -1.5245 -0.8963 -1.3683
  402MOL0     H53019   8.174   0.741   4.415  2.5651 -0.9510 -3.4331
  402MOL0     H53020   8.206   0.818   4.682  0.4066  0.3113 -0.9080
  402MOL0     H53021   8.375   0.836   4.620 -0.9852  2.6757 -2.3162
  402MOL0     H53022   8.329   0.641   4.748  0.6941 -4.8977  0.1306
  402MOL0     H53023   8.216   0.579   4.634  0.1608 -0.9946  1.2664
  402MOL0     H53024   8.419   0.564   4.468  2.8911 -2.5160  0.2203
  402MOL0     H53025   8.436   0.473   4.620  3.4964 -0.7307 -1.4877
  402MOL0     H53026   8.745   0.778   4.671 -3.5782  0.0017  1.0552
  402MOL0     H53027   8.916   0.884   4.502 -0.3193  0.6061  1.3384
  402MOL0     H53028   9.232   0.920   4.331 -1.1350 -1.4070 -0.5395
  402MOL0     H53029   9.433   1.001   4.194 -0.2521  0.0549  1.5729
  402MOL0     H53030   9.430   1.091   3.776  0.7891 -0.4744  0.1663
  402MOL0     H53031   9.409   0.931   3.855  0.9499 -0.9336  1.7432
  402MOL0     H53032   9.660   1.104   3.858 -0.7491  0.6018  0.1447
  402MOL0     H53033   9.639   0.961   3.757 -0.1814 -0.3787  1.0513
  402MOL0     H53034   9.670   0.982   4.059 -0.5617 -2.1320  2.0847
  402MOL0     H53035   9.790   0.926   3.948 -1.3273 -0.2655 -2.8829
  402MOL0     H53036   9.514   0.823   4.003  0.1015 -2.4492  0.5512
  402MOL0     H53037   9.597   0.748   3.861  3.5238 -0.2726 -0.0430
  402MOL0     H53038   9.597   0.598   4.053  0.1044 -1.2459 -0.8245
  402MOL0     H53039   9.700   0.715   4.146  1.4860 -0.9847  0.2498
  402MOL0     H53040   9.842   0.529   4.021 -0.1981 -1.8298 -2.0977
  402MOL0     H53041   9.871   0.678   3.928  0.0953 -2.4834 -3.1334
  402MOL0     H53042   9.721   0.574   3.754  5.8521  0.5286 -1.2353
  402MOL0     H53043   9.838   0.464   3.810 -0.6611 -1.0938 -1.1576
  402MOL0     H53044   9.553   0.450   3.921 -0.4207 -0.0015  0.4834
  402MOL0     H53045   9.691   0.346   3.967  1.0984 -0.5409 -0.6409
  402MOL0     H53046   9.177   1.145   3.895 -0.9487  0.1464 -0.8451
  402MOL0     H53047   8.977   1.048   4.024 -0.4340 -0.8278  0.9465
  402MOL0     H53048   8.717   0.685   4.178  1.8359 -0.5327 -0.4661
  402MOL0     H53049   8.552   0.584   4.327  1.3350 -1.0178  0.4558
  402MOL0     H53050   8.489   1.803   3.524  1.3760  0.0092 -0.5269
  402MOL0     H53051   8.540   1.905   3.307  1.9006 -0.3863 -1.6847
  402MOL0     H53052   8.375   1.979   2.816  1.0484 -0.5357  1.3553
  402MOL0     H53053   8.451   2.064   2.596 -1.2574 -1.1070  0.9890
  402MOL0     H53054   8.614   1.942   2.380 -0.8493  0.4580  0.8104
  402MOL0     H53055   8.740   1.846   2.477  2.3683  1.9373  1.4047
  402MOL0     H53056   8.777   2.073   2.285 -1.3669 -0.8592 -1.1098
  402MOL0     H53057   8.913   1.977   2.372 -0.5778  0.3177  0.1558
  402MOL0     H53058   8.725   1.857   2.160  1.1570 -1.9498 -0.1942
  402MOL0     H53059   8.852   1.780   2.248 -0.9843 -0.3076  0.5983
  402MOL0     H53060   9.013   1.930   2.134 -1.5737  1.2647  2.9021
  402MOL0     H53061   8.926   1.841   2.012  2.6830 -1.8244  1.2176
  402MOL0     H53062   8.781   2.193   1.880 -0.0519  1.9200  2.0643
  402MOL0     H53063   8.852   1.952   2.715  0.2659  3.2973  0.5294
  402MOL0     H53064   8.762   1.889   2.931  1.0954  2.5291  0.7092
  403MOL0     O53065   6.415   8.538   2.239  0.3255 -0.6624  0.3391
  403MOL0     C53066   6.363   8.591   2.143  0.9468 -0.5745 -0.8060
  403MOL0     O53067   6.325   8.729   2.133  0.2551 -0.5385  0.9094
  403MOL0     C53068   6.319   8.817   2.236 -0.5843 -0.3441 -0.3112
  403MOL0     C53069   6.330   8.962   2.216 -1.0141  0.5084  0.4167
  403MOL0     C53070   6.304   9.044   2.322 -0.5770  0.3812 -0.3426
  403MOL0     C53071   6.274   9.006   2.453  0.3541  0.6069  0.4443
  403MOL0     O53072   6.252   9.100   2.552  0.1865  0.3424 -0.8518
  403MOL0     C53073   6.285   9.067   2.687  0.3605  0.3682  0.4948
  403MOL0     C53074   6.373   9.165   2.761 -0.4556  0.4806 -0.4486
  403MOL0     C53075   6.373   9.139   2.913  0.0167 -0.0741 -0.5689
  403MOL0     C53076   6.477   9.225   2.988 -0.6099 -0.0936 -1.2039
  403MOL0     C53077   6.514   9.161   3.125 -0.1241 -0.1150  0.2018
  403MOL0     C53078   6.396   9.184   3.235 -1.1589 -0.2452  0.8635
  403MOL0     C53079   6.320   9.063   3.242  0.8938  0.4064  0.8439
  403MOL0     C53080   6.397   8.955   3.327  0.1119  0.0138 -0.2998
  403MOL0     N53081   6.402   8.997   3.469  0.4390 -0.7385 -0.0234
  403MOL0     C53082   6.299   8.998   3.567 -0.9731 -0.2739  0.1001
  403MOL0     C53083   6.358   9.068   3.668  0.0144 -1.0588  0.1728
  403MOL0     C53084   6.273   9.116   3.782  0.5516 -0.4591  0.7512
  403MOL0     C53085   6.127   9.108   3.764  0.6838  0.3567  0.8320
  403MOL0     C53086   6.044   9.183   3.866  0.9507 -0.0010 -0.3414
  403MOL0     C53087   5.910   9.110   3.915 -0.0385  0.4611  0.6962
  403MOL0     O53088   5.942   8.981   3.968 -0.7812 -0.5425 -0.0684
  403MOL0     C53089   5.837   8.907   4.009  0.6819 -1.4190 -0.1168
  403MOL0     C53090   5.835   8.889   4.148 -0.3584 -0.1232 -0.0837
  403MOL0     C53091   5.740   8.807   4.211  0.4270 -0.4893 -0.7906
  403MOL0     C53092   5.640   8.746   4.141  0.8038  0.4534  0.1059
  403MOL0     C53093   5.535   8.663   4.206  0.1928  0.0416 -0.3720
  403MOL0     O53094   5.486   8.574   4.128  0.3259 -0.2485  0.5849
  403MOL0     C53095   5.411   8.458   4.172 -0.5017  0.1931  0.6914
  403MOL0     C53096   5.460   8.355   4.252  0.8246 -0.0292 -0.4383
  403MOL0     C53097   5.381   8.257   4.291  0.0097  0.7987 -0.6027
  403MOL0     C53098   5.251   8.239   4.244 -0.4399 -0.1409  0.0414
  403MOL0     O53099   5.190   8.123   4.290 -1.0437  0.2884 -0.7817
  403MOL0     C53100   5.050   8.093   4.258  0.9732 -0.4336  0.1741
  403MOL0     C53101   5.039   8.029   4.122  0.6384  1.0327 -0.5312
  403MOL0     C53102   4.894   8.050   4.058  0.0476  0.4247 -0.2776
  403MOL0     C53103   4.781   8.000   4.156  0.2308  0.1926 -0.0918
  403MOL0     C53104   4.664   7.959   4.079  1.1563  0.5170  0.9387
  403MOL0     C53105   4.525   7.973   4.144 -1.3067 -0.3647 -0.3729
  403MOL0     C53106   4.409   7.896   4.095  0.1704  0.2760  0.0913
  403MOL0     C53107   4.419   7.736   4.105  0.1103 -0.3608  0.0583
  403MOL0    Cl53108   4.298   7.633   4.031  0.0973  0.0794 -0.5758
  403MOL0     C53109   5.194   8.338   4.165  0.5409 -0.7795  0.3862
  403MOL0     C53110   5.271   8.449   4.142  0.1497 -0.2334 -0.4082
  403MOL0     O53111   5.523   8.656   4.325 -0.1666  0.0689 -0.1822
  403MOL0     C53112   5.646   8.764   3.994  0.3811 -0.5378 -0.5650
  403MOL0     C53113   5.746   8.833   3.933  0.2105 -1.0990  0.7771
  403MOL0     N53114   6.491   9.090   3.627  0.1133  0.8388  0.0106
  403MOL0     N53115   6.520   9.054   3.509  0.1382  0.2212  0.0469
  403MOL0     C53116   6.256   8.871   2.471 -0.4109 -0.5018  0.1378
  403MOL0     C53117   6.273   8.778   2.369  0.3786 -0.2907 -0.6391
  403MOL0     C53118   6.347   8.516   2.020 -0.4924  0.2561  0.9690
  403MOL0     C53119   6.254   8.553   1.931  0.4046  0.7037  0.7134
  403MOL0     C53120   6.234   8.470   1.827 -0.3021 -0.2198  0.2745
  403MOL0     C53121   6.323   8.365   1.797  0.2613  0.1068 -0.0610
  403MOL0     O53122   6.291   8.300   1.676  0.1013 -0.2694  0.5050
  403MOL0     C53123   6.384   8.207   1.631  0.1840 -0.2036  0.2353
  403MOL0     C53124   6.333   8.158   1.493  0.3726  0.3340 -0.3855
  403MOL0     C53125   6.310   8.256   1.379  0.2548 -0.1226 -0.2635
  403MOL0     C53126   6.417   8.358   1.344 -0.5979  0.4038  0.2306
  403MOL0     C53127   6.539   8.289   1.296 -0.9389 -0.3163 -1.2337
  403MOL0     C53128   6.643   8.237   1.272  0.0338 -0.3542  0.4877
  403MOL0     C53129   6.430   8.339   1.881 -0.2671 -0.0311 -0.3229
  403MOL0     C53130   6.429   8.396   2.004  0.8657 -0.5164 -0.5332
  403MOL0     H53131   6.336   9.017   2.123 -2.1422 -0.4543 -0.2627
  403MOL0     H53132   6.317   9.152   2.312 -1.0425  0.3066 -2.3042
  403MOL0     H53133   6.330   8.968   2.703  1.2540  0.6267 -0.3118
  403MOL0     H53134   6.190   9.059   2.739 -0.3546 -1.3384 -0.9903
  403MOL0     H53135   6.350   9.270   2.741 -0.5782  0.8439  1.4220
  403MOL0     H53136   6.474   9.146   2.723 -0.5745 -0.1851 -0.4400
  403MOL0     H53137   6.382   9.030   2.921 -2.6114 -0.2175  2.5944
  403MOL0     H53138   6.272   9.158   2.951  0.1458 -0.5096  0.0128
  403MOL0     H53139   6.567   9.217   2.927 -0.8127 -2.3268 -1.2724
  403MOL0     H53140   6.452   9.331   2.997  1.6860  0.8037 -3.8504
  403MOL0     H53141   6.610   9.203   3.155 -1.0237  1.3107  1.2104
  403MOL0     H53142   6.534   9.056   3.102  1.2744  0.5773 -2.1353
  403MOL0     H53143   6.342   9.277   3.217 -1.6221  0.0924  3.6418
  403MOL0     H53144   6.441   9.216   3.329 -2.0736  0.2930  1.1268
  403MOL0     H53145   6.224   9.072   3.294  0.6821 -0.5181  0.6484
  403MOL0     H53146   6.289   9.026   3.144  0.7893  0.8915  0.6951
  403MOL0     H53147   6.492   8.945   3.274  0.1677  1.1161 -0.4468
  403MOL0     H53148   6.338   8.863   3.326  3.2819 -2.3446 -4.3469
  403MOL0     H53149   6.197   8.959   3.569  0.1108 -3.4126  2.0597
  403MOL0     H53150   6.298   9.220   3.802  0.0934 -0.3322  0.6773
  403MOL0     H53151   6.311   9.059   3.867  1.2263  0.3479  0.9961
  403MOL0     H53152   6.098   9.003   3.768  1.1675  0.2598  3.9744
  403MOL0     H53153   6.099   9.147   3.665  0.5609  0.4437  0.9002
  403MOL0     H53154   6.106   9.204   3.954 -0.3440  0.8398  0.3869
  403MOL0     H53155   6.000   9.269   3.816  3.2860  1.5619  0.1617
  403MOL0     H53156   5.846   9.091   3.828  2.9280 -2.4529 -1.1206
  403MOL0     H53157   5.859   9.161   3.997  0.1370 -0.2170  1.2409
  403MOL0     H53158   5.910   8.938   4.210  1.1105 -0.1930 -1.7301
  403MOL0     H53159   5.732   8.795   4.319 -2.2375 -3.0545 -1.1538
  403MOL0     H53160   5.562   8.377   4.282  0.0618  2.7074  0.4684
  403MOL0     H53161   5.421   8.179   4.355 -2.3916 -0.2183 -0.2333
  403MOL0     H53162   4.982   8.178   4.257  2.6353  1.0371 -2.9992
  403MOL0     H53163   5.005   8.021   4.327 -1.1781  0.8061  0.1542
  403MOL0     H53164   5.060   7.921   4.127  0.5462  1.0721  3.9888
  403MOL0     H53165   5.106   8.058   4.040  0.9338 -2.3681 -1.6653
  403MOL0     H53166   4.880   8.002   3.961 -1.9710 -1.7219  0.9880
  403MOL0     H53167   4.884   8.158   4.041 -0.0473  0.3959 -0.4109
  403MOL0     H53168   4.818   7.914   4.213  1.3890 -0.6193 -1.9843
  403MOL0     H53169   4.761   8.093   4.209  1.7984  1.3469 -1.4248
  403MOL0     H53170   4.665   7.858   4.038 -0.5620  0.2436  1.4909
  403MOL0     H53171   4.653   8.011   3.983 -1.2276  0.3021  1.0199
  403MOL0     H53172   4.496   8.078   4.146 -1.3131 -0.3678 -0.2238
  403MOL0     H53173   4.540   7.952   4.251  1.7953  0.3123 -0.5737
  403MOL0     H53174   4.330   7.927   4.164 -1.6864 -2.0243 -0.8814
  403MOL0     H53175   4.377   7.940   4.000 -0.0665 -0.3828 -0.1325
  403MOL0     H53176   4.422   7.725   4.214 -0.3634 -1.4501 -0.0192
  403MOL0     H53177   4.517   7.707   4.068  3.6115  6.1893  2.5996
  403MOL0     H53178   5.097   8.332   4.117  0.7255  4.3785 -1.1989
  403MOL0     H53179   5.242   8.535   4.084 -2.7472  0.2494  1.5347
  403MOL0     H53180   5.584   8.716   3.919  1.3738 -1.3808 -0.8601
  403MOL0     H53181   5.752   8.851   3.826  0.0818 -3.0296  0.4060
  403MOL0     H53182   6.218   8.838   2.567 -3.6793  1.9571 -0.1415
  403MOL0     H53183   6.234   8.677   2.382  0.7762 -0.7965 -2.9472
  403MOL0     H53184   6.199   8.645   1.946 -1.5320  0.1109 -2.0312
  403MOL0     H53185   6.156   8.492   1.755 -1.8301 -1.6133  1.4391
  403MOL0     H53186   6.396   8.122   1.698 -0.7441 -0.3021  0.2894
  403MOL0     H53187   6.478   8.262   1.616 -0.1985  0.7799  1.3192
  403MOL0     H53188   6.405   8.084   1.455  1.1585  1.2523 -0.7514
  403MOL0     H53189   6.236   8.109   1.498  0.9506 -1.1614 -2.4649
  403MOL0     H53190   6.221   8.309   1.415  0.5196 -0.1649  0.4682
  403MOL0     H53191   6.280   8.212   1.284 -0.7202 -2.4587  1.0524
  403MOL0     H53192   6.379   8.428   1.268  0.8947 -0.9524 -1.8862
  403MOL0     H53193   6.429   8.421   1.432  0.6122  2.2498 -1.1646
  403MOL0     H53194   6.742   8.196   1.266 -0.3242 -1.4335  1.5833
  403MOL0     H53195   6.501   8.260   1.859  1.9394  1.3815  1.3947
  403MOL0     H53196   6.498   8.370   2.084  2.0541 -2.1223 -2.0182
  404MOL0     O53197   8.246   2.223   9.961  0.0649  0.3850 -0.3673
  404MOL0     C53198   8.223   2.145   9.870 -0.8382 -0.9596  0.4524
  404MOL0     O53199   8.183   2.175   9.741  0.6112 -0.3238 -0.0860
  404MOL0     C53200   8.135   2.308   9.723 -0.3503 -0.6911  0.1197
  404MOL0     C53201   8.057   2.369   9.820 -0.0491  0.3740 -0.1852
  404MOL0     C53202   8.040   2.505   9.819 -0.2007  1.1635  0.6716
  404MOL0     C53203   8.071   2.573   9.706 -0.1936  0.5582  0.5539
  404MOL0     O53204   8.030   2.705   9.701 -0.0668 -0.2218  0.0550
  404MOL0     C53205   8.144   2.792   9.744  0.0571  0.0665  1.5303
  404MOL0     C53206   8.077   2.913   9.794  0.4044 -0.1436 -1.2666
  404MOL0     C53207   8.186   3.009   9.849 -0.5911  0.1679 -0.1432
  404MOL0     C53208   8.127   3.148   9.866  0.4569 -0.2485  0.3383
  404MOL0     C53209   8.012   3.159   9.978  0.2639 -0.5771  0.1502
  404MOL0     C53210   8.050   3.113  10.119  0.6667  0.5430 -0.1242
  404MOL0     C53211   8.170   3.181  10.172 -0.1499 -0.5492  0.6218
  404MOL0     C53212   8.202   3.136  10.321  0.3738  0.2556 -0.4298
  404MOL0     N53213   8.086   3.126  10.408  0.1161  0.1404  0.1227
  404MOL0     C53214   8.020   3.229  10.476 -0.1286  0.6824 -0.7747
  404MOL0     C53215   7.919   3.164  10.542  0.0042  0.3750  1.1012
  404MOL0     C53216   7.807   3.221  10.631  0.2971 -0.1348  0.9690
  404MOL0     C53217   7.688   3.265  10.546 -0.5890  0.2839 -0.1213
  404MOL0     C53218   7.625   3.142  10.480 -0.2345 -0.0013 -0.6577
  404MOL0     C53219   7.490   3.185  10.423 -0.1189  0.4624 -0.0912
  404MOL0     O53220   7.396   3.196  10.525  0.0061  0.0592 -0.3940
  404MOL0     C53221   7.267   3.163  10.492  0.4448  0.1740 -0.9534
  404MOL0     C53222   7.219   3.044  10.529  0.3275  0.2786  0.0888
  404MOL0     C53223   7.087   3.009  10.499  0.3729 -0.5692 -0.2379
  404MOL0     C53224   7.008   3.096  10.427  1.3070  0.3745  0.4337
  404MOL0     C53225   6.874   3.049  10.378 -0.3453  0.7968  0.8522
  404MOL0     O53226   6.821   3.121  10.266 -1.2489 -0.0931  0.7664
  404MOL0     C53227   6.709   3.101  10.187 -0.6729 -0.4223  0.9714
  404MOL0     C53228   6.647   3.209  10.112  0.6381  0.0854 -0.2508
  404MOL0     C53229   6.533   3.186  10.035 -0.5457  0.9657 -0.2145
  404MOL0     C53230   6.472   3.061  10.034 -0.7228 -0.3290 -0.0068
  404MOL0     O53231   6.368   3.028   9.956 -0.2682  0.6581 -1.1637
  404MOL0     C53232   6.376   2.907   9.883  0.6381 -0.3480  0.5855
  404MOL0     C53233   6.297   2.795   9.956 -0.2882 -0.5606  0.4637
  404MOL0     C53234   6.344   2.660   9.913  1.0469 -0.6858  0.4126
  404MOL0     C53235   6.287   2.617   9.783  1.0474  0.0028  0.6858
  404MOL0     C53236   6.329   2.476   9.742 -0.3560 -1.4404 -0.3613
  404MOL0     C53237   6.264   2.414   9.629 -0.1808  0.3187 -0.7594
  404MOL0     C53238   6.295   2.499   9.503  0.0189 -0.6105 -0.0278
  404MOL0     C53239   6.239   2.421   9.383  0.5241  0.0587  0.3107
  404MOL0    Cl53240   6.220   2.511   9.226 -0.1116 -0.5549 -0.2065
  404MOL0     C53241   6.525   2.958  10.108 -0.0937 -0.4052 -0.5565
  404MOL0     C53242   6.631   2.981  10.196  0.0792 -0.5639  0.9201
  404MOL0     O53243   6.818   2.957  10.432 -0.4483  0.1079 -0.9703
  404MOL0     C53244   7.068   3.213  10.384  0.8819  0.0833 -0.0930
  404MOL0     C53245   7.200   3.249  10.412  0.1702 -0.1074  0.0818
  404MOL0     N53246   7.933   3.023  10.517 -0.0448  0.4489  0.1986
  404MOL0     N53247   8.030   3.001  10.427  0.8183 -0.4009 -0.2800
  404MOL0     C53248   8.120   2.507   9.594 -0.6179  0.3112 -0.4436
  404MOL0     C53249   8.168   2.374   9.606  0.1139 -0.4597  0.0443
  404MOL0     C53250   8.256   2.009   9.901  0.2692 -0.2650  0.2562
  404MOL0     C53251   8.330   1.939   9.812  0.9599  0.7161  0.8659
  404MOL0     C53252   8.341   1.799   9.813 -0.8453  0.0782  0.4618
  404MOL0     C53253   8.266   1.723   9.907 -0.5086 -0.4377 -0.3185
  404MOL0     O53254   8.254   1.583   9.909 -0.4763  0.4348  1.1260
  404MOL0     C53255   8.375   1.509   9.913  0.4358 -0.1198  0.5193
  404MOL0     C53256   8.350   1.374   9.842  0.1699 -0.1434  0.2569
  404MOL0     C53257   8.462   1.261   9.868  1.2064 -0.2317 -0.6037
  404MOL0     C53258   8.396   1.121   9.879  0.3243  0.2242 -0.1722
  404MOL0     C53259   8.485   1.019   9.832 -0.3256 -0.1220 -0.2577
  404MOL0     C53260   8.555   0.928   9.795 -0.2631  0.5370 -0.4005
  404MOL0     C53261   8.194   1.796  10.002  1.0533  0.7369 -0.0448
  404MOL0     C53262   8.198   1.938  10.002  0.3299  0.7038 -0.3962
  404MOL0     H53263   8.017   2.317   9.906  0.4802  0.8896  0.3831
  404MOL0     H53264   7.978   2.537   9.902 -3.3412 -2.6590  0.0950
  404MOL0     H53265   8.204   2.811   9.654  0.3336 -1.6800  1.3062
  404MOL0     H53266   8.202   2.743   9.822  0.3123 -1.6963  0.2952
  404MOL0     H53267   8.014   2.889   9.880  0.6845  0.4518 -0.8871
  404MOL0     H53268   8.020   2.958   9.712 -0.5727 -1.1366 -1.1558
  404MOL0     H53269   8.259   3.014   9.768  0.0747 -1.5904  0.2891
  404MOL0     H53270   8.225   2.983   9.948  1.4119  0.7153 -0.7563
  404MOL0     H53271   8.208   3.210   9.904 -1.1953  1.2659  1.5804
  404MOL0     H53272   8.103   3.197   9.772  0.9986 -0.0862  0.2835
  404MOL0     H53273   7.929   3.098   9.942  1.1999 -2.2023  0.6380
  404MOL0     H53274   7.981   3.264   9.976  2.7988  0.2342 -1.2026
  404MOL0     H53275   8.063   3.005  10.116 -5.2689 -0.5452 -0.4572
  404MOL0     H53276   7.961   3.131  10.182 -0.1263 -1.5684 -0.5673
  404MOL0     H53277   8.263   3.164  10.116 -0.7885 -1.3975 -0.1971
  404MOL0     H53278   8.152   3.289  10.176  1.4270 -0.0713 -2.1714
  404MOL0     H53279   8.279   3.195  10.371 -1.0675  0.3461  1.7964
  404MOL0     H53280   8.247   3.038  10.302 -0.1077 -0.2148  0.7703
  404MOL0     H53281   8.047   3.334  10.483  1.5630  0.1719  4.1039
  404MOL0     H53282   7.844   3.298  10.699 -0.1017  2.0092 -1.0948
  404MOL0     H53283   7.770   3.144  10.699 -0.9765 -1.9749 -1.6315
  404MOL0     H53284   7.703   3.340  10.469 -0.0569  0.5651  0.2460
  404MOL0     H53285   7.615   3.305  10.616  0.3030  2.4294 -0.3569
  404MOL0     H53286   7.685   3.114  10.392 -0.4751  0.4797 -0.9787
  404MOL0     H53287   7.608   3.058  10.548 -3.0961  3.0655  2.7919
  404MOL0     H53288   7.458   3.109  10.352  0.3717 -0.7821  0.9759
  404MOL0     H53289   7.492   3.283  10.375 -1.8561  0.4121 -0.3164
  404MOL0     H53290   7.278   2.982  10.596  1.8773  0.0900 -1.3826
  404MOL0     H53291   7.059   2.905  10.510 -1.1767 -0.2900 -1.2373
  404MOL0     H53292   6.677   3.313  10.124 -1.1273  0.4220  1.8231
  404MOL0     H53293   6.489   3.256   9.965  3.3440  1.0637 -2.8631
  404MOL0     H53294   6.482   2.884   9.867  1.0909  1.5378  0.5486
  404MOL0     H53295   6.322   2.925   9.789 -1.6411 -1.2268  1.6623
  404MOL0     H53296   6.193   2.802   9.924  0.6184 -0.0130 -2.6885
  404MOL0     H53297   6.293   2.811  10.064  0.0743  0.5789  0.3223
  404MOL0     H53298   6.293   2.595   9.985 -2.6608  0.9555 -0.4949
  404MOL0     H53299   6.452   2.648   9.926  1.7500  3.2974 -0.4956
  404MOL0     H53300   6.178   2.623   9.786  1.0022  0.0826 -0.4912
  404MOL0     H53301   6.326   2.689   9.710 -2.4956  0.8219 -0.5867
  404MOL0     H53302   6.323   2.408   9.828  0.9787 -1.4118 -0.2165
  404MOL0     H53303   6.434   2.481   9.710  0.1734 -1.8544  1.1965
  404MOL0     H53304   6.156   2.410   9.647 -0.2264  2.2149 -0.3856
  404MOL0     H53305   6.302   2.312   9.617 -3.7254 -1.0908 -1.0210
  404MOL0     H53306   6.255   2.601   9.509 -2.7525 -1.6985  2.6527
  404MOL0     H53307   6.401   2.498   9.477 -0.5264 -1.4465 -2.5139
  404MOL0     H53308   6.137   2.389   9.408 -0.3705 -0.4389 -3.3859
  404MOL0     H53309   6.283   2.322   9.370  0.0786 -0.1764  0.5418
  404MOL0     H53310   6.490   2.856  10.116  4.0573 -2.0151 -0.3407
  404MOL0     H53311   6.662   2.899  10.260  1.2352 -2.1143 -1.4665
  404MOL0     H53312   7.013   3.284  10.322  1.0167 -0.2605 -0.6063
  404MOL0     H53313   7.234   3.348  10.384  1.3818 -0.2999  0.8167
  404MOL0     H53314   8.145   2.564   9.505  2.0992 -1.5289 -0.9609
  404MOL0     H53315   8.231   2.328   9.531  2.3148  2.4297 -0.0736
  404MOL0     H53316   8.374   1.992   9.728 -0.1426  0.6708  0.2422
  404MOL0     H53317   8.399   1.744   9.741 -1.7995  0.1515 -0.3923
  404MOL0     H53318   8.398   1.487  10.017 -0.1950  1.4449  1.0192
  404MOL0     H53319   8.465   1.551   9.865 -1.0846  2.3563 -0.3585
  404MOL0     H53320   8.250   1.343   9.873  1.0958 -2.2884  1.3402
  404MOL0     H53321   8.348   1.409   9.738 -1.2321  2.7739  1.1465
  404MOL0     H53322   8.536   1.287   9.944  1.1914 -1.1325 -0.2675
  404MOL0     H53323   8.522   1.261   9.776 -1.9172 -2.0572 -2.8402
  404MOL0     H53324   8.400   1.101   9.987  1.3017 -4.3318 -0.8496
  404MOL0     H53325   8.303   1.123   9.821  1.4489 -0.6511 -2.0806
  404MOL0     H53326   8.613   0.849   9.752  0.6329  1.2024 -0.4479
  404MOL0     H53327   8.132   1.734  10.065 -0.4032  1.3593 -0.8287
  404MOL0     H53328   8.144   1.985  10.083  3.3888  0.9510  1.6880
  405MOL0     O53329   2.263  10.275   0.719 -1.1725 -0.4537 -0.0541
  405MOL0     C53330   2.340  10.296   0.812 -0.7584  0.1041 -0.1050
  405MOL0     O53331   2.392  10.422   0.835 -0.3138 -0.7323 -0.3845
  405MOL0     C53332   2.382  10.520   0.744  0.1274 -0.1000 -0.7319
  405MOL0     C53333   2.417  10.497   0.605 -0.8602  0.6331  0.0057
  405MOL0     C53334   2.405  10.602   0.516 -0.6540 -0.8169 -0.6509
  405MOL0     C53335   2.360  10.733   0.554 -0.3366  0.6945  0.9780
  405MOL0     O53336   2.334  10.814   0.449 -1.1158 -0.2499 -0.0613
  405MOL0     C53337   2.357  10.955   0.498 -0.9207  0.8719  0.6047
  405MOL0     C53338   2.379  11.049   0.383  0.0086  0.1143 -0.3823
  405MOL0     C53339   2.526  11.053   0.349  0.3597 -0.7213  0.2687
  405MOL0     C53340   2.550  11.070   0.211 -0.5221 -0.0829  0.2564
  405MOL0     C53341   2.485  11.196   0.142 -0.6134 -0.8141  0.1777
  405MOL0     C53342   2.491  11.341   0.213 -0.1039  1.4910 -0.5566
  405MOL0     C53343   2.633  11.408   0.272  0.5194  0.6023  0.6373
  405MOL0     C53344   2.699  11.472   0.148  0.1156  0.2099  1.2109
  405MOL0     N53345   2.844  11.493   0.161 -0.0978  0.4839 -0.8954
  405MOL0     C53346   2.912  11.506   0.278 -0.9768 -0.1715 -0.5728
  405MOL0     C53347   3.040  11.482   0.254  0.3677 -0.2627  0.6485
  405MOL0     C53348   3.141  11.457   0.366  0.4960  0.0287 -0.0288
  405MOL0     C53349   3.153  11.583   0.460 -0.1489  0.7072 -0.8112
  405MOL0     C53350   3.302  11.622   0.484  0.5333  0.5302 -0.7447
  405MOL0     C53351   3.325  11.762   0.535  0.6479  0.3114  0.2231
  405MOL0     O53352   3.229  11.803   0.637 -0.4460  0.0416  0.0802
  405MOL0     C53353   3.203  11.734   0.755 -0.4030 -0.3606 -0.2769
  405MOL0     C53354   3.082  11.755   0.808  0.0123 -1.6881  0.1400
  405MOL0     C53355   3.043  11.692   0.917  0.2459 -1.0907 -1.7229
  405MOL0     C53356   3.129  11.597   0.979 -0.3220 -0.2232 -0.0494
  405MOL0     C53357   3.083  11.527   1.098 -0.5443  0.3415 -0.6432
  405MOL0     O53358   3.005  11.596   1.185  0.5974  0.1809  0.4003
  405MOL0     C53359   2.944  11.515   1.272 -0.5262 -0.9381  0.0745
  405MOL0     C53360   2.866  11.405   1.212  0.7668 -0.7602 -0.3529
  405MOL0     C53361   2.794  11.329   1.298  0.4519  0.2360 -0.5342
  405MOL0     C53362   2.806  11.355   1.440  0.2206  0.6352  0.2279
  405MOL0     O53363   2.721  11.272   1.512  0.0663  0.0945  0.1671
  405MOL0     C53364   2.715  11.290   1.646 -0.3778  0.0528 -0.3853
  405MOL0     C53365   2.616  11.195   1.703 -0.0260  0.8848 -0.3737
  405MOL0     C53366   2.616  11.197   1.859  0.1881 -0.0157 -1.3833
  405MOL0     C53367   2.499  11.117   1.920  0.4352  1.1528  0.0087
  405MOL0     C53368   2.475  11.128   2.068 -0.3858  0.0810  0.1584
  405MOL0     C53369   2.589  11.115   2.172 -0.4487  0.3960  0.4247
  405MOL0     C53370   2.542  11.153   2.311 -0.2419 -0.2583 -0.6258
  405MOL0     C53371   2.494  11.298   2.312  0.5503 -0.3248 -0.5019
  405MOL0    Cl53372   2.604  11.404   2.228 -0.3302  0.2388  0.1980
  405MOL0     C53373   2.882  11.464   1.489  0.0674 -0.0731 -0.5852
  405MOL0     C53374   2.951  11.547   1.403  0.1311 -0.0380 -1.0773
  405MOL0     O53375   3.138  11.413   1.117  0.1537  0.3254 -0.0877
  405MOL0     C53376   3.266  11.577   0.929 -0.3368  0.1934  0.5845
  405MOL0     C53377   3.295  11.644   0.808 -0.0618  0.4103 -0.5072
  405MOL0     N53378   3.055  11.459   0.116  1.0586  0.1586 -0.0021
  405MOL0     N53379   2.935  11.471   0.055 -0.1766 -0.4934  0.6280
  405MOL0     C53380   2.329  10.747   0.685 -0.0043  0.2231  0.7780
  405MOL0     C53381   2.361  10.652   0.778 -0.2657  0.1152  0.7016
  405MOL0     C53382   2.383  10.193   0.902 -0.0260 -0.3153  0.6281
  405MOL0     C53383   2.426  10.064   0.865  0.3142  0.1109 -0.2944
  405MOL0     C53384   2.446   9.963   0.953  0.1287  0.2965  0.2479
  405MOL0     C53385   2.452   9.980   1.088  0.3228  0.5076  0.3696
  405MOL0     O53386   2.490   9.878   1.168 -0.3173  0.3910  0.1235
  405MOL0     C53387   2.546   9.751   1.115  0.2764 -0.7652 -0.0669
  405MOL0     C53388   2.643   9.684   1.221  0.5514  0.1777  0.0253
  405MOL0     C53389   2.744   9.786   1.265  0.8926  0.2587 -0.4327
  405MOL0     C53390   2.845   9.737   1.378  0.0270 -0.1368  1.2598
  405MOL0     C53391   2.778   9.690   1.504  0.2019 -0.4145  0.4891
  405MOL0     C53392   2.721   9.656   1.603 -0.4090 -0.0170  0.4326
  405MOL0     C53393   2.418  10.104   1.135 -0.3748  0.2622  0.6551
  405MOL0     C53394   2.382  10.203   1.042 -0.8967 -0.1570  0.3579
  405MOL0     H53395   2.465  10.406   0.572 -0.1625  1.1215 -0.3397
  405MOL0     H53396   2.441  10.588   0.415  4.6726  0.2299  0.8114
  405MOL0     H53397   2.444  10.956   0.563 -0.9724 -0.6134  0.7303
  405MOL0     H53398   2.276  10.988   0.564 -0.8573  0.0760  1.0943
  405MOL0     H53399   2.342  11.146   0.418 -0.1175 -0.9920  2.8940
  405MOL0     H53400   2.320  11.018   0.296 -1.9090  2.7056 -0.1304
  405MOL0     H53401   2.576  10.959   0.374  1.2275  0.0539  1.5815
  405MOL0     H53402   2.573  11.134   0.406 -2.2653  3.1046 -2.4291
  405MOL0     H53403   2.658  11.086   0.200 -1.0448  2.4068 -2.6610
  405MOL0     H53404   2.520  10.981   0.155 -0.5072  1.1855 -1.8633
  405MOL0     H53405   2.382  11.177   0.108 -0.3529 -0.6717 -0.7000
  405MOL0     H53406   2.544  11.197   0.051  3.3814 -0.8652  2.5206
  405MOL0     H53407   2.442  11.326   0.310 -1.2373  0.4661 -1.2530
  405MOL0     H53408   2.450  11.417   0.145  1.0304  2.3673 -0.2832
  405MOL0     H53409   2.606  11.483   0.347  0.0903  0.3674  0.7156
  405MOL0     H53410   2.707  11.336   0.309  0.1970  0.2815  0.6593
  405MOL0     H53411   2.652  11.565   0.117 -0.7315 -0.2897  0.9553
  405MOL0     H53412   2.681  11.409   0.061 -0.9077  1.2115  0.6735
  405MOL0     H53413   2.861  11.529   0.372  1.4548  2.5041  0.2279
  405MOL0     H53414   3.240  11.444   0.320  0.6532 -1.8211  0.7571
  405MOL0     H53415   3.118  11.369   0.427  2.0265  0.8612  1.8747
  405MOL0     H53416   3.107  11.553   0.554 -1.2184  0.6080 -1.3420
  405MOL0     H53417   3.105  11.675   0.423  1.9831  1.6252 -1.4733
  405MOL0     H53418   3.342  11.547   0.552 -0.0434  0.7982 -0.0901
  405MOL0     H53419   3.359  11.612   0.392  5.4735 -1.2504  2.1604
  405MOL0     H53420   3.318  11.823   0.445  1.8604  1.7259  1.0569
  405MOL0     H53421   3.425  11.768   0.579  0.2049 -2.3380  1.8277
  405MOL0     H53422   3.021  11.827   0.753 -0.0257 -0.7478  1.3847
  405MOL0     H53423   2.945  11.717   0.957  1.2588 -2.1137  1.7524
  405MOL0     H53424   2.869  11.392   1.104  3.4438 -0.6544 -0.3475
  405MOL0     H53425   2.733  11.247   1.262 -3.0188  2.0857  0.5835
  405MOL0     H53426   2.688  11.393   1.669  2.2920  0.3509  1.8062
  405MOL0     H53427   2.808  11.279   1.701  0.0763  0.4930 -1.0442
  405MOL0     H53428   2.638  11.090   1.679  1.6925  1.0516  0.3307
  405MOL0     H53429   2.521  11.220   1.656 -1.0712 -0.0103  1.1389
  405MOL0     H53430   2.601  11.300   1.893  3.5134 -0.2711  1.3676
  405MOL0     H53431   2.710  11.165   1.905 -1.2204 -2.4187  0.0188
  405MOL0     H53432   2.405  11.153   1.878 -1.9432 -1.5579  2.5420
  405MOL0     H53433   2.513  11.010   1.901  1.6850  0.8697  2.1050
  405MOL0     H53434   2.396  11.061   2.103  0.1241  0.6588  2.6774
  405MOL0     H53435   2.445  11.233   2.076  0.4046  0.3078  0.2502
  405MOL0     H53436   2.676  11.174   2.142  0.5896 -1.6570 -0.8757
  405MOL0     H53437   2.623  11.011   2.167  4.5724  1.5952  2.7308
  405MOL0     H53438   2.457  11.088   2.334 -0.1070 -1.2120 -2.6013
  405MOL0     H53439   2.619  11.136   2.387 -2.1249  1.9881  1.9865
  405MOL0     H53440   2.473  11.318   2.417 -4.5576 -2.4830 -0.8189
  405MOL0     H53441   2.395  11.312   2.267  0.5424 -0.3308 -0.4867
  405MOL0     H53442   2.871  11.494   1.593  0.8517 -0.9930 -0.2192
  405MOL0     H53443   3.000  11.632   1.450 -3.2039  1.1322  0.6734
  405MOL0     H53444   3.349  11.525   0.974 -1.1626 -0.8773  0.9157
  405MOL0     H53445   3.393  11.630   0.763  1.1008  2.9695  1.0137
  405MOL0     H53446   2.284  10.841   0.713  2.9270  3.1421 -3.1136
  405MOL0     H53447   2.355  10.679   0.883  4.1208 -1.0442  1.4310
  405MOL0     H53448   2.436  10.055   0.757 -0.8681 -1.1428 -0.3288
  405MOL0     H53449   2.501   9.885   0.901 -0.3966 -0.1004  0.2727
  405MOL0     H53450   2.611   9.774   1.030  1.3024  0.0562  0.9100
  405MOL0     H53451   2.470   9.675   1.093  0.5850 -1.9121  2.5015
  405MOL0     H53452   2.601   9.636   1.310 -0.5585  1.7333  0.3833
  405MOL0     H53453   2.688   9.602   1.165 -1.4078 -1.1303  0.2787
  405MOL0     H53454   2.696   9.874   1.308  2.1435  1.9143 -2.2334
  405MOL0     H53455   2.802   9.802   1.174  0.7455  0.5077 -0.4842
  405MOL0     H53456   2.925   9.671   1.343 -1.3915 -1.3312  0.0768
  405MOL0     H53457   2.903   9.821   1.415 -1.6265  1.7644 -0.2156
  405MOL0     H53458   2.661   9.621   1.685 -1.4537 -0.8093 -0.6269
  405MOL0     H53459   2.414  10.132   1.239 -0.6062  2.0489  0.1954
  405MOL0     H53460   2.359  10.305   1.071  2.5123  1.1489 -0.9505
  406MOL0     O53461   3.883   6.604   4.470 -0.0332  0.0437  0.4372
  406MOL0     C53462   3.880   6.493   4.513 -0.1885 -0.1215  0.5760
  406MOL0     O53463   3.780   6.392   4.488 -0.1350 -0.4767  0.8026
  406MOL0     C53464   3.686   6.412   4.390  0.1398 -0.9223  0.2622
  406MOL0     C53465   3.555   6.363   4.423 -0.2722 -0.0445 -0.2514
  406MOL0     C53466   3.442   6.377   4.337 -0.2727  0.0251 -0.1351
  406MOL0     C53467   3.459   6.441   4.212 -0.0750  0.8929  0.0857
  406MOL0     O53468   3.366   6.438   4.108 -0.1942 -0.0163 -0.0818
  406MOL0     C53469   3.256   6.352   4.105  1.4432  0.6812  0.5970
  406MOL0     C53470   3.291   6.200   4.108  0.0401 -0.0531  0.0873
  406MOL0     C53471   3.362   6.138   3.992  0.8092  0.6962  0.3910
  406MOL0     C53472   3.422   5.988   4.007 -0.8064 -0.8095 -0.0109
  406MOL0     C53473   3.572   5.992   3.984  0.1831  0.1915  0.1053
  406MOL0     C53474   3.647   5.856   4.011 -0.2080  0.1499  0.0436
  406MOL0     C53475   3.613   5.753   3.899  0.3103  0.1900 -0.5213
  406MOL0     C53476   3.718   5.641   3.891  0.5614  0.1459 -0.3915
  406MOL0     N53477   3.697   5.547   4.005 -0.6435  0.0317 -0.0758
  406MOL0     C53478   3.756   5.572   4.128 -0.4090 -0.2163  0.3201
  406MOL0     C53479   3.697   5.488   4.218  0.5773  0.0456 -0.0517
  406MOL0     C53480   3.718   5.483   4.372  1.5204 -0.2413  0.4566
  406MOL0     C53481   3.868   5.489   4.399 -0.3838 -0.5596 -0.0415
  406MOL0     C53482   3.887   5.540   4.543  1.8420 -0.6659 -0.8453
  406MOL0     C53483   3.827   5.461   4.660 -0.0364  0.1949  0.3049
  406MOL0     O53484   3.822   5.544   4.778  0.5926 -0.6426  0.0622
  406MOL0     C53485   3.900   5.522   4.892 -0.4670  0.4923  1.0304
  406MOL0     C53486   3.857   5.566   5.013  1.2391 -0.6198  0.1365
  406MOL0     C53487   3.943   5.552   5.120  0.7945  0.3986  0.1708
  406MOL0     C53488   4.063   5.480   5.113  0.0860 -0.3445  0.2405
  406MOL0     C53489   4.145   5.447   5.230  0.2923  0.4695  1.1824
  406MOL0     O53490   4.275   5.441   5.203 -0.4412 -0.9501  0.0559
  406MOL0     C53491   4.368   5.437   5.304  0.8241 -0.8623  0.0677
  406MOL0     C53492   4.470   5.524   5.317  0.3374 -0.1640  0.4539
  406MOL0     C53493   4.568   5.520   5.413 -0.3509 -0.2183  0.7406
  406MOL0     C53494   4.566   5.414   5.503  0.0174  0.2964  0.1437
  406MOL0     O53495   4.673   5.402   5.587 -0.8466 -0.1882 -0.7502
  406MOL0     C53496   4.714   5.278   5.636 -0.7695 -0.0399  0.6005
  406MOL0     C53497   4.864   5.290   5.680 -0.1057  0.1810 -0.5763
  406MOL0     C53498   4.948   5.329   5.571 -0.2373 -0.0505 -0.1938
  406MOL0     C53499   5.088   5.345   5.629  0.3472 -0.3263  0.9053
  406MOL0     C53500   5.161   5.449   5.539  0.1468 -0.5742 -0.2026
  406MOL0     C53501   5.296   5.493   5.605  0.2963  0.3728 -0.7714
  406MOL0     C53502   5.385   5.582   5.522 -0.2550  0.3200  0.3980
  406MOL0     C53503   5.474   5.513   5.405  0.2578 -0.2128 -0.5881
  406MOL0    Cl53504   5.582   5.625   5.327  0.1801 -0.0955  0.6332
  406MOL0     C53505   4.453   5.330   5.505 -0.5332  0.4226 -0.1961
  406MOL0     C53506   4.357   5.346   5.408  0.2245 -0.2729  1.0216
  406MOL0     O53507   4.096   5.457   5.337  0.0346 -0.7065 -0.2394
  406MOL0     C53508   4.098   5.437   4.988  0.1333 -0.0821 -0.2898
  406MOL0     C53509   4.023   5.463   4.879 -0.1782  0.5883  0.0078
  406MOL0     N53510   3.602   5.416   4.152 -0.0866  0.0322  0.6886
  406MOL0     N53511   3.598   5.456   4.027  0.5611 -0.1349  0.0028
  406MOL0     C53512   3.581   6.497   4.172  0.0243  0.7984  0.8145
  406MOL0     C53513   3.688   6.488   4.263 -0.1420  0.5188  0.3137
  406MOL0     C53514   3.985   6.454   4.612 -0.3645  0.0843  0.3411
  406MOL0     C53515   4.123   6.500   4.605  0.1193  0.3104 -0.6003
  406MOL0     C53516   4.221   6.440   4.679  0.9450  0.4079 -0.7824
  406MOL0     C53517   4.192   6.350   4.778  0.8094  0.7901  0.1462
  406MOL0     O53518   4.289   6.300   4.867  0.2950  0.9049  0.5052
  406MOL0     C53519   4.309   6.160   4.867 -0.4399  1.0344  0.0126
  406MOL0     C53520   4.409   6.106   4.759  0.2788  0.0865 -0.4512
  406MOL0     C53521   4.352   6.073   4.619  1.0267 -0.4050  0.1403
  406MOL0     C53522   4.463   6.069   4.523  0.2810 -0.8616 -0.1616
  406MOL0     C53523   4.505   6.201   4.485 -0.0315  0.5936 -0.2861
  406MOL0     C53524   4.522   6.315   4.453  0.3492  0.5545  0.2412
  406MOL0     C53525   4.055   6.312   4.793  0.0843 -0.1287 -0.9958
  406MOL0     C53526   3.958   6.357   4.705 -0.5144  0.0954  1.0065
  406MOL0     H53527   3.547   6.321   4.523 -0.3099 -0.6562 -0.5116
  406MOL0     H53528   3.346   6.331   4.360 -0.0359 -1.6074 -2.0521
  406MOL0     H53529   3.193   6.371   4.018  2.7405 -0.6978 -0.7129
  406MOL0     H53530   3.195   6.381   4.191  1.0864  1.5464  0.0632
  406MOL0     H53531   3.195   6.153   4.129 -2.8120  4.9320 -0.1135
  406MOL0     H53532   3.363   6.196   4.190  0.2731  1.8825  0.0215
  406MOL0     H53533   3.428   6.210   3.941 -2.5077  1.7364 -2.8651
  406MOL0     H53534   3.291   6.137   3.908  0.3212  0.8742  0.7965
  406MOL0     H53535   3.379   5.942   4.096  0.1058 -0.2539  0.7451
  406MOL0     H53536   3.383   5.928   3.925 -3.8226 -0.3393  0.9382
  406MOL0     H53537   3.607   6.069   4.054 -0.4796  1.3337 -0.7900
  406MOL0     H53538   3.608   6.031   3.888  2.4735 -2.6372 -0.3559
  406MOL0     H53539   3.628   5.810   4.108  3.9428 -1.1764  0.4242
  406MOL0     H53540   3.754   5.878   4.008  0.5324 -2.2415  3.4544
  406MOL0     H53541   3.509   5.725   3.918 -0.6047  1.6743 -2.8723
  406MOL0     H53542   3.603   5.793   3.798  1.8821  0.5473 -0.5630
  406MOL0     H53543   3.815   5.691   3.889  0.9820 -0.5171  1.4706
  406MOL0     H53544   3.723   5.584   3.798  0.8258  0.2113 -0.4177
  406MOL0     H53545   3.830   5.650   4.144 -1.4935  0.3547  3.0609
  406MOL0     H53546   3.682   5.390   4.415 -0.0770 -1.1634 -2.5877
  406MOL0     H53547   3.649   5.559   4.410 -1.1408 -2.4689  0.3966
  406MOL0     H53548   3.913   5.571   4.343  0.7781 -1.3539 -0.3032
  406MOL0     H53549   3.918   5.393   4.385  0.1538 -0.4303  0.9245
  406MOL0     H53550   3.995   5.537   4.559  1.8687 -2.2278 -1.1057
  406MOL0     H53551   3.848   5.642   4.541  0.7847 -1.0623 -2.6075
  406MOL0     H53552   3.892   5.373   4.672 -0.8338 -0.7740 -2.0048
  406MOL0     H53553   3.727   5.433   4.627  0.0978  0.8511 -0.6989
  406MOL0     H53554   3.769   5.627   5.035  2.5449  1.0405  0.9981
  406MOL0     H53555   3.899   5.590   5.212 -0.6355 -0.4181 -0.1612
  406MOL0     H53556   4.472   5.593   5.233  0.7277 -1.0308 -0.2660
  406MOL0     H53557   4.653   5.587   5.424  0.3461 -1.5124  4.3600
  406MOL0     H53558   4.703   5.200   5.560 -1.0500 -0.8947  1.4955
  406MOL0     H53559   4.654   5.244   5.721  1.5820 -1.8561  1.6275
  406MOL0     H53560   4.887   5.188   5.711 -2.9287 -0.4613 -0.3369
  406MOL0     H53561   4.884   5.367   5.755  0.8836  2.4177 -2.9695
  406MOL0     H53562   4.912   5.412   5.511 -1.2232 -0.1903  0.1924
  406MOL0     H53563   4.947   5.244   5.502 -2.5719 -0.5603  0.3866
  406MOL0     H53564   5.088   5.374   5.734  2.0440 -0.2162  0.8968
  406MOL0     H53565   5.131   5.245   5.629  1.2042  0.0179 -0.4789
  406MOL0     H53566   5.102   5.539   5.522  2.0524  1.0138  1.1324
  406MOL0     H53567   5.183   5.417   5.436 -0.9592  1.9115 -1.2844
  406MOL0     H53568   5.346   5.400   5.633 -1.0091  0.0953  0.7270
  406MOL0     H53569   5.277   5.557   5.692 -0.2134  2.4550 -2.3090
  406MOL0     H53570   5.333   5.666   5.476 -0.2008 -0.0524 -0.3476
  406MOL0     H53571   5.452   5.623   5.599 -1.3414 -4.5495  4.5168
  406MOL0     H53572   5.412   5.454   5.337 -0.4467  0.4818 -0.5616
  406MOL0     H53573   5.543   5.446   5.458  1.6950 -0.5446 -2.7785
  406MOL0     H53574   4.447   5.247   5.574  0.1274  0.9664  0.5296
  406MOL0     H53575   4.279   5.272   5.393 -0.9914  1.2247 -0.4892
  406MOL0     H53576   4.191   5.383   4.978 -1.4970 -2.9708 -1.2289
  406MOL0     H53577   4.053   5.428   4.780  0.7909  0.6595  0.2670
  406MOL0     H53578   3.587   6.548   4.077  3.6896  0.8838  0.9604
  406MOL0     H53579   3.781   6.541   4.245 -0.3846 -0.1856 -3.9845
  406MOL0     H53580   4.156   6.568   4.527 -1.9150 -0.7355 -2.4916
  406MOL0     H53581   4.316   6.492   4.673 -0.9602  4.8709  2.3903
  406MOL0     H53582   4.218   6.101   4.877  0.6214 -0.2010  5.7819
  406MOL0     H53583   4.365   6.138   4.958  1.5217 -1.4602 -1.6445
  406MOL0     H53584   4.486   6.184   4.761  0.9738 -0.5673 -0.8909
  406MOL0     H53585   4.465   6.018   4.794  2.4110  0.5647 -2.3584
  406MOL0     H53586   4.275   6.147   4.593  0.0999 -1.9311 -1.7351
  406MOL0     H53587   4.298   5.978   4.623 -0.1278 -0.1741 -4.1329
  406MOL0     H53588   4.544   5.998   4.541  1.2302  0.0938 -0.5271
  406MOL0     H53589   4.424   6.032   4.427  3.3138 -0.7391 -1.5781
  406MOL0     H53590   4.541   6.415   4.420 -1.6843  1.0218  0.3461
  406MOL0     H53591   4.040   6.248   4.880  3.2246  0.7366  0.3449
  406MOL0     H53592   3.861   6.309   4.699 -0.5052  0.1679  0.0909
  407MOL0     O53593   4.778   5.322   3.465  0.9169 -1.3594 -0.3350
  407MOL0     C53594   4.824   5.212   3.451  0.3652  0.0254 -0.2419
  407MOL0     O53595   4.795   5.134   3.350 -0.4272 -0.8264  0.3896
  407MOL0     C53596   4.734   5.192   3.240 -0.2490 -0.7944  0.9209
  407MOL0     C53597   4.614   5.145   3.176 -0.3136  0.0348  0.4826
  407MOL0     C53598   4.552   5.216   3.075 -0.1331  0.8132  0.8588
  407MOL0     C53599   4.604   5.342   3.033 -0.3239  1.1048  0.2640
  407MOL0     O53600   4.533   5.415   2.943  0.4058 -0.1548  0.9099
  407MOL0     C53601   4.565   5.556   2.932 -0.3085 -0.5786 -0.0001
  407MOL0     C53602   4.460   5.615   2.848 -0.1424  0.3812 -0.6929
  407MOL0     C53603   4.457   5.765   2.854  0.1336  0.2110  0.0500
  407MOL0     C53604   4.589   5.842   2.855  0.1791 -0.4702  0.0684
  407MOL0     C53605   4.597   5.986   2.789  0.7087  0.9376 -0.3642
  407MOL0     C53606   4.718   6.060   2.848 -0.0347 -0.5368 -0.6639
  407MOL0     C53607   4.723   6.197   2.784 -0.4312  0.4073  0.5914
  407MOL0     C53608   4.827   6.294   2.840  0.0895  0.3699 -0.3933
  407MOL0     N53609   4.959   6.281   2.764  0.5823 -0.3571 -0.9035
  407MOL0     C53610   5.063   6.198   2.798  0.5367 -1.3849 -0.6451
  407MOL0     C53611   5.163   6.237   2.717  0.0871  0.3600 -0.3529
  407MOL0     C53612   5.300   6.159   2.705 -0.0204  0.3474  0.0346
  407MOL0     C53613   5.404   6.190   2.822  0.3880  0.1692  0.0337
  407MOL0     C53614   5.457   6.331   2.798 -0.1585 -0.4126  0.3085
  407MOL0     C53615   5.582   6.352   2.896  0.9096  0.1133 -0.1124
  407MOL0     O53616   5.541   6.340   3.035  0.0649 -0.2191 -0.2073
  407MOL0     C53617   5.486   6.444   3.112 -1.7314 -0.3901  0.0542
  407MOL0     C53618   5.429   6.401   3.228  0.1827  0.3261 -0.0140
  407MOL0     C53619   5.385   6.489   3.319 -0.0711  0.6866 -0.0869
  407MOL0     C53620   5.385   6.627   3.302  0.2956  0.3707 -0.0497
  407MOL0     C53621   5.315   6.714   3.391 -0.9686  0.1998 -0.7233
  407MOL0     O53622   5.313   6.702   3.524  0.0403  0.3282 -0.2930
  407MOL0     C53623   5.231   6.784   3.603 -0.1199 -0.1354 -0.2754
  407MOL0     C53624   5.121   6.729   3.665 -1.1500  0.7326 -0.8410
  407MOL0     C53625   5.050   6.799   3.759 -0.1189 -0.2152  0.4661
  407MOL0     C53626   5.091   6.931   3.782  0.8039 -0.1451  0.1203
  407MOL0     O53627   5.037   7.011   3.881 -0.2189 -0.1243  1.1580
  407MOL0     C53628   4.894   7.037   3.885  0.8201 -0.1188  0.6224
  407MOL0     C53629   4.864   7.118   4.014  0.5559  0.8181  0.0880
  407MOL0     C53630   4.723   7.164   4.021 -0.9786 -0.2700  0.2603
  407MOL0     C53631   4.638   7.058   4.097 -0.4549 -0.6638 -0.3074
  407MOL0     C53632   4.490   7.076   4.067 -0.5136  0.9728  0.4733
  407MOL0     C53633   4.410   6.962   4.127  0.4415  0.3830  0.0279
  407MOL0     C53634   4.424   6.828   4.052 -0.5663  0.3145  0.7748
  407MOL0     C53635   4.320   6.733   4.099 -0.0508  0.5225 -0.6817
  407MOL0    Cl53636   4.356   6.676   4.269  0.0708  0.6132  0.0452
  407MOL0     C53637   5.190   6.995   3.705 -0.3529  1.0378  0.4136
  407MOL0     C53638   5.268   6.917   3.616 -0.7429 -0.8095  0.1966
  407MOL0     O53639   5.260   6.809   3.330  0.0616 -0.1327  0.2345
  407MOL0     C53640   5.455   6.679   3.185 -0.9160 -0.1065 -0.8170
  407MOL0     C53641   5.497   6.587   3.088 -0.4219  1.0723 -0.2471
  407MOL0     N53642   5.113   6.329   2.634  0.6273  0.3785  0.4630
  407MOL0     N53643   4.986   6.355   2.654 -0.2688 -0.4583 -0.1729
  407MOL0     C53644   4.726   5.385   3.082  0.3205  0.3238  0.8498
  407MOL0     C53645   4.791   5.311   3.178  0.3790  1.3183  0.8887
  407MOL0     C53646   4.931   5.153   3.527  0.0170 -1.8040 -0.2136
  407MOL0     C53647   4.996   5.037   3.494 -0.1306 -0.8760  0.2124
  407MOL0     C53648   5.108   4.997   3.570 -0.3117 -0.1552  0.1479
  407MOL0     C53649   5.146   5.050   3.685 -0.0218  0.2397 -0.3371
  407MOL0     O53650   5.248   4.986   3.749 -0.7389 -0.2316  0.8579
  407MOL0     C53651   5.216   4.940   3.879 -0.0957  0.0403  0.0070
  407MOL0     C53652   5.302   4.820   3.918 -0.2009  0.7481 -0.7450
  407MOL0     C53653   5.203   4.703   3.951 -0.5454  0.2428  0.4149
  407MOL0     C53654   5.157   4.661   3.810  0.8402  0.5790  0.4767
  407MOL0     C53655   5.118   4.520   3.802  0.0180  0.0529  0.5790
  407MOL0     C53656   5.084   4.414   3.762 -0.9158 -0.2182  0.9301
  407MOL0     C53657   5.070   5.153   3.735 -0.0384 -0.1908  1.1335
  407MOL0     C53658   4.971   5.210   3.654  0.9050 -0.1243  1.1846
  407MOL0     H53659   4.566   5.052   3.207  0.1360 -0.6312 -0.7356
  407MOL0     H53660   4.459   5.179   3.034  0.5195  0.7460 -0.6160
  407MOL0     H53661   4.665   5.573   2.891 -0.9054 -0.6006 -1.5575
  407MOL0     H53662   4.569   5.599   3.032  0.8470 -0.7439  0.0392
  407MOL0     H53663   4.359   5.592   2.883 -0.2367  1.7602  0.0060
  407MOL0     H53664   4.471   5.587   2.743 -1.7881  1.3540 -1.1651
  407MOL0     H53665   4.396   5.801   2.937  0.1890  0.6189 -0.0835
  407MOL0     H53666   4.399   5.786   2.764  2.0631  0.1825 -1.2645
  407MOL0     H53667   4.629   5.848   2.957  0.5011  0.7773 -0.1093
  407MOL0     H53668   4.667   5.784   2.806 -0.6231  0.0644 -1.9243
  407MOL0     H53669   4.512   6.041   2.831  0.7749  0.7419  0.0293
  407MOL0     H53670   4.590   5.978   2.680 -0.3362  0.0757 -0.2569
  407MOL0     H53671   4.804   5.994   2.830  0.6805  0.2935 -0.3371
  407MOL0     H53672   4.713   6.064   2.957 -1.0947 -0.4642 -0.7104
  407MOL0     H53673   4.735   6.183   2.677  2.5096 -0.1839  0.9101
  407MOL0     H53674   4.624   6.239   2.804  0.9445  4.4879 -0.3420
  407MOL0     H53675   4.838   6.265   2.944 -3.3349  0.7504  0.1965
  407MOL0     H53676   4.798   6.399   2.847  0.8970  0.4764  3.4156
  407MOL0     H53677   5.073   6.130   2.883  0.5654  0.6927  1.1033
  407MOL0     H53678   5.350   6.172   2.609 -0.1986 -0.3544 -0.1582
  407MOL0     H53679   5.274   6.053   2.711 -1.9534  0.7715 -0.0120
  407MOL0     H53680   5.489   6.121   2.825  0.2455 -0.2093 -2.3916
  407MOL0     H53681   5.338   6.184   2.909 -1.3047  3.2104 -0.8870
  407MOL0     H53682   5.491   6.347   2.695  0.6873  3.3277  1.0234
  407MOL0     H53683   5.379   6.404   2.819  0.4351  0.0629  0.8986
  407MOL0     H53684   5.618   6.452   2.874 -1.1183  0.8601 -0.2558
  407MOL0     H53685   5.662   6.282   2.870  1.7746  1.9864 -2.9160
  407MOL0     H53686   5.394   6.299   3.245 -1.3979  0.3322 -2.6805
  407MOL0     H53687   5.341   6.438   3.404 -0.0581  0.6804 -0.0837
  407MOL0     H53688   5.091   6.625   3.664 -0.2422  0.4249  0.8834
  407MOL0     H53689   4.966   6.756   3.813  1.3875 -3.0871  0.6662
  407MOL0     H53690   4.846   6.939   3.881  0.1346  0.2478 -2.3603
  407MOL0     H53691   4.869   7.097   3.798 -2.0254  1.6544  2.5207
  407MOL0     H53692   4.928   7.207   4.010  0.7154  0.8396  2.1273
  407MOL0     H53693   4.895   7.046   4.091 -1.1504 -1.8630 -1.5751
  407MOL0     H53694   4.680   7.192   3.924 -1.3461 -0.7774  0.2759
  407MOL0     H53695   4.718   7.260   4.074 -0.0481  1.0399 -1.9018
  407MOL0     H53696   4.665   6.962   4.053 -0.8480 -0.7650 -0.3332
  407MOL0     H53697   4.669   7.054   4.201 -1.4364  0.2946  0.0457
  407MOL0     H53698   4.469   7.072   3.960 -0.5263 -2.9782  0.5041
  407MOL0     H53699   4.464   7.179   4.095 -1.2593  1.1080 -0.6492
  407MOL0     H53700   4.306   6.997   4.124 -0.1713 -1.3603 -1.1982
  407MOL0     H53701   4.433   6.943   4.232  0.2350 -1.0418 -0.1677
  407MOL0     H53702   4.397   6.856   3.950  0.9180  1.3701  0.6482
  407MOL0     H53703   4.525   6.786   4.056 -0.1349  0.4908 -3.3568
  407MOL0     H53704   4.316   6.647   4.032 -2.3010  0.5389 -0.6390
  407MOL0     H53705   4.225   6.786   4.092  0.2035  0.9620 -0.9008
  407MOL0     H53706   5.224   7.093   3.738  3.0379  0.3244 -0.5925
  407MOL0     H53707   5.369   6.942   3.585 -0.4149 -0.9640  1.1137
  407MOL0     H53708   5.471   6.783   3.159 -0.8239  0.4941  1.3963
  407MOL0     H53709   5.545   6.620   2.996  1.5748 -1.1753 -0.1272
  407MOL0     H53710   4.776   5.470   3.037 -0.5991 -0.6257 -2.2194
  407MOL0     H53711   4.882   5.350   3.222  0.1611  0.8859  1.7555
  407MOL0     H53712   4.953   4.967   3.423 -3.3696  0.9167  0.2244
  407MOL0     H53713   5.159   4.908   3.536  0.3552  0.6408 -1.0323
  407MOL0     H53714   5.111   4.912   3.887  0.3321 -2.8997 -2.7616
  407MOL0     H53715   5.237   5.011   3.960 -1.1868  0.4331 -0.0304
  407MOL0     H53716   5.379   4.793   3.845  1.2578 -0.7713  1.2783
  407MOL0     H53717   5.359   4.840   4.009 -0.9297  1.0638 -0.3466
  407MOL0     H53718   5.122   4.735   4.016 -0.1669  2.4755 -0.1335
  407MOL0     H53719   5.264   4.630   4.006  0.1732  0.5116 -0.0040
  407MOL0     H53720   5.064   4.709   3.778  1.3957 -0.2729 -2.7879
  407MOL0     H53721   5.222   4.697   3.730  2.8950  0.9816  2.2323
  407MOL0     H53722   5.056   4.312   3.744 -1.8601 -0.6510  4.1822
  407MOL0     H53723   5.088   5.195   3.833  1.2149  2.2805 -0.0833
  407MOL0     H53724   4.934   5.305   3.692 -0.2878  0.7944 -1.9818
  408MOL0     O53725   0.856   3.928   4.915  0.4141  0.0241 -0.7873
  408MOL0     C53726   0.874   4.021   4.986 -0.2340  0.0185 -0.0085
  408MOL0     O53727   0.816   4.048   5.104  0.0268  0.1283  0.5113
  408MOL0     C53728   0.736   3.953   5.155  0.3947  0.3796 -0.1552
  408MOL0     C53729   0.784   3.841   5.220 -0.7015 -0.8133 -0.0037
  408MOL0     C53730   0.699   3.746   5.269  0.0776 -0.0475 -0.3724
  408MOL0     C53731   0.561   3.749   5.243  0.3289 -0.9471  0.0762
  408MOL0     O53732   0.483   3.642   5.289 -0.6083 -0.3606  0.1418
  408MOL0     C53733   0.349   3.636   5.252  1.1748  0.7632  0.5015
  408MOL0     C53734   0.287   3.534   5.343 -0.9951  0.6592 -0.0420
  408MOL0     C53735   0.332   3.391   5.312 -0.4744 -0.6107 -0.2966
  408MOL0     C53736   0.293   3.296   5.418 -0.3656 -0.0601 -0.3713
  408MOL0     C53737   0.365   3.161   5.389  0.5258 -0.0789 -0.1264
  408MOL0     C53738   0.397   3.082   5.523  0.7607  0.9295  0.6330
  408MOL0     C53739   0.275   3.021   5.589 -0.6509  0.7207  0.2076
  408MOL0     C53740   0.242   2.874   5.537  0.4369 -2.1535 -0.0421
  408MOL0     N53741   0.118   2.824   5.590  0.7528 -0.4944  0.5622
  408MOL0     C53742   0.002   2.901   5.621  1.1755  0.1790 -1.1197
  408MOL0     C53743  -0.068   2.825   5.708 -0.6957 -0.2605  0.1831
  408MOL0     C53744  -0.202   2.875   5.769  0.7937 -0.2691  0.3102
  408MOL0     C53745  -0.225   2.848   5.916  0.1536 -0.4072  0.0185
  408MOL0     C53746  -0.369   2.857   5.949 -0.4489 -1.0163  1.1659
  408MOL0     C53747  -0.392   2.878   6.093 -0.3509 -0.3222 -0.6858
  408MOL0     O53748  -0.519   2.815   6.126 -0.7726  0.0365  0.4505
  408MOL0     C53749  -0.630   2.888   6.090  0.1044 -0.0440  1.1397
  408MOL0     C53750  -0.658   3.016   6.130  0.0436  0.4237 -0.6735
  408MOL0     C53751  -0.773   3.084   6.083 -0.4991  0.4316  0.0021
  408MOL0     C53752  -0.855   3.024   5.984  0.9667 -0.2830  0.5387
  408MOL0     C53753  -0.972   3.096   5.936 -0.4674  0.0809 -0.7597
  408MOL0     O53754  -0.971   3.223   5.977 -0.1194 -0.2202  0.2201
  408MOL0     C53755  -1.076   3.310   5.948  0.2049  0.4218 -1.0274
  408MOL0     C53756  -1.064   3.453   5.947 -0.2849 -0.5395  0.3005
  408MOL0     C53757  -1.176   3.545   5.914  0.5149 -0.1151 -0.2301
  408MOL0     C53758  -1.311   3.497   5.907 -0.3879 -0.5168  0.3910
  408MOL0     O53759  -1.410   3.584   5.883 -0.7994 -0.1896  0.1402
  408MOL0     C53760  -1.543   3.552   5.876 -0.4141  0.1316  0.0430
  408MOL0     C53761  -1.622   3.668   5.816 -0.3918 -0.5011  1.1484
  408MOL0     C53762  -1.609   3.680   5.657 -0.0697 -0.1546 -0.7007
  408MOL0     C53763  -1.468   3.718   5.607  0.3970 -0.1358 -0.1261
  408MOL0     C53764  -1.450   3.731   5.449 -0.9132 -0.3775 -0.0719
  408MOL0     C53765  -1.546   3.848   5.407 -0.3270  0.2625  0.0494
  408MOL0     C53766  -1.564   3.863   5.255  0.7244  0.3853 -1.2598
  408MOL0     C53767  -1.674   3.956   5.230 -0.0970 -1.1073  0.7641
  408MOL0    Cl53768  -1.646   4.130   5.251 -0.2647 -0.2213  0.0424
  408MOL0     C53769  -1.322   3.355   5.914 -0.2165  0.1739 -0.8932
  408MOL0     C53770  -1.213   3.270   5.930 -0.7347  0.9942 -0.1050
  408MOL0     O53771  -1.058   3.035   5.874  0.2645  0.4363  0.3033
  408MOL0     C53772  -0.821   2.895   5.943 -1.1156 -0.7318  0.2976
  408MOL0     C53773  -0.719   2.824   6.004 -0.6442 -0.0195  0.3866
  408MOL0     N53774  -0.008   2.701   5.723 -0.2945 -0.6046  0.3254
  408MOL0     N53775   0.104   2.703   5.654  0.2497  0.1964 -0.3258
  408MOL0     C53776   0.514   3.859   5.171  0.4234 -0.3261  1.0989
  408MOL0     C53777   0.598   3.965   5.126  0.2465  0.8383  0.4520
  408MOL0     C53778   0.958   4.122   4.926 -0.1812 -0.4006  0.6610
  408MOL0     C53779   1.040   4.106   4.810  0.0386 -0.1642  0.5772
  408MOL0     C53780   1.122   4.210   4.771  0.3057 -0.0738  0.8863
  408MOL0     C53781   1.122   4.338   4.829  0.1910  0.0886 -0.6004
  408MOL0     O53782   1.196   4.442   4.774 -0.2544  0.0044 -0.1138
  408MOL0     C53783   1.341   4.429   4.796  0.4840 -0.1378 -0.1554
  408MOL0     C53784   1.397   4.574   4.782  0.4045  0.1710 -0.5802
  408MOL0     C53785   1.427   4.625   4.919 -0.7497  0.7749 -0.6557
  408MOL0     C53786   1.522   4.746   4.919 -0.1629 -0.2107 -0.2271
  408MOL0     C53787   1.451   4.860   4.860 -0.1923  0.1670  0.4375
  408MOL0     C53788   1.391   4.956   4.805  0.2129 -0.0527  0.1098
  408MOL0     C53789   1.059   4.351   4.950 -0.1988  0.3167  0.1440
  408MOL0     C53790   0.973   4.248   4.998 -0.3180  0.3967  0.8236
  408MOL0     H53791   0.888   3.845   5.253 -1.1919 -2.4826  1.9771
  408MOL0     H53792   0.725   3.662   5.333 -0.6462  1.0679  1.4824
  408MOL0     H53793   0.350   3.612   5.145  1.2348  3.3134 -0.1286
  408MOL0     H53794   0.299   3.731   5.272 -1.0808 -0.1636 -0.3071
  408MOL0     H53795   0.178   3.543   5.337 -0.7809  3.5093 -1.6136
  408MOL0     H53796   0.316   3.565   5.444 -0.2404 -1.6165  0.4931
  408MOL0     H53797   0.441   3.386   5.305 -0.3740 -4.0579  1.5120
  408MOL0     H53798   0.293   3.366   5.213 -0.1808  2.1615 -1.1945
  408MOL0     H53799   0.338   3.340   5.507 -0.0427 -1.6874  0.3117
  408MOL0     H53800   0.186   3.282   5.437 -0.7050 -2.0745 -3.1283
  408MOL0     H53801   0.452   3.173   5.324  1.9980 -4.4138  0.7093
  408MOL0     H53802   0.307   3.083   5.339  0.0962  0.2938 -0.2126
  408MOL0     H53803   0.446   3.161   5.580  0.8753 -0.9567  3.2935
  408MOL0     H53804   0.467   3.003   5.495 -1.0388 -0.5370  0.0278
  408MOL0     H53805   0.302   3.019   5.695  3.9371 -2.1022 -0.7382
  408MOL0     H53806   0.187   3.086   5.582 -1.8788 -1.0743 -4.3282
  408MOL0     H53807   0.331   2.818   5.565  0.6247 -1.5108  0.6628
  408MOL0     H53808   0.229   2.875   5.428  0.3078 -0.7655 -0.0301
  408MOL0     H53809  -0.024   3.004   5.598 -1.8614 -0.0751  0.7141
  408MOL0     H53810  -0.279   2.822   5.713  1.8957 -0.9023 -0.6561
  408MOL0     H53811  -0.223   2.980   5.747  0.4119 -0.5851 -0.9379
  408MOL0     H53812  -0.168   2.921   5.975 -1.7204  0.3228  1.0197
  408MOL0     H53813  -0.196   2.747   5.947 -2.0705  0.3022  5.7242
  408MOL0     H53814  -0.417   2.940   5.897  0.8780 -1.6593 -1.2070
  408MOL0     H53815  -0.407   2.760   5.916  0.4406 -0.9662 -0.0496
  408MOL0     H53816  -0.393   2.983   6.120 -1.7286 -0.5040  0.0291
  408MOL0     H53817  -0.319   2.826   6.156  0.5099  0.8260 -0.7017
  408MOL0     H53818  -0.597   3.072   6.200 -1.7962 -0.6718  1.9588
  408MOL0     H53819  -0.797   3.184   6.118  1.4196  0.9124  0.0732
  408MOL0     H53820  -0.964   3.494   5.942 -0.3346 -0.5142 -0.9972
  408MOL0     H53821  -1.176   3.653   5.911 -3.6315  0.0524 -0.2925
  408MOL0     H53822  -1.586   3.523   5.972  0.5377  1.7725  1.0105
  408MOL0     H53823  -1.562   3.459   5.821 -1.0901 -0.4218  1.1883
  408MOL0     H53824  -1.575   3.755   5.863  2.0438 -0.2908 -1.4066
  408MOL0     H53825  -1.726   3.658   5.846 -2.1255 -1.1489 -4.0958
  408MOL0     H53826  -1.679   3.752   5.614  0.5549  2.2250  1.9848
  408MOL0     H53827  -1.622   3.583   5.607  0.3788  0.5989 -2.3699
  408MOL0     H53828  -1.440   3.811   5.657 -2.0047 -0.5159  2.1355
  408MOL0     H53829  -1.391   3.649   5.642 -1.1741 -1.7620  0.2219
  408MOL0     H53830  -1.478   3.637   5.400 -0.6954 -1.2864  1.4760
  408MOL0     H53831  -1.343   3.742   5.428 -1.2177  3.7427 -0.2369
  408MOL0     H53832  -1.518   3.940   5.459  3.2546  1.0248 -2.8370
  408MOL0     H53833  -1.647   3.818   5.435 -0.4613  0.6155 -0.0630
  408MOL0     H53834  -1.471   3.894   5.207  1.0539  0.8190 -0.3754
  408MOL0     H53835  -1.599   3.771   5.208  1.2888 -0.7436  0.4435
  408MOL0     H53836  -1.762   3.921   5.284 -2.1760  0.8371 -1.1445
  408MOL0     H53837  -1.700   3.955   5.124 -1.2556 -0.9035  1.0363
  408MOL0     H53838  -1.422   3.312   5.919 -0.9264  1.6505 -1.5711
  408MOL0     H53839  -1.244   3.166   5.936 -1.0016  0.9370 -1.8922
  408MOL0     H53840  -0.874   2.839   5.867 -0.8762  0.2328 -0.6126
  408MOL0     H53841  -0.699   2.720   5.980  2.5952  0.6069 -0.0547
  408MOL0     H53842   0.408   3.871   5.152  0.6457 -1.5812 -1.3081
  408MOL0     H53843   0.557   4.037   5.056  0.1942 -2.3833 -3.1474
  408MOL0     H53844   1.048   4.014   4.752  1.7957 -0.0028  0.5036
  408MOL0     H53845   1.179   4.190   4.680  0.4875 -1.0302  1.2061
  408MOL0     H53846   1.382   4.357   4.725 -0.5295  0.8003 -1.7615
  408MOL0     H53847   1.345   4.385   4.897 -2.9878 -0.3584  0.0245
  408MOL0     H53848   1.486   4.559   4.721  0.6184 -0.2463 -0.1696
  408MOL0     H53849   1.324   4.647   4.746 -0.0632  2.9999  4.9547
  408MOL0     H53850   1.479   4.546   4.974 -0.1038  0.8949 -1.0864
  408MOL0     H53851   1.332   4.646   4.971 -0.3169  0.7504  0.1675
  408MOL0     H53852   1.561   4.778   5.016  1.9655  0.1310 -1.1309
  408MOL0     H53853   1.606   4.739   4.850 -0.5474  3.3583 -1.2246
  408MOL0     H53854   1.316   5.026   4.775  0.8408 -0.1469 -1.7985
  408MOL0     H53855   1.074   4.444   5.003  2.5420 -0.6482  1.2607
  408MOL0     H53856   0.913   4.271   5.085 -3.1225  2.6501 -1.4929
  409MOL0     O53857   3.960   7.174  11.339 -0.5904 -0.5687 -0.7157
  409MOL0     C53858   3.867   7.108  11.290  0.3752  0.3418  0.5054
  409MOL0     O53859   3.774   7.043  11.354  0.0939  0.2287 -0.1976
  409MOL0     C53860   3.773   7.071  11.481 -0.1925 -0.4587  0.5651
  409MOL0     C53861   3.667   7.152  11.527  0.2009  0.1835 -0.9939
  409MOL0     C53862   3.655   7.195  11.660  0.3696  0.3937 -0.8840
  409MOL0     C53863   3.758   7.167  11.754 -0.1899 -0.4705 -0.3801
  409MOL0     O53864   3.745   7.219  11.880  0.1268  0.0892  0.4079
  409MOL0     C53865   3.840   7.163  11.976  0.0581  0.2397 -0.2724
  409MOL0     C53866   3.812   7.239  12.106 -0.3822  0.3362  0.0632
  409MOL0     C53867   3.713   7.172  12.211 -0.7546 -0.7467  0.6382
  409MOL0     C53868   3.709   7.248  12.348  0.4247 -0.3329 -1.0841
  409MOL0     C53869   3.642   7.149  12.448  0.2266 -0.1135 -0.3967
  409MOL0     C53870   3.604   7.195  12.585  0.1559  0.0220 -0.2924
  409MOL0     C53871   3.723   7.247  12.663  0.8495  0.1496  0.7295
  409MOL0     C53872   3.694   7.285  12.804  1.0743 -0.2037  0.8204
  409MOL0     N53873   3.577   7.384  12.816  0.7659  0.9615  0.2590
  409MOL0     C53874   3.458   7.343  12.875 -0.6042 -1.1303 -0.7870
  409MOL0     C53875   3.370   7.437  12.841  0.4215  0.4495  0.1711
  409MOL0     C53876   3.223   7.440  12.873  0.4685  0.6138  0.4817
  409MOL0     C53877   3.131   7.442  12.742  0.0461  0.1853  0.3028
  409MOL0     C53878   3.129   7.293  12.684  0.0143 -0.4006  0.2031
  409MOL0     C53879   2.994   7.257  12.621  0.2834 -0.1305 -0.3862
  409MOL0     O53880   2.960   7.326  12.506 -0.2686 -0.6525 -0.5410
  409MOL0     C53881   2.826   7.310  12.477  0.9337  0.4185 -0.6129
  409MOL0     C53882   2.746   7.192  12.472  1.4765 -0.4933 -0.7547
  409MOL0     C53883   2.618   7.203  12.420  1.0834  0.4037  0.1788
  409MOL0     C53884   2.559   7.325  12.381 -0.0776 -0.0237 -0.5478
  409MOL0     C53885   2.423   7.332  12.321 -0.1893 -0.0767 -0.0211
  409MOL0     O53886   2.363   7.209  12.312  0.7185  1.0480  0.6251
  409MOL0     C53887   2.254   7.192  12.229  0.1584 -0.5713 -0.2605
  409MOL0     C53888   2.210   7.277  12.120  1.1416  0.2060 -0.1065
  409MOL0     C53889   2.104   7.234  12.040 -0.2455  0.3164 -0.2428
  409MOL0     C53890   2.026   7.117  12.075  0.2160  1.2333  0.2992
  409MOL0     O53891   1.900   7.091  12.024  0.3892 -0.7130 -0.3783
  409MOL0     C53892   1.871   7.142  11.893 -0.4858 -0.1535 -0.2251
  409MOL0     C53893   1.762   7.044  11.845  0.0612 -1.2292 -0.0546
  409MOL0     C53894   1.711   7.071  11.703  0.3452  0.1498  0.5425
  409MOL0     C53895   1.596   6.976  11.681  0.3265 -0.5568  1.1558
  409MOL0     C53896   1.549   6.999  11.533 -0.4974 -0.8985  0.3564
  409MOL0     C53897   1.448   6.892  11.502 -0.2385  0.8367  0.3526
  409MOL0     C53898   1.410   6.888  11.351  0.6892 -0.1486 -0.8989
  409MOL0     C53899   1.255   6.869  11.332  0.1913  0.8804 -0.4562
  409MOL0    Cl53900   1.196   6.712  11.412 -0.1713  0.2417 -0.0247
  409MOL0     C53901   2.072   7.032  12.182  0.4805 -0.2239  0.1631
  409MOL0     C53902   2.183   7.076  12.261 -0.1932 -0.9867  0.3886
  409MOL0     O53903   2.369   7.444  12.308 -0.0312  0.1710  0.6807
  409MOL0     C53904   2.632   7.442  12.396  0.5468 -0.2408 -1.1433
  409MOL0     C53905   2.767   7.434  12.436 -0.8603  0.2557 -0.7038
  409MOL0     N53906   3.440   7.538  12.775  0.7069  0.4835  0.2305
  409MOL0     N53907   3.562   7.512  12.777  0.0171 -0.3057 -0.0186
  409MOL0     C53908   3.870   7.087  11.702  0.6189  0.1772  0.3872
  409MOL0     C53909   3.874   7.041  11.572  1.1293  0.2137  0.6248
  409MOL0     C53910   3.877   7.079  11.148 -0.5683  0.9329 -0.1224
  409MOL0     C53911   3.764   7.026  11.077 -0.2939 -0.3032  0.4727
  409MOL0     C53912   3.780   7.001  10.942 -0.6124 -0.0745 -0.9923
  409MOL0     C53913   3.895   7.031  10.873  0.0762  0.2141 -0.1602
  409MOL0     O53914   3.905   7.006  10.737  0.4750  0.2504  0.5005
  409MOL0     C53915   3.778   6.985  10.660  0.5584 -0.4965 -0.3485
  409MOL0     C53916   3.817   6.997  10.513  0.1471  0.0288  0.7306
  409MOL0     C53917   3.684   7.018  10.420  0.0282 -0.8613 -0.4288
  409MOL0     C53918   3.578   6.910  10.437 -0.1142  0.2342  0.1374
  409MOL0     C53919   3.631   6.771  10.434  0.9166 -0.4299 -0.3683
  409MOL0     C53920   3.681   6.659  10.440  0.6695  0.3525 -0.8772
  409MOL0     C53921   4.003   7.083  10.943 -0.7336  0.5721 -0.0047
  409MOL0     C53922   3.996   7.102  11.074  0.2459 -0.4148  0.3481
  409MOL0     H53923   3.585   7.180  11.461 -0.0778 -2.8475 -2.0615
  409MOL0     H53924   3.578   7.259  11.702 -0.5815 -1.0287 -0.3912
  409MOL0     H53925   3.948   7.170  11.959  0.3797 -3.4716 -0.5905
  409MOL0     H53926   3.807   7.059  11.984  1.8979 -0.2188  2.5590
  409MOL0     H53927   3.791   7.345  12.089 -0.6126 -0.0027 -2.0126
  409MOL0     H53928   3.913   7.242  12.147  0.7942  0.2945 -2.6862
  409MOL0     H53929   3.738   7.067  12.230  0.8357 -0.2623  1.3996
  409MOL0     H53930   3.615   7.175  12.163 -0.5242  0.7024  0.2290
  409MOL0     H53931   3.809   7.273  12.385  1.5900  2.0849 -5.2429
  409MOL0     H53932   3.650   7.340  12.351  1.1757  0.1466  1.3740
  409MOL0     H53933   3.713   7.067  12.465  0.3609 -0.1087 -0.9206
  409MOL0     H53934   3.557   7.108  12.392  1.5788 -3.4653 -0.2372
  409MOL0     H53935   3.554   7.119  12.646  1.7224 -1.4464 -0.7673
  409MOL0     H53936   3.537   7.281  12.583  1.9482  1.6305  2.2950
  409MOL0     H53937   3.808   7.177  12.666  0.2070 -0.9187 -2.1701
  409MOL0     H53938   3.755   7.341  12.616  0.6647  0.4223  1.1456
  409MOL0     H53939   3.781   7.346  12.831  0.0851  1.0619  1.2295
  409MOL0     H53940   3.681   7.202  12.874  1.3345  0.3114  1.4966
  409MOL0     H53941   3.429   7.263  12.942 -2.5364 -1.3166 -1.7595
  409MOL0     H53942   3.205   7.536  12.922 -2.8692  0.8110 -0.8438
  409MOL0     H53943   3.193   7.359  12.940 -0.5668  0.5208 -0.0706
  409MOL0     H53944   3.166   7.502  12.657 -2.4439  0.1317 -0.8560
  409MOL0     H53945   3.028   7.467  12.769 -0.3972 -2.3045  1.1310
  409MOL0     H53946   3.211   7.288  12.612  0.8976  1.0551  1.0578
  409MOL0     H53947   3.146   7.218  12.763  0.9834 -1.1995 -0.7232
  409MOL0     H53948   2.924   7.273  12.704  0.4709 -1.6110  0.0972
  409MOL0     H53949   3.001   7.150  12.600  2.2575 -0.8163  3.0232
  409MOL0     H53950   2.784   7.092  12.488 -1.0081 -1.4000 -0.1066
  409MOL0     H53951   2.551   7.118  12.408 -0.1975  1.1728  1.4529
  409MOL0     H53952   2.251   7.377  12.106  1.4652  0.2850  1.3160
  409MOL0     H53953   2.073   7.298  11.958  0.2533  3.3128  1.7384
  409MOL0     H53954   1.955   7.126  11.824 -0.1608 -3.4046  0.7678
  409MOL0     H53955   1.838   7.246  11.884  2.8504  1.2703  1.8739
  409MOL0     H53956   1.685   7.032  11.921 -1.1805 -1.9849 -1.3787
  409MOL0     H53957   1.812   6.947  11.850  0.1087 -1.1289  3.1194
  409MOL0     H53958   1.791   7.065  11.628 -0.5855  1.4748 -0.6065
  409MOL0     H53959   1.656   7.164  11.689  0.9396  0.2649 -1.3326
  409MOL0     H53960   1.632   6.872  11.684  1.1279 -0.7870 -4.6659
  409MOL0     H53961   1.514   7.001  11.749 -1.3157 -0.6465 -0.7152
  409MOL0     H53962   1.638   6.991  11.471 -2.4671 -2.2082 -2.4872
  409MOL0     H53963   1.507   7.095  11.503  0.3097 -1.2205 -2.0342
  409MOL0     H53964   1.357   6.901  11.562  0.4914 -2.7532  2.2833
  409MOL0     H53965   1.483   6.793  11.533  1.1937 -0.2854 -4.1015
  409MOL0     H53966   1.447   6.977  11.300  1.2204 -0.2470 -0.6920
  409MOL0     H53967   1.460   6.804  11.302  2.1451  0.4491 -0.4973
  409MOL0     H53968   1.225   6.872  11.227  1.3124 -1.0030 -0.8794
  409MOL0     H53969   1.208   6.946  11.392  1.3101  3.5398 -2.7710
  409MOL0     H53970   2.004   6.949  12.197 -0.5625  0.8657  1.6537
  409MOL0     H53971   2.231   7.026  12.345  1.7545  3.9649  2.6326
  409MOL0     H53972   2.581   7.537  12.383 -0.5393 -0.8348 -1.2745
  409MOL0     H53973   2.831   7.518  12.460 -2.8577  1.7996 -0.4289
  409MOL0     H53974   3.957   7.073  11.766  0.3133  0.7278  0.9389
  409MOL0     H53975   3.973   7.006  11.544  1.5586 -1.0891  3.4362
  409MOL0     H53976   3.679   6.985  11.129  0.5426 -2.9628 -0.1083
  409MOL0     H53977   3.699   6.950  10.891 -0.6315 -0.7653 -0.2992
  409MOL0     H53978   3.706   7.058  10.698  0.7741 -1.2785  1.6861
  409MOL0     H53979   3.747   6.883  10.685 -2.0528  1.0248  3.6399
  409MOL0     H53980   3.873   7.091  10.507  0.6764 -0.3453 -0.2727
  409MOL0     H53981   3.874   6.910  10.480 -2.1589 -0.8287 -1.2471
  409MOL0     H53982   3.717   7.018  10.316 -2.2800 -1.2669 -1.2400
  409MOL0     H53983   3.643   7.116  10.445  0.5238 -0.3549 -1.5356
  409MOL0     H53984   3.530   6.923  10.534  0.8152  0.0252  0.6394
  409MOL0     H53985   3.501   6.914  10.359 -0.0831 -3.1493 -0.2140
  409MOL0     H53986   3.731   6.565  10.455  1.3478  0.7335 -0.7096
  409MOL0     H53987   4.103   7.095  10.901 -0.9557  0.4977 -0.5624
  409MOL0     H53988   4.079   7.144  11.129  0.7591 -1.0470  0.0762
  410MOL0     O53989   2.454   9.863   6.414 -0.6056 -0.7772  0.4808
  410MOL0     C53990   2.464   9.962   6.486  1.3184 -0.8260 -0.1023
  410MOL0     O53991   2.510   9.958   6.617 -0.5350 -0.4295  0.5952
  410MOL0     C53992   2.576   9.845   6.646 -0.6771 -0.2454 -0.2553
  410MOL0     C53993   2.702   9.806   6.601  0.4684 -0.2411  0.3532
  410MOL0     C53994   2.765   9.691   6.654  0.2580  0.2419 -0.3612
  410MOL0     C53995   2.691   9.605   6.742  0.0868  0.1189  0.8208
  410MOL0     O53996   2.727   9.489   6.800  0.4774  1.0484  0.2576
  410MOL0     C53997   2.829   9.421   6.728 -0.5409 -0.3270  1.0451
  410MOL0     C53998   2.870   9.304   6.812 -0.2168  0.5026 -0.4729
  410MOL0     C53999   2.983   9.221   6.747 -0.4105  0.8279 -0.9145
  410MOL0     C54000   2.980   9.071   6.786  0.7576  0.2973  0.0813
  410MOL0     C54001   3.117   9.005   6.774  0.1092  0.1244  0.4164
  410MOL0     C54002   3.157   8.998   6.620 -0.4199 -0.4532 -1.3071
  410MOL0     C54003   3.294   8.929   6.591 -0.5082 -0.4701  0.0857
  410MOL0     C54004   3.408   8.989   6.678  1.5572  0.5899 -0.4860
  410MOL0     N54005   3.541   8.933   6.643 -0.1954 -0.1676  0.5110
  410MOL0     C54006   3.602   8.809   6.607  0.1694 -0.3329  0.3710
  410MOL0     C54007   3.732   8.823   6.598 -0.7028 -0.5558  0.3331
  410MOL0     C54008   3.846   8.718   6.589  0.0108 -0.5709  0.1492
  410MOL0     C54009   3.895   8.701   6.445  0.0591  0.4912  0.1742
  410MOL0     C54010   3.807   8.590   6.378  0.5459 -0.3455  0.2350
  410MOL0     C54011   3.826   8.618   6.235  0.4362  0.0291  0.4370
  410MOL0     O54012   3.739   8.541   6.162 -0.8052 -0.3034 -0.3252
  410MOL0     C54013   3.669   8.617   6.071  0.4388  0.6088  0.3489
  410MOL0     C54014   3.718   8.722   5.989 -0.5535 -0.5970 -0.5901
  410MOL0     C54015   3.631   8.791   5.899  0.0050 -0.0846  0.0673
  410MOL0     C54016   3.489   8.761   5.902 -0.6515 -0.3275 -0.2999
  410MOL0     C54017   3.390   8.836   5.822 -0.2415 -0.8220  0.1286
  410MOL0     O54018   3.268   8.783   5.818 -0.1009  0.8889  0.1256
  410MOL0     C54019   3.186   8.799   5.708 -0.3376 -0.0555  0.3463
  410MOL0     C54020   3.112   8.680   5.676 -0.9079 -0.6824 -0.1580
  410MOL0     C54021   3.031   8.685   5.564 -0.3188  0.4339 -0.2647
  410MOL0     C54022   3.007   8.801   5.489  0.5234 -0.0744  0.6519
  410MOL0     O54023   2.912   8.802   5.386  0.2190 -0.2117 -0.0326
  410MOL0     C54024   2.782   8.760   5.426 -0.7846  0.5574  0.5275
  410MOL0     C54025   2.683   8.833   5.328  0.1444 -0.8654 -0.6347
  410MOL0     C54026   2.543   8.769   5.341 -0.0109 -0.2440 -0.1988
  410MOL0     C54027   2.461   8.830   5.467 -0.0219  0.5155 -0.1813
  410MOL0     C54028   2.340   8.748   5.509  0.7058  0.1753  0.7190
  410MOL0     C54029   2.230   8.836   5.573  0.2273 -0.2450 -0.7460
  410MOL0     C54030   2.224   8.818   5.727  0.7830  1.1350 -0.9488
  410MOL0     C54031   2.094   8.878   5.765 -0.2331  0.7480 -0.1786
  410MOL0    Cl54032   2.049   8.813   5.934  0.3271  0.4839  0.1243
  410MOL0     C54033   3.066   8.922   5.530  0.7296  0.3183 -0.6052
  410MOL0     C54034   3.157   8.916   5.635 -0.3459  0.0010 -0.3784
  410MOL0     O54035   3.427   8.928   5.748 -1.0026  0.7445  0.2785
  410MOL0     C54036   3.449   8.655   5.971 -1.6139 -0.6909  0.1142
  410MOL0     C54037   3.537   8.591   6.059  1.1485 -0.0922 -0.1610
  410MOL0     N54038   3.762   8.953   6.631  0.4166  0.1359  0.3609
  410MOL0     N54039   3.652   9.017   6.646 -0.0176  0.4592 -0.6077
  410MOL0     C54040   2.560   9.646   6.776 -0.4391  0.0107 -0.8235
  410MOL0     C54041   2.515   9.766   6.739 -1.0581  0.2696 -1.2641
  410MOL0     C54042   2.432  10.089   6.430  0.3940 -0.2762 -0.1273
  410MOL0     C54043   2.383  10.102   6.302 -0.1496  1.1561 -0.0687
  410MOL0     C54044   2.344  10.222   6.241  0.0113  0.4841 -0.7382
  410MOL0     C54045   2.359  10.349   6.308 -0.1834 -0.3605  0.0429
  410MOL0     O54046   2.339  10.475   6.250 -0.2460 -0.2289  0.0608
  410MOL0     C54047   2.337  10.476   6.106 -0.4481  0.0123 -0.4543
  410MOL0     C54048   2.362  10.612   6.041  0.1115 -0.0195  0.2837
  410MOL0     C54049   2.248  10.705   6.059 -0.8289 -0.0032 -0.2381
  410MOL0     C54050   2.142  10.682   5.949 -0.0105 -0.1264 -0.2835
  410MOL0     C54051   2.040  10.787   5.968 -0.5453  0.1658  0.2674
  410MOL0     C54052   1.951  10.880   5.967 -0.0507  0.0470  0.1623
  410MOL0     C54053   2.405  10.341   6.439  0.7686 -0.2323  0.1217
  410MOL0     C54054   2.442  10.212   6.499 -0.4520  0.5395 -0.2383
  410MOL0     H54055   2.756   9.864   6.526 -0.2419  0.3390  0.2831
  410MOL0     H54056   2.872   9.677   6.641  0.8151  0.5456  2.9633
  410MOL0     H54057   2.917   9.482   6.705 -1.6670  0.7374 -0.6205
  410MOL0     H54058   2.798   9.390   6.627 -0.0782 -1.9597  1.3690
  410MOL0     H54059   2.779   9.243   6.820 -1.0038  1.1331 -3.3560
  410MOL0     H54060   2.906   9.341   6.908  1.7709  2.3420 -1.8278
  410MOL0     H54061   3.081   9.265   6.765 -1.0026  0.4787  5.1584
  410MOL0     H54062   2.967   9.235   6.639  0.4582  0.4462 -1.1016
  410MOL0     H54063   2.967   9.080   6.894 -0.0366  0.2164 -0.0019
  410MOL0     H54064   2.892   9.023   6.743 -0.5427  0.7642  2.1087
  410MOL0     H54065   3.110   8.902   6.812 -1.0695  0.8481  2.3105
  410MOL0     H54066   3.184   9.058   6.843  1.4772 -1.3320  0.2545
  410MOL0     H54067   3.161   9.103   6.589 -0.6714 -0.1473 -0.3439
  410MOL0     H54068   3.072   8.947   6.576  0.1183 -1.4699 -1.1867
  410MOL0     H54069   3.298   8.821   6.605  2.9127 -0.8395 -2.5743
  410MOL0     H54070   3.318   8.946   6.486  0.2505  1.5421  0.5315
  410MOL0     H54071   3.409   8.953   6.781  1.4590 -3.5363 -1.7518
  410MOL0     H54072   3.422   9.097   6.666  2.4931  0.2920 -2.5364
  410MOL0     H54073   3.551   8.718   6.580 -1.7326  0.5605  0.8034
  410MOL0     H54074   3.815   8.632   6.649  3.2304  0.1593  3.1751
  410MOL0     H54075   3.923   8.761   6.653  0.1657  0.6263 -0.8024
  410MOL0     H54076   3.996   8.661   6.437  0.1758  1.2023 -3.1189
  410MOL0     H54077   3.896   8.794   6.387  1.7599  0.0207 -0.5985
  410MOL0     H54078   3.831   8.484   6.391  2.0502  0.1436  1.8043
  410MOL0     H54079   3.710   8.614   6.422  0.6819 -1.5034  1.2063
  410MOL0     H54080   3.933   8.597   6.220  0.1674 -2.2716  1.2652
  410MOL0     H54081   3.807   8.725   6.226  0.1808 -0.1065 -0.9675
  410MOL0     H54082   3.826   8.718   5.982 -0.2036 -0.6638  2.8831
  410MOL0     H54083   3.669   8.868   5.834  0.1061 -0.5546 -0.4387
  410MOL0     H54084   3.131   8.589   5.731  2.0101  0.6986  1.3249
  410MOL0     H54085   2.969   8.597   5.545 -0.7976 -0.1179  3.0844
  410MOL0     H54086   2.751   8.783   5.529 -2.4927  0.1423  0.1358
  410MOL0     H54087   2.775   8.652   5.416 -0.3231  0.4747  1.0439
  410MOL0     H54088   2.708   8.830   5.221  0.1215 -0.3210 -0.6589
  410MOL0     H54089   2.684   8.939   5.357  0.2142 -1.4108  1.4876
  410MOL0     H54090   2.563   8.662   5.349  0.3760 -0.1545  0.1011
  410MOL0     H54091   2.481   8.786   5.252  0.0093 -0.1125 -0.1878
  410MOL0     H54092   2.525   8.835   5.555  1.7024 -3.3030 -0.9891
  410MOL0     H54093   2.430   8.930   5.436 -0.4915  0.4619  0.0952
  410MOL0     H54094   2.382   8.668   5.571  2.1465  0.5965  0.3257
  410MOL0     H54095   2.300   8.713   5.413  1.1232 -1.4481  1.1065
  410MOL0     H54096   2.136   8.825   5.517  0.3455  1.3769 -1.3310
  410MOL0     H54097   2.233   8.945   5.568 -2.2423 -0.1507 -2.0740
  410MOL0     H54098   2.221   8.711   5.749 -1.1321  1.3940  0.3183
  410MOL0     H54099   2.311   8.869   5.770  0.2774  2.7414 -1.7420
  410MOL0     H54100   2.006   8.850   5.707 -0.0190 -0.5528  0.0981
  410MOL0     H54101   2.114   8.986   5.759  2.7419  0.4024  1.4730
  410MOL0     H54102   3.045   9.009   5.469 -0.9321  1.9648  2.0971
  410MOL0     H54103   3.209   9.005   5.669  1.9757 -1.7845  1.0109
  410MOL0     H54104   3.347   8.624   5.955 -2.3026  1.6875 -0.5467
  410MOL0     H54105   3.509   8.495   6.101 -1.4093  0.8117  0.3286
  410MOL0     H54106   2.509   9.582   6.848  0.5991 -0.5411 -0.5657
  410MOL0     H54107   2.412   9.780   6.772 -0.9986 -1.1896 -0.3600
  410MOL0     H54108   2.382  10.014   6.237 -0.5692  1.7513 -0.8918
  410MOL0     H54109   2.321  10.202   6.137  0.8237 -3.0085 -0.3899
  410MOL0     H54110   2.250  10.423   6.066 -0.3283 -1.4962  1.1512
  410MOL0     H54111   2.426  10.423   6.073 -0.8030 -2.0890  1.6932
  410MOL0     H54112   2.455  10.645   6.087 -0.7166 -1.1419  2.9197
  410MOL0     H54113   2.373  10.590   5.934  1.4626 -3.7428  1.0491
  410MOL0     H54114   2.282  10.809   6.062 -3.0734  0.7900  2.2605
  410MOL0     H54115   2.205  10.684   6.158 -0.3096  1.8768  0.4424
  410MOL0     H54116   2.199  10.699   5.857  0.4684 -0.6512 -0.0938
  410MOL0     H54117   2.091  10.588   5.926 -3.1178  1.9152 -2.4590
  410MOL0     H54118   1.859  10.935   5.973 -0.3198 -0.4387  0.5983
  410MOL0     H54119   2.414  10.427   6.504  5.3447 -1.8638  2.0500
  410MOL0     H54120   2.469  10.221   6.604  0.4494  1.5386 -0.5383
  411MOL0     O54121   3.888  10.528   7.897 -0.1452  0.1078 -0.4619
  411MOL0     C54122   3.855  10.590   7.791 -0.5694 -0.1843 -0.3225
  411MOL0     O54123   3.912  10.577   7.669  0.8038  0.1072  0.1173
  411MOL0     C54124   4.015  10.492   7.662 -0.6370 -0.3337 -1.0351
  411MOL0     C54125   4.007  10.352   7.672  1.1350  0.3433 -0.2966
  411MOL0     C54126   4.124  10.274   7.671  0.2664 -0.3369 -0.1906
  411MOL0     C54127   4.250  10.333   7.650  0.1246 -0.4718  0.0734
  411MOL0     O54128   4.359  10.251   7.667 -0.2512 -0.5333 -0.0770
  411MOL0     C54129   4.491  10.284   7.622  0.3426  0.3209  0.6752
  411MOL0     C54130   4.571  10.169   7.658  0.1646  0.6020 -0.1054
  411MOL0     C54131   4.717  10.207   7.628 -0.2081  0.5689  0.4870
  411MOL0     C54132   4.810  10.095   7.679 -0.7816 -0.4343 -1.1700
  411MOL0     C54133   4.953  10.111   7.614 -0.3960 -0.4983 -0.7662
  411MOL0     C54134   5.071  10.068   7.708  0.5116  0.1507 -0.6113
  411MOL0     C54135   5.119  10.187   7.804  0.1782 -0.6073  0.1210
  411MOL0     C54136   5.176  10.125   7.938  0.5974 -0.4777  0.1060
  411MOL0     N54137   5.222  10.210   8.047  0.1626 -0.4493 -0.0152
  411MOL0     C54138   5.302  10.325   8.039 -0.3915  0.4851 -1.0877
  411MOL0     C54139   5.333  10.350   8.173 -0.5857 -0.6616  0.0130
  411MOL0     C54140   5.416  10.471   8.224  0.5368 -0.6816  0.0064
  411MOL0     C54141   5.527  10.521   8.123 -0.6515 -0.0088 -0.2443
  411MOL0     C54142   5.577  10.657   8.149  0.1568  0.0154  0.0582
  411MOL0     C54143   5.686  10.695   8.046  0.1098  0.4578 -1.0647
  411MOL0     O54144   5.710  10.825   8.072  0.1748  0.5905 -0.1904
  411MOL0     C54145   5.826  10.878   8.023 -0.1475  0.0717 -0.1431
  411MOL0     C54146   5.913  10.811   7.938  0.6842 -0.3302  0.1284
  411MOL0     C54147   6.027  10.878   7.890  0.2994 -0.2525 -0.8980
  411MOL0     C54148   6.059  11.011   7.927  0.3304 -0.3392 -0.9483
  411MOL0     C54149   6.182  11.088   7.886 -0.4521  0.7231  0.6007
  411MOL0     O54150   6.291  11.007   7.875  0.1355  0.3836  0.2278
  411MOL0     C54151   6.403  11.075   7.825  0.0088 -1.1761  0.1994
  411MOL0     C54152   6.432  11.075   7.695  0.5508 -0.1186  0.7122
  411MOL0     C54153   6.539  11.148   7.645  0.4332  0.8042  0.5190
  411MOL0     C54154   6.616  11.220   7.733  0.1722 -0.0195 -0.0528
  411MOL0     O54155   6.731  11.277   7.674 -0.1183  0.8805 -0.7640
  411MOL0     C54156   6.837  11.333   7.761  0.4087 -0.3318 -0.3664
  411MOL0     C54157   6.954  11.362   7.672 -0.6753  1.1117  0.3664
  411MOL0     C54158   7.081  11.403   7.745 -0.5296 -0.2997 -0.4108
  411MOL0     C54159   7.200  11.395   7.655 -0.0855 -1.0842  0.3400
  411MOL0     C54160   7.197  11.487   7.524 -0.3765 -0.0410 -0.6877
  411MOL0     C54161   7.217  11.634   7.552 -0.0274  0.0476 -0.0643
  411MOL0     C54162   7.261  11.719   7.428 -0.4833  1.3420  0.1916
  411MOL0     C54163   7.287  11.868   7.455 -0.2810 -0.4648  0.2609
  411MOL0    Cl54164   7.393  11.926   7.324  0.2078  0.2799 -0.0427
  411MOL0     C54165   6.589  11.223   7.868 -0.8402  0.4071  0.5320
  411MOL0     C54166   6.472  11.152   7.919 -0.4093 -0.0525  0.2168
  411MOL0     O54167   6.174  11.207   7.860  0.4138  0.0301  0.8817
  411MOL0     C54168   5.966  11.075   8.018  0.6665 -0.1430  0.1491
  411MOL0     C54169   5.846  11.009   8.053 -0.7052 -0.1643  0.5507
  411MOL0     N54170   5.288  10.248   8.249 -0.6875 -0.5543  0.6363
  411MOL0     N54171   5.228  10.166   8.170  0.7857  0.3031  1.0241
  411MOL0     C54172   4.256  10.479   7.632 -0.4770  0.3642  0.8685
  411MOL0     C54173   4.140  10.550   7.630  0.9210 -1.1643 -0.0123
  411MOL0     C54174   3.723  10.654   7.805 -1.0765  0.3386  0.1660
  411MOL0     C54175   3.671  10.699   7.927  0.3504 -0.6599 -0.9660
  411MOL0     C54176   3.557  10.776   7.930  0.0795 -0.1618 -0.6795
  411MOL0     C54177   3.494  10.808   7.814  1.2862  0.1166  0.1792
  411MOL0     O54178   3.370  10.874   7.799  0.7643  0.2000 -1.0041
  411MOL0     C54179   3.276  10.847   7.912 -1.2861 -0.5330  0.1626
  411MOL0     C54180   3.204  10.982   7.952  0.7875 -0.1769  0.3199
  411MOL0     C54181   3.073  11.002   7.868 -0.3029  0.1490 -0.8172
  411MOL0     C54182   3.028  11.149   7.867  0.3259  0.1068  0.1452
  411MOL0     C54183   2.941  11.167   7.760  0.0588 -1.1742 -0.0069
  411MOL0     C54184   2.878  11.181   7.661 -0.6587  0.1174 -0.0800
  411MOL0     C54185   3.544  10.774   7.687  0.3480 -0.2421 -0.5250
  411MOL0     C54186   3.658  10.701   7.688  0.4212  0.1426 -1.0811
  411MOL0     H54187   3.907  10.321   7.703  1.2869  2.1713  2.3994
  411MOL0     H54188   4.125  10.169   7.698 -0.2073  0.3518  2.9019
  411MOL0     H54189   4.523  10.381   7.663  0.2734  0.6760 -0.0873
  411MOL0     H54190   4.489  10.276   7.513  2.4596 -0.8325  0.6701
  411MOL0     H54191   4.542  10.084   7.594 -0.9932 -1.5109  2.9977
  411MOL0     H54192   4.563  10.146   7.764  0.8164  0.6321 -0.0477
  411MOL0     H54193   4.748  10.292   7.689  2.1897  0.2536 -0.1664
  411MOL0     H54194   4.724  10.227   7.521 -2.9730 -0.3447  0.0547
  411MOL0     H54195   4.809  10.088   7.788 -0.9406 -5.0220 -1.2852
  411MOL0     H54196   4.763  10.000   7.652 -3.8611  0.6078  0.0998
  411MOL0     H54197   4.983  10.199   7.558  1.0352  0.8244  1.9256
  411MOL0     H54198   4.951  10.034   7.536 -0.1345 -1.0985 -0.1973
  411MOL0     H54199   5.162  10.028   7.662  1.3704  0.1686  0.9955
  411MOL0     H54200   5.042   9.986   7.775 -3.0313 -0.3854 -2.5591
  411MOL0     H54201   5.192  10.255   7.759 -2.8939  4.4510  1.9305
  411MOL0     H54202   5.029  10.244   7.830  1.2874  0.1383  2.7206
  411MOL0     H54203   5.262  10.064   7.907  0.1935 -1.6091  1.1078
  411MOL0     H54204   5.093  10.060   7.967  0.2013 -1.4678 -2.8390
  411MOL0     H54205   5.319  10.392   7.955  0.5556 -0.0373 -1.3173
  411MOL0     H54206   5.451  10.444   8.324 -1.4767 -1.0903  0.6571
  411MOL0     H54207   5.347  10.555   8.233  1.4177  0.1805 -1.1010
  411MOL0     H54208   5.482  10.513   8.024  0.3621 -5.2426 -0.5444
  411MOL0     H54209   5.614  10.455   8.122 -1.0791 -0.6731 -3.6251
  411MOL0     H54210   5.492  10.724   8.133  0.1790 -0.0469 -0.3182
  411MOL0     H54211   5.622  10.674   8.247 -0.4402  3.3379 -0.1435
  411MOL0     H54212   5.653  10.667   7.946  0.2383 -3.3610 -0.1881
  411MOL0     H54213   5.777  10.639   8.072 -0.3566  1.0827  2.5024
  411MOL0     H54214   5.887  10.710   7.907 -2.3522  0.6035 -0.6559
  411MOL0     H54215   6.088  10.818   7.823 -1.0528  1.0678 -3.4573
  411MOL0     H54216   6.368  11.022   7.625  0.8949  1.5823 -0.9638
  411MOL0     H54217   6.554  11.156   7.538  0.2748  1.3734  0.5371
  411MOL0     H54218   6.867  11.267   7.843  2.3672 -3.0463 -3.0520
  411MOL0     H54219   6.801  11.423   7.812 -0.2121  0.5223 -2.2243
  411MOL0     H54220   6.937  11.444   7.603 -0.2900  2.3848  1.7260
  411MOL0     H54221   6.980  11.268   7.622  2.6580  1.9312  0.2720
  411MOL0     H54222   7.090  11.340   7.834  1.0879  0.4633  0.0155
  411MOL0     H54223   7.066  11.504   7.785  1.5515 -0.2205  0.3134
  411MOL0     H54224   7.292  11.424   7.707  2.4706 -2.7456 -2.8735
  411MOL0     H54225   7.216  11.292   7.622  2.7710 -0.8389  0.6932
  411MOL0     H54226   7.115  11.467   7.454  0.8832  0.8468 -2.4625
  411MOL0     H54227   7.285  11.455   7.469  0.2860  3.4009 -1.8621
  411MOL0     H54228   7.299  11.633   7.624  2.0347 -1.8716 -2.2110
  411MOL0     H54229   7.135  11.680   7.606 -2.2529  1.3968 -4.1191
  411MOL0     H54230   7.349  11.672   7.384  1.8013  2.5951  3.0754
  411MOL0     H54231   7.190  11.701   7.347 -0.0218 -1.4391  0.3018
  411MOL0     H54232   7.333  11.888   7.552  1.3961 -2.0550 -0.1273
  411MOL0     H54233   7.189  11.916   7.451 -0.4785 -0.8075  0.8749
  411MOL0     H54234   6.642  11.281   7.944  0.1954 -1.0624  0.9943
  411MOL0     H54235   6.445  11.160   8.023  0.8883 -0.4401  0.6031
  411MOL0     H54236   5.973  11.183   8.033 -1.5705  0.0621  0.0157
  411MOL0     H54237   5.771  11.065   8.109 -1.2852  1.1479 -1.4399
  411MOL0     H54238   4.349  10.532   7.615  0.6924 -0.3879  4.1100
  411MOL0     H54239   4.138  10.658   7.620  1.4253 -1.2776 -1.6678
  411MOL0     H54240   3.728  10.679   8.017 -0.8401 -0.3397 -0.1254
  411MOL0     H54241   3.527  10.816   8.027  3.5488 -1.3947  1.0791
  411MOL0     H54242   3.335  10.810   7.996  1.3547  0.4110 -1.1671
  411MOL0     H54243   3.213  10.763   7.880  2.3277 -3.2279 -0.5385
  411MOL0     H54244   3.173  10.963   8.056 -0.8371  1.5445  0.2101
  411MOL0     H54245   3.270  11.069   7.950  1.7411 -0.8802  0.4950
  411MOL0     H54246   2.991  10.939   7.906 -1.4976  2.5659  0.8502
  411MOL0     H54247   3.110  10.984   7.766  0.2057  0.7565 -0.7447
  411MOL0     H54248   2.989  11.183   7.964 -2.2966  0.2678 -0.8898
  411MOL0     H54249   3.113  11.215   7.847  0.6101 -0.0194  0.8993
  411MOL0     H54250   2.804  11.199   7.586 -1.2329 -1.7288  0.0034
  411MOL0     H54251   3.502  10.793   7.589 -0.8848  1.1806  0.2372
  411MOL0     H54252   3.696  10.676   7.589  2.2496 -0.6983 -0.2386
  412MOL0     O54253   4.887   3.635  10.114  0.6975 -0.8780 -0.0599
  412MOL0     C54254   4.971   3.679  10.045  0.1999  0.3752  0.6947
  412MOL0     O54255   5.099   3.621  10.026 -0.6383  0.6224  0.7141
  412MOL0     C54256   5.120   3.496  10.078 -1.1592  1.0032 -0.0173
  412MOL0     C54257   5.238   3.476  10.144  0.7071  0.3818 -0.0209
  412MOL0     C54258   5.267   3.362  10.215  0.9413  0.2712  0.2823
  412MOL0     C54259   5.169   3.252  10.210  0.2784 -0.6229  0.8573
  412MOL0     O54260   5.204   3.145  10.286 -0.9941  0.6668 -0.0150
  412MOL0     C54261   5.127   3.026  10.278  0.3241  0.0220 -0.5307
  412MOL0     C54262   5.208   2.906  10.232  0.3715 -0.2346 -0.2738
  412MOL0     C54263   5.129   2.780  10.246 -1.2725 -0.3397 -0.1168
  412MOL0     C54264   5.212   2.649  10.236 -0.0486  0.6756  0.5204
  412MOL0     C54265   5.309   2.617  10.345  0.2732  0.5673 -0.6950
  412MOL0     C54266   5.463   2.637  10.312  0.0776 -0.2643 -0.0940
  412MOL0     C54267   5.514   2.561  10.186  0.6847  0.1319 -0.1497
  412MOL0     C54268   5.620   2.632  10.114 -1.0815 -0.4875  0.3776
  412MOL0     N54269   5.570   2.760  10.064 -0.0439 -0.0209  0.1198
  412MOL0     C54270   5.630   2.878  10.091 -0.4823  0.1071  0.6479
  412MOL0     C54271   5.582   2.955   9.992 -0.0911 -0.2932  0.0557
  412MOL0     C54272   5.625   3.102   9.965 -1.5868  0.6437 -1.3284
  412MOL0     C54273   5.737   3.132   9.862  0.6989  0.8682  0.9833
  412MOL0     C54274   5.862   3.044   9.875  0.7977 -0.1447 -0.4289
  412MOL0     C54275   5.982   3.105   9.952 -0.3506 -0.0162  0.5511
  412MOL0     O54276   5.990   3.247   9.898 -0.2557  0.3805  0.0057
  412MOL0     C54277   6.059   3.338   9.980  0.9598 -0.0544  0.5834
  412MOL0     C54278   6.151   3.295  10.078  0.3422  0.0539 -0.0550
  412MOL0     C54279   6.209   3.393  10.159 -0.2489  1.5118  0.4066
  412MOL0     C54280   6.178   3.528  10.149 -1.7454  0.1024  0.0610
  412MOL0     C54281   6.251   3.631  10.229  1.1015 -0.1424 -0.3440
  412MOL0     O54282   6.324   3.583  10.332  0.1346 -0.1674 -0.1917
  412MOL0     C54283   6.381   3.674  10.416  0.0275 -0.9005  0.3865
  412MOL0     C54284   6.521   3.697  10.414  0.3872 -0.0437  0.6737
  412MOL0     C54285   6.583   3.784  10.504  0.0016 -1.2316 -0.2419
  412MOL0     C54286   6.507   3.829  10.614  0.2425  0.4440  0.4763
  412MOL0     O54287   6.567   3.904  10.707 -0.2908  0.6189 -1.2027
  412MOL0     C54288   6.501   3.917  10.833  0.2977  0.3696  0.1130
  412MOL0     C54289   6.621   3.940  10.930 -1.3581  0.2552  0.2517
  412MOL0     C54290   6.692   3.810  10.967  0.1990  0.9948 -0.0889
  412MOL0     C54291   6.794   3.844  11.069  1.0792  0.1984  0.4225
  412MOL0     C54292   6.830   3.732  11.150 -0.7552  0.7056  0.3967
  412MOL0     C54293   6.956   3.771  11.222 -0.0889 -0.5854  0.8695
  412MOL0     C54294   6.950   3.884  11.323  0.3288 -0.1322 -0.5608
  412MOL0     C54295   7.088   3.949  11.333 -0.8033  0.0253  0.0089
  412MOL0    Cl54296   7.097   4.048  11.487 -0.0336  0.1515  0.0112
  412MOL0     C54297   6.371   3.801  10.615  0.7207  0.0540 -0.1562
  412MOL0     C54298   6.305   3.726  10.516  0.4895 -0.9334  0.4772
  412MOL0     O54299   6.234   3.755  10.200 -0.8656  0.7546 -0.2606
  412MOL0     C54300   6.106   3.563  10.034  0.1664  0.8143 -0.1723
  412MOL0     C54301   6.035   3.479   9.954  0.4418  1.5063  0.4764
  412MOL0     N54302   5.472   2.896   9.932 -0.7309  0.4764  0.0096
  412MOL0     N54303   5.470   2.770   9.966 -0.5324  0.6976 -0.4437
  412MOL0     C54304   5.063   3.264  10.123 -0.0544  0.0020  0.4148
  412MOL0     C54305   5.035   3.389  10.060 -0.0502 -0.6955 -0.1092
  412MOL0     C54306   4.951   3.809   9.987 -0.1259  0.1942 -0.4502
  412MOL0     C54307   4.822   3.867   9.987 -0.5944 -0.3683  0.3215
  412MOL0     C54308   4.799   3.992   9.931  0.1090 -0.9946  0.2410
  412MOL0     C54309   4.908   4.063   9.870 -0.8194  0.0441 -0.3762
  412MOL0     O54310   4.878   4.189   9.830 -0.1326 -0.1845 -0.2631
  412MOL0     C54311   4.969   4.295   9.844 -0.6420  0.3567 -0.1012
  412MOL0     C54312   5.002   4.326   9.694  1.1083  0.5033 -0.5264
  412MOL0     C54313   5.086   4.455   9.676 -0.1334 -0.0693 -0.1818
  412MOL0     C54314   5.134   4.476   9.525 -0.5301 -0.4276 -1.4480
  412MOL0     C54315   5.031   4.533   9.437  0.3786  0.4922  0.3875
  412MOL0     C54316   4.946   4.569   9.355  0.1492 -0.8955 -1.0390
  412MOL0     C54317   5.036   4.003   9.877 -0.0980  0.1414  0.1818
  412MOL0     C54318   5.056   3.875   9.922 -0.6650 -0.8443 -0.3754
  412MOL0     H54319   5.302   3.562  10.161  1.8821 -0.8400  2.2606
  412MOL0     H54320   5.347   3.348  10.287  1.1796 -2.0310 -0.3407
  412MOL0     H54321   5.029   3.030  10.228  0.0161  0.7061  0.1047
  412MOL0     H54322   5.093   3.006  10.380  2.4535  1.2999  0.4990
  412MOL0     H54323   5.299   2.910  10.293  0.3689  2.5686 -0.3528
  412MOL0     H54324   5.227   2.913  10.125 -1.9425 -3.5083 -1.0801
  412MOL0     H54325   5.050   2.786  10.171  0.5224  2.9869 -1.9469
  412MOL0     H54326   5.079   2.786  10.343  1.3140 -0.0553  1.3000
  412MOL0     H54327   5.133   2.573  10.238  1.8356 -1.6118 -2.7337
  412MOL0     H54328   5.255   2.636  10.137  1.7483 -1.7890  1.5142
  412MOL0     H54329   5.293   2.519  10.390  2.8798 -0.1592 -1.1635
  412MOL0     H54330   5.295   2.694  10.422 -0.2438 -0.2090 -0.0108
  412MOL0     H54331   5.510   2.577  10.391 -3.2849 -3.8409 -0.4975
  412MOL0     H54332   5.486   2.743  10.310  1.6641 -0.5912 -0.0329
  412MOL0     H54333   5.543   2.460  10.216 -4.0426 -1.4198  0.0741
  412MOL0     H54334   5.432   2.536  10.117  0.6604  0.9027 -0.4167
  412MOL0     H54335   5.658   2.564  10.037 -0.8739 -3.2565  2.7568
  412MOL0     H54336   5.703   2.655  10.181  3.0753 -1.0303 -4.0485
  412MOL0     H54337   5.702   2.893  10.171  0.6810 -1.2965 -0.0981
  412MOL0     H54338   5.654   3.134  10.065  1.7316 -1.6694 -1.4065
  412MOL0     H54339   5.542   3.168   9.936  1.5231  4.2447 -2.8790
  412MOL0     H54340   5.750   3.241   9.868 -2.6813  1.4032  0.5040
  412MOL0     H54341   5.691   3.118   9.764 -3.8674 -2.1079  3.1890
  412MOL0     H54342   5.830   2.948   9.916 -0.4387  0.0367 -0.9302
  412MOL0     H54343   5.893   3.019   9.773 -2.5032  0.0172 -1.5942
  412MOL0     H54344   6.066   3.039   9.928 -0.1962  0.4765 -0.2921
  412MOL0     H54345   5.956   3.101  10.058 -1.5609 -1.8287  0.2313
  412MOL0     H54346   6.173   3.193  10.106 -1.5036 -0.4705 -0.3849
  412MOL0     H54347   6.273   3.352  10.237 -1.5234 -3.9812 -0.9981
  412MOL0     H54348   6.579   3.658  10.332  0.4418 -2.3788  1.7654
  412MOL0     H54349   6.689   3.807  10.505  0.2930 -1.8503  4.1377
  412MOL0     H54350   6.446   3.824  10.851  1.2784 -0.8228 -2.5339
  412MOL0     H54351   6.426   3.996  10.832 -0.6626 -0.4047 -3.5353
  412MOL0     H54352   6.583   3.975  11.026  2.3690  1.1187  1.5745
  412MOL0     H54353   6.691   4.020  10.902 -2.4013  1.3748  0.7937
  412MOL0     H54354   6.734   3.746  10.890  1.4743  0.3611  1.0911
  412MOL0     H54355   6.610   3.759  11.019  1.6094 -1.6916 -0.3626
  412MOL0     H54356   6.873   3.893  11.012  1.0441  2.8818  2.4361
  412MOL0     H54357   6.741   3.917  11.132 -0.4322 -0.7435  0.3055
  412MOL0     H54358   6.856   3.652  11.080 -0.7226  0.7227  0.3894
  412MOL0     H54359   6.755   3.696  11.221 -1.2120  0.4621 -0.2097
  412MOL0     H54360   7.039   3.785  11.152 -3.7691 -0.5808 -4.0544
  412MOL0     H54361   6.995   3.686  11.278 -2.7143 -0.0439  3.7903
  412MOL0     H54362   6.882   3.963  11.291 -0.1519 -0.9405 -1.5686
  412MOL0     H54363   6.930   3.845  11.423  1.9983  2.0315  0.7082
  412MOL0     H54364   7.099   4.018  11.249 -1.9005  1.6597  1.1609
  412MOL0     H54365   7.160   3.867  11.336 -1.4021 -0.4834  1.8686
  412MOL0     H54366   6.308   3.834  10.697  1.2686 -1.0875  0.7606
  412MOL0     H54367   6.197   3.719  10.513  0.4890 -1.0426  0.6686
  412MOL0     H54368   6.091   3.669  10.020  2.1700  1.0374 -0.9830
  412MOL0     H54369   5.967   3.513   9.876 -0.7226  1.5752  1.4965
  412MOL0     H54370   4.998   3.178  10.108  0.5675 -0.6937  1.5780
  412MOL0     H54371   4.946   3.411  10.002  0.3159 -2.4587 -1.4292
  412MOL0     H54372   4.742   3.813  10.036  1.6812 -3.6274  0.7807
  412MOL0     H54373   4.698   4.031   9.928  0.3486 -0.4022 -0.5569
  412MOL0     H54374   5.064   4.275   9.893 -0.2015  1.0391 -0.6592
  412MOL0     H54375   4.909   4.365   9.903 -3.0508 -3.1156  1.9829
  412MOL0     H54376   5.050   4.238   9.651  3.0327  1.1751  0.1427
  412MOL0     H54377   4.906   4.348   9.648  1.9081  1.0822 -1.9563
  412MOL0     H54378   5.168   4.447   9.747 -1.0876 -3.1181  0.7220
  412MOL0     H54379   5.024   4.543   9.699 -1.1173 -1.0935  1.2645
  412MOL0     H54380   5.217   4.547   9.536 -1.1903  0.0521  1.0241
  412MOL0     H54381   5.177   4.379   9.496  2.5741 -0.2063  1.7044
  412MOL0     H54382   4.864   4.604   9.295 -0.3014  1.7775  0.9487
  412MOL0     H54383   5.116   4.069   9.844 -1.3551  1.9964  0.6801
  412MOL0     H54384   5.152   3.829   9.900  0.4865  0.9592  0.5842
  413MOL0     O54385  10.608   1.626   5.794 -0.7664 -0.2417  0.3610
  413MOL0     C54386  10.488   1.644   5.817 -0.1938 -0.7367  1.1883
  413MOL0     O54387  10.387   1.633   5.726  0.3148 -0.0876  0.2092
  413MOL0     C54388  10.391   1.591   5.603 -0.4764 -0.4204 -0.1220
  413MOL0     C54389  10.260   1.556   5.566 -0.2180  1.7787  0.2544
  413MOL0     C54390  10.237   1.504   5.444  0.7454  0.5780 -0.1522
  413MOL0     C54391  10.335   1.478   5.352  1.6157 -0.4462 -0.8449
  413MOL0     O54392  10.297   1.411   5.239 -0.0468  0.7067  0.2218
  413MOL0     C54393  10.389   1.419   5.129  0.7952  1.3197  0.2518
  413MOL0     C54394  10.327   1.378   4.995 -0.9594  0.1822  0.9395
  413MOL0     C54395  10.329   1.491   4.888  0.4469 -0.2544  0.1966
  413MOL0     C54396  10.249   1.433   4.761 -0.5470 -0.3348 -0.1344
  413MOL0     C54397  10.259   1.527   4.640  0.1371 -0.1594  0.7936
  413MOL0     C54398  10.402   1.534   4.568 -0.6004 -0.9436  0.4100
  413MOL0     C54399  10.401   1.615   4.440  0.1507 -0.8391  0.4431
  413MOL0     C54400  10.312   1.545   4.339  0.0455 -0.4526 -0.4375
  413MOL0     N54401  10.312   1.607   4.208  0.3634 -0.5927 -1.0160
  413MOL0     C54402  10.233   1.708   4.191  0.5556 -0.2964  0.2117
  413MOL0     C54403  10.230   1.732   4.055 -1.2098 -0.2780 -0.4416
  413MOL0     C54404  10.147   1.829   3.979 -0.1669  0.2652  0.5508
  413MOL0     C54405  10.229   1.901   3.863  0.0332  0.3450 -0.3283
  413MOL0     C54406  10.152   2.020   3.812 -0.0328  0.4409 -0.1654
  413MOL0     C54407  10.213   2.107   3.707  1.0814  0.7605  0.1922
  413MOL0     O54408  10.213   2.041   3.583 -0.0271 -0.1253  0.2270
  413MOL0     C54409  10.285   2.084   3.475 -0.3888 -0.2462 -0.0196
  413MOL0     C54410  10.284   2.001   3.363 -0.1403  0.5087 -0.7009
  413MOL0     C54411  10.369   2.031   3.253 -0.5813  0.3525  0.0456
  413MOL0     C54412  10.451   2.145   3.255  0.7150 -0.1088  0.1556
  413MOL0     C54413  10.520   2.197   3.134 -0.1189  0.9050  0.0339
  413MOL0     O54414  10.635   2.278   3.159  0.7022 -0.0274  0.5379
  413MOL0     C54415  10.684   2.354   3.055  0.1994  0.3343  0.5910
  413MOL0     C54416  10.704   2.488   3.054  0.7460 -0.4159 -0.1197
  413MOL0     C54417  10.760   2.556   2.946 -0.0347  0.0507  0.5757
  413MOL0     C54418  10.806   2.494   2.836 -0.7126  0.0433 -0.4925
  413MOL0     O54419  10.846   2.589   2.749  0.5904 -0.3551  0.6936
  413MOL0     C54420  10.770   2.584   2.625 -0.0550 -0.1020  0.2069
  413MOL0     C54421  10.780   2.720   2.560 -1.0957  0.1719 -0.3198
  413MOL0     C54422  10.743   2.846   2.647  0.3622  0.9418 -0.0797
  413MOL0     C54423  10.599   2.838   2.704  0.4588 -0.3604 -0.4398
  413MOL0     C54424  10.570   2.941   2.820 -0.4251 -0.1520 -0.0459
  413MOL0     C54425  10.619   3.083   2.784  1.1172 -0.2195 -0.5867
  413MOL0     C54426  10.565   3.191   2.884 -0.2510  0.5918  0.3643
  413MOL0     C54427  10.481   3.294   2.802  1.1741 -0.0205  0.2929
  413MOL0    Cl54428  10.326   3.214   2.740 -0.1596 -0.1425 -0.1122
  413MOL0     C54429  10.788   2.359   2.827 -0.9592 -0.3335  0.8571
  413MOL0     C54430  10.734   2.289   2.940 -0.3501 -0.0543  0.3132
  413MOL0     O54431  10.487   2.150   3.023  0.6395  0.5630 -0.1174
  413MOL0     C54432  10.441   2.224   3.363 -0.1126  0.3928  0.2683
  413MOL0     C54433  10.369   2.191   3.479 -0.5781  0.1070 -0.9249
  413MOL0     N54434  10.314   1.644   3.998 -0.1566  0.1729  0.3003
  413MOL0     N54435  10.369   1.569   4.094 -0.1788  0.1021  0.5160
  413MOL0     C54436  10.465   1.518   5.381  0.6391 -0.0704 -0.4311
  413MOL0     C54437  10.493   1.575   5.511  0.3259  0.3594  0.0495
  413MOL0     C54438  10.443   1.660   5.963  0.2756  0.1433 -0.1673
  413MOL0     C54439  10.312   1.643   5.984  0.5505  0.1366 -1.3865
  413MOL0     C54440  10.272   1.654   6.121 -0.7529 -0.2009 -0.1067
  413MOL0     C54441  10.363   1.675   6.221 -0.5037 -0.3786 -0.4599
  413MOL0     O54442  10.309   1.687   6.344 -0.0918 -0.1802 -0.8076
  413MOL0     C54443  10.389   1.733   6.454  0.3738  0.4206 -0.2087
  413MOL0     C54444  10.313   1.713   6.585 -0.2411  0.6809  0.4194
  413MOL0     C54445  10.373   1.591   6.659 -0.1956 -0.7635  0.4438
  413MOL0     C54446  10.458   1.627   6.785  0.1134  0.5697  0.4478
  413MOL0     C54447  10.566   1.723   6.755  0.2009  0.3944 -0.9554
  413MOL0     C54448  10.649   1.799   6.714 -0.6232  0.1877 -0.3048
  413MOL0     C54449  10.494   1.703   6.188  0.6592 -1.1326  0.1633
  413MOL0     C54450  10.540   1.685   6.058 -0.4449 -0.6878 -0.3104
  413MOL0     H54451  10.180   1.559   5.640  0.9537  0.4614  1.6569
  413MOL0     H54452  10.136   1.480   5.413  0.6707  3.0046 -2.1064
  413MOL0     H54453  10.475   1.359   5.157 -2.7950 -4.2892  0.9658
  413MOL0     H54454  10.413   1.524   5.111  1.4368  1.0530 -0.5240
  413MOL0     H54455  10.227   1.338   5.010 -0.9360  0.4303  1.8104
  413MOL0     H54456  10.385   1.291   4.961  3.2894  2.2762  2.1008
  413MOL0     H54457  10.427   1.524   4.854  0.3182 -1.1551 -1.1177
  413MOL0     H54458  10.280   1.575   4.938  2.9552  0.4349  1.6605
  413MOL0     H54459  10.283   1.334   4.732  0.7711 -0.2885  1.1366
  413MOL0     H54460  10.141   1.432   4.781 -0.7186  3.7646  0.0645
  413MOL0     H54461  10.223   1.626   4.670 -2.3444 -0.7214 -0.0703
  413MOL0     H54462  10.180   1.487   4.575 -0.1255 -2.3155  2.3308
  413MOL0     H54463  10.433   1.430   4.554 -1.1279 -0.8554 -1.8367
  413MOL0     H54464  10.481   1.580   4.629  0.2079  1.5479 -2.2854
  413MOL0     H54465  10.374   1.719   4.457 -0.1881 -0.6612 -1.0750
  413MOL0     H54466  10.503   1.615   4.402  0.1112 -3.9606  0.0857
  413MOL0     H54467  10.211   1.548   4.381  0.0425 -1.1298 -0.3883
  413MOL0     H54468  10.336   1.438   4.334  1.0015 -0.3262  0.8967
  413MOL0     H54469  10.180   1.766   4.266 -1.1830 -1.8698  0.2575
  413MOL0     H54470  10.105   1.904   4.046 -1.0702  1.2728 -1.0913
  413MOL0     H54471  10.065   1.767   3.943  0.4674 -1.1952  1.5316
  413MOL0     H54472  10.257   1.831   3.784  0.7511  0.5896 -0.2953
  413MOL0     H54473  10.325   1.935   3.902 -0.1403 -1.1952  1.6790
  413MOL0     H54474  10.062   1.977   3.767  1.0674 -0.5679 -1.4915
  413MOL0     H54475  10.122   2.089   3.891  3.8531  0.0059  1.9531
  413MOL0     H54476  10.317   2.121   3.739  1.6344  0.2346 -1.2719
  413MOL0     H54477  10.156   2.200   3.706 -0.0901  0.0657  0.4280
  413MOL0     H54478  10.236   1.904   3.366  0.7757  0.0657  0.7652
  413MOL0     H54479  10.369   1.975   3.160  0.1420 -4.4699  2.6532
  413MOL0     H54480  10.693   2.541   3.149 -1.4297  0.8861 -1.0080
  413MOL0     H54481  10.782   2.661   2.964  0.5103  0.5682 -2.4390
  413MOL0     H54482  10.664   2.570   2.649  0.4958 -0.9285  2.4122
  413MOL0     H54483  10.798   2.500   2.561  2.2797  1.8939 -1.5461
  413MOL0     H54484  10.710   2.717   2.476 -1.7984 -2.1821  0.2595
  413MOL0     H54485  10.882   2.744   2.527 -0.5291  0.1852  1.3694
  413MOL0     H54486  10.743   2.925   2.571 -1.0914 -0.6304 -1.8591
  413MOL0     H54487  10.821   2.885   2.712 -0.9925  2.6494  0.5834
  413MOL0     H54488  10.525   2.851   2.625 -1.2782  0.4037  1.2234
  413MOL0     H54489  10.576   2.745   2.757 -0.0172  0.2349  0.4462
  413MOL0     H54490  10.626   2.909   2.908 -1.3243  3.2554  1.9934
  413MOL0     H54491  10.462   2.927   2.831 -0.1336 -3.6892 -0.5803
  413MOL0     H54492  10.584   3.110   2.684  0.9273  0.7491 -0.2762
  413MOL0     H54493  10.728   3.078   2.792  1.1064 -1.7076 -1.1013
  413MOL0     H54494  10.497   3.143   2.955  0.5268  0.0545  0.7538
  413MOL0     H54495  10.642   3.245   2.940 -2.1962  1.6739  2.1391
  413MOL0     H54496  10.546   3.340   2.727  2.1825  2.2241  2.3997
  413MOL0     H54497  10.447   3.383   2.856  0.1965 -0.8613  1.1068
  413MOL0     H54498  10.816   2.309   2.735 -0.2606  0.4557  0.6325
  413MOL0     H54499  10.729   2.181   2.934  0.2335 -0.2227  2.2534
  413MOL0     H54500  10.507   2.310   3.365 -1.5669  1.5185  0.4154
  413MOL0     H54501  10.389   2.258   3.561  1.3712 -1.5497  0.0477
  413MOL0     H54502  10.546   1.512   5.309  0.5564  1.5212 -0.7029
  413MOL0     H54503  10.595   1.608   5.524  0.0552  1.6215 -0.8113
  413MOL0     H54504  10.244   1.627   5.901 -0.2237 -1.8977 -0.4104
  413MOL0     H54505  10.171   1.651   6.162 -0.2432 -1.0045  1.1751
  413MOL0     H54506  10.423   1.837   6.451  2.1468  0.2089  4.2919
  413MOL0     H54507  10.485   1.680   6.449  0.4449  0.5340 -0.0546
  413MOL0     H54508  10.307   1.808   6.638 -0.5682  2.6587 -2.8662
  413MOL0     H54509  10.212   1.678   6.560  1.5279 -2.5935 -3.1333
  413MOL0     H54510  10.421   1.514   6.598 -1.5054 -2.8325  1.9173
  413MOL0     H54511  10.289   1.530   6.691  1.3943 -1.9400  2.6176
  413MOL0     H54512  10.395   1.674   6.861  0.8939  0.9759  0.8597
  413MOL0     H54513  10.494   1.536   6.835  0.9578 -0.4971 -1.9552
  413MOL0     H54514  10.726   1.860   6.672  0.0127 -0.4416 -0.0741
  413MOL0     H54515  10.563   1.740   6.263 -2.0205 -0.1069  2.3237
  413MOL0     H54516  10.648   1.697   6.058 -0.5682  2.3962  3.2213
  414MOL0     O54517   6.610   1.102   3.134  0.4057 -0.4169  1.0397
  414MOL0     C54518   6.613   1.175   3.241  0.0151 -0.1648  0.6155
  414MOL0     O54519   6.680   1.143   3.358  0.2815 -0.4972 -0.3419
  414MOL0     C54520   6.763   1.031   3.346  0.0485  0.9053 -1.3625
  414MOL0     C54521   6.885   1.056   3.400 -0.5754  0.3323 -0.2058
  414MOL0     C54522   6.991   0.964   3.390 -0.9899  0.3885  1.2138
  414MOL0     C54523   6.966   0.830   3.357  0.7968 -0.6515  1.2896
  414MOL0     O54524   7.045   0.719   3.368  0.3744  0.7706  0.9282
  414MOL0     C54525   7.187   0.739   3.392  0.0615  0.6828 -0.8073
  414MOL0     C54526   7.252   0.787   3.267  0.6868  0.2672 -0.0316
  414MOL0     C54527   7.402   0.816   3.280 -0.1091 -0.5254 -0.8880
  414MOL0     C54528   7.488   0.694   3.315 -0.2099 -1.1864 -0.8555
  414MOL0     C54529   7.636   0.705   3.250  0.1856 -0.0969 -0.8194
  414MOL0     C54530   7.711   0.567   3.242 -0.2475  0.4272 -0.6231
  414MOL0     C54531   7.736   0.486   3.381 -0.3044 -0.0442  0.2694
  414MOL0     C54532   7.809   0.565   3.498 -0.0590  0.6010  0.5463
  414MOL0     N54533   7.932   0.643   3.459  0.1477  0.1283 -0.8036
  414MOL0     C54534   8.044   0.574   3.425 -0.7860  1.1440 -0.3174
  414MOL0     C54535   8.132   0.669   3.393 -0.8071  0.5617 -0.1973
  414MOL0     C54536   8.268   0.641   3.346 -0.5293 -0.7034 -0.1607
  414MOL0     C54537   8.361   0.742   3.411  0.3448 -0.3549 -0.5099
  414MOL0     C54538   8.494   0.675   3.422  0.2739 -0.0812  0.0602
  414MOL0     C54539   8.585   0.770   3.503 -0.5750  0.1312  0.8350
  414MOL0     O54540   8.616   0.884   3.420  1.3004  0.3936 -0.1107
  414MOL0     C54541   8.740   0.932   3.414  0.1273 -0.6305  0.2600
  414MOL0     C54542   8.825   0.938   3.520 -0.2449  0.5787 -0.1665
  414MOL0     C54543   8.952   0.981   3.529 -0.2122 -0.1736  0.0535
  414MOL0     C54544   9.003   1.046   3.418  0.4608 -0.3641  0.2343
  414MOL0     C54545   9.148   1.064   3.403  0.1393 -0.6108  0.3994
  414MOL0     O54546   9.186   1.093   3.278  0.8330 -0.0454 -0.7067
  414MOL0     C54547   9.318   1.109   3.247  0.6277  0.4522 -0.2397
  414MOL0     C54548   9.418   1.046   3.311  0.7230  0.9349 -0.6816
  414MOL0     C54549   9.554   1.072   3.282  0.5096 -0.2356  0.0981
  414MOL0     C54550   9.574   1.145   3.166 -0.3788  0.1718  1.3364
  414MOL0     O54551   9.698   1.166   3.114  1.3343  0.1715  0.3040
  414MOL0     C54552   9.755   1.038   3.072 -0.2455 -0.4781  0.0273
  414MOL0     C54553   9.902   1.063   3.037  0.4651  0.2913 -0.6135
  414MOL0     C54554   9.917   1.165   2.924 -0.5777  0.1167  0.7895
  414MOL0     C54555  10.065   1.185   2.900 -0.9571 -1.6269 -0.7857
  414MOL0     C54556  10.106   1.254   2.774  0.7830 -0.2648  0.4242
  414MOL0     C54557  10.108   1.148   2.660 -0.8919 -0.4201 -0.4694
  414MOL0     C54558  10.178   1.188   2.527 -0.0490  0.5096 -0.6998
  414MOL0     C54559  10.182   1.085   2.416 -0.3735 -0.1328 -0.7787
  414MOL0    Cl54560  10.186   1.167   2.260  0.2764 -0.2765 -0.0068
  414MOL0     C54561   9.475   1.205   3.091 -0.6840 -0.3979  0.9178
  414MOL0     C54562   9.346   1.199   3.146  0.0607  0.0421 -0.6942
  414MOL0     O54563   9.219   1.055   3.495  0.2612  0.7719 -0.7411
  414MOL0     C54564   8.918   1.061   3.308 -0.8558  0.2306 -0.2908
  414MOL0     C54565   8.799   0.998   3.304  0.0862 -0.3733  0.7548
  414MOL0     N54566   8.073   0.791   3.419 -0.9157  0.1879 -0.6113
  414MOL0     N54567   7.955   0.774   3.469 -0.1129 -0.7018  0.3325
  414MOL0     C54568   6.839   0.799   3.295 -1.8313 -0.4715 -0.3960
  414MOL0     C54569   6.733   0.895   3.294 -0.6046  0.1855 -0.3435
  414MOL0     C54570   6.562   1.317   3.231  0.8349  0.2651  0.2997
  414MOL0     C54571   6.541   1.362   3.097 -0.2575  0.4104 -0.3385
  414MOL0     C54572   6.486   1.490   3.066 -0.1462  0.1961  0.1473
  414MOL0     C54573   6.448   1.571   3.170 -0.2529  0.7573  0.4368
  414MOL0     O54574   6.391   1.690   3.138  0.5603  0.2891 -0.1512
  414MOL0     C54575   6.365   1.787   3.230  0.9673  0.5645 -1.4606
  414MOL0     C54576   6.283   1.900   3.171  0.6750 -0.1045 -0.4895
  414MOL0     C54577   6.351   1.999   3.073  0.2892 -0.1319 -0.6006
  414MOL0     C54578   6.264   2.104   3.004 -0.6710 -0.2423  0.3367
  414MOL0     C54579   6.226   2.226   3.075  0.2623 -0.1190 -0.3544
  414MOL0     C54580   6.180   2.326   3.126 -0.0356  0.0412 -0.0523
  414MOL0     C54581   6.470   1.527   3.302 -0.4314  0.0466  1.5155
  414MOL0     C54582   6.531   1.404   3.327 -0.3457 -0.4133  0.8490
  414MOL0     H54583   6.917   1.144   3.455  1.5916 -0.8552  0.5821
  414MOL0     H54584   7.087   0.996   3.429  1.3236 -2.3959 -1.6602
  414MOL0     H54585   7.234   0.644   3.420 -3.0613 -2.3684 -4.7832
  414MOL0     H54586   7.203   0.816   3.468  0.7824  2.1901 -2.4140
  414MOL0     H54587   7.208   0.885   3.245  2.5958  1.0101 -0.8132
  414MOL0     H54588   7.212   0.717   3.192 -2.4020  1.9982 -0.1547
  414MOL0     H54589   7.400   0.886   3.364 -3.0530 -1.5687  0.0367
  414MOL0     H54590   7.449   0.868   3.196 -0.1820 -0.5748 -0.9604
  414MOL0     H54591   7.490   0.683   3.424  0.5056 -0.1101 -0.7464
  414MOL0     H54592   7.442   0.606   3.268 -1.5828 -2.7145  2.9273
  414MOL0     H54593   7.691   0.777   3.311 -0.9453  0.5674 -0.5589
  414MOL0     H54594   7.614   0.744   3.150 -4.7288  1.4889  0.6421
  414MOL0     H54595   7.802   0.573   3.181  0.8659  1.1971  1.0298
  414MOL0     H54596   7.645   0.507   3.179  0.3055  0.3293 -1.1243
  414MOL0     H54597   7.640   0.450   3.420 -0.8432  2.0568  1.0114
  414MOL0     H54598   7.798   0.397   3.368 -1.3385 -1.1879  2.5525
  414MOL0     H54599   7.819   0.500   3.585 -0.9715 -0.2393  0.0524
  414MOL0     H54600   7.739   0.645   3.522 -1.0196  0.1554 -0.6510
  414MOL0     H54601   8.059   0.467   3.414  3.2208  1.6298 -1.1729
  414MOL0     H54602   8.293   0.652   3.241 -0.8227 -2.3072 -0.4267
  414MOL0     H54603   8.288   0.542   3.388 -1.6243 -0.6366  0.5781
  414MOL0     H54604   8.322   0.767   3.510 -0.0251  0.3457 -0.8222
  414MOL0     H54605   8.362   0.839   3.360  0.8237 -1.1757 -2.1303
  414MOL0     H54606   8.483   0.581   3.478  1.8510  0.9766  2.2863
  414MOL0     H54607   8.538   0.643   3.328 -4.0333 -1.1702 -1.8215
  414MOL0     H54608   8.676   0.711   3.520 -1.3324 -0.6049  2.5895
  414MOL0     H54609   8.552   0.804   3.601 -0.5435  2.6304  0.0294
  414MOL0     H54610   8.789   0.900   3.615 -0.9339 -0.4924 -0.8430
  414MOL0     H54611   9.015   0.952   3.613  0.8572 -2.5732 -1.4747
  414MOL0     H54612   9.402   0.971   3.387 -0.0518  2.8168  1.1183
  414MOL0     H54613   9.637   1.017   3.326  1.7451  2.4129  1.2830
  414MOL0     H54614   9.703   0.994   2.985  3.5145 -1.6122 -1.8518
  414MOL0     H54615   9.753   0.961   3.150  1.0483 -0.9908 -0.4209
  414MOL0     H54616   9.934   0.965   2.998 -0.9454 -0.4943  0.1213
  414MOL0     H54617   9.957   1.106   3.122 -1.3657  0.6257  0.4380
  414MOL0     H54618   9.858   1.256   2.930 -2.6447 -1.0432 -0.5935
  414MOL0     H54619   9.874   1.119   2.834 -2.9335  0.2139  1.7960
  414MOL0     H54620  10.117   1.241   2.978 -1.3975 -0.1290 -1.5346
  414MOL0     H54621  10.124   1.094   2.902  0.4831 -0.7411 -1.4949
  414MOL0     H54622  10.210   1.284   2.792  1.4211 -1.2976 -1.3068
  414MOL0     H54623  10.040   1.338   2.750  0.0201 -0.3656  2.0131
  414MOL0     H54624  10.009   1.103   2.647 -1.2694  1.2229 -5.0409
  414MOL0     H54625  10.173   1.067   2.692 -0.6687  0.4202  1.3528
  414MOL0     H54626  10.126   1.276   2.487 -0.4740  0.7444  0.3411
  414MOL0     H54627  10.280   1.213   2.556  0.7092 -0.0869 -2.7379
  414MOL0     H54628  10.101   1.013   2.399  1.5739 -2.1613 -2.0183
  414MOL0     H54629  10.273   1.027   2.434  0.0982  1.6869  4.4192
  414MOL0     H54630   9.499   1.267   3.005  2.7043 -2.5675  0.1180
  414MOL0     H54631   9.262   1.242   3.092 -0.0617  0.2452 -0.3419
  414MOL0     H54632   8.957   1.102   3.215  2.0791 -1.1286  0.2265
  414MOL0     H54633   8.745   1.000   3.210 -0.0657 -1.8754  0.7797
  414MOL0     H54634   6.828   0.696   3.262 -0.7529 -0.1164 -1.9379
  414MOL0     H54635   6.632   0.876   3.259 -1.1394 -3.8188  2.7053
  414MOL0     H54636   6.593   1.319   3.011 -3.2022  2.4412 -3.3960
  414MOL0     H54637   6.453   1.512   2.965 -0.9352  1.9068  0.7314
  414MOL0     H54638   6.461   1.819   3.271  0.3113 -0.3059  0.9381
  414MOL0     H54639   6.298   1.749   3.308  0.3165  3.0302 -0.7370
  414MOL0     H54640   6.207   1.856   3.105  0.9955  0.7252 -1.4441
  414MOL0     H54641   6.240   1.964   3.249 -0.6334 -0.1813 -1.1253
  414MOL0     H54642   6.394   1.938   2.994  3.4531  1.1447 -0.0004
  414MOL0     H54643   6.429   2.049   3.132 -1.0261 -2.8583  4.0678
  414MOL0     H54644   6.329   2.137   2.923 -0.7214  0.9819  0.7639
  414MOL0     H54645   6.174   2.054   2.967  1.4374 -2.9967 -1.4559
  414MOL0     H54646   6.147   2.419   3.168 -0.0551  0.0638 -0.1177
  414MOL0     H54647   6.422   1.588   3.377 -1.9893  1.3752 -0.4358
  414MOL0     H54648   6.563   1.370   3.425  1.1137 -3.4980 -0.5701
  415MOL0     O54649   8.387   5.252   2.990 -0.4757 -0.6480 -0.0229
  415MOL0     C54650   8.416   5.149   3.029 -1.5574  0.8059  0.0739
  415MOL0     O54651   8.403   5.034   2.958 -0.3191 -0.3436  0.4343
  415MOL0     C54652   8.339   5.020   2.839 -0.9867 -0.1846  0.6449
  415MOL0     C54653   8.375   4.913   2.762 -0.8144  0.2849  0.6457
  415MOL0     C54654   8.306   4.885   2.640 -0.5413  1.1371  0.5047
  415MOL0     C54655   8.195   4.963   2.598 -0.5506 -1.0959  0.0905
  415MOL0     O54656   8.124   4.953   2.486 -0.3486 -0.0324  0.0922
  415MOL0     C54657   8.001   4.883   2.516  0.2486  0.2612 -0.0416
  415MOL0     C54658   7.955   4.831   2.378 -0.4696  0.2714  0.2198
  415MOL0     C54659   7.916   4.948   2.286  0.0449 -0.2009  0.0596
  415MOL0     C54660   7.916   4.900   2.141  0.4531  0.5933  0.5361
  415MOL0     C54661   7.807   4.794   2.107 -0.1540  1.2858  0.4658
  415MOL0     C54662   7.796   4.785   1.955  0.6548  0.6451 -0.1070
  415MOL0     C54663   7.658   4.752   1.903  0.0591 -0.6302  0.0198
  415MOL0     C54664   7.580   4.627   1.969  0.7309 -0.8078  0.5557
  415MOL0     N54665   7.525   4.658   2.100  0.4475  0.4349  0.6549
  415MOL0     C54666   7.457   4.765   2.148  0.0652  1.0623  0.1347
  415MOL0     C54667   7.403   4.726   2.270 -0.4695 -0.3333  0.3105
  415MOL0     C54668   7.325   4.811   2.368 -0.6973 -0.3214 -0.2347
  415MOL0     C54669   7.185   4.823   2.318  0.8516 -0.6397 -0.5839
  415MOL0     C54670   7.106   4.686   2.336  0.1637 -0.5254  0.2708
  415MOL0     C54671   7.083   4.644   2.483 -0.1042 -0.2269 -0.8073
  415MOL0     O54672   7.026   4.753   2.553 -0.6044 -0.5115  0.3596
  415MOL0     C54673   7.093   4.781   2.672 -0.4308  0.5751 -0.0070
  415MOL0     C54674   7.113   4.915   2.692  0.9277  0.5907  0.0302
  415MOL0     C54675   7.172   4.956   2.799 -0.1536 -0.6781  0.3596
  415MOL0     C54676   7.206   4.868   2.904 -0.2672 -0.0493 -0.0076
  415MOL0     C54677   7.270   4.910   3.029  0.5517  0.9699 -0.8568
  415MOL0     O54678   7.336   4.811   3.107 -0.4505 -0.1122 -0.4988
  415MOL0     C54679   7.400   4.839   3.225 -0.4528  0.6485 -0.7901
  415MOL0     C54680   7.517   4.766   3.245 -1.4101 -0.7353  0.6529
  415MOL0     C54681   7.607   4.790   3.346  0.2831 -1.2907 -0.7025
  415MOL0     C54682   7.575   4.890   3.443 -0.5975  0.8648  1.1228
  415MOL0     O54683   7.654   4.919   3.552  0.8561 -0.3738 -0.0610
  415MOL0     C54684   7.785   4.873   3.545  0.2797 -0.0010 -0.6152
  415MOL0     C54685   7.880   4.960   3.628  0.6782 -0.4315 -0.2909
  415MOL0     C54686   7.865   4.943   3.782  1.0034 -0.3996  0.1269
  415MOL0     C54687   7.730   4.992   3.842  0.2504 -0.0960 -0.9314
  415MOL0     C54688   7.696   4.888   3.952  0.1955 -0.2068 -0.2988
  415MOL0     C54689   7.648   4.748   3.893  0.2566  0.5731 -0.6834
  415MOL0     C54690   7.573   4.671   4.012  0.4602 -1.9929  0.1615
  415MOL0     C54691   7.532   4.531   3.961  0.0544 -0.6358  0.4155
  415MOL0    Cl54692   7.668   4.425   3.918  0.0347  0.9896  0.1938
  415MOL0     C54693   7.457   4.952   3.424  0.3687 -0.5425 -0.5610
  415MOL0     C54694   7.359   4.933   3.326 -0.9803 -0.3516  1.0624
  415MOL0     O54695   7.251   5.027   3.059 -0.5121 -0.0773 -0.5573
  415MOL0     C54696   7.189   4.731   2.881 -0.1421 -0.0409 -0.0739
  415MOL0     C54697   7.126   4.687   2.763  0.2602 -0.5950 -1.5347
  415MOL0     N54698   7.428   4.593   2.283 -0.2329 -0.4773  0.0329
  415MOL0     N54699   7.503   4.557   2.185 -0.2859  0.1578  0.3693
  415MOL0     C54700   8.167   5.070   2.677  0.8710  0.4527  0.4957
  415MOL0     C54701   8.229   5.095   2.795  0.1052 -1.1535 -0.9585
  415MOL0     C54702   8.460   5.142   3.160  1.0358  0.1032  0.1224
  415MOL0     C54703   8.546   5.041   3.207 -0.0394  0.1051 -0.7895
  415MOL0     C54704   8.577   5.035   3.342 -0.2035  0.5741  0.4297
  415MOL0     C54705   8.532   5.125   3.436  1.5180 -1.3756  0.4411
  415MOL0     O54706   8.557   5.119   3.573  0.0497  0.5845  0.2928
  415MOL0     C54707   8.641   5.013   3.629  0.6575 -0.9516 -0.4376
  415MOL0     C54708   8.611   5.022   3.780  0.7980  0.4186  0.3036
  415MOL0     C54709   8.620   5.157   3.839  0.2035 -0.4260 -0.2890
  415MOL0     C54710   8.730   5.251   3.789  1.2184  0.1728  0.4015
  415MOL0     C54711   8.773   5.353   3.890  0.6562 -0.1890 -0.2842
  415MOL0     C54712   8.795   5.421   3.982 -0.3725 -0.2365  0.0407
  415MOL0     C54713   8.445   5.228   3.392  0.3377  0.0478 -0.4127
  415MOL0     C54714   8.409   5.241   3.260 -0.2351  0.2233 -0.1235
  415MOL0     H54715   8.445   4.838   2.797 -1.6078 -0.9962 -0.4459
  415MOL0     H54716   8.330   4.795   2.584 -0.2442  0.4067  1.7480
  415MOL0     H54717   7.929   4.951   2.562  0.8917  2.0130 -1.4898
  415MOL0     H54718   8.023   4.794   2.575 -1.2504 -2.1984 -2.9000
  415MOL0     H54719   7.865   4.769   2.383  0.1411 -0.5679  1.3749
  415MOL0     H54720   8.027   4.761   2.335  1.3794  2.4662 -0.4285
  415MOL0     H54721   7.990   5.028   2.284  0.7312 -0.8359 -0.3763
  415MOL0     H54722   7.820   4.997   2.303  0.6490  1.6375 -1.4488
  415MOL0     H54723   7.880   4.990   2.091  0.1660  0.1909  0.0103
  415MOL0     H54724   8.013   4.877   2.097 -0.0969  1.0392 -0.9677
  415MOL0     H54725   7.708   4.822   2.144 -0.9286 -3.9239  3.3627
  415MOL0     H54726   7.825   4.698   2.156  1.6813  1.1618 -0.3748
  415MOL0     H54727   7.874   4.715   1.924 -0.8973 -0.6901 -1.1837
  415MOL0     H54728   7.827   4.882   1.914 -0.0756  1.3545  0.9369
  415MOL0     H54729   7.609   4.850   1.909  2.6692  0.7330  1.0566
  415MOL0     H54730   7.667   4.725   1.797 -1.5909 -2.2611  0.2510
  415MOL0     H54731   7.644   4.539   1.970  0.8744 -0.7067  0.4244
  415MOL0     H54732   7.499   4.587   1.907  0.0541 -2.4879  2.4113
  415MOL0     H54733   7.441   4.861   2.100  2.2468  1.2233 -0.3732
  415MOL0     H54734   7.375   4.908   2.367 -2.1698  0.5227  1.3584
  415MOL0     H54735   7.316   4.775   2.472 -0.8642  0.7864  0.1480
  415MOL0     H54736   7.181   4.862   2.216 -1.7886  1.2985  0.1355
  415MOL0     H54737   7.137   4.895   2.386  0.4219 -2.8036  1.5627
  415MOL0     H54738   7.007   4.687   2.290 -0.1907 -0.9279  0.9959
  415MOL0     H54739   7.166   4.601   2.301 -0.1577 -0.9866  0.8175
  415MOL0     H54740   7.182   4.628   2.526 -0.1125  0.2683 -0.5965
  415MOL0     H54741   7.017   4.557   2.493  1.2098 -1.0173  2.0825
  415MOL0     H54742   7.072   4.983   2.618  0.1116 -0.2391 -0.2977
  415MOL0     H54743   7.196   5.060   2.818 -0.3028 -0.2626 -1.5338
  415MOL0     H54744   7.558   4.700   3.170 -1.8726 -0.1052 -0.1641
  415MOL0     H54745   7.703   4.740   3.352  1.2901  0.5117 -1.2555
  415MOL0     H54746   7.817   4.884   3.441  1.8807 -2.2485 -0.4389
  415MOL0     H54747   7.792   4.769   3.579  0.3253  0.4449  0.8010
  415MOL0     H54748   7.874   5.062   3.589 -2.7302 -0.6694 -0.6637
  415MOL0     H54749   7.983   4.927   3.609  1.4709  1.4095  0.6136
  415MOL0     H54750   7.939   5.015   3.817  1.1080  0.5006 -1.8459
  415MOL0     H54751   7.898   4.840   3.801 -0.1320 -1.8007 -4.2481
  415MOL0     H54752   7.747   5.093   3.880 -1.6094  1.3877 -3.6926
  415MOL0     H54753   7.641   5.004   3.779  1.0598 -1.9732 -2.5557
  415MOL0     H54754   7.615   4.930   4.013  0.2830 -1.4487  0.7191
  415MOL0     H54755   7.778   4.863   4.020 -0.8624 -2.8989  0.1249
  415MOL0     H54756   7.738   4.690   3.873 -1.0941 -2.2155  0.7986
  415MOL0     H54757   7.586   4.767   3.804  0.3422 -1.9617 -1.3421
  415MOL0     H54758   7.643   4.650   4.094  1.3262 -1.4649 -0.4317
  415MOL0     H54759   7.491   4.728   4.055  2.2020  0.9605 -0.1895
  415MOL0     H54760   7.468   4.535   3.872 -1.1083 -2.3900  1.1303
  415MOL0     H54761   7.475   4.484   4.042 -1.4773  0.4460  0.0032
  415MOL0     H54762   7.437   5.020   3.506  2.4738  1.3535 -1.5069
  415MOL0     H54763   7.263   4.983   3.322  1.3165  4.9193  2.5819
  415MOL0     H54764   7.233   4.674   2.962 -0.8405 -1.2161 -0.4975
  415MOL0     H54765   7.118   4.579   2.756  2.2929 -0.8541 -0.7627
  415MOL0     H54766   8.086   5.135   2.644  0.2954 -0.4884  0.0149
  415MOL0     H54767   8.195   5.176   2.858 -3.1585 -2.8809 -0.2540
  415MOL0     H54768   8.592   4.971   3.137  2.3933  2.2677 -1.5214
  415MOL0     H54769   8.640   4.953   3.374  1.8526  2.0714  0.4215
  415MOL0     H54770   8.745   5.035   3.602 -0.0752  2.0273 -1.1916
  415MOL0     H54771   8.612   4.915   3.591 -1.7195 -0.8711  0.9587
  415MOL0     H54772   8.518   4.972   3.808 -1.2079  3.2308 -0.9219
  415MOL0     H54773   8.693   4.971   3.832  0.4222  0.1021  0.5892
  415MOL0     H54774   8.624   5.135   3.946 -1.4687  1.1978  0.1719
  415MOL0     H54775   8.530   5.219   3.826  3.4574  4.8234 -0.8177
  415MOL0     H54776   8.820   5.197   3.758  0.4957 -1.2778  0.7197
  415MOL0     H54777   8.697   5.285   3.691  0.6811  0.2232  0.5987
  415MOL0     H54778   8.813   5.465   4.078  3.6312 -1.3245 -0.0309
  415MOL0     H54779   8.394   5.301   3.456  0.6834 -0.5853  0.6127
  415MOL0     H54780   8.341   5.320   3.230 -0.9568 -0.8068 -1.3299
  416MOL0     O54781   8.948  11.423   2.465 -1.3357  0.3004 -0.5020
  416MOL0     C54782   8.878  11.428   2.569  1.3777  0.4129 -0.7047
  416MOL0     O54783   8.756  11.359   2.587 -0.4585 -0.3125 -0.4970
  416MOL0     C54784   8.712  11.308   2.469 -0.4135 -0.1953 -0.1017
  416MOL0     C54785   8.696  11.386   2.352 -0.2328  0.1067  0.3526
  416MOL0     C54786   8.661  11.321   2.232 -0.1788  0.0860 -0.3327
  416MOL0     C54787   8.653  11.177   2.234  0.5481 -0.4232  0.0783
  416MOL0     O54788   8.617  11.117   2.117  0.9401  0.3138  0.5770
  416MOL0     C54789   8.509  11.169   2.045  0.8900 -0.5825  0.8198
  416MOL0     C54790   8.509  11.078   1.921 -0.6875 -0.1770 -1.0355
  416MOL0     C54791   8.438  10.944   1.953 -1.2198 -0.6802 -0.2920
  416MOL0     C54792   8.293  10.952   1.998  0.1132 -0.5206  0.7753
  416MOL0     C54793   8.226  10.816   1.970  0.5592 -0.1985  0.1050
  416MOL0     C54794   8.295  10.701   2.027 -1.1742  0.6943  0.1287
  416MOL0     C54795   8.210  10.574   2.008 -0.0379 -0.2669  0.2660
  416MOL0     C54796   8.286  10.450   2.056 -0.6611  0.8129 -1.3100
  416MOL0     N54797   8.190  10.341   2.074 -0.3643 -1.0480  0.8609
  416MOL0     C54798   8.193  10.222   2.007 -0.9717 -0.5855 -0.0845
  416MOL0     C54799   8.118  10.144   2.081 -1.3779  0.0550 -1.3285
  416MOL0     C54800   8.086  10.006   2.069  0.2440  0.4034  1.5178
  416MOL0     C54801   8.163   9.922   2.168 -1.6745 -0.3673  0.4887
  416MOL0     C54802   8.313   9.901   2.130 -0.3521 -0.2922 -0.5465
  416MOL0     C54803   8.384   9.780   2.185  0.0524 -0.1404  0.3729
  416MOL0     O54804   8.333   9.729   2.307 -0.1625  0.7811 -0.6772
  416MOL0     C54805   8.392   9.605   2.338  0.6984 -0.9816  0.1929
  416MOL0     C54806   8.495   9.542   2.272  0.4418  0.7327  0.1952
  416MOL0     C54807   8.535   9.412   2.314  0.5765  0.6934 -0.0716
  416MOL0     C54808   8.480   9.348   2.435 -0.1755 -1.0351 -0.8120
  416MOL0     C54809   8.510   9.219   2.493 -0.2837 -0.5041  0.5467
  416MOL0     O54810   8.620   9.155   2.445 -0.3183  0.2241  0.2852
  416MOL0     C54811   8.637   9.021   2.466  0.3287 -0.0662 -0.5041
  416MOL0     C54812   8.733   8.959   2.546 -0.8263 -0.2397 -0.3558
  416MOL0     C54813   8.735   8.822   2.567 -0.4296  0.0554  0.2006
  416MOL0     C54814   8.645   8.741   2.506 -0.1845 -0.6948 -0.7450
  416MOL0     O54815   8.648   8.605   2.523 -0.1879 -0.5985 -0.7712
  416MOL0     C54816   8.659   8.565   2.663 -0.1878 -0.5421  0.9834
  416MOL0     C54817   8.798   8.511   2.695  0.4941 -0.4101  0.4807
  416MOL0     C54818   8.845   8.412   2.592 -0.5328 -0.5338  0.6347
  416MOL0     C54819   8.987   8.371   2.626  1.0037 -0.7405 -0.7403
  416MOL0     C54820   9.024   8.261   2.528 -0.7920  0.6817 -0.0307
  416MOL0     C54821   9.166   8.207   2.552  0.1462  0.5206 -0.2291
  416MOL0     C54822   9.187   8.097   2.456  0.4333 -0.3897  0.1123
  416MOL0     C54823   9.327   8.046   2.463  0.3717 -0.0459  0.1073
  416MOL0    Cl54824   9.440   8.172   2.383  0.0509 -0.3468 -0.8662
  416MOL0     C54825   8.554   8.804   2.413  0.8616 -0.8304 -0.2084
  416MOL0     C54826   8.550   8.939   2.404  0.5889  0.3312  0.8801
  416MOL0     O54827   8.420   9.166   2.541  0.8525  0.2139 -0.4678
  416MOL0     C54828   8.376   9.421   2.503  0.0598  0.0165  0.2071
  416MOL0     C54829   8.329   9.545   2.447 -0.1205  0.0844 -0.5528
  416MOL0     N54830   8.065  10.218   2.183 -0.5603  1.1217 -0.1667
  416MOL0     N54831   8.108  10.338   2.178  0.1245 -0.7427  0.5069
  416MOL0     C54832   8.666  11.100   2.354  0.6457 -0.4388  0.0240
  416MOL0     C54833   8.690  11.169   2.472 -1.0673  1.1825 -0.3529
  416MOL0     C54834   8.919  11.514   2.678 -0.9908  1.0188  0.2601
  416MOL0     C54835   9.014  11.613   2.653  0.0092 -0.4063 -0.0875
  416MOL0     C54836   9.067  11.681   2.761  0.3136 -0.4537 -0.9427
  416MOL0     C54837   9.026  11.660   2.900  0.3118  0.2800 -0.0193
  416MOL0     O54838   9.080  11.734   3.001 -0.4273  0.7404 -0.3029
  416MOL0     C54839   9.186  11.661   3.068  0.3488 -0.3764  0.6905
  416MOL0     C54840   9.144  11.570   3.183 -0.4325  1.0982 -0.1726
  416MOL0     C54841   9.255  11.535   3.289  0.5016  0.0800 -1.0968
  416MOL0     C54842   9.190  11.492   3.427  0.7197  0.2491 -0.4326
  416MOL0     C54843   9.134  11.614   3.499 -0.5068  1.0292 -0.0124
  416MOL0     C54844   9.086  11.716   3.546  0.0311 -0.2281  0.0074
  416MOL0     C54845   8.933  11.555   2.916 -0.1090 -0.8224 -0.6643
  416MOL0     C54846   8.873  11.497   2.806 -0.4485  0.1927 -0.2551
  416MOL0     H54847   8.729  11.489   2.345  0.6596 -0.1530  0.6996
  416MOL0     H54848   8.644  11.383   2.145 -0.6897  2.4762  1.3691
  416MOL0     H54849   8.530  11.268   2.004  1.8515 -0.5684  1.3166
  416MOL0     H54850   8.411  11.160   2.092  0.8651 -1.8636  0.5598
  416MOL0     H54851   8.605  11.066   1.870 -0.1033  0.7622 -0.2148
  416MOL0     H54852   8.442  11.131   1.852 -4.3037 -2.7355  0.1921
  416MOL0     H54853   8.498  10.892   2.029  0.3493  0.7044 -0.5348
  416MOL0     H54854   8.447  10.883   1.862 -0.6998  1.1091 -1.4796
  416MOL0     H54855   8.286  10.982   2.103 -1.3505 -1.2757  0.9126
  416MOL0     H54856   8.238  11.027   1.941 -0.9132 -1.6573  0.2363
  416MOL0     H54857   8.218  10.809   1.861 -2.3929 -0.8434  0.2704
  416MOL0     H54858   8.125  10.818   2.012  2.6965 -1.4411  6.3104
  416MOL0     H54859   8.318  10.728   2.131 -1.8595  2.8693 -0.2438
  416MOL0     H54860   8.394  10.688   1.981 -0.6607  1.8019  0.8554
  416MOL0     H54861   8.127  10.597   2.075  1.0807 -1.0504  2.0187
  416MOL0     H54862   8.181  10.576   1.903 -1.1358  1.4950  0.5694
  416MOL0     H54863   8.320  10.476   2.157 -3.4387 -0.8401  0.1640
  416MOL0     H54864   8.362  10.431   1.980 -0.2112 -0.1533 -0.6428
  416MOL0     H54865   8.254  10.196   1.921  0.9345  2.3437  0.2421
  416MOL0     H54866   8.129   9.970   1.975  2.0872 -0.9196  2.7931
  416MOL0     H54867   7.981   9.982   2.088  0.4564  1.4308  4.4301
  416MOL0     H54868   8.121   9.822   2.182  0.5629 -1.4868 -0.2197
  416MOL0     H54869   8.173   9.955   2.272  0.7941 -2.2115  0.9165
  416MOL0     H54870   8.329   9.885   2.023  2.3141 -3.5672  0.1534
  416MOL0     H54871   8.374   9.991   2.149  0.4651 -1.0539  0.5331
  416MOL0     H54872   8.490   9.796   2.207  0.4008 -2.6060  0.8351
  416MOL0     H54873   8.378   9.710   2.101  0.4229  1.1244 -0.7418
  416MOL0     H54874   8.550   9.588   2.191  0.6268 -0.6547 -0.5040
  416MOL0     H54875   8.622   9.376   2.260 -1.4379 -2.1794 -1.6946
  416MOL0     H54876   8.808   9.018   2.596  2.1321 -2.2898 -2.0798
  416MOL0     H54877   8.812   8.782   2.632 -0.3999  1.5018  1.0989
  416MOL0     H54878   8.578   8.493   2.672 -1.4984  0.2175 -2.8559
  416MOL0     H54879   8.637   8.653   2.724  0.5349  0.3515 -0.0008
  416MOL0     H54880   8.800   8.479   2.799  0.9929 -1.5591  0.1424
  416MOL0     H54881   8.870   8.593   2.700  1.6807 -1.4797  1.5521
  416MOL0     H54882   8.836   8.461   2.494 -1.1079  1.5442  1.6681
  416MOL0     H54883   8.783   8.322   2.586  1.7036 -2.5383  4.1274
  416MOL0     H54884   9.056   8.456   2.622  0.8460 -0.3519  2.3677
  416MOL0     H54885   8.999   8.339   2.730 -1.0691 -0.6230 -0.4273
  416MOL0     H54886   9.002   8.309   2.432 -1.9507  0.7875  0.2769
  416MOL0     H54887   8.957   8.175   2.524 -2.5838  2.0715 -1.5713
  416MOL0     H54888   9.158   8.167   2.653 -3.4154 -2.1470 -1.3483
  416MOL0     H54889   9.239   8.286   2.535 -0.4634  0.8546 -1.4178
  416MOL0     H54890   9.126   8.012   2.490  1.6787 -0.6261  1.8996
  416MOL0     H54891   9.169   8.119   2.351  0.0722 -2.5691 -0.3447
  416MOL0     H54892   9.330   7.959   2.397 -0.8662  1.1731 -1.6369
  416MOL0     H54893   9.353   8.010   2.563  0.2209 -1.4449 -0.3213
  416MOL0     H54894   8.474   8.745   2.368 -0.9807  0.2821  1.4494
  416MOL0     H54895   8.474   8.978   2.337 -0.6283  1.6490  2.9240
  416MOL0     H54896   8.326   9.387   2.593 -1.7196  1.4114 -0.1954
  416MOL0     H54897   8.250   9.598   2.499 -0.0271 -0.9712  0.7183
  416MOL0     H54898   8.636  10.997   2.334 -3.8446  0.9173 -1.4856
  416MOL0     H54899   8.683  11.118   2.568 -0.3476 -0.7080 -1.2585
  416MOL0     H54900   9.044  11.647   2.555 -2.5730 -0.0839 -0.8211
  416MOL0     H54901   9.135  11.765   2.744 -1.7612  2.5540  3.7683
  416MOL0     H54902   9.261  11.731   3.105 -0.0612  2.0635 -2.5790
  416MOL0     H54903   9.252  11.607   2.999  1.0832 -0.4752  1.4611
  416MOL0     H54904   9.050  11.612   3.218 -1.3769 -1.3902  0.4586
  416MOL0     H54905   9.125  11.471   3.141  1.5392  1.5851 -2.4643
  416MOL0     H54906   9.311  11.629   3.296 -0.9151  0.8574  0.2475
  416MOL0     H54907   9.316  11.451   3.256  3.5537  0.3184  3.1290
  416MOL0     H54908   9.111  11.417   3.416  1.6991 -1.4112  2.5907
  416MOL0     H54909   9.267  11.446   3.490 -1.3387 -0.7538  1.5340
  416MOL0     H54910   9.021  11.797   3.570  0.3845  0.6127 -1.7448
  416MOL0     H54911   8.900  11.526   3.015 -0.7261  0.8756 -0.3256
  416MOL0     H54912   8.804  11.415   2.815 -0.3581 -0.3739 -3.6583
  417MOL0     O54913   8.187   8.137   4.427 -0.8103 -0.3472 -0.1807
  417MOL0     C54914   8.164   8.027   4.474  0.4334 -0.7391 -0.4130
  417MOL0     O54915   8.140   7.914   4.401  0.3337 -0.3735  0.3680
  417MOL0     C54916   8.117   7.928   4.266 -0.5370 -0.5595  0.2467
  417MOL0     C54917   8.200   8.002   4.184 -0.4975 -0.3445 -0.1502
  417MOL0     C54918   8.177   8.002   4.045  0.1445 -0.3267 -0.3339
  417MOL0     C54919   8.057   7.938   3.991  0.2846  0.2016  0.4359
  417MOL0     O54920   8.037   7.954   3.858  0.0522 -0.5554 -0.5136
  417MOL0     C54921   7.939   7.876   3.786  0.6483  0.0145  0.2742
  417MOL0     C54922   7.805   7.961   3.774 -0.0070  0.1634  0.6371
  417MOL0     C54923   7.813   8.109   3.736  0.5455  0.7491 -0.8318
  417MOL0     C54924   7.865   8.154   3.599  0.0846  0.3213  0.8069
  417MOL0     C54925   7.844   8.311   3.597  0.2142 -0.6455  0.3700
  417MOL0     C54926   7.929   8.393   3.489  0.3521  0.8126  0.1158
  417MOL0     C54927   7.902   8.545   3.489 -0.1671  0.7632 -0.1010
  417MOL0     C54928   7.955   8.594   3.358 -0.9642 -0.6500 -0.4632
  417MOL0     N54929   8.097   8.604   3.352 -0.1691  0.3702  0.9296
  417MOL0     C54930   8.165   8.712   3.411  0.8673 -0.4590  0.1061
  417MOL0     C54931   8.294   8.684   3.412  0.7989  0.4977 -0.0679
  417MOL0     C54932   8.412   8.766   3.470 -0.0783 -0.0059  0.7947
  417MOL0     C54933   8.425   8.898   3.394  0.4172  0.1683 -0.5937
  417MOL0     C54934   8.364   9.009   3.472 -0.2273  0.3170 -0.3415
  417MOL0     C54935   8.394   9.150   3.403 -0.1314 -0.1083 -1.1490
  417MOL0     O54936   8.312   9.240   3.480 -0.0248  0.4196  0.3422
  417MOL0     C54937   8.354   9.362   3.523  0.0599  0.0262  0.1680
  417MOL0     C54938   8.481   9.375   3.581  0.5518 -0.4952 -0.1357
  417MOL0     C54939   8.528   9.507   3.624  0.2077 -0.1966  1.0018
  417MOL0     C54940   8.441   9.618   3.616 -1.2770  0.8983  0.2568
  417MOL0     C54941   8.492   9.752   3.666 -0.0637  0.1509  0.1849
  417MOL0     O54942   8.610   9.751   3.739  0.1802 -0.4164  0.2620
  417MOL0     C54943   8.636   9.838   3.843  0.4223 -0.1500 -0.4269
  417MOL0     C54944   8.538   9.907   3.904 -0.3147 -0.2852 -0.6310
  417MOL0     C54945   8.579   9.998   3.998 -0.2303 -0.3561 -0.5148
  417MOL0     C54946   8.709  10.012   4.049  0.2508 -0.4096 -0.3608
  417MOL0     O54947   8.747  10.095   4.155  0.8737  1.3357  0.2135
  417MOL0     C54948   8.669  10.209   4.202 -0.2184  0.4480  0.1929
  417MOL0     C54949   8.737  10.244   4.336  0.1863  0.3372 -0.1930
  417MOL0     C54950   8.719  10.167   4.468 -0.6076 -1.1868  0.1508
  417MOL0     C54951   8.565  10.176   4.499 -0.0081 -1.1160 -0.1509
  417MOL0     C54952   8.547  10.131   4.649 -0.1761  0.4954 -0.0190
  417MOL0     C54953   8.402  10.095   4.695 -0.5690 -0.0716  0.5615
  417MOL0     C54954   8.403  10.041   4.839  0.5293  0.7743 -0.2858
  417MOL0     C54955   8.251   9.994   4.877  0.2654  0.1648 -0.0426
  417MOL0    Cl54956   8.214   9.858   4.771  0.1501 -0.2636 -0.0120
  417MOL0     C54957   8.805   9.935   3.991 -0.4718  0.5222  0.0713
  417MOL0     C54958   8.772   9.851   3.881  0.3275  0.3135 -0.0512
  417MOL0     O54959   8.416   9.845   3.635 -0.0547 -0.3364  0.5909
  417MOL0     C54960   8.312   9.601   3.551 -0.4275  0.3197  0.0841
  417MOL0     C54961   8.275   9.469   3.510 -0.1158  0.1560  0.6619
  417MOL0     N54962   8.315   8.569   3.341 -0.5337 -0.3998 -0.2961
  417MOL0     N54963   8.196   8.520   3.300  0.2611  0.5414  0.1691
  417MOL0     C54964   7.971   7.872   4.081  0.2780 -0.9484  0.8216
  417MOL0     C54965   8.004   7.870   4.217 -0.6180  0.9051  0.6371
  417MOL0     C54966   8.161   8.014   4.618 -0.9782 -0.1356 -0.4195
  417MOL0     C54967   8.223   8.110   4.706  0.3599  0.1775  1.1520
  417MOL0     C54968   8.211   8.107   4.839 -0.7047 -0.0748 -0.0672
  417MOL0     C54969   8.144   7.996   4.899 -0.5858 -0.7634 -0.5880
  417MOL0     O54970   8.138   7.999   5.039 -0.0772 -0.4311 -0.8837
  417MOL0     C54971   8.130   7.881   5.114  0.1062  0.5043  0.4685
  417MOL0     C54972   8.155   7.930   5.257  0.4011  0.4033 -0.5283
  417MOL0     C54973   8.292   7.988   5.280  0.4073  0.0786 -0.6059
  417MOL0     C54974   8.304   8.019   5.437  0.6558  0.3388  0.3483
  417MOL0     C54975   8.440   8.070   5.470  0.0463  0.2039 -0.4464
  417MOL0     C54976   8.554   8.119   5.471  0.9427 -0.4175  0.4690
  417MOL0     C54977   8.100   7.894   4.814  0.9182  0.8355  0.5779
  417MOL0     C54978   8.104   7.902   4.675 -0.6044 -0.0800 -0.5883
  417MOL0     H54979   8.283   8.054   4.230 -1.3030  0.5478  0.3097
  417MOL0     H54980   8.242   8.060   3.981 -0.7761 -2.0523 -3.0344
  417MOL0     H54981   7.915   7.787   3.845  1.2848  0.7099  1.6354
  417MOL0     H54982   7.980   7.846   3.689  2.6328  0.6279  0.8726
  417MOL0     H54983   7.747   7.946   3.866  0.4622  0.0743  0.9219
  417MOL0     H54984   7.754   7.906   3.695  1.0388 -1.8981  1.3184
  417MOL0     H54985   7.871   8.159   3.814 -1.4841 -0.1276  1.3403
  417MOL0     H54986   7.712   8.146   3.752  0.2402 -0.4427  0.1706
  417MOL0     H54987   7.969   8.121   3.595 -0.8100 -2.6446 -1.4203
  417MOL0     H54988   7.800   8.114   3.521 -0.2046  1.5596  0.3834
  417MOL0     H54989   7.867   8.344   3.698  0.1401  0.7990 -0.0660
  417MOL0     H54990   7.741   8.333   3.568  0.0743  0.4484  1.6594
  417MOL0     H54991   7.903   8.349   3.391  1.4205  2.2869 -0.8690
  417MOL0     H54992   8.031   8.365   3.515 -0.4061 -3.2046 -0.4785
  417MOL0     H54993   7.795   8.556   3.505 -0.3221  1.4522 -1.4270
  417MOL0     H54994   7.941   8.606   3.571 -3.4825  2.1988  0.5763
  417MOL0     H54995   7.907   8.690   3.341 -1.8501 -0.7284  1.3564
  417MOL0     H54996   7.934   8.522   3.278  0.5607 -1.9275  0.2133
  417MOL0     H54997   8.121   8.785   3.479  1.5140 -0.1135  0.1623
  417MOL0     H54998   8.513   8.725   3.462  1.7463  3.6742  2.4968
  417MOL0     H54999   8.385   8.783   3.575 -1.5030 -3.0722  1.0402
  417MOL0     H55000   8.359   8.894   3.307 -1.7392 -1.1482  0.9765
  417MOL0     H55001   8.527   8.923   3.365  0.1709  1.4933 -0.3878
  417MOL0     H55002   8.256   8.994   3.487 -0.3366  1.7248  0.4804
  417MOL0     H55003   8.403   9.019   3.573  0.7200  3.5216 -0.9168
  417MOL0     H55004   8.347   9.159   3.305 -1.4556  1.8226 -0.4003
  417MOL0     H55005   8.502   9.170   3.399  0.1636 -1.1318  0.5560
  417MOL0     H55006   8.549   9.291   3.591 -0.0647 -0.7443  3.0874
  417MOL0     H55007   8.623   9.525   3.672  0.1600 -2.3864  1.9994
  417MOL0     H55008   8.434   9.892   3.875 -0.3706  2.7779 -2.4428
  417MOL0     H55009   8.501  10.054   4.049  1.2077  0.1806  1.2043
  417MOL0     H55010   8.567  10.171   4.209 -0.3917  0.6469 -0.9390
  417MOL0     H55011   8.660  10.295   4.134 -1.8290  1.4962  1.6408
  417MOL0     H55012   8.696  10.342   4.363  4.1108  2.1685 -0.2303
  417MOL0     H55013   8.844  10.257   4.322 -0.1066  4.8984  0.4153
  417MOL0     H55014   8.765  10.199   4.562 -2.2496 -2.7208  1.5543
  417MOL0     H55015   8.738  10.062   4.445 -2.9152 -1.2711 -1.6643
  417MOL0     H55016   8.528  10.278   4.506 -0.9139 -1.2005 -2.8370
  417MOL0     H55017   8.502  10.113   4.436  0.2255 -2.4033  0.8359
  417MOL0     H55018   8.567  10.223   4.705 -1.7559  0.0585  1.3226
  417MOL0     H55019   8.611  10.049   4.684 -0.9791  0.7766  2.2802
  417MOL0     H55020   8.357  10.023   4.626 -1.4951  0.7301  0.3035
  417MOL0     H55021   8.336  10.181   4.679 -0.3407 -0.1406 -0.9438
  417MOL0     H55022   8.475   9.958   4.851  1.9583  1.9409 -0.5021
  417MOL0     H55023   8.439  10.120   4.905  0.5439  0.6010 -0.0866
  417MOL0     H55024   8.186  10.080   4.855  2.2866  1.2374 -2.3375
  417MOL0     H55025   8.242   9.957   4.979  0.9611 -0.4813 -0.2094
  417MOL0     H55026   8.908   9.936   4.024 -0.1817 -3.3999 -0.2158
  417MOL0     H55027   8.836   9.788   3.821 -1.2458  0.6020 -2.1506
  417MOL0     H55028   8.245   9.686   3.553 -0.2063  0.4905  1.2172
  417MOL0     H55029   8.171   9.456   3.483  0.5768 -0.8608 -1.8454
  417MOL0     H55030   7.875   7.826   4.062  1.0296 -2.1488 -0.2216
  417MOL0     H55031   7.952   7.796   4.277  1.5825 -0.9927  0.3555
  417MOL0     H55032   8.265   8.202   4.666  1.2869 -0.2493  1.0993
  417MOL0     H55033   8.254   8.180   4.908 -2.5465  0.8037  0.2158
  417MOL0     H55034   8.203   7.813   5.070 -1.2183  0.4788 -1.8703
  417MOL0     H55035   8.033   7.830   5.102  1.1058 -0.9952 -1.8832
  417MOL0     H55036   8.080   8.006   5.284  1.5363  0.8093  1.7363
  417MOL0     H55037   8.128   7.849   5.325 -0.9864  0.0097 -1.4925
  417MOL0     H55038   8.297   8.082   5.225 -1.7096  1.5620  1.5302
  417MOL0     H55039   8.360   7.910   5.245 -0.2650  0.0587 -1.9021
  417MOL0     H55040   8.231   8.096   5.461  1.1413  1.1473 -0.6752
  417MOL0     H55041   8.283   7.927   5.493  0.4557 -1.1483 -1.9962
  417MOL0     H55042   8.654   8.156   5.461  1.7963 -3.1504 -4.4042
  417MOL0     H55043   8.033   7.812   4.840  2.9913 -1.0140  0.3237
  417MOL0     H55044   8.063   7.812   4.629 -0.2087 -1.9048  2.3639
  418MOL0     O55045   5.970   0.343   3.790  0.2463 -0.2374 -1.1480
  418MOL0     C55046   6.073   0.413   3.802  0.4174  0.1410 -0.5205
  418MOL0     O55047   6.126   0.494   3.708 -0.5750 -0.6295 -0.3971
  418MOL0     C55048   6.045   0.500   3.591  0.1815  0.0599  0.9506
  418MOL0     C55049   5.924   0.569   3.597 -0.0696 -0.1880 -0.6815
  418MOL0     C55050   5.843   0.598   3.486 -0.5592 -0.0671  1.2372
  418MOL0     C55051   5.885   0.548   3.354 -0.1004 -0.1294 -0.2207
  418MOL0     O55052   5.801   0.577   3.249 -1.0253 -0.1646 -0.0590
  418MOL0     C55053   5.832   0.722   3.214  0.3222  0.1057 -1.3538
  418MOL0     C55054   5.863   0.754   3.070  0.1228 -0.1190 -0.1546
  418MOL0     C55055   5.987   0.675   3.033  0.2893  0.2726  0.4948
  418MOL0     C55056   6.004   0.661   2.880  0.2326 -0.0648 -0.1491
  418MOL0     C55057   5.866   0.649   2.806  0.9960 -0.5424 -0.3747
  418MOL0     C55058   5.887   0.572   2.675 -1.5674 -0.2380  1.1132
  418MOL0     C55059   5.771   0.576   2.575 -1.1245 -0.2729  0.3728
  418MOL0     C55060   5.640   0.540   2.631  0.2968 -0.7240  0.7544
  418MOL0     N55061   5.645   0.401   2.682 -0.3564  0.0630 -0.4896
  418MOL0     C55062   5.657   0.281   2.611 -0.4413 -0.7225  0.2501
  418MOL0     C55063   5.641   0.172   2.693  0.1787  0.3483  0.9919
  418MOL0     C55064   5.651   0.028   2.674 -0.2593 -0.4366  0.5690
  418MOL0     C55065   5.619  -0.034   2.536  0.2792 -0.8764 -0.6491
  418MOL0     C55066   5.639  -0.187   2.538 -0.1026  1.0833 -0.1801
  418MOL0     C55067   5.622  -0.258   2.404  0.5642 -0.0814  0.1179
  418MOL0     O55068   5.751  -0.290   2.358 -0.7993 -0.0016 -0.5620
  418MOL0     C55069   5.770  -0.396   2.260 -0.6047 -0.1724 -0.3343
  418MOL0     C55070   5.895  -0.461   2.264 -0.1786  0.2794  0.7864
  418MOL0     C55071   5.932  -0.554   2.170 -0.8204  0.1603 -0.4113
  418MOL0     C55072   5.848  -0.600   2.075  0.4033  0.3158  0.1663
  418MOL0     C55073   5.900  -0.692   1.969  0.1220  0.4543 -0.2745
  418MOL0     O55074   6.026  -0.741   1.999 -0.9448 -0.1636 -0.1437
  418MOL0     C55075   6.073  -0.858   1.949 -0.9237 -0.7311  0.2384
  418MOL0     C55076   6.024  -0.987   1.980  0.9000  0.0156 -1.1549
  418MOL0     C55077   6.081  -1.093   1.914 -0.0176  0.9604  0.6244
  418MOL0     C55078   6.184  -1.080   1.816  0.0840  0.2628  0.6366
  418MOL0     O55079   6.251  -1.197   1.763  0.5048  0.5698  0.4500
  418MOL0     C55080   6.360  -1.186   1.666  0.5710  1.0230  0.6797
  418MOL0     C55081   6.435  -1.320   1.640 -0.0494 -0.7591 -0.3123
  418MOL0     C55082   6.497  -1.395   1.759  0.2774 -0.5989 -0.2213
  418MOL0     C55083   6.611  -1.499   1.723  0.6035 -0.8033  0.9206
  418MOL0     C55084   6.685  -1.562   1.843 -0.6259  0.5912 -0.2051
  418MOL0     C55085   6.703  -1.469   1.964  0.6537  0.4639  0.1694
  418MOL0     C55086   6.801  -1.528   2.065  0.7242 -0.1907  0.0433
  418MOL0     C55087   6.834  -1.421   2.175 -0.1879 -0.3468 -0.0237
  418MOL0    Cl55088   6.933  -1.509   2.300 -0.2514  0.0443 -0.0640
  418MOL0     C55089   6.226  -0.949   1.783  1.4333 -0.0855  0.5111
  418MOL0     C55090   6.172  -0.845   1.852  0.3494 -0.1893 -1.1075
  418MOL0     O55091   5.825  -0.719   1.877  0.7235  0.5695 -0.2727
  418MOL0     C55092   5.729  -0.532   2.065  0.4797  0.3691  0.5421
  418MOL0     C55093   5.676  -0.447   2.168  0.5760 -0.2075  0.4289
  418MOL0     N55094   5.630   0.230   2.820  0.1885  0.0467  0.5904
  418MOL0     N55095   5.625   0.361   2.814  0.3716 -0.7594  0.5956
  418MOL0     C55096   6.011   0.490   3.344 -0.1887 -0.6930  1.1877
  418MOL0     C55097   6.087   0.465   3.456 -0.2041 -0.2266  0.3024
  418MOL0     C55098   6.131   0.416   3.934  0.1839 -0.8533  0.0744
  418MOL0     C55099   6.251   0.477   3.970  0.3469 -0.0434  1.8704
  418MOL0     C55100   6.287   0.502   4.105 -0.5235 -0.1452  0.2276
  418MOL0     C55101   6.205   0.461   4.211 -0.6809  0.0061 -0.3344
  418MOL0     O55102   6.225   0.481   4.344  0.8978  0.5530 -0.2753
  418MOL0     C55103   6.340   0.544   4.414  0.1806  0.2661  0.0388
  418MOL0     C55104   6.311   0.696   4.397 -0.6527  0.3666  0.4009
  418MOL0     C55105   6.354   0.766   4.527 -0.1445 -0.8025 -0.2746
  418MOL0     C55106   6.316   0.914   4.515 -0.4626  0.2731 -0.2090
  418MOL0     C55107   6.334   0.988   4.646  0.7640  0.5192  0.3138
  418MOL0     C55108   6.356   1.037   4.754 -0.3271 -0.7575 -1.0919
  418MOL0     C55109   6.097   0.384   4.179  0.3455 -0.5459  1.0452
  418MOL0     C55110   6.057   0.366   4.043 -0.1432  0.4480 -0.4944
  418MOL0     H55111   5.888   0.622   3.685 -2.4393 -0.4592 -1.3997
  418MOL0     H55112   5.740   0.630   3.497 -3.1116 -6.4479  0.0758
  418MOL0     H55113   5.914   0.765   3.270  0.0462 -2.0052  0.8184
  418MOL0     H55114   5.741   0.767   3.256 -0.3473 -5.3192  4.3383
  418MOL0     H55115   5.878   0.862   3.065  3.0109 -0.4091  0.3774
  418MOL0     H55116   5.776   0.742   3.004  0.5971  2.6175 -1.4078
  418MOL0     H55117   5.993   0.571   3.067  0.0749  0.3519  0.7837
  418MOL0     H55118   6.072   0.725   3.080  0.6235  0.1873 -0.0155
  418MOL0     H55119   6.067   0.743   2.846 -1.0973  1.4835  0.9860
  418MOL0     H55120   6.056   0.567   2.859  0.0005 -0.9082  2.7112
  418MOL0     H55121   5.827   0.750   2.790 -1.3362 -1.2637  0.2791
  418MOL0     H55122   5.795   0.599   2.872  0.8707 -1.1616 -0.9742
  418MOL0     H55123   5.912   0.468   2.697  3.2530  0.1951 -1.1531
  418MOL0     H55124   5.982   0.604   2.632 -2.7924  2.4331  0.2148
  418MOL0     H55125   5.779   0.680   2.542 -1.2892  0.1549  1.6379
  418MOL0     H55126   5.799   0.511   2.492  1.9170  1.3163 -0.0054
  418MOL0     H55127   5.568   0.559   2.552  1.6774 -1.9831 -0.8922
  418MOL0     H55128   5.634   0.608   2.717  1.9063 -1.6941  1.6965
  418MOL0     H55129   5.674   0.277   2.504  0.5341 -1.8585  0.4142
  418MOL0     H55130   5.591  -0.018   2.753 -0.1757 -0.5544  0.5632
  418MOL0     H55131   5.759   0.015   2.684  0.3591  0.9167 -2.8413
  418MOL0     H55132   5.686   0.013   2.463  2.0333 -0.1332  1.3279
  418MOL0     H55133   5.514  -0.007   2.522  0.6051 -0.0190 -1.5283
  418MOL0     H55134   5.743  -0.201   2.568  0.0631 -1.2839 -1.5613
  418MOL0     H55135   5.562  -0.220   2.609 -1.4032  0.9383 -1.6126
  418MOL0     H55136   5.552  -0.202   2.341  2.2700 -0.5894 -2.3937
  418MOL0     H55137   5.575  -0.356   2.412 -0.6512  0.5752  1.3713
  418MOL0     H55138   5.965  -0.435   2.343  2.4006 -0.6725 -1.0732
  418MOL0     H55139   6.029  -0.598   2.188 -0.5187  1.2775  0.9181
  418MOL0     H55140   5.948  -1.013   2.053  4.4173  0.6578  3.0677
  418MOL0     H55141   6.049  -1.195   1.926 -2.8258  1.5121 -1.2480
  418MOL0     H55142   6.440  -1.118   1.696  0.1800  2.2586 -0.9834
  418MOL0     H55143   6.334  -1.138   1.571  2.4974  0.3189 -0.2629
  418MOL0     H55144   6.524  -1.292   1.583 -0.4285 -2.5649 -1.8809
  418MOL0     H55145   6.382  -1.389   1.575 -3.9532  2.4568 -0.9090
  418MOL0     H55146   6.426  -1.451   1.820  1.3489 -1.7342  0.0252
  418MOL0     H55147   6.527  -1.320   1.833 -1.4668  1.8934 -1.8450
  418MOL0     H55148   6.564  -1.576   1.662  0.8972 -0.4492  0.2467
  418MOL0     H55149   6.684  -1.448   1.660  1.5522 -0.4588  2.2561
  418MOL0     H55150   6.784  -1.599   1.814 -0.4114 -1.9188  3.0718
  418MOL0     H55151   6.624  -1.646   1.878  1.9305 -1.2243  0.2167
  418MOL0     H55152   6.611  -1.442   2.018 -0.5723 -0.9193 -1.1487
  418MOL0     H55153   6.753  -1.381   1.921  4.4604 -0.4880  2.1953
  418MOL0     H55154   6.768  -1.619   2.114 -3.4024  1.3218  0.5021
  418MOL0     H55155   6.897  -1.553   2.020  0.2809 -1.3092 -0.3163
  418MOL0     H55156   6.743  -1.390   2.227 -0.7759  0.0333 -1.2578
  418MOL0     H55157   6.883  -1.329   2.140  0.9209 -0.8617  0.1191
  418MOL0     H55158   6.305  -0.925   1.713 -0.6182 -1.3540 -2.4653
  418MOL0     H55159   6.192  -0.744   1.816 -0.1563 -0.3042 -1.7355
  418MOL0     H55160   5.680  -0.564   1.973  1.0061  1.8075 -0.2763
  418MOL0     H55161   5.583  -0.392   2.169  0.1504 -0.8870  1.9206
  418MOL0     H55162   6.039   0.459   3.243  1.5001  0.4739  1.2563
  418MOL0     H55163   6.182   0.414   3.444 -0.7730 -0.9526 -1.3606
  418MOL0     H55164   6.318   0.490   3.885  1.0624  0.9187  2.5503
  418MOL0     H55165   6.387   0.540   4.128 -1.1704  0.3667  2.4330
  418MOL0     H55166   6.439   0.513   4.380  0.4287 -2.9018  3.0434
  418MOL0     H55167   6.338   0.504   4.516 -0.5034 -3.1042 -1.1627
  418MOL0     H55168   6.368   0.740   4.315 -0.6948 -3.6906 -2.0511
  418MOL0     H55169   6.204   0.711   4.381 -0.5209  0.6436 -0.2438
  418MOL0     H55170   6.462   0.758   4.543  0.1661  1.7857 -0.6521
  418MOL0     H55171   6.291   0.722   4.605 -0.9291 -1.0846 -1.0489
  418MOL0     H55172   6.377   0.967   4.441  2.4591  0.6159  2.2496
  418MOL0     H55173   6.215   0.915   4.473 -2.0462 -2.0808  3.0712
  418MOL0     H55174   6.379   1.079   4.850 -0.6064  3.2654 -2.5877
  418MOL0     H55175   6.039   0.344   4.262 -0.1520 -3.9236 -0.8001
  418MOL0     H55176   5.967   0.308   4.024  0.3394 -0.3647 -0.3500
  419MOL0     O55177   1.082   1.248   4.560 -0.1417  0.4077  0.3160
  419MOL0     C55178   1.159   1.342   4.527  0.2554  0.0303 -0.4545
  419MOL0     O55179   1.249   1.342   4.432  0.4059  0.0190 -0.0026
  419MOL0     C55180   1.257   1.217   4.371 -0.5281  0.1522  0.3792
  419MOL0     C55181   1.250   1.211   4.231 -0.1591  0.4902  0.3985
  419MOL0     C55182   1.266   1.095   4.159 -0.8459 -0.4873 -0.3497
  419MOL0     C55183   1.273   0.976   4.230  0.0906  1.4246  0.9700
  419MOL0     O55184   1.253   0.855   4.166 -0.3580 -0.1361 -0.4066
  419MOL0     C55185   1.120   0.821   4.116 -0.0300 -0.1006  0.1075
  419MOL0     C55186   1.137   0.715   4.009 -0.0756 -0.5962  0.8698
  419MOL0     C55187   1.187   0.772   3.878 -0.2775  1.2107 -0.7139
  419MOL0     C55188   1.158   0.669   3.771  0.1164 -0.3752 -0.1036
  419MOL0     C55189   1.134   0.738   3.645  0.9248 -0.8996  0.6358
  419MOL0     C55190   1.095   0.629   3.538 -0.2503 -0.4048 -1.0063
  419MOL0     C55191   1.111   0.695   3.398  1.4207  0.1430 -0.2574
  419MOL0     C55192   1.057   0.612   3.276  0.3908  0.0246  0.3872
  419MOL0     N55193   0.910   0.599   3.277 -0.4540  0.3665  0.1621
  419MOL0     C55194   0.833   0.719   3.273 -0.9145  0.6231 -0.1698
  419MOL0     C55195   0.696   0.680   3.284  0.0634 -0.0413  1.1182
  419MOL0     C55196   0.573   0.772   3.292  0.1369  0.4563  0.6132
  419MOL0     C55197   0.519   0.820   3.163  0.9542 -0.1919 -0.8228
  419MOL0     C55198   0.470   0.714   3.078  0.3321  0.0077  0.7196
  419MOL0     C55199   0.370   0.773   2.971 -0.1060  0.1078 -0.9515
  419MOL0     O55200   0.300   0.670   2.899  0.8556  0.4110  0.7357
  419MOL0     C55201   0.246   0.704   2.781 -0.2698 -0.4594  0.1737
  419MOL0     C55202   0.205   0.604   2.694  0.2781 -0.6615  0.0623
  419MOL0     C55203   0.156   0.638   2.560 -0.7990 -0.1632  0.8823
  419MOL0     C55204   0.151   0.772   2.507 -0.3844  0.2373  0.2221
  419MOL0     C55205   0.091   0.806   2.368  0.7488 -0.2390 -0.1028
  419MOL0     O55206   0.135   0.928   2.320 -0.5175  0.9285  0.4315
  419MOL0     C55207   0.067   0.968   2.209 -0.8407  0.3018  0.0947
  419MOL0     C55208  -0.044   1.056   2.216 -0.1530  0.2140  0.2060
  419MOL0     C55209  -0.099   1.093   2.092  0.5264 -0.5500  0.1399
  419MOL0     C55210  -0.062   1.040   1.965 -0.3102 -1.1888 -1.1153
  419MOL0     O55211  -0.141   1.082   1.861 -0.4140  0.3697  0.0809
  419MOL0     C55212  -0.070   1.091   1.736  0.5676 -0.5401  0.0569
  419MOL0     C55213  -0.130   0.983   1.646  1.2553 -0.1837 -0.3023
  419MOL0     C55214  -0.258   1.031   1.572 -0.5557  0.1344  0.0518
  419MOL0     C55215  -0.305   0.910   1.482 -0.4355  0.6068 -0.3028
  419MOL0     C55216  -0.444   0.932   1.424  0.5770 -0.0438  0.8443
  419MOL0     C55217  -0.502   0.810   1.339  0.3636  0.9430  0.2664
  419MOL0     C55218  -0.502   0.672   1.413  0.0801 -0.4821  0.0994
  419MOL0     C55219  -0.607   0.589   1.346 -0.2288 -0.0595 -0.0819
  419MOL0    Cl55220  -0.776   0.646   1.388  0.0298 -0.1155 -0.2991
  419MOL0     C55221   0.046   0.948   1.972  0.8442  0.4052 -0.4224
  419MOL0     C55222   0.105   0.913   2.093  0.3179 -0.3184  0.4726
  419MOL0     O55223   0.006   0.736   2.325 -0.0861 -0.1330  0.1398
  419MOL0     C55224   0.206   0.866   2.601  0.2668  0.5172  0.3642
  419MOL0     C55225   0.242   0.836   2.733  1.0762 -0.0861 -0.9545
  419MOL0     N55226   0.696   0.537   3.289  0.5660  0.3040 -0.1681
  419MOL0     N55227   0.826   0.497   3.274  0.0384  0.1706 -0.2986
  419MOL0     C55228   1.292   0.973   4.374 -0.4784  0.1563  0.1596
  419MOL0     C55229   1.304   1.100   4.442  0.6612 -0.7642  0.1716
  419MOL0     C55230   1.148   1.468   4.598  0.2544 -0.1133  0.0788
  419MOL0     C55231   1.252   1.573   4.583 -0.1202 -0.4483  0.8808
  419MOL0     C55232   1.253   1.689   4.658 -0.6095 -0.3230  0.3145
  419MOL0     C55233   1.151   1.707   4.746  0.7119 -0.7410 -0.3349
  419MOL0     O55234   1.163   1.830   4.817  0.5287  0.0706  0.3085
  419MOL0     C55235   1.132   1.951   4.739 -0.4214  0.0178 -0.0943
  419MOL0     C55236   0.984   1.974   4.720 -0.9147  1.0365  0.0821
  419MOL0     C55237   0.938   2.098   4.644 -0.1246  0.5274  0.2771
  419MOL0     C55238   0.990   2.123   4.501 -0.2394 -0.2090  0.2090
  419MOL0     C55239   0.977   2.007   4.412  0.5695  0.4354 -0.8049
  419MOL0     C55240   0.948   1.913   4.345  0.1627 -0.6582  0.6701
  419MOL0     C55241   1.046   1.616   4.760 -0.4728 -0.1979 -0.1410
  419MOL0     C55242   1.044   1.499   4.685 -0.6391  0.1147 -0.0043
  419MOL0     H55243   1.247   1.297   4.165  0.4668 -0.3163 -0.7210
  419MOL0     H55244   1.246   1.098   4.052 -0.0986  1.8734 -0.4867
  419MOL0     H55245   1.053   0.902   4.086  2.3553  2.5765  1.4865
  419MOL0     H55246   1.061   0.777   4.197  0.7072  0.9837  1.2692
  419MOL0     H55247   1.030   0.689   4.001 -0.8822  1.9286  2.3403
  419MOL0     H55248   1.202   0.631   4.034 -2.0711 -2.4541  0.1800
  419MOL0     H55249   1.294   0.791   3.879 -0.3673  2.2825  3.0192
  419MOL0     H55250   1.142   0.871   3.867 -1.6565  1.0596  2.5364
  419MOL0     H55251   1.241   0.598   3.769  1.8569  1.5709 -0.3921
  419MOL0     H55252   1.070   0.609   3.795 -0.3425  1.0036  1.9208
  419MOL0     H55253   1.231   0.782   3.619  0.7349 -0.7421  0.1718
  419MOL0     H55254   1.055   0.813   3.644  1.0122 -0.8019  1.0255
  419MOL0     H55255   0.997   0.582   3.549 -0.4225 -0.7342 -3.3183
  419MOL0     H55256   1.178   0.559   3.542  1.4426  1.5482  0.4852
  419MOL0     H55257   1.055   0.789   3.405 -3.0375 -2.1219 -1.7028
  419MOL0     H55258   1.216   0.707   3.371  1.4248 -0.9687 -0.7829
  419MOL0     H55259   1.102   0.513   3.275  1.0282  0.2402  2.6542
  419MOL0     H55260   1.088   0.658   3.182 -0.0839 -1.2555 -0.4149
  419MOL0     H55261   0.863   0.823   3.269 -1.5764  0.7976 -1.0295
  419MOL0     H55262   0.596   0.861   3.352 -0.0561  2.9867 -2.7015
  419MOL0     H55263   0.488   0.719   3.336 -1.1920  0.5420 -1.6769
  419MOL0     H55264   0.597   0.878   3.111 -0.1754  1.1615 -1.0601
  419MOL0     H55265   0.446   0.897   3.187  3.1968  2.2793 -1.3874
  419MOL0     H55266   0.547   0.652   3.032 -0.6895 -0.1373 -0.8568
  419MOL0     H55267   0.411   0.653   3.147 -3.1146  1.1207 -0.9993
  419MOL0     H55268   0.430   0.832   2.900 -0.6503 -1.1431 -2.5242
  419MOL0     H55269   0.303   0.845   3.019 -0.7100 -2.7658  3.0013
  419MOL0     H55270   0.202   0.499   2.722 -0.8970 -1.2063 -1.8710
  419MOL0     H55271   0.120   0.556   2.499 -0.2740  0.7389 -0.7036
  419MOL0     H55272  -0.077   1.094   2.312 -1.1148 -2.5216  1.0607
  419MOL0     H55273  -0.186   1.158   2.083 -1.1162 -2.8603 -2.5994
  419MOL0     H55274   0.038   1.077   1.744  0.1737 -3.4506  1.1316
  419MOL0     H55275  -0.094   1.193   1.704  1.2194 -0.4343 -0.0965
  419MOL0     H55276  -0.152   0.901   1.714  3.6465 -0.2290  0.5205
  419MOL0     H55277  -0.065   0.951   1.564 -0.2076  0.4405 -1.7620
  419MOL0     H55278  -0.244   1.126   1.519  0.2804  0.4227  0.7826
  419MOL0     H55279  -0.349   1.051   1.630 -1.3969  2.1380 -1.8066
  419MOL0     H55280  -0.232   0.900   1.400 -2.5526  1.4082 -2.3878
  419MOL0     H55281  -0.286   0.816   1.534  3.1977  1.4619  0.1934
  419MOL0     H55282  -0.451   1.028   1.372 -1.7535  0.0393  1.2007
  419MOL0     H55283  -0.517   0.934   1.505 -1.5874 -0.9462 -0.9796
  419MOL0     H55284  -0.441   0.798   1.249  0.0744  1.0456  0.0564
  419MOL0     H55285  -0.604   0.831   1.305  1.2472  0.0473 -3.3976
  419MOL0     H55286  -0.401   0.628   1.411 -0.6377 -2.1836 -0.1732
  419MOL0     H55287  -0.516   0.688   1.520 -1.6943  2.3937 -0.4453
  419MOL0     H55288  -0.589   0.484   1.372  2.9226  0.7370  1.5204
  419MOL0     H55289  -0.596   0.603   1.238  0.6797 -3.2377 -0.5083
  419MOL0     H55290   0.066   0.881   1.889  5.0545  0.0771  0.6035
  419MOL0     H55291   0.179   0.833   2.090  0.4166 -0.2147 -1.1937
  419MOL0     H55292   0.200   0.966   2.559  0.4872 -0.3477 -1.8315
  419MOL0     H55293   0.268   0.926   2.788 -0.5607  1.9445 -3.2788
  419MOL0     H55294   1.315   0.875   4.413 -1.2382 -0.8075 -1.6599
  419MOL0     H55295   1.330   1.098   4.547  0.5744 -0.3163  0.2027
  419MOL0     H55296   1.336   1.559   4.516  0.0342  0.8058  0.7883
  419MOL0     H55297   1.341   1.750   4.650 -0.5912 -0.4565 -0.5812
  419MOL0     H55298   1.176   1.940   4.640 -1.1029 -0.7442 -0.3219
  419MOL0     H55299   1.176   2.034   4.795  3.2491 -0.6415 -1.6925
  419MOL0     H55300   0.949   1.885   4.667 -2.5630  1.9128 -0.3472
  419MOL0     H55301   0.938   1.977   4.819  0.8379  0.1206  0.9875
  419MOL0     H55302   0.951   2.185   4.710 -0.8103 -0.3241  1.5786
  419MOL0     H55303   0.830   2.081   4.634 -0.0473 -0.8611  1.5077
  419MOL0     H55304   0.938   2.208   4.456  1.5404 -0.1808 -1.9824
  419MOL0     H55305   1.093   2.161   4.501 -1.4111  3.3609  1.4421
  419MOL0     H55306   0.941   1.828   4.279  0.4204 -0.2826  0.1492
  419MOL0     H55307   0.955   1.634   4.816 -0.0193 -1.8933  1.2140
  419MOL0     H55308   0.970   1.422   4.707 -0.5441 -0.4540 -1.5672
  420MOL0     O55309   6.193   9.548   3.262  0.1883  0.2272 -0.2352
  420MOL0     C55310   6.220   9.474   3.355  0.5169  0.0183 -1.1898
  420MOL0     O55311   6.151   9.363   3.380  0.0114 -0.1451 -0.1613
  420MOL0     C55312   6.058   9.316   3.292  0.7459 -0.2274  0.8451
  420MOL0     C55313   5.948   9.236   3.342 -0.3986  0.6010 -0.6092
  420MOL0     C55314   5.861   9.167   3.254  0.0991 -0.7468 -0.3085
  420MOL0     C55315   5.884   9.188   3.116 -0.5361  0.7593  0.6646
  420MOL0     O55316   5.788   9.133   3.036  0.2188 -0.8484  0.5307
  420MOL0     C55317   5.788   9.158   2.892  0.3986  0.6173 -0.3709
  420MOL0     C55318   5.671   9.066   2.846 -0.2020 -0.2841  0.2568
  420MOL0     C55319   5.631   9.075   2.689  0.2527  0.1254 -0.0534
  420MOL0     C55320   5.749   9.056   2.610 -0.8692  0.0847 -0.3641
  420MOL0     C55321   5.737   8.998   2.462  0.0546 -0.0096  0.3305
  420MOL0     C55322   5.872   8.968   2.396 -0.4558  0.1451  0.1002
  420MOL0     C55323   5.847   8.882   2.267 -1.0742  0.4832 -0.1945
  420MOL0     C55324   5.988   8.877   2.201  0.5247  0.3509 -0.5385
  420MOL0     N55325   6.000   8.761   2.116 -0.1737 -0.2862  0.4804
  420MOL0     C55326   5.996   8.637   2.171 -0.3190  0.3413 -0.8371
  420MOL0     C55327   5.934   8.553   2.085 -1.1354  0.0855  0.6071
  420MOL0     C55328   5.893   8.408   2.096 -0.8508 -0.2152  0.4266
  420MOL0     C55329   5.981   8.313   2.011  0.0651 -0.9733  0.3044
  420MOL0     C55330   5.925   8.180   1.985 -0.7019  0.2526  0.9090
  420MOL0     C55331   6.006   8.092   1.890  0.0414 -0.1640 -0.8281
  420MOL0     O55332   5.908   7.998   1.841 -0.2617 -0.6066  0.1966
  420MOL0     C55333   5.945   7.913   1.734 -0.3227  0.6927  0.7982
  420MOL0     C55334   5.841   7.831   1.677 -0.5600 -0.7463 -0.4550
  420MOL0     C55335   5.875   7.745   1.571 -1.1942 -0.0724 -0.8315
  420MOL0     C55336   6.005   7.727   1.528 -1.0318  0.2214  0.7870
  420MOL0     C55337   6.040   7.658   1.402  1.1711 -0.5500 -0.1604
  420MOL0     O55338   6.177   7.650   1.369  0.7064  0.1664 -0.0815
  420MOL0     C55339   6.216   7.597   1.246 -0.1637  0.2553  0.9572
  420MOL0     C55340   6.284   7.479   1.232 -0.3416  0.3641  0.4693
  420MOL0     C55341   6.331   7.431   1.111 -0.2475  0.2949  0.8112
  420MOL0     C55342   6.307   7.507   0.989  0.2217 -1.0079 -0.4698
  420MOL0     O55343   6.341   7.467   0.865 -0.8430 -0.0309  0.1920
  420MOL0     C55344   6.448   7.368   0.861 -0.1731 -0.6388  0.4282
  420MOL0     C55345   6.498   7.360   0.715  0.5564  0.1416 -0.3198
  420MOL0     C55346   6.374   7.353   0.613 -0.4583 -0.8320 -0.8822
  420MOL0     C55347   6.421   7.435   0.491  0.5280  0.7158  0.7915
  420MOL0     C55348   6.302   7.444   0.397 -0.3603 -0.5851 -0.5063
  420MOL0     C55349   6.336   7.533   0.278 -0.2538 -0.6932 -1.1160
  420MOL0     C55350   6.244   7.544   0.170  0.5786  0.8233  0.5719
  420MOL0     C55351   6.282   7.624   0.054  0.0672 -0.9232  0.5452
  420MOL0    Cl55352   6.446   7.592   0.006 -0.3067 -0.6399  0.2775
  420MOL0     C55353   6.231   7.634   1.002 -0.6113  0.1410  0.3289
  420MOL0     C55354   6.196   7.674   1.129  0.4980 -0.0377  0.5449
  420MOL0     O55355   5.946   7.617   1.340  0.0997 -0.1363  0.1176
  420MOL0     C55356   6.101   7.815   1.582 -0.2808  0.5138 -0.9601
  420MOL0     C55357   6.079   7.892   1.689  0.2255 -0.2776  0.2167
  420MOL0     N55358   5.892   8.639   1.980 -1.1267  0.7512 -0.3896
  420MOL0     N55359   5.935   8.756   1.996 -0.5272 -0.5890  0.0907
  420MOL0     C55360   5.984   9.262   3.066 -1.1059 -0.0065 -0.4905
  420MOL0     C55361   6.077   9.324   3.150  0.6685  0.1330  0.2194
  420MOL0     C55362   6.316   9.515   3.461  0.0176  0.1086  0.0150
  420MOL0     C55363   6.396   9.628   3.429  0.1643 -0.3886 -0.0917
  420MOL0     C55364   6.499   9.664   3.516 -0.7863  0.0865  0.3551
  420MOL0     C55365   6.520   9.600   3.637 -0.5360 -0.0835  0.2708
  420MOL0     O55366   6.608   9.643   3.736 -0.5542  1.1058 -0.5016
  420MOL0     C55367   6.741   9.680   3.703 -0.0357 -0.3351 -0.4016
  420MOL0     C55368   6.808   9.551   3.652 -0.2316  0.2930  0.0884
  420MOL0     C55369   6.964   9.553   3.650 -0.1906  0.3831 -0.6945
  420MOL0     C55370   7.025   9.542   3.798  0.2448 -0.7423 -0.3669
  420MOL0     C55371   7.173   9.522   3.798  0.6810 -0.5178 -0.1847
  420MOL0     C55372   7.294   9.492   3.781  0.2337  0.0181  0.2316
  420MOL0     C55373   6.430   9.505   3.673 -0.0990  0.9441 -0.8592
  420MOL0     C55374   6.337   9.451   3.586  0.3277 -0.0146 -0.3762
  420MOL0     H55375   5.959   9.219   3.449 -0.2845 -0.0481 -0.7177
  420MOL0     H55376   5.790   9.098   3.299  1.9648 -0.1754  3.8899
  420MOL0     H55377   5.880   9.121   2.845 -1.4970 -2.7141 -1.8686
  420MOL0     H55378   5.771   9.262   2.862 -0.2667 -0.0737 -2.5481
  420MOL0     H55379   5.581   9.091   2.902  0.7010 -1.0465  2.1242
  420MOL0     H55380   5.702   8.965   2.874  1.3048  0.2915  0.7649
  420MOL0     H55381   5.582   9.168   2.659 -0.2252  0.2289  0.9906
  420MOL0     H55382   5.551   9.003   2.670 -0.1198  1.0855 -2.3310
  420MOL0     H55383   5.789   9.158   2.613 -3.2433  1.0567  1.2017
  420MOL0     H55384   5.819   8.990   2.663  1.6903  1.4663 -1.8252
  420MOL0     H55385   5.690   9.079   2.404 -0.5898  0.1619  1.0705
  420MOL0     H55386   5.675   8.909   2.450  1.0215 -0.5373 -1.0186
  420MOL0     H55387   5.929   8.907   2.467  2.0616  0.3442 -1.6259
  420MOL0     H55388   5.932   9.058   2.382  0.9970 -0.0930  3.7376
  420MOL0     H55389   5.823   8.779   2.297 -0.4481  0.6583  0.9714
  420MOL0     H55390   5.769   8.921   2.202 -3.4497 -0.8741  1.6894
  420MOL0     H55391   6.061   8.863   2.282 -0.3849 -1.9048 -0.0474
  420MOL0     H55392   6.020   8.972   2.157  0.8088  0.3215 -0.4008
  420MOL0     H55393   6.044   8.610   2.265  0.0774  2.2583 -0.4383
  420MOL0     H55394   5.789   8.403   2.063 -0.4430 -1.4580 -0.7750
  420MOL0     H55395   5.897   8.381   2.203  0.7292 -3.7466 -0.3528
  420MOL0     H55396   6.081   8.315   2.057 -1.6250 -1.4524  4.4083
  420MOL0     H55397   5.982   8.369   1.917  1.2845  0.1253  0.9274
  420MOL0     H55398   5.910   8.133   2.083 -3.7308 -0.0720  0.3775
  420MOL0     H55399   5.823   8.185   1.947 -0.4416  2.1791  0.3647
  420MOL0     H55400   6.079   8.048   1.959 -0.3933  0.9324  0.3821
  420MOL0     H55401   6.051   8.144   1.806  2.1861 -3.3085 -1.8226
  420MOL0     H55402   5.739   7.837   1.712 -0.7637  1.9901 -1.3428
  420MOL0     H55403   5.797   7.697   1.513 -0.4562  1.2364 -3.0458
  420MOL0     H55404   6.316   7.427   1.322  0.0397  1.7539  1.1550
  420MOL0     H55405   6.390   7.340   1.108 -1.6393 -0.6140  0.0808
  420MOL0     H55406   6.404   7.272   0.890 -0.7206 -0.7564 -0.7484
  420MOL0     H55407   6.527   7.400   0.930 -1.1842  1.5254  0.6675
  420MOL0     H55408   6.568   7.277   0.702 -0.4348 -1.2744  2.3716
  420MOL0     H55409   6.553   7.454   0.708 -0.7586  0.8732 -1.2745
  420MOL0     H55410   6.285   7.403   0.652  2.3148  2.4536  1.9464
  420MOL0     H55411   6.350   7.252   0.580  0.9744 -1.2202 -0.8297
  420MOL0     H55412   6.464   7.529   0.527  3.8559  0.3186 -1.7019
  420MOL0     H55413   6.496   7.368   0.448  0.1904 -0.7397  2.3702
  420MOL0     H55414   6.217   7.487   0.450  1.5075  0.1324  2.0776
  420MOL0     H55415   6.275   7.344   0.363 -1.6962 -0.6565  0.7060
  420MOL0     H55416   6.424   7.484   0.236  2.1559  0.9330  1.6637
  420MOL0     H55417   6.364   7.633   0.312 -0.8291  0.0846 -2.7955
  420MOL0     H55418   6.242   7.443   0.129 -0.2962  0.2099  2.0607
  420MOL0     H55419   6.140   7.571   0.193  0.6728  0.1674  1.8484
  420MOL0     H55420   6.297   7.727   0.087  4.8381 -0.7537 -1.4383
  420MOL0     H55421   6.208   7.634  -0.026 -0.3906  0.2069  1.0967
  420MOL0     H55422   6.212   7.676   0.904  1.2099  0.2976 -0.0054
  420MOL0     H55423   6.151   7.772   1.132 -1.7825 -0.9339 -1.3189
  420MOL0     H55424   6.203   7.822   1.543 -0.4118 -0.4402 -1.5185
  420MOL0     H55425   6.150   7.960   1.737 -0.6216  0.5614  0.3152
  420MOL0     H55426   6.008   9.283   2.963  1.1276 -0.1121 -0.0505
  420MOL0     H55427   6.160   9.384   3.114  1.5109 -0.3937  1.2158
  420MOL0     H55428   6.386   9.681   3.335  2.4309 -1.9025 -1.2873
  420MOL0     H55429   6.561   9.743   3.475 -1.1436  1.6349  2.6729
  420MOL0     H55430   6.789   9.710   3.796  0.2259  0.7111 -0.8521
  420MOL0     H55431   6.752   9.750   3.619  1.4895 -0.8264 -0.6543
  420MOL0     H55432   6.778   9.471   3.720 -1.1022  3.0331  3.2010
  420MOL0     H55433   6.772   9.526   3.552 -2.4921  2.4739  0.2586
  420MOL0     H55434   7.008   9.642   3.604 -0.6145  0.8338 -0.2465
  420MOL0     H55435   6.975   9.460   3.593 -1.6019 -0.8184  0.8682
  420MOL0     H55436   6.999   9.634   3.852 -1.2357 -0.8584 -0.8254
  420MOL0     H55437   6.972   9.461   3.849 -1.6505 -0.3565 -1.5935
  420MOL0     H55438   7.395   9.457   3.774 -0.6016 -2.8483  1.1229
  420MOL0     H55439   6.441   9.454   3.768 -2.7750 -2.6075 -2.2438
  420MOL0     H55440   6.282   9.360   3.608  0.7847 -0.4018 -0.8195
  421MOL0     O55441   9.580   5.559   9.444 -0.5673  0.1686 -0.0020
  421MOL0     C55442   9.540   5.475   9.364 -0.7606 -0.1616 -0.4073
  421MOL0     O55443   9.620   5.407   9.270 -0.6416 -0.2790 -0.0646
  421MOL0     C55444   9.729   5.475   9.233  0.1759  0.7621 -0.2742
  421MOL0     C55445   9.729   5.591   9.152 -0.5560  0.4942 -0.7125
  421MOL0     C55446   9.850   5.637   9.101  0.3143 -0.2730  0.0429
  421MOL0     C55447   9.973   5.587   9.134 -0.0802  0.0846 -0.4225
  421MOL0     O55448  10.089   5.657   9.094 -0.0283  0.2844  0.0336
  421MOL0     C55449  10.209   5.571   9.074  0.7824  0.1180  0.2221
  421MOL0     C55450  10.199   5.470   8.959  0.6072  0.4564  0.5488
  421MOL0     C55451  10.333   5.406   8.938 -0.9263 -0.3557 -0.2814
  421MOL0     C55452  10.401   5.493   8.835 -1.0192  0.9487 -0.7528
  421MOL0     C55453  10.550   5.488   8.859 -0.3911 -0.7011  0.5792
  421MOL0     C55454  10.623   5.583   8.762  0.8025 -0.6699 -0.4753
  421MOL0     C55455  10.773   5.551   8.756 -0.2083 -0.2850 -0.7701
  421MOL0     C55456  10.854   5.648   8.677 -0.0005 -0.1551  0.4373
  421MOL0     N55457  10.824   5.630   8.533 -0.3734  0.0378 -0.6583
  421MOL0     C55458  10.859   5.522   8.463 -0.1779 -0.1126  0.7456
  421MOL0     C55459  10.821   5.548   8.335 -1.2150  0.8752 -0.6448
  421MOL0     C55460  10.840   5.459   8.218 -0.2757  0.0635 -0.2297
  421MOL0     C55461  10.739   5.342   8.232  0.2189  0.6189 -0.3113
  421MOL0     C55462  10.730   5.256   8.104  1.1374  1.0298 -0.3917
  421MOL0     C55463  10.662   5.126   8.126  0.2787 -1.3341 -0.0212
  421MOL0     O55464  10.731   5.036   8.218 -0.2317 -0.7083 -0.5742
  421MOL0     C55465  10.705   4.898   8.194  0.0510 -0.5054  0.6751
  421MOL0     C55466  10.589   4.841   8.128 -0.2513  0.0873  0.4181
  421MOL0     C55467  10.564   4.705   8.119 -0.6298  0.2725  0.4232
  421MOL0     C55468  10.638   4.610   8.194  0.3477 -0.4734 -0.3837
  421MOL0     C55469  10.603   4.466   8.191  0.2650 -0.4982 -0.4345
  421MOL0     O55470  10.675   4.393   8.270  0.0251  0.3680 -0.2490
  421MOL0     C55471  10.698   4.273   8.221  0.5805  0.8293  0.4094
  421MOL0     C55472  10.826   4.223   8.195 -0.8577  0.1446 -0.0198
  421MOL0     C55473  10.838   4.094   8.158 -0.2104  0.6568 -0.8128
  421MOL0     C55474  10.733   3.992   8.182 -0.3552 -0.0862  0.2332
  421MOL0     O55475  10.747   3.851   8.169  0.3895 -1.0552 -0.3549
  421MOL0     C55476  10.867   3.803   8.098 -0.7233 -0.3233  0.4230
  421MOL0     C55477  10.883   3.652   8.129 -0.0134 -0.3437 -0.1711
  421MOL0     C55478  10.968   3.636   8.262  0.9821  0.1019 -0.3700
  421MOL0     C55479  11.092   3.551   8.231  0.5919  0.3685  0.8053
  421MOL0     C55480  11.220   3.614   8.172  0.2260 -0.1982 -1.2588
  421MOL0     C55481  11.322   3.498   8.150  0.2686 -0.6483  0.4047
  421MOL0     C55482  11.463   3.541   8.095  0.8620 -0.2014 -0.1066
  421MOL0     C55483  11.567   3.426   8.091  0.1499 -0.1164 -0.3086
  421MOL0    Cl55484  11.716   3.452   7.982  0.4035  0.5802  0.1648
  421MOL0     C55485  10.614   4.040   8.233  0.5664  0.5931  0.3265
  421MOL0     C55486  10.596   4.179   8.248  0.4983  0.5699 -0.3362
  421MOL0     O55487  10.532   4.424   8.098 -0.0667 -0.2343  0.2946
  421MOL0     C55488  10.764   4.655   8.250 -0.2854 -1.1086  0.5946
  421MOL0     C55489  10.789   4.800   8.250  0.3025  0.6567  0.1223
  421MOL0     N55490  10.751   5.667   8.330 -0.1906  0.6578  0.3301
  421MOL0     N55491  10.767   5.728   8.453  0.5114  0.4224 -0.1465
  421MOL0     C55492   9.971   5.485   9.228 -0.7182  0.4111  0.3019
  421MOL0     C55493   9.852   5.428   9.263 -0.6846  0.4644  0.0743
  421MOL0     C55494   9.394   5.444   9.369 -0.2672  0.5563  0.2825
  421MOL0     C55495   9.325   5.432   9.246 -0.3731  0.6183  0.6643
  421MOL0     C55496   9.190   5.413   9.242 -1.0113 -0.1101 -1.1888
  421MOL0     C55497   9.114   5.413   9.367  0.0634 -0.1995  0.4358
  421MOL0     O55498   8.977   5.407   9.380  0.2926  0.0788  0.5747
  421MOL0     C55499   8.914   5.429   9.254  0.1385  0.0574 -0.0281
  421MOL0     C55500   8.765   5.439   9.271  0.5489 -0.6685  0.7092
  421MOL0     C55501   8.708   5.543   9.373 -0.6062  0.2923  0.3991
  421MOL0     C55502   8.737   5.685   9.323 -0.0686 -0.1310 -0.3988
  421MOL0     C55503   8.693   5.771   9.434  0.1408 -0.6567 -0.1084
  421MOL0     C55504   8.661   5.854   9.524  0.3770  0.9296  0.4999
  421MOL0     C55505   9.176   5.421   9.490  0.1307  0.3144  0.1798
  421MOL0     C55506   9.321   5.440   9.488  0.6717 -0.5838 -0.1624
  421MOL0     H55507   9.627   5.622   9.131 -1.3492 -0.5274  1.2986
  421MOL0     H55508   9.832   5.717   9.029  2.5251 -1.2297 -1.7092
  421MOL0     H55509  10.221   5.507   9.162  3.6499 -0.0975 -0.2270
  421MOL0     H55510  10.300   5.632   9.080  3.8070 -3.7334 -1.6263
  421MOL0     H55511  10.165   5.521   8.868 -1.6603  1.2414  1.7556
  421MOL0     H55512  10.128   5.393   8.989 -0.4812  1.3665  0.4000
  421MOL0     H55513  10.323   5.300   8.913  0.2642 -1.2777  2.7083
  421MOL0     H55514  10.377   5.390   9.037 -3.2944 -2.2617  0.5761
  421MOL0     H55515  10.376   5.455   8.736 -1.7305 -2.9976  0.7334
  421MOL0     H55516  10.376   5.598   8.854  3.1644  2.0109  0.0118
  421MOL0     H55517  10.600   5.392   8.846  1.3976 -0.1726  2.8231
  421MOL0     H55518  10.572   5.519   8.962  2.5386  0.8423 -0.3947
  421MOL0     H55519  10.613   5.687   8.796  4.2942  0.3736 -2.1737
  421MOL0     H55520  10.569   5.573   8.667 -4.4233 -4.7076  2.3766
  421MOL0     H55521  10.813   5.569   8.857 -2.0561 -0.5187  0.0426
  421MOL0     H55522  10.795   5.449   8.725  1.7403 -0.1209 -0.0972
  421MOL0     H55523  10.958   5.619   8.690  0.8269  2.1874 -0.4968
  421MOL0     H55524  10.835   5.748   8.717 -1.2718  0.0062 -0.4802
  421MOL0     H55525  10.915   5.437   8.501 -1.5558 -0.9296  1.0127
  421MOL0     H55526  10.948   5.443   8.218  0.7735  5.1763 -0.0100
  421MOL0     H55527  10.820   5.508   8.122 -0.8419 -0.6432 -0.4805
  421MOL0     H55528  10.638   5.384   8.243  0.7510  1.7617  0.5057
  421MOL0     H55529  10.756   5.279   8.319 -0.3387  0.6412 -0.1784
  421MOL0     H55530  10.679   5.316   8.027 -1.0518  0.4917  0.5632
  421MOL0     H55531  10.829   5.222   8.073  0.9404 -1.7059  1.6023
  421MOL0     H55532  10.654   5.077   8.028 -1.7252 -2.8896  0.8588
  421MOL0     H55533  10.563   5.153   8.163  0.6696  0.0113  0.0949
  421MOL0     H55534  10.520   4.903   8.072  2.3670  3.1446  0.3117
  421MOL0     H55535  10.473   4.671   8.068 -0.2552 -0.3451  0.1488
  421MOL0     H55536  10.919   4.278   8.206  0.4518 -1.2176 -3.0577
  421MOL0     H55537  10.936   4.075   8.116  0.4069  4.0687 -1.1808
  421MOL0     H55538  10.955   3.863   8.119 -1.6100  0.7519  1.1998
  421MOL0     H55539  10.852   3.813   7.990  1.0654  1.2643  0.2659
  421MOL0     H55540  10.919   3.590   8.046  0.2483  1.3473 -1.3817
  421MOL0     H55541  10.784   3.610   8.145  0.5973 -0.8351  2.8869
  421MOL0     H55542  10.904   3.575   8.327 -0.9995 -0.1410 -2.4010
  421MOL0     H55543  10.995   3.731   8.309 -1.9808  1.8922 -1.9638
  421MOL0     H55544  11.128   3.491   8.315 -0.2721 -2.1330 -0.5387
  421MOL0     H55545  11.057   3.476   8.160 -0.5704 -2.1165  3.7865
  421MOL0     H55546  11.266   3.683   8.243 -1.6043  0.8084 -1.0193
  421MOL0     H55547  11.206   3.662   8.075 -0.1568  0.2328 -0.9903
  421MOL0     H55548  11.266   3.433   8.081 -0.5625 -1.9981  2.2697
  421MOL0     H55549  11.326   3.429   8.235  1.6616 -3.3248 -1.6428
  421MOL0     H55550  11.446   3.575   7.992  3.2234  1.9471  0.1214
  421MOL0     H55551  11.505   3.623   8.154  1.5100  0.8403 -1.9316
  421MOL0     H55552  11.506   3.341   8.062 -1.7366  0.7870  0.8290
  421MOL0     H55553  11.606   3.417   8.193  1.1927 -1.3692 -0.7854
  421MOL0     H55554  10.530   3.974   8.251  1.3416 -0.8081 -0.9103
  421MOL0     H55555  10.498   4.214   8.281  1.0769 -0.4770  2.8502
  421MOL0     H55556  10.834   4.588   8.299  2.4335  1.2093  0.1399
  421MOL0     H55557  10.877   4.833   8.304  0.4205 -0.3923  0.5905
  421MOL0     H55558  10.066   5.440   9.255 -1.5350 -0.9391  1.0245
  421MOL0     H55559   9.851   5.335   9.320 -0.6512  0.1358 -0.4515
  421MOL0     H55560   9.379   5.432   9.152  2.0849 -1.1953  1.9762
  421MOL0     H55561   9.140   5.412   9.146 -3.4837  2.5586 -0.0775
  421MOL0     H55562   8.943   5.352   9.182 -2.0454  1.0128 -2.0758
  421MOL0     H55563   8.950   5.528   9.225 -0.3339  0.7983  1.7459
  421MOL0     H55564   8.719   5.454   9.172 -0.1092 -0.3589  1.0553
  421MOL0     H55565   8.737   5.340   9.310  2.3630 -1.5314 -0.0594
  421MOL0     H55566   8.769   5.535   9.463  0.8389  4.7135  0.1067
  421MOL0     H55567   8.608   5.510   9.403 -0.3750 -1.3315 -0.5002
  421MOL0     H55568   8.846   5.692   9.317 -0.1778  1.0583 -1.3385
  421MOL0     H55569   8.696   5.697   9.222 -1.7375 -3.6294 -0.2852
  421MOL0     H55570   8.640   5.909   9.613  2.9406  0.8270  1.2313
  421MOL0     H55571   9.120   5.403   9.580 -1.3772  0.0847 -0.7716
  421MOL0     H55572   9.375   5.453   9.581 -2.9262  1.0932  1.9104
  422MOL0     O55573   4.118   5.162   4.747  0.6160 -0.6236  0.0124
  422MOL0     C55574   4.105   5.066   4.819 -0.3235  0.9496 -0.7517
  422MOL0     O55575   3.994   4.983   4.832  0.2865 -0.2366  0.1184
  422MOL0     C55576   3.899   4.992   4.731  0.3281  0.3376  0.6085
  422MOL0     C55577   3.815   5.099   4.708  0.5501 -0.5133 -0.2861
  422MOL0     C55578   3.724   5.109   4.602  0.5775  0.7453  1.0180
  422MOL0     C55579   3.716   4.999   4.510 -0.4418 -0.0282  0.0961
  422MOL0     O55580   3.635   4.988   4.399  0.3669 -0.5338  0.3234
  422MOL0     C55581   3.548   5.094   4.379 -0.0617 -0.2630  0.1075
  422MOL0     C55582   3.438   5.032   4.284 -0.7090  0.7260  0.1958
  422MOL0     C55583   3.367   4.908   4.356  0.1145 -0.2595 -0.2228
  422MOL0     C55584   3.233   4.854   4.305 -0.7002 -0.9037  0.7812
  422MOL0     C55585   3.200   4.710   4.363 -0.1946  0.2646  0.2153
  422MOL0     C55586   3.168   4.713   4.518 -0.0946  0.0672 -0.7412
  422MOL0     C55587   3.109   4.584   4.573 -0.5871 -0.8955 -0.5113
  422MOL0     C55588   3.070   4.591   4.723  0.1235  0.1786 -0.1886
  422MOL0     N55589   3.031   4.465   4.780 -0.2002  0.4134 -0.6224
  422MOL0     C55590   3.114   4.372   4.833 -0.3587 -0.2035  0.8697
  422MOL0     C55591   3.034   4.272   4.875  0.7289  0.5125  1.1591
  422MOL0     C55592   3.080   4.151   4.958  0.4414  0.0009  1.3117
  422MOL0     C55593   3.013   4.010   4.923 -0.3637  0.2187  0.2336
  422MOL0     C55594   3.076   3.950   4.797 -0.5690 -0.4477  1.1941
  422MOL0     C55595   3.227   3.921   4.819 -0.2030  0.5110  1.0172
  422MOL0     O55596   3.261   3.784   4.802 -0.3532  0.2415 -0.0924
  422MOL0     C55597   3.374   3.730   4.866  0.8924  1.1755 -0.2928
  422MOL0     C55598   3.367   3.592   4.900 -0.1256 -0.9799 -0.0909
  422MOL0     C55599   3.470   3.526   4.953 -0.6308 -0.8934  0.6088
  422MOL0     C55600   3.587   3.602   4.987  0.1015 -0.5139  0.0563
  422MOL0     C55601   3.692   3.541   5.069  0.2696  0.6475 -0.3184
  422MOL0     O55602   3.674   3.410   5.117  0.4573 -0.3316 -0.4086
  422MOL0     C55603   3.763   3.352   5.206  0.1816 -0.1823 -0.5651
  422MOL0     C55604   3.705   3.285   5.307 -0.5337 -0.0606  0.2360
  422MOL0     C55605   3.789   3.211   5.396  0.8271  0.1331  0.6980
  422MOL0     C55606   3.929   3.210   5.380  0.5588  0.0350 -0.3300
  422MOL0     O55607   4.024   3.152   5.466 -0.1947  0.0359 -0.0241
  422MOL0     C55608   4.002   3.126   5.603 -0.0204  0.5235 -0.4971
  422MOL0     C55609   4.144   3.091   5.670 -0.1563 -0.7006 -0.2435
  422MOL0     C55610   4.253   3.193   5.641  0.2058  0.5974 -1.2738
  422MOL0     C55611   4.317   3.166   5.498 -0.0150 -0.0668  0.2551
  422MOL0     C55612   4.413   3.285   5.454  1.2400 -1.3837 -1.0075
  422MOL0     C55613   4.539   3.301   5.521 -0.3760 -0.4842 -0.0612
  422MOL0     C55614   4.628   3.188   5.472  0.1905 -0.1004 -0.1302
  422MOL0     C55615   4.688   3.216   5.336  0.2752 -0.5929 -0.4491
  422MOL0    Cl55616   4.834   3.323   5.345  0.0238  0.0098  0.0149
  422MOL0     C55617   3.987   3.286   5.276 -0.1767 -0.3985  0.5641
  422MOL0     C55618   3.902   3.359   5.184  0.0164  0.2427 -0.2313
  422MOL0     O55619   3.781   3.617   5.107 -0.1774  0.1094 -0.9262
  422MOL0     C55620   3.601   3.748   4.959  0.1034 -0.3395  0.1102
  422MOL0     C55621   3.490   3.803   4.891 -0.3074 -0.0853 -0.7452
  422MOL0     N55622   2.900   4.300   4.839  0.6051  0.1423 -0.2674
  422MOL0     N55623   2.900   4.421   4.792 -0.5565  0.1547 -0.0897
  422MOL0     C55624   3.801   4.889   4.535 -0.1862 -0.6716  0.8525
  422MOL0     C55625   3.886   4.882   4.645 -0.1408 -0.3089 -0.1519
  422MOL0     C55626   4.213   5.051   4.925 -0.5821  0.4714  0.4947
  422MOL0     C55627   4.310   5.150   4.924  0.8872  0.2733 -0.1342
  422MOL0     C55628   4.418   5.146   5.016 -0.0195  0.2426 -0.1917
  422MOL0     C55629   4.425   5.055   5.124 -0.1418  0.8919  0.7297
  422MOL0     O55630   4.519   5.054   5.219 -0.9095 -0.0030 -0.3123
  422MOL0     C55631   4.645   5.119   5.195  0.1256 -0.8683  0.0947
  422MOL0     C55632   4.728   5.044   5.089 -0.3375 -0.0713  0.0464
  422MOL0     C55633   4.783   4.908   5.141  0.2371 -0.2663 -0.6634
  422MOL0     C55634   4.882   4.908   5.251 -0.1694  0.2101  0.6257
  422MOL0     C55635   4.993   5.002   5.244 -0.7442 -0.0080 -0.1471
  422MOL0     C55636   5.096   5.064   5.234 -0.0313 -0.0805  0.0662
  422MOL0     C55637   4.336   4.954   5.115 -0.5443  0.5164 -0.3878
  422MOL0     C55638   4.228   4.947   5.020 -0.0787  0.1109 -1.0207
  422MOL0     H55639   3.814   5.184   4.775  1.9691  0.4993 -1.4829
  422MOL0     H55640   3.659   5.195   4.596 -1.5467 -0.5395  3.4688
  422MOL0     H55641   3.606   5.178   4.339  0.9462 -3.1076 -5.2607
  422MOL0     H55642   3.496   5.119   4.472 -0.8647 -0.5968 -0.2482
  422MOL0     H55643   3.477   4.988   4.192  0.7195 -0.5264  1.3325
  422MOL0     H55644   3.363   5.110   4.268 -0.9547  0.9689  2.2146
  422MOL0     H55645   3.339   4.937   4.458 -3.2772 -0.5078 -0.9541
  422MOL0     H55646   3.452   4.839   4.355  1.6605  1.5316  1.2442
  422MOL0     H55647   3.152   4.919   4.341 -0.6187 -0.9002  0.9596
  422MOL0     H55648   3.234   4.846   4.196  0.1319 -2.3115  0.8671
  422MOL0     H55649   3.292   4.655   4.341 -1.3518 -1.6795  0.0273
  422MOL0     H55650   3.116   4.668   4.308  1.0354  1.8311 -3.1387
  422MOL0     H55651   3.093   4.790   4.539 -0.0345 -0.4756  1.7947
  422MOL0     H55652   3.256   4.746   4.575 -0.6868  0.8630 -0.2505
  422MOL0     H55653   3.017   4.553   4.523 -2.8657  0.9218  2.2225
  422MOL0     H55654   3.182   4.504   4.562  0.2008 -0.4176  0.9554
  422MOL0     H55655   2.983   4.656   4.734  0.7325  0.8502  0.8211
  422MOL0     H55656   3.147   4.640   4.784 -0.5064  1.4152 -0.3627
  422MOL0     H55657   3.221   4.373   4.852 -0.6400 -2.6502  3.1658
  422MOL0     H55658   3.045   4.177   5.058  0.4349  4.0345  0.4466
  422MOL0     H55659   3.189   4.147   4.953  0.4137  0.3435 -0.3911
  422MOL0     H55660   2.904   4.000   4.915 -0.2364 -2.8542  1.0360
  422MOL0     H55661   3.052   3.952   5.007 -0.0146  1.0824  0.6821
  422MOL0     H55662   3.025   3.858   4.768 -3.8155  1.6324 -0.3127
  422MOL0     H55663   3.051   4.014   4.711 -1.9365 -2.8205 -0.2986
  422MOL0     H55664   3.254   3.961   4.917  1.9364 -1.8471  1.4782
  422MOL0     H55665   3.291   3.976   4.749 -1.5077  3.2325  1.8333
  422MOL0     H55666   3.282   3.542   4.854  1.6776 -1.0376 -3.7666
  422MOL0     H55667   3.467   3.419   4.972  2.4887 -1.0806  0.6261
  422MOL0     H55668   3.598   3.274   5.300 -0.7733  2.5471 -1.9560
  422MOL0     H55669   3.750   3.142   5.470  0.2202 -0.8463 -0.5074
  422MOL0     H55670   3.947   3.035   5.628  1.8500 -0.2884  0.9070
  422MOL0     H55671   3.944   3.201   5.658  1.4344 -0.0662  2.0060
  422MOL0     H55672   4.181   2.992   5.640  1.8013  0.6245 -2.4941
  422MOL0     H55673   4.133   3.079   5.778  3.1914 -3.5019 -0.0381
  422MOL0     H55674   4.329   3.195   5.720 -0.9302  4.2527 -0.0914
  422MOL0     H55675   4.217   3.296   5.647  2.3355  1.3477 -0.2968
  422MOL0     H55676   4.372   3.072   5.495  1.4722  0.7912 -0.7933
  422MOL0     H55677   4.237   3.164   5.424 -1.1194  0.8334  1.3620
  422MOL0     H55678   4.358   3.375   5.485  0.0847 -2.9895  2.0272
  422MOL0     H55679   4.433   3.280   5.347  2.2681  1.4986 -1.0446
  422MOL0     H55680   4.536   3.301   5.630  1.7325  1.0401  0.0731
  422MOL0     H55681   4.586   3.400   5.516 -2.5261  0.5776 -0.1388
  422MOL0     H55682   4.720   3.184   5.530  2.8052 -1.1305 -3.9730
  422MOL0     H55683   4.584   3.088   5.477  1.1068 -0.4685  1.1290
  422MOL0     H55684   4.612   3.251   5.266 -1.8318  1.5599  2.6490
  422MOL0     H55685   4.715   3.119   5.292  1.1300  0.2300 -1.8118
  422MOL0     H55686   4.095   3.291   5.266  0.4141 -2.7290  4.0644
  422MOL0     H55687   3.940   3.414   5.099  0.2471 -1.3345 -1.1989
  422MOL0     H55688   3.687   3.808   4.986  0.1933  1.4770 -3.5176
  422MOL0     H55689   3.500   3.905   4.856  1.7395 -0.7118 -2.1148
  422MOL0     H55690   3.798   4.794   4.483  1.1948 -0.2912  0.0199
  422MOL0     H55691   3.953   4.801   4.670  1.8582  0.4457 -2.6030
  422MOL0     H55692   4.307   5.232   4.853  4.5144 -1.1006 -2.0775
  422MOL0     H55693   4.500   5.218   5.012  0.3549  0.1458  3.1619
  422MOL0     H55694   4.698   5.133   5.290 -0.8306 -2.2298  0.8523
  422MOL0     H55695   4.634   5.222   5.158 -1.5180 -1.7867 -2.2020
  422MOL0     H55696   4.657   5.016   5.011 -0.6026  0.9540 -0.0917
  422MOL0     H55697   4.804   5.112   5.049  2.0832 -2.8408 -0.4679
  422MOL0     H55698   4.824   4.855   5.054 -1.1541 -2.4111 -0.1044
  422MOL0     H55699   4.689   4.861   5.171 -0.8812  3.4737  2.4688
  422MOL0     H55700   4.833   4.913   5.348 -1.8101 -0.1630 -0.1422
  422MOL0     H55701   4.942   4.818   5.235 -1.6783 -0.5227 -1.3893
  422MOL0     H55702   5.191   5.112   5.222 -0.0120  0.0005  0.5130
  422MOL0     H55703   4.358   4.878   5.189  0.0911 -1.2748 -2.3316
  422MOL0     H55704   4.169   4.856   5.022  0.9120 -0.5370 -0.6526
  423MOL0     O55705   3.454   8.218   3.822  0.5522  0.5378 -0.6277
  423MOL0     C55706   3.541   8.144   3.854 -0.9417  0.3545  0.2715
  423MOL0     O55707   3.601   8.126   3.984 -0.2465 -0.5888  0.6774
  423MOL0     C55708   3.551   8.214   4.080  0.4905  0.3454  1.2690
  423MOL0     C55709   3.630   8.296   4.160  0.4658  0.2549  0.0651
  423MOL0     C55710   3.575   8.378   4.254 -0.4822 -0.6806  0.0431
  423MOL0     C55711   3.439   8.381   4.282  0.7275 -0.3482  0.6088
  423MOL0     O55712   3.385   8.460   4.383 -0.2465  0.7678 -0.0108
  423MOL0     C55713   3.297   8.395   4.479 -0.2143 -1.1306  1.1472
  423MOL0     C55714   3.269   8.495   4.591 -0.3469  0.4420  0.6181
  423MOL0     C55715   3.156   8.597   4.557  0.2335  0.1080 -0.6297
  423MOL0     C55716   3.025   8.584   4.637  0.2320  0.2952 -0.4321
  423MOL0     C55717   2.923   8.699   4.604  0.2819 -1.0430 -1.1643
  423MOL0     C55718   2.922   8.781   4.741  0.4226 -0.2408  0.0078
  423MOL0     C55719   2.864   8.915   4.730 -0.4691  0.4648 -0.1331
  423MOL0     C55720   2.706   8.924   4.738 -0.1167 -0.2462 -0.0200
  423MOL0     N55721   2.627   8.881   4.627 -0.2819  0.4747  0.6946
  423MOL0     C55722   2.586   8.751   4.612  0.0836 -0.3644  0.0387
  423MOL0     C55723   2.549   8.750   4.481 -0.0235 -0.0189  1.1957
  423MOL0     C55724   2.476   8.638   4.397  0.0210  0.6282  0.1131
  423MOL0     C55725   2.327   8.660   4.381 -0.0616 -0.2533 -0.2784
  423MOL0     C55726   2.248   8.676   4.517 -0.4067  0.0225  0.5146
  423MOL0     C55727   2.230   8.536   4.579 -0.0938 -0.3756  0.4637
  423MOL0     O55728   2.125   8.466   4.516 -0.2086 -0.5497 -0.3301
  423MOL0     C55729   2.118   8.336   4.552 -0.9438  0.2694  0.2242
  423MOL0     C55730   2.182   8.265   4.648  1.2734  0.1416 -0.3557
  423MOL0     C55731   2.162   8.125   4.668 -0.3842 -0.4337  0.3475
  423MOL0     C55732   2.089   8.050   4.571 -0.2233 -0.9513 -0.2587
  423MOL0     C55733   2.089   7.909   4.582 -0.2693  0.5960  0.0061
  423MOL0     O55734   2.117   7.847   4.700 -0.8867  0.0031 -0.4192
  423MOL0     C55735   2.166   7.717   4.681  0.6724 -0.1994  0.0233
  423MOL0     C55736   2.274   7.675   4.608 -0.0434  0.5477 -0.6742
  423MOL0     C55737   2.307   7.539   4.600 -0.5825 -1.0276 -1.2177
  423MOL0     C55738   2.233   7.446   4.674 -0.3665  0.5979 -0.4845
  423MOL0     O55739   2.302   7.329   4.682  0.2474 -0.3106 -0.4775
  423MOL0     C55740   2.225   7.206   4.692 -0.8328 -0.2206  1.0983
  423MOL0     C55741   2.235   7.150   4.559  0.7671 -0.5002  0.7013
  423MOL0     C55742   2.122   7.209   4.474 -0.0009  0.8668  0.3829
  423MOL0     C55743   2.143   7.155   4.329 -0.0151 -0.9355 -0.0123
  423MOL0     C55744   2.162   7.006   4.299 -0.1917  0.2381 -0.8084
  423MOL0     C55745   2.120   6.983   4.153 -0.4965 -0.0120 -0.5826
  423MOL0     C55746   2.222   7.030   4.049  0.1250 -0.6983 -0.7642
  423MOL0     C55747   2.170   7.039   3.904 -0.1620 -0.3049 -0.5199
  423MOL0    Cl55748   2.316   7.035   3.805  0.3643  0.0691 -0.0248
  423MOL0     C55749   2.114   7.482   4.738 -0.1793 -0.1300 -0.4317
  423MOL0     C55750   2.082   7.616   4.743 -0.5051 -0.1283  0.4391
  423MOL0     O55751   2.050   7.845   4.479 -0.3831 -0.9312 -0.2732
  423MOL0     C55752   2.034   8.123   4.462  1.3589  0.0669  0.6646
  423MOL0     C55753   2.044   8.261   4.456 -0.4546  0.5082 -0.0718
  423MOL0     N55754   2.577   8.878   4.418 -0.1078  0.4111 -1.7119
  423MOL0     N55755   2.625   8.957   4.511 -0.5678 -0.5082  0.3848
  423MOL0     C55756   3.357   8.285   4.211 -0.2861  0.2520  0.7220
  423MOL0     C55757   3.413   8.211   4.115 -0.0582  0.5019 -0.1652
  423MOL0     C55758   3.589   8.053   3.744  0.0182  0.2507 -0.5121
  423MOL0     C55759   3.539   8.056   3.615 -0.0330  0.1076  0.6089
  423MOL0     C55760   3.577   7.972   3.517  0.0297 -0.2337 -0.0639
  423MOL0     C55761   3.669   7.866   3.551 -0.1207 -0.3111 -0.5600
  423MOL0     O55762   3.710   7.759   3.478 -0.8760 -0.9405  0.4530
  423MOL0     C55763   3.669   7.763   3.341 -1.0186 -0.1991 -0.3907
  423MOL0     C55764   3.771   7.680   3.267  0.4096 -0.1559 -0.0441
  423MOL0     C55765   3.733   7.701   3.116  0.6620 -0.4259  0.9031
  423MOL0     C55766   3.875   7.694   3.033 -0.0241  0.4886 -0.5945
  423MOL0     C55767   3.847   7.713   2.895  0.5167  0.3283 -0.9307
  423MOL0     C55768   3.810   7.736   2.785  0.5777 -0.9353  0.1506
  423MOL0     C55769   3.717   7.861   3.685 -0.0782  0.5246  1.2667
  423MOL0     C55770   3.663   7.938   3.781 -0.4128 -0.1332 -0.0799
  423MOL0     H55771   3.737   8.288   4.144  0.4284  0.6934 -0.4096
  423MOL0     H55772   3.641   8.440   4.314 -1.6397  0.6364 -0.0011
  423MOL0     H55773   3.347   8.306   4.519  7.1325  0.8092 -2.1928
  423MOL0     H55774   3.206   8.358   4.430 -1.2547  2.5685 -0.0412
  423MOL0     H55775   3.362   8.542   4.622 -0.6776  1.3506  0.2729
  423MOL0     H55776   3.215   8.452   4.676  2.3775  0.4840  2.4790
  423MOL0     H55777   3.134   8.588   4.450  0.1735  2.6835 -0.9066
  423MOL0     H55778   3.195   8.699   4.553 -2.6265  1.2980 -0.5075
  423MOL0     H55779   2.996   8.488   4.593  1.1699 -0.0515 -0.3108
  423MOL0     H55780   3.043   8.568   4.744  2.9751 -0.7422 -0.9739
  423MOL0     H55781   2.827   8.654   4.580  0.0144  0.1484 -2.4471
  423MOL0     H55782   2.960   8.754   4.517  1.8946 -2.2409 -1.2886
  423MOL0     H55783   3.027   8.795   4.767  0.9468  0.5243 -2.2990
  423MOL0     H55784   2.865   8.734   4.822  0.9082 -1.9163 -0.6000
  423MOL0     H55785   2.896   8.981   4.811 -1.0546  0.5182  0.0601
  423MOL0     H55786   2.888   8.961   4.634 -1.9686  2.3761  0.3419
  423MOL0     H55787   2.696   9.031   4.758  4.2615  0.5265 -0.7516
  423MOL0     H55788   2.675   8.879   4.832  0.9431 -1.5581 -0.2527
  423MOL0     H55789   2.569   8.673   4.686  1.3510  0.9500  1.7619
  423MOL0     H55790   2.498   8.548   4.454 -0.8170  0.5077  0.2628
  423MOL0     H55791   2.525   8.631   4.300  0.2773 -1.0867  0.3338
  423MOL0     H55792   2.282   8.577   4.326  2.2750 -3.8909  2.7331
  423MOL0     H55793   2.321   8.753   4.325  0.8681  0.5842  0.9617
  423MOL0     H55794   2.299   8.743   4.587 -2.5001 -0.1413  2.2867
  423MOL0     H55795   2.148   8.709   4.487 -0.8623 -1.4581  0.3084
  423MOL0     H55796   2.215   8.554   4.686 -1.8797  0.8029  0.0695
  423MOL0     H55797   2.322   8.478   4.569 -0.3261 -0.6201 -0.3090
  423MOL0     H55798   2.250   8.308   4.722  2.4510  2.0897 -2.4400
  423MOL0     H55799   2.210   8.092   4.760 -1.1744 -0.3667  0.7909
  423MOL0     H55800   2.337   7.748   4.559 -2.6117  0.3468 -4.7539
  423MOL0     H55801   2.396   7.513   4.544  0.8328  0.5140  0.1779
  423MOL0     H55802   2.119   7.229   4.704 -1.2681 -2.0922  1.1278
  423MOL0     H55803   2.254   7.128   4.763 -0.9400 -3.0332 -1.7415
  423MOL0     H55804   2.224   7.042   4.572  4.1929 -1.0706 -0.1636
  423MOL0     H55805   2.331   7.169   4.509 -0.0255  1.0179 -0.3069
  423MOL0     H55806   2.117   7.318   4.481  1.4678  1.0548 -0.9805
  423MOL0     H55807   2.032   7.167   4.519  2.8631 -3.1341  3.1031
  423MOL0     H55808   2.055   7.195   4.278  1.5470  0.8342 -1.5241
  423MOL0     H55809   2.231   7.201   4.282 -0.0315 -2.6378 -1.8495
  423MOL0     H55810   2.099   6.939   4.360  1.0990 -0.5376 -0.2822
  423MOL0     H55811   2.266   6.978   4.317 -0.0817  0.5617 -0.9396
  423MOL0     H55812   2.023   7.028   4.128 -0.3088  1.2404  0.7790
  423MOL0     H55813   2.098   6.876   4.149  1.4082 -0.4870  0.3685
  423MOL0     H55814   2.251   7.134   4.070 -0.8806 -0.8597  1.7365
  423MOL0     H55815   2.305   6.960   4.062 -1.0132 -2.2039 -1.4307
  423MOL0     H55816   2.106   7.127   3.899  0.0172 -0.2247 -1.8228
  423MOL0     H55817   2.111   6.948   3.891  0.6667 -1.5992  3.4598
  423MOL0     H55818   2.063   7.410   4.802  0.6622  0.8964  1.4770
  423MOL0     H55819   1.992   7.652   4.793 -1.1250  0.5229 -1.0907
  423MOL0     H55820   1.977   8.072   4.384 -0.8652  2.9594  0.2299
  423MOL0     H55821   1.999   8.317   4.374  0.1934  0.4850 -0.4470
  423MOL0     H55822   3.259   8.250   4.240  0.2152  0.0915  2.2802
  423MOL0     H55823   3.345   8.150   4.056  1.2053  2.4872 -4.0315
  423MOL0     H55824   3.469   8.135   3.590  1.1438  1.0712  0.2276
  423MOL0     H55825   3.549   7.978   3.413  3.9726 -1.9943 -1.4271
  423MOL0     H55826   3.661   7.865   3.302 -2.6844  0.3174  1.1901
  423MOL0     H55827   3.566   7.729   3.330 -1.7097  1.2962  0.9081
  423MOL0     H55828   3.867   7.724   3.295 -0.4281  2.2135 -0.6777
  423MOL0     H55829   3.750   7.577   3.298 -1.4368  0.5792  1.3783
  423MOL0     H55830   3.684   7.798   3.099 -0.7821 -1.2691  0.1029
  423MOL0     H55831   3.659   7.629   3.081  0.4773  0.1372  0.1241
  423MOL0     H55832   3.940   7.778   3.057 -0.7441  1.8119 -3.0119
  423MOL0     H55833   3.929   7.600   3.052  2.4018  1.9663  0.2135
  423MOL0     H55834   3.772   7.751   2.686 -0.7059  2.2956  0.9858
  423MOL0     H55835   3.788   7.783   3.710  1.2606  1.9412  2.0748
  423MOL0     H55836   3.706   7.918   3.878  1.4636 -0.8590 -1.0013
  424MOL0     O55837   3.715  10.883   5.354  0.7522 -0.6230 -0.7874
  424MOL0     C55838   3.786  10.924   5.264 -0.9860 -0.0919  0.6554
  424MOL0     O55839   3.889  11.010   5.281 -0.1299  0.0422 -0.6561
  424MOL0     C55840   3.885  11.096   5.387  0.3063  0.0425  0.6759
  424MOL0     C55841   3.795  11.204   5.390 -0.2304  0.2527 -0.3182
  424MOL0     C55842   3.808  11.307   5.492  0.3210 -0.0619  0.7171
  424MOL0     C55843   3.913  11.304   5.579 -0.3795 -0.0670 -0.2668
  424MOL0     O55844   3.939  11.395   5.682  0.0321 -0.1260 -0.1251
  424MOL0     C55845   4.017  11.508   5.640  0.1542  0.0354  0.4928
  424MOL0     C55846   3.992  11.628   5.742  0.0512  0.7634  0.7319
  424MOL0     C55847   3.875  11.610   5.838  0.3148 -0.2103  0.5816
  424MOL0     C55848   3.739  11.665   5.791  0.2950 -0.3518  1.0023
  424MOL0     C55849   3.620  11.588   5.856 -0.1652 -0.4603  0.4597
  424MOL0     C55850   3.488  11.639   5.787  0.5510 -0.1922  0.5892
  424MOL0     C55851   3.373  11.612   5.870 -0.0230  0.1093  0.4101
  424MOL0     C55852   3.236  11.660   5.816 -0.3180 -0.1744 -0.2960
  424MOL0     N55853   3.233  11.804   5.801  0.2868 -0.2947  0.0730
  424MOL0     C55854   3.220  11.897   5.899  0.3621  0.1785  0.6858
  424MOL0     C55855   3.221  12.021   5.828 -0.6526  0.1242 -0.9984
  424MOL0     C55856   3.229  12.161   5.868 -0.1245 -0.3719 -0.4295
  424MOL0     C55857   3.104  12.222   5.936 -1.1684 -0.4196  0.4141
  424MOL0     C55858   3.075  12.150   6.066 -0.2895 -0.1582 -0.3022
  424MOL0     C55859   2.930  12.166   6.116  0.8684 -0.0448 -0.8836
  424MOL0     O55860   2.889  12.311   6.122 -0.3794  0.3974  0.4562
  424MOL0     C55861   2.886  12.374   6.239 -0.5048  0.5581  0.4072
  424MOL0     C55862   2.811  12.323   6.347  0.0817 -1.0254  0.6920
  424MOL0     C55863   2.818  12.387   6.472  0.0459 -1.3444 -0.4692
  424MOL0     C55864   2.904  12.498   6.496 -0.6359 -0.3045 -0.2793
  424MOL0     C55865   2.900  12.559   6.634  0.4678  0.0357 -0.8793
  424MOL0     O55866   2.951  12.684   6.635 -0.1228  0.1786 -0.8133
  424MOL0     C55867   2.925  12.768   6.741  0.4286  0.3878  0.4152
  424MOL0     C55868   3.036  12.808   6.815  0.8810 -0.1740  0.3390
  424MOL0     C55869   3.011  12.886   6.924 -0.7062 -0.4005 -0.2541
  424MOL0     C55870   2.877  12.921   6.957 -0.2813 -0.1224  0.8157
  424MOL0     O55871   2.853  13.002   7.068  0.2152  0.3042 -0.4980
  424MOL0     C55872   2.878  12.923   7.186 -0.0640  0.2332  0.2966
  424MOL0     C55873   2.786  12.969   7.294  0.2492  0.5479  0.2629
  424MOL0     C55874   2.816  13.104   7.351  0.4174 -0.6292  0.2302
  424MOL0     C55875   2.682  13.155   7.424 -0.2473 -0.8594 -0.4297
  424MOL0     C55876   2.696  13.305   7.455 -0.0907 -0.0482  0.9356
  424MOL0     C55877   2.577  13.357   7.530 -0.4239 -0.6521 -0.6833
  424MOL0     C55878   2.537  13.505   7.492 -0.8358 -0.0176 -0.4523
  424MOL0     C55879   2.440  13.571   7.598 -0.1581 -0.1774  1.0781
  424MOL0    Cl55880   2.530  13.597   7.743 -0.1525  0.3534  0.4515
  424MOL0     C55881   2.765  12.876   6.886  0.1677 -0.2273 -0.8312
  424MOL0     C55882   2.790  12.797   6.777 -0.1491 -0.2818 -0.5720
  424MOL0     O55883   2.853  12.493   6.730  0.6573  0.2120  0.0452
  424MOL0     C55884   2.979  12.545   6.388 -0.3434 -0.5344  0.6667
  424MOL0     C55885   2.970  12.486   6.263  0.3236  0.0917  0.9047
  424MOL0     N55886   3.220  11.991   5.695 -0.8138  0.2694 -0.6819
  424MOL0     N55887   3.227  11.865   5.682 -0.4068  0.2670 -0.6796
  424MOL0     C55888   4.014  11.197   5.571  0.4002  0.4802 -0.1323
  424MOL0     C55889   4.002  11.093   5.478  0.0354 -0.7523 -0.0438
  424MOL0     C55890   3.771  10.865   5.130  0.1363  0.4037 -0.0265
  424MOL0     C55891   3.882  10.862   5.048 -0.5261 -1.1080  0.1946
  424MOL0     C55892   3.861  10.813   4.915 -0.4045 -0.3387 -1.3651
  424MOL0     C55893   3.740  10.777   4.857  0.1159 -0.5316  0.4120
  424MOL0     O55894   3.740  10.716   4.728 -0.7325 -0.6316 -0.5896
  424MOL0     C55895   3.614  10.717   4.656 -0.1177  0.7149  0.1047
  424MOL0     C55896   3.631  10.678   4.503  0.1236  0.1843  0.6319
  424MOL0     C55897   3.499  10.614   4.448  0.3043  0.7085 -0.0621
  424MOL0     C55898   3.502  10.572   4.301 -0.4107  0.5377  0.0648
  424MOL0     C55899   3.554  10.683   4.226 -0.1920 -0.3455  0.1505
  424MOL0     C55900   3.582  10.774   4.150 -0.1794  0.0212 -0.8538
  424MOL0     C55901   3.624  10.788   4.941  0.6755  0.3821 -0.3268
  424MOL0     C55902   3.647  10.824   5.072 -0.2099 -0.5149 -0.6897
  424MOL0     H55903   3.722  11.225   5.313  1.0453  3.5476 -0.7908
  424MOL0     H55904   3.731  11.384   5.492  0.5646  0.1881  1.2200
  424MOL0     H55905   3.980  11.536   5.541  1.2323 -0.1816  0.0089
  424MOL0     H55906   4.121  11.473   5.631  0.2193  0.0245  1.2346
  424MOL0     H55907   3.982  11.717   5.679 -0.0597  0.8028  0.8050
  424MOL0     H55908   4.077  11.633   5.810 -0.0014 -1.7016  1.0561
  424MOL0     H55909   3.894  11.681   5.919 -1.4918 -0.3443  1.1748
  424MOL0     H55910   3.863  11.509   5.879  1.2143 -0.9247 -0.8347
  424MOL0     H55911   3.736  11.773   5.805  0.2956  0.0561 -1.5719
  424MOL0     H55912   3.731  11.651   5.683 -1.3311 -0.6006  1.1322
  424MOL0     H55913   3.607  11.606   5.963  0.9245  2.4556  0.1998
  424MOL0     H55914   3.642  11.482   5.844  0.6509 -0.2274 -0.1860
  424MOL0     H55915   3.480  11.580   5.696  3.0666 -2.5231  1.7745
  424MOL0     H55916   3.484  11.747   5.766 -1.6040 -0.4826 -0.8586
  424MOL0     H55917   3.352  11.505   5.882 -1.3845  0.3473  0.2927
  424MOL0     H55918   3.397  11.663   5.964 -1.2739  0.5937  0.4808
  424MOL0     H55919   3.164  11.617   5.886  0.2684  3.8046  3.1363
  424MOL0     H55920   3.226  11.604   5.722  0.1513 -1.3469  0.3282
  424MOL0     H55921   3.217  11.885   6.007 -2.1581  0.3917  0.7033
  424MOL0     H55922   3.251  12.220   5.779  1.3850 -0.6480 -0.2656
  424MOL0     H55923   3.305  12.171   5.947  0.5024 -1.6250 -0.8456
  424MOL0     H55924   3.021  12.208   5.867  1.3470 -0.2918 -2.9213
  424MOL0     H55925   3.122  12.329   5.948  1.3616 -0.7135 -0.1668
  424MOL0     H55926   3.096  12.044   6.080  1.0210  0.0332 -0.6576
  424MOL0     H55927   3.136  12.202   6.141  0.5736  0.9336 -1.7028
  424MOL0     H55928   2.913  12.117   6.213  1.6532 -1.7107 -1.5408
  424MOL0     H55929   2.864  12.107   6.052  0.7576 -1.5181  0.5165
  424MOL0     H55930   2.750  12.238   6.318 -1.3526  0.3146 -0.3751
  424MOL0     H55931   2.766  12.354   6.562  2.6381  0.4894  1.8488
  424MOL0     H55932   3.133  12.769   6.786  0.0595 -0.5102 -2.1687
  424MOL0     H55933   3.094  12.919   6.987 -0.2287 -1.6365 -0.2021
  424MOL0     H55934   2.984  12.933   7.208  1.1687 -0.4533 -4.2989
  424MOL0     H55935   2.849  12.819   7.166  0.4674  0.6372 -3.3779
  424MOL0     H55936   2.805  12.897   7.374  3.4209 -1.6889 -2.2272
  424MOL0     H55937   2.686  12.958   7.250  1.4442 -1.5983 -2.2436
  424MOL0     H55938   2.838  13.173   7.270 -2.1722  2.0259  1.5848
  424MOL0     H55939   2.897  13.090   7.424 -0.5819 -2.1308  1.1139
  424MOL0     H55940   2.606  13.165   7.346  0.5174  1.4493 -0.9719
  424MOL0     H55941   2.649  13.094   7.508 -1.6952 -3.2609 -2.5988
  424MOL0     H55942   2.701  13.356   7.358  1.4814  3.5460  2.7282
  424MOL0     H55943   2.789  13.331   7.505  0.6625 -1.6928  0.4561
  424MOL0     H55944   2.603  13.347   7.636  0.2388  1.8103 -0.5491
  424MOL0     H55945   2.483  13.301   7.524  0.6717 -3.0411  1.8914
  424MOL0     H55946   2.621  13.574   7.492 -0.9114  0.0992 -1.7947
  424MOL0     H55947   2.493  13.507   7.391  1.6461  1.5408 -1.5800
  424MOL0     H55948   2.358  13.503   7.620 -1.2330  0.2159 -1.3974
  424MOL0     H55949   2.400  13.667   7.566 -3.4474 -2.0397 -0.8714
  424MOL0     H55950   2.668  12.912   6.917  1.2328  2.3346 -0.2284
  424MOL0     H55951   2.710  12.751   6.719 -0.5869  0.3893 -0.5163
  424MOL0     H55952   3.029  12.641   6.400 -0.7702 -0.5128  2.8574
  424MOL0     H55953   3.024  12.522   6.175 -1.7686  0.1811 -0.4069
  424MOL0     H55954   4.093  11.197   5.645 -1.3977 -0.0511  1.9034
  424MOL0     H55955   4.076  11.016   5.461 -0.6976 -0.7901 -3.8815
  424MOL0     H55956   3.984  10.880   5.080 -0.5955 -1.8833  0.8967
  424MOL0     H55957   3.954  10.796   4.862  2.5889  3.2503  2.0967
  424MOL0     H55958   3.560  10.812   4.664 -1.7815 -0.2790  1.3005
  424MOL0     H55959   3.548  10.640   4.698  1.1734 -0.0387  0.8181
  424MOL0     H55960   3.657  10.774   4.458 -0.5469  0.2033  0.2566
  424MOL0     H55961   3.713  10.608   4.487  0.4391  1.0000 -1.7077
  424MOL0     H55962   3.407  10.672   4.462 -1.7463 -2.9747  4.1277
  424MOL0     H55963   3.470  10.525   4.504 -1.5547  0.0695 -1.9116
  424MOL0     H55964   3.582  10.498   4.291  2.0951  3.1223 -0.7397
  424MOL0     H55965   3.415  10.536   4.246  2.7372 -4.8156 -2.1785
  424MOL0     H55966   3.626  10.855   4.096  0.3331 -0.9753 -1.9924
  424MOL0     H55967   3.524  10.779   4.900 -0.1898  1.8955  1.2922
  424MOL0     H55968   3.556  10.829   5.132  0.1506  1.1165 -0.2396
  425MOL0     O55969   9.882   0.042   7.252  0.2485 -0.2338  0.0952
  425MOL0     C55970   9.965   0.135   7.268  0.0262  0.9929 -0.4712
  425MOL0     O55971  10.097   0.129   7.256  0.0749 -0.4621  0.6208
  425MOL0     C55972  10.149   0.002   7.238  0.8131 -0.0623  0.8489
  425MOL0     C55973  10.177  -0.071   7.353 -1.2182  0.6933 -0.1109
  425MOL0     C55974  10.232  -0.196   7.346  0.2368  0.5689  0.2726
  425MOL0     C55975  10.260  -0.253   7.225  0.4824  0.5210 -0.1408
  425MOL0     O55976  10.324  -0.380   7.207  0.6914 -0.5720 -0.5149
  425MOL0     C55977  10.324  -0.473   7.314 -0.4204  0.1224 -0.5164
  425MOL0     C55978  10.353  -0.621   7.265 -0.2037  0.2479 -0.6514
  425MOL0     C55979  10.436  -0.626   7.134 -0.0990  0.4735  0.7327
  425MOL0     C55980  10.484  -0.770   7.097  0.1673  0.4344 -0.1934
  425MOL0     C55981  10.414  -0.820   6.972  0.5737  0.5782 -0.3965
  425MOL0     C55982  10.448  -0.958   6.918 -1.2716  0.2324  1.3293
  425MOL0     C55983  10.398  -0.989   6.776  0.6786  0.1140  1.4121
  425MOL0     C55984  10.397  -1.142   6.751  0.0839  0.5165 -0.4841
  425MOL0     N55985  10.526  -1.200   6.754  1.2288 -0.9286  0.0512
  425MOL0     C55986  10.595  -1.233   6.646  1.3466 -1.0141 -0.6755
  425MOL0     C55987  10.713  -1.265   6.699 -0.0902 -0.2329 -0.6631
  425MOL0     C55988  10.835  -1.279   6.615 -0.8304  0.2887 -0.5297
  425MOL0     C55989  10.869  -1.142   6.562 -0.0610  0.3289 -0.6950
  425MOL0     C55990  10.897  -1.037   6.678  0.6067 -0.7123 -0.1014
  425MOL0     C55991  11.022  -1.065   6.761  0.0483 -0.5302  0.2100
  425MOL0     O55992  11.122  -1.117   6.672  0.3295 -0.1797 -0.6474
  425MOL0     C55993  11.251  -1.098   6.701  0.7307  0.4572 -0.3676
  425MOL0     C55994  11.341  -1.123   6.595 -0.0861  1.4014  0.2198
  425MOL0     C55995  11.477  -1.094   6.613 -0.7398 -0.7045 -1.0426
  425MOL0     C55996  11.517  -1.036   6.741  0.2265  0.6497 -0.4409
  425MOL0     C55997  11.662  -0.985   6.758 -0.7511 -0.3105 -1.2265
  425MOL0     O55998  11.677  -0.915   6.878 -0.0364 -0.9514 -0.2869
  425MOL0     C55999  11.801  -0.870   6.927 -0.1990 -0.0374 -0.0698
  425MOL0     C56000  11.788  -0.767   7.019 -0.0132 -0.5378 -0.2256
  425MOL0     C56001  11.898  -0.705   7.075 -0.0611 -0.1904  0.7935
  425MOL0     C56002  12.030  -0.744   7.025  0.0414  0.6499  0.7415
  425MOL0     O56003  12.143  -0.685   7.059  0.1270  0.2053  0.3354
  425MOL0     C56004  12.197  -0.708   7.191  0.3427  0.7613  1.0707
  425MOL0     C56005  12.354  -0.736   7.173  0.0562 -0.1301  0.1745
  425MOL0     C56006  12.420  -0.813   7.290 -0.6627 -0.5051  0.1919
  425MOL0     C56007  12.570  -0.837   7.274 -0.2424 -0.4565  0.3130
  425MOL0     C56008  12.639  -0.859   7.403  1.0463 -0.0005 -0.7679
  425MOL0     C56009  12.651  -0.995   7.453 -0.0591  0.9663 -0.8017
  425MOL0     C56010  12.522  -1.067   7.443 -0.4441  0.3614  0.6346
  425MOL0     C56011  12.524  -1.193   7.518  0.1918 -0.0762 -0.2755
  425MOL0    Cl56012  12.351  -1.254   7.500 -0.4000  0.0597 -0.0753
  425MOL0     C56013  12.039  -0.849   6.932  0.0714  0.1008 -0.5783
  425MOL0     C56014  11.931  -0.922   6.890 -0.0659  0.0023 -0.9905
  425MOL0     O56015  11.746  -1.012   6.677  0.5749 -0.4512 -0.3422
  425MOL0     C56016  11.428  -1.015   6.847 -0.2295 -0.0029  0.2933
  425MOL0     C56017  11.299  -1.048   6.824  0.1951  0.8352 -0.4754
  425MOL0     N56018  10.717  -1.239   6.840  0.4502  1.0281  0.2760
  425MOL0     N56019  10.600  -1.215   6.873  0.5225  0.0482 -0.2730
  425MOL0     C56020  10.211  -0.187   7.103  0.6662  0.6072 -0.6458
  425MOL0     C56021  10.157  -0.056   7.113  0.7206 -0.2029 -0.5793
  425MOL0     C56022   9.924   0.261   7.329 -0.2250 -0.0797  0.7867
  425MOL0     C56023   9.792   0.288   7.352 -0.3507 -0.2969  0.2083
  425MOL0     C56024   9.748   0.406   7.420  0.0177  0.1194  0.6309
  425MOL0     C56025   9.843   0.490   7.476  1.0439  0.5583  0.4650
  425MOL0     O56026   9.785   0.587   7.559  0.4046 -0.1208 -0.6183
  425MOL0     C56027   9.884   0.661   7.640  1.0596  0.7181  0.2511
  425MOL0     C56028   9.814   0.762   7.724  0.6558  0.1699  0.8128
  425MOL0     C56029   9.740   0.869   7.637 -0.6634  1.5024  1.1065
  425MOL0     C56030   9.656   0.975   7.710 -0.1855  0.5366  0.1289
  425MOL0     C56031   9.739   1.078   7.769  0.3009  0.3161  0.4470
  425MOL0     C56032   9.814   1.158   7.820 -0.4154  0.1543 -0.3134
  425MOL0     C56033   9.976   0.468   7.454  1.8370  0.2932  0.0383
  425MOL0     C56034  10.023   0.355   7.380  0.0286 -0.3263 -0.2590
  425MOL0     H56035  10.168  -0.014   7.445  1.4365  0.1653  0.5378
  425MOL0     H56036  10.263  -0.249   7.435  0.3185  1.1502  0.6006
  425MOL0     H56037  10.230  -0.458   7.368 -0.8349  1.8803 -1.6488
  425MOL0     H56038  10.396  -0.429   7.383 -1.1236  2.5000 -1.2067
  425MOL0     H56039  10.253  -0.661   7.247  0.2479 -1.2054 -0.0515
  425MOL0     H56040  10.404  -0.673   7.347 -1.8887  1.6091  1.3413
  425MOL0     H56041  10.522  -0.558   7.145 -1.7794  2.8312  0.0988
  425MOL0     H56042  10.378  -0.581   7.053 -2.3394  0.8869  2.4756
  425MOL0     H56043  10.593  -0.765   7.087  0.1570 -1.4455 -2.0504
  425MOL0     H56044  10.459  -0.837   7.180 -2.6177 -1.4004 -2.3467
  425MOL0     H56045  10.409  -0.744   6.894 -1.6172  0.5646 -0.3433
  425MOL0     H56046  10.307  -0.824   6.994 -0.4528 -0.2707 -4.6561
  425MOL0     H56047  10.447  -1.039   6.993  0.7157  1.4294  2.7651
  425MOL0     H56048  10.556  -0.942   6.905 -1.3774 -0.4177 -0.7233
  425MOL0     H56049  10.294  -0.959   6.760  0.1449  0.8055  5.2009
  425MOL0     H56050  10.456  -0.936   6.699 -2.4316  0.8873 -0.5802
  425MOL0     H56051  10.362  -1.158   6.648  2.8524 -1.2821 -1.2626
  425MOL0     H56052  10.330  -1.182   6.828  1.8237 -0.5217  0.5449
  425MOL0     H56053  10.571  -1.222   6.541 -0.7243  2.4483  0.0041
  425MOL0     H56054  10.812  -1.353   6.538 -4.9782 -2.4669  2.8622
  425MOL0     H56055  10.915  -1.321   6.677 -2.2345 -0.1923  1.0644
  425MOL0     H56056  10.783  -1.112   6.502 -0.3888  2.6100  0.7947
  425MOL0     H56057  10.943  -1.142   6.481 -0.8394 -0.5662 -1.4233
  425MOL0     H56058  10.899  -0.930   6.653  1.2251  0.7809  5.1535
  425MOL0     H56059  10.810  -1.035   6.744  0.6691 -1.1523 -0.0036
  425MOL0     H56060  11.010  -1.136   6.844 -1.7067  0.4575  0.8404
  425MOL0     H56061  11.055  -0.969   6.802 -3.4224  0.5623  0.7658
  425MOL0     H56062  11.317  -1.179   6.505  0.1436 -2.4034  2.3274
  425MOL0     H56063  11.557  -1.114   6.542 -0.0103 -1.0212 -0.1498
  425MOL0     H56064  11.687  -0.735   7.041  0.1735  1.1194 -1.5590
  425MOL0     H56065  11.901  -0.620   7.143  0.0328  0.3460  0.1361
  425MOL0     H56066  12.152  -0.796   7.238 -2.0874  2.1605  1.5282
  425MOL0     H56067  12.172  -0.625   7.258 -0.4349 -1.3102  3.5438
  425MOL0     H56068  12.408  -0.642   7.158  0.3158 -0.2637  0.2576
  425MOL0     H56069  12.364  -0.794   7.081 -1.3510 -0.7482  0.3845
  425MOL0     H56070  12.366  -0.908   7.300 -1.3674 -0.2992 -1.3000
  425MOL0     H56071  12.408  -0.745   7.374  1.2782 -1.0726  0.9717
  425MOL0     H56072  12.597  -0.917   7.205 -0.7099  0.5380 -1.0741
  425MOL0     H56073  12.614  -0.753   7.218 -0.1036 -1.4926 -1.1860
  425MOL0     H56074  12.583  -0.799   7.475  0.7914  0.4985 -1.3694
  425MOL0     H56075  12.742  -0.822   7.401  0.4807  1.7090 -0.2527
  425MOL0     H56076  12.675  -0.996   7.560 -0.0373 -2.7814 -0.6946
  425MOL0     H56077  12.731  -1.059   7.413 -1.4815 -1.9196  0.6928
  425MOL0     H56078  12.446  -0.998   7.483  1.0831  2.3351  0.2936
  425MOL0     H56079  12.495  -1.086   7.339 -0.3043 -1.0790  0.8487
  425MOL0     H56080  12.558  -1.172   7.620 -0.3583 -1.8584  0.3140
  425MOL0     H56081  12.589  -1.271   7.478 -2.6517 -1.6638 -2.2192
  425MOL0     H56082  12.134  -0.867   6.883  0.0400 -0.7442 -0.3369
  425MOL0     H56083  11.940  -1.003   6.818  0.4270  1.0290 -2.1096
  425MOL0     H56084  11.456  -0.988   6.948 -2.6353 -1.1878  1.3582
  425MOL0     H56085  11.229  -1.023   6.903 -0.2628  0.7229 -0.8365
  425MOL0     H56086  10.226  -0.229   7.004 -0.7536  3.0792 -2.0115
  425MOL0     H56087  10.143   0.019   7.036  0.1227  0.6098  0.3023
  425MOL0     H56088   9.722   0.215   7.314  0.6207 -1.2613  0.2063
  425MOL0     H56089   9.641   0.425   7.419 -0.5034 -2.3336 -0.9873
  425MOL0     H56090   9.958   0.701   7.571  3.1419 -0.1964  1.8606
  425MOL0     H56091   9.941   0.592   7.703 -0.5455  0.4720  1.4978
  425MOL0     H56092   9.740   0.711   7.787  0.0943 -1.1697 -0.8704
  425MOL0     H56093   9.896   0.811   7.778  1.4547 -0.6599  0.3600
  425MOL0     H56094   9.663   0.829   7.570 -1.5616 -0.4838  3.1743
  425MOL0     H56095   9.810   0.918   7.569 -0.5169 -0.1726 -0.0032
  425MOL0     H56096   9.590   1.024   7.637  2.2773  1.8428 -1.3526
  425MOL0     H56097   9.594   0.921   7.783 -0.2555 -0.2988 -0.5388
  425MOL0     H56098   9.872   1.217   7.888  1.7258 -0.9055 -1.1327
  425MOL0     H56099  10.051   0.542   7.481  1.1259  0.6023  1.2188
  425MOL0     H56100  10.131   0.341   7.373  0.3885  1.9057  0.2323
  426MOL0     O56101  10.467   9.387   4.548  0.2101  0.3832 -0.2929
  426MOL0     C56102  10.570   9.320   4.529  0.2166  0.4666  0.9587
  426MOL0     O56103  10.583   9.180   4.520  0.1881 -0.5710 -0.4144
  426MOL0     C56104  10.472   9.100   4.532  0.0919  0.1737  0.1488
  426MOL0     C56105  10.341   9.128   4.487  0.2175  1.1172 -0.3146
  426MOL0     C56106  10.237   9.043   4.510 -0.5899 -0.1680  0.6029
  426MOL0     C56107  10.271   8.923   4.572  0.1071  0.2282  0.4011
  426MOL0     O56108  10.179   8.827   4.601 -0.3440 -0.5512  0.1488
  426MOL0     C56109  10.192   8.715   4.508 -0.0375 -0.7425  0.3417
  426MOL0     C56110  10.141   8.589   4.575  0.3641 -0.2945  1.4247
  426MOL0     C56111  10.173   8.464   4.485  0.1309  0.1034 -0.1489
  426MOL0     C56112  10.097   8.335   4.521 -0.6661 -1.0835  0.1438
  426MOL0     C56113  10.123   8.214   4.433 -0.3536  0.2932  0.9922
  426MOL0     C56114  10.095   8.222   4.292 -0.4193 -0.9309  0.5588
  426MOL0     C56115   9.947   8.241   4.241 -0.0425  0.3217  0.7681
  426MOL0     C56116   9.856   8.111   4.244 -0.3293  0.2575 -0.0536
  426MOL0     N56117   9.738   8.133   4.158 -0.0782  0.3178  0.0299
  426MOL0     C56118   9.739   8.159   4.024 -0.0460 -1.0691 -0.0609
  426MOL0     C56119   9.613   8.131   3.977  0.3230  0.5397 -0.1231
  426MOL0     C56120   9.575   8.119   3.830 -0.8472  0.3306 -0.4863
  426MOL0     C56121   9.631   7.992   3.771  0.5807 -0.0341  0.6528
  426MOL0     C56122   9.564   7.866   3.827 -0.0956  0.6702  0.3129
  426MOL0     C56123   9.418   7.848   3.807 -0.2043  0.1366 -0.7300
  426MOL0     O56124   9.367   7.726   3.868 -0.0296  0.8644 -0.9964
  426MOL0     C56125   9.360   7.627   3.768  0.2127  0.2363  0.8027
  426MOL0     C56126   9.463   7.532   3.755 -0.5591 -0.4408 -0.1857
  426MOL0     C56127   9.468   7.426   3.664  0.3994 -0.0732  0.2220
  426MOL0     C56128   9.354   7.418   3.574  0.4846 -0.1268 -0.7015
  426MOL0     C56129   9.341   7.304   3.471  0.0520 -0.0661 -0.8615
  426MOL0     O56130   9.439   7.208   3.465 -0.2030 -0.1669 -0.1961
  426MOL0     C56131   9.423   7.126   3.355 -0.1958  0.4648  0.0079
  426MOL0     C56132   9.345   7.011   3.347 -0.2600  0.2423  1.0419
  426MOL0     C56133   9.329   6.937   3.227  0.5845  0.2396  0.0983
  426MOL0     C56134   9.392   6.974   3.114 -0.2002  0.7174  0.5654
  426MOL0     O56135   9.392   6.891   2.999 -0.2343 -0.2612 -0.2588
  426MOL0     C56136   9.406   6.955   2.873 -0.7244  0.0529  0.4676
  426MOL0     C56137   9.375   6.849   2.759 -0.2254  0.2330 -0.0318
  426MOL0     C56138   9.472   6.732   2.756 -0.0389  0.4853  0.0366
  426MOL0     C56139   9.434   6.641   2.632  0.0896 -1.0033  0.5400
  426MOL0     C56140   9.489   6.687   2.497  0.8490  1.4373  0.7300
  426MOL0     C56141   9.479   6.580   2.387  0.0455  0.3919  0.9315
  426MOL0     C56142   9.382   6.625   2.267 -0.7194  0.5763 -1.1341
  426MOL0     C56143   9.408   6.539   2.147  0.1361  0.3492  0.0963
  426MOL0    Cl56144   9.562   6.610   2.070 -0.3091 -0.1677 -0.3666
  426MOL0     C56145   9.479   7.083   3.127 -0.1126  0.6949 -0.1256
  426MOL0     C56146   9.499   7.151   3.242 -0.0769  0.3958  0.1866
  426MOL0     O56147   9.245   7.305   3.399 -0.1954  0.4058  0.1251
  426MOL0     C56148   9.255   7.516   3.578  0.0566  0.0866 -0.3293
  426MOL0     C56149   9.259   7.618   3.675  1.0746  0.9207  1.0540
  426MOL0     N56150   9.530   8.094   4.086  0.1088  0.1833 -0.3912
  426MOL0     N56151   9.609   8.113   4.192  0.2042 -0.8516 -0.0266
  426MOL0     C56152  10.396   8.894   4.611  0.0047  0.1017  0.3142
  426MOL0     C56153  10.504   8.977   4.594  0.0313  0.2951 -0.1666
  426MOL0     C56154  10.686   9.395   4.515  0.2248 -0.2931  0.5438
  426MOL0     C56155  10.801   9.330   4.515 -0.1060  1.6924  0.4037
  426MOL0     C56156  10.926   9.377   4.500 -0.7787 -0.3759 -0.3437
  426MOL0     C56157  10.933   9.525   4.480 -1.2374 -0.7670  0.2873
  426MOL0     O56158  11.065   9.573   4.477 -0.9396  0.2687 -0.0663
  426MOL0     C56159  11.090   9.703   4.424 -0.0379  0.3065  0.5227
  426MOL0     C56160  11.247   9.727   4.435 -0.2125 -0.2637 -0.4387
  426MOL0     C56161  11.271   9.746   4.583 -0.1803  0.4146  1.0170
  426MOL0     C56162  11.422   9.775   4.614  0.1554 -0.1597  0.7605
  426MOL0     C56163  11.446   9.837   4.749  1.2504 -1.7375 -0.2625
  426MOL0     C56164  11.481   9.882   4.858  0.2682 -0.7089  0.2978
  426MOL0     C56165  10.812   9.598   4.469 -0.4267  0.3148  0.0914
  426MOL0     C56166  10.693   9.531   4.486  0.7205  0.2317  0.2112
  426MOL0     H56167  10.329   9.220   4.430  1.0676  0.4171 -1.6516
  426MOL0     H56168  10.138   9.063   4.470  0.8893  2.2592 -2.2185
  426MOL0     H56169  10.299   8.696   4.498  0.1002 -0.9959  2.0385
  426MOL0     H56170  10.138   8.739   4.416 -1.7572  3.4450  2.1701
  426MOL0     H56171  10.032   8.594   4.583  0.0793 -0.2884 -1.4848
  426MOL0     H56172  10.187   8.585   4.674 -0.0857  3.6035  1.9611
  426MOL0     H56173  10.277   8.445   4.455  0.4401  0.7435  0.4791
  426MOL0     H56174  10.136   8.481   4.384 -2.4610 -1.1888  0.4994
  426MOL0     H56175  10.132   8.312   4.621  1.3022  1.0428  0.0267
  426MOL0     H56176   9.989   8.349   4.534 -0.9383 -0.6212 -2.1845
  426MOL0     H56177  10.063   8.135   4.478 -0.2092 -0.4664 -0.1292
  426MOL0     H56178  10.224   8.174   4.444  0.0591  1.5376  2.1621
  426MOL0     H56179  10.124   8.130   4.241 -0.9155 -1.4803  1.2417
  426MOL0     H56180  10.148   8.310   4.254 -3.8382  0.3817 -1.6576
  426MOL0     H56181   9.892   8.320   4.293 -1.6063 -0.3785  0.2382
  426MOL0     H56182   9.963   8.259   4.134  0.1680 -1.0303  0.5553
  426MOL0     H56183   9.826   8.095   4.348 -0.0851 -0.3148 -0.0686
  426MOL0     H56184   9.922   8.031   4.209 -0.1675 -0.4105  1.6755
  426MOL0     H56185   9.824   8.138   3.960 -0.5839 -0.3369 -1.0414
  426MOL0     H56186   9.602   8.214   3.783  2.4291 -1.1338 -1.8550
  426MOL0     H56187   9.467   8.110   3.816 -0.7489 -0.2728 -0.9063
  426MOL0     H56188   9.738   7.985   3.794  0.6375  1.6798  0.9936
  426MOL0     H56189   9.624   8.008   3.663  2.0033  1.7549  0.7785
  426MOL0     H56190   9.611   7.790   3.764  0.8730  0.6321  1.0616
  426MOL0     H56191   9.595   7.860   3.932 -3.5555 -1.3605  1.3764
  426MOL0     H56192   9.393   7.856   3.701 -4.6647 -1.9601 -0.0626
  426MOL0     H56193   9.373   7.932   3.859 -1.3106 -0.4516 -0.6999
  426MOL0     H56194   9.551   7.546   3.818 -3.1996  0.4937  3.6666
  426MOL0     H56195   9.553   7.359   3.663 -0.0817 -0.6923 -0.1009
  426MOL0     H56196   9.281   6.986   3.431  1.0360 -0.1974  1.9428
  426MOL0     H56197   9.262   6.851   3.231  0.0355  0.6047 -1.0454
  426MOL0     H56198   9.507   6.992   2.853 -0.9559  2.0107  2.5439
  426MOL0     H56199   9.340   7.040   2.851 -0.5347 -0.6160 -3.2804
  426MOL0     H56200   9.386   6.907   2.667 -1.4829 -0.7018 -0.7878
  426MOL0     H56201   9.271   6.821   2.775 -1.4822  3.6658 -1.1396
  426MOL0     H56202   9.462   6.670   2.845  0.0024 -0.5041 -0.6379
  426MOL0     H56203   9.576   6.767   2.745 -0.2503  0.5157 -2.2764
  426MOL0     H56204   9.478   6.543   2.652  4.4507  0.7906  1.0408
  426MOL0     H56205   9.326   6.632   2.624  0.2421 -1.6741 -1.3189
  426MOL0     H56206   9.593   6.718   2.512  1.1627 -0.1065  1.9799
  426MOL0     H56207   9.431   6.771   2.456 -0.5498 -0.1411 -0.6659
  426MOL0     H56208   9.432   6.493   2.435  1.2427 -2.2294 -2.2789
  426MOL0     H56209   9.577   6.544   2.357  0.2809  3.3280 -2.4464
  426MOL0     H56210   9.278   6.620   2.299  0.1784 -2.9824  1.9254
  426MOL0     H56211   9.396   6.729   2.236 -2.5680  2.4610  3.4118
  426MOL0     H56212   9.322   6.551   2.081 -0.4216 -4.3223 -0.4052
  426MOL0     H56213   9.419   6.434   2.176  0.6486  1.1051  3.0006
  426MOL0     H56214   9.546   7.101   3.044 -1.9297 -2.5868 -2.5682
  426MOL0     H56215   9.558   7.241   3.254  1.2151 -0.3397 -0.4946
  426MOL0     H56216   9.165   7.519   3.518 -0.2070 -2.7378 -0.2160
  426MOL0     H56217   9.169   7.679   3.671 -0.7493 -1.6091 -3.2081
  426MOL0     H56218  10.418   8.799   4.659  1.1846 -0.4831 -1.3134
  426MOL0     H56219  10.600   8.961   4.642 -1.3254 -0.1827  2.6009
  426MOL0     H56220  10.816   9.226   4.540 -0.9981  1.0160 -1.6405
  426MOL0     H56221  11.015   9.315   4.506 -1.1031 -0.9651 -1.4054
  426MOL0     H56222  11.040   9.781   4.482  0.1675 -0.9827  2.5349
  426MOL0     H56223  11.064   9.714   4.318 -1.8362 -1.2884  0.7529
  426MOL0     H56224  11.310   9.644   4.403 -1.1867 -0.7146 -1.2475
  426MOL0     H56225  11.286   9.819   4.390 -1.4823  1.0118  0.9552
  426MOL0     H56226  11.254   9.648   4.628  1.7052  0.0153  0.9520
  426MOL0     H56227  11.216   9.834   4.617 -2.3801 -0.7791  0.6820
  426MOL0     H56228  11.465   9.674   4.618  2.6039  0.8443  2.0307
  426MOL0     H56229  11.473   9.828   4.534  0.6859 -2.7206 -0.7165
  426MOL0     H56230  11.523   9.921   4.948 -0.0403  1.3282 -0.3950
  426MOL0     H56231  10.819   9.704   4.447 -0.2716  0.5630  1.2852
  426MOL0     H56232  10.605   9.593   4.475  0.1318 -0.5164  0.6219
  427MOL0     O56233   0.663   3.608   2.171 -0.6500 -0.9223  0.8281
  427MOL0     C56234   0.629   3.583   2.279 -0.2467  0.5155  0.1898
  427MOL0     O56235   0.507   3.597   2.321  0.2725  1.1128  0.0194
  427MOL0     C56236   0.415   3.627   2.222 -0.4875  0.1792  0.4141
  427MOL0     C56237   0.395   3.762   2.185  0.0570 -0.4749  0.2085
  427MOL0     C56238   0.306   3.786   2.080 -0.3316 -0.9117  1.7598
  427MOL0     C56239   0.223   3.681   2.023 -0.6583 -0.3597 -0.5857
  427MOL0     O56240   0.133   3.714   1.924  0.5623  0.1568 -0.5605
  427MOL0     C56241   0.099   3.626   1.818 -0.4694  0.7822  1.0961
  427MOL0     C56242   0.217   3.590   1.728  0.4562  0.1360  0.5451
  427MOL0     C56243   0.232   3.431   1.697  0.1837 -0.6723  0.3680
  427MOL0     C56244   0.346   3.400   1.599 -0.3924 -0.2080 -0.7016
  427MOL0     C56245   0.342   3.256   1.549 -0.5589  0.1368  1.3267
  427MOL0     C56246   0.448   3.229   1.433 -0.4703  0.1030 -0.3826
  427MOL0     C56247   0.388   3.254   1.295  0.8166 -0.4029 -0.2139
  427MOL0     C56248   0.475   3.201   1.189  0.0516  0.1362  0.2422
  427MOL0     N56249   0.530   3.061   1.194  0.2482  0.9911  0.0159
  427MOL0     C56250   0.662   3.014   1.175  0.0111 -0.3467  0.2353
  427MOL0     C56251   0.648   2.887   1.142  0.7065 -0.9339  0.4725
  427MOL0     C56252   0.758   2.780   1.128 -0.4156  0.6381 -0.6622
  427MOL0     C56253   0.703   2.642   1.179  0.1085  0.5258 -0.4090
  427MOL0     C56254   0.829   2.555   1.211  0.5432 -0.6033  0.4281
  427MOL0     C56255   0.898   2.582   1.346 -0.0377  0.0156  0.0516
  427MOL0     O56256   0.793   2.550   1.454 -0.0537  0.3513  0.0626
  427MOL0     C56257   0.782   2.420   1.500 -0.6792 -0.2039  0.2881
  427MOL0     C56258   0.900   2.343   1.514  0.8601  0.4424 -0.1413
  427MOL0     C56259   0.888   2.219   1.564  0.4709 -0.8844 -0.4533
  427MOL0     C56260   0.757   2.169   1.614 -1.3129 -1.6540 -0.2599
  427MOL0     C56261   0.747   2.053   1.701 -0.7429  1.1917 -0.4785
  427MOL0     O56262   0.856   1.968   1.692 -0.0922 -0.9488 -0.0115
  427MOL0     C56263   0.893   1.886   1.791 -0.0654 -0.2727 -0.3709
  427MOL0     C56264   1.028   1.834   1.785 -0.8798  0.2306 -0.3480
  427MOL0     C56265   1.071   1.721   1.863 -0.1707 -0.2066  0.1293
  427MOL0     C56266   0.983   1.681   1.963  0.5911  0.4027  0.9208
  427MOL0     O56267   1.017   1.575   2.045  0.1957  0.4858 -0.3954
  427MOL0     C56268   1.002   1.455   1.960 -1.1642  0.0675 -0.6539
  427MOL0     C56269   0.999   1.341   2.058  0.1828 -0.1555 -0.9129
  427MOL0     C56270   0.953   1.220   1.969 -0.4006 -0.3244 -0.1909
  427MOL0     C56271   0.961   1.089   2.045  0.2714 -0.1877 -0.7272
  427MOL0     C56272   0.847   1.087   2.149  0.2671  0.7692  1.2423
  427MOL0     C56273   0.887   1.035   2.284  0.1040  0.4639  0.0940
  427MOL0     C56274   0.929   0.885   2.278  0.1230 -0.8226 -0.5360
  427MOL0     C56275   0.986   0.838   2.407 -0.0904  0.7141 -0.0310
  427MOL0    Cl56276   1.079   0.682   2.383 -0.3789  0.1672 -0.2068
  427MOL0     C56277   0.864   1.753   1.996  0.0105  0.8445 -0.8066
  427MOL0     C56278   0.821   1.857   1.906  0.0748 -0.2655 -1.4500
  427MOL0     O56279   0.637   2.019   1.747 -1.4659 -0.4706  0.7330
  427MOL0     C56280   0.650   2.257   1.593  0.1454  1.0855  0.6589
  427MOL0     C56281   0.654   2.381   1.535  0.3577 -0.6462  0.2647
  427MOL0     N56282   0.507   2.864   1.134  0.2711 -0.0630  0.0924
  427MOL0     N56283   0.442   2.960   1.160  0.4868 -0.4464  0.5366
  427MOL0     C56284   0.248   3.548   2.056  0.7491  0.2054  0.3750
  427MOL0     C56285   0.347   3.520   2.156  0.0048  0.4187 -0.0579
  427MOL0     C56286   0.736   3.535   2.376  0.1868 -0.8656 -0.6932
  427MOL0     C56287   0.691   3.468   2.495  0.0413  0.4619 -0.4692
  427MOL0     C56288   0.775   3.419   2.597  0.8387 -0.7842 -0.7793
  427MOL0     C56289   0.913   3.436   2.569  1.5211  0.0095 -1.4138
  427MOL0     O56290   0.982   3.386   2.682 -0.5272  0.4468 -0.0357
  427MOL0     C56291   1.122   3.388   2.699 -0.1282 -0.4754 -0.0349
  427MOL0     C56292   1.195   3.527   2.702  0.6613  0.0545 -0.3503
  427MOL0     C56293   1.346   3.501   2.668 -0.6807 -0.1169 -0.3380
  427MOL0     C56294   1.440   3.563   2.772 -1.3874  0.3321  0.2204
  427MOL0     C56295   1.577   3.519   2.739 -0.2499 -0.2231 -0.4596
  427MOL0     C56296   1.693   3.500   2.707  0.4534  0.3850  0.0906
  427MOL0     C56297   0.965   3.495   2.455 -0.8613  1.2045 -0.1283
  427MOL0     C56298   0.880   3.546   2.358  0.8727 -1.1515  0.5380
  427MOL0     H56299   0.444   3.847   2.232 -0.7424  0.1696 -0.1053
  427MOL0     H56300   0.285   3.885   2.041 -2.2874 -1.2932  1.7260
  427MOL0     H56301   0.011   3.668   1.768  1.0134 -0.1426 -2.6637
  427MOL0     H56302   0.057   3.536   1.864  3.2539 -0.0112  3.3830
  427MOL0     H56303   0.310   3.628   1.773  2.2823 -4.8410  1.5752
  427MOL0     H56304   0.202   3.645   1.635  2.3164  0.3123  0.3072
  427MOL0     H56305   0.133   3.401   1.662  0.4940 -0.0336 -1.1414
  427MOL0     H56306   0.244   3.377   1.791  0.1776 -0.6256  0.3960
  427MOL0     H56307   0.342   3.460   1.508  0.5938 -0.1830 -0.7354
  427MOL0     H56308   0.440   3.422   1.651 -1.7093  5.5573 -0.0769
  427MOL0     H56309   0.243   3.232   1.510  0.0861 -0.8681  0.2379
  427MOL0     H56310   0.376   3.182   1.622  2.9971  0.4665  0.2226
  427MOL0     H56311   0.474   3.123   1.446  3.1484  0.9878  0.6694
  427MOL0     H56312   0.546   3.277   1.432 -0.3800 -0.0801 -0.4460
  427MOL0     H56313   0.301   3.192   1.276  2.6402 -2.2601 -3.2692
  427MOL0     H56314   0.352   3.357   1.286  0.0415 -0.5572  0.8747
  427MOL0     H56315   0.561   3.266   1.172 -0.8165  1.9553  2.3560
  427MOL0     H56316   0.425   3.209   1.092  1.8750  2.0131 -0.6221
  427MOL0     H56317   0.750   3.076   1.190 -0.3890  0.5162 -0.9047
  427MOL0     H56318   0.832   2.809   1.204  0.3982  1.7815 -1.8444
  427MOL0     H56319   0.798   2.774   1.026  0.3365 -0.6978 -0.3089
  427MOL0     H56320   0.650   2.574   1.111  1.1217 -2.6351  1.7212
  427MOL0     H56321   0.636   2.643   1.265  0.7922  0.1910  0.1386
  427MOL0     H56322   0.792   2.452   1.215  1.5379 -0.9311  2.9690
  427MOL0     H56323   0.898   2.555   1.125 -0.1837 -1.4281 -0.1773
  427MOL0     H56324   0.920   2.683   1.382 -1.7589  0.4802 -0.1084
  427MOL0     H56325   0.988   2.521   1.344 -0.6268 -0.9088  0.9656
  427MOL0     H56326   0.999   2.380   1.490  0.8420  0.5374 -0.0669
  427MOL0     H56327   0.984   2.170   1.575  2.1975  2.6768  2.3719
  427MOL0     H56328   1.086   1.888   1.711 -2.7672  0.9356 -1.3855
  427MOL0     H56329   1.170   1.681   1.843 -0.2432 -0.0883 -0.4920
  427MOL0     H56330   1.090   1.450   1.895 -0.5096  0.9102  0.1490
  427MOL0     H56331   0.922   1.452   1.886 -0.0317  0.4967 -1.9455
  427MOL0     H56332   0.930   1.364   2.140  2.2992  3.6064  0.0133
  427MOL0     H56333   1.098   1.332   2.103 -0.1838  2.6053  0.6694
  427MOL0     H56334   1.006   1.213   1.873  1.6647 -3.4835  1.0189
  427MOL0     H56335   0.848   1.238   1.947 -0.7301 -0.9140  0.8418
  427MOL0     H56336   0.955   0.998   1.985 -0.9727 -0.5630 -0.0581
  427MOL0     H56337   1.057   1.094   2.097  0.1633 -0.7402 -0.4685
  427MOL0     H56338   0.760   1.030   2.117  1.1070  0.7707 -1.2410
  427MOL0     H56339   0.808   1.190   2.153 -0.1540  0.7960 -1.6550
  427MOL0     H56340   0.797   1.044   2.346 -0.1259  1.5338 -0.3627
  427MOL0     H56341   0.965   1.092   2.336  0.4696 -1.4731  1.7747
  427MOL0     H56342   0.843   0.823   2.251  1.1092 -1.9174 -1.2317
  427MOL0     H56343   1.007   0.871   2.202  2.5263  1.3921  1.3221
  427MOL0     H56344   0.900   0.826   2.474 -2.4610  0.2350 -2.9596
  427MOL0     H56345   1.059   0.909   2.448  0.5511 -0.1382  0.3223
  427MOL0     H56346   0.797   1.720   2.074 -2.2233  0.3334 -2.7955
  427MOL0     H56347   0.725   1.896   1.937  0.4779 -0.4794  0.1765
  427MOL0     H56348   0.552   2.226   1.627 -0.7116  1.1345 -1.5924
  427MOL0     H56349   0.568   2.447   1.536 -0.4796 -1.6959  1.4138
  427MOL0     H56350   0.199   3.465   2.006  0.8175 -0.3186  1.1471
  427MOL0     H56351   0.379   3.423   2.195  1.5182  0.8288 -0.2063
  427MOL0     H56352   0.587   3.464   2.528  0.2893  2.2120  0.6146
  427MOL0     H56353   0.742   3.387   2.696  0.4204 -1.7911 -1.2265
  427MOL0     H56354   1.158   3.328   2.615  0.3963 -0.7824  0.4020
  427MOL0     H56355   1.140   3.345   2.798 -2.4155  0.5745  0.8782
  427MOL0     H56356   1.151   3.584   2.619 -2.7006 -0.1019  1.1404
  427MOL0     H56357   1.175   3.566   2.802  1.5936 -2.6081  0.9682
  427MOL0     H56358   1.360   3.538   2.566  2.5598  1.1380  0.4394
  427MOL0     H56359   1.364   3.393   2.661  1.9983  0.3683 -2.7432
  427MOL0     H56360   1.439   3.673   2.777  2.8482  0.6227 -1.2366
  427MOL0     H56361   1.417   3.518   2.869 -1.0635 -0.1916  0.0568
  427MOL0     H56362   1.794   3.478   2.677  0.2360  2.6667 -2.7474
  427MOL0     H56363   1.073   3.512   2.452 -0.0218 -2.3175  2.8425
  427MOL0     H56364   0.913   3.594   2.266  1.9839 -1.3423  0.8335
  428MOL0     O56365   4.632   8.069   2.856  0.7522 -0.9479 -0.0178
  428MOL0     C56366   4.711   7.982   2.813  0.2503 -0.2636 -0.1350
  428MOL0     O56367   4.779   7.901   2.902 -0.1342 -0.2191  0.7774
  428MOL0     C56368   4.780   7.925   3.039 -0.3238 -0.2282 -0.4157
  428MOL0     C56369   4.723   7.834   3.136  0.3426 -0.3085 -0.4366
  428MOL0     C56370   4.737   7.858   3.280  0.7490 -0.3160  0.3353
  428MOL0     C56371   4.801   7.982   3.321  0.9679 -0.0695  0.1946
  428MOL0     O56372   4.832   8.005   3.453  0.0710  0.2911  0.2191
  428MOL0     C56373   4.976   8.036   3.471 -0.7899 -0.1731  0.3283
  428MOL0     C56374   5.004   7.998   3.619  0.0303  0.4599 -0.1451
  428MOL0     C56375   5.123   8.074   3.679 -0.2484 -0.0853 -0.4855
  428MOL0     C56376   5.254   8.060   3.599  0.8647  0.5326 -0.9996
  428MOL0     C56377   5.382   8.076   3.690 -0.7052 -0.0562 -0.2189
  428MOL0     C56378   5.394   8.203   3.780  0.3949  0.5122  0.4765
  428MOL0     C56379   5.427   8.334   3.683  0.5023  0.0775 -0.5423
  428MOL0     C56380   5.476   8.453   3.768  0.7998  0.2673  0.1985
  428MOL0     N56381   5.526   8.569   3.695  0.4387 -0.1492 -1.0924
  428MOL0     C56382   5.619   8.580   3.598 -0.7481  0.0303 -1.2487
  428MOL0     C56383   5.619   8.715   3.571  0.1545  0.2896  0.4821
  428MOL0     C56384   5.713   8.797   3.476  0.6943 -0.2434  0.0043
  428MOL0     C56385   5.851   8.793   3.522  0.0468 -1.0442 -0.1181
  428MOL0     C56386   5.943   8.873   3.423  0.9422 -0.4395  0.3433
  428MOL0     C56387   5.930   8.836   3.273  0.6568 -0.1960  0.4393
  428MOL0     O56388   6.055   8.856   3.210 -0.2452  0.3374  0.1392
  428MOL0     C56389   6.049   8.804   3.082  0.0678  0.0583 -0.1886
  428MOL0     C56390   5.948   8.836   2.987 -0.4444  0.3657 -0.2031
  428MOL0     C56391   5.956   8.765   2.866  0.0921  0.2721 -0.0888
  428MOL0     C56392   6.063   8.686   2.820 -0.0993 -0.3044  0.5438
  428MOL0     C56393   6.079   8.629   2.675 -0.4238  0.1722  0.0156
  428MOL0     O56394   6.174   8.542   2.650  0.7262 -0.8117  0.2035
  428MOL0     C56395   6.146   8.448   2.564 -0.8294 -0.1641  0.4604
  428MOL0     C56396   6.259   8.411   2.485  0.5987 -0.9660 -0.4714
  428MOL0     C56397   6.250   8.305   2.397 -0.2385  0.4889  0.3197
  428MOL0     C56398   6.130   8.236   2.373 -0.1078  0.9261 -0.0802
  428MOL0     O56399   6.131   8.125   2.290 -0.2028 -0.3630  0.3193
  428MOL0     C56400   6.057   8.007   2.318  0.4973 -0.2841  0.1364
  428MOL0     C56401   6.119   7.944   2.444 -0.5464  0.2362  0.8016
  428MOL0     C56402   6.056   7.806   2.478 -0.4146  0.6352  0.1296
  428MOL0     C56403   6.079   7.695   2.373  0.1581 -0.2145 -0.2451
  428MOL0     C56404   6.009   7.566   2.390 -0.0712  0.1124  0.6022
  428MOL0     C56405   6.055   7.489   2.508 -1.0039 -0.5823  0.3801
  428MOL0     C56406   5.988   7.361   2.533  0.4781  0.5325  0.4963
  428MOL0     C56407   6.010   7.308   2.676 -0.0132  0.8420 -0.3365
  428MOL0    Cl56408   5.931   7.155   2.715  0.0208 -0.2504 -0.1934
  428MOL0     C56409   6.021   8.275   2.442 -1.2389 -0.3038  0.5837
  428MOL0     C56410   6.031   8.367   2.548  0.6872 -0.0554 -0.4128
  428MOL0     O56411   6.018   8.688   2.595  0.4137 -0.3702  0.2453
  428MOL0     C56412   6.167   8.668   2.911  0.1991  0.5765  0.5001
  428MOL0     C56413   6.161   8.728   3.038  0.2202 -0.6673  0.5331
  428MOL0     N56414   5.536   8.778   3.658  0.2571 -0.0253  0.2081
  428MOL0     N56415   5.480   8.690   3.731  1.2908 -0.6084  0.7045
  428MOL0     C56416   4.842   8.078   3.232 -0.2771 -0.0639 -0.9000
  428MOL0     C56417   4.829   8.048   3.091 -0.1478 -0.4344 -0.2318
  428MOL0     C56418   4.713   7.934   2.684  0.1433  0.5623  0.0033
  428MOL0     C56419   4.599   7.939   2.606 -0.0461  0.2038 -0.2977
  428MOL0     C56420   4.606   7.905   2.469  0.3627 -0.7996  0.0039
  428MOL0     C56421   4.720   7.851   2.409  0.4180 -0.3216 -0.9948
  428MOL0     O56422   4.732   7.812   2.279 -0.8230 -0.2212  0.0213
  428MOL0     C56423   4.625   7.821   2.180 -0.1520 -0.0430 -0.3410
  428MOL0     C56424   4.688   7.809   2.041 -0.5272  0.3095 -0.6052
  428MOL0     C56425   4.766   7.681   2.007 -0.6393  0.0608 -1.1801
  428MOL0     C56426   4.832   7.682   1.867 -0.0921  0.0859 -0.6440
  428MOL0     C56427   4.950   7.770   1.863  0.0215 -0.2268 -0.5274
  428MOL0     C56428   5.056   7.850   1.865 -0.3472 -0.1078 -0.0241
  428MOL0     C56429   4.826   7.846   2.493  0.1664 -0.2550  0.3283
  428MOL0     C56430   4.826   7.886   2.620 -0.0094 -0.5527 -0.6220
  428MOL0     H56431   4.684   7.742   3.096  3.6243 -0.5888 -3.5232
  428MOL0     H56432   4.710   7.785   3.356 -0.2440 -0.3144 -0.0052
  428MOL0     H56433   5.005   8.138   3.444  0.5253 -1.5153 -4.4847
  428MOL0     H56434   5.026   7.980   3.391  0.8400  0.1907  1.0514
  428MOL0     H56435   5.021   7.890   3.622 -1.5939  0.2079  1.9650
  428MOL0     H56436   4.915   8.011   3.681  1.6326 -0.7466  2.5726
  428MOL0     H56437   5.141   8.046   3.783  1.0103 -0.6616 -0.8330
  428MOL0     H56438   5.099   8.180   3.674 -2.5000 -0.5193  0.1346
  428MOL0     H56439   5.277   7.963   3.552 -0.9835 -1.0603  1.2070
  428MOL0     H56440   5.255   8.142   3.526 -1.2576  1.2705 -0.2680
  428MOL0     H56441   5.472   8.073   3.629 -1.7624 -1.4177 -1.7681
  428MOL0     H56442   5.393   7.996   3.763 -2.7391  2.2821  2.9754
  428MOL0     H56443   5.467   8.177   3.857 -0.5944  1.2034  1.6941
  428MOL0     H56444   5.308   8.213   3.847 -0.3345  2.1228 -0.6210
  428MOL0     H56445   5.504   8.311   3.609  2.9553  1.5397  1.4183
  428MOL0     H56446   5.340   8.359   3.621  0.6678 -1.6185 -1.5333
  428MOL0     H56447   5.562   8.421   3.828  1.0594 -5.5718 -2.6265
  428MOL0     H56448   5.397   8.490   3.833 -1.1517 -2.1238 -0.6427
  428MOL0     H56449   5.676   8.497   3.560 -2.5168 -1.7577 -0.1993
  428MOL0     H56450   5.687   8.903   3.478 -1.9204 -0.6281 -3.5278
  428MOL0     H56451   5.700   8.768   3.371  0.0167  4.4099 -1.4084
  428MOL0     H56452   5.884   8.689   3.525  1.9825 -0.4612  0.2498
  428MOL0     H56453   5.858   8.843   3.619 -2.0106 -1.5614  0.3507
  428MOL0     H56454   5.920   8.978   3.441 -1.5772 -0.6887 -1.0339
  428MOL0     H56455   6.048   8.863   3.452  1.7927 -0.8681 -2.5729
  428MOL0     H56456   5.843   8.897   3.246  0.4468 -0.8433 -0.3632
  428MOL0     H56457   5.902   8.731   3.259  3.8041 -0.9826 -0.8039
  428MOL0     H56458   5.859   8.892   3.016 -0.1347  1.6099 -1.5714
  428MOL0     H56459   5.863   8.773   2.810  0.8902 -0.5788 -1.6178
  428MOL0     H56460   6.350   8.465   2.506 -0.0005 -0.9306  2.4778
  428MOL0     H56461   6.340   8.273   2.346  0.4139 -1.8127  2.7010
  428MOL0     H56462   6.059   7.935   2.235 -0.4846  0.1374 -0.2707
  428MOL0     H56463   5.948   8.012   2.326  0.5177  0.3946  0.0493
  428MOL0     H56464   6.102   8.013   2.527 -0.7322 -1.4902  2.2686
  428MOL0     H56465   6.226   7.933   2.425 -0.8083 -3.3006  0.8189
  428MOL0     H56466   5.947   7.810   2.489 -0.6739  1.4156 -2.2165
  428MOL0     H56467   6.107   7.774   2.569  1.2001  3.8370  0.4912
  428MOL0     H56468   6.052   7.723   2.272 -2.1648 -0.6060  0.2154
  428MOL0     H56469   6.189   7.692   2.368  0.3291  1.1301  1.5868
  428MOL0     H56470   6.030   7.513   2.297 -3.5478 -1.0225  0.3175
  428MOL0     H56471   5.902   7.584   2.404  0.0737  2.4084 -0.7788
  428MOL0     H56472   6.040   7.556   2.593  1.5809  0.9320 -0.2716
  428MOL0     H56473   6.164   7.482   2.515 -0.4551  2.9971 -2.1102
  428MOL0     H56474   5.881   7.374   2.517  0.9352  0.6497 -3.4449
  428MOL0     H56475   6.010   7.280   2.463 -1.8767  0.9087 -0.7908
  428MOL0     H56476   5.979   7.388   2.744  0.7468 -0.2062  1.2863
  428MOL0     H56477   6.118   7.301   2.667  0.1556  0.4606  1.6146
  428MOL0     H56478   5.922   8.235   2.425 -1.5908  0.6887  0.2365
  428MOL0     H56479   5.950   8.400   2.613 -0.4592 -0.7413 -1.4263
  428MOL0     H56480   6.258   8.618   2.883  0.0461 -0.3771  1.6163
  428MOL0     H56481   6.232   8.709   3.118  1.8246  2.8361  0.0966
  428MOL0     H56482   4.882   8.174   3.262  0.1739  0.4308 -2.9410
  428MOL0     H56483   4.842   8.133   3.024 -1.9033  1.3180  1.4918
  428MOL0     H56484   4.519   7.997   2.651 -2.5240 -1.5305 -2.1464
  428MOL0     H56485   4.519   7.925   2.407  2.8385  2.4093 -2.8563
  428MOL0     H56486   4.557   7.906   2.190 -2.4705 -1.6539 -1.3904
  428MOL0     H56487   4.550   7.743   2.199  1.2714 -1.2847  0.3555
  428MOL0     H56488   4.609   7.817   1.966 -0.9556 -4.1765 -0.8951
  428MOL0     H56489   4.756   7.895   2.039 -0.5808  0.6197  3.2517
  428MOL0     H56490   4.702   7.594   2.025 -1.8126  1.2988  1.1149
  428MOL0     H56491   4.851   7.691   2.074  0.4191  6.4403 -2.8083
  428MOL0     H56492   4.877   7.584   1.849 -1.3688 -0.7573  0.5461
  428MOL0     H56493   4.765   7.707   1.785  1.3996  1.6717 -1.4489
  428MOL0     H56494   5.133   7.921   1.883 -2.9081  2.7162  0.6750
  428MOL0     H56495   4.920   7.810   2.453 -0.3402 -1.8711  0.5200
  428MOL0     H56496   4.913   7.866   2.681 -2.4049 -1.7626  2.7608
  429MOL0     O56497   4.828   3.407   9.291  0.3417  1.0364 -0.7174
  429MOL0     C56498   4.897   3.439   9.388  0.4254  0.1883 -0.4885
  429MOL0     O56499   4.964   3.554   9.407  0.5440 -0.0456  0.0035
  429MOL0     C56500   4.954   3.655   9.308 -0.1551  0.5684  0.2497
  429MOL0     C56501   4.835   3.731   9.292 -0.7447 -1.1414 -0.7847
  429MOL0     C56502   4.831   3.848   9.217  0.5356 -0.2714 -0.0355
  429MOL0     C56503   4.940   3.902   9.153 -0.4713  0.4685 -0.3248
  429MOL0     O56504   4.933   4.031   9.112  0.6691  0.5353  0.9499
  429MOL0     C56505   4.841   4.044   8.998 -0.0002 -0.6480 -0.3315
  429MOL0     C56506   4.802   4.185   8.972 -0.5662 -0.5670 -0.0472
  429MOL0     C56507   4.662   4.225   9.035 -0.5577  0.7730 -0.1315
  429MOL0     C56508   4.665   4.228   9.190 -0.2691 -0.4384  0.8318
  429MOL0     C56509   4.542   4.294   9.238 -0.1147 -0.8229 -0.2388
  429MOL0     C56510   4.525   4.275   9.387 -0.0064  0.0558  1.4493
  429MOL0     C56511   4.641   4.315   9.471 -0.0821 -0.0080  0.0260
  429MOL0     C56512   4.598   4.372   9.610  0.4383  0.7971  0.6307
  429MOL0     N56513   4.471   4.325   9.670 -0.3145  0.5002 -0.0410
  429MOL0     C56514   4.366   4.403   9.697 -0.6161 -0.7320  0.4296
  429MOL0     C56515   4.291   4.323   9.772 -0.5781  0.0089  0.8138
  429MOL0     C56516   4.148   4.347   9.812  0.9255  0.1376  0.6186
  429MOL0     C56517   4.061   4.414   9.694 -0.3890 -0.6938  0.5435
  429MOL0     C56518   4.028   4.320   9.578  0.7179 -0.7381  0.0596
  429MOL0     C56519   3.914   4.352   9.482  0.4143  0.0152  0.7589
  429MOL0     O56520   3.879   4.491   9.499 -0.2801  0.0197  0.4811
  429MOL0     C56521   3.929   4.585   9.412  0.2063 -0.9490 -0.6417
  429MOL0     C56522   3.856   4.703   9.400 -1.0377 -0.5425  0.0706
  429MOL0     C56523   3.901   4.811   9.326  0.7626 -0.4760  0.2339
  429MOL0     C56524   4.034   4.810   9.275  0.3093  0.0116  0.4765
  429MOL0     C56525   4.080   4.923   9.198  0.3850  0.3115  0.0956
  429MOL0     O56526   4.208   4.906   9.156 -0.0892  0.7307  0.2477
  429MOL0     C56527   4.274   5.005   9.096 -0.6567  0.1355  0.8756
  429MOL0     C56528   4.304   5.117   9.171 -1.0265 -0.1465 -0.5965
  429MOL0     C56529   4.384   5.220   9.106  0.4080 -0.1927 -0.2676
  429MOL0     C56530   4.432   5.207   8.975  1.2507  0.5098  0.1345
  429MOL0     O56531   4.521   5.300   8.925  0.4634 -0.8207  0.5899
  429MOL0     C56532   4.637   5.248   8.866 -0.3209 -0.1450  0.7463
  429MOL0     C56533   4.726   5.358   8.791 -0.0057 -0.8003  0.0471
  429MOL0     C56534   4.836   5.278   8.710  0.3473  0.3787  0.4634
  429MOL0     C56535   4.961   5.371   8.706  0.4419 -0.1076  0.5689
  429MOL0     C56536   5.069   5.313   8.618 -0.1318  0.3025  0.3113
  429MOL0     C56537   5.172   5.423   8.592 -0.5529  0.1070  0.5146
  429MOL0     C56538   5.118   5.533   8.496  0.3939  0.5632 -0.8040
  429MOL0     C56539   5.215   5.643   8.460 -0.4474  1.3473  0.6773
  429MOL0    Cl56540   5.246   5.735   8.599  0.1393  0.0709  0.0341
  429MOL0     C56541   4.393   5.093   8.899 -0.0315  0.9415  1.0265
  429MOL0     C56542   4.317   4.985   8.961 -0.4796 -0.6857 -0.3340
  429MOL0     O56543   4.007   5.021   9.179  0.9925 -0.5384 -0.6678
  429MOL0     C56544   4.112   4.693   9.296  0.5148 -0.1456  0.8411
  429MOL0     C56545   4.057   4.581   9.358 -0.9925  0.4347 -0.8763
  429MOL0     N56546   4.347   4.195   9.784 -0.4413  0.8701  0.3342
  429MOL0     N56547   4.465   4.199   9.721 -0.8283 -0.4317  0.0664
  429MOL0     C56548   5.057   3.820   9.166 -0.0956 -0.2586 -0.3418
  429MOL0     C56549   5.071   3.696   9.236  0.1675  0.3085 -0.0664
  429MOL0     C56550   4.929   3.330   9.493 -0.8937 -0.4316  0.3668
  429MOL0     C56551   5.018   3.355   9.604  0.1579  0.7040  1.0561
  429MOL0     C56552   5.044   3.249   9.689  0.0882  0.2830  0.6856
  429MOL0     C56553   4.974   3.127   9.683 -0.1430  0.8886  0.9428
  429MOL0     O56554   5.006   3.012   9.763 -0.5591 -0.4565  0.5150
  429MOL0     C56555   5.112   2.933   9.708 -0.1397  0.1357  0.5675
  429MOL0     C56556   5.067   2.793   9.711 -0.7034 -0.0634 -0.2082
  429MOL0     C56557   5.122   2.737   9.845  0.5757  0.4572  0.5884
  429MOL0     C56558   5.076   2.592   9.885 -0.0398 -1.7424 -0.3392
  429MOL0     C56559   5.098   2.504   9.770 -0.1594 -0.2374 -0.4776
  429MOL0     C56560   5.096   2.415   9.688 -0.8276  0.2336 -0.4843
  429MOL0     C56561   4.892   3.108   9.575  0.5147  0.0035  0.6445
  429MOL0     C56562   4.860   3.205   9.486 -0.0589 -0.8536 -0.2096
  429MOL0     H56563   4.751   3.710   9.357  2.1466  1.6633  4.5535
  429MOL0     H56564   4.736   3.902   9.217  1.1377  0.8199  0.0340
  429MOL0     H56565   4.748   3.989   9.015  2.4932 -4.9030  1.1233
  429MOL0     H56566   4.889   4.001   8.909 -4.2098 -2.9467 -1.7956
  429MOL0     H56567   4.804   4.197   8.863  1.1800 -1.7023 -0.1827
  429MOL0     H56568   4.882   4.246   9.015 -1.7947  0.3996  0.9784
  429MOL0     H56569   4.585   4.154   9.004 -0.4648  1.0396 -0.9859
  429MOL0     H56570   4.634   4.320   8.989 -0.6800  0.7375 -0.1308
  429MOL0     H56571   4.669   4.128   9.233 -1.9856 -0.1759  1.7161
  429MOL0     H56572   4.750   4.296   9.206 -0.5703  0.4026 -0.9078
  429MOL0     H56573   4.456   4.247   9.191  0.7561 -0.8039 -1.9419
  429MOL0     H56574   4.538   4.399   9.206  0.7487 -0.7760 -0.2304
  429MOL0     H56575   4.498   4.169   9.393 -0.8816  0.1889  0.2319
  429MOL0     H56576   4.438   4.332   9.421 -1.8004 -1.7649  0.1410
  429MOL0     H56577   4.702   4.228   9.499  0.3041  0.5478  0.9734
  429MOL0     H56578   4.700   4.397   9.428  0.9117  0.8269  2.7272
  429MOL0     H56579   4.594   4.481   9.609 -0.0770  0.7781 -0.2954
  429MOL0     H56580   4.680   4.337   9.674  0.4088 -0.3899  0.0396
  429MOL0     H56581   4.345   4.499   9.653  0.0929 -1.7280 -2.2721
  429MOL0     H56582   4.161   4.419   9.894  1.8184 -0.9234  1.4314
  429MOL0     H56583   4.107   4.253   9.853  0.7416  0.5194  1.3429
  429MOL0     H56584   4.125   4.491   9.650  0.6811 -1.2737  1.0415
  429MOL0     H56585   3.973   4.459   9.742  1.7225  2.5712  1.7382
  429MOL0     H56586   4.114   4.327   9.510 -0.7798  0.1241 -1.8551
  429MOL0     H56587   4.031   4.218   9.618  1.9676 -0.4152  0.8508
  429MOL0     H56588   3.832   4.289   9.517 -2.3514  2.9879  0.0736
  429MOL0     H56589   3.936   4.323   9.379  1.8801 -0.6537  1.2258
  429MOL0     H56590   3.756   4.709   9.443 -1.7827  2.6461 -1.7782
  429MOL0     H56591   3.833   4.894   9.306 -1.3214 -2.3463 -0.8284
  429MOL0     H56592   4.269   5.140   9.271  0.1481 -1.2684  0.1114
  429MOL0     H56593   4.413   5.311   9.157 -0.0416  0.8732 -1.8450
  429MOL0     H56594   4.601   5.182   8.786  0.9658 -0.1600  0.1538
  429MOL0     H56595   4.692   5.195   8.944  0.8935 -0.5919 -0.3782
  429MOL0     H56596   4.756   5.432   8.866 -0.0910 -0.1111 -0.5839
  429MOL0     H56597   4.659   5.413   8.724 -0.9221 -1.5111  0.3521
  429MOL0     H56598   4.806   5.257   8.608  1.8364 -3.7105  0.7063
  429MOL0     H56599   4.850   5.183   8.762 -1.1763  1.6091  3.3566
  429MOL0     H56600   4.922   5.464   8.663  1.9948 -0.7218 -2.4337
  429MOL0     H56601   4.998   5.390   8.807  0.4530 -0.2132  0.5853
  429MOL0     H56602   5.019   5.283   8.525 -1.4629  2.8155  0.1148
  429MOL0     H56603   5.128   5.234   8.666  1.1280  0.5495 -0.7968
  429MOL0     H56604   5.259   5.385   8.538 -1.6854  0.4884 -1.6912
  429MOL0     H56605   5.213   5.453   8.689 -1.0370  1.5521  0.2868
  429MOL0     H56606   5.101   5.487   8.398 -0.8811  2.4581 -1.5187
  429MOL0     H56607   5.019   5.571   8.521  0.3350  0.1065 -0.3267
  429MOL0     H56608   5.184   5.697   8.371  2.7426  0.6561 -0.9984
  429MOL0     H56609   5.299   5.582   8.425 -0.2039  1.5007  0.9880
  429MOL0     H56610   4.431   5.072   8.800 -0.0424  1.5359  0.8912
  429MOL0     H56611   4.301   4.890   8.911 -0.3582 -0.8341 -0.0977
  429MOL0     H56612   4.204   4.683   9.238  1.8121  3.3249  2.0427
  429MOL0     H56613   4.116   4.491   9.366 -1.7113 -0.1219 -1.6299
  429MOL0     H56614   5.144   3.869   9.122  0.9876 -1.6596  0.1498
  429MOL0     H56615   5.166   3.643   9.234  0.1590  0.2749 -2.8118
  429MOL0     H56616   5.063   3.454   9.608  0.6995  0.8603 -3.6997
  429MOL0     H56617   5.105   3.245   9.779 -0.0418  0.8296  0.8006
  429MOL0     H56618   5.202   2.945   9.770 -0.3909 -1.2780  1.2383
  429MOL0     H56619   5.153   2.954   9.609 -0.8656 -1.2581 -0.0349
  429MOL0     H56620   4.958   2.778   9.709 -0.7767  0.5432 -1.3004
  429MOL0     H56621   5.105   2.741   9.623 -0.9129 -0.4360 -0.0819
  429MOL0     H56622   5.112   2.810   9.926  0.3569  0.0388  0.9431
  429MOL0     H56623   5.229   2.718   9.836  0.8868  2.4629 -0.5251
  429MOL0     H56624   5.151   2.556   9.956  3.0636 -1.0582 -3.0067
  429MOL0     H56625   4.972   2.588   9.916  0.3363  1.4960  1.8746
  429MOL0     H56626   5.081   2.344   9.609 -1.2833 -0.7669  0.4812
  429MOL0     H56627   4.838   3.015   9.566 -1.4129  0.8431  2.5321
  429MOL0     H56628   4.780   3.181   9.417 -1.3688  0.1715  0.8891
  430MOL0     O56629  10.489   0.686   7.709 -0.2311 -0.2770  0.7202
  430MOL0     C56630  10.418   0.690   7.607  0.0528 -0.1413  0.2341
  430MOL0     O56631  10.295   0.736   7.589  0.0863 -0.2192  0.1171
  430MOL0     C56632  10.230   0.788   7.696 -0.7463  0.7020 -0.1082
  430MOL0     C56633  10.201   0.712   7.809 -0.0881  0.2423 -0.6049
  430MOL0     C56634  10.141   0.769   7.922  0.1522 -0.9186 -0.1258
  430MOL0     C56635  10.116   0.913   7.928  0.2878 -0.3077  0.1844
  430MOL0     O56636  10.058   0.992   8.024 -0.6337 -0.4649  0.0104
  430MOL0     C56637  10.041   0.939   8.154 -0.9177  0.4570 -0.3908
  430MOL0     C56638   9.938   1.009   8.234  0.2591  0.0728  0.2014
  430MOL0     C56639   9.880   0.936   8.351 -1.0232  0.3933 -1.0721
  430MOL0     C56640   9.986   0.888   8.453 -0.4367  0.9417  0.0186
  430MOL0     C56641  10.050   1.007   8.524 -0.1850  0.4803  0.2443
  430MOL0     C56642  10.144   0.958   8.643  0.5906 -0.2297  0.2362
  430MOL0     C56643  10.259   0.861   8.630 -0.2167  0.0078 -0.2443
  430MOL0     C56644  10.400   0.925   8.614  0.3713  0.0788 -0.0280
  430MOL0     N56645  10.423   0.991   8.485  0.1820 -1.0455 -1.2128
  430MOL0     C56646  10.456   0.929   8.371  0.1495 -0.8222  0.0910
  430MOL0     C56647  10.440   1.016   8.270 -0.8051  0.0301  0.2694
  430MOL0     C56648  10.455   0.981   8.121  1.2808 -0.6021 -0.0722
  430MOL0     C56649  10.604   0.960   8.084  0.5898 -0.1611  0.6056
  430MOL0     C56650  10.639   0.953   7.925  0.9184 -0.0976 -0.3327
  430MOL0     C56651  10.644   1.092   7.872 -0.4735 -0.0684  0.1125
  430MOL0     O56652  10.672   1.104   7.732 -0.4384 -0.3388  1.1904
  430MOL0     C56653  10.774   1.030   7.682 -0.1442  0.0618  0.5302
  430MOL0     C56654  10.751   0.954   7.561  0.9069 -0.1725  0.5272
  430MOL0     C56655  10.861   0.883   7.508  0.1356 -0.6628  0.4325
  430MOL0     C56656  10.985   0.880   7.569 -0.1766  0.7212 -0.0913
  430MOL0     C56657  11.103   0.817   7.503  0.7858  0.3506  0.3087
  430MOL0     O56658  11.072   0.722   7.410 -0.1099  0.3180 -0.7808
  430MOL0     C56659  11.170   0.650   7.359  0.4713  0.3974  0.1038
  430MOL0     C56660  11.183   0.517   7.363  0.2784  0.0939 -0.3849
  430MOL0     C56661  11.279   0.447   7.282  0.4898  0.2433  0.0785
  430MOL0     C56662  11.357   0.514   7.185  0.7510 -0.2600  0.5249
  430MOL0     O56663  11.444   0.438   7.108 -0.5152 -0.7064 -0.3623
  430MOL0     C56664  11.456   0.480   6.974  0.1582  0.1850  0.3770
  430MOL0     C56665  11.341   0.448   6.876  0.6348 -0.2268 -0.3567
  430MOL0     C56666  11.340   0.293   6.856 -0.6113 -0.0286  0.6096
  430MOL0     C56667  11.250   0.252   6.739  0.1967 -0.3865  0.0911
  430MOL0     C56668  11.314   0.264   6.603  0.4395 -0.4464 -0.0929
  430MOL0     C56669  11.218   0.215   6.488 -0.1894  0.7188 -0.2817
  430MOL0     C56670  11.299   0.121   6.388 -1.1558 -0.0225  0.3980
  430MOL0     C56671  11.285  -0.026   6.424  0.2004  0.6413  0.1888
  430MOL0    Cl56672  11.394  -0.117   6.323  0.1953 -0.3388  0.1503
  430MOL0     C56673  11.336   0.658   7.181 -0.8943 -0.1853 -0.2274
  430MOL0     C56674  11.239   0.719   7.259  0.5343 -0.0215 -0.0199
  430MOL0     O56675  11.212   0.843   7.549 -0.4907  0.5778  0.2380
  430MOL0     C56676  11.001   0.954   7.688  0.9026 -0.1971  0.4736
  430MOL0     C56677  10.897   1.030   7.743  0.6985  0.7983  1.1982
  430MOL0     N56678  10.387   1.131   8.328 -0.3098  0.6860  0.0833
  430MOL0     N56679  10.387   1.118   8.455  0.9395 -1.2292 -0.6129
  430MOL0     C56680  10.147   0.991   7.815 -0.1371 -0.7241  0.0632
  430MOL0     C56681  10.207   0.923   7.702 -0.4901 -0.0229 -0.5461
  430MOL0     C56682  10.491   0.643   7.487  0.1188  0.5805  0.2240
  430MOL0     C56683  10.448   0.652   7.355  0.8495  0.3299 -0.0794
  430MOL0     C56684  10.518   0.615   7.242 -0.4989 -0.8154  0.7587
  430MOL0     C56685  10.644   0.572   7.256 -0.4434  0.6609 -0.1994
  430MOL0     O56686  10.717   0.551   7.133 -0.0473 -0.8122 -0.4731
  430MOL0     C56687  10.846   0.488   7.136 -0.0019  0.5611 -0.2862
  430MOL0     C56688  10.817   0.340   7.155 -0.3660  0.1813  0.1867
  430MOL0     C56689  10.960   0.265   7.144  0.4487 -0.4006  0.8901
  430MOL0     C56690  10.955   0.154   7.037 -0.3441  0.0474  0.2809
  430MOL0     C56691  10.903   0.197   6.905  0.7043 -0.2580  0.4226
  430MOL0     C56692  10.857   0.249   6.804  0.9194  0.6162  0.4119
  430MOL0     C56693  10.692   0.560   7.385 -0.5288  0.7179  0.0683
  430MOL0     C56694  10.617   0.591   7.499  0.1032  1.1585 -1.4217
  430MOL0     H56695  10.203   0.603   7.804 -2.9788  0.0927 -0.3086
  430MOL0     H56696  10.102   0.714   8.008 -1.3895 -0.9104 -0.7801
  430MOL0     H56697  10.137   0.939   8.207 -0.7374  3.2974 -0.5695
  430MOL0     H56698  10.008   0.836   8.139 -1.2907  0.2519  1.5358
  430MOL0     H56699   9.848   1.032   8.176  0.2435 -0.5043 -0.0163
  430MOL0     H56700   9.989   1.099   8.267  0.4375  0.1743 -0.3401
  430MOL0     H56701   9.819   0.850   8.323 -2.5178  0.2876  2.1773
  430MOL0     H56702   9.813   1.005   8.402  0.6451  1.8896 -0.7966
  430MOL0     H56703   9.931   0.830   8.528  0.1404  0.3800  0.0152
  430MOL0     H56704  10.055   0.823   8.399  0.6734  0.4882  1.8803
  430MOL0     H56705   9.969   1.068   8.565 -1.6395 -1.6836  0.7285
  430MOL0     H56706  10.110   1.077   8.464  0.8590  3.5109  4.3686
  430MOL0     H56707  10.062   0.910   8.698 -0.9119  1.1086 -0.7405
  430MOL0     H56708  10.170   1.053   8.692  1.7192 -0.7178  0.6107
  430MOL0     H56709  10.264   0.790   8.713 -1.9425  1.3304  1.0732
  430MOL0     H56710  10.260   0.809   8.534 -0.2673 -0.5765  0.0638
  430MOL0     H56711  10.471   0.844   8.633 -1.5094 -2.3835 -2.5348
  430MOL0     H56712  10.404   1.007   8.686 -2.1613  1.8728 -1.7554
  430MOL0     H56713  10.492   0.828   8.356 -1.7282 -1.3761 -1.0349
  430MOL0     H56714  10.406   1.063   8.069 -2.8363 -2.0239  1.1399
  430MOL0     H56715  10.393   0.891   8.107  0.9494  0.0637 -4.4999
  430MOL0     H56716  10.631   0.863   8.126 -1.6793 -1.4854 -0.7914
  430MOL0     H56717  10.673   1.027   8.137  2.1255 -2.9035  2.3036
  430MOL0     H56718  10.730   0.896   7.906  0.4587 -0.1476 -2.6977
  430MOL0     H56719  10.566   0.889   7.875  0.7402 -0.4362  0.3434
  430MOL0     H56720  10.715   1.151   7.930  1.0900  0.4209 -2.1678
  430MOL0     H56721  10.547   1.141   7.865  0.4734  1.6099 -5.2404
  430MOL0     H56722  10.656   0.936   7.510  1.9138 -1.3304 -1.0535
  430MOL0     H56723  10.846   0.828   7.415 -0.5092  0.3177 -0.0597
  430MOL0     H56724  11.140   0.459   7.444  1.4491  3.3553  2.7928
  430MOL0     H56725  11.294   0.340   7.279  1.0347  0.2981  0.6566
  430MOL0     H56726  11.545   0.438   6.927  0.2756 -3.0315  3.1402
  430MOL0     H56727  11.455   0.589   6.958 -5.5510  0.2731 -0.7752
  430MOL0     H56728  11.348   0.519   6.794  1.8124  0.6900  0.4998
  430MOL0     H56729  11.240   0.463   6.916  0.0069  1.4593 -2.4147
  430MOL0     H56730  11.308   0.245   6.948  2.0776 -1.2036  1.0247
  430MOL0     H56731  11.441   0.254   6.838 -0.9162 -1.6051  2.0363
  430MOL0     H56732  11.204   0.155   6.757 -1.2427  0.8140  3.9538
  430MOL0     H56733  11.159   0.312   6.742  2.0805  3.0005 -3.0328
  430MOL0     H56734  11.404   0.203   6.619 -1.0570 -2.2829  1.9783
  430MOL0     H56735  11.332   0.371   6.590 -0.1921 -0.0544  1.8966
  430MOL0     H56736  11.188   0.302   6.428 -0.9384  1.1365  0.6635
  430MOL0     H56737  11.126   0.166   6.521 -0.2977  2.8267  3.0414
  430MOL0     H56738  11.264   0.130   6.285  0.4820 -0.0440 -0.1943
  430MOL0     H56739  11.404   0.153   6.394 -1.6261  2.2816 -1.8773
  430MOL0     H56740  11.182  -0.051   6.399  0.0693  0.3756  0.9536
  430MOL0     H56741  11.307  -0.043   6.530 -3.1823 -2.5940  0.5690
  430MOL0     H56742  11.398   0.727   7.124 -0.4332  1.2907  1.9608
  430MOL0     H56743  11.223   0.826   7.248 -1.5915 -0.3202 -0.1465
  430MOL0     H56744  11.092   0.953   7.746  2.2530 -1.4751 -1.5429
  430MOL0     H56745  10.912   1.087   7.834  2.0065  1.4634  0.5903
  430MOL0     H56746  10.125   1.098   7.819 -2.7868 -1.2406  0.7066
  430MOL0     H56747  10.249   0.985   7.623 -1.8645  1.4164 -0.1896
  430MOL0     H56748  10.351   0.701   7.347 -0.3113 -1.3885  2.3342
  430MOL0     H56749  10.491   0.658   7.146 -1.0009 -0.3233  1.1150
  430MOL0     H56750  10.918   0.528   7.209  0.4135  0.8095 -0.8302
  430MOL0     H56751  10.890   0.513   7.040  0.7094  1.3654  0.2295
  430MOL0     H56752  10.768   0.322   7.251 -0.3459  0.6448  0.2860
  430MOL0     H56753  10.743   0.299   7.087 -1.2603 -0.0842  1.2863
  430MOL0     H56754  11.003   0.229   7.238  1.4201  1.0226  1.0314
  430MOL0     H56755  11.024   0.347   7.110  1.1330 -0.1236  2.7292
  430MOL0     H56756  11.059   0.120   7.034 -0.4885 -0.3009 -2.0462
  430MOL0     H56757  10.887   0.080   7.081 -0.8069  1.0412  1.2929
  430MOL0     H56758  10.782   0.288   6.737  1.7178  0.2226 -0.7498
  430MOL0     H56759  10.792   0.530   7.417 -1.1004 -0.3509  0.9369
  430MOL0     H56760  10.661   0.583   7.598  2.0282 -0.4223 -2.3488
  431MOL0     O56761   0.859   9.023   8.695  0.2649  0.8610 -0.0818
  431MOL0     C56762   0.827   8.938   8.611  0.3078 -0.0379  0.5005
  431MOL0     O56763   0.897   8.828   8.579 -0.3849 -0.3827 -0.0165
  431MOL0     C56764   1.030   8.808   8.620  0.7423 -0.0905  0.4224
  431MOL0     C56765   1.078   8.679   8.584  1.1290 -0.1407 -0.3320
  431MOL0     C56766   1.215   8.644   8.595 -0.2696 -0.4909  0.2538
  431MOL0     C56767   1.309   8.740   8.652  0.3215  0.1169 -0.1586
  431MOL0     O56768   1.446   8.727   8.690 -0.1158  0.3959  0.0857
  431MOL0     C56769   1.519   8.605   8.650  0.0874 -0.4717 -0.9288
  431MOL0     C56770   1.476   8.495   8.746 -1.0440 -0.7863 -0.3952
  431MOL0     C56771   1.488   8.536   8.897 -0.9921 -0.0435 -0.3940
  431MOL0     C56772   1.474   8.410   8.986  0.5194 -0.4171  1.2064
  431MOL0     C56773   1.501   8.436   9.131  0.3130 -0.3033 -1.0336
  431MOL0     C56774   1.644   8.420   9.173 -0.3563  0.8911  0.4889
  431MOL0     C56775   1.675   8.427   9.324 -0.7020  0.1505 -0.6942
  431MOL0     C56776   1.605   8.319   9.420 -0.6804 -0.4045  0.3081
  431MOL0     N56777   1.665   8.298   9.555  0.1046 -0.4765  0.0210
  431MOL0     C56778   1.796   8.294   9.588 -0.6853  0.2590  0.0434
  431MOL0     C56779   1.807   8.287   9.723  0.2201  0.4585 -0.2857
  431MOL0     C56780   1.920   8.296   9.818  0.6112 -0.1772 -0.8391
  431MOL0     C56781   2.020   8.410   9.790  0.2736 -0.0124 -0.6080
  431MOL0     C56782   1.956   8.547   9.817  0.2070 -0.1245  0.1194
  431MOL0     C56783   1.938   8.603   9.677  0.7260  0.3709 -0.3978
  431MOL0     O56784   2.074   8.647   9.645  0.4185  1.1119  0.1569
  431MOL0     C56785   2.088   8.746   9.551 -0.0723  0.1731 -0.2431
  431MOL0     C56786   2.025   8.731   9.431  1.0049 -0.5405 -0.1860
  431MOL0     C56787   2.050   8.818   9.323  0.3671 -0.7238 -0.1463
  431MOL0     C56788   2.134   8.926   9.338  0.2406  0.0513  0.4189
  431MOL0     C56789   2.146   9.022   9.218  0.6090  0.3269 -0.0842
  431MOL0     O56790   2.244   9.118   9.234  0.0286 -0.3381 -0.8685
  431MOL0     C56791   2.285   9.200   9.133  0.3639 -0.2523  0.0293
  431MOL0     C56792   2.297   9.161   8.998 -0.6627  0.8807  0.4039
  431MOL0     C56793   2.339   9.246   8.894  0.5425 -0.3398 -1.5305
  431MOL0     C56794   2.370   9.379   8.933  0.3537  0.2980 -0.9649
  431MOL0     O56795   2.398   9.459   8.831  0.0029  0.0007  0.3515
  431MOL0     C56796   2.440   9.595   8.848  0.6338 -0.3276  0.4550
  431MOL0     C56797   2.448   9.673   8.712 -0.0886  0.0022  0.2946
  431MOL0     C56798   2.520   9.806   8.705  0.1445 -1.3795 -0.3285
  431MOL0     C56799   2.422   9.909   8.768 -0.0064  1.1117  0.1511
  431MOL0     C56800   2.506  10.032   8.825  0.7663 -0.6544 -0.1652
  431MOL0     C56801   2.428  10.140   8.902 -0.0748  0.0386 -0.3503
  431MOL0     C56802   2.328  10.212   8.806  0.5461  0.4621 -0.1300
  431MOL0     C56803   2.326  10.362   8.831  0.0499  0.0671 -0.1256
  431MOL0    Cl56804   2.153  10.417   8.806  0.6351  0.2762  0.4366
  431MOL0     C56805   2.351   9.422   9.071 -0.2495 -0.0484 -0.0728
  431MOL0     C56806   2.314   9.332   9.167 -0.2241  0.3212 -0.4322
  431MOL0     O56807   2.068   9.015   9.130  0.5052 -0.4074 -0.7020
  431MOL0     C56808   2.205   8.938   9.460 -0.1993 -0.6763  0.7524
  431MOL0     C56809   2.190   8.847   9.561  0.5411  0.0753  0.9279
  431MOL0     N56810   1.677   8.295   9.770 -0.7960 -0.2126 -0.3773
  431MOL0     N56811   1.597   8.286   9.671 -0.1115  0.0796  0.3800
  431MOL0     C56812   1.256   8.865   8.687  1.5031 -0.0986  0.0802
  431MOL0     C56813   1.120   8.904   8.668 -0.2319  0.4889  1.0091
  431MOL0     C56814   0.699   8.962   8.546 -0.0030  1.2535  0.1193
  431MOL0     C56815   0.627   9.079   8.566  0.0853  0.1635 -1.4074
  431MOL0     C56816   0.514   9.102   8.494  0.9222 -0.2903 -0.0427
  431MOL0     C56817   0.452   9.010   8.406 -0.3528  0.1969 -0.1874
  431MOL0     O56818   0.351   9.015   8.320  0.3195 -0.2237  0.0663
  431MOL0     C56819   0.263   9.127   8.330  0.2032 -0.0674 -0.3054
  431MOL0     C56820   0.160   9.123   8.454 -0.5803  1.1154  0.1091
  431MOL0     C56821   0.044   9.031   8.435  0.3674 -0.9563 -0.3839
  431MOL0     C56822  -0.064   9.053   8.556 -0.2143 -0.1653  0.4010
  431MOL0     C56823  -0.165   8.950   8.560  0.0651  0.5686 -0.3717
  431MOL0     C56824  -0.265   8.875   8.551 -0.5105 -0.5876 -0.5163
  431MOL0     C56825   0.526   8.886   8.384  0.9487 -1.2217 -0.6393
  431MOL0     C56826   0.650   8.869   8.448 -0.2246 -0.2276 -0.2282
  431MOL0     H56827   1.008   8.610   8.537 -1.4060  1.2667  1.1312
  431MOL0     H56828   1.260   8.548   8.574  0.2585  0.0462 -1.1738
  431MOL0     H56829   1.627   8.624   8.645  0.1393 -0.2968  0.4968
  431MOL0     H56830   1.498   8.585   8.544 -3.2848  1.0898 -0.6830
  431MOL0     H56831   1.543   8.410   8.731 -0.5506 -0.2296 -1.4055
  431MOL0     H56832   1.374   8.458   8.740 -1.1211 -1.3232  2.4982
  431MOL0     H56833   1.411   8.604   8.937  1.4695  1.0018  3.0471
  431MOL0     H56834   1.583   8.585   8.919 -0.4774 -0.9114 -0.6731
  431MOL0     H56835   1.368   8.385   8.979  0.4343 -0.0236  1.0975
  431MOL0     H56836   1.551   8.341   8.949 -0.3166 -0.5817 -0.2655
  431MOL0     H56837   1.437   8.368   9.188  1.2255  0.5782  1.1887
  431MOL0     H56838   1.471   8.537   9.159  1.3447  0.6127 -3.0759
  431MOL0     H56839   1.712   8.486   9.118  3.1017 -2.4384  0.3566
  431MOL0     H56840   1.673   8.318   9.145  4.8908  2.4370 -0.8085
  431MOL0     H56841   1.781   8.401   9.338 -0.7291 -0.2191 -1.1607
  431MOL0     H56842   1.664   8.528   9.364 -2.5254  0.1970 -1.2338
  431MOL0     H56843   1.624   8.218   9.381  0.1654 -2.0482  4.5047
  431MOL0     H56844   1.499   8.344   9.424 -0.4151  1.5777 -2.0902
  431MOL0     H56845   1.882   8.295   9.523 -0.9133  0.0799 -0.2638
  431MOL0     H56846   1.977   8.206   9.792  0.7690 -0.2408 -0.2763
  431MOL0     H56847   1.893   8.283   9.923 -3.1206 -1.2482 -1.7850
  431MOL0     H56848   2.052   8.394   9.687  1.9827  1.2392 -0.3170
  431MOL0     H56849   2.104   8.395   9.858  0.0162  1.1415 -0.0144
  431MOL0     H56850   1.855   8.541   9.858 -0.2609 -0.5581 -1.0523
  431MOL0     H56851   2.022   8.604   9.883  1.1922 -1.1484  0.0482
  431MOL0     H56852   1.884   8.698   9.683 -2.0526 -0.9522 -2.0127
  431MOL0     H56853   1.883   8.545   9.602 -0.7961  1.8314 -0.4885
  431MOL0     H56854   1.955   8.651   9.409  0.2299  0.7091 -2.5909
  431MOL0     H56855   2.013   8.792   9.224 -1.4766 -0.7891  0.5332
  431MOL0     H56856   2.281   9.054   8.997  0.0184  0.5708  4.4415
  431MOL0     H56857   2.348   9.190   8.801  1.9421 -1.1859 -0.9221
  431MOL0     H56858   2.532   9.614   8.904 -0.0960  3.2254  0.6569
  431MOL0     H56859   2.363   9.642   8.910  0.6230 -1.5595  1.4055
  431MOL0     H56860   2.352   9.679   8.660  0.8760  0.6528 -1.4933
  431MOL0     H56861   2.512   9.620   8.642 -0.8502  0.1592 -0.5322
  431MOL0     H56862   2.551   9.829   8.602 -0.7367  2.2858  0.1049
  431MOL0     H56863   2.608   9.788   8.767 -1.4548 -3.3622  1.5500
  431MOL0     H56864   2.349   9.951   8.698 -0.2729  0.6067  0.1190
  431MOL0     H56865   2.362   9.860   8.846  1.2205 -2.9273 -1.1560
  431MOL0     H56866   2.567  10.078   8.746  0.8755  1.1319  0.9024
  431MOL0     H56867   2.570   9.998   8.907  0.2014  0.7407  0.8962
  431MOL0     H56868   2.490  10.216   8.949 -0.4569  0.6683 -0.8356
  431MOL0     H56869   2.372  10.084   8.977  1.3286 -0.8254  0.0704
  431MOL0     H56870   2.358  10.202   8.701  1.9643 -1.9488  0.4107
  431MOL0     H56871   2.231  10.163   8.823  1.4035 -0.8593  1.1438
  431MOL0     H56872   2.406  10.411   8.774  0.5326  1.8200  1.9395
  431MOL0     H56873   2.351  10.374   8.937  0.0308 -0.6673 -0.0352
  431MOL0     H56874   2.380   9.521   9.105  1.4747 -1.0459  1.5401
  431MOL0     H56875   2.301   9.351   9.273  0.7366 -1.3275  0.0122
  431MOL0     H56876   2.275   9.020   9.472 -1.2767  0.2684  0.7924
  431MOL0     H56877   2.246   8.863   9.652  2.2031  2.9735 -0.4387
  431MOL0     H56878   1.315   8.945   8.730 -0.8121  2.9144 -1.9148
  431MOL0     H56879   1.076   9.002   8.682 -3.9715 -0.7457 -0.6584
  431MOL0     H56880   0.655   9.165   8.626 -2.6785  2.3192 -2.9592
  431MOL0     H56881   0.463   9.195   8.517  0.8731 -0.3612  0.1350
  431MOL0     H56882   0.203   9.151   8.242 -1.4276  1.4228  1.1239
  431MOL0     H56883   0.323   9.214   8.358 -1.5720  0.7355  1.2837
  431MOL0     H56884   0.213   9.105   8.548  0.0714 -0.6760 -0.5465
  431MOL0     H56885   0.127   9.227   8.462  0.1127  1.5372 -1.8118
  431MOL0     H56886   0.080   8.928   8.430 -0.0502 -1.1834  0.9163
  431MOL0     H56887  -0.013   9.059   8.346 -0.7059  2.6253  1.2657
  431MOL0     H56888  -0.020   9.072   8.655 -1.6283 -2.6403  1.5906
  431MOL0     H56889  -0.119   9.146   8.537 -1.5332 -1.2439 -1.3597
  431MOL0     H56890  -0.363   8.834   8.535 -0.1073 -0.9577 -2.2247
  431MOL0     H56891   0.504   8.820   8.300 -0.7416 -1.8127  0.2285
  431MOL0     H56892   0.713   8.783   8.431  0.7049  0.1559  1.1508
  432MOL0     O56893   2.874   6.392   6.338 -0.5521  0.1010 -0.1821
  432MOL0     C56894   2.805   6.298   6.311  0.6554  0.9867  0.2903
  432MOL0     O56895   2.671   6.288   6.331 -0.2149  0.7464 -0.2689
  432MOL0     C56896   2.611   6.368   6.424 -0.5475 -0.2812 -0.1284
  432MOL0     C56897   2.477   6.405   6.414 -0.3547  0.1926  0.5357
  432MOL0     C56898   2.398   6.467   6.519 -0.0794 -0.3985  0.0398
  432MOL0     C56899   2.456   6.509   6.635 -0.5271 -0.0105  0.0607
  432MOL0     O56900   2.392   6.572   6.744 -0.6561  0.5530  0.3910
  432MOL0     C56901   2.254   6.586   6.728  1.1777  0.0332 -0.0842
  432MOL0     C56902   2.193   6.638   6.863 -0.5765 -0.0962 -0.5368
  432MOL0     C56903   2.269   6.758   6.916 -0.2138  0.4347 -0.3819
  432MOL0     C56904   2.224   6.818   7.052 -0.1936  0.2982  0.3008
  432MOL0     C56905   2.100   6.904   7.028  0.1652 -0.4882  0.2195
  432MOL0     C56906   2.077   7.006   7.141  0.9325 -0.3841  0.3052
  432MOL0     C56907   2.166   7.119   7.151 -0.8876 -0.2394 -0.1056
  432MOL0     C56908   2.134   7.207   7.274  0.1047  0.3219  0.3945
  432MOL0     N56909   2.168   7.350   7.241 -0.5137 -0.8852  0.3110
  432MOL0     C56910   2.109   7.439   7.140 -0.0258 -0.2173 -0.8998
  432MOL0     C56911   2.140   7.564   7.190  0.5656 -0.1545 -1.0495
  432MOL0     C56912   2.091   7.700   7.142 -0.0982 -0.3631 -0.9222
  432MOL0     C56913   2.182   7.754   7.033  0.5692 -0.3433 -0.6262
  432MOL0     C56914   2.159   7.902   7.008  0.8859  0.4440 -0.1318
  432MOL0     C56915   2.246   7.945   6.886  0.4102 -0.1757 -0.5089
  432MOL0     O56916   2.229   8.087   6.868 -0.4724  0.2151 -0.8199
  432MOL0     C56917   2.256   8.144   6.742  0.2372  0.2705  0.2827
  432MOL0     C56918   2.244   8.279   6.720 -0.0569  0.2566 -0.9638
  432MOL0     C56919   2.268   8.333   6.600 -0.5614  0.7968 -0.0733
  432MOL0     C56920   2.304   8.245   6.488  0.4608  0.1409 -0.1808
  432MOL0     C56921   2.340   8.301   6.352 -0.5892 -0.0699  1.0400
  432MOL0     O56922   2.400   8.214   6.256 -0.0749 -0.7895 -0.2969
  432MOL0     C56923   2.392   8.255   6.122 -0.2424  0.5750  0.1422
  432MOL0     C56924   2.283   8.319   6.064 -0.4878 -0.3610 -0.2474
  432MOL0     C56925   2.285   8.355   5.925  0.9417 -0.6659 -0.0408
  432MOL0     C56926   2.392   8.323   5.847 -0.3966  0.2701  0.5529
  432MOL0     O56927   2.404   8.345   5.712 -0.4687 -0.1417 -0.3875
  432MOL0     C56928   2.342   8.233   5.641  0.3012  1.1142 -0.4005
  432MOL0     C56929   2.309   8.271   5.497  0.6400  0.3684 -0.3391
  432MOL0     C56930   2.410   8.231   5.388 -0.7110 -0.5668 -0.3071
  432MOL0     C56931   2.552   8.247   5.439 -0.6548  1.0359 -0.7030
  432MOL0     C56932   2.664   8.219   5.330 -0.1633 -0.5762  0.5666
  432MOL0     C56933   2.698   8.346   5.260 -0.2164 -0.3241  0.6864
  432MOL0     C56934   2.796   8.359   5.144 -0.4257 -0.9491  1.2442
  432MOL0     C56935   2.791   8.502   5.087  0.0774  0.6820  0.2021
  432MOL0    Cl56936   2.893   8.511   4.943 -0.4215  0.1419 -0.0109
  432MOL0     C56937   2.504   8.247   5.905  0.1340 -0.1517  0.4878
  432MOL0     C56938   2.495   8.214   6.040 -0.4409 -0.8313 -0.3533
  432MOL0     O56939   2.326   8.423   6.331  0.0362 -0.4344 -0.3784
  432MOL0     C56940   2.313   8.108   6.515 -1.0082 -0.1810  0.2625
  432MOL0     C56941   2.296   8.062   6.639 -0.2599 -0.4028  0.0299
  432MOL0     N56942   2.193   7.556   7.317  0.1747  0.2834 -0.0057
  432MOL0     N56943   2.216   7.432   7.342 -0.1074  0.6027  0.3730
  432MOL0     C56944   2.598   6.493   6.641 -0.7246 -0.8411 -0.2276
  432MOL0     C56945   2.672   6.432   6.543 -0.0177  0.5626 -0.1905
  432MOL0     C56946   2.858   6.183   6.242  0.5946  0.0588 -0.2242
  432MOL0     C56947   2.772   6.097   6.173  0.8559  0.5325  1.0065
  432MOL0     C56948   2.832   5.986   6.102  0.0888  0.4329  0.2453
  432MOL0     C56949   2.967   5.967   6.096 -0.1450 -0.5971  0.1112
  432MOL0     O56950   3.022   5.850   6.047  0.3998  0.4208  0.0015
  432MOL0     C56951   3.156   5.855   5.990  0.0908  0.2080  1.7214
  432MOL0     C56952   3.200   5.725   5.920 -0.7824  1.7725  0.7455
  432MOL0     C56953   3.194   5.612   6.020 -0.6407 -0.9541  0.6910
  432MOL0     C56954   3.245   5.476   5.969  0.0277 -0.4583 -0.3616
  432MOL0     C56955   3.183   5.436   5.844 -1.3009 -0.2089  0.5291
  432MOL0     C56956   3.123   5.419   5.737 -0.0032 -0.2201 -0.7375
  432MOL0     C56957   3.053   6.059   6.160  1.1226  0.0666  0.4264
  432MOL0     C56958   3.002   6.162   6.236  1.1198  0.0456  0.3542
  432MOL0     H56959   2.423   6.376   6.325 -1.3070  1.0985  0.7950
  432MOL0     H56960   2.294   6.482   6.492 -0.6458  0.1125  2.3021
  432MOL0     H56961   2.214   6.485   6.719  0.2390  0.4785 -1.2670
  432MOL0     H56962   2.218   6.648   6.645 -0.8095 -0.3412  0.4266
  432MOL0     H56963   2.203   6.554   6.933  0.3994 -0.1262 -0.6987
  432MOL0     H56964   2.088   6.667   6.861 -0.4200  0.5774  0.3403
  432MOL0     H56965   2.280   6.836   6.839  2.2968 -0.1653 -0.7447
  432MOL0     H56966   2.377   6.741   6.927 -0.3476  1.0909  2.7747
  432MOL0     H56967   2.203   6.731   7.114 -1.1709  1.1328  1.1789
  432MOL0     H56968   2.299   6.878   7.104 -2.1531  2.7377  0.5139
  432MOL0     H56969   2.014   6.838   7.010  0.9391 -0.9594 -2.1283
  432MOL0     H56970   2.107   6.955   6.932 -1.8014 -0.6363 -0.0475
  432MOL0     H56971   2.064   6.956   7.237  1.4005  2.0907  1.7608
  432MOL0     H56972   1.980   7.051   7.114  0.2078 -1.7586  0.4958
  432MOL0     H56973   2.265   7.073   7.158 -1.7505 -2.4505 -1.5409
  432MOL0     H56974   2.161   7.180   7.061 -1.0312 -0.4774 -0.2613
  432MOL0     H56975   2.200   7.176   7.356  1.4861  1.4526 -0.2497
  432MOL0     H56976   2.031   7.198   7.310  0.1164  0.5846  0.4923
  432MOL0     H56977   2.067   7.420   7.042  0.7784 -0.5073 -1.1968
  432MOL0     H56978   2.099   7.773   7.223 -2.6052 -0.0351 -0.8722
  432MOL0     H56979   1.983   7.701   7.120 -0.4924  1.4625  0.8039
  432MOL0     H56980   2.163   7.693   6.944  1.2224 -2.0766  0.3835
  432MOL0     H56981   2.288   7.750   7.059  0.5272 -0.8284 -0.5173
  432MOL0     H56982   2.056   7.935   6.989  0.3432 -0.3493  1.3326
  432MOL0     H56983   2.190   7.970   7.088  5.1744 -2.5718  1.1522
  432MOL0     H56984   2.193   7.904   6.799  0.7214  0.9713 -1.2518
  432MOL0     H56985   2.350   7.911   6.897  0.0053 -0.9064  1.4162
  432MOL0     H56986   2.224   8.329   6.815 -3.2201 -2.4558  0.0132
  432MOL0     H56987   2.247   8.439   6.597 -1.9396  0.5223 -1.6084
  432MOL0     H56988   2.195   8.345   6.123  1.2137  4.0874  0.7572
  432MOL0     H56989   2.196   8.400   5.880  0.6038 -0.9544  0.3337
  432MOL0     H56990   2.250   8.201   5.692  1.8797 -0.6865  1.4727
  432MOL0     H56991   2.397   8.139   5.641 -1.4382  0.0323  0.5615
  432MOL0     H56992   2.275   8.375   5.502  2.2125  0.9669 -1.3303
  432MOL0     H56993   2.217   8.215   5.481 -0.0724  0.8751  1.6909
  432MOL0     H56994   2.394   8.297   5.302 -0.3244  1.5848  1.2156
  432MOL0     H56995   2.395   8.124   5.367  1.5460 -1.8550  3.6024
  432MOL0     H56996   2.558   8.349   5.477 -0.8681  0.7338  0.1629
  432MOL0     H56997   2.557   8.168   5.514 -1.7745 -1.1231 -2.7548
  432MOL0     H56998   2.626   8.137   5.267  1.9996 -3.1899  2.4746
  432MOL0     H56999   2.762   8.183   5.362  0.1475 -3.1035 -2.5884
  432MOL0     H57000   2.744   8.401   5.343 -2.2093  1.5743  0.6393
  432MOL0     H57001   2.603   8.389   5.228  0.4811 -0.5757 -1.9342
  432MOL0     H57002   2.897   8.338   5.183 -0.6927 -1.2282  1.7926
  432MOL0     H57003   2.780   8.301   5.053  2.9876 -0.5883  0.2411
  432MOL0     H57004   2.815   8.574   5.167 -3.0764 -0.0128  1.9593
  432MOL0     H57005   2.690   8.527   5.052 -0.2111 -0.2736  0.3390
  432MOL0     H57006   2.597   8.231   5.851  1.6549  3.9707  1.4910
  432MOL0     H57007   2.579   8.156   6.078 -1.2421 -2.0588 -0.3841
  432MOL0     H57008   2.344   8.043   6.433  2.0717  1.5094 -0.0521
  432MOL0     H57009   2.310   7.958   6.665 -2.2916 -0.4794  1.0891
  432MOL0     H57010   2.645   6.545   6.723 -2.6718  2.4659 -1.0445
  432MOL0     H57011   2.778   6.433   6.566 -0.3982 -1.3911  2.1509
  432MOL0     H57012   2.666   6.113   6.161  0.5036  0.7547  3.6995
  432MOL0     H57013   2.776   5.919   6.039 -1.6005 -1.7928  3.7882
  432MOL0     H57014   3.227   5.872   6.071 -1.2713  1.6493  2.6708
  432MOL0     H57015   3.168   5.935   5.916 -0.7619 -0.9926  0.2203
  432MOL0     H57016   3.126   5.705   5.842  1.3332 -0.4758 -0.8004
  432MOL0     H57017   3.298   5.730   5.873 -1.3909  1.3956 -0.6097
  432MOL0     H57018   3.089   5.607   6.049 -0.8547  1.9491  0.7976
  432MOL0     H57019   3.242   5.639   6.115 -1.8663  2.0900  0.5650
  432MOL0     H57020   3.352   5.474   5.945 -0.0839 -1.3402 -0.8432
  432MOL0     H57021   3.221   5.404   6.048 -0.1937 -2.6088 -2.3048
  432MOL0     H57022   3.060   5.388   5.656 -0.6495 -2.2784  0.4750
  432MOL0     H57023   3.161   6.044   6.153  0.8657 -1.0758 -2.0223
  432MOL0     H57024   3.078   6.222   6.286  2.1523 -1.0754  0.1882
  433MOL0     O57025   2.946   3.402   0.445  0.3260 -0.7000  0.1163
  433MOL0     C57026   2.871   3.344   0.521  0.2439 -0.7865  0.3673
  433MOL0     O57027   2.901   3.289   0.643 -0.4595  0.5517  0.4749
  433MOL0     C57028   3.028   3.322   0.700 -0.0838  1.2972 -0.2186
  433MOL0     C57029   3.107   3.209   0.732  1.5151 -0.9852 -0.4344
  433MOL0     C57030   3.232   3.229   0.791 -1.0596  0.0951  0.4165
  433MOL0     C57031   3.271   3.356   0.825  0.1620 -0.8267  0.3298
  433MOL0     O57032   3.397   3.372   0.892  0.7209 -0.3104  0.5536
  433MOL0     C57033   3.508   3.373   0.802 -0.3465  0.0568 -0.2403
  433MOL0     C57034   3.643   3.419   0.876  0.0030  0.7947  0.6086
  433MOL0     C57035   3.746   3.432   0.769 -0.0248 -0.1372  0.4016
  433MOL0     C57036   3.878   3.477   0.827  0.9604  0.1608 -0.7634
  433MOL0     C57037   3.968   3.525   0.720 -0.7311 -0.8107  0.9258
  433MOL0     C57038   3.998   3.426   0.612 -0.2892 -0.1934 -0.4570
  433MOL0     C57039   4.048   3.497   0.489 -0.9738  0.4836  0.2326
  433MOL0     C57040   3.981   3.618   0.421 -0.4612  0.3547  0.1316
  433MOL0     N57041   3.842   3.596   0.421 -0.6539  1.2280  0.5645
  433MOL0     C57042   3.780   3.501   0.339  0.8650 -0.0499 -0.2678
  433MOL0     C57043   3.650   3.530   0.350 -0.9070  0.7665  1.0170
  433MOL0     C57044   3.541   3.475   0.263  0.8202  0.3960  0.8874
  433MOL0     C57045   3.474   3.358   0.351 -0.0228 -0.2411  1.0514
  433MOL0     C57046   3.348   3.311   0.267 -0.2557  0.1022 -0.6999
  433MOL0     C57047   3.262   3.200   0.349 -0.2458 -0.3065 -0.3655
  433MOL0     O57048   3.150   3.175   0.269  0.5502 -0.0431  0.0776
  433MOL0     C57049   3.061   3.078   0.313  0.0347 -0.3613 -0.3926
  433MOL0     C57050   3.085   2.989   0.415  0.0026  0.9264 -0.0373
  433MOL0     C57051   2.996   2.885   0.436  0.0847 -0.8297  0.2329
  433MOL0     C57052   2.879   2.865   0.370 -0.1231 -0.3030  0.5488
  433MOL0     C57053   2.799   2.743   0.400 -1.0812  0.4296 -0.1396
  433MOL0     O57054   2.841   2.661   0.510  0.3068 -0.2607  0.0347
  433MOL0     C57055   2.780   2.544   0.550  0.2850 -0.8923  1.0142
  433MOL0     C57056   2.636   2.538   0.544  1.2566 -0.3896  0.3097
  433MOL0     C57057   2.573   2.429   0.593 -1.2608  0.6852  0.5505
  433MOL0     C57058   2.641   2.311   0.638 -0.0876  0.1594 -0.3202
  433MOL0     O57059   2.589   2.196   0.701 -0.6853  0.1572  0.2738
  433MOL0     C57060   2.446   2.177   0.698 -0.3931 -0.3122  0.3103
  433MOL0     C57061   2.409   2.063   0.794  0.6703  0.3070 -0.4516
  433MOL0     C57062   2.427   2.086   0.947  0.5851  0.2618  0.4783
  433MOL0     C57063   2.381   1.977   1.044  0.0847  0.1976 -0.3027
  433MOL0     C57064   2.442   2.020   1.185  0.9595  0.7318  1.0382
  433MOL0     C57065   2.392   1.947   1.308 -1.2005  0.1920  0.1068
  433MOL0     C57066   2.459   1.988   1.442  0.1529  0.9193  0.2613
  433MOL0     C57067   2.376   1.936   1.563 -0.5486  1.0771 -0.3516
  433MOL0    Cl57068   2.310   1.774   1.538 -0.5736  0.1963  0.2317
  433MOL0     C57069   2.786   2.312   0.633 -0.9126 -0.6195  0.0106
  433MOL0     C57070   2.855   2.430   0.586  0.7514 -0.1114  0.4009
  433MOL0     O57071   2.711   2.717   0.323 -0.0353  0.1287  0.6483
  433MOL0     C57072   2.851   2.952   0.270 -0.4850  0.5125 -0.2569
  433MOL0     C57073   2.936   3.057   0.239  0.7243  0.1118  0.3214
  433MOL0     N57074   3.635   3.624   0.452 -0.8345 -0.5087  0.2741
  433MOL0     N57075   3.750   3.649   0.498 -0.3851 -0.3531 -0.7716
  433MOL0     C57076   3.192   3.468   0.805  0.6416 -0.4655  0.1371
  433MOL0     C57077   3.077   3.451   0.733  0.2042 -0.0952 -0.5414
  433MOL0     C57078   2.746   3.291   0.465  0.8441  0.7849  0.5118
  433MOL0     C57079   2.670   3.196   0.541 -0.3670 -0.0144  0.3870
  433MOL0     C57080   2.567   3.117   0.485  0.8025  0.8731  0.4002
  433MOL0     C57081   2.526   3.147   0.351  0.5424  0.7534 -0.0761
  433MOL0     O57082   2.438   3.060   0.289 -0.0490  0.1843 -0.1987
  433MOL0     C57083   2.394   3.092   0.153  0.5816  0.1748  0.7028
  433MOL0     C57084   2.294   2.981   0.140 -0.6970 -0.2402  0.4651
  433MOL0     C57085   2.316   2.900   0.011 -0.1127 -1.0489 -0.1728
  433MOL0     C57086   2.211   2.791  -0.003 -0.0484  0.0048  0.2551
  433MOL0     C57087   2.209   2.669   0.075  0.5729  0.0902 -0.7507
  433MOL0     C57088   2.205   2.575   0.157  0.0033 -0.2897  0.6340
  433MOL0     C57089   2.583   3.257   0.287  0.5053 -0.8728 -0.2177
  433MOL0     C57090   2.692   3.329   0.342  0.0859 -0.4724  1.1966
  433MOL0     H57091   3.067   3.111   0.707  1.8454 -1.8446  2.1375
  433MOL0     H57092   3.297   3.143   0.803 -2.9379 -1.5820 -0.6544
  433MOL0     H57093   3.493   3.442   0.718  2.5140 -0.1647 -1.0392
  433MOL0     H57094   3.511   3.269   0.767 -0.1433 -0.6777  1.8552
  433MOL0     H57095   3.686   3.341   0.941  2.0515  3.3158  2.4848
  433MOL0     H57096   3.630   3.508   0.938 -0.7058  0.4098  1.0259
  433MOL0     H57097   3.706   3.501   0.694  0.3718  0.1752  0.4705
  433MOL0     H57098   3.768   3.336   0.722  0.7853  1.0509 -1.8380
  433MOL0     H57099   3.862   3.559   0.898  2.4847 -0.0514 -0.1504
  433MOL0     H57100   3.943   3.406   0.877  0.2558  0.8262  1.1713
  433MOL0     H57101   4.053   3.574   0.768 -3.3003  2.7605  2.2604
  433MOL0     H57102   3.921   3.617   0.684 -1.8171 -1.0641  1.6472
  433MOL0     H57103   3.910   3.369   0.583  0.5325 -1.3719 -0.6992
  433MOL0     H57104   4.085   3.367   0.642  1.5671  2.8449  0.6389
  433MOL0     H57105   4.153   3.518   0.514 -1.5137  0.3959  2.9337
  433MOL0     H57106   4.046   3.423   0.409 -0.4633 -1.8591  2.2759
  433MOL0     H57107   4.006   3.631   0.316 -2.2030  0.9792 -0.2389
  433MOL0     H57108   4.005   3.709   0.477  2.7406  1.4330 -2.6377
  433MOL0     H57109   3.822   3.418   0.283 -2.8427 -1.4431 -1.2845
  433MOL0     H57110   3.589   3.422   0.180  2.6317 -0.7440  2.5744
  433MOL0     H57111   3.477   3.560   0.240  2.7305  1.8578  0.6697
  433MOL0     H57112   3.443   3.392   0.450  1.0177 -2.2265  2.1062
  433MOL0     H57113   3.546   3.276   0.345 -0.0259 -0.1424 -2.0033
  433MOL0     H57114   3.290   3.401   0.242  2.5532  2.3134  0.3033
  433MOL0     H57115   3.371   3.269   0.169  0.3508  0.4237 -0.6978
  433MOL0     H57116   3.241   3.250   0.444 -0.1160 -0.5154 -0.2277
  433MOL0     H57117   3.331   3.116   0.359  0.4345  0.3334  0.5548
  433MOL0     H57118   3.175   2.987   0.475 -1.1771 -2.1735  1.8471
  433MOL0     H57119   3.030   2.796   0.489  0.8941 -0.0034  1.1451
  433MOL0     H57120   2.582   2.620   0.498  2.4376  1.2120  1.6529
  433MOL0     H57121   2.466   2.415   0.581 -0.9518 -0.6765 -1.0207
  433MOL0     H57122   2.418   2.154   0.595 -2.4860  1.5858  0.3688
  433MOL0     H57123   2.392   2.267   0.729  1.1421  0.3498  1.1956
  433MOL0     H57124   2.467   1.972   0.776  2.5261  1.5472 -1.0062
  433MOL0     H57125   2.301   2.050   0.785  0.8656  0.2361 -3.5787
  433MOL0     H57126   2.365   2.172   0.972 -3.4464 -1.0908 -3.5757
  433MOL0     H57127   2.528   2.121   0.969  0.3299  0.2680  1.7160
  433MOL0     H57128   2.272   1.975   1.039 -0.0083  3.4144 -3.6811
  433MOL0     H57129   2.411   1.876   1.014 -3.4954 -1.3907  0.9443
  433MOL0     H57130   2.420   2.128   1.185  1.2128  0.7833  0.8669
  433MOL0     H57131   2.551   2.021   1.180  1.1382  0.8254  3.6111
  433MOL0     H57132   2.409   1.839   1.302 -0.6393  0.0654  2.8519
  433MOL0     H57133   2.284   1.953   1.319 -1.4257 -3.3511  1.2094
  433MOL0     H57134   2.552   1.929   1.449 -2.0953 -3.4754 -2.2750
  433MOL0     H57135   2.471   2.096   1.446  0.1614  0.8858  1.5956
  433MOL0     H57136   2.295   2.004   1.590 -0.1915  1.7744 -0.9923
  433MOL0     H57137   2.459   1.925   1.634  0.2423  1.0203 -1.2622
  433MOL0     H57138   2.842   2.227   0.671 -0.9026  0.3317  2.2432
  433MOL0     H57139   2.961   2.416   0.565  0.8372 -0.1822  0.8770
  433MOL0     H57140   2.760   2.929   0.216 -0.0109 -0.4200 -0.6712
  433MOL0     H57141   2.924   3.121   0.151  1.3860 -0.4330 -0.1708
  433MOL0     H57142   3.217   3.574   0.811 -0.1059  0.5487 -6.8512
  433MOL0     H57143   3.005   3.530   0.714  0.2561 -0.3614 -1.9487
  433MOL0     H57144   2.702   3.171   0.642  0.2273  0.3780  0.3056
  433MOL0     H57145   2.521   3.023   0.514 -1.2833  1.4983 -0.6522
  433MOL0     H57146   2.468   3.083   0.073 -1.6839 -0.1215 -1.4824
  433MOL0     H57147   2.332   3.182   0.145 -0.3320 -0.6299 -4.1025
  433MOL0     H57148   2.303   2.901   0.214 -1.1488 -1.6161 -0.8936
  433MOL0     H57149   2.188   3.006   0.148 -1.0013 -1.9144  2.7835
  433MOL0     H57150   2.417   2.857   0.012  0.1209 -0.5855 -1.3179
  433MOL0     H57151   2.303   2.964  -0.077 -1.4429  0.6119  1.1739
  433MOL0     H57152   2.113   2.835   0.012 -0.7149 -1.4905  0.4996
  433MOL0     H57153   2.209   2.751  -0.105 -1.5034 -1.2485  0.7442
  433MOL0     H57154   2.194   2.512   0.242  0.3695  1.1432  1.7822
  433MOL0     H57155   2.540   3.288   0.192  3.2415  0.4431 -1.1529
  433MOL0     H57156   2.744   3.405   0.284 -0.0724 -2.3930 -1.7008
  434MOL0     O57157   3.480   7.199   7.192  0.1046  0.3904  0.6862
  434MOL0     C57158   3.392   7.113   7.184 -0.1708 -0.7698  0.0958
  434MOL0     O57159   3.421   6.978   7.156  0.1585  0.3370 -0.7905
  434MOL0     C57160   3.535   6.923   7.152  0.4862  0.2095  0.0224
  434MOL0     C57161   3.641   6.962   7.224 -0.4977 -0.2986 -0.7540
  434MOL0     C57162   3.771   6.906   7.211 -0.6026  0.0427  0.4053
  434MOL0     C57163   3.787   6.808   7.117 -1.2976 -0.8830  0.2016
  434MOL0     O57164   3.910   6.744   7.086 -0.4862  0.0042  0.2267
  434MOL0     C57165   4.023   6.766   7.176  0.4659  0.2129  0.0376
  434MOL0     C57166   4.124   6.655   7.142  0.4156 -1.1477 -0.2076
  434MOL0     C57167   4.194   6.662   7.008 -0.7116  0.4856 -0.0567
  434MOL0     C57168   4.245   6.797   6.972 -0.4534 -0.5771  0.4501
  434MOL0     C57169   4.338   6.774   6.861 -0.3854  0.1002 -0.1251
  434MOL0     C57170   4.400   6.914   6.829 -0.3074  0.4218  0.3646
  434MOL0     C57171   4.485   6.902   6.698  0.3197  0.7244  0.8954
  434MOL0     C57172   4.613   6.824   6.712 -0.8828 -0.5680 -0.0106
  434MOL0     N57173   4.668   6.778   6.582 -0.1790  0.7035 -0.0363
  434MOL0     C57174   4.729   6.846   6.482 -0.3962  0.5242 -0.7159
  434MOL0     C57175   4.762   6.757   6.377  0.3527 -0.3559 -0.5771
  434MOL0     C57176   4.848   6.773   6.259  0.3284  0.9533 -0.1743
  434MOL0     C57177   4.772   6.832   6.148  0.6221 -0.0047 -0.3269
  434MOL0     C57178   4.862   6.905   6.042  0.4949  0.1119  0.1046
  434MOL0     C57179   4.774   6.940   5.912 -0.5337 -0.2600 -0.9299
  434MOL0     O57180   4.699   6.827   5.885  0.1091  0.1093  0.2899
  434MOL0     C57181   4.650   6.821   5.757 -1.1628  0.1315  0.5809
  434MOL0     C57182   4.692   6.891   5.645 -0.3367  0.2550  0.3619
  434MOL0     C57183   4.641   6.872   5.518  0.1857  0.3460  0.0747
  434MOL0     C57184   4.545   6.776   5.504 -0.4870 -0.2471 -0.2043
  434MOL0     C57185   4.475   6.762   5.372  0.2298 -1.3644 -0.7257
  434MOL0     O57186   4.513   6.830   5.265 -0.2243  0.2247  0.3948
  434MOL0     C57187   4.483   6.801   5.137 -0.1808  0.2973 -0.5380
  434MOL0     C57188   4.405   6.698   5.087  0.7460  0.5501 -0.1299
  434MOL0     C57189   4.393   6.670   4.952  0.2042  0.2197 -0.3391
  434MOL0     C57190   4.454   6.746   4.864  0.1329 -0.5932  0.0166
  434MOL0     O57191   4.428   6.714   4.729 -0.5099 -0.3930  0.4271
  434MOL0     C57192   4.475   6.784   4.605  0.0698 -0.2304 -0.3899
  434MOL0     C57193   4.621   6.750   4.578 -0.3725 -0.7455  0.5822
  434MOL0     C57194   4.664   6.772   4.434  0.7338  0.4071  0.0814
  434MOL0     C57195   4.795   6.704   4.403  1.2295  0.5469  0.0959
  434MOL0     C57196   4.865   6.743   4.273  0.8350  0.0552 -0.4500
  434MOL0     C57197   4.996   6.673   4.245 -0.7279 -0.1650  0.4974
  434MOL0     C57198   5.073   6.729   4.125  0.1471  0.4809  0.1869
  434MOL0     C57199   5.223   6.676   4.112 -0.3302 -0.0590  0.3659
  434MOL0    Cl57200   5.214   6.516   4.032 -0.5991  0.0105 -0.1594
  434MOL0     C57201   4.550   6.838   4.910 -0.1486  0.1667  0.3175
  434MOL0     C57202   4.567   6.863   5.049 -0.3935 -0.1637  0.0839
  434MOL0     O57203   4.368   6.694   5.377  0.3309 -0.1906  0.7446
  434MOL0     C57204   4.509   6.699   5.613  0.4991  0.2762  0.8711
  434MOL0     C57205   4.563   6.720   5.738 -0.1180  0.2193  0.5069
  434MOL0     N57206   4.697   6.640   6.413  0.7959  0.1336 -0.4052
  434MOL0     N57207   4.657   6.647   6.539  0.0162 -0.4618 -0.4160
  434MOL0     C57208   3.684   6.769   7.048 -0.1087  1.1592 -0.6089
  434MOL0     C57209   3.558   6.826   7.060 -0.1824 -0.3099  0.0396
  434MOL0     C57210   3.258   7.152   7.160  0.5433 -0.2112 -0.3770
  434MOL0     C57211   3.158   7.058   7.168  0.3079  0.1262  0.2310
  434MOL0     C57212   3.027   7.086   7.132 -0.4976  0.1996 -1.1036
  434MOL0     C57213   2.992   7.216   7.099  0.1775  0.3188  0.0825
  434MOL0     O57214   2.863   7.219   7.062 -0.2647  0.0678 -0.3560
  434MOL0     C57215   2.829   7.341   6.985 -0.5145  0.5208 -0.7090
  434MOL0     C57216   2.733   7.423   7.066  0.0396 -0.4448 -0.0342
  434MOL0     C57217   2.603   7.442   6.995  0.0805  0.2211  0.4057
  434MOL0     C57218   2.499   7.344   7.035 -0.5727  0.2189  0.2339
  434MOL0     C57219   2.391   7.334   6.938  0.1892  0.3619  0.1425
  434MOL0     C57220   2.299   7.343   6.858 -0.3833  0.6977  0.9289
  434MOL0     C57221   3.090   7.316   7.116  0.5821 -1.0339 -0.3858
  434MOL0     C57222   3.214   7.287   7.154 -0.6909  0.0532  0.2796
  434MOL0     H57223   3.631   7.038   7.300 -3.1173 -1.3390  0.0508
  434MOL0     H57224   3.847   6.926   7.285 -0.9007  0.7006  0.5388
  434MOL0     H57225   3.992   6.752   7.280  2.1800  0.4997  0.6198
  434MOL0     H57226   4.059   6.868   7.166  0.2639  0.1064 -2.4940
  434MOL0     H57227   4.083   6.555   7.155  0.0994 -0.9211  0.5789
  434MOL0     H57228   4.195   6.684   7.219 -3.1938  3.2494  1.9827
  434MOL0     H57229   4.132   6.613   6.933 -0.5075 -1.0644  0.7542
  434MOL0     H57230   4.286   6.605   7.027  0.1018  2.1256  1.1862
  434MOL0     H57231   4.166   6.869   6.951  1.0557  0.6933 -1.2174
  434MOL0     H57232   4.308   6.835   7.053 -1.8788  2.5613  0.2326
  434MOL0     H57233   4.283   6.731   6.778 -1.7327 -1.5954  1.5568
  434MOL0     H57234   4.410   6.697   6.888  0.8922  1.7248  1.3560
  434MOL0     H57235   4.463   6.950   6.912  1.6543 -3.3412  0.7253
  434MOL0     H57236   4.325   6.990   6.806 -0.4359 -0.0036 -0.6281
  434MOL0     H57237   4.435   6.861   6.610 -1.5293  2.5539  1.0281
  434MOL0     H57238   4.519   7.003   6.673 -0.5225  1.3294  2.1154
  434MOL0     H57239   4.591   6.729   6.761 -0.8353 -0.3486  0.4441
  434MOL0     H57240   4.691   6.875   6.769  0.1952 -1.4362 -0.6750
  434MOL0     H57241   4.775   6.944   6.486  0.5646  0.0619 -0.1333
  434MOL0     H57242   4.884   6.673   6.231 -0.0811  0.7797 -0.1044
  434MOL0     H57243   4.928   6.842   6.287  1.4401  0.2224 -1.4157
  434MOL0     H57244   4.695   6.897   6.189 -0.9344 -1.0690 -1.4239
  434MOL0     H57245   4.716   6.747   6.107 -2.3260  0.8854  1.5773
  434MOL0     H57246   4.909   6.994   6.085  1.6894 -1.2372  1.6857
  434MOL0     H57247   4.937   6.833   6.007 -0.2313 -1.6652  2.0251
  434MOL0     H57248   4.837   6.981   5.833  1.7202  1.4919  1.6053
  434MOL0     H57249   4.707   7.014   5.957  2.4581 -0.4472  4.8222
  434MOL0     H57250   4.776   6.960   5.643 -0.3197  0.2473 -1.8995
  434MOL0     H57251   4.711   6.914   5.447  1.6308 -0.1409  1.1565
  434MOL0     H57252   4.329   6.646   5.145 -2.2974  2.3668 -2.1957
  434MOL0     H57253   4.309   6.615   4.910  0.6278 -0.5279 -0.2112
  434MOL0     H57254   4.461   6.889   4.632 -0.0938 -0.7618  1.7665
  434MOL0     H57255   4.403   6.769   4.524 -3.7069  1.3142  2.4171
  434MOL0     H57256   4.628   6.644   4.602  0.5618 -1.0624 -1.0119
  434MOL0     H57257   4.699   6.795   4.641  1.0137 -1.0186 -0.8904
  434MOL0     H57258   4.663   6.881   4.424 -1.4898  0.4721  0.4234
  434MOL0     H57259   4.594   6.739   4.356  1.8431 -0.8740 -0.4234
  434MOL0     H57260   4.871   6.743   4.472  1.1647  1.6933 -0.4619
  434MOL0     H57261   4.783   6.596   4.417  1.3002  0.4149 -0.7898
  434MOL0     H57262   4.878   6.851   4.269  0.5108  0.1724  1.1686
  434MOL0     H57263   4.791   6.727   4.193  0.2607 -1.2718  0.3090
  434MOL0     H57264   4.982   6.566   4.233  1.4542 -1.1709  4.8473
  434MOL0     H57265   5.076   6.696   4.317  0.2548  2.3524 -1.2527
  434MOL0     H57266   5.022   6.718   4.029  1.0689  1.4665 -0.4404
  434MOL0     H57267   5.077   6.839   4.127 -1.3849  0.5424  0.4260
  434MOL0     H57268   5.269   6.663   4.211  0.2313  1.1649  0.2837
  434MOL0     H57269   5.284   6.745   4.053  2.2431 -0.3264  2.5133
  434MOL0     H57270   4.612   6.898   4.843  0.3627 -0.4547  0.2193
  434MOL0     H57271   4.632   6.940   5.091 -1.0340  1.5992 -1.9589
  434MOL0     H57272   4.445   6.612   5.604  3.8254 -2.1404 -4.1262
  434MOL0     H57273   4.538   6.654   5.820 -2.8360 -1.4403 -1.4734
  434MOL0     H57274   3.708   6.689   6.978  0.6433  0.9581 -0.1336
  434MOL0     H57275   3.468   6.792   7.009 -1.8809  4.3497 -0.6348
  434MOL0     H57276   3.177   6.953   7.188  0.9955 -0.2020 -1.9069
  434MOL0     H57277   2.964   7.001   7.111  1.8283 -1.4965 -1.5904
  434MOL0     H57278   2.802   7.310   6.883 -0.3981  2.1595 -1.2725
  434MOL0     H57279   2.917   7.400   6.960  1.3452 -0.9236  1.9544
  434MOL0     H57280   2.705   7.378   7.162  1.6810 -0.2775  0.5510
  434MOL0     H57281   2.769   7.521   7.100 -0.9040 -0.3081  0.6196
  434MOL0     H57282   2.619   7.431   6.888  1.4698 -2.4481  0.7897
  434MOL0     H57283   2.567   7.542   7.021  0.1469  0.2709  0.3073
  434MOL0     H57284   2.550   7.247   7.039 -0.4097  0.2277 -1.2696
  434MOL0     H57285   2.461   7.374   7.133  0.6162 -1.7861  1.3778
  434MOL0     H57286   2.226   7.362   6.782 -0.4090  0.2692  0.8477
  434MOL0     H57287   3.061   7.419   7.100 -3.9025 -1.9343  0.3549
  434MOL0     H57288   3.278   7.375   7.160 -0.4926 -0.1539  1.3688
  435MOL0     O57289   7.743   6.846   0.715  0.3259 -0.3328 -0.0363
  435MOL0     C57290   7.791   6.740   0.745 -0.5269  0.5298  0.2462
  435MOL0     O57291   7.850   6.715   0.869 -0.6653  0.2826 -0.3967
  435MOL0     C57292   7.848   6.786   0.980  0.0493 -0.8239  0.0239
  435MOL0     C57293   7.771   6.900   0.996 -0.4506 -0.9373  0.6797
  435MOL0     C57294   7.802   6.977   1.099 -0.4080 -0.1272 -0.3555
  435MOL0     C57295   7.906   6.956   1.195 -0.5900 -0.1663  0.2200
  435MOL0     O57296   7.914   7.056   1.298 -0.3807  1.0381  0.5504
  435MOL0     C57297   7.927   7.006   1.422 -0.8664 -0.7286 -0.9771
  435MOL0     C57298   7.929   7.139   1.514 -0.1522  0.8229 -0.8028
  435MOL0     C57299   8.063   7.218   1.484 -0.1818 -0.0935 -0.4711
  435MOL0     C57300   8.198   7.152   1.531  0.2862  0.6471  0.3041
  435MOL0     C57301   8.323   7.226   1.501 -0.3970  0.3132 -0.0624
  435MOL0     C57302   8.320   7.369   1.551  0.4601  0.9009  0.8370
  435MOL0     C57303   8.467   7.416   1.574 -0.0893 -0.2613  0.5069
  435MOL0     C57304   8.479   7.570   1.591  0.4820  0.0569  0.1391
  435MOL0     N57305   8.407   7.621   1.713 -0.7569 -0.5786 -0.0618
  435MOL0     C57306   8.393   7.761   1.734  0.0455 -0.0833  0.8093
  435MOL0     C57307   8.300   7.771   1.838 -0.3744 -0.1776  0.4961
  435MOL0     C57308   8.230   7.903   1.872 -0.3858  0.5399 -0.7878
  435MOL0     C57309   8.120   7.877   1.977 -0.7239 -0.3936 -0.3408
  435MOL0     C57310   8.092   8.000   2.058 -0.6482 -0.5687 -0.7057
  435MOL0     C57311   8.023   8.106   1.971 -0.1757  0.4054  0.3383
  435MOL0     O57312   8.048   8.230   2.052 -0.2649  0.1020 -0.3262
  435MOL0     C57313   8.025   8.354   1.999 -1.6776 -0.3184  0.0611
  435MOL0     C57314   7.988   8.369   1.871  1.2334 -0.7118 -1.1046
  435MOL0     C57315   7.948   8.495   1.835  0.3075 -0.9542 -0.5527
  435MOL0     C57316   7.945   8.605   1.926 -1.2311 -0.3794 -0.9573
  435MOL0     C57317   7.899   8.740   1.888  0.1321  0.7984 -0.0060
  435MOL0     O57318   7.832   8.747   1.775  0.3679  0.4220 -0.2815
  435MOL0     C57319   7.804   8.867   1.713  0.0879 -0.8696  0.5315
  435MOL0     C57320   7.846   8.887   1.579  0.3603  0.3024  0.1592
  435MOL0     C57321   7.803   9.001   1.507 -0.4069  0.6559  1.0078
  435MOL0     C57322   7.729   9.105   1.567 -0.5085  0.4025  0.3105
  435MOL0     O57323   7.686   9.205   1.485  0.4594 -0.1707  0.4854
  435MOL0     C57324   7.609   9.317   1.541  0.0235  0.7492 -0.5298
  435MOL0     C57325   7.588   9.416   1.425  0.3409  0.3787  0.6902
  435MOL0     C57326   7.703   9.504   1.389 -0.4871 -0.4965 -0.5830
  435MOL0     C57327   7.672   9.596   1.269  1.4221  0.1921  0.1066
  435MOL0     C57328   7.782   9.684   1.211  0.3068  0.6897 -0.3428
  435MOL0     C57329   7.852   9.771   1.315  0.4793 -0.4870 -0.2276
  435MOL0     C57330   7.754   9.875   1.381  0.7370  0.5826  1.0654
  435MOL0     C57331   7.661   9.964   1.296 -0.4791  0.1364  0.6836
  435MOL0    Cl57332   7.747  10.073   1.169  0.2534  0.4212  0.2098
  435MOL0     C57333   7.699   9.091   1.701  0.7700  0.2332 -0.5369
  435MOL0     C57334   7.726   8.973   1.775 -0.7446  0.4598  0.5921
  435MOL0     O57335   7.936   8.837   1.954  0.8779  0.6060 -0.0998
  435MOL0     C57336   8.002   8.588   2.057  0.6038  0.0765 -0.6449
  435MOL0     C57337   8.055   8.462   2.085 -0.2252 -0.2423 -0.0939
  435MOL0     N57338   8.270   7.639   1.872 -0.6537  0.0067 -1.0033
  435MOL0     N57339   8.338   7.558   1.804 -0.0487  0.0748  0.6927
  435MOL0     C57340   7.977   6.837   1.174 -0.8178  0.5765 -0.4250
  435MOL0     C57341   7.946   6.755   1.072  0.8405  0.0632  0.5899
  435MOL0     C57342   7.818   6.634   0.643  0.3093  1.5262 -0.1996
  435MOL0     C57343   7.756   6.645   0.508  0.0047 -0.4090 -0.5688
  435MOL0     C57344   7.764   6.539   0.415 -1.0562  0.2627 -1.1305
  435MOL0     C57345   7.839   6.426   0.448 -0.8774 -0.5089  0.3096
  435MOL0     O57346   7.855   6.314   0.368 -0.4335  0.3484  0.2351
  435MOL0     C57347   7.819   6.312   0.237 -0.3395 -0.4170 -0.0302
  435MOL0     C57348   7.862   6.180   0.177  0.3346  0.2930 -1.0431
  435MOL0     C57349   7.791   6.063   0.233  0.2717  0.1816  0.7373
  435MOL0     C57350   7.843   5.922   0.191 -0.1336  0.1005  0.5012
  435MOL0     C57351   7.780   5.827   0.282  0.5150  0.4185  0.3296
  435MOL0     C57352   7.715   5.754   0.357  0.5754 -0.3870  0.4195
  435MOL0     C57353   7.892   6.418   0.582  0.4681 -0.3868  0.0814
  435MOL0     C57354   7.881   6.519   0.679 -0.5980  0.0015 -0.1138
  435MOL0     H57355   7.687   6.933   0.935 -0.3512  1.5674  1.7802
  435MOL0     H57356   7.745   7.066   1.122 -1.8704 -1.1922  0.2832
  435MOL0     H57357   8.020   6.949   1.422  0.0371  0.6710 -1.5563
  435MOL0     H57358   7.840   6.948   1.452 -2.3138  3.0541  3.4029
  435MOL0     H57359   7.913   7.111   1.619  1.5201 -3.7808 -1.5748
  435MOL0     H57360   7.839   7.200   1.502 -0.1281  1.6785  2.2584
  435MOL0     H57361   8.054   7.323   1.515  2.4874  0.1437 -0.2676
  435MOL0     H57362   8.068   7.215   1.375 -1.9017  1.6907 -0.6606
  435MOL0     H57363   8.190   7.133   1.639 -1.6532 -1.8237 -0.1815
  435MOL0     H57364   8.215   7.055   1.484  2.7011  1.0987  0.1634
  435MOL0     H57365   8.338   7.220   1.392 -1.7897  0.9344 -0.3048
  435MOL0     H57366   8.412   7.174   1.537 -1.3526 -0.9638  0.5267
  435MOL0     H57367   8.265   7.370   1.646 -0.6227  0.5670  0.2343
  435MOL0     H57368   8.277   7.438   1.478  2.6744  1.9598  0.4714
  435MOL0     H57369   8.512   7.371   1.663  1.6772  0.4559  0.0295
  435MOL0     H57370   8.533   7.388   1.492  1.1448 -0.6401  1.5846
  435MOL0     H57371   8.423   7.623   1.513 -2.0315  1.3968  2.6914
  435MOL0     H57372   8.584   7.603   1.595  1.0335 -1.7346  2.8635
  435MOL0     H57373   8.442   7.844   1.685  1.2816 -1.7706 -0.9576
  435MOL0     H57374   8.177   7.947   1.786  1.5034  2.2864 -1.1330
  435MOL0     H57375   8.305   7.974   1.908 -0.0050 -0.7498  1.0875
  435MOL0     H57376   8.164   7.817   2.057  2.4242  1.1345 -0.7744
  435MOL0     H57377   8.031   7.827   1.938  0.7802 -3.1811 -0.4984
  435MOL0     H57378   8.043   7.975   2.152  2.5637 -1.4449  0.8467
  435MOL0     H57379   8.187   8.048   2.084 -0.4561 -1.1615 -0.3117
  435MOL0     H57380   7.919   8.089   1.944 -0.0795  1.4051 -0.7412
  435MOL0     H57381   8.086   8.123   1.883  1.3685 -3.1592  0.5822
  435MOL0     H57382   7.974   8.291   1.797 -0.4401 -1.3447 -0.1662
  435MOL0     H57383   7.913   8.503   1.732  2.3195  0.4280 -1.2090
  435MOL0     H57384   7.912   8.826   1.519  1.2770  2.0306 -0.6816
  435MOL0     H57385   7.821   9.004   1.400  4.2896  1.9944  1.5974
  435MOL0     H57386   7.654   9.369   1.626  0.4244  0.4195 -0.5391
  435MOL0     H57387   7.511   9.274   1.564  0.2477 -2.0153 -3.9233
  435MOL0     H57388   7.505   9.483   1.449  1.5399  2.1636  0.0192
  435MOL0     H57389   7.553   9.357   1.339 -0.8850  1.6589  0.2607
  435MOL0     H57390   7.791   9.441   1.368  1.0177  0.3663  2.5094
  435MOL0     H57391   7.722   9.559   1.482 -4.7141 -1.8394  1.3146
  435MOL0     H57392   7.623   9.537   1.191  0.0365 -0.2137  1.2448
  435MOL0     H57393   7.592   9.666   1.296  0.9467 -0.4691  0.4439
  435MOL0     H57394   7.745   9.743   1.126 -1.1811 -0.8945 -0.8538
  435MOL0     H57395   7.849   9.624   1.149  2.0825  0.6566  1.4963
  435MOL0     H57396   7.938   9.823   1.272 -1.6601  2.1581 -1.6222
  435MOL0     H57397   7.889   9.710   1.398 -1.4636  0.5476  1.5005
  435MOL0     H57398   7.693   9.825   1.457  2.2438 -2.4727  0.4173
  435MOL0     H57399   7.818   9.952   1.425  0.6885  2.8850 -2.5230
  435MOL0     H57400   7.583  10.016   1.351  2.5319  2.9590  2.6632
  435MOL0     H57401   7.600   9.888   1.247  0.8250  0.2691 -1.2615
  435MOL0     H57402   7.649   9.174   1.751 -4.4252 -2.5670 -0.3927
  435MOL0     H57403   7.708   8.971   1.882 -0.3377 -0.8761  0.6479
  435MOL0     H57404   8.010   8.667   2.131  3.4499 -1.5864  1.0178
  435MOL0     H57405   8.107   8.433   2.176  2.0124 -0.3917 -1.3341
  435MOL0     H57406   8.048   6.799   1.246 -1.1037 -0.3322 -0.6079
  435MOL0     H57407   7.987   6.659   1.044  0.7735 -0.4446  2.1560
  435MOL0     H57408   7.704   6.740   0.501  1.1538  0.1595 -1.7848
  435MOL0     H57409   7.728   6.556   0.314 -3.1004 -3.5527 -1.2357
  435MOL0     H57410   7.870   6.397   0.190 -0.7346 -0.0712  0.1567
  435MOL0     H57411   7.711   6.324   0.235 -0.4078 -1.0325 -0.6668
  435MOL0     H57412   7.836   6.182   0.071 -1.2638 -2.5110 -0.7987
  435MOL0     H57413   7.971   6.168   0.182  0.0211 -3.0123 -0.2408
  435MOL0     H57414   7.683   6.076   0.217  0.1359 -0.6212  0.9839
  435MOL0     H57415   7.796   6.077   0.341 -3.2142  1.7574  0.8351
  435MOL0     H57416   7.810   5.906   0.088  2.5100  1.2736 -0.6262
  435MOL0     H57417   7.951   5.921   0.205 -0.3707  2.2391  3.8699
  435MOL0     H57418   7.658   5.708   0.435  2.1394  1.2849  2.6698
  435MOL0     H57419   7.934   6.322   0.609 -0.9783 -1.2668 -0.6340
  435MOL0     H57420   7.930   6.498   0.774  1.0818 -0.3740 -1.0248
  436MOL0     O57421   6.498   4.532   4.000  0.4184 -0.4347  0.3686
  436MOL0     C57422   6.530   4.591   3.891 -0.4505  0.0171  0.0936
  436MOL0     O57423   6.639   4.681   3.881 -0.1059  0.2361  0.4911
  436MOL0     C57424   6.745   4.678   3.966 -0.4857 -0.8900 -0.5895
  436MOL0     C57425   6.731   4.651   4.104 -1.0167 -0.9308 -0.2858
  436MOL0     C57426   6.844   4.634   4.185 -0.1297 -0.3673  0.1859
  436MOL0     C57427   6.969   4.660   4.135 -0.5667  1.2610 -0.2744
  436MOL0     O57428   7.074   4.666   4.222  0.2629 -0.2850  0.0443
  436MOL0     C57429   7.180   4.564   4.213  0.3546  0.0751  0.6669
  436MOL0     C57430   7.308   4.616   4.280 -0.1681 -0.0078  0.4453
  436MOL0     C57431   7.297   4.622   4.421 -0.3852 -0.1853 -0.4806
  436MOL0     C57432   7.434   4.647   4.491  0.4174 -0.1818  0.9901
  436MOL0     C57433   7.419   4.679   4.641 -0.5997 -0.0594  1.0556
  436MOL0     C57434   7.286   4.627   4.696  0.3314 -0.8258 -0.3128
  436MOL0     C57435   7.271   4.661   4.848 -0.5955  0.4981  1.0479
  436MOL0     C57436   7.166   4.572   4.912 -0.0607  0.1355 -0.4130
  436MOL0     N57437   7.112   4.632   5.037  0.7669  0.3762  0.9177
  436MOL0     C57438   7.050   4.762   5.057 -0.1515  0.2453 -0.5372
  436MOL0     C57439   6.992   4.748   5.176  0.8461  0.8977 -0.5820
  436MOL0     C57440   6.912   4.853   5.244  0.0993  0.1506  0.3363
  436MOL0     C57441   7.018   4.961   5.291  0.7510  0.0243 -0.0746
  436MOL0     C57442   7.096   4.925   5.413 -0.1917  0.2810 -0.4125
  436MOL0     C57443   7.154   5.036   5.496 -0.1559 -0.6610 -0.2774
  436MOL0     O57444   7.222   5.124   5.393 -0.1633 -0.7015 -0.3400
  436MOL0     C57445   7.315   5.206   5.455  0.3507  0.5561  0.4734
  436MOL0     C57446   7.301   5.342   5.470 -1.1565  0.5900  0.4491
  436MOL0     C57447   7.415   5.406   5.524  0.4756  0.9107  0.3462
  436MOL0     C57448   7.535   5.347   5.545  0.5077  1.2517  0.8439
  436MOL0     C57449   7.652   5.429   5.583 -0.4684 -0.1041 -0.7628
  436MOL0     O57450   7.630   5.564   5.580 -0.2983 -0.2726 -0.3560
  436MOL0     C57451   7.713   5.653   5.648 -0.6793 -0.2804  0.0501
  436MOL0     C57452   7.685   5.785   5.630  0.6577 -0.8245  0.5679
  436MOL0     C57453   7.746   5.882   5.709  0.0541  0.0628  0.6528
  436MOL0     C57454   7.837   5.858   5.814  0.3750  0.6224  0.8242
  436MOL0     O57455   7.900   5.964   5.871 -0.7093 -0.5669 -0.1739
  436MOL0     C57456   7.944   5.952   6.010  0.5331  0.0495  0.1451
  436MOL0     C57457   7.977   6.086   6.076 -1.3490 -0.0467  0.5667
  436MOL0     C57458   8.125   6.112   6.057 -1.1672  0.5128  0.0028
  436MOL0     C57459   8.152   6.153   5.905 -0.7385 -0.0659 -0.6077
  436MOL0     C57460   8.289   6.120   5.859  0.1583 -0.6788  0.0136
  436MOL0     C57461   8.286   6.125   5.705 -1.1615 -0.2448 -0.1395
  436MOL0     C57462   8.410   6.054   5.639  0.5359  0.1611  0.6418
  436MOL0     C57463   8.531   6.131   5.674 -0.2608  0.1781 -0.0507
  436MOL0    Cl57464   8.667   6.065   5.592 -0.3094  0.2171 -0.2255
  436MOL0     C57465   7.871   5.723   5.835  0.4697 -0.9204 -0.7830
  436MOL0     C57466   7.805   5.627   5.758 -1.0323 -1.0634 -0.3473
  436MOL0     O57467   7.760   5.381   5.608  0.6325 -0.1935  0.4315
  436MOL0     C57468   7.551   5.213   5.529 -0.6900  0.2724 -0.4526
  436MOL0     C57469   7.437   5.143   5.486 -0.9618  0.7985  0.9834
  436MOL0     N57470   7.029   4.624   5.226  0.0810  0.1587  0.2546
  436MOL0     N57471   7.102   4.563   5.151 -1.3569  0.3487 -0.2697
  436MOL0     C57472   6.983   4.692   3.997 -0.3424 -0.8240  0.8347
  436MOL0     C57473   6.874   4.692   3.914 -0.8637 -0.5300  0.4926
  436MOL0     C57474   6.437   4.588   3.772 -0.0830 -0.2175 -0.0329
  436MOL0     C57475   6.330   4.501   3.775 -0.2069  0.3978  0.1433
  436MOL0     C57476   6.243   4.483   3.670 -0.1798  0.8381 -0.1121
  436MOL0     C57477   6.253   4.570   3.553  0.2876 -0.6793 -0.4378
  436MOL0     O57478   6.171   4.543   3.457 -0.2951 -0.3126  0.6459
  436MOL0     C57479   6.210   4.586   3.322  0.8202  0.0674 -0.4569
  436MOL0     C57480   6.179   4.496   3.205  0.1332 -0.3324 -0.2307
  436MOL0     C57481   6.207   4.344   3.211  0.1158 -0.7245  0.2984
  436MOL0     C57482   6.360   4.312   3.221  1.1718  1.0872  0.2014
  436MOL0     C57483   6.441   4.324   3.102  0.1671 -1.1409  0.4053
  436MOL0     C57484   6.510   4.321   3.006 -0.0616 -0.7237 -0.2068
  436MOL0     C57485   6.351   4.668   3.558 -0.5375 -0.0963  0.5209
  436MOL0     C57486   6.446   4.662   3.661 -0.6749 -0.4847 -0.3649
  436MOL0     H57487   6.634   4.640   4.150 -1.5478  0.5373 -0.9910
  436MOL0     H57488   6.825   4.618   4.290  1.8224 -0.5000  0.5535
  436MOL0     H57489   7.198   4.550   4.106 -0.2584  2.4127  0.1997
  436MOL0     H57490   7.155   4.468   4.259  3.7153 -2.3200 -1.9888
  436MOL0     H57491   7.330   4.714   4.236  0.4764 -0.7339 -0.9351
  436MOL0     H57492   7.383   4.542   4.250  0.3151 -0.0888  1.8222
  436MOL0     H57493   7.255   4.533   4.467 -1.5131  1.4562  1.8792
  436MOL0     H57494   7.239   4.715   4.433  0.6753  0.3105  1.1616
  436MOL0     H57495   7.502   4.561   4.479 -1.8999 -1.8244 -1.5509
  436MOL0     H57496   7.483   4.724   4.430 -1.6198 -0.7792 -1.5693
  436MOL0     H57497   7.434   4.786   4.658  3.0591 -0.6800  2.7281
  436MOL0     H57498   7.491   4.622   4.701 -0.2171 -0.8509 -0.1143
  436MOL0     H57499   7.269   4.520   4.688  2.1751 -1.1394 -0.3862
  436MOL0     H57500   7.194   4.678   4.666  0.6949  1.6130  2.3224
  436MOL0     H57501   7.366   4.631   4.894  0.1177  3.0498  1.3700
  436MOL0     H57502   7.258   4.769   4.856  1.0668  1.0150 -1.6678
  436MOL0     H57503   7.208   4.472   4.924  3.3109  0.7632 -4.5095
  436MOL0     H57504   7.078   4.577   4.846 -0.1873  0.1675 -0.2416
  436MOL0     H57505   7.032   4.846   4.991  0.8401  2.4314  1.8151
  436MOL0     H57506   6.860   4.811   5.331 -0.0919  2.4828  1.4230
  436MOL0     H57507   6.849   4.899   5.168 -0.7142 -4.3397 -2.0640
  436MOL0     H57508   6.961   5.048   5.323 -0.5052 -0.4699 -0.9061
  436MOL0     H57509   7.086   5.006   5.217 -0.6337  2.2416 -0.0924
  436MOL0     H57510   7.052   4.854   5.483  2.1116  1.2678  2.1856
  436MOL0     H57511   7.187   4.881   5.370  1.4514  0.5202  2.5807
  436MOL0     H57512   7.220   4.987   5.568 -1.6239 -2.6326 -0.1946
  436MOL0     H57513   7.081   5.095   5.552 -0.5826 -3.3561  2.2985
  436MOL0     H57514   7.219   5.406   5.438  2.0880  4.0357 -1.7734
  436MOL0     H57515   7.409   5.513   5.539 -1.1520  0.5924  2.3278
  436MOL0     H57516   7.614   5.830   5.561 -1.9502 -0.1013  3.5243
  436MOL0     H57517   7.716   5.986   5.701 -1.4778 -0.2317  2.0335
  436MOL0     H57518   8.021   5.876   6.027 -0.3390 -1.2185 -1.3089
  436MOL0     H57519   7.855   5.924   6.067  0.9622  2.6065  2.2365
  436MOL0     H57520   7.958   6.076   6.183 -1.4176  3.5914  1.0438
  436MOL0     H57521   7.927   6.177   6.040  2.0979  0.9666 -2.2504
  436MOL0     H57522   8.175   6.017   6.075 -3.0175 -0.4558  0.2673
  436MOL0     H57523   8.142   6.196   6.126 -2.6768 -0.5585  1.7702
  436MOL0     H57524   8.079   6.097   5.845  0.4882 -1.4170 -0.9009
  436MOL0     H57525   8.129   6.259   5.898  0.9701  0.3974  0.3852
  436MOL0     H57526   8.308   6.018   5.892 -1.0213 -1.4429 -1.4986
  436MOL0     H57527   8.368   6.183   5.900 -0.6002  0.2874  0.0304
  436MOL0     H57528   8.277   6.224   5.660 -2.9617 -0.8031 -1.1249
  436MOL0     H57529   8.197   6.073   5.667 -0.1412 -1.3093 -1.1336
  436MOL0     H57530   8.436   5.956   5.677 -0.3403 -0.4091 -0.1673
  436MOL0     H57531   8.401   6.053   5.529  2.1932  1.7101  0.4481
  436MOL0     H57532   8.551   6.115   5.780  1.9542  1.3158 -0.2373
  436MOL0     H57533   8.509   6.238   5.665  0.9420  0.6147  1.7133
  436MOL0     H57534   7.954   5.710   5.903  0.7487 -1.4856 -1.2281
  436MOL0     H57535   7.811   5.520   5.776 -2.0086 -0.6304  3.2802
  436MOL0     H57536   7.648   5.165   5.543 -0.6569 -0.0370 -1.6414
  436MOL0     H57537   7.467   5.041   5.466 -1.7413  0.9986 -1.5233
  436MOL0     H57538   7.085   4.708   3.967 -0.2282  0.9198  2.0056
  436MOL0     H57539   6.881   4.698   3.806 -1.9532  0.2806  0.4437
  436MOL0     H57540   6.309   4.442   3.864  0.7186 -0.7617 -0.3798
  436MOL0     H57541   6.152   4.424   3.673 -1.0543  2.1620  1.2129
  436MOL0     H57542   6.319   4.593   3.312  0.9833  1.2543  1.7214
  436MOL0     H57543   6.176   4.688   3.307  0.2119 -0.2555 -1.3502
  436MOL0     H57544   6.071   4.498   3.183 -0.0255 -0.5051  0.5141
  436MOL0     H57545   6.243   4.544   3.130 -1.7107  0.1494 -1.5904
  436MOL0     H57546   6.162   4.286   3.130 -0.3618  1.3524 -0.9872
  436MOL0     H57547   6.163   4.294   3.298 -0.7604 -3.1976 -1.4403
  436MOL0     H57548   6.407   4.355   3.310  3.2086 -1.3241  0.3939
  436MOL0     H57549   6.367   4.205   3.242  3.5148  0.9741 -0.8416
  436MOL0     H57550   6.561   4.332   2.912 -0.7145 -0.5936 -0.5573
  436MOL0     H57551   6.349   4.743   3.480 -0.0675 -1.8141 -1.2316
  436MOL0     H57552   6.528   4.732   3.656 -1.4457  0.9225  3.2642
  437MOL0     O57553   8.846   9.458   4.209  0.2805 -0.8451  0.4497
  437MOL0     C57554   8.891   9.501   4.108 -0.9702  0.1156  0.5803
  437MOL0     O57555   8.868   9.446   3.984 -0.1534 -0.2886  0.9355
  437MOL0     C57556   8.793   9.331   3.976 -0.4409 -0.4499  0.0147
  437MOL0     C57557   8.662   9.329   3.926  0.4198 -0.1012 -0.6370
  437MOL0     C57558   8.591   9.215   3.901 -0.3149 -0.0654  0.1995
  437MOL0     C57559   8.650   9.094   3.930  0.1179 -0.9109  0.6231
  437MOL0     O57560   8.580   8.980   3.923 -0.2093 -0.2770  0.5817
  437MOL0     C57561   8.553   8.903   4.043  0.0377  0.0647  0.5097
  437MOL0     C57562   8.633   8.778   4.045 -0.0548 -0.6707 -0.7149
  437MOL0     C57563   8.599   8.692   3.920 -0.5835 -0.4675 -0.0288
  437MOL0     C57564   8.672   8.551   3.908 -0.4966 -0.0703  0.7918
  437MOL0     C57565   8.621   8.478   3.780 -0.4173 -0.3596 -0.5750
  437MOL0     C57566   8.476   8.458   3.791 -0.4368  0.1035 -0.6632
  437MOL0     C57567   8.406   8.392   3.919  0.3208 -0.2177 -0.7622
  437MOL0     C57568   8.471   8.253   3.966 -0.2881  0.2533 -0.3604
  437MOL0     N57569   8.459   8.144   3.869  0.2331 -0.4035 -0.4900
  437MOL0     C57570   8.362   8.140   3.773 -0.7735  0.0243 -0.4586
  437MOL0     C57571   8.399   8.042   3.685 -0.7361  1.2562 -0.6797
  437MOL0     C57572   8.307   8.005   3.571  0.5462  0.4626 -0.6115
  437MOL0     C57573   8.336   8.094   3.449  0.0899 -0.6637  1.4636
  437MOL0     C57574   8.258   8.033   3.324 -0.2612 -0.1736 -0.7140
  437MOL0     C57575   8.272   8.134   3.217 -0.1731 -0.3490  0.3721
  437MOL0     O57576   8.250   8.086   3.082  0.6639  0.1266 -0.0483
  437MOL0     C57577   8.126   8.069   3.041  0.9142  0.1513  0.1687
  437MOL0     C57578   8.012   8.109   3.105  0.2588  0.2886  0.1490
  437MOL0     C57579   7.888   8.078   3.053  0.6571  0.0093  1.5042
  437MOL0     C57580   7.873   8.019   2.924  0.0379  1.3212  0.3506
  437MOL0     C57581   7.746   7.994   2.856  0.2846 -0.1552  0.6699
  437MOL0     O57582   7.635   7.999   2.938 -0.1431  0.3904 -0.2841
  437MOL0     C57583   7.514   7.986   2.872 -0.7128 -0.4628  0.5929
  437MOL0     C57584   7.480   7.866   2.815  0.0177 -0.1644  0.1031
  437MOL0     C57585   7.355   7.845   2.751  0.2422 -0.2438 -0.4843
  437MOL0     C57586   7.257   7.952   2.749 -0.3158 -0.5504 -0.0442
  437MOL0     O57587   7.122   7.953   2.701  0.4270  0.2665 -0.8746
  437MOL0     C57588   7.076   7.825   2.646  0.6737  0.5835  0.0727
  437MOL0     C57589   6.946   7.856   2.559  0.6370  0.5628  0.8506
  437MOL0     C57590   6.895   7.740   2.486 -0.1160 -0.2897  0.4842
  437MOL0     C57591   6.752   7.765   2.442  0.7828  0.3422 -0.1617
  437MOL0     C57592   6.639   7.755   2.562 -0.6676 -0.1652  0.3594
  437MOL0     C57593   6.513   7.829   2.521  0.1983 -1.1572 -0.1204
  437MOL0     C57594   6.414   7.828   2.637  0.0377  0.3316  0.0228
  437MOL0     C57595   6.356   7.694   2.669 -0.6370 -0.4356 -0.6971
  437MOL0    Cl57596   6.254   7.703   2.817 -0.2158  0.2334 -0.1176
  437MOL0     C57597   7.297   8.079   2.810  0.7376  0.3690  0.4223
  437MOL0     C57598   7.427   8.099   2.866  0.8597  0.2727  0.3406
  437MOL0     O57599   7.747   7.980   2.736 -1.1655  0.2313  0.1438
  437MOL0     C57600   7.993   7.985   2.851 -0.4986 -0.7779 -0.3145
  437MOL0     C57601   8.115   8.011   2.916 -0.2972  0.2696 -0.2386
  437MOL0     N57602   8.524   7.991   3.738 -0.1254 -0.2218 -0.2397
  437MOL0     N57603   8.556   8.056   3.841  0.1025  0.0638 -0.2404
  437MOL0     C57604   8.783   9.091   3.982  0.4830 -0.6013 -0.0177
  437MOL0     C57605   8.852   9.207   4.008 -0.5876 -0.0060  0.7128
  437MOL0     C57606   8.974   9.615   4.111 -0.1202 -0.1577  0.5823
  437MOL0     C57607   9.054   9.640   3.996  0.7747 -0.6705 -0.3300
  437MOL0     C57608   9.135   9.748   4.002 -0.7838 -0.7506 -0.3516
  437MOL0     C57609   9.154   9.834   4.109 -0.3835  0.4878 -0.5397
  437MOL0     O57610   9.220   9.947   4.090  0.2489  0.3972  0.6111
  437MOL0     C57611   9.277  10.013   4.207 -0.0563 -0.4754  0.8014
  437MOL0     C57612   9.362  10.122   4.158  0.8357  0.7063 -0.5145
  437MOL0     C57613   9.432  10.215   4.264  0.1185  0.6145 -0.2153
  437MOL0     C57614   9.454  10.354   4.201 -0.4550 -0.4308  0.1062
  437MOL0     C57615   9.480  10.461   4.298  0.1186  0.3277 -0.4470
  437MOL0     C57616   9.499  10.520   4.397 -0.2528  0.0275  0.1051
  437MOL0     C57617   9.075   9.807   4.224  0.5102 -1.3325  0.1392
  437MOL0     C57618   8.987   9.700   4.222  0.6222 -0.2761 -0.4518
  437MOL0     H57619   8.633   9.429   3.894  3.2061  1.1568  0.4665
  437MOL0     H57620   8.496   9.224   3.851 -1.4260  0.0156  2.2360
  437MOL0     H57621   8.446   8.877   4.049  0.2795 -1.0612  0.2024
  437MOL0     H57622   8.576   8.959   4.134  1.5267  1.3004 -0.5940
  437MOL0     H57623   8.611   8.728   4.140  0.6929  1.4162  0.6539
  437MOL0     H57624   8.736   8.812   4.056 -0.8890  1.9219 -0.1125
  437MOL0     H57625   8.604   8.752   3.828  1.6911 -1.3107 -0.5245
  437MOL0     H57626   8.492   8.673   3.927 -1.3980  2.3645 -2.5894
  437MOL0     H57627   8.775   8.576   3.885  0.0359 -0.8563  2.2011
  437MOL0     H57628   8.665   8.491   3.999 -3.2746 -2.3933 -0.7729
  437MOL0     H57629   8.678   8.385   3.788 -1.5896 -0.9656  1.1123
  437MOL0     H57630   8.651   8.521   3.684  3.2895 -1.6501 -0.1953
  437MOL0     H57631   8.458   8.376   3.721 -3.6784 -2.2375  2.5322
  437MOL0     H57632   8.424   8.546   3.753 -0.7465  2.2211  4.0184
  437MOL0     H57633   8.413   8.462   4.003 -3.1724  0.3324 -0.7873
  437MOL0     H57634   8.304   8.366   3.891  0.8712 -2.4388 -0.8690
  437MOL0     H57635   8.417   8.225   4.056  0.5079 -2.1611 -0.5679
  437MOL0     H57636   8.575   8.274   3.992  0.2588 -1.3325 -1.1383
  437MOL0     H57637   8.272   8.199   3.767 -0.6081  0.1517 -2.1422
  437MOL0     H57638   8.203   8.003   3.607  0.9976 -0.0358  0.6947
  437MOL0     H57639   8.342   7.904   3.547  2.4966  0.7260  0.8958
  437MOL0     H57640   8.443   8.089   3.430 -0.3527 -0.8619 -1.6144
  437MOL0     H57641   8.308   8.198   3.470 -2.7701 -0.7144 -1.2374
  437MOL0     H57642   8.299   7.937   3.290  0.2544  0.0357 -0.6834
  437MOL0     H57643   8.152   8.023   3.348 -0.1851  1.5159  0.4489
  437MOL0     H57644   8.380   8.147   3.217 -0.2058 -0.0482 -0.2241
  437MOL0     H57645   8.236   8.235   3.241 -0.2589 -0.1033 -0.7724
  437MOL0     H57646   8.005   8.159   3.201 -3.7067 -0.2959  0.3651
  437MOL0     H57647   7.797   8.116   3.098 -0.3859 -0.7016  0.0793
  437MOL0     H57648   7.532   7.770   2.814 -1.3381 -0.9308 -1.4273
  437MOL0     H57649   7.323   7.749   2.713 -0.9866 -1.3915  3.0784
  437MOL0     H57650   7.045   7.759   2.728 -2.1135  2.6559  0.8497
  437MOL0     H57651   7.141   7.755   2.592 -2.0752 -2.1689 -0.0036
  437MOL0     H57652   6.984   7.927   2.485 -0.7095  0.9075  0.4655
  437MOL0     H57653   6.868   7.915   2.609 -1.9457  0.4912 -2.7426
  437MOL0     H57654   6.911   7.645   2.537  1.6819 -1.3173 -1.7956
  437MOL0     H57655   6.959   7.741   2.397  0.4944 -3.6807  0.7255
  437MOL0     H57656   6.743   7.858   2.386 -1.2277 -0.3167 -0.9964
  437MOL0     H57657   6.712   7.689   2.375  1.2032  0.6119 -0.7273
  437MOL0     H57658   6.681   7.799   2.652  2.6054 -0.8730 -0.6841
  437MOL0     H57659   6.622   7.653   2.598 -3.8510 -0.1177 -0.6373
  437MOL0     H57660   6.473   7.795   2.425 -0.5861  0.6395 -0.4787
  437MOL0     H57661   6.539   7.935   2.510  0.9625 -1.3046  0.2027
  437MOL0     H57662   6.462   7.862   2.730 -0.5391  1.0812  0.0479
  437MOL0     H57663   6.325   7.887   2.615 -0.5806 -0.6212 -0.0735
  437MOL0     H57664   6.438   7.630   2.703 -0.2267  2.3537  4.8289
  437MOL0     H57665   6.313   7.646   2.581  0.3602  2.1070 -2.7040
  437MOL0     H57666   7.234   8.167   2.805  1.8569  1.2679  1.3894
  437MOL0     H57667   7.457   8.195   2.907 -0.8255  0.9496  0.0761
  437MOL0     H57668   7.973   7.943   2.753 -0.6463 -0.3133 -0.4899
  437MOL0     H57669   8.212   7.996   2.870  0.8161  0.6859  1.8434
  437MOL0     H57670   8.826   9.002   4.026 -1.2755  0.9427  5.7081
  437MOL0     H57671   8.955   9.193   4.040 -1.1688 -3.3490  1.4320
  437MOL0     H57672   9.045   9.585   3.903  1.7294  0.1604 -0.9262
  437MOL0     H57673   9.188   9.774   3.911 -1.2391 -0.0860 -0.4325
  437MOL0     H57674   9.331   9.942   4.270  1.9588 -1.2402 -1.6302
  437MOL0     H57675   9.197  10.058   4.267  0.5566 -0.4032  1.5862
  437MOL0     H57676   9.437  10.071   4.097 -0.4315 -1.1345 -0.6429
  437MOL0     H57677   9.289  10.181   4.101 -1.3180 -1.0139  0.2997
  437MOL0     H57678   9.526  10.171   4.296 -1.6342 -1.4421  2.4964
  437MOL0     H57679   9.373  10.211   4.356  2.9712 -2.7398  1.6999
  437MOL0     H57680   9.548  10.356   4.145 -1.2278 -0.9392 -1.2473
  437MOL0     H57681   9.369  10.382   4.139 -1.2153  0.8224  1.6384
  437MOL0     H57682   9.507  10.549   4.500 -3.0914 -0.1983  0.4589
  437MOL0     H57683   9.080   9.871   4.312 -1.4773 -3.9080  2.2788
  437MOL0     H57684   8.933   9.676   4.313  0.9966 -1.2706 -0.4883
  438MOL0     O57685   9.496   5.903   1.792 -1.1276 -0.4798 -0.2066
  438MOL0     C57686   9.442   5.879   1.688  0.4997 -0.1182  0.7622
  438MOL0     O57687   9.317   5.824   1.665 -0.3933 -0.1055  0.4783
  438MOL0     C57688   9.236   5.786   1.770 -0.9432 -1.0661  0.4068
  438MOL0     C57689   9.185   5.652   1.771  0.8562 -0.2827  0.6708
  438MOL0     C57690   9.097   5.613   1.872  0.1027 -0.8491 -0.4574
  438MOL0     C57691   9.077   5.692   1.986 -1.3242  0.4815 -1.0764
  438MOL0     O57692   9.010   5.647   2.096  0.7077  0.1814 -0.5793
  438MOL0     C57693   9.082   5.552   2.176 -0.1531  0.3717  0.6310
  438MOL0     C57694   8.988   5.444   2.236 -0.1989  0.4010  0.1119
  438MOL0     C57695   9.050   5.335   2.335  0.0401 -0.4655  0.1950
  438MOL0     C57696   9.166   5.243   2.279  0.2734  0.5186  0.5953
  438MOL0     C57697   9.227   5.159   2.393  1.2507  0.6222  1.0788
  438MOL0     C57698   9.288   5.032   2.350  0.0372  1.2394  0.2588
  438MOL0     C57699   9.278   4.924   2.464 -0.7989 -0.0515  0.3760
  438MOL0     C57700   9.179   4.816   2.429  0.1724  0.7700  0.2228
  438MOL0     N57701   9.217   4.689   2.493 -0.1580  0.5751 -0.7957
  438MOL0     C57702   9.338   4.625   2.465 -0.9718 -0.5730 -0.7055
  438MOL0     C57703   9.318   4.493   2.496 -0.1957 -1.4730  0.7070
  438MOL0     C57704   9.407   4.394   2.473 -0.3483  0.3266 -0.0769
  438MOL0     C57705   9.496   4.371   2.600  1.2440 -0.5922  0.1200
  438MOL0     C57706   9.612   4.275   2.556 -0.1981  0.4045 -0.4014
  438MOL0     C57707   9.698   4.215   2.671 -0.2299  0.0369  0.7869
  438MOL0     O57708   9.712   4.301   2.778  0.2158 -0.5577  0.5353
  438MOL0     C57709   9.811   4.274   2.868 -1.1548  1.0437 -0.0327
  438MOL0     C57710   9.905   4.168   2.864  0.3292  0.6944  0.5038
  438MOL0     C57711  10.008   4.141   2.963  0.9056 -0.5932 -0.3005
  438MOL0     C57712  10.003   4.237   3.070  0.3916 -0.4581 -0.4248
  438MOL0     C57713  10.107   4.232   3.173 -0.1989 -0.7803  0.4212
  438MOL0     O57714  10.088   4.280   3.303 -1.0571  0.1190  0.2990
  438MOL0     C57715  10.198   4.285   3.381 -0.0272  0.2284 -0.6057
  438MOL0     C57716  10.209   4.186   3.484 -0.1149 -0.0745  0.5282
  438MOL0     C57717  10.308   4.195   3.584 -0.1368 -1.4395 -0.4587
  438MOL0     C57718  10.410   4.293   3.573  0.6606  0.0769 -0.1382
  438MOL0     O57719  10.496   4.323   3.672  0.5701 -0.8333  0.6695
  438MOL0     C57720  10.524   4.221   3.771  0.2211  0.0828  0.9452
  438MOL0     C57721  10.652   4.268   3.841  0.4893 -0.0259 -1.4268
  438MOL0     C57722  10.666   4.216   3.981  0.0190  1.4950  0.0825
  438MOL0     C57723  10.783   4.283   4.046  0.4436  0.5455  0.1953
  438MOL0     C57724  10.818   4.217   4.180  1.1793 -0.1755  0.3477
  438MOL0     C57725  10.924   4.296   4.250 -0.2417  0.4061 -0.1153
  438MOL0     C57726  10.942   4.268   4.401  0.6659 -0.0747 -0.6016
  438MOL0     C57727  10.835   4.351   4.481  0.4172  0.2142  0.7205
  438MOL0    Cl57728  10.905   4.464   4.590  0.1159 -0.5668  0.1701
  438MOL0     C57729  10.400   4.391   3.468  0.5862 -0.1668  0.1303
  438MOL0     C57730  10.283   4.395   3.389  0.0385 -0.8058 -0.7949
  438MOL0     O57731  10.209   4.174   3.122 -0.0765 -0.0221 -0.8665
  438MOL0     C57732   9.910   4.344   3.075  0.0352  0.6243 -0.0499
  438MOL0     C57733   9.823   4.358   2.980 -0.4108 -0.5527  0.5056
  438MOL0     N57734   9.184   4.486   2.532  0.1466 -0.3346 -0.0915
  438MOL0     N57735   9.134   4.599   2.538  1.4370 -0.4740  0.0188
  438MOL0     C57736   9.140   5.817   1.984 -0.1385  0.4455 -0.0218
  438MOL0     C57737   9.209   5.867   1.878  0.4233 -0.4763 -0.1581
  438MOL0     C57738   9.523   5.900   1.571 -0.8616 -0.1030  0.1520
  438MOL0     C57739   9.646   5.972   1.567 -0.5240  0.8627  0.4917
  438MOL0     C57740   9.719   5.984   1.440 -0.3545 -0.4583 -0.3528
  438MOL0     C57741   9.683   5.903   1.331 -0.8611  0.1358  0.2462
  438MOL0     O57742   9.758   5.885   1.216  0.2801  0.4164  0.1132
  438MOL0     C57743   9.880   5.963   1.213 -0.8703  0.1939  0.4193
  438MOL0     C57744   9.963   5.913   1.093 -0.3195 -0.5203 -0.0066
  438MOL0     C57745  10.063   6.015   1.036  0.7623  0.3722  0.2030
  438MOL0     C57746  10.131   5.983   0.904 -0.6416  0.5914 -0.5708
  438MOL0     C57747  10.231   5.886   0.937 -0.8348 -0.6522  0.7675
  438MOL0     C57748  10.303   5.803   0.991 -0.0981 -0.0462 -0.0220
  438MOL0     C57749   9.565   5.842   1.342  0.5409  0.4122 -0.7813
  438MOL0     C57750   9.486   5.844   1.448 -0.0786  0.0235 -0.4006
  438MOL0     H57751   9.222   5.602   1.682  4.0453  2.0501  0.5234
  438MOL0     H57752   9.053   5.514   1.874 -1.2352 -0.2638  0.5210
  438MOL0     H57753   9.125   5.613   2.256  1.5592  0.2000 -0.1190
  438MOL0     H57754   9.165   5.504   2.122  1.5628  2.8696  0.9001
  438MOL0     H57755   8.953   5.395   2.145 -0.5338  1.4583 -0.3451
  438MOL0     H57756   8.894   5.488   2.271  0.0031  2.1258 -1.3717
  438MOL0     H57757   8.971   5.266   2.366 -0.6441 -1.1287 -2.7192
  438MOL0     H57758   9.081   5.400   2.418 -0.8559  0.9785 -0.5591
  438MOL0     H57759   9.125   5.176   2.202 -0.3094 -1.6190  2.6204
  438MOL0     H57760   9.247   5.296   2.228  0.8413  0.2567  1.2157
  438MOL0     H57761   9.143   5.124   2.453  0.4522  0.1127 -0.3212
  438MOL0     H57762   9.295   5.222   2.451  1.1003  0.4051  1.5034
  438MOL0     H57763   9.396   5.046   2.337  0.3627  1.4347  2.6504
  438MOL0     H57764   9.242   5.003   2.255 -0.2386 -0.2427  0.8171
  438MOL0     H57765   9.379   4.882   2.477  0.0334  1.3483 -1.1779
  438MOL0     H57766   9.259   4.964   2.564 -0.2697  1.2959 -0.0391
  438MOL0     H57767   9.179   4.787   2.324 -2.0100  2.5008 -0.3222
  438MOL0     H57768   9.077   4.851   2.449  1.2827  3.7848  1.2204
  438MOL0     H57769   9.431   4.661   2.420 -1.9013 -1.4370 -3.5392
  438MOL0     H57770   9.467   4.413   2.383  0.0368 -2.0367 -0.3980
  438MOL0     H57771   9.355   4.303   2.442 -0.0565  0.0620  0.1951
  438MOL0     H57772   9.442   4.336   2.689  0.0624  1.8776  0.4655
  438MOL0     H57773   9.540   4.467   2.627  1.4677 -0.5706 -0.3130
  438MOL0     H57774   9.572   4.190   2.501 -3.0481  1.1442  0.3728
  438MOL0     H57775   9.683   4.333   2.495  0.7304  1.8135  1.8762
  438MOL0     H57776   9.795   4.182   2.633  0.6625  2.2053  1.0648
  438MOL0     H57777   9.651   4.122   2.705  1.7577 -0.5558  2.0465
  438MOL0     H57778   9.893   4.087   2.792 -0.3844 -0.2839  1.6812
  438MOL0     H57779  10.078   4.058   2.963  2.2772  0.5026  1.0874
  438MOL0     H57780  10.132   4.111   3.471  0.1287 -0.2112 -0.1762
  438MOL0     H57781  10.308   4.115   3.658  2.2266 -2.6197 -1.5980
  438MOL0     H57782  10.532   4.119   3.731  0.8792  0.0958  1.0430
  438MOL0     H57783  10.441   4.217   3.842  0.1722  1.0206  0.9531
  438MOL0     H57784  10.665   4.376   3.850  0.2193 -0.1410  0.6559
  438MOL0     H57785  10.733   4.235   3.775  1.9566  0.9638 -0.1802
  438MOL0     H57786  10.675   4.108   3.991 -2.6444  1.2457  0.3837
  438MOL0     H57787  10.576   4.235   4.039 -0.3916 -0.7983  0.2761
  438MOL0     H57788  10.862   4.283   3.971  0.3928 -2.8606 -0.0066
  438MOL0     H57789  10.746   4.383   4.071  0.4661  1.1142 -1.8513
  438MOL0     H57790  10.845   4.113   4.164  2.5853  0.4176 -1.4776
  438MOL0     H57791  10.725   4.230   4.237 -2.7952  2.3003 -5.6599
  438MOL0     H57792  10.908   4.404   4.246 -0.2930  0.5624  2.6959
  438MOL0     H57793  11.016   4.286   4.192  1.5592 -3.0587  2.9200
  438MOL0     H57794  10.923   4.161   4.411  1.3268 -0.5221 -3.2812
  438MOL0     H57795  11.040   4.303   4.433 -0.5032  3.3468 -0.3984
  438MOL0     H57796  10.763   4.285   4.529 -0.7009 -3.8900 -5.4653
  438MOL0     H57797  10.768   4.410   4.419 -2.5006 -2.6507  0.8975
  438MOL0     H57798  10.475   4.468   3.455  0.2049  0.0240 -1.0772
  438MOL0     H57799  10.266   4.484   3.330  1.1151 -0.6565 -0.8986
  438MOL0     H57800   9.903   4.411   3.161 -0.2728  1.2107 -0.5281
  438MOL0     H57801   9.762   4.447   2.972  1.8332  0.8912 -3.2950
  438MOL0     H57802   9.146   5.872   2.078  0.5172 -2.2292  1.6052
  438MOL0     H57803   9.250   5.965   1.900 -1.3760  0.2827 -0.0052
  438MOL0     H57804   9.681   6.020   1.657  1.7574 -1.1000  0.7440
  438MOL0     H57805   9.804   6.051   1.446  1.3261 -2.5537  0.8917
  438MOL0     H57806   9.950   5.958   1.297  0.7782  2.7128 -0.6837
  438MOL0     H57807   9.855   6.067   1.191 -2.5813  0.3517  2.7560
  438MOL0     H57808  10.014   5.822   1.123  0.2797 -0.0714  0.3650
  438MOL0     H57809   9.888   5.894   1.015  2.0655  3.5980 -3.8139
  438MOL0     H57810  10.134   6.031   1.117 -1.0843  5.0253  1.2541
  438MOL0     H57811  10.006   6.103   1.004 -4.9370 -2.8826  0.0744
  438MOL0     H57812  10.071   5.931   0.829  1.6399 -3.5926  0.2292
  438MOL0     H57813  10.185   6.073   0.872 -3.1736  3.1839  1.8151
  438MOL0     H57814  10.360   5.728   1.042 -3.3341 -2.5362  0.2449
  438MOL0     H57815   9.529   5.782   1.259 -1.3953  2.1243 -1.2687
  438MOL0     H57816   9.403   5.774   1.450  1.2347 -1.5993  1.9741
  439MOL0     O57817   2.001  10.455   8.147 -0.2250 -0.1633  0.8297
  439MOL0     C57818   2.068  10.430   8.040  0.1668  0.3616 -0.0435
  439MOL0     O57819   2.042  10.313   7.963  0.1449  0.0078  0.6197
  439MOL0     C57820   1.929  10.238   7.992 -0.2655 -0.1142  0.4718
  439MOL0     C57821   1.804  10.293   7.976  0.3335  0.2025 -0.6588
  439MOL0     C57822   1.694  10.211   8.000  0.2247 -0.2651 -0.2843
  439MOL0     C57823   1.699  10.073   8.032  0.9861  0.4305 -0.6970
  439MOL0     O57824   1.596   9.987   8.050  0.3441  0.2366  0.1962
  439MOL0     C57825   1.464  10.045   8.025  0.5262 -0.7170  0.1135
  439MOL0     C57826   1.345   9.953   8.048 -0.4133  0.1692  0.2936
  439MOL0     C57827   1.358   9.818   7.962  0.5544  0.1765 -0.4081
  439MOL0     C57828   1.252   9.816   7.861  0.6677  0.9569 -0.0880
  439MOL0     C57829   1.223   9.676   7.801  0.8487 -0.4766  1.2873
  439MOL0     C57830   1.084   9.622   7.793  1.4045  0.6627  0.3445
  439MOL0     C57831   1.072   9.467   7.764  0.0750 -0.7811  0.1374
  439MOL0     C57832   1.120   9.429   7.621  0.0277  1.1382 -0.4236
  439MOL0     N57833   1.142   9.276   7.601  0.0688  0.4275 -1.0226
  439MOL0     C57834   1.123   9.182   7.701 -0.1730 -0.3133  0.2597
  439MOL0     C57835   1.092   9.067   7.633  0.4864  0.3292  0.2671
  439MOL0     C57836   1.046   8.939   7.697  0.1392 -0.5642 -0.4065
  439MOL0     C57837   1.160   8.874   7.774  0.6545  0.5852 -0.3233
  439MOL0     C57838   1.215   8.743   7.702  0.0276  0.5980 -0.1908
  439MOL0     C57839   1.279   8.781   7.567  0.3617  0.6035 -0.8019
  439MOL0     O57840   1.363   8.671   7.525  0.4877  0.7691 -0.3543
  439MOL0     C57841   1.405   8.675   7.396  0.2265 -0.5182  0.0074
  439MOL0     C57842   1.482   8.568   7.357  0.2925  0.1885 -0.4880
  439MOL0     C57843   1.545   8.563   7.231 -0.6895 -0.0307 -0.4504
  439MOL0     C57844   1.520   8.674   7.138 -0.5080 -1.4889 -0.1833
  439MOL0     C57845   1.574   8.676   6.995 -0.4526 -0.5857 -0.2107
  439MOL0     O57846   1.649   8.569   6.949 -0.4379  0.4157  0.0737
  439MOL0     C57847   1.682   8.558   6.815 -0.2687 -0.5402  0.2367
  439MOL0     C57848   1.804   8.501   6.771  0.6720  0.6437 -0.3283
  439MOL0     C57849   1.828   8.476   6.640 -0.5896 -0.1925  0.5733
  439MOL0     C57850   1.736   8.510   6.545 -0.0056  1.0685  0.5055
  439MOL0     O57851   1.762   8.492   6.413  0.6931  0.3251 -0.2073
  439MOL0     C57852   1.843   8.598   6.352 -0.4668  0.6111  0.5159
  439MOL0     C57853   1.755   8.728   6.345 -0.4178 -1.3740  0.3783
  439MOL0     C57854   1.812   8.825   6.242 -0.4023 -0.4639  1.3411
  439MOL0     C57855   1.728   8.949   6.214 -0.0027 -0.0082  0.4189
  439MOL0     C57856   1.644   8.931   6.092  1.6021 -0.9903  0.0832
  439MOL0     C57857   1.612   9.052   5.998  0.1071 -0.3983 -0.6596
  439MOL0     C57858   1.532   9.022   5.872 -0.1422  0.1639  0.2272
  439MOL0     C57859   1.557   9.128   5.761  0.0270  0.2704 -0.1941
  439MOL0    Cl57860   1.727   9.131   5.702 -0.3742 -0.3604  0.2474
  439MOL0     C57861   1.615   8.572   6.581 -0.5177 -0.3189 -1.0559
  439MOL0     C57862   1.590   8.597   6.719 -0.0876 -0.5037  0.5263
  439MOL0     O57863   1.546   8.776   6.926 -0.3839  0.8869  0.3351
  439MOL0     C57864   1.441   8.784   7.186 -0.6875 -0.3093 -1.0111
  439MOL0     C57865   1.388   8.786   7.314  0.3648  0.1164 -0.2485
  439MOL0     N57866   1.120   9.084   7.496 -0.1067  0.6237 -0.8831
  439MOL0     N57867   1.145   9.214   7.481  0.8684 -0.4181  0.7648
  439MOL0     C57868   1.828  10.027   8.043 -0.4265 -1.7075 -0.2640
  439MOL0     C57869   1.945  10.107   8.031  0.0892  0.1335 -0.4985
  439MOL0     C57870   2.189  10.510   8.006 -0.7063 -0.9804 -0.5365
  439MOL0     C57871   2.252  10.598   8.104  0.3825 -0.1567  0.4940
  439MOL0     C57872   2.379  10.656   8.061  0.2510 -0.5045 -0.1729
  439MOL0     C57873   2.446  10.639   7.940  0.6187  0.0089 -0.0205
  439MOL0     O57874   2.562  10.704   7.915 -0.1708  0.1232 -0.7124
  439MOL0     C57875   2.635  10.678   7.791  0.0643  0.8316  0.7238
  439MOL0     C57876   2.754  10.766   7.767  1.0119 -0.2958 -0.4969
  439MOL0     C57877   2.783  10.755   7.616  0.2192 -0.1862  0.5719
  439MOL0     C57878   2.871  10.639   7.552  0.6344 -0.9057 -0.4394
  439MOL0     C57879   3.013  10.630   7.602 -0.3542 -0.6024  0.0109
  439MOL0     C57880   3.126  10.626   7.653  0.2237  0.3748 -0.2810
  439MOL0     C57881   2.385  10.547   7.857  0.4740  0.6556 -0.2082
  439MOL0     C57882   2.262  10.483   7.888  0.2865 -0.4276  0.5447
  439MOL0     H57883   1.799  10.397   7.946  1.3574  0.1084 -1.2381
  439MOL0     H57884   1.597  10.259   8.014  1.5834  2.4870  0.4343
  439MOL0     H57885   1.454  10.076   7.921 -1.7215 -1.6053 -0.0059
  439MOL0     H57886   1.449  10.126   8.097  0.4515  1.1808 -1.9387
  439MOL0     H57887   1.253  10.001   8.014 -0.0752 -1.6292 -3.6119
  439MOL0     H57888   1.338   9.921   8.152 -0.6674 -0.1170  0.1875
  439MOL0     H57889   1.336   9.733   8.027  1.2064  2.0108  2.4115
  439MOL0     H57890   1.454   9.803   7.910  1.0679  0.7701  0.3327
  439MOL0     H57891   1.159   9.854   7.904  0.8026  0.6575  0.4837
  439MOL0     H57892   1.279   9.879   7.777  4.1484 -0.4184 -0.1580
  439MOL0     H57893   1.287   9.599   7.846  0.4215 -1.5646  0.0704
  439MOL0     H57894   1.245   9.679   7.694 -3.1263 -1.1555  0.3071
  439MOL0     H57895   1.018   9.683   7.729 -1.2651  0.1437  2.4333
  439MOL0     H57896   1.034   9.636   7.889  0.4273 -2.5179  0.4268
  439MOL0     H57897   1.126   9.415   7.843 -2.1219 -1.0070  1.5702
  439MOL0     H57898   0.969   9.435   7.780 -0.1063  0.0107  0.6201
  439MOL0     H57899   1.215   9.476   7.593  1.1401  0.5794  2.1889
  439MOL0     H57900   1.046   9.480   7.559  1.2159  4.9447  0.9830
  439MOL0     H57901   1.112   9.200   7.807  4.2779  0.6479  0.7453
  439MOL0     H57902   1.010   8.870   7.621 -1.5588 -0.3001  0.1111
  439MOL0     H57903   0.957   8.955   7.759  0.5529 -3.3728  1.0417
  439MOL0     H57904   1.119   8.834   7.867 -0.8071 -1.7321 -1.8460
  439MOL0     H57905   1.244   8.938   7.801 -0.0039  1.7806 -0.9833
  439MOL0     H57906   1.289   8.707   7.774 -2.2726 -5.0854 -0.1760
  439MOL0     H57907   1.156   8.652   7.690  2.2878 -0.9728  0.0810
  439MOL0     H57908   1.334   8.872   7.593 -0.0957  0.7034 -0.1760
  439MOL0     H57909   1.202   8.797   7.491  1.8458 -2.1228 -3.1192
  439MOL0     H57910   1.484   8.495   7.437  0.0744  1.9628  1.2404
  439MOL0     H57911   1.600   8.473   7.203 -0.0011  0.3722 -0.4097
  439MOL0     H57912   1.875   8.458   6.842 -0.0119 -0.0042 -0.0220
  439MOL0     H57913   1.913   8.416   6.609 -2.2689 -3.0251  1.0371
  439MOL0     H57914   1.873   8.561   6.253 -0.5300  1.0779  0.3208
  439MOL0     H57915   1.938   8.612   6.404  0.4600  0.2997 -1.0124
  439MOL0     H57916   1.753   8.773   6.445 -0.8897 -0.8303  0.1311
  439MOL0     H57917   1.655   8.698   6.313 -2.0143  4.7016 -1.7663
  439MOL0     H57918   1.834   8.768   6.151 -0.2364  1.6173  0.0123
  439MOL0     H57919   1.905   8.861   6.286  2.1720  0.4567 -4.1211
  439MOL0     H57920   1.655   8.968   6.295 -0.3092 -2.5052  0.8256
  439MOL0     H57921   1.783   9.043   6.206 -1.5252  0.7296 -4.0323
  439MOL0     H57922   1.549   8.882   6.114  0.5109  0.6667 -0.7590
  439MOL0     H57923   1.697   8.860   6.028  2.6673  0.5079 -0.7527
  439MOL0     H57924   1.705   9.101   5.969 -0.8814  2.1760  0.2568
  439MOL0     H57925   1.558   9.132   6.050  1.5439  2.8697 -3.7426
  439MOL0     H57926   1.566   8.922   5.845  0.0142  0.6345 -1.4323
  439MOL0     H57927   1.426   9.011   5.895 -0.0791 -1.5024 -0.1709
  439MOL0     H57928   1.534   9.223   5.811  2.7051  1.1098 -0.3901
  439MOL0     H57929   1.485   9.106   5.682 -1.1010 -0.4931  1.0004
  439MOL0     H57930   1.554   8.606   6.498  1.0096  1.1611 -1.6561
  439MOL0     H57931   1.494   8.643   6.742 -0.2393 -1.5512  2.2020
  439MOL0     H57932   1.409   8.859   7.114 -3.0937 -0.9405 -0.6976
  439MOL0     H57933   1.337   8.878   7.343  2.9600  1.1148  1.4677
  439MOL0     H57934   1.853   9.921   8.048  0.2771 -1.4998  1.3045
  439MOL0     H57935   2.045  10.068   8.047  0.6714  0.0334 -3.7964
  439MOL0     H57936   2.209  10.613   8.202  1.6201  1.5972  0.8177
  439MOL0     H57937   2.422  10.733   8.125  3.1407 -2.8265  0.8922
  439MOL0     H57938   2.570  10.692   7.704 -1.7278 -0.4403  1.7998
  439MOL0     H57939   2.664  10.572   7.799 -3.4701 -0.3715 -0.2925
  439MOL0     H57940   2.712  10.862   7.797  2.8764 -0.5794  3.9040
  439MOL0     H57941   2.838  10.727   7.826  0.4702  0.3781  0.7580
  439MOL0     H57942   2.840  10.844   7.588  1.2896 -1.6598 -2.3166
  439MOL0     H57943   2.690  10.762   7.558  0.2514 -0.1165  0.5286
  439MOL0     H57944   2.819  10.546   7.578  2.0087 -1.9520 -1.2820
  439MOL0     H57945   2.867  10.656   7.444 -1.8866 -2.7381 -0.7172
  439MOL0     H57946   3.207  10.613   7.723 -1.1598 -0.3418  1.2398
  439MOL0     H57947   2.442  10.517   7.770  1.5136  1.0067  0.3320
  439MOL0     H57948   2.232  10.414   7.810  2.0930 -0.0394 -0.5410
  440MOL0     O57949   5.379   6.955  11.027  0.0548  0.5364  0.6594
  440MOL0     C57950   5.314   7.009  10.935 -0.7185 -1.0512  0.2137
  440MOL0     O57951   5.374   7.056  10.819  0.2094  0.3771 -0.2512
  440MOL0     C57952   5.416   6.958  10.739  0.1597 -0.3431  0.0476
  440MOL0     C57953   5.328   6.866  10.687  0.2766  0.0566  0.1381
  440MOL0     C57954   5.359   6.760  10.603  0.9579 -0.5864 -0.3056
  440MOL0     C57955   5.490   6.739  10.580  0.4024 -0.5969 -0.2551
  440MOL0     O57956   5.519   6.621  10.516  0.4638  0.0028 -0.5433
  440MOL0     C57957   5.654   6.604  10.472 -0.1645 -0.3107 -0.1115
  440MOL0     C57958   5.658   6.477  10.386  0.1330 -0.0012  0.5208
  440MOL0     C57959   5.610   6.361  10.471 -0.3998  0.4677 -0.2976
  440MOL0     C57960   5.720   6.247  10.477 -0.0389 -0.0351 -0.6221
  440MOL0     C57961   5.693   6.122  10.562  1.0029 -0.6390  0.7782
  440MOL0     C57962   5.691   6.138  10.708  0.5861  0.2951 -0.2616
  440MOL0     C57963   5.623   6.008  10.768  0.4644 -0.1459  0.9694
  440MOL0     C57964   5.673   5.973  10.914 -0.1353 -0.0128  0.3690
  440MOL0     N57965   5.605   5.849  10.958 -0.7671  0.4808 -0.1016
  440MOL0     C57966   5.476   5.837  10.999 -0.1220  0.1401  0.3695
  440MOL0     C57967   5.460   5.702  11.013  0.0768  0.8453  0.8689
  440MOL0     C57968   5.332   5.635  11.035  0.1876 -0.1475  0.6480
  440MOL0     C57969   5.331   5.526  11.153  0.2860 -0.3344  0.3630
  440MOL0     C57970   5.189   5.473  11.185  0.2627  0.1095 -0.2753
  440MOL0     C57971   5.111   5.589  11.257  0.3344 -0.4879 -1.3559
  440MOL0     O57972   4.966   5.561  11.262 -0.2769 -0.2082  0.1073
  440MOL0     C57973   4.915   5.455  11.334  0.0135 -0.2251  1.3697
  440MOL0     C57974   4.970   5.398  11.450  0.5625  0.0633 -0.2609
  440MOL0     C57975   4.906   5.290  11.519 -0.7440  0.3982 -0.7883
  440MOL0     C57976   4.791   5.232  11.472 -1.3943  0.2212  0.0318
  440MOL0     C57977   4.724   5.121  11.544  1.0929 -0.6342  0.0096
  440MOL0     O57978   4.665   5.042  11.451  0.0536  0.3692  0.4598
  440MOL0     C57979   4.570   4.948  11.485  0.5828 -0.2121 -0.4831
  440MOL0     C57980   4.463   4.924  11.396 -1.0995  0.5909  0.7468
  440MOL0     C57981   4.368   4.823  11.430 -0.2706 -0.3700 -0.1798
  440MOL0     C57982   4.359   4.768  11.556  0.4067 -0.7357 -0.7034
  440MOL0     O57983   4.249   4.694  11.590  0.5010  0.6730  0.0105
  440MOL0     C57984   4.266   4.586  11.686 -0.0073 -0.6059  0.8881
  440MOL0     C57985   4.140   4.506  11.684 -0.3163  0.5383  0.1162
  440MOL0     C57986   4.128   4.403  11.573  0.1688 -0.6894 -0.6807
  440MOL0     C57987   3.981   4.383  11.523 -0.1401  0.3851 -0.4909
  440MOL0     C57988   3.958   4.249  11.445  0.0631  0.1045  0.2564
  440MOL0     C57989   4.034   4.225  11.317  0.0121 -1.1620 -0.0789
  440MOL0     C57990   3.973   4.113  11.232 -0.5043  0.3745  0.8076
  440MOL0     C57991   4.072   4.082  11.121 -0.2859  0.5810 -0.4705
  440MOL0    Cl57992   4.159   4.232  11.052  0.2056  0.4863 -0.0176
  440MOL0     C57993   4.463   4.802  11.646 -0.4059 -0.9382 -0.1165
  440MOL0     C57994   4.565   4.880  11.611  0.3633 -0.0015  0.2357
  440MOL0     O57995   4.698   5.128  11.663  0.4117  1.0742 -0.1931
  440MOL0     C57996   4.737   5.284  11.346 -0.5307  1.0338 -0.6907
  440MOL0     C57997   4.800   5.393  11.282 -0.3823  0.0073  0.0310
  440MOL0     N57998   5.580   5.640  10.976 -0.0222  0.2897  1.0180
  440MOL0     N57999   5.662   5.730  10.933  0.0592  0.7849 -0.7442
  440MOL0     C58000   5.586   6.841  10.618  0.7549 -0.5447 -0.5317
  440MOL0     C58001   5.548   6.946  10.697 -0.9632 -0.0950 -0.1285
  440MOL0     C58002   5.180   7.054  10.965  0.0881  0.1151 -0.3099
  440MOL0     C58003   5.122   7.014  11.083 -0.9723  0.0736 -0.0795
  440MOL0     C58004   4.991   7.037  11.120 -0.5569  0.4369 -0.4726
  440MOL0     C58005   4.902   7.105  11.037 -0.8575  0.6868 -0.4596
  440MOL0     O58006   4.770   7.095  11.078  0.0695  0.0361 -0.5434
  440MOL0     C58007   4.666   7.096  10.986  0.4412 -0.1148  0.5690
  440MOL0     C58008   4.554   7.060  11.080  0.2031  0.4844 -0.4607
  440MOL0     C58009   4.555   6.905  11.114 -0.3604 -0.0682  0.8008
  440MOL0     C58010   4.475   6.831  11.013 -0.2554  0.5824  0.7446
  440MOL0     C58011   4.455   6.688  11.032  0.3720  0.0087 -0.2230
  440MOL0     C58012   4.442   6.568  11.031  0.3017 -0.0439  0.1227
  440MOL0     C58013   4.957   7.131  10.910 -0.6571 -1.1335 -0.2491
  440MOL0     C58014   5.097   7.122  10.876  0.9218 -0.0591  0.1410
  440MOL0     H58015   5.224   6.869  10.717 -0.4479 -0.3032 -2.1455
  440MOL0     H58016   5.297   6.680  10.564  1.1776 -0.6033 -0.6178
  440MOL0     H58017   5.724   6.589  10.554 -3.6906  1.4143  3.5262
  440MOL0     H58018   5.698   6.690  10.420  3.5983 -1.0964  1.4381
  440MOL0     H58019   5.757   6.446  10.352 -0.2194  0.9305 -1.5613
  440MOL0     H58020   5.597   6.501  10.298 -1.6915  1.1711  2.0134
  440MOL0     H58021   5.510   6.325  10.446 -0.6002 -0.7586  2.0404
  440MOL0     H58022   5.601   6.398  10.573  1.1388  0.1844 -0.0289
  440MOL0     H58023   5.739   6.217  10.374  0.2658 -0.7367 -0.3673
  440MOL0     H58024   5.818   6.288  10.504  1.5333 -3.7143 -0.1171
  440MOL0     H58025   5.774   6.052  10.539  0.7065 -0.9584  0.6939
  440MOL0     H58026   5.599   6.083  10.521  1.3626 -1.0130  0.2873
  440MOL0     H58027   5.625   6.224  10.723 -2.9319 -2.0243 -1.1031
  440MOL0     H58028   5.793   6.155  10.743  0.3138  3.5605 -0.6948
  440MOL0     H58029   5.516   6.028  10.777 -0.0128 -1.0468 -1.7113
  440MOL0     H58030   5.635   5.916  10.710  1.2022 -1.4755  3.1152
  440MOL0     H58031   5.639   6.033  10.999 -0.0751 -2.1845  2.0092
  440MOL0     H58032   5.781   5.965  10.923 -0.3413 -1.4578  2.3336
  440MOL0     H58033   5.396   5.910  11.001 -0.5943 -0.2269 -2.1866
  440MOL0     H58034   5.304   5.593  10.938  0.2154  3.2016 -0.9718
  440MOL0     H58035   5.255   5.708  11.062  1.6702  1.5985  0.3437
  440MOL0     H58036   5.377   5.572  11.241  2.3358  2.8650 -2.1393
  440MOL0     H58037   5.398   5.442  11.130  0.9699 -0.2126  1.7817
  440MOL0     H58038   5.141   5.445  11.091  2.0438 -0.1380 -1.1386
  440MOL0     H58039   5.186   5.389  11.255  0.5217 -0.5627 -1.0600
  440MOL0     H58040   5.120   5.684  11.203 -4.0380  1.3816  0.7239
  440MOL0     H58041   5.139   5.618  11.359 -2.5852  1.3048 -0.9525
  440MOL0     H58042   5.061   5.431  11.498  0.6581 -1.3289  0.5745
  440MOL0     H58043   4.961   5.247  11.602 -1.6834 -0.6336 -0.6841
  440MOL0     H58044   4.473   4.973  11.301 -0.9656  1.1225  1.0323
  440MOL0     H58045   4.287   4.807  11.359  1.6702  0.8255 -2.8146
  440MOL0     H58046   4.281   4.626  11.787 -0.8923  1.0058  0.4182
  440MOL0     H58047   4.354   4.528  11.656  1.3731  1.1403  1.3907
  440MOL0     H58048   4.051   4.569  11.681  0.8353  2.3021 -3.6995
  440MOL0     H58049   4.128   4.449  11.777 -0.5525  0.8978  0.3092
  440MOL0     H58050   4.163   4.307  11.611 -1.6657 -0.7556  0.9677
  440MOL0     H58051   4.187   4.433  11.485 -0.3140  1.8424 -0.2363
  440MOL0     H58052   3.931   4.376  11.620 -0.3039  3.2775 -0.2612
  440MOL0     H58053   3.943   4.469  11.466 -1.4915 -0.6699 -1.2578
  440MOL0     H58054   3.852   4.240  11.420 -0.2291 -0.6715  1.6511
  440MOL0     H58055   3.963   4.166  11.517 -1.7983  1.2485  1.8313
  440MOL0     H58056   4.139   4.195  11.327  0.3529  0.2195  0.6542
  440MOL0     H58057   4.024   4.315  11.256  0.6832 -0.6554  0.5609
  440MOL0     H58058   3.954   4.033  11.304 -0.1018  1.6334  2.3680
  440MOL0     H58059   3.878   4.135  11.183  0.4765  0.9793 -0.9322
  440MOL0     H58060   4.015   4.029  11.044 -1.5158  0.0083  0.8013
  440MOL0     H58061   4.149   4.021  11.170  0.4668  1.8321 -0.0611
  440MOL0     H58062   4.478   4.753  11.742 -0.6770 -2.3533 -0.7641
  440MOL0     H58063   4.645   4.895  11.683 -0.3217  2.2775  0.5966
  440MOL0     H58064   4.654   5.236  11.296 -1.8334  0.7890  1.5498
  440MOL0     H58065   4.758   5.428  11.188  1.1410 -0.1364 -0.7361
  440MOL0     H58066   5.690   6.820  10.595  0.8815 -2.1386  1.2127
  440MOL0     H58067   5.624   7.017  10.729 -2.2168  0.6980  1.2675
  440MOL0     H58068   5.194   6.968  11.150  3.5739  3.5307 -2.0306
  440MOL0     H58069   4.965   6.988  11.213  1.5782 -0.3596 -0.2387
  440MOL0     H58070   4.677   7.027  10.902  1.4781 -1.3384  1.6663
  440MOL0     H58071   4.647   7.201  10.961 -3.4733 -1.2924 -2.4193
  440MOL0     H58072   4.569   7.121  11.169 -1.5087 -0.6741  0.7025
  440MOL0     H58073   4.457   7.094  11.043  0.4047  0.4893 -0.9844
  440MOL0     H58074   4.518   6.884  11.215 -1.0101 -1.4032  0.3044
  440MOL0     H58075   4.657   6.864  11.117 -0.5512 -1.1384 -2.8964
  440MOL0     H58076   4.375   6.876  11.010 -1.0946 -1.2354  0.1957
  440MOL0     H58077   4.519   6.841  10.913 -1.9029 -2.7206 -0.4569
  440MOL0     H58078   4.414   6.468  11.004  0.2927  0.4538 -1.9306
  440MOL0     H58079   4.889   7.176  10.838 -1.3226  0.0075  1.0407
  440MOL0     H58080   5.134   7.147  10.777  0.0168 -1.7763 -0.6630
  441MOL0     O58081   2.060   5.851   1.082  0.4484  0.6338 -0.8324
  441MOL0     C58082   2.099   5.865   0.964 -1.2010 -0.0329 -0.1350
  441MOL0     O58083   2.041   5.951   0.864  0.2793  0.5139 -1.1019
  441MOL0     C58084   1.952   6.040   0.915  0.7908 -0.0824  0.4154
  441MOL0     C58085   1.816   6.014   0.942  0.0643  0.6526 -0.3141
  441MOL0     C58086   1.734   6.108   1.012  1.0588  0.5923  0.3500
  441MOL0     C58087   1.779   6.230   1.051  0.1345  0.4674  0.3129
  441MOL0     O58088   1.695   6.316   1.113  0.2485  0.1407 -0.3107
  441MOL0     C58089   1.733   6.455   1.090  0.3604  0.7205  0.0621
  441MOL0     C58090   1.634   6.548   1.158  0.5268 -1.1375  0.2729
  441MOL0     C58091   1.651   6.543   1.311 -0.2748 -0.0741  0.0286
  441MOL0     C58092   1.557   6.641   1.389 -0.5107  0.2378  0.2825
  441MOL0     C58093   1.546   6.605   1.536  0.5791 -0.1419  1.1041
  441MOL0     C58094   1.409   6.648   1.598 -0.3215  0.6290 -0.0857
  441MOL0     C58095   1.293   6.557   1.556 -0.4539 -0.0887 -0.0608
  441MOL0     C58096   1.166   6.601   1.631 -0.0473 -0.1642  1.2481
  441MOL0     N58097   1.168   6.590   1.773  0.1170  0.7644  0.0816
  441MOL0     C58098   1.148   6.471   1.840  0.4227 -0.0978 -0.4910
  441MOL0     C58099   1.125   6.503   1.967  0.7285  0.7230 -0.8083
  441MOL0     C58100   1.114   6.400   2.083  0.3983 -0.1484 -0.1185
  441MOL0     C58101   1.242   6.311   2.106  0.5281 -0.2712 -0.0398
  441MOL0     C58102   1.346   6.402   2.159 -0.6148  1.0888  0.1897
  441MOL0     C58103   1.483   6.338   2.167 -0.5974  0.0778  0.0481
  441MOL0     O58104   1.586   6.430   2.204  0.4855 -0.1163  0.1142
  441MOL0     C58105   1.584   6.472   2.336 -0.0936 -0.0490  0.5560
  441MOL0     C58106   1.677   6.572   2.364 -0.9394 -0.1405 -0.3714
  441MOL0     C58107   1.684   6.628   2.493  0.0634  0.0299 -0.0495
  441MOL0     C58108   1.610   6.581   2.594  0.9248  0.2853  1.2110
  441MOL0     C58109   1.612   6.627   2.732 -0.1148 -0.6609  0.8747
  441MOL0     O58110   1.638   6.761   2.757  0.0570  0.1037 -0.9500
  441MOL0     C58111   1.653   6.808   2.886 -0.1472 -0.9131  0.7600
  441MOL0     C58112   1.575   6.772   2.992  0.7387 -1.0876  0.1616
  441MOL0     C58113   1.587   6.834   3.115  0.1455 -0.1535 -0.7606
  441MOL0     C58114   1.691   6.927   3.138 -0.0735 -0.8933 -0.4531
  441MOL0     O58115   1.702   6.974   3.265 -0.5256 -0.5115  0.0951
  441MOL0     C58116   1.817   7.040   3.307 -0.6332 -0.5613  0.1100
  441MOL0     C58117   1.793   7.090   3.450  0.1205 -0.7557 -0.6750
  441MOL0     C58118   1.925   7.112   3.531  0.5005  0.7338 -0.2971
  441MOL0     C58119   2.025   7.214   3.489 -0.1094  0.4491 -0.4110
  441MOL0     C58120   2.147   7.248   3.587  1.2556  0.6584  0.4466
  441MOL0     C58121   2.281   7.272   3.522  0.0986  1.2172 -0.3602
  441MOL0     C58122   2.287   7.388   3.427 -0.7542  0.6567 -1.1912
  441MOL0     C58123   2.424   7.392   3.369  0.2244  0.2944  0.9621
  441MOL0    Cl58124   2.546   7.450   3.484 -0.0239  0.2846 -0.4302
  441MOL0     C58125   1.776   6.954   3.034  0.6290 -0.0803 -0.4524
  441MOL0     C58126   1.753   6.906   2.907 -0.0457  0.6350  1.2212
  441MOL0     O58127   1.604   6.544   2.816  0.4445  0.2004  0.0646
  441MOL0     C58128   1.507   6.484   2.561 -0.5374  0.2948 -0.0004
  441MOL0     C58129   1.502   6.427   2.434  1.0626  0.6097  0.1517
  441MOL0     N58130   1.111   6.638   1.964  0.5403 -0.6715 -0.1522
  441MOL0     N58131   1.158   6.688   1.859 -0.7230  0.5615 -0.2712
  441MOL0     C58132   1.916   6.253   1.016 -0.6972  0.2261  0.2982
  441MOL0     C58133   1.993   6.163   0.946  0.3008 -0.4814 -0.5223
  441MOL0     C58134   2.201   5.757   0.915  0.5848 -1.2617  0.1898
  441MOL0     C58135   2.222   5.634   0.974 -0.0323  0.4110  0.1331
  441MOL0     C58136   2.310   5.540   0.924 -0.4275 -0.7443  0.9573
  441MOL0     C58137   2.405   5.578   0.819 -0.5577  0.5630 -0.4859
  441MOL0     O58138   2.523   5.512   0.786 -0.0392  0.5950  0.5100
  441MOL0     C58139   2.578   5.424   0.886 -0.0832  0.0229  1.2625
  441MOL0     C58140   2.630   5.468   1.020 -0.0179 -0.5999  1.0867
  441MOL0     C58141   2.709   5.351   1.094 -0.2134 -0.1597 -0.5953
  441MOL0     C58142   2.747   5.402   1.235 -0.3156 -0.6742 -0.3716
  441MOL0     C58143   2.848   5.326   1.303 -0.4709  1.0883 -0.3569
  441MOL0     C58144   2.943   5.277   1.358 -0.9018 -0.5832 -0.2702
  441MOL0     C58145   2.372   5.691   0.754 -0.1779  0.4875  0.1905
  441MOL0     C58146   2.272   5.777   0.797 -0.4445 -0.4481  0.4841
  441MOL0     H58147   1.768   5.918   0.928  0.4370  0.4419 -0.1782
  441MOL0     H58148   1.636   6.064   1.027  0.6154  1.1646 -0.7288
  441MOL0     H58149   1.759   6.469   0.985  3.7543 -2.8517  0.2008
  441MOL0     H58150   1.827   6.471   1.143  0.5654  2.5184 -0.7629
  441MOL0     H58151   1.532   6.516   1.134  0.8070 -2.1162  0.3478
  441MOL0     H58152   1.662   6.642   1.111 -1.6203 -0.0441  1.0321
  441MOL0     H58153   1.754   6.578   1.320  0.1470 -0.1976 -3.2598
  441MOL0     H58154   1.660   6.441   1.349  2.8182 -0.5029 -1.5387
  441MOL0     H58155   1.602   6.740   1.382  3.6152 -1.3205  2.0099
  441MOL0     H58156   1.458   6.626   1.345 -2.0083  1.4313  2.9862
  441MOL0     H58157   1.634   6.651   1.582  3.6414 -2.6851 -1.6678
  441MOL0     H58158   1.545   6.496   1.543 -1.4254 -0.6653 -3.4354
  441MOL0     H58159   1.385   6.750   1.566  2.9441  0.6691 -3.0562
  441MOL0     H58160   1.417   6.655   1.707 -2.6907  2.9421  0.0385
  441MOL0     H58161   1.282   6.560   1.447  2.8639  1.9539 -0.4810
  441MOL0     H58162   1.316   6.457   1.593 -1.8107 -0.7288 -0.8575
  441MOL0     H58163   1.094   6.529   1.591  0.9108 -1.0919  1.1404
  441MOL0     H58164   1.139   6.704   1.606 -0.5971 -0.6571 -0.2607
  441MOL0     H58165   1.161   6.369   1.806 -0.2532 -0.3230 -0.0800
  441MOL0     H58166   1.031   6.329   2.081 -0.0314  0.2686  1.6282
  441MOL0     H58167   1.102   6.460   2.173  1.7178  1.0001 -0.6638
  441MOL0     H58168   1.270   6.274   2.008  4.0903  3.0111 -0.5150
  441MOL0     H58169   1.227   6.230   2.178  1.6561  0.6119  1.2583
  441MOL0     H58170   1.350   6.494   2.099  1.4429  2.3572  2.1227
  441MOL0     H58171   1.310   6.439   2.255 -0.7478 -0.5760  0.8137
  441MOL0     H58172   1.507   6.307   2.064 -1.5194  0.3823 -0.2673
  441MOL0     H58173   1.473   6.243   2.220 -1.8297 -0.3302 -0.8592
  441MOL0     H58174   1.727   6.615   2.278  0.7784 -0.9212  0.1787
  441MOL0     H58175   1.744   6.715   2.517 -2.9866  2.1382  0.4681
  441MOL0     H58176   1.503   6.690   2.989 -0.6249  0.0814 -0.5894
  441MOL0     H58177   1.523   6.798   3.196  3.9910 -5.2101  0.5831
  441MOL0     H58178   1.839   7.127   3.244  3.4874 -1.5792 -0.1657
  441MOL0     H58179   1.904   6.974   3.304 -0.3394 -0.2694  1.6597
  441MOL0     H58180   1.732   7.010   3.495 -0.9403  0.1075 -0.5211
  441MOL0     H58181   1.733   7.180   3.434 -0.3612 -1.1291 -1.0161
  441MOL0     H58182   1.951   7.006   3.531 -2.8901 -0.2113 -0.8758
  441MOL0     H58183   1.895   7.128   3.635 -0.3176  0.9269 -0.5565
  441MOL0     H58184   2.065   7.186   3.391  3.8531 -1.2933  1.4740
  441MOL0     H58185   1.972   7.308   3.472 -0.8641  0.2319  0.6162
  441MOL0     H58186   2.151   7.164   3.656  0.5676  0.6695  0.5079
  441MOL0     H58187   2.114   7.330   3.651 -1.3258 -2.3316  3.2984
  441MOL0     H58188   2.312   7.176   3.480 -1.1265 -0.1157  1.6175
  441MOL0     H58189   2.337   7.288   3.614 -0.2565  0.4943 -0.0145
  441MOL0     H58190   2.214   7.371   3.347 -1.8322  1.1755 -0.3447
  441MOL0     H58191   2.266   7.485   3.474  0.8795 -0.0779  1.2182
  441MOL0     H58192   2.414   7.477   3.300 -1.7383  0.0145  0.8315
  441MOL0     H58193   2.453   7.300   3.318 -2.3543  0.4964 -1.1042
  441MOL0     H58194   1.860   7.021   3.053 -0.4591  0.6080  2.4698
  441MOL0     H58195   1.822   6.940   2.831 -0.1466  2.0114  1.7177
  441MOL0     H58196   1.450   6.442   2.643 -0.6220 -4.9122 -2.3081
  441MOL0     H58197   1.427   6.350   2.415  1.6798 -0.1102  0.5946
  441MOL0     H58198   1.975   6.344   1.028  1.7287 -1.2081 -0.0406
  441MOL0     H58199   2.090   6.196   0.911 -1.0733  1.0041 -3.2681
  441MOL0     H58200   2.173   5.621   1.070  1.0979  1.1310  0.8287
  441MOL0     H58201   2.312   5.434   0.948 -1.6865 -1.1534 -0.6125
  441MOL0     H58202   2.672   5.391   0.841 -2.0278  0.3521 -3.5976
  441MOL0     H58203   2.516   5.334   0.891 -1.2697  0.3780 -3.2033
  441MOL0     H58204   2.685   5.562   1.015 -0.6336 -0.2854 -2.4222
  441MOL0     H58205   2.546   5.497   1.083 -0.2520 -0.6942  0.8206
  441MOL0     H58206   2.793   5.313   1.036  0.2408  0.3790 -0.2998
  441MOL0     H58207   2.636   5.269   1.097 -0.1468 -0.2030 -0.0091
  441MOL0     H58208   2.796   5.499   1.223 -0.9906 -0.3954 -0.8824
  441MOL0     H58209   2.660   5.412   1.302  2.3189  4.0691  2.9368
  441MOL0     H58210   3.035   5.243   1.401 -0.9359 -4.3852 -2.6865
  441MOL0     H58211   2.431   5.731   0.673 -0.2863 -2.5465 -1.5541
  441MOL0     H58212   2.272   5.880   0.764  3.7028 -0.1499  0.9044
  442MOL0     O58213   8.723   3.323   6.734  0.2201  0.2770  0.3402
  442MOL0     C58214   8.692   3.418   6.666  0.5950 -0.8934 -0.7240
  442MOL0     O58215   8.718   3.422   6.530  0.3266  0.7503  0.4775
  442MOL0     C58216   8.788   3.314   6.463  0.3999 -0.5505 -0.1139
  442MOL0     C58217   8.759   3.282   6.333 -0.0452  0.3618  0.2063
  442MOL0     C58218   8.826   3.183   6.261 -0.2127 -0.1163 -0.0016
  442MOL0     C58219   8.935   3.105   6.318 -1.1892  0.3102 -0.0111
  442MOL0     O58220   8.986   2.991   6.261 -0.0309 -0.1106 -0.0075
  442MOL0     C58221   8.959   2.973   6.122  0.4022  0.1001  0.0218
  442MOL0     C58222   8.999   2.838   6.088 -0.6918  0.1149  0.5018
  442MOL0     C58223   9.155   2.833   6.098  0.7244 -0.2933  0.1578
  442MOL0     C58224   9.227   2.741   6.004 -0.3662 -0.4711  0.9625
  442MOL0     C58225   9.380   2.729   6.039 -0.2118  0.4850 -0.3688
  442MOL0     C58226   9.463   2.672   5.919  1.0473  0.0701 -0.8105
  442MOL0     C58227   9.536   2.554   5.958 -0.2430 -0.0600  0.2740
  442MOL0     C58228   9.653   2.510   5.874  0.5400  0.5011 -0.6913
  442MOL0     N58229   9.733   2.397   5.936  0.2420 -0.4452  0.5931
  442MOL0     C58230   9.812   2.411   6.055  0.6986 -1.1729  0.1958
  442MOL0     C58231   9.844   2.277   6.078  0.6831  0.1629  0.4780
  442MOL0     C58232   9.931   2.216   6.186  0.2440 -0.0987 -0.2927
  442MOL0     C58233   9.934   2.307   6.310 -0.1667  0.7013  1.2904
  442MOL0     C58234   9.798   2.275   6.375 -0.8325 -0.4220 -0.1747
  442MOL0     C58235   9.785   2.351   6.505  0.4831  0.2841 -0.8386
  442MOL0     O58236   9.879   2.314   6.610  0.1023  0.5166  0.4107
  442MOL0     C58237   9.845   2.380   6.730  0.2807 -0.3721  1.0790
  442MOL0     C58238   9.772   2.495   6.745 -0.4005 -0.3551 -0.0037
  442MOL0     C58239   9.760   2.541   6.875  0.6893  0.0182 -0.4819
  442MOL0     C58240   9.819   2.477   6.981 -0.6315 -0.6578  0.7627
  442MOL0     C58241   9.786   2.530   7.119 -1.2256  0.1636  0.1127
  442MOL0     O58242   9.793   2.444   7.220 -0.6807  0.1717  0.3112
  442MOL0     C58243   9.812   2.481   7.351  0.1787 -0.2038  1.1692
  442MOL0     C58244   9.916   2.437   7.425  0.1977 -0.6828 -1.2063
  442MOL0     C58245   9.925   2.477   7.562  0.2817  0.7073 -0.2258
  442MOL0     C58246   9.819   2.540   7.626 -0.2608  0.8883 -0.4288
  442MOL0     O58247   9.813   2.543   7.761  0.4260  0.7555 -0.4581
  442MOL0     C58248   9.698   2.599   7.823 -0.6196  0.0764 -1.2310
  442MOL0     C58249   9.663   2.554   7.968  0.1260  0.4842  1.0457
  442MOL0     C58250   9.558   2.641   8.047 -0.2245  1.0119 -0.5344
  442MOL0     C58251   9.426   2.633   7.963  0.5653 -0.4622 -0.2406
  442MOL0     C58252   9.309   2.712   8.038 -0.1906 -0.4044  1.4150
  442MOL0     C58253   9.262   2.639   8.166 -0.2593  0.1189 -0.2842
  442MOL0     C58254   9.182   2.746   8.246  0.1845 -0.1937  1.0597
  442MOL0     C58255   9.090   2.694   8.351 -0.7010 -0.3964  0.3866
  442MOL0    Cl58256   9.176   2.609   8.487 -0.2567  0.1116  0.5206
  442MOL0     C58257   9.713   2.594   7.544 -0.1057  0.5906 -0.4025
  442MOL0     C58258   9.717   2.566   7.412 -0.2446  0.2440 -0.2019
  442MOL0     O58259   9.736   2.638   7.137  0.8734 -0.2363 -0.4093
  442MOL0     C58260   9.900   2.360   6.961  0.0515 -1.0599 -1.2546
  442MOL0     C58261   9.910   2.321   6.833  0.2589  0.5034 -0.3343
  442MOL0     N58262   9.796   2.196   5.980 -0.4980 -0.0765 -0.1162
  442MOL0     N58263   9.729   2.268   5.897  0.2038 -0.2692  0.0612
  442MOL0     C58264   8.972   3.143   6.447 -1.0888 -0.7772 -1.1218
  442MOL0     C58265   8.902   3.252   6.517 -0.5251 -0.3685  0.2815
  442MOL0     C58266   8.624   3.533   6.740 -0.9782  0.3971 -0.3989
  442MOL0     C58267   8.647   3.658   6.702  0.0303 -0.4773  0.4344
  442MOL0     C58268   8.593   3.759   6.774 -0.3051  1.0164  0.9412
  442MOL0     C58269   8.501   3.734   6.876 -0.5832 -0.3426 -0.5979
  442MOL0     O58270   8.446   3.844   6.933  0.8047 -0.1969  0.3408
  442MOL0     C58271   8.362   3.836   7.050  0.3372  0.3651  0.2666
  442MOL0     C58272   8.212   3.795   7.020 -0.1975 -0.1146 -0.6570
  442MOL0     C58273   8.153   3.891   6.927 -0.0226  0.0286  0.0616
  442MOL0     C58274   8.004   3.898   6.945  0.4985  0.0050  0.6816
  442MOL0     C58275   7.951   3.982   6.834  0.3644  0.2261  0.6861
  442MOL0     C58276   7.911   4.027   6.733  0.3734 -0.3872 -0.2546
  442MOL0     C58277   8.484   3.603   6.923 -0.8547 -0.4544 -0.1819
  442MOL0     C58278   8.548   3.502   6.851 -0.2252 -0.5515 -0.2781
  442MOL0     H58279   8.677   3.327   6.279 -0.8599  1.2664  2.0920
  442MOL0     H58280   8.793   3.183   6.157 -0.0798  1.0769 -0.0620
  442MOL0     H58281   9.013   3.047   6.063  2.1483  0.2246  1.6678
  442MOL0     H58282   8.853   2.968   6.099  0.6229 -1.6455 -0.8078
  442MOL0     H58283   8.962   2.805   5.990  0.1013  0.8264 -0.0492
  442MOL0     H58284   8.965   2.759   6.156  0.1631 -0.4735  0.2776
  442MOL0     H58285   9.170   2.800   6.201  1.4915 -1.0533 -0.1872
  442MOL0     H58286   9.200   2.932   6.085  0.0403 -0.2344 -2.2721
  442MOL0     H58287   9.187   2.639   6.003 -0.8130 -0.3008 -0.4104
  442MOL0     H58288   9.221   2.788   5.906  0.5862 -1.1560  0.5593
  442MOL0     H58289   9.390   2.672   6.132 -3.6190 -2.6965 -1.7285
  442MOL0     H58290   9.414   2.832   6.056 -0.0532  0.5160 -0.8517
  442MOL0     H58291   9.522   2.747   5.866 -0.4015  2.3109  0.5869
  442MOL0     H58292   9.389   2.649   5.842 -0.4878  2.4934 -0.1580
  442MOL0     H58293   9.591   2.585   6.047  2.8010  1.2852 -1.8755
  442MOL0     H58294   9.471   2.467   5.973  0.8332 -1.0293 -0.4354
  442MOL0     H58295   9.722   2.595   5.873  0.9801  0.1653  0.2788
  442MOL0     H58296   9.634   2.490   5.768  2.5379 -0.1828 -0.9614
  442MOL0     H58297   9.833   2.506   6.105 -0.6300  1.7917 -4.2892
  442MOL0     H58298  10.031   2.199   6.147  1.2127  1.6919  1.2738
  442MOL0     H58299   9.897   2.118   6.221 -0.6704  0.8365  1.6717
  442MOL0     H58300   9.945   2.412   6.279 -2.9179  1.0171  1.1190
  442MOL0     H58301  10.009   2.275   6.382  1.4067 -0.2833 -0.6908
  442MOL0     H58302   9.711   2.302   6.315 -3.3096 -0.5404  3.0681
  442MOL0     H58303   9.793   2.173   6.412 -2.3705  0.1594  1.3556
  442MOL0     H58304   9.681   2.344   6.540  0.6750  1.1258 -0.0293
  442MOL0     H58305   9.813   2.453   6.477  2.6642  0.4149  1.4548
  442MOL0     H58306   9.716   2.541   6.665 -1.8215 -1.8797  0.0600
  442MOL0     H58307   9.689   2.622   6.889 -1.5738 -1.6125 -1.8320
  442MOL0     H58308  10.001   2.384   7.385  0.4132  1.0670 -3.2522
  442MOL0     H58309  10.000   2.441   7.631 -1.6493 -0.4212  1.3798
  442MOL0     H58310   9.606   2.593   7.765 -1.3048  3.7493 -0.7463
  442MOL0     H58311   9.701   2.708   7.828 -0.9236  0.0955 -1.4568
  442MOL0     H58312   9.755   2.552   8.027 -0.9486 -0.3227  2.7483
  442MOL0     H58313   9.627   2.451   7.963  1.4197  0.0769 -1.4192
  442MOL0     H58314   9.589   2.746   8.055 -2.8439  1.7420  1.5761
  442MOL0     H58315   9.544   2.595   8.145 -2.6198  0.5528 -1.0292
  442MOL0     H58316   9.438   2.680   7.865  2.2915 -0.8989 -0.2770
  442MOL0     H58317   9.400   2.527   7.956  0.4114 -0.3036 -2.8684
  442MOL0     H58318   9.223   2.709   7.971  0.6855 -2.3664  0.2905
  442MOL0     H58319   9.336   2.817   8.050  0.4881 -0.1551 -1.4479
  442MOL0     H58320   9.337   2.596   8.232 -0.9356 -1.2193 -0.3469
  442MOL0     H58321   9.196   2.554   8.149 -2.5847  0.9874  3.2490
  442MOL0     H58322   9.234   2.832   8.289  2.8197 -0.7763 -0.7596
  442MOL0     H58323   9.117   2.797   8.175  0.6006 -0.9818  0.0951
  442MOL0     H58324   9.018   2.632   8.298 -1.6903 -0.4043  1.6833
  442MOL0     H58325   9.038   2.782   8.392  0.3220  0.0396  0.7788
  442MOL0     H58326   9.630   2.655   7.576  0.4944  1.4537 -0.4514
  442MOL0     H58327   9.640   2.612   7.350  1.1770 -0.1009 -2.3362
  442MOL0     H58328   9.953   2.309   7.041  1.2201 -1.4983 -2.2859
  442MOL0     H58329   9.964   2.230   6.811 -0.9697 -0.8761  1.9605
  442MOL0     H58330   9.045   3.087   6.505 -0.3962  0.4771 -0.7355
  442MOL0     H58331   8.937   3.279   6.616  2.3437  0.5853 -0.8861
  442MOL0     H58332   8.719   3.679   6.624  1.7078  1.4135  2.3565
  442MOL0     H58333   8.624   3.858   6.741  1.8852  0.9035  2.4616
  442MOL0     H58334   8.375   3.935   7.096 -1.9377  0.6241  0.4786
  442MOL0     H58335   8.401   3.762   7.120 -0.0855  2.3035  2.7126
  442MOL0     H58336   8.206   3.691   6.985 -0.8483  0.0245 -0.9684
  442MOL0     H58337   8.148   3.801   7.108 -0.7645 -0.6756 -1.0251
  442MOL0     H58338   8.177   3.862   6.825  3.2118 -1.6053  1.1321
  442MOL0     H58339   8.205   3.985   6.947  0.2681 -0.1315  0.0696
  442MOL0     H58340   7.966   3.796   6.936  0.2673  0.1094  0.4416
  442MOL0     H58341   7.977   3.938   7.043  1.3130 -4.4876  3.0223
  442MOL0     H58342   7.868   4.085   6.654 -3.3852 -2.1536  0.2802
  442MOL0     H58343   8.424   3.569   7.007 -1.6980 -0.5645 -0.8119
  442MOL0     H58344   8.554   3.398   6.880  4.3768 -0.2282  0.6798
  443MOL0     O58345   2.467   4.927   4.090  0.2735  0.8156  0.3973
  443MOL0     C58346   2.394   5.000   4.025  0.6016 -0.0207 -0.3494
  443MOL0     O58347   2.376   5.134   4.037 -0.1076  0.4275 -0.2051
  443MOL0     C58348   2.456   5.194   4.131  0.5287 -0.1539 -0.9620
  443MOL0     C58349   2.546   5.299   4.097  0.2233 -0.6699 -0.2473
  443MOL0     C58350   2.626   5.356   4.198  0.4829  0.0269  0.1168
  443MOL0     C58351   2.606   5.320   4.330  0.1002  0.8700 -0.5509
  443MOL0     O58352   2.676   5.383   4.438  0.2559  0.0035 -0.1755
  443MOL0     C58353   2.662   5.523   4.446 -0.2852 -0.5179  0.0390
  443MOL0     C58354   2.730   5.564   4.572 -0.1295  0.5099 -0.2040
  443MOL0     C58355   2.650   5.526   4.698 -0.1963 -0.4316  0.7042
  443MOL0     C58356   2.682   5.631   4.810  0.3758  0.6093  0.1259
  443MOL0     C58357   2.610   5.763   4.812 -0.2497 -0.1975 -0.4034
  443MOL0     C58358   2.666   5.863   4.919  0.1758  0.2151  0.2022
  443MOL0     C58359   2.595   6.004   4.914  0.0538  0.2852 -0.0172
  443MOL0     C58360   2.441   5.988   4.961 -0.6689 -1.4252 -0.6427
  443MOL0     N58361   2.342   5.924   4.870  0.1773  0.2421 -0.3029
  443MOL0     C58362   2.249   5.828   4.903 -0.2611 -0.3621 -0.3504
  443MOL0     C58363   2.193   5.794   4.791  1.0585  0.7426  0.6716
  443MOL0     C58364   2.066   5.708   4.768 -1.1411  0.5790  0.0973
  443MOL0     C58365   1.958   5.767   4.855  0.4330 -0.0569  0.0997
  443MOL0     C58366   1.835   5.677   4.860 -0.4419 -0.1005  0.1628
  443MOL0     C58367   1.705   5.754   4.894  0.4805  0.2077  1.2989
  443MOL0     O58368   1.710   5.814   5.019  0.5458  0.8468 -0.1448
  443MOL0     C58369   1.593   5.862   5.077 -0.8522  0.1590 -0.3879
  443MOL0     C58370   1.614   5.940   5.189  0.4019 -0.2762  0.7123
  443MOL0     C58371   1.512   6.010   5.257  0.9862 -0.0842  0.9336
  443MOL0     C58372   1.377   5.996   5.222  0.0721 -0.3710  0.7979
  443MOL0     C58373   1.269   6.056   5.289  0.7987 -0.7644  0.1825
  443MOL0     O58374   1.135   6.019   5.254  0.5102  0.8197 -0.2015
  443MOL0     C58375   1.034   6.061   5.329 -0.1630 -0.0625  0.4825
  443MOL0     C58376   1.034   6.030   5.467  0.0039 -0.8914  0.1601
  443MOL0     C58377   0.931   6.082   5.540  0.4942  1.3552 -0.5440
  443MOL0     C58378   0.816   6.142   5.493  0.0929  0.0774  0.1529
  443MOL0     O58379   0.707   6.171   5.576  0.0664 -0.4771 -0.9885
  443MOL0     C58380   0.606   6.261   5.523 -0.1729  0.7844 -0.1171
  443MOL0     C58381   0.523   6.323   5.638  0.1717  0.7869 -0.4339
  443MOL0     C58382   0.603   6.411   5.740  0.1991 -0.1565  1.2703
  443MOL0     C58383   0.642   6.543   5.678 -0.4890 -0.9821  0.1051
  443MOL0     C58384   0.738   6.615   5.776  0.5164 -0.3281 -0.0762
  443MOL0     C58385   0.782   6.752   5.708  0.2998 -0.1740 -0.6115
  443MOL0     C58386   0.681   6.868   5.685  0.6961 -0.2159 -0.1419
  443MOL0     C58387   0.618   6.925   5.820 -0.5636  0.4491  0.2974
  443MOL0    Cl58388   0.742   6.962   5.948  0.0355 -0.3475  0.0565
  443MOL0     C58389   0.808   6.149   5.352  0.1499  0.2877 -0.3897
  443MOL0     C58390   0.919   6.114   5.279 -0.0120 -0.6606 -0.1230
  443MOL0     O58391   1.290   6.146   5.375 -0.2379 -1.0879  0.1361
  443MOL0     C58392   1.355   5.906   5.110 -0.1498 -0.6876 -0.2504
  443MOL0     C58393   1.460   5.847   5.043  0.9832  0.3987  0.4817
  443MOL0     N58394   2.240   5.869   4.682 -0.6988  0.7109  0.1889
  443MOL0     N58395   2.323   5.956   4.739 -0.3668 -0.5083 -0.0588
  443MOL0     C58396   2.513   5.222   4.372  0.7129 -0.9846  0.0704
  443MOL0     C58397   2.447   5.156   4.273  0.2791  0.4152  0.3872
  443MOL0     C58398   2.296   4.926   3.940 -0.1326  0.9895 -1.0293
  443MOL0     C58399   2.274   4.785   3.957 -0.2300  0.6069 -0.2574
  443MOL0     C58400   2.226   4.717   3.848 -1.1384  1.2353 -0.6416
  443MOL0     C58401   2.159   4.782   3.742  0.5240 -0.3548  0.7934
  443MOL0     O58402   2.095   4.717   3.636  0.1043  0.2735  0.4834
  443MOL0     C58403   2.068   4.578   3.649 -0.2574  1.2832  0.2646
  443MOL0     C58404   1.957   4.537   3.744  0.3162 -0.3046 -0.2766
  443MOL0     C58405   1.975   4.387   3.773 -0.1832 -0.0557  0.2828
  443MOL0     C58406   1.856   4.340   3.864 -0.5348 -1.2251  0.6331
  443MOL0     C58407   1.749   4.304   3.769 -0.7208 -0.1414 -0.3584
  443MOL0     C58408   1.672   4.265   3.692 -0.0465  0.0860  0.2414
  443MOL0     C58409   2.167   4.928   3.745 -1.3916  0.3126 -0.8766
  443MOL0     C58410   2.236   4.995   3.842  0.6110  0.0874  0.7350
  443MOL0     H58411   2.578   5.319   3.995 -1.9795  0.8799 -0.7101
  443MOL0     H58412   2.700   5.433   4.177  0.6378 -0.2283 -0.2808
  443MOL0     H58413   2.557   5.555   4.444 -0.0261  0.3438 -0.1016
  443MOL0     H58414   2.706   5.553   4.351  0.5925 -2.3275 -0.1453
  443MOL0     H58415   2.756   5.670   4.569  0.2074  0.5261  1.8599
  443MOL0     H58416   2.820   5.502   4.585 -0.0456  0.4288 -1.1114
  443MOL0     H58417   2.676   5.424   4.729 -2.5893 -0.6867  2.1198
  443MOL0     H58418   2.543   5.524   4.673 -0.0104  3.3213 -1.0468
  443MOL0     H58419   2.652   5.574   4.899  2.2549  1.8723  1.6518
  443MOL0     H58420   2.788   5.653   4.825  1.0064 -1.4986 -0.7760
  443MOL0     H58421   2.506   5.737   4.829 -0.4607  0.4839 -0.6363
  443MOL0     H58422   2.618   5.814   4.716  2.0811 -0.0496 -0.1854
  443MOL0     H58423   2.770   5.878   4.887  0.4762 -0.0363  1.0256
  443MOL0     H58424   2.669   5.815   5.017  0.6729  2.2928  1.2649
  443MOL0     H58425   2.647   6.071   4.984 -2.2894  1.8220  0.3719
  443MOL0     H58426   2.600   6.040   4.811 -1.2218 -2.5261 -1.1471
  443MOL0     H58427   2.401   6.087   4.987  1.3774  0.3424 -3.6145
  443MOL0     H58428   2.458   5.934   5.054  2.3774  0.0127 -0.2366
  443MOL0     H58429   2.220   5.811   5.007 -3.1696 -1.0617 -1.1716
  443MOL0     H58430   2.073   5.601   4.792 -1.7509  0.3176 -0.8237
  443MOL0     H58431   2.045   5.719   4.661 -0.0517 -1.0334 -0.3153
  443MOL0     H58432   1.934   5.866   4.815  0.0150  0.3860  1.3793
  443MOL0     H58433   1.995   5.782   4.957 -0.5522  1.5158  0.2684
  443MOL0     H58434   1.811   5.628   4.766  0.6122  2.0319 -1.2794
  443MOL0     H58435   1.852   5.611   4.947  1.5977  0.5357  0.2975
  443MOL0     H58436   1.614   5.695   4.882  1.7982 -1.8409  0.8646
  443MOL0     H58437   1.706   5.827   4.812  2.5881 -0.7116  0.4255
  443MOL0     H58438   1.716   5.956   5.222  0.7976  1.6606 -1.2431
  443MOL0     H58439   1.540   6.051   5.353  3.1065 -1.3237  0.9157
  443MOL0     H58440   1.123   5.989   5.513  1.3743 -0.5829 -2.1067
  443MOL0     H58441   0.944   6.069   5.647  0.5186 -2.0110 -0.8348
  443MOL0     H58442   0.541   6.203   5.457  0.8235  0.2411 -0.6408
  443MOL0     H58443   0.652   6.343   5.467  3.3314 -0.3872  0.7969
  443MOL0     H58444   0.481   6.244   5.701  0.6518 -0.0511 -1.1591
  443MOL0     H58445   0.435   6.377   5.601 -2.5460 -3.3726 -0.6784
  443MOL0     H58446   0.692   6.355   5.770 -0.0889 -2.6360 -1.8903
  443MOL0     H58447   0.537   6.425   5.826 -2.8654  0.0765 -0.9364
  443MOL0     H58448   0.685   6.523   5.579 -0.0735  2.1607 -0.4623
  443MOL0     H58449   0.553   6.606   5.662 -1.7225 -2.7426 -0.2169
  443MOL0     H58450   0.824   6.553   5.800  0.2982 -0.4288  0.4663
  443MOL0     H58451   0.684   6.637   5.870 -4.1718 -1.0788 -2.2891
  443MOL0     H58452   0.836   6.714   5.620  2.9038 -2.5071  1.8057
  443MOL0     H58453   0.864   6.799   5.763  1.1040 -0.4894 -1.5123
  443MOL0     H58454   0.730   6.947   5.626  0.2599  0.7869  0.7926
  443MOL0     H58455   0.593   6.836   5.629 -2.5618  2.1431  3.1819
  443MOL0     H58456   0.559   6.847   5.869 -0.2959 -0.1284 -0.2837
  443MOL0     H58457   0.557   7.012   5.792  0.8306  1.5961  0.7553
  443MOL0     H58458   0.714   6.169   5.302 -0.0383 -2.9249 -1.5702
  443MOL0     H58459   0.915   6.118   5.170 -3.1700 -1.5455 -0.1319
  443MOL0     H58460   1.262   5.907   5.055  1.2262  0.7329 -2.7240
  443MOL0     H58461   1.437   5.790   4.953  2.8414  2.0569 -1.1380
  443MOL0     H58462   2.494   5.212   4.478  1.6338 -1.0448  0.2407
  443MOL0     H58463   2.393   5.065   4.296  1.8218 -0.1911  1.8104
  443MOL0     H58464   2.313   4.721   4.035 -1.5895 -0.9978 -0.8338
  443MOL0     H58465   2.221   4.608   3.851 -0.4435  1.1192 -2.3674
  443MOL0     H58466   2.162   4.523   3.647 -0.0629  1.4510  2.5801
  443MOL0     H58467   2.026   4.555   3.550 -0.5289  1.5741  0.3100
  443MOL0     H58468   1.962   4.598   3.835  0.9584 -2.3646  1.1591
  443MOL0     H58469   1.863   4.558   3.692  0.7561  1.2021 -0.5074
  443MOL0     H58470   2.067   4.361   3.827 -2.4516 -2.3522  3.4586
  443MOL0     H58471   1.977   4.328   3.682  2.0831  0.9249 -0.3831
  443MOL0     H58472   1.884   4.251   3.920 -2.6781 -2.3124  0.0644
  443MOL0     H58473   1.837   4.414   3.942 -0.4543  0.8234 -1.1904
  443MOL0     H58474   1.607   4.225   3.617 -0.1806  0.1745  0.3106
  443MOL0     H58475   2.117   4.992   3.673 -2.9470  1.1036  0.8192
  443MOL0     H58476   2.223   5.102   3.861 -0.2390 -0.1179  1.3485
  444MOL0     O58477   3.647   8.952   9.837  0.0720 -0.3848  0.0273
  444MOL0     C58478   3.528   8.934   9.812  0.7757 -0.1784 -0.3311
  444MOL0     O58479   3.464   8.974   9.703  0.4215  0.0573 -0.4722
  444MOL0     C58480   3.526   9.025   9.594 -0.1920  0.6661  0.0906
  444MOL0     C58481   3.537   9.157   9.578 -0.3996  0.3868  0.1225
  444MOL0     C58482   3.608   9.220   9.479  1.1416 -0.1491  0.2116
  444MOL0     C58483   3.662   9.134   9.373  0.3315  0.6427  0.7970
  444MOL0     O58484   3.729   9.192   9.261  0.9236 -0.5533 -0.6685
  444MOL0     C58485   3.656   9.225   9.138  0.5417  1.0251 -0.2636
  444MOL0     C58486   3.750   9.272   9.029  0.2783 -0.5050 -0.6806
  444MOL0     C58487   3.666   9.266   8.903  0.0199 -0.7680  0.1991
  444MOL0     C58488   3.739   9.335   8.779  0.6737 -0.0198 -0.9812
  444MOL0     C58489   3.668   9.314   8.643 -0.0727  0.2814  0.0366
  444MOL0     C58490   3.764   9.357   8.526 -1.2286 -0.1378 -0.5650
  444MOL0     C58491   3.796   9.502   8.538 -0.3541 -0.1446 -0.0135
  444MOL0     C58492   3.853   9.562   8.409 -0.2755 -0.3183 -1.4987
  444MOL0     N58493   3.916   9.685   8.451 -0.6612 -0.3835  0.5185
  444MOL0     C58494   3.853   9.795   8.492 -0.3034 -0.1658 -0.4450
  444MOL0     C58495   3.950   9.882   8.510  0.5152 -0.9232 -0.4495
  444MOL0     C58496   3.926  10.031   8.558  0.3176  0.5106 -1.2456
  444MOL0     C58497   3.935  10.026   8.715 -0.1432  1.1731  0.0796
  444MOL0     C58498   3.812   9.963   8.785 -0.6017 -0.3010 -0.2470
  444MOL0     C58499   3.844   9.972   8.936 -0.2265 -0.9551 -0.7065
  444MOL0     O58500   3.719   9.972   9.009 -0.0605 -0.7590  0.9542
  444MOL0     C58501   3.715  10.041   9.128  0.7569 -1.2221 -0.3004
  444MOL0     C58502   3.641   9.988   9.234 -0.7700  0.0062 -0.3220
  444MOL0     C58503   3.624  10.053   9.357 -0.4060 -0.3360 -0.1439
  444MOL0     C58504   3.682  10.181   9.379  0.5225 -0.1524 -0.3495
  444MOL0     C58505   3.647  10.268   9.495 -0.1161  0.4505  0.1842
  444MOL0     O58506   3.590  10.222   9.610  0.2672 -0.3137  0.4469
  444MOL0     C58507   3.595  10.305   9.722  1.6343  0.4385  0.2749
  444MOL0     C58508   3.708  10.358   9.789  0.1297 -0.1674 -0.0229
  444MOL0     C58509   3.704  10.427   9.907  0.8816 -0.3340 -0.1214
  444MOL0     C58510   3.575  10.459   9.958  0.3466 -0.9670  0.9218
  444MOL0     O58511   3.557  10.529  10.077  0.4148  0.3200  0.3729
  444MOL0     C58512   3.631  10.655  10.094  0.9099 -0.8494 -0.2343
  444MOL0     C58513   3.570  10.740  10.219  0.1895 -0.8934  0.7611
  444MOL0     C58514   3.647  10.872  10.243 -0.8631 -0.2876 -0.1879
  444MOL0     C58515   3.578  10.960  10.343 -0.4151  0.8308  0.3518
  444MOL0     C58516   3.674  11.080  10.367  0.1438 -0.0283  0.1459
  444MOL0     C58517   3.604  11.183  10.451 -0.4691 -0.0938  0.1551
  444MOL0     C58518   3.702  11.295  10.496  0.4025 -0.0439  0.4798
  444MOL0     C58519   3.742  11.387  10.384  0.7584  0.1448 -0.0353
  444MOL0    Cl58520   3.892  11.476  10.424  0.1673 -0.4271 -0.0752
  444MOL0     C58521   3.456  10.413   9.888  0.6646 -0.8434 -0.5411
  444MOL0     C58522   3.467  10.331   9.779 -0.2195 -1.1270  0.3733
  444MOL0     O58523   3.693  10.381   9.478 -0.0888 -1.0154 -0.5221
  444MOL0     C58524   3.754  10.232   9.269  0.1761 -1.1860 -0.1163
  444MOL0     C58525   3.773  10.166   9.151  0.2446 -0.1060 -0.1981
  444MOL0     N58526   4.074   9.824   8.483  0.5392 -0.1819  0.6579
  444MOL0     N58527   4.052   9.713   8.432  0.9179 -0.5834 -0.6158
  444MOL0     C58528   3.635   8.996   9.384  0.2018  0.4601 -0.1753
  444MOL0     C58529   3.572   8.943   9.493 -0.3452  0.0645 -0.2198
  444MOL0     C58530   3.430   8.884   9.915 -0.1063  1.1552 -0.0190
  444MOL0     C58531   3.297   8.863   9.895  0.8342 -0.0286  0.3520
  444MOL0     C58532   3.208   8.817   9.987  0.4168  1.3699 -0.6625
  444MOL0     C58533   3.250   8.800  10.111  0.4414  0.1629 -0.1923
  444MOL0     O58534   3.154   8.762  10.199  0.2342  0.2055  0.0075
  444MOL0     C58535   3.186   8.715  10.324  0.3969 -0.1727  0.2715
  444MOL0     C58536   3.056   8.737  10.404 -0.4666 -0.6632 -0.2070
  444MOL0     C58537   3.024   8.885  10.435  0.5731 -0.1914  0.0819
  444MOL0     C58538   2.881   8.889  10.499  1.0672 -0.7467 -0.1190
  444MOL0     C58539   2.865   9.035  10.544 -0.5976  1.2940 -0.1134
  444MOL0     C58540   2.869   9.156  10.582  0.6724 -0.2353  0.4529
  444MOL0     C58541   3.386   8.807  10.144 -0.0208  0.1202  0.4811
  444MOL0     C58542   3.472   8.845  10.044 -0.8521 -0.2451 -0.4300
  444MOL0     H58543   3.500   9.217   9.661 -0.4186  0.7873 -0.1771
  444MOL0     H58544   3.633   9.326   9.475  0.4033  0.0914  1.4024
  444MOL0     H58545   3.583   9.305   9.150  2.6366  3.1216 -0.5950
  444MOL0     H58546   3.607   9.129   9.122 -1.8058  1.8753  1.3105
  444MOL0     H58547   3.837   9.205   9.024  1.4056  0.7147  1.2752
  444MOL0     H58548   3.778   9.377   9.039 -0.0127 -0.3892 -1.0636
  444MOL0     H58549   3.567   9.307   8.923 -0.4432  1.0759 -4.4880
  444MOL0     H58550   3.641   9.166   8.868 -0.5186 -0.1328 -1.3435
  444MOL0     H58551   3.768   9.435   8.812  1.9967 -0.6538 -0.1547
  444MOL0     H58552   3.840   9.295   8.773  0.2778 -1.1431 -0.5294
  444MOL0     H58553   3.575   9.372   8.648 -0.4295 -0.3358  0.5807
  444MOL0     H58554   3.631   9.212   8.636  1.1436 -0.0703 -2.4804
  444MOL0     H58555   3.733   9.328   8.425 -2.9818 -2.0535  0.4340
  444MOL0     H58556   3.860   9.306   8.534  0.3430  2.6246 -0.7973
  444MOL0     H58557   3.706   9.559   8.563  0.1112  0.2001  0.9352
  444MOL0     H58558   3.868   9.532   8.615  0.4421  3.1604 -1.8107
  444MOL0     H58559   3.775   9.580   8.334 -1.3250  1.1152 -0.1119
  444MOL0     H58560   3.928   9.494   8.368  0.6518  0.3647 -0.9531
  444MOL0     H58561   3.751   9.808   8.527 -0.8134  1.8669 -2.4365
  444MOL0     H58562   3.835  10.084   8.528 -0.9559  1.8287  3.9909
  444MOL0     H58563   4.004  10.082   8.501  0.3109 -0.4175 -2.1179
  444MOL0     H58564   3.937  10.131   8.746  2.1577  2.0004 -2.4734
  444MOL0     H58565   4.028   9.980   8.748  0.8145  3.1920  0.3084
  444MOL0     H58566   3.728  10.030   8.765  0.5222  0.6927 -1.9699
  444MOL0     H58567   3.788   9.861   8.753 -2.5300  0.3568 -1.0131
  444MOL0     H58568   3.910  10.058   8.949  0.0617 -0.5996 -3.8347
  444MOL0     H58569   3.895   9.880   8.965  0.0354 -0.2518  1.2555
  444MOL0     H58570   3.595   9.894   9.207 -0.7601  0.2014 -1.0354
  444MOL0     H58571   3.564  10.003   9.432  3.7830 -0.9934  3.1955
  444MOL0     H58572   3.801  10.347   9.736  0.3211  0.7520  0.0962
  444MOL0     H58573   3.800  10.443   9.956  3.5505 -3.7222 -3.6918
  444MOL0     H58574   3.614  10.727  10.014 -0.3760 -1.7593 -0.8146
  444MOL0     H58575   3.739  10.637  10.093  1.1599  0.5338 -1.4789
  444MOL0     H58576   3.580  10.675  10.306  0.0285  0.8241  2.1268
  444MOL0     H58577   3.463  10.758  10.206  0.2207  0.4625  2.1662
  444MOL0     H58578   3.649  10.921  10.145 -3.4480  1.5660  0.5890
  444MOL0     H58579   3.744  10.840  10.282 -0.9337  0.8667  1.0133
  444MOL0     H58580   3.475  10.985  10.316  1.0258  5.1198 -2.1646
  444MOL0     H58581   3.557  10.911  10.438  3.3154 -1.6031  0.0996
  444MOL0     H58582   3.692  11.119  10.267 -3.4974 -0.4522 -0.8407
  444MOL0     H58583   3.757  11.025  10.412 -0.0695 -1.3532 -1.0079
  444MOL0     H58584   3.578  11.134  10.545 -1.7348 -1.1935 -0.7416
  444MOL0     H58585   3.512  11.214  10.401  0.1952 -1.7066 -2.2188
  444MOL0     H58586   3.641  11.347  10.570 -1.4171 -1.2842 -0.0684
  444MOL0     H58587   3.781  11.249  10.556 -0.0431 -3.8637 -1.5410
  444MOL0     H58588   3.668  11.464  10.363  0.9105  0.1923 -0.4019
  444MOL0     H58589   3.751  11.335  10.288 -1.8590 -4.1466  1.7409
  444MOL0     H58590   3.355  10.436   9.920  0.4851 -1.0775 -0.9366
  444MOL0     H58591   3.374  10.289   9.742 -0.7866 -0.6728  1.2632
  444MOL0     H58592   3.813  10.323   9.273  0.4208 -1.1344 -2.7454
  444MOL0     H58593   3.837  10.212   9.076 -1.3170  0.3027 -1.3469
  444MOL0     H58594   3.661   8.929   9.302  0.9202 -0.4975  0.7999
  444MOL0     H58595   3.570   8.834   9.493  0.6727  0.0008  1.8024
  444MOL0     H58596   3.256   8.876   9.795 -1.2044 -1.2927  0.9576
  444MOL0     H58597   3.110   8.794   9.948 -0.5861  1.0558  1.8686
  444MOL0     H58598   3.267   8.759  10.382  1.7497  0.3657 -1.8836
  444MOL0     H58599   3.203   8.607  10.327  0.9554 -0.0853  2.9523
  444MOL0     H58600   2.977   8.685  10.350  1.4088 -0.5725 -3.3047
  444MOL0     H58601   3.065   8.696  10.505  0.1546  1.1944  0.5360
  444MOL0     H58602   3.016   8.944  10.343  2.3407  1.1175  0.7018
  444MOL0     H58603   3.102   8.923  10.502  2.4898 -2.3351 -0.8016
  444MOL0     H58604   2.804   8.883  10.421 -1.0036  2.0600  1.5257
  444MOL0     H58605   2.885   8.819  10.583  0.8596 -0.7495 -0.1117
  444MOL0     H58606   2.863   9.258  10.613 -1.8684  0.0935 -0.8758
  444MOL0     H58607   3.426   8.776  10.240  2.9035  0.6241 -0.4754
  444MOL0     H58608   3.579   8.836  10.058 -0.7412 -0.6162 -1.4515
  445MOL0     O58609  11.279   7.270   6.774 -0.0784  0.1981  0.5431
  445MOL0     C58610  11.229   7.272   6.887 -0.5521  0.2733 -0.0272
  445MOL0     O58611  11.262   7.364   6.984 -0.3771 -0.4206 -0.8600
  445MOL0     C58612  11.329   7.483   6.947 -0.0815 -0.1127  0.1736
  445MOL0     C58613  11.361   7.531   6.822 -0.1760 -0.2766 -0.3980
  445MOL0     C58614  11.439   7.646   6.801 -0.3043 -0.0975  0.0358
  445MOL0     C58615  11.491   7.713   6.909 -0.1873  0.4562 -0.0208
  445MOL0     O58616  11.575   7.826   6.893 -0.0272 -0.0436 -0.0377
  445MOL0     C58617  11.680   7.836   6.985 -0.7379 -0.7348  0.6591
  445MOL0     C58618  11.786   7.930   6.936 -0.0156  0.2724  0.6171
  445MOL0     C58619  11.761   8.078   6.967 -0.4129 -0.1419  0.4078
  445MOL0     C58620  11.887   8.166   6.943  0.6492  0.6075 -0.8095
  445MOL0     C58621  11.846   8.319   6.961  0.7913 -0.2120 -0.5876
  445MOL0     C58622  11.966   8.414   6.966  0.1963  0.2814 -0.5355
  445MOL0     C58623  11.916   8.552   7.009  0.2454 -0.1208 -0.0395
  445MOL0     C58624  11.959   8.583   7.156 -0.4867  0.3305  0.2538
  445MOL0     N58625  11.878   8.525   7.263  0.1728  0.7082  0.5275
  445MOL0     C58626  11.792   8.593   7.340 -0.5645 -0.3313  0.3143
  445MOL0     C58627  11.746   8.503   7.430 -0.1740  0.3052  0.0395
  445MOL0     C58628  11.665   8.545   7.543 -0.6347  0.3434 -0.5675
  445MOL0     C58629  11.760   8.611   7.641 -0.7460  0.0477 -0.6651
  445MOL0     C58630  11.694   8.661   7.771  0.2246  0.0743  0.7573
  445MOL0     C58631  11.797   8.703   7.878  0.2759 -1.0504  0.6668
  445MOL0     O58632  11.844   8.829   7.826 -0.5704 -0.4500  0.2548
  445MOL0     C58633  11.956   8.881   7.884  1.0979 -0.6856  0.2936
  445MOL0     C58634  12.019   8.975   7.819  0.2627  0.1828 -0.2039
  445MOL0     C58635  12.135   9.035   7.859  1.0231 -0.4483 -0.1001
  445MOL0     C58636  12.179   9.012   7.988 -0.7414 -0.2484  0.4169
  445MOL0     C58637  12.285   9.093   8.051 -1.0839 -0.2940  1.0450
  445MOL0     O58638  12.319   9.057   8.181 -0.2246 -1.0156 -0.3979
  445MOL0     C58639  12.419   9.131   8.245 -0.1457  0.4029 -0.8850
  445MOL0     C58640  12.553   9.156   8.203 -0.2457  0.6625 -0.1288
  445MOL0     C58641  12.647   9.225   8.280 -0.4319  1.0080  0.0869
  445MOL0     C58642  12.611   9.277   8.409 -0.7409  0.9316  0.5707
  445MOL0     O58643  12.701   9.352   8.480 -0.1675 -0.1508 -0.3171
  445MOL0     C58644  12.699   9.325   8.621  0.0661 -0.6947 -0.0835
  445MOL0     C58645  12.667   9.462   8.696 -0.4859 -0.2497 -0.1611
  445MOL0     C58646  12.755   9.586   8.655 -1.4860  0.5760  0.1212
  445MOL0     C58647  12.728   9.711   8.754  0.6267 -0.4181  0.6767
  445MOL0     C58648  12.785   9.706   8.891 -0.0188 -0.1241 -0.0708
  445MOL0     C58649  12.937   9.676   8.904 -0.1261 -0.3138  0.4131
  445MOL0     C58650  13.026   9.793   8.852  1.2046  0.8043 -0.3383
  445MOL0     C58651  13.170   9.746   8.839  0.3567  0.9067  0.0303
  445MOL0    Cl58652  13.261   9.898   8.789 -0.1058  0.2745 -0.1726
  445MOL0     C58653  12.475   9.253   8.446 -0.7134 -0.4781  0.1232
  445MOL0     C58654  12.385   9.181   8.371 -0.8208 -0.7756  0.0202
  445MOL0     O58655  12.344   9.181   7.985 -0.1097  0.6590  0.6839
  445MOL0     C58656  12.114   8.912   8.065 -0.6579 -0.2424 -0.7676
  445MOL0     C58657  12.005   8.851   8.009 -0.2366  0.1366  0.1232
  445MOL0     N58658  11.809   8.384   7.404  0.4761 -0.4409  0.2652
  445MOL0     N58659  11.881   8.395   7.296 -0.1042 -0.5993  0.0625
  445MOL0     C58660  11.462   7.667   7.038  1.0277 -0.4637 -0.8198
  445MOL0     C58661  11.388   7.552   7.061  0.3215  0.5504 -0.2239
  445MOL0     C58662  11.136   7.168   6.922 -0.1544  0.7536  0.7179
  445MOL0     C58663  11.039   7.190   7.020 -0.7402  1.3179  1.1571
  445MOL0     C58664  10.946   7.088   7.045  0.5091  0.2623 -0.3764
  445MOL0     C58665  10.946   6.961   6.976 -0.7999 -0.0805  0.4447
  445MOL0     O58666  10.831   6.883   6.983 -0.2877 -0.0794 -1.0383
  445MOL0     C58667  10.827   6.771   6.887  0.7087  1.4644 -0.1434
  445MOL0     C58668  10.691   6.699   6.900 -0.1255 -0.6474 -0.5062
  445MOL0     C58669  10.567   6.780   6.871  1.2526 -0.7928  0.1468
  445MOL0     C58670  10.535   6.804   6.726  0.9029 -0.1146  0.0526
  445MOL0     C58671  10.473   6.700   6.648 -0.1820  0.3980  0.0122
  445MOL0     C58672  10.382   6.566   6.540  0.3101 -0.3332 -0.2469
  445MOL0     C58673  11.061   6.930   6.892 -0.1105  0.1904  0.5019
  445MOL0     C58674  11.148   7.042   6.868  0.0442 -0.4064  0.0998
  445MOL0     H58675  11.314   7.497   6.730 -0.7605  2.5614 -1.2530
  445MOL0     H58676  11.438   7.695   6.704  0.1743 -0.4839 -0.1710
  445MOL0     H58677  11.717   7.734   6.999  0.7968 -0.0158  2.1486
  445MOL0     H58678  11.650   7.869   7.085  1.3808 -1.5164  1.6073
  445MOL0     H58679  11.819   7.918   6.832 -1.1448  2.3667 -0.0357
  445MOL0     H58680  11.882   7.911   6.986  1.2378  2.0451 -0.9525
  445MOL0     H58681  11.733   8.095   7.071 -0.3188 -0.7472  0.5367
  445MOL0     H58682  11.681   8.101   6.895  0.7490 -1.5838 -1.4299
  445MOL0     H58683  11.967   8.139   7.013  1.7493  0.0900 -2.2326
  445MOL0     H58684  11.925   8.149   6.843  3.1810  1.3165 -0.0371
  445MOL0     H58685  11.782   8.323   7.050 -0.8398 -1.6298 -1.6476
  445MOL0     H58686  11.785   8.340   6.873 -0.5965 -0.8916  0.1822
  445MOL0     H58687  12.018   8.424   6.870  1.6302 -1.4495  0.0110
  445MOL0     H58688  12.039   8.368   7.033  1.5161 -0.0925 -2.1666
  445MOL0     H58689  11.957   8.627   6.940 -1.0011  2.5611  1.9308
  445MOL0     H58690  11.808   8.566   7.012  0.2330 -0.3851  2.7602
  445MOL0     H58691  11.960   8.692   7.160  1.2246  0.3587 -0.1884
  445MOL0     H58692  12.063   8.563   7.186 -0.3288 -1.4262 -1.2783
  445MOL0     H58693  11.776   8.701   7.345  1.2463 -0.0880  2.4885
  445MOL0     H58694  11.611   8.458   7.580  2.1074 -4.2254 -5.8394
  445MOL0     H58695  11.589   8.618   7.512 -1.9219 -0.8232 -0.2744
  445MOL0     H58696  11.812   8.699   7.602 -1.0422  0.3156 -0.4645
  445MOL0     H58697  11.835   8.538   7.670 -0.4633  0.9521  1.0166
  445MOL0     H58698  11.632   8.747   7.741 -0.9775 -0.3980  1.7823
  445MOL0     H58699  11.628   8.577   7.797  0.3183 -1.2701 -2.8475
  445MOL0     H58700  11.869   8.624   7.901  1.7163  0.0157 -0.0329
  445MOL0     H58701  11.750   8.728   7.974  0.0238  1.6497 -0.0880
  445MOL0     H58702  11.990   8.995   7.716  0.8294 -1.1439 -0.6555
  445MOL0     H58703  12.174   9.105   7.786 -2.3479  0.8268 -0.8333
  445MOL0     H58704  12.592   9.128   8.106  3.0309  0.3638  1.1533
  445MOL0     H58705  12.747   9.236   8.240  0.6337  1.6910  2.7115
  445MOL0     H58706  12.798   9.282   8.640  0.5269 -0.8516 -2.5287
  445MOL0     H58707  12.625   9.249   8.647 -0.2160 -0.1427  0.7853
  445MOL0     H58708  12.687   9.439   8.801 -0.5543 -1.0277 -0.3130
  445MOL0     H58709  12.560   9.474   8.678 -0.1881  1.8206 -0.8569
  445MOL0     H58710  12.758   9.605   8.547  0.2879  2.1225  0.3804
  445MOL0     H58711  12.859   9.557   8.673 -0.0108  3.0304 -3.3641
  445MOL0     H58712  12.756   9.808   8.712  0.6601 -0.3067  0.9496
  445MOL0     H58713  12.619   9.714   8.760  0.6451  1.6480  0.9546
  445MOL0     H58714  12.725   9.632   8.945 -1.3230  0.4440 -0.6961
  445MOL0     H58715  12.765   9.802   8.939  0.6429  0.3722 -0.7754
  445MOL0     H58716  12.958   9.584   8.849  3.2400  0.6792 -0.2106
  445MOL0     H58717  12.954   9.664   9.011  1.3621  1.4858  0.4328
  445MOL0     H58718  12.994   9.833   8.755  1.7282  1.1080 -0.3891
  445MOL0     H58719  13.017   9.873   8.927  1.5951  2.7790 -2.2756
  445MOL0     H58720  13.173   9.668   8.763 -0.5400 -0.0667  0.9698
  445MOL0     H58721  13.206   9.711   8.936 -0.0529  0.6744  0.0982
  445MOL0     H58722  12.443   9.280   8.546 -2.5763  1.8933 -0.9926
  445MOL0     H58723  12.286   9.173   8.416 -0.4718 -2.3937  0.5548
  445MOL0     H58724  12.162   8.882   8.158 -0.3717 -5.5349 -2.2750
  445MOL0     H58725  11.965   8.763   8.057  2.1930 -2.7251 -2.6511
  445MOL0     H58726  11.483   7.727   7.126 -0.3480  0.5885 -1.1784
  445MOL0     H58727  11.361   7.545   7.165  1.7957 -1.7445  0.0813
  445MOL0     H58728  11.025   7.287   7.067  0.0138  1.6402  0.7332
  445MOL0     H58729  10.870   7.102   7.121 -0.6378  0.2847 -1.5058
  445MOL0     H58730  10.908   6.700   6.909  1.6939  1.6158 -2.8404
  445MOL0     H58731  10.835   6.798   6.781 -2.2246 -1.2059 -1.1740
  445MOL0     H58732  10.697   6.607   6.840  1.0038 -2.1998  1.7934
  445MOL0     H58733  10.681   6.671   7.005 -0.3626 -3.0879 -1.1139
  445MOL0     H58734  10.586   6.872   6.926  2.6540 -0.4829 -0.8157
  445MOL0     H58735  10.476   6.739   6.917  2.0690 -3.3357 -0.3429
  445MOL0     H58736  10.459   6.882   6.722 -1.1466 -2.0579 -0.7979
  445MOL0     H58737  10.618   6.847   6.669  1.9315 -0.9913  0.8378
  445MOL0     H58738  10.331   6.499   6.475  0.0604  1.8053 -2.3838
  445MOL0     H58739  11.068   6.841   6.830 -5.1656 -1.0251  1.2610
  445MOL0     H58740  11.224   7.022   6.793  0.3646  0.0268  0.3051
  446MOL0     O58741   0.901  10.513   8.442 -0.5913 -0.0819  0.4706
  446MOL0     C58742   0.985  10.598   8.434 -0.4585 -0.2505 -0.3047
  446MOL0     O58743   0.985  10.703   8.333 -0.0739 -0.2815 -1.0092
  446MOL0     C58744   0.863  10.709   8.279  0.3064 -0.7199 -0.1438
  446MOL0     C58745   0.826  10.620   8.172  1.2463  0.3569  0.2109
  446MOL0     C58746   0.693  10.617   8.137 -0.2324  0.4414 -1.3997
  446MOL0     C58747   0.595  10.707   8.186 -0.1039 -0.7378  0.8733
  446MOL0     O58748   0.455  10.699   8.164 -0.6094  0.6538 -0.5656
  446MOL0     C58749   0.392  10.583   8.209 -0.1472 -0.1915 -0.7622
  446MOL0     C58750   0.240  10.608   8.178 -0.3072  0.5375 -0.4339
  446MOL0     C58751   0.186  10.714   8.276 -0.6197  0.7552 -0.3322
  446MOL0     C58752   0.041  10.739   8.246  0.6405  0.7015  0.1500
  446MOL0     C58753   0.005  10.873   8.301  1.5675  1.1963  0.2712
  446MOL0     C58754  -0.154  10.890   8.289  0.5546  0.2189  0.4509
  446MOL0     C58755  -0.198  11.026   8.346  0.8904 -0.2481  0.2262
  446MOL0     C58756  -0.348  11.033   8.344  0.8655  0.3226 -0.2725
  446MOL0     N58757  -0.397  11.146   8.424 -0.5810  0.3022 -0.5929
  446MOL0     C58758  -0.341  11.271   8.413  0.4628  0.6206 -0.4912
  446MOL0     C58759  -0.411  11.349   8.496  0.7205 -0.0556  0.2380
  446MOL0     C58760  -0.381  11.491   8.514 -0.0805  0.1942 -0.0232
  446MOL0     C58761  -0.282  11.509   8.625  0.6213  0.0660  0.6479
  446MOL0     C58762  -0.135  11.550   8.590  0.2113 -0.7352  0.3327
  446MOL0     C58763  -0.042  11.553   8.726 -0.4794  0.4571 -0.8888
  446MOL0     O58764  -0.023  11.429   8.797  0.5169  1.1261  0.4651
  446MOL0     C58765   0.030  11.310   8.752 -0.3621 -0.0604  0.4708
  446MOL0     C58766   0.030  11.199   8.834 -1.1386  0.7270  0.2734
  446MOL0     C58767   0.091  11.081   8.788  0.4193 -0.0363 -0.6505
  446MOL0     C58768   0.183  11.089   8.685 -0.7745 -1.0183  0.1461
  446MOL0     C58769   0.268  10.985   8.640  0.2284  0.5577  0.5192
  446MOL0     O58770   0.316  10.908   8.739  0.3263 -0.0474 -0.1698
  446MOL0     C58771   0.379  10.789   8.710  0.8142  0.6077 -1.4896
  446MOL0     C58772   0.307  10.676   8.755 -0.3452 -0.1330 -0.4788
  446MOL0     C58773   0.361  10.546   8.730 -0.6681  0.4032 -1.3090
  446MOL0     C58774   0.477  10.532   8.652  0.1764 -1.2712  0.0441
  446MOL0     O58775   0.519  10.407   8.648  0.0827  0.1179  0.1607
  446MOL0     C58776   0.606  10.359   8.547 -0.2148 -0.4437 -0.5115
  446MOL0     C58777   0.583  10.210   8.507  0.5046  0.3104 -0.2529
  446MOL0     C58778   0.444  10.178   8.457 -0.5626  0.2264 -0.2220
  446MOL0     C58779   0.433  10.030   8.406  0.8755 -0.4539  0.1338
  446MOL0     C58780   0.298  10.004   8.324  0.4097  0.6147  0.6564
  446MOL0     C58781   0.291   9.846   8.288  0.3882 -1.0182 -0.0008
  446MOL0     C58782   0.187   9.800   8.189  0.4797  0.0669 -0.8587
  446MOL0     C58783   0.220   9.859   8.052  0.1442 -0.8424 -0.1255
  446MOL0    Cl58784   0.371   9.799   7.990  0.0604  0.0284 -0.3967
  446MOL0     C58785   0.537  10.650   8.593 -0.2003 -1.3335 -0.4407
  446MOL0     C58786   0.484  10.777   8.628 -0.1911  0.0304 -0.0763
  446MOL0     O58787   0.304  10.970   8.523 -0.1197  0.3045  0.0897
  446MOL0     C58788   0.177  11.210   8.604 -0.0971  1.1153 -0.1698
  446MOL0     C58789   0.110  11.324   8.646  0.0198  0.6428 -0.4694
  446MOL0     N58790  -0.517  11.272   8.557  0.3961 -0.7534 -0.3430
  446MOL0     N58791  -0.501  11.154   8.510  0.9194  0.9626  0.4323
  446MOL0     C58792   0.645  10.805   8.276  0.1287 -0.2419  1.4845
  446MOL0     C58793   0.777  10.802   8.328 -0.2068  0.2300 -0.0864
  446MOL0     C58794   1.095  10.605   8.542  0.6117  0.0048 -0.5617
  446MOL0     C58795   1.097  10.508   8.651  0.7682 -0.8169  0.9664
  446MOL0     C58796   1.197  10.528   8.745 -0.4161  0.4021  0.6156
  446MOL0     C58797   1.294  10.626   8.730  0.2273  0.1035 -0.6790
  446MOL0     O58798   1.385  10.644   8.826 -0.2465  0.1157  0.0855
  446MOL0     C58799   1.331  10.675   8.955  0.4037  0.4864  0.2724
  446MOL0     C58800   1.246  10.804   8.959 -0.4906 -0.8088  0.6797
  446MOL0     C58801   1.162  10.842   9.085 -0.8753  0.1325  0.1589
  446MOL0     C58802   1.173  10.993   9.131 -0.4567  0.6614  0.1198
  446MOL0     C58803   1.304  11.030   9.182 -0.2156  0.5230 -0.4189
  446MOL0     C58804   1.416  11.057   9.227  0.2151 -0.1293 -0.2689
  446MOL0     C58805   1.299  10.717   8.622 -0.0939 -0.1809  0.7967
  446MOL0     C58806   1.196  10.702   8.527  0.7116  0.2845 -0.5810
  446MOL0     H58807   0.893  10.538   8.149  0.9685  0.0643  0.4330
  446MOL0     H58808   0.654  10.544   8.067 -0.8986 -1.8159  1.1542
  446MOL0     H58809   0.408  10.553   8.313 -2.2055 -3.7371 -1.2896
  446MOL0     H58810   0.432  10.492   8.161  2.7924 -0.5362  2.0216
  446MOL0     H58811   0.194  10.511   8.194  1.5610 -0.5960 -1.5583
  446MOL0     H58812   0.231  10.639   8.074  2.9624 -0.7553 -1.2362
  446MOL0     H58813   0.248  10.804   8.275  0.2739  0.1671 -2.1276
  446MOL0     H58814   0.202  10.672   8.376  3.0580  3.4348  0.4119
  446MOL0     H58815   0.033  10.746   8.137  0.2273 -2.1430 -0.0944
  446MOL0     H58816  -0.030  10.662   8.278  0.4664  0.5309 -0.6388
  446MOL0     H58817   0.056  10.948   8.240  2.0920  0.4736 -0.1920
  446MOL0     H58818   0.022  10.880   8.409 -2.8573 -0.7124  1.2879
  446MOL0     H58819  -0.200  10.813   8.351  2.7441 -1.0669  0.5492
  446MOL0     H58820  -0.173  10.880   8.182  3.4634 -0.3069 -0.0900
  446MOL0     H58821  -0.177  11.024   8.453  1.8073 -2.5981  0.0795
  446MOL0     H58822  -0.145  11.107   8.297 -1.3506  0.6642 -0.8051
  446MOL0     H58823  -0.394  10.939   8.375  3.3012 -1.0295 -0.4621
  446MOL0     H58824  -0.376  11.055   8.240  2.1354 -0.3906 -0.7910
  446MOL0     H58825  -0.264  11.308   8.345  0.0177  1.6196 -0.4567
  446MOL0     H58826  -0.476  11.544   8.529  0.2838  1.0768 -0.7389
  446MOL0     H58827  -0.339  11.525   8.419  1.8242  0.1775  0.7798
  446MOL0     H58828  -0.273  11.416   8.682 -0.5589  0.6518  1.8307
  446MOL0     H58829  -0.314  11.575   8.706  0.0622  1.9966 -1.0619
  446MOL0     H58830  -0.085  11.475   8.527 -0.8627 -2.1739  1.1278
  446MOL0     H58831  -0.147  11.651   8.551  0.9995 -0.7084  0.1345
  446MOL0     H58832  -0.097  11.624   8.787 -2.4958 -2.4159  0.8926
  446MOL0     H58833   0.052  11.600   8.695 -1.0963  1.9621 -0.5517
  446MOL0     H58834  -0.007  11.196   8.936 -0.4156 -1.0897  0.5190
  446MOL0     H58835   0.084  10.996   8.855  1.9012  1.1295  1.0860
  446MOL0     H58836   0.209  10.683   8.802  0.2088 -4.5308  1.8863
  446MOL0     H58837   0.324  10.455   8.776  0.8287  0.0674 -0.6993
  446MOL0     H58838   0.710  10.387   8.560 -0.8283  1.1628  1.2511
  446MOL0     H58839   0.582  10.416   8.457 -0.7991 -2.2183 -1.5509
  446MOL0     H58840   0.595  10.138   8.589  1.8243 -1.4634 -1.8956
  446MOL0     H58841   0.662  10.168   8.443 -1.5765 -3.7783 -0.5339
  446MOL0     H58842   0.420  10.236   8.367  0.9557  0.2234 -0.6496
  446MOL0     H58843   0.382  10.202   8.544  1.1268  1.1699  0.7864
  446MOL0     H58844   0.516  10.005   8.339 -1.5335  0.9284 -3.6500
  446MOL0     H58845   0.443   9.960   8.489  2.5959  0.9484  1.1970
  446MOL0     H58846   0.305  10.069   8.236  0.2020  2.6998  2.1174
  446MOL0     H58847   0.217  10.041   8.387  0.7180  2.1327  0.2156
  446MOL0     H58848   0.277   9.795   8.383  0.4175  4.7307  3.5653
  446MOL0     H58849   0.390   9.813   8.254 -0.3040 -0.6638 -2.6207
  446MOL0     H58850   0.201   9.691   8.185 -0.1654 -0.0585  0.0498
  446MOL0     H58851   0.089   9.842   8.214  1.7999  4.1419 -1.7436
  446MOL0     H58852   0.243   9.965   8.062  1.0054 -1.0939  0.7128
  446MOL0     H58853   0.135   9.833   7.987 -0.0419  0.4285 -0.4271
  446MOL0     H58854   0.610  10.649   8.514 -1.7381  1.3169 -2.0094
  446MOL0     H58855   0.525  10.866   8.582  1.6035 -0.8967 -0.3976
  446MOL0     H58856   0.247  11.223   8.522  0.2117  2.7536  0.3090
  446MOL0     H58857   0.114  11.414   8.586  1.9390 -0.0988 -1.5918
  446MOL0     H58858   0.585  10.879   8.329 -1.3232  0.2698 -0.7414
  446MOL0     H58859   0.810  10.879   8.397 -1.4092  3.6108 -2.9964
  446MOL0     H58860   1.029  10.423   8.649  1.9726 -1.8540  2.1344
  446MOL0     H58861   1.220  10.458   8.824  2.9289  1.5511  0.8117
  446MOL0     H58862   1.398  10.665   9.041  0.3671 -3.3091  0.0295
  446MOL0     H58863   1.253  10.603   8.981 -0.0668  1.0261  0.3947
  446MOL0     H58864   1.320  10.883   8.942  2.7762 -3.6177  0.8512
  446MOL0     H58865   1.173  10.805   8.878 -0.4539 -0.1324  0.6516
  446MOL0     H58866   1.207  10.778   9.161  3.3915  1.6225 -0.8254
  446MOL0     H58867   1.055  10.825   9.071 -1.0394  0.7903  0.5888
  446MOL0     H58868   1.150  11.058   9.046  4.4004  2.2410 -0.3052
  446MOL0     H58869   1.105  11.017   9.214 -3.3681 -1.0766 -1.6094
  446MOL0     H58870   1.505  11.073   9.283  0.4190 -0.5754 -0.4606
  446MOL0     H58871   1.382  10.787   8.625  0.5368 -0.9660  3.0881
  446MOL0     H58872   1.181  10.762   8.438  0.1353  2.3725  0.8601
  447MOL0     O58873   6.047  10.131   6.531 -0.2411 -0.0582 -0.2264
  447MOL0     C58874   5.998  10.226   6.593  1.5720 -0.0202 -0.2027
  447MOL0     O58875   6.022  10.356   6.574 -0.3263  1.0002  1.1558
  447MOL0     C58876   6.101  10.382   6.463 -0.4480  0.4572 -1.6268
  447MOL0     C58877   6.229  10.341   6.435 -0.4007 -0.0302  0.6639
  447MOL0     C58878   6.288  10.379   6.310  0.1492 -0.2143 -0.1834
  447MOL0     C58879   6.224  10.459   6.214  0.1265  0.5128 -0.5452
  447MOL0     O58880   6.290  10.510   6.107 -0.0121 -0.7068  0.3800
  447MOL0     C58881   6.230  10.493   5.983  0.1792 -0.4839  0.3123
  447MOL0     C58882   6.308  10.582   5.896  0.6257 -0.2177  0.8344
  447MOL0     C58883   6.267  10.724   5.914  1.2315  0.2197  0.1183
  447MOL0     C58884   6.381  10.814   5.871  0.0864  0.8561 -0.3936
  447MOL0     C58885   6.499  10.843   5.965 -0.4397  0.3816 -0.9975
  447MOL0     C58886   6.589  10.947   5.898  0.0799 -0.2370  0.1433
  447MOL0     C58887   6.716  10.955   5.983  0.4714 -0.5546 -1.1498
  447MOL0     C58888   6.819  11.044   5.919  0.0888  0.0703 -0.9204
  447MOL0     N58889   6.950  10.997   5.949  0.7203  0.1401 -0.1486
  447MOL0     C58890   7.054  10.996   5.862  0.4888 -0.7069  0.6515
  447MOL0     C58891   7.159  10.938   5.930  0.9219  0.1305 -0.1553
  447MOL0     C58892   7.284  10.912   5.856  1.1846 -0.1478 -0.1232
  447MOL0     C58893   7.270  10.808   5.745 -0.1546  0.2684 -0.1042
  447MOL0     C58894   7.283  10.665   5.797  0.1922 -0.1403  0.0910
  447MOL0     C58895   7.264  10.564   5.682  0.4237  0.6769  0.2539
  447MOL0     O58896   7.294  10.429   5.736 -0.7457  0.4295  0.0148
  447MOL0     C58897   7.306  10.321   5.645 -0.0252  0.6192  0.1291
  447MOL0     C58898   7.390  10.215   5.681 -0.3590  0.7686  0.1464
  447MOL0     C58899   7.418  10.100   5.598 -0.1167 -0.7594 -0.7432
  447MOL0     C58900   7.356  10.099   5.464 -0.2176  0.0302 -0.0339
  447MOL0     C58901   7.390   9.989   5.361 -0.1894 -0.4138 -0.1470
  447MOL0     O58902   7.468   9.887   5.412 -0.1319  0.7614 -0.3656
  447MOL0     C58903   7.572   9.847   5.333  0.4383 -0.6657 -0.8736
  447MOL0     C58904   7.582   9.719   5.276 -0.0465 -0.1462 -0.5700
  447MOL0     C58905   7.708   9.681   5.211  0.9607 -0.2691  1.4879
  447MOL0     C58906   7.811   9.771   5.193 -0.4967  0.6980 -0.4915
  447MOL0     O58907   7.916   9.747   5.118 -0.3608  0.4242 -0.1669
  447MOL0     C58908   8.012   9.646   5.146  0.0489 -0.4171  0.2595
  447MOL0     C58909   8.102   9.629   5.022  0.4286 -0.4023 -0.5677
  447MOL0     C58910   8.025   9.541   4.934  0.0266 -0.3480  0.4621
  447MOL0     C58911   7.985   9.397   4.984  0.1704  0.0190 -0.1143
  447MOL0     C58912   7.949   9.291   4.868  0.4637 -0.9944 -0.5841
  447MOL0     C58913   7.836   9.341   4.774 -0.7420 -0.6183 -0.6765
  447MOL0     C58914   7.703   9.384   4.856 -0.6818 -0.6585 -0.5913
  447MOL0     C58915   7.621   9.496   4.786 -0.6610 -0.3717 -0.0791
  447MOL0    Cl58916   7.483   9.543   4.885 -0.3160 -0.4623 -0.5183
  447MOL0     C58917   7.789   9.903   5.240 -0.3986 -0.0221  0.0504
  447MOL0     C58918   7.677   9.939   5.310  1.1629  0.5443  0.1658
  447MOL0     O58919   7.347   9.994   5.244 -0.2402  0.6691 -0.1260
  447MOL0     C58920   7.265  10.207   5.433 -0.0393 -0.6596 -0.0338
  447MOL0     C58921   7.237  10.317   5.523  0.1083  0.4127  0.2672
  447MOL0     N58922   7.123  10.915   6.054  0.8584 -0.8046 -0.1875
  447MOL0     N58923   7.000  10.956   6.069 -0.0319  0.2079 -0.4029
  447MOL0     C58924   6.101  10.511   6.253 -0.4670 -0.1933  0.7242
  447MOL0     C58925   6.034  10.465   6.370 -0.1573  1.1360  0.3851
  447MOL0     C58926   5.901  10.191   6.706  0.1247 -0.5836 -0.4743
  447MOL0     C58927   5.876  10.277   6.811 -0.4716 -0.1915 -0.2353
  447MOL0     C58928   5.785  10.232   6.915  0.1525  0.4892  0.6004
  447MOL0     C58929   5.715  10.107   6.902  0.3851  0.8727  0.1407
  447MOL0     O58930   5.635  10.062   7.005  0.7881  0.4801  0.5445
  447MOL0     C58931   5.671  10.096   7.137  0.2990 -0.6046  0.6744
  447MOL0     C58932   5.645   9.972   7.223  1.3131  0.4677 -0.2544
  447MOL0     C58933   5.705   9.978   7.363 -0.1942 -0.3852 -0.7334
  447MOL0     C58934   5.736   9.846   7.426 -0.2218 -0.3967  0.1832
  447MOL0     C58935   5.871   9.808   7.378 -0.2776 -0.1611  0.3980
  447MOL0     C58936   5.988   9.803   7.331  0.9384  0.1958 -0.2317
  447MOL0     C58937   5.738  10.031   6.790  0.8563 -0.6200 -0.3171
  447MOL0     C58938   5.822  10.072   6.691  0.0795  0.3535 -0.3671
  447MOL0     H58939   6.283  10.278   6.505  1.4302  2.1961  1.3736
  447MOL0     H58940   6.389  10.354   6.279  1.5705  0.9462  3.0793
  447MOL0     H58941   6.125  10.522   5.986 -0.0481 -1.1848 -0.5873
  447MOL0     H58942   6.245  10.389   5.953  2.6665  0.0131 -0.4349
  447MOL0     H58943   6.280  10.552   5.794 -4.1415  1.2178  1.4878
  447MOL0     H58944   6.415  10.568   5.907  0.5923 -1.5200 -0.2280
  447MOL0     H58945   6.242  10.748   6.018  0.0229 -0.0652 -0.0883
  447MOL0     H58946   6.175  10.735   5.855 -0.7723 -3.7067  2.0533
  447MOL0     H58947   6.426  10.777   5.778  1.9544  0.3924  0.6391
  447MOL0     H58948   6.341  10.915   5.860  0.1327  0.7880 -1.2373
  447MOL0     H58949   6.560  10.755   5.987  0.3367  1.5023  1.6703
  447MOL0     H58950   6.463  10.888   6.058  1.7484 -0.1997  0.2057
  447MOL0     H58951   6.540  11.044   5.890 -1.4115 -0.7296  2.3782
  447MOL0     H58952   6.610  10.916   5.795 -0.4741  0.1539 -0.0915
  447MOL0     H58953   6.692  10.999   6.080 -0.1911 -2.1074 -0.5728
  447MOL0     H58954   6.760  10.859   6.010 -0.3671  0.0431  2.9076
  447MOL0     H58955   6.809  11.145   5.960 -0.6840 -1.1275  2.1594
  447MOL0     H58956   6.807  11.037   5.811 -0.1689 -0.6448 -0.8485
  447MOL0     H58957   7.056  11.024   5.757 -1.2116 -1.1466  0.4632
  447MOL0     H58958   7.355  10.886   5.936  2.3848  1.6478 -0.5466
  447MOL0     H58959   7.307  11.008   5.807 -0.3852  0.7052  0.7515
  447MOL0     H58960   7.348  10.805   5.668 -1.7680 -1.9356 -1.7643
  447MOL0     H58961   7.172  10.801   5.698  1.0447 -3.0379 -2.5496
  447MOL0     H58962   7.377  10.655   5.852  1.0233 -1.2499 -1.4640
  447MOL0     H58963   7.196  10.646   5.860 -0.5601  3.2324  0.2716
  447MOL0     H58964   7.340  10.592   5.608 -1.6426  3.5907 -0.9653
  447MOL0     H58965   7.161  10.577   5.648  0.7130  0.2496 -0.8151
  447MOL0     H58966   7.444  10.224   5.775  0.2668 -1.6313  0.0780
  447MOL0     H58967   7.484  10.019   5.627 -0.1129  0.6623  3.9303
  447MOL0     H58968   7.498   9.652   5.290  0.5307 -1.0535 -1.3846
  447MOL0     H58969   7.713   9.581   5.169 -0.7349  0.5779 -0.9646
  447MOL0     H58970   7.974   9.552   5.188  1.8046 -0.1077  2.7887
  447MOL0     H58971   8.069   9.701   5.222 -0.4590  0.0681  0.2933
  447MOL0     H58972   8.194   9.583   5.056  2.2495  0.2602 -4.0611
  447MOL0     H58973   8.124   9.725   4.975  3.0022  0.2010  1.6474
  447MOL0     H58974   8.095   9.524   4.852 -0.0570 -2.5456  0.7746
  447MOL0     H58975   7.933   9.581   4.891  0.5499  0.5952  0.1987
  447MOL0     H58976   8.067   9.362   5.047 -0.1051 -0.8896 -0.2553
  447MOL0     H58977   7.904   9.417   5.055  1.2728 -0.3948  1.2994
  447MOL0     H58978   7.912   9.195   4.907  1.2217  0.0847  3.2735
  447MOL0     H58979   8.034   9.266   4.804  0.9818 -0.6344 -0.0458
  447MOL0     H58980   7.799   9.256   4.716  0.0453 -1.5446  0.1691
  447MOL0     H58981   7.877   9.423   4.714 -1.0921 -0.6468 -0.9608
  447MOL0     H58982   7.649   9.289   4.866 -0.2593 -0.8735 -0.3040
  447MOL0     H58983   7.723   9.423   4.956 -1.7904  1.6306 -1.2101
  447MOL0     H58984   7.588   9.453   4.691 -1.1521  1.0806 -0.5917
  447MOL0     H58985   7.675   9.585   4.750 -1.3783  1.0512  2.1639
  447MOL0     H58986   7.869   9.972   5.215  2.0116 -2.3436  0.8184
  447MOL0     H58987   7.674  10.040   5.350  0.3103  1.0101 -1.0157
  447MOL0     H58988   7.229  10.214   5.331 -3.1477 -2.0675  0.8575
  447MOL0     H58989   7.172  10.400   5.495  0.9106  0.7264 -0.7262
  447MOL0     H58990   6.037  10.579   6.197 -1.6228 -2.9880 -1.5744
  447MOL0     H58991   5.937  10.504   6.401 -1.1674 -1.1224  0.2267
  447MOL0     H58992   5.905  10.381   6.812 -1.2297  0.0358 -0.6230
  447MOL0     H58993   5.745  10.292   6.996 -1.4124  0.4804 -0.1254
  447MOL0     H58994   5.598  10.170   7.171 -0.0563  0.0329 -1.3324
  447MOL0     H58995   5.774  10.132   7.142  0.1640  0.0163 -0.5718
  447MOL0     H58996   5.539   9.947   7.239  1.3790 -0.5885 -1.2878
  447MOL0     H58997   5.687   9.895   7.158  0.3936  0.3402 -0.7178
  447MOL0     H58998   5.626  10.010   7.431 -0.8539 -2.7686 -0.2737
  447MOL0     H58999   5.793  10.041   7.374  0.1691 -1.2284  1.7744
  447MOL0     H59000   5.744   9.861   7.534 -0.6471 -2.1520  0.4866
  447MOL0     H59001   5.656   9.774   7.406 -0.2856  0.1345 -1.7264
  447MOL0     H59002   6.093   9.806   7.311  1.1628 -4.0086 -0.6415
  447MOL0     H59003   5.675   9.946   6.768  1.0853 -1.2411  1.2409
  447MOL0     H59004   5.831  10.027   6.592 -0.5971 -2.0700  0.6028
  448MOL0     O59005   4.263  11.213   3.605 -0.2815 -0.2483  0.2898
  448MOL0     C59006   4.209  11.220   3.712 -0.1887 -0.5072  0.4721
  448MOL0     O59007   4.130  11.323   3.761  0.3370 -0.4555  0.0236
  448MOL0     C59008   4.136  11.449   3.704 -0.2956  0.1205  0.2952
  448MOL0     C59009   4.242  11.495   3.618  0.2602 -0.4119  0.4289
  448MOL0     C59010   4.240  11.629   3.576  0.1591 -0.0274 -1.1804
  448MOL0     C59011   4.141  11.717   3.614 -0.3427  0.6333  0.4148
  448MOL0     O59012   4.132  11.851   3.574  0.0229  0.8218  0.4696
  448MOL0     C59013   4.126  11.864   3.436 -0.1787  0.1991  0.9135
  448MOL0     C59014   4.127  12.011   3.395 -1.0228 -0.6057 -0.1624
  448MOL0     C59015   4.278  12.065   3.373  0.5390 -0.4795 -0.6662
  448MOL0     C59016   4.280  12.222   3.347 -0.1004 -0.2893  0.0837
  448MOL0     C59017   4.410  12.272   3.288 -0.0214  0.6280 -0.3119
  448MOL0     C59018   4.400  12.415   3.248  1.1213 -0.3697  0.3812
  448MOL0     C59019   4.294  12.455   3.143  0.8111  0.2340 -1.1215
  448MOL0     C59020   4.319  12.580   3.062  0.5202  0.0463 -0.2672
  448MOL0     N59021   4.318  12.702   3.151 -0.4429 -0.3305  0.7579
  448MOL0     C59022   4.416  12.743   3.233 -0.1117 -1.4662 -0.0531
  448MOL0     C59023   4.355  12.832   3.329 -0.0124 -0.1271 -0.5601
  448MOL0     C59024   4.419  12.888   3.462  0.1512  0.5793  0.2307
  448MOL0     C59025   4.351  13.007   3.533  0.0827 -0.7666 -0.7774
  448MOL0     C59026   4.408  13.050   3.668  0.2942  0.3926  0.4347
  448MOL0     C59027   4.317  13.160   3.729  0.4386  0.3855 -0.4233
  448MOL0     O59028   4.300  13.140   3.873 -0.9058 -0.2662 -1.3341
  448MOL0     C59029   4.317  13.242   3.969  0.7480 -0.8815  0.3005
  448MOL0     C59030   4.317  13.385   3.940  0.3435  0.1997 -0.1368
  448MOL0     C59031   4.356  13.472   4.044  0.6649 -0.2088  0.2588
  448MOL0     C59032   4.387  13.435   4.173 -0.3175  0.5422 -0.0220
  448MOL0     C59033   4.412  13.542   4.276  0.1828 -0.0848 -0.3388
  448MOL0     O59034   4.443  13.494   4.405  0.1667  1.0532  0.0464
  448MOL0     C59035   4.489  13.569   4.507  0.5933  0.2371 -0.3424
  448MOL0     C59036   4.401  13.600   4.612  0.4884 -0.4347 -0.6741
  448MOL0     C59037   4.450  13.677   4.723  1.2141 -0.6872 -0.2296
  448MOL0     C59038   4.573  13.730   4.717 -0.3498 -0.5979  0.1851
  448MOL0     O59039   4.613  13.786   4.835 -0.6939 -0.5379 -0.0052
  448MOL0     C59040   4.744  13.847   4.820  0.0934  0.1799 -0.8985
  448MOL0     C59041   4.783  13.904   4.954  0.2165 -1.2461 -1.4025
  448MOL0     C59042   4.702  14.030   4.997 -0.4799  0.2244 -0.1390
  448MOL0     C59043   4.743  14.062   5.147  0.4431 -1.0472 -0.0496
  448MOL0     C59044   4.675  14.194   5.201  0.3759  0.4722  0.3719
  448MOL0     C59045   4.719  14.243   5.339 -0.4215 -0.1011  0.9765
  448MOL0     C59046   4.879  14.265   5.346 -0.1896  0.3885 -0.2738
  448MOL0     C59047   4.902  14.364   5.458 -0.0534  1.1404  0.8959
  448MOL0    Cl59048   4.998  14.496   5.394  0.0545 -0.6542  0.0737
  448MOL0     C59049   4.659  13.694   4.607 -1.0366 -1.0664 -0.6959
  448MOL0     C59050   4.616  13.618   4.504  0.6055  0.6464 -0.9152
  448MOL0     O59051   4.394  13.665   4.246  0.1540  0.0542  0.2036
  448MOL0     C59052   4.390  13.294   4.196  0.0413  0.5551  0.3644
  448MOL0     C59053   4.348  13.206   4.096  0.3644  0.5115 -0.1752
  448MOL0     N59054   4.223  12.837   3.286 -0.3356  0.1472 -0.1643
  448MOL0     N59055   4.205  12.754   3.190 -0.0737  0.7291 -0.1946
  448MOL0     C59056   4.043  11.674   3.702  0.1338 -0.3661  0.4028
  448MOL0     C59057   4.040  11.547   3.747 -0.4062  0.8794  0.2251
  448MOL0     C59058   4.242  11.115   3.809 -0.0737  0.3542  1.0470
  448MOL0     C59059   4.312  10.996   3.774  0.0816 -0.3611 -0.3703
  448MOL0     C59060   4.334  10.891   3.859  0.7779  0.3274 -0.1471
  448MOL0     C59061   4.275  10.893   3.987  0.7040 -0.3958  0.3009
  448MOL0     O59062   4.283  10.785   4.073  0.0765  0.9043 -0.0367
  448MOL0     C59063   4.308  10.651   4.024 -0.5095 -0.3265 -0.3896
  448MOL0     C59064   4.277  10.549   4.135  0.0295  0.3589  0.7264
  448MOL0     C59065   4.391  10.535   4.237  0.0217 -0.7125 -0.5695
  448MOL0     C59066   4.357  10.453   4.360 -0.9093  0.1597 -0.0757
  448MOL0     C59067   4.443  10.494   4.472  0.6202  1.0293  0.1805
  448MOL0     C59068   4.517  10.518   4.570  0.9451 -0.0535  0.8851
  448MOL0     C59069   4.220  11.007   4.037  0.6847  0.4451  0.4692
  448MOL0     C59070   4.212  11.118   3.949  0.0167  0.1785 -0.3044
  448MOL0     H59071   4.320  11.432   3.577 -0.7375 -1.5980  0.2976
  448MOL0     H59072   4.323  11.670   3.518 -0.3179  0.8407 -1.2739
  448MOL0     H59073   4.036  11.815   3.396 -0.7951  2.1493 -0.2093
  448MOL0     H59074   4.203  11.819   3.372  0.9054  4.5382 -1.2072
  448MOL0     H59075   4.066  12.056   3.473 -1.0558 -2.4171  0.9003
  448MOL0     H59076   4.067  12.020   3.304 -1.3194 -1.3189 -0.0464
  448MOL0     H59077   4.331  12.016   3.291 -0.0481  1.5344 -2.3548
  448MOL0     H59078   4.335  12.042   3.464  0.2512  0.9941 -0.0762
  448MOL0     H59079   4.204  12.240   3.270 -1.6768 -0.5461  1.5246
  448MOL0     H59080   4.245  12.290   3.425  4.9421  1.6811  1.0135
  448MOL0     H59081   4.442  12.209   3.204 -1.2027 -1.2796  0.6028
  448MOL0     H59082   4.492  12.270   3.361  2.1834  4.6120 -2.3245
  448MOL0     H59083   4.498  12.445   3.210  0.8713  0.2440  0.2085
  448MOL0     H59084   4.389  12.483   3.333  1.8878  1.3674 -0.8450
  448MOL0     H59085   4.302  12.375   3.068  2.0713 -0.1749 -0.5888
  448MOL0     H59086   4.199  12.457   3.196  0.0617 -1.9685 -2.2633
  448MOL0     H59087   4.238  12.587   2.988 -1.7230  1.7661  2.1751
  448MOL0     H59088   4.410  12.560   3.005 -0.1363 -1.2863 -0.8968
  448MOL0     H59089   4.519  12.709   3.237 -0.0479 -1.4529 -1.4167
  448MOL0     H59090   4.525  12.908   3.444  0.6489 -2.1870 -0.3679
  448MOL0     H59091   4.420  12.804   3.532  0.6057  0.1391 -0.2988
  448MOL0     H59092   4.250  12.976   3.560  0.4437 -1.0374  0.3489
  448MOL0     H59093   4.346  13.094   3.468 -1.9013  2.0775  2.7669
  448MOL0     H59094   4.394  12.963   3.732  1.4040  0.4940  0.8425
  448MOL0     H59095   4.511  13.085   3.658 -0.6005  2.9514 -0.6101
  448MOL0     H59096   4.216  13.166   3.689  0.9100  0.5174 -1.6434
  448MOL0     H59097   4.348  13.262   3.704 -0.1335  0.8218  0.5854
  448MOL0     H59098   4.300  13.419   3.839  2.9277  0.9018 -0.4154
  448MOL0     H59099   4.370  13.578   4.024 -0.3629 -0.2122 -0.6153
  448MOL0     H59100   4.299  13.563   4.619  1.2628 -2.7721 -0.7901
  448MOL0     H59101   4.389  13.701   4.809  1.7224  0.1010 -0.0714
  448MOL0     H59102   4.749  13.929   4.748 -2.0829  0.1018 -1.2118
  448MOL0     H59103   4.818  13.767   4.812 -1.0930 -0.9657 -0.6502
  448MOL0     H59104   4.887  13.936   4.945 -0.5139  1.8972  0.0907
  448MOL0     H59105   4.769  13.822   5.026 -1.1485  0.3294  0.2345
  448MOL0     H59106   4.596  14.013   4.978 -0.4904 -0.0529  0.1612
  448MOL0     H59107   4.728  14.123   4.945 -0.8211  0.4207  0.0408
  448MOL0     H59108   4.699  13.979   5.202 -0.7649 -1.0628 -0.9897
  448MOL0     H59109   4.846  14.068   5.183  0.4097 -2.2411  0.2896
  448MOL0     H59110   4.569  14.167   5.209  0.4215 -0.3764 -1.3447
  448MOL0     H59111   4.685  14.268   5.121 -1.3164  1.1758  0.7684
  448MOL0     H59112   4.678  14.172   5.412 -0.4647 -0.8787  0.2096
  448MOL0     H59113   4.665  14.337   5.352  0.7503  1.2680 -2.7634
  448MOL0     H59114   4.936  14.173   5.361 -0.6277 -0.1492 -1.7072
  448MOL0     H59115   4.898  14.316   5.252 -0.1636  1.2726  0.1993
  448MOL0     H59116   4.947  14.319   5.548  3.1019  2.1251 -0.0370
  448MOL0     H59117   4.807  14.411   5.483 -0.1309  1.4362  0.0692
  448MOL0     H59118   4.762  13.726   4.614 -1.2753 -0.6527  2.1399
  448MOL0     H59119   4.680  13.594   4.420  2.5199 -1.2001  0.9560
  448MOL0     H59120   4.408  13.248   4.294 -2.8827 -1.8825 -0.1059
  448MOL0     H59121   4.345  13.099   4.117 -0.8313 -0.4273 -4.2414
  448MOL0     H59122   3.961  11.738   3.733  2.1053  2.0265  0.9539
  448MOL0     H59123   3.955  11.517   3.807 -0.9538 -2.0983 -1.7837
  448MOL0     H59124   4.348  10.976   3.673  3.2052 -1.5339  0.8477
  448MOL0     H59125   4.373  10.802   3.812  0.4462 -0.1430  0.4550
  448MOL0     H59126   4.412  10.649   3.992 -0.1013  0.8077  0.7751
  448MOL0     H59127   4.229  10.629   3.951 -0.4904 -0.9489 -0.2208
  448MOL0     H59128   4.185  10.569   4.191  0.5682 -1.2010  2.2429
  448MOL0     H59129   4.278  10.451   4.087  0.7812 -1.1443  3.6306
  448MOL0     H59130   4.422  10.634   4.269  0.5144 -1.7347  2.4898
  448MOL0     H59131   4.475  10.486   4.188  1.0931 -0.2738  0.7557
  448MOL0     H59132   4.252  10.477   4.379 -0.7615 -0.6248  2.0574
  448MOL0     H59133   4.375  10.346   4.347 -2.9529 -0.1759 -0.4088
  448MOL0     H59134   4.590  10.555   4.640  2.5302  2.4943 -1.8495
  448MOL0     H59135   4.181  11.007   4.138  0.8192 -1.9773  0.5894
  448MOL0     H59136   4.162  11.201   3.998 -1.5721  0.2541 -1.9138
  449MOL0     O59137   7.294  10.826   5.408 -0.8817  0.2328  0.3446
  449MOL0     C59138   7.379  10.842   5.319 -0.3774 -0.2129 -0.6582
  449MOL0     O59139   7.411  10.964   5.256  0.3133  1.1608 -0.0286
  449MOL0     C59140   7.360  11.075   5.313 -0.4307  0.3715 -1.4956
  449MOL0     C59141   7.330  11.180   5.220 -1.0711  0.6017 -0.4062
  449MOL0     C59142   7.277  11.293   5.263  0.7160 -0.3954 -0.0768
  449MOL0     C59143   7.242  11.312   5.391  0.3091 -1.2244  0.2359
  449MOL0     O59144   7.186  11.426   5.451  0.0511  0.2623  0.1376
  449MOL0     C59145   7.050  11.459   5.406  1.1285  0.6494 -0.0811
  449MOL0     C59146   7.000  11.594   5.454  1.0318 -0.4741  0.6790
  449MOL0     C59147   6.854  11.608   5.417  0.9439  0.3409  0.4749
  449MOL0     C59148   6.798  11.740   5.465  0.3967  0.4481  0.1164
  449MOL0     C59149   6.644  11.761   5.468 -0.0312  0.7189 -0.2758
  449MOL0     C59150   6.615  11.906   5.521  0.6819  0.8359  0.0537
  449MOL0     C59151   6.661  11.937   5.665 -0.2443  0.3491 -0.7271
  449MOL0     C59152   6.627  11.813   5.762 -0.1835 -0.1657 -0.2608
  449MOL0     N59153   6.476  11.785   5.767 -0.3795 -0.8183 -0.4993
  449MOL0     C59154   6.394  11.892   5.812  0.0857  0.1842  0.3497
  449MOL0     C59155   6.312  11.836   5.902 -0.3115 -0.4583  0.1490
  449MOL0     C59156   6.200  11.899   5.982  0.0145 -0.4314  1.6522
  449MOL0     C59157   6.259  12.016   6.062 -0.9389  0.3637  0.0447
  449MOL0     C59158   6.171  12.058   6.180  0.1240 -0.1128 -0.2731
  449MOL0     C59159   6.164  11.930   6.273  0.0986  0.5909 -0.6269
  449MOL0     O59160   6.293  11.873   6.291  0.1968 -0.4665  0.0674
  449MOL0     C59161   6.301  11.760   6.371  0.0212  0.1172  0.4639
  449MOL0     C59162   6.260  11.635   6.323  0.1583 -0.0363  0.2774
  449MOL0     C59163   6.271  11.516   6.397 -0.6378  0.2132 -0.5453
  449MOL0     C59164   6.312  11.526   6.527  0.6392  0.4952  0.2815
  449MOL0     C59165   6.325  11.410   6.617 -0.8794  0.0706  0.8041
  449MOL0     O59166   6.288  11.427   6.751  0.1411 -0.5627  0.2907
  449MOL0     C59167   6.283  11.312   6.832  0.4730 -0.3499  0.1576
  449MOL0     C59168   6.162  11.262   6.877 -0.6449  0.5236 -0.5337
  449MOL0     C59169   6.160  11.160   6.967 -0.5258  0.8024  0.8409
  449MOL0     C59170   6.277  11.093   6.995  0.3838 -0.0007  0.3794
  449MOL0     O59171   6.264  10.986   7.081 -0.4167  0.0248  0.4399
  449MOL0     C59172   6.356  10.875   7.069 -0.3723 -0.3026 -1.3111
  449MOL0     C59173   6.293  10.750   7.134 -0.3183 -0.5915 -0.2103
  449MOL0     C59174   6.386  10.632   7.134  0.4807 -0.6445 -1.2306
  449MOL0     C59175   6.317  10.494   7.157  0.5184 -0.1888  0.2645
  449MOL0     C59176   6.196  10.438   7.084  0.3432  1.3673  0.1155
  449MOL0     C59177   6.227  10.388   6.944  0.1351 -0.4646  0.3288
  449MOL0     C59178   6.329  10.272   6.930 -0.2670  0.0583  0.1005
  449MOL0     C59179   6.323  10.221   6.783  0.8701 -0.4705 -0.6335
  449MOL0    Cl59180   6.459  10.100   6.752  0.1049  0.2892  0.3097
  449MOL0     C59181   6.399  11.126   6.941  0.3158  0.1874  0.8231
  449MOL0     C59182   6.404  11.251   6.877  0.4266  0.2245  0.4563
  449MOL0     O59183   6.366  11.304   6.555 -0.1598  0.0698 -0.7927
  449MOL0     C59184   6.348  11.655   6.581 -0.2738 -0.2706  0.0143
  449MOL0     C59185   6.344  11.769   6.498  0.6767 -0.2271  0.3113
  449MOL0     N59186   6.329  11.699   5.886  0.4690  0.5232 -0.3589
  449MOL0     N59187   6.436  11.671   5.825  0.5898 -0.2353  0.3024
  449MOL0     C59188   7.270  11.212   5.491 -1.0634  0.2326 -0.0186
  449MOL0     C59189   7.334  11.097   5.448 -1.0672  0.1341 -0.3174
  449MOL0     C59190   7.453  10.727   5.290  0.5176 -0.0635 -0.3759
  449MOL0     C59191   7.411  10.599   5.329 -0.7477  1.2964  0.1422
  449MOL0     C59192   7.473  10.483   5.288  0.1015  0.1841 -0.1804
  449MOL0     C59193   7.590  10.497   5.207 -0.4135  0.1138 -0.0207
  449MOL0     O59194   7.668  10.389   5.151  1.1590 -0.6225 -0.1523
  449MOL0     C59195   7.616  10.249   5.161 -0.3632 -0.0824  0.0475
  449MOL0     C59196   7.505  10.233   5.058 -0.5687 -0.9616 -0.0019
  449MOL0     C59197   7.564  10.241   4.911  0.1761 -0.4391 -0.3768
  449MOL0     C59198   7.464  10.234   4.796 -0.3622 -0.7067 -0.1339
  449MOL0     C59199   7.388  10.357   4.775  1.0995 -0.6907 -0.2783
  449MOL0     C59200   7.317  10.456   4.762 -0.0897 -1.1604  0.8957
  449MOL0     C59201   7.642  10.624   5.173  0.1088  0.6188  0.0061
  449MOL0     C59202   7.566  10.739   5.212 -0.2313 -0.0877 -0.7874
  449MOL0     H59203   7.357  11.163   5.117  1.4847 -0.2218  0.3214
  449MOL0     H59204   7.266  11.375   5.192 -0.3500  0.0179  0.5330
  449MOL0     H59205   6.976  11.388   5.445  0.8557  0.8414 -0.2464
  449MOL0     H59206   7.050  11.457   5.297  1.8136  1.4585 -0.1111
  449MOL0     H59207   7.064  11.672   5.411  1.1072  0.2221  1.9773
  449MOL0     H59208   7.026  11.598   5.560  2.3005  1.9300  0.3462
  449MOL0     H59209   6.798  11.522   5.454  3.0425 -0.8082  1.1595
  449MOL0     H59210   6.831  11.593   5.311 -0.4088 -1.2758  0.9719
  449MOL0     H59211   6.837  11.743   5.567 -0.1425 -1.2981  0.4102
  449MOL0     H59212   6.840  11.825   5.412  2.7819 -0.1930  0.8582
  449MOL0     H59213   6.595  11.677   5.517  6.0734 -2.8718  0.7131
  449MOL0     H59214   6.607  11.760   5.365 -2.1267  0.3885  0.4310
  449MOL0     H59215   6.506  11.920   5.524  0.6579  0.5580  0.6485
  449MOL0     H59216   6.666  11.978   5.457  1.5209  0.9095  0.7930
  449MOL0     H59217   6.767  11.966   5.667  0.2614 -1.3129 -1.5731
  449MOL0     H59218   6.605  12.018   5.712  0.1915 -1.0743  2.5097
  449MOL0     H59219   6.664  11.822   5.864 -0.7969 -0.8658  0.0285
  449MOL0     H59220   6.673  11.729   5.709 -2.3393 -1.1456 -0.6855
  449MOL0     H59221   6.399  11.992   5.770 -1.0057  0.3664  0.6211
  449MOL0     H59222   6.162  11.819   6.046 -0.9747 -1.8793 -0.6386
  449MOL0     H59223   6.116  11.928   5.919  0.5174 -1.1785  0.6132
  449MOL0     H59224   6.271  12.107   6.003 -0.9337  0.5173  0.2790
  449MOL0     H59225   6.354  11.983   6.104 -0.9878  0.8979  0.5836
  449MOL0     H59226   6.224  12.135   6.236 -4.0597  2.0509  1.1857
  449MOL0     H59227   6.074  12.104   6.157  0.6810 -0.3406 -3.4218
  449MOL0     H59228   6.082  11.868   6.236 -3.8249  3.4225  2.4814
  449MOL0     H59229   6.132  11.959   6.373 -1.4542 -2.9110  0.0158
  449MOL0     H59230   6.228  11.642   6.220  0.8338  2.0240  0.1683
  449MOL0     H59231   6.249  11.417   6.358  2.7163 -0.1854 -1.7725
  449MOL0     H59232   6.072  11.319   6.857 -2.2138  0.5964  5.0448
  449MOL0     H59233   6.068  11.131   7.018 -0.1718 -0.1812  0.9398
  449MOL0     H59234   6.450  10.888   7.124 -1.1062 -4.0548  1.2396
  449MOL0     H59235   6.378  10.855   6.964 -0.7179  0.2494 -1.4918
  449MOL0     H59236   6.199  10.730   7.082 -1.5146  1.5136  1.0124
  449MOL0     H59237   6.270  10.770   7.239 -1.4444 -0.7368 -0.4229
  449MOL0     H59238   6.462  10.663   7.205  0.2466  0.4485 -1.4393
  449MOL0     H59239   6.428  10.614   7.035 -0.0825  5.2636 -2.9510
  449MOL0     H59240   6.400  10.424   7.146  1.8721  1.5237 -1.2791
  449MOL0     H59241   6.278  10.484   7.258 -2.9329 -0.2661 -0.9474
  449MOL0     H59242   6.115  10.511   7.084 -2.2215 -1.2400 -1.7712
  449MOL0     H59243   6.163  10.345   7.132  2.5833  0.1458 -0.5549
  449MOL0     H59244   6.268  10.471   6.885 -0.1973 -2.0920 -2.3851
  449MOL0     H59245   6.140  10.355   6.886  0.6722  0.1720 -0.8690
  449MOL0     H59246   6.428  10.292   6.972 -0.2463 -2.2966  1.3411
  449MOL0     H59247   6.285  10.195   6.994 -0.0591  0.2779  0.5118
  449MOL0     H59248   6.331  10.308   6.717  1.6391 -0.9954 -1.2585
  449MOL0     H59249   6.229  10.170   6.762  1.4084 -1.1543 -1.4365
  449MOL0     H59250   6.490  11.070   6.958  1.6949  0.6444 -3.6563
  449MOL0     H59251   6.501  11.286   6.843  2.1454 -2.7912  1.8903
  449MOL0     H59252   6.386  11.666   6.682 -2.1456  3.5735  0.4573
  449MOL0     H59253   6.387  11.857   6.544  1.0299 -1.0562  1.6296
  449MOL0     H59254   7.266  11.234   5.597  0.1388  0.4344 -0.0078
  449MOL0     H59255   7.355  11.020   5.520  1.5321  1.4209  0.4093
  449MOL0     H59256   7.318  10.605   5.385 -0.5666  2.3096  0.3625
  449MOL0     H59257   7.436  10.386   5.319  1.7903 -0.0394  1.2724
  449MOL0     H59258   7.590  10.241   5.267 -0.0228  1.8617  0.3191
  449MOL0     H59259   7.697  10.181   5.136 -2.6535 -2.8958 -0.3016
  449MOL0     H59260   7.462  10.133   5.066 -0.0126 -1.2519 -0.5807
  449MOL0     H59261   7.432  10.313   5.076  1.5872  0.9643  0.7087
  449MOL0     H59262   7.641  10.163   4.904 -1.0814 -1.8487  0.7811
  449MOL0     H59263   7.617  10.334   4.891 -0.0204 -0.8093 -2.9413
  449MOL0     H59264   7.521  10.218   4.705  0.7056  0.8201  0.2266
  449MOL0     H59265   7.401  10.150   4.828  0.4141 -0.6864  1.5810
  449MOL0     H59266   7.249  10.537   4.741 -0.3845 -1.3760  1.0053
  449MOL0     H59267   7.725  10.643   5.107 -0.1255  2.7574  0.2706
  449MOL0     H59268   7.589  10.836   5.171 -0.2846 -0.0344 -0.6917
  450MOL0     O59269   3.329   3.018   6.054 -0.5814  0.2687 -0.6013
  450MOL0     C59270   3.433   2.963   6.011 -0.0747 -0.1010 -0.4512
  450MOL0     O59271   3.470   2.951   5.885  0.3719  0.6976  0.1950
  450MOL0     C59272   3.401   3.025   5.800  0.3691  0.3799 -0.1654
  450MOL0     C59273   3.280   2.991   5.767 -0.5079 -1.0337 -0.0431
  450MOL0     C59274   3.201   3.062   5.673 -0.1006 -0.5292  0.8221
  450MOL0     C59275   3.265   3.167   5.600 -0.6535  0.8652 -0.5769
  450MOL0     O59276   3.206   3.234   5.501  0.1303 -0.2725  0.4372
  450MOL0     C59277   3.146   3.172   5.391 -0.5206 -0.1361  0.4927
  450MOL0     C59278   3.063   3.267   5.313 -0.4017 -1.1172 -0.3765
  450MOL0     C59279   3.033   3.209   5.179  0.1756  0.3322 -0.4430
  450MOL0     C59280   2.962   3.302   5.078 -0.0128  0.0688  0.8373
  450MOL0     C59281   2.819   3.344   5.120 -1.1647  0.6125 -0.3134
  450MOL0     C59282   2.738   3.362   4.992 -0.0094  0.3689  0.5140
  450MOL0     C59283   2.593   3.372   5.026  0.0737 -0.0474 -0.0801
  450MOL0     C59284   2.495   3.378   4.908  0.7585 -0.6783 -0.0360
  450MOL0     N59285   2.369   3.445   4.937  0.8427  0.8619  0.2103
  450MOL0     C59286   2.298   3.525   4.849 -0.0278 -0.1639 -0.1113
  450MOL0     C59287   2.178   3.543   4.913  0.2697  0.5638 -0.3410
  450MOL0     C59288   2.060   3.613   4.854  0.2165  0.7367  0.7251
  450MOL0     C59289   2.008   3.521   4.746 -0.7685  0.0924  0.4198
  450MOL0     C59290   1.867   3.579   4.726  0.7587  0.0219  0.1220
  450MOL0     C59291   1.799   3.506   4.612 -1.0429 -0.6031  1.2659
  450MOL0     O59292   1.660   3.514   4.604 -0.0406 -0.0853 -0.5044
  450MOL0     C59293   1.582   3.439   4.690  0.0763  0.0852 -0.0200
  450MOL0     C59294   1.457   3.488   4.707 -0.4168  0.1945 -0.2051
  450MOL0     C59295   1.363   3.411   4.780 -0.5086 -0.5386  0.2644
  450MOL0     C59296   1.389   3.282   4.829  0.9259  0.0627  0.0390
  450MOL0     C59297   1.279   3.215   4.902  0.2507  0.1163  0.9292
  450MOL0     O59298   1.316   3.099   4.959 -0.3304  0.9059  0.2667
  450MOL0     C59299   1.243   3.021   5.040 -0.2517 -0.4102 -0.6362
  450MOL0     C59300   1.268   2.887   5.039 -0.4566 -0.6188  0.2171
  450MOL0     C59301   1.178   2.800   5.108 -0.2287 -0.0170 -0.0318
  450MOL0     C59302   1.058   2.845   5.159  0.8182 -0.7306 -0.1470
  450MOL0     O59303   0.959   2.776   5.232 -0.2953  0.0644 -0.4925
  450MOL0     C59304   0.985   2.641   5.269 -0.0844 -0.7658 -0.4682
  450MOL0     C59305   0.960   2.552   5.148 -0.1882  0.8848 -0.0985
  450MOL0     C59306   0.905   2.416   5.172 -0.0108 -0.0365 -0.6525
  450MOL0     C59307   1.004   2.323   5.254  0.0822  1.0878 -0.4424
  450MOL0     C59308   0.949   2.191   5.308  1.6753  0.9230  0.0799
  450MOL0     C59309   0.914   2.097   5.196  0.3177  0.7042 -0.1566
  450MOL0     C59310   0.888   1.951   5.256 -0.6015  0.6608  0.1865
  450MOL0     C59311   0.752   1.937   5.317  0.1028 -0.7981 -0.6091
  450MOL0    Cl59312   0.642   1.936   5.188  0.5067  0.3504  0.0830
  450MOL0     C59313   1.032   2.986   5.159 -0.3835 -0.9111  0.6714
  450MOL0     C59314   1.123   3.066   5.099  0.0535  0.2967  0.1900
  450MOL0     O59315   1.162   3.254   4.892 -0.6540  0.0700  0.0103
  450MOL0     C59316   1.512   3.229   4.802 -0.1367 -0.2327  0.2152
  450MOL0     C59317   1.615   3.313   4.739  0.8456  0.0493  0.3117
  450MOL0     N59318   2.173   3.475   5.033 -0.7913  0.4223 -0.4617
  450MOL0     N59319   2.295   3.428   5.055  0.3812 -0.3480 -0.6683
  450MOL0     C59320   3.401   3.182   5.620  0.3238 -0.1771  0.6114
  450MOL0     C59321   3.469   3.114   5.720 -0.6595  0.8176 -0.0748
  450MOL0     C59322   3.534   2.920   6.119  0.1933  0.0332 -0.3376
  450MOL0     C59323   3.506   2.943   6.249  1.3140  0.5463 -0.5644
  450MOL0     C59324   3.587   2.906   6.355  0.0062  0.6060 -0.8457
  450MOL0     C59325   3.699   2.831   6.324 -0.6496  0.3279 -0.7410
  450MOL0     O59326   3.793   2.798   6.419  0.6227 -0.1874 -0.8583
  450MOL0     C59327   3.781   2.672   6.478 -0.7373 -0.3006 -0.2710
  450MOL0     C59328   3.637   2.639   6.540 -0.7927 -0.1223  0.7300
  450MOL0     C59329   3.628   2.495   6.605 -0.2863  0.0920 -0.3349
  450MOL0     C59330   3.640   2.382   6.511  0.2789  0.4550 -0.1772
  450MOL0     C59331   3.559   2.403   6.385  0.3474 -0.6248  0.1393
  450MOL0     C59332   3.512   2.426   6.266 -1.0306 -0.0484  0.0393
  450MOL0     C59333   3.728   2.798   6.189  0.1170 -1.9358  0.4410
  450MOL0     C59334   3.643   2.839   6.087  0.2673 -0.8168  0.3901
  450MOL0     H59335   3.233   2.909   5.821  1.1433 -2.4025 -0.6006
  450MOL0     H59336   3.097   3.038   5.651 -0.2008  0.3014  0.3138
  450MOL0     H59337   3.087   3.089   5.432  0.1482  0.6344  3.2536
  450MOL0     H59338   3.225   3.143   5.320 -0.8023 -1.2115  0.6072
  450MOL0     H59339   3.105   3.367   5.296 -1.5560 -0.7963 -1.5696
  450MOL0     H59340   2.969   3.280   5.367 -0.7406  0.0142 -1.1755
  450MOL0     H59341   2.973   3.123   5.209  0.7306 -0.0104 -0.2986
  450MOL0     H59342   3.125   3.170   5.136 -1.3154 -2.1671 -1.5584
  450MOL0     H59343   3.024   3.385   5.041  1.1439 -0.4297  1.5773
  450MOL0     H59344   2.946   3.238   4.991 -1.8915 -1.0372  1.9373
  450MOL0     H59345   2.821   3.429   5.188  0.7974 -1.3292  2.2388
  450MOL0     H59346   2.786   3.260   5.183  1.2829 -0.3932 -0.2463
  450MOL0     H59347   2.765   3.273   4.935  1.5912  0.8260  0.5241
  450MOL0     H59348   2.779   3.453   4.948  2.2515  0.3581  2.4038
  450MOL0     H59349   2.569   3.279   5.078  0.2920  0.0695  0.2288
  450MOL0     H59350   2.586   3.454   5.097 -0.4095 -0.2359  0.0995
  450MOL0     H59351   2.458   3.278   4.885 -0.1322 -0.7206  1.4475
  450MOL0     H59352   2.538   3.431   4.822 -2.4671  2.4245  0.0045
  450MOL0     H59353   2.326   3.570   4.755  0.0145  2.7048  1.1865
  450MOL0     H59354   2.067   3.711   4.806 -3.1191  0.9692  0.4935
  450MOL0     H59355   1.990   3.620   4.938  0.1049 -1.7969  0.9209
  450MOL0     H59356   2.010   3.417   4.781 -0.6147  0.8805  2.9502
  450MOL0     H59357   2.068   3.526   4.655 -0.5118 -0.4352  0.5606
  450MOL0     H59358   1.814   3.567   4.821 -1.1702  3.2626 -0.4008
  450MOL0     H59359   1.857   3.684   4.700  1.1284  0.0281  0.0015
  450MOL0     H59360   1.813   3.397   4.617 -0.0655 -0.6327 -0.8863
  450MOL0     H59361   1.847   3.536   4.518  1.2090  1.4737  2.9418
  450MOL0     H59362   1.421   3.584   4.673 -0.4076  1.3047  2.6676
  450MOL0     H59363   1.269   3.465   4.794 -0.7224 -1.3460  2.4678
  450MOL0     H59364   1.353   2.846   4.986  0.9971  4.2066 -1.7946
  450MOL0     H59365   1.216   2.698   5.109  2.3123  0.8264 -1.5219
  450MOL0     H59366   0.914   2.632   5.352  1.3340  1.7051  1.1377
  450MOL0     H59367   1.088   2.641   5.305  0.5676  5.9412 -1.0933
  450MOL0     H59368   1.051   2.538   5.090  0.5186 -0.2845  1.2404
  450MOL0     H59369   0.887   2.612   5.092  0.8598  1.2615 -1.0986
  450MOL0     H59370   0.880   2.360   5.081  1.4352 -2.1727  0.1903
  450MOL0     H59371   0.815   2.433   5.232 -0.4825  0.4899 -1.4797
  450MOL0     H59372   1.088   2.295   5.190 -0.0062 -0.8546  0.2108
  450MOL0     H59373   1.034   2.372   5.347 -2.3250  3.1223 -0.6412
  450MOL0     H59374   0.855   2.211   5.359 -0.2677 -0.6940 -2.6412
  450MOL0     H59375   1.034   2.140   5.355  1.5120  1.5304  1.0444
  450MOL0     H59376   1.000   2.092   5.129  0.4903 -0.1146  0.1125
  450MOL0     H59377   0.826   2.131   5.141  0.3065  0.7649 -0.1008
  450MOL0     H59378   0.909   1.875   5.181 -1.6891 -0.3508  0.8848
  450MOL0     H59379   0.965   1.911   5.322  0.1194 -2.8773 -2.5382
  450MOL0     H59380   0.726   2.017   5.387 -0.3539 -2.3889  1.1255
  450MOL0     H59381   0.739   1.839   5.365  2.4114 -1.5924 -1.4516
  450MOL0     H59382   0.942   3.030   5.199 -0.3155 -1.6329  1.6682
  450MOL0     H59383   1.093   3.170   5.105 -3.5875 -0.6938  1.3219
  450MOL0     H59384   1.533   3.128   4.835 -0.5677 -0.3184  0.2375
  450MOL0     H59385   1.709   3.269   4.708  0.4283 -1.4152  0.9957
  450MOL0     H59386   3.461   3.241   5.550 -1.8975  2.5939  0.8493
  450MOL0     H59387   3.577   3.113   5.728 -0.5234  1.4253 -1.5142
  450MOL0     H59388   3.431   3.020   6.266  0.9891 -0.2027  1.7995
  450MOL0     H59389   3.570   2.935   6.459  2.8691 -0.1726 -0.0797
  450MOL0     H59390   3.863   2.658   6.549  1.0378 -3.5521 -2.6709
  450MOL0     H59391   3.815   2.598   6.405 -0.7325 -1.6608  1.0422
  450MOL0     H59392   3.620   2.707   6.624  1.3353 -2.0629  2.8805
  450MOL0     H59393   3.563   2.645   6.460  0.4255 -2.2523 -0.6752
  450MOL0     H59394   3.526   2.481   6.643  0.0487 -1.4053  0.0833
  450MOL0     H59395   3.707   2.496   6.681 -0.1686  1.2070 -0.4592
  450MOL0     H59396   3.742   2.377   6.473 -0.4723 -2.2806 -2.2458
  450MOL0     H59397   3.604   2.292   6.562  0.3280  0.2476 -0.5022
  450MOL0     H59398   3.477   2.468   6.174 -2.7388 -1.1025  0.1698
  450MOL0     H59399   3.816   2.738   6.166  4.0368  3.5910 -1.2499
  450MOL0     H59400   3.649   2.820   5.980 -2.1993  1.5495 -0.2972
  451MOL0     O59401   2.280  10.947   1.483 -0.5613 -0.7733  0.1753
  451MOL0     C59402   2.282  10.890   1.373  0.5839 -0.3438  0.2517
  451MOL0     O59403   2.232  10.941   1.253 -0.5288 -0.0495 -0.5157
  451MOL0     C59404   2.199  11.079   1.237 -0.9195 -0.1865 -0.8272
  451MOL0     C59405   2.219  11.183   1.328  0.5510 -0.9406 -0.0073
  451MOL0     C59406   2.174  11.318   1.308  0.0049  0.5632  0.1586
  451MOL0     C59407   2.106  11.346   1.189  0.3087 -0.5808 -0.4843
  451MOL0     O59408   2.061  11.466   1.167  0.3168 -0.5684 -0.2969
  451MOL0     C59409   2.061  11.575   1.258 -0.0593  0.9523 -0.1518
  451MOL0     C59410   1.982  11.682   1.191 -1.0498 -0.3409  0.1094
  451MOL0     C59411   1.938  11.780   1.297  0.3187 -0.2628  0.0701
  451MOL0     C59412   2.041  11.880   1.338 -0.6247  0.5272  0.0126
  451MOL0     C59413   1.972  12.013   1.368 -0.9671 -0.1647  0.4425
  451MOL0     C59414   2.077  12.116   1.427  0.6970 -0.5377  0.3569
  451MOL0     C59415   2.207  12.127   1.343 -0.2848  0.0023  0.9838
  451MOL0     C59416   2.294  12.234   1.411 -0.6890 -0.6705  0.1897
  451MOL0     N59417   2.366  12.197   1.533  0.1301 -0.3215  0.8355
  451MOL0     C59418   2.469  12.105   1.547 -0.4469 -0.0402 -0.4567
  451MOL0     C59419   2.517  12.117   1.671 -1.4335 -1.5746 -0.7451
  451MOL0     C59420   2.641  12.062   1.731  0.1236 -0.0243 -0.0245
  451MOL0     C59421   2.712  12.165   1.817  0.3667  0.1940  0.0805
  451MOL0     C59422   2.856  12.110   1.844 -0.5286  0.2594 -1.0596
  451MOL0     C59423   2.882  11.973   1.896 -0.5770  0.5350  0.4974
  451MOL0     O59424   2.837  11.871   1.807  0.0183  0.1051 -0.8834
  451MOL0     C59425   2.878  11.744   1.847 -0.6429 -0.8404 -0.0743
  451MOL0     C59426   2.994  11.679   1.811  0.0112  0.0749  0.1804
  451MOL0     C59427   3.013  11.544   1.845  0.7173  0.2236 -0.9542
  451MOL0     C59428   2.929  11.469   1.931  0.2489  0.5547 -0.2627
  451MOL0     C59429   2.964  11.330   1.964 -0.6519 -0.7405 -0.9511
  451MOL0     O59430   3.065  11.269   1.899 -0.1529  0.3646  0.5869
  451MOL0     C59431   3.072  11.133   1.913 -1.4483 -0.3761 -0.9618
  451MOL0     C59432   3.146  11.063   2.019 -1.3667  0.3178  0.3561
  451MOL0     C59433   3.136  10.918   2.020 -0.3484  0.4931 -0.3564
  451MOL0     C59434   3.079  10.849   1.913  0.6752  0.2051  0.0740
  451MOL0     O59435   3.082  10.711   1.907  0.2511 -0.0643 -1.0313
  451MOL0     C59436   3.087  10.648   1.778 -0.4169 -0.4254  0.1846
  451MOL0     C59437   3.182  10.523   1.796 -1.4293  0.2788  0.2428
  451MOL0     C59438   3.131  10.408   1.896  0.3802 -0.3543  0.0098
  451MOL0     C59439   3.237  10.298   1.903  0.2324 -0.0881  0.0190
  451MOL0     C59440   3.208  10.175   1.983  0.4251 -0.3624 -0.3328
  451MOL0     C59441   3.244  10.041   1.913  0.3465  0.2599  0.2098
  451MOL0     C59442   3.388  10.006   1.884 -0.3486  0.2929 -0.0288
  451MOL0     C59443   3.482  10.006   2.007  0.4143 -0.1095  0.8019
  451MOL0    Cl59444   3.420   9.889   2.128  0.2050  0.0590  0.6006
  451MOL0     C59445   3.008  10.921   1.825 -0.7351  0.2777 -0.0056
  451MOL0     C59446   2.997  11.057   1.826  0.6402  0.5353  0.3922
  451MOL0     O59447   2.886  11.281   2.048 -0.4483 -0.3496  0.9308
  451MOL0     C59448   2.816  11.543   1.975  0.2905 -0.8343 -0.0598
  451MOL0     C59449   2.794  11.677   1.937  0.2061  0.1917 -0.1272
  451MOL0     N59450   2.438  12.212   1.731  0.2858  0.2576 -0.7046
  451MOL0     N59451   2.358  12.266   1.656  0.5354 -0.0490 -0.0066
  451MOL0     C59452   2.091  11.255   1.091 -0.8439  1.0742  0.1292
  451MOL0     C59453   2.149  11.120   1.115 -0.0949 -0.6520 -0.2115
  451MOL0     C59454   2.341  10.750   1.370 -0.3564  0.3366 -0.6042
  451MOL0     C59455   2.398  10.683   1.481  0.1013 -0.5439 -0.5198
  451MOL0     C59456   2.468  10.573   1.476 -0.0976 -0.2333  0.1160
  451MOL0     C59457   2.473  10.493   1.365  0.5228  1.0446 -0.3556
  451MOL0     O59458   2.527  10.368   1.359 -0.1926 -0.4690 -0.2855
  451MOL0     C59459   2.634  10.337   1.441 -0.3496  0.3216 -0.7282
  451MOL0     C59460   2.750  10.423   1.383  0.3611 -0.2253 -0.2666
  451MOL0     C59461   2.892  10.366   1.421 -0.4900 -0.2881  0.0320
  451MOL0     C59462   2.935  10.260   1.332 -0.6228  0.7903 -0.5230
  451MOL0     C59463   3.046  10.187   1.407  0.4759  0.1815  0.0686
  451MOL0     C59464   3.136  10.110   1.446 -0.1842 -0.3666 -0.4006
  451MOL0     C59465   2.419  10.550   1.250  0.8754 -0.6557  0.0121
  451MOL0     C59466   2.349  10.674   1.252  0.1532 -0.2631 -0.1092
  451MOL0     H59467   2.259  11.164   1.427 -2.0251 -0.0418  1.3172
  451MOL0     H59468   2.180  11.397   1.383  0.7696 -1.5936  2.5480
  451MOL0     H59469   2.160  11.613   1.286 -1.5416  4.9713  0.2032
  451MOL0     H59470   2.006  11.558   1.351  0.5947  1.5826  0.3657
  451MOL0     H59471   1.898  11.641   1.135  1.9244 -0.7463 -4.5300
  451MOL0     H59472   2.036  11.746   1.121 -1.6591  0.2455  0.1765
  451MOL0     H59473   1.895  11.739   1.389 -0.4631  1.3507  0.4625
  451MOL0     H59474   1.847  11.830   1.263 -0.1716 -0.3631  1.1781
  451MOL0     H59475   2.104  11.842   1.419 -1.7873 -3.1857 -0.6646
  451MOL0     H59476   2.104  11.914   1.255  0.2067  3.9273  1.8290
  451MOL0     H59477   1.897  12.010   1.448 -0.8219  2.4728  0.7638
  451MOL0     H59478   1.913  12.047   1.283 -2.6096 -2.7261  0.4319
  451MOL0     H59479   2.096  12.069   1.524  0.1776  1.0461  1.2658
  451MOL0     H59480   2.025  12.213   1.431  0.9393 -0.4076  0.3687
  451MOL0     H59481   2.269  12.038   1.335 -1.3185 -0.6311 -0.4645
  451MOL0     H59482   2.185  12.168   1.244  0.6707 -0.2246  0.6728
  451MOL0     H59483   2.239  12.326   1.432 -2.8303 -1.8637  0.0978
  451MOL0     H59484   2.371  12.241   1.334 -1.8236 -1.0914 -1.0234
  451MOL0     H59485   2.517  12.035   1.480 -0.7240  0.8201 -1.5693
  451MOL0     H59486   2.702  12.030   1.646 -0.3232 -1.7728  0.2710
  451MOL0     H59487   2.610  11.967   1.775 -4.3579  0.1492 -2.2283
  451MOL0     H59488   2.658  12.175   1.912 -0.4349 -0.2646 -0.3118
  451MOL0     H59489   2.715  12.256   1.757  1.5402 -1.2729 -2.2322
  451MOL0     H59490   2.911  12.131   1.752  2.2246  1.2997  0.7082
  451MOL0     H59491   2.892  12.174   1.925 -1.0026 -0.3433 -0.3562
  451MOL0     H59492   2.824  11.958   1.988 -0.8844 -1.9505 -0.0357
  451MOL0     H59493   2.985  11.954   1.928 -0.3157  3.8609  2.0223
  451MOL0     H59494   3.077  11.722   1.755  1.5081 -2.3745  0.3858
  451MOL0     H59495   3.098  11.491   1.804  2.2103  1.3883  0.4922
  451MOL0     H59496   3.203  11.112   2.097 -3.0613  2.2476  0.4746
  451MOL0     H59497   3.163  10.866   2.111  3.5111 -0.4887 -1.8725
  451MOL0     H59498   3.128  10.719   1.706 -3.9325  4.4099  2.3984
  451MOL0     H59499   2.992  10.604   1.748 -0.4115 -0.3025 -0.0108
  451MOL0     H59500   3.275  10.564   1.835 -0.9380 -2.1089  1.7709
  451MOL0     H59501   3.205  10.469   1.703  0.2428  2.1358 -0.4960
  451MOL0     H59502   3.042  10.353   1.863  1.8322 -3.7456  1.2598
  451MOL0     H59503   3.112  10.459   1.991 -0.9084 -0.1029 -0.3677
  451MOL0     H59504   3.252  10.270   1.798 -3.7441  2.0877 -1.3321
  451MOL0     H59505   3.331  10.340   1.939  1.5876 -1.8477 -1.3040
  451MOL0     H59506   3.101  10.178   2.003  0.7729  0.1708  1.6740
  451MOL0     H59507   3.268  10.187   2.074 -1.5768 -2.7395  1.4311
  451MOL0     H59508   3.191  10.033   1.818  0.4588 -1.7702  0.2696
  451MOL0     H59509   3.207   9.960   1.977  1.3732 -0.5068 -0.1371
  451MOL0     H59510   3.373   9.903   1.852 -3.0013  1.1066 -1.7252
  451MOL0     H59511   3.428  10.057   1.795 -1.0050 -1.5211 -1.4339
  451MOL0     H59512   3.485  10.107   2.048 -1.5178  0.7957 -1.0837
  451MOL0     H59513   3.586   9.979   1.988  0.5926  1.3225 -0.3718
  451MOL0     H59514   2.943  10.861   1.762 -1.5683 -0.5922  1.6219
  451MOL0     H59515   2.939  11.114   1.754  0.3145  1.0150  1.0257
  451MOL0     H59516   2.740  11.509   2.045 -1.0605  2.6498  0.3553
  451MOL0     H59517   2.707  11.734   1.969  1.0903  1.3255  0.3274
  451MOL0     H59518   2.045  11.277   0.995  1.0930 -0.4016 -1.1999
  451MOL0     H59519   2.147  11.042   1.041 -3.6368 -0.9347  0.0073
  451MOL0     H59520   2.399  10.737   1.575 -1.7548  1.7630 -1.7247
  451MOL0     H59521   2.537  10.558   1.558  1.2749  1.0184 -0.7534
  451MOL0     H59522   2.650  10.229   1.431  0.1142  0.4954 -2.0811
  451MOL0     H59523   2.601  10.365   1.541  0.1333  0.6398 -0.6530
  451MOL0     H59524   2.765  10.420   1.275  2.2019  0.3678 -0.0704
  451MOL0     H59525   2.747  10.531   1.404  1.6886 -0.2468  0.1359
  451MOL0     H59526   2.891  10.348   1.529 -0.2070  3.4831  0.8214
  451MOL0     H59527   2.960  10.452   1.417 -4.1728  3.3150  4.1288
  451MOL0     H59528   2.856  10.186   1.315  1.0098 -0.0968 -6.7147
  451MOL0     H59529   2.961  10.293   1.231  2.9519  1.2819  0.4218
  451MOL0     H59530   3.217  10.047   1.474  0.8924  1.1983  0.1591
  451MOL0     H59531   2.417  10.500   1.153  0.2136 -1.1108  0.2532
  451MOL0     H59532   2.305  10.709   1.159  0.1555 -0.7626 -0.3032
  452MOL0     O59533   3.897   9.004  11.174 -0.7585  0.8926 -0.4197
  452MOL0     C59534   3.837   9.025  11.275  0.3972  0.5016 -0.0488
  452MOL0     O59535   3.827   9.146  11.339  0.5656  0.0023 -0.4610
  452MOL0     C59536   3.920   9.244  11.317  0.3382 -0.1062 -0.8040
  452MOL0     C59537   3.872   9.379  11.306  0.3360  0.2421 -0.4707
  452MOL0     C59538   3.960   9.487  11.286  1.1570 -1.0786  1.2546
  452MOL0     C59539   4.092   9.470  11.271  0.1748 -0.6949  0.5767
  452MOL0     O59540   4.165   9.584  11.245  0.4794 -0.1479 -0.7399
  452MOL0     C59541   4.296   9.566  11.172  0.1485 -0.3372 -0.6777
  452MOL0     C59542   4.255   9.523  11.024  0.1920 -0.4273 -0.0483
  452MOL0     C59543   4.358   9.442  10.955 -0.2347  0.0471  0.0331
  452MOL0     C59544   4.488   9.521  10.917 -0.8085  0.5887  0.8291
  452MOL0     C59545   4.578   9.412  10.858 -0.3762  0.9210  0.7739
  452MOL0     C59546   4.620   9.280  10.936  1.1148  0.3742  0.0405
  452MOL0     C59547   4.768   9.248  10.903  0.6870  0.9224 -1.0232
  452MOL0     C59548   4.777   9.228  10.751  0.4654  0.9469  0.0228
  452MOL0     N59549   4.905   9.170  10.717  0.1738 -0.3549  1.4335
  452MOL0     C59550   4.996   9.093  10.789  0.3941  0.3621  0.1849
  452MOL0     C59551   5.073   9.043  10.701  0.2077  0.0494 -0.5525
  452MOL0     C59552   5.179   8.943  10.731 -0.9817 -0.3125  0.0603
  452MOL0     C59553   5.325   8.994  10.686 -0.3498 -0.7198 -0.3086
  452MOL0     C59554   5.369   9.132  10.757 -0.0896  0.4154 -0.2250
  452MOL0     C59555   5.459   9.100  10.879  0.2928 -0.1855  0.1241
  452MOL0     O59556   5.495   9.204  10.977  0.3647 -0.1605 -0.2621
  452MOL0     C59557   5.411   9.309  10.980  1.2368 -0.4470  0.9740
  452MOL0     C59558   5.280   9.298  11.025 -0.9793 -0.4534  0.2618
  452MOL0     C59559   5.205   9.412  11.055 -0.6417 -0.2983 -0.5126
  452MOL0     C59560   5.261   9.542  11.046  0.9971  0.4183 -0.2598
  452MOL0     C59561   5.179   9.655  11.082  0.2420  0.1748 -0.6136
  452MOL0     O59562   5.047   9.648  11.106 -0.5608  0.9514 -0.0553
  452MOL0     C59563   4.996   9.752  11.179  0.5442 -0.3253  0.8577
  452MOL0     C59564   4.965   9.870  11.118  0.8629 -0.1850 -0.1909
  452MOL0     C59565   4.909   9.978  11.182  0.8294 -1.0538 -0.5955
  452MOL0     C59566   4.858   9.964  11.310 -0.2687  0.4548  0.4606
  452MOL0     O59567   4.775  10.054  11.374 -0.0703 -0.5338  0.3417
  452MOL0     C59568   4.767  10.194  11.321  0.3269  0.0171  0.3631
  452MOL0     C59569   4.673  10.277  11.412 -0.5825  0.5349  0.2447
  452MOL0     C59570   4.526  10.234  11.397  0.4449 -0.9726  0.2378
  452MOL0     C59571   4.483  10.089  11.441 -0.6916  0.3628  0.1673
  452MOL0     C59572   4.349  10.048  11.375  0.5076 -0.0467  0.0462
  452MOL0     C59573   4.347   9.990  11.232 -1.0643  0.4664  0.4642
  452MOL0     C59574   4.210   9.977  11.165  0.6232 -0.2529 -0.5512
  452MOL0     C59575   4.201   9.890  11.037 -0.2012 -0.0256 -0.3407
  452MOL0    Cl59576   4.292   9.960  10.911  0.5000 -0.0272 -0.3281
  452MOL0     C59577   4.878   9.841  11.373  0.9657 -0.4224 -0.2889
  452MOL0     C59578   4.948   9.739  11.312  0.7114 -0.0850  0.2405
  452MOL0     O59579   5.244   9.761  11.092 -0.3900  0.0399  0.3998
  452MOL0     C59580   5.393   9.547  11.011  0.0847  0.3921 -0.4755
  452MOL0     C59581   5.464   9.436  10.968 -0.6554  0.3295 -0.2543
  452MOL0     N59582   5.032   9.086  10.571 -0.1100  0.5168 -0.5431
  452MOL0     N59583   4.926   9.160  10.583  0.0810 -0.5404  0.1611
  452MOL0     C59584   4.138   9.344  11.279  0.4618  0.3132  0.2145
  452MOL0     C59585   4.060   9.225  11.307 -0.0268  0.6959 -0.0766
  452MOL0     C59586   3.767   8.907  11.335 -0.0557  0.0285  0.2738
  452MOL0     C59587   3.718   8.910  11.473 -0.9705 -0.5262 -0.1387
  452MOL0     C59588   3.662   8.801  11.533  0.7613 -0.5065  0.4818
  452MOL0     C59589   3.641   8.683  11.464  0.0290  0.3161 -0.4560
  452MOL0     O59590   3.579   8.577  11.533 -0.1894 -0.4187  0.1982
  452MOL0     C59591   3.489   8.492  11.459  0.2966 -0.5739  0.6155
  452MOL0     C59592   3.386   8.568  11.391 -0.8611 -0.3356  0.5825
  452MOL0     C59593   3.285   8.482  11.312  0.9718  0.1328  0.6394
  452MOL0     C59594   3.203   8.556  11.206  0.0522 -0.4206 -0.2422
  452MOL0     C59595   3.098   8.638  11.259  0.5878  0.0143  1.0403
  452MOL0     C59596   3.015   8.700  11.319  0.3824 -0.4746  0.3171
  452MOL0     C59597   3.687   8.683  11.326 -0.7547  0.4522 -0.2116
  452MOL0     C59598   3.755   8.789  11.259 -0.4645 -1.1195  0.7904
  452MOL0     H59599   3.771   9.407  11.336  0.9013 -1.1340  3.3350
  452MOL0     H59600   3.923   9.589  11.296  0.1818 -1.5326  2.6241
  452MOL0     H59601   4.364   9.493  11.217  0.8512 -0.2042 -1.5049
  452MOL0     H59602   4.350   9.661  11.174 -1.6059  0.6901  0.0540
  452MOL0     H59603   4.237   9.608  10.958 -0.0252 -1.3662 -1.2567
  452MOL0     H59604   4.154   9.481  11.015  0.0328  0.2163 -1.4852
  452MOL0     H59605   4.320   9.403  10.860 -0.6199 -0.1132  0.2547
  452MOL0     H59606   4.393   9.360  11.018  0.4298 -1.0406 -1.6886
  452MOL0     H59607   4.461   9.602  10.849  1.7368  0.5541 -0.3634
  452MOL0     H59608   4.536   9.560  11.008 -0.7207  0.7849  0.7003
  452MOL0     H59609   4.672   9.461  10.833  0.4094 -0.4566  0.9277
  452MOL0     H59610   4.530   9.366  10.771 -0.3489 -3.6973  2.9047
  452MOL0     H59611   4.544   9.203  10.921  0.4459  1.0802 -0.2111
  452MOL0     H59612   4.606   9.305  11.041 -2.3015  2.4010 -0.7472
  452MOL0     H59613   4.836   9.327  10.936  2.0499  0.6095 -2.9145
  452MOL0     H59614   4.788   9.159  10.963 -0.9798 -0.7257 -2.7604
  452MOL0     H59615   4.754   9.318  10.694 -0.4159  1.1059  0.6155
  452MOL0     H59616   4.704   9.148  10.732  0.3860  0.4711  2.1616
  452MOL0     H59617   4.999   9.067  10.894 -0.9453 -5.2545 -0.8762
  452MOL0     H59618   5.149   8.857  10.671 -0.8301  0.9140 -1.8723
  452MOL0     H59619   5.181   8.913  10.837  1.6488 -1.3043 -0.1859
  452MOL0     H59620   5.330   9.005  10.577 -2.0713 -2.9578 -0.6785
  452MOL0     H59621   5.405   8.926  10.715  2.0137  1.3233 -1.5453
  452MOL0     H59622   5.427   9.187  10.683 -0.3051 -1.0152 -1.4932
  452MOL0     H59623   5.279   9.192  10.777  0.0555  1.0812 -1.4623
  452MOL0     H59624   5.551   9.060  10.835  0.7394 -1.6299  2.2264
  452MOL0     H59625   5.416   9.025  10.945  0.4669 -2.4564 -2.2182
  452MOL0     H59626   5.254   9.195  11.045  3.6568 -1.8422  0.3236
  452MOL0     H59627   5.102   9.405  11.087 -0.9624  0.6428 -1.2529
  452MOL0     H59628   4.980   9.880  11.011  1.0581 -0.5381 -0.1982
  452MOL0     H59629   4.887  10.067  11.123  2.4555 -1.5514 -2.0409
  452MOL0     H59630   4.704  10.190  11.232 -1.2594 -0.4284  1.4632
  452MOL0     H59631   4.869  10.231  11.307  1.5178 -3.4102 -1.0624
  452MOL0     H59632   4.692  10.380  11.378 -0.4195  0.1100 -1.0236
  452MOL0     H59633   4.709  10.260  11.514 -0.1671  2.0281  0.3755
  452MOL0     H59634   4.508  10.247  11.290 -1.1715 -1.3842  0.4361
  452MOL0     H59635   4.461  10.305  11.449 -1.6044 -1.8807 -0.9675
  452MOL0     H59636   4.559  10.014  11.418 -2.0789 -0.5604 -1.6810
  452MOL0     H59637   4.481  10.089  11.550  2.8447  1.8130  0.3977
  452MOL0     H59638   4.295  10.143  11.379  6.0331  3.6380 -1.1415
  452MOL0     H59639   4.309   9.982  11.452  0.1376 -0.7372 -0.7272
  452MOL0     H59640   4.391   9.890  11.236 -1.4328  0.3482  2.8784
  452MOL0     H59641   4.408  10.053  11.167  0.8457 -2.6733 -1.0135
  452MOL0     H59642   4.139   9.933  11.235  0.1507  2.6000  0.8761
  452MOL0     H59643   4.177  10.079  11.142  0.6936 -0.4517 -1.5946
  452MOL0     H59644   4.100   9.885  10.995 -0.0907 -2.7863 -0.4807
  452MOL0     H59645   4.231   9.785  11.045 -0.2195 -0.1325 -1.4915
  452MOL0     H59646   4.833   9.817  11.469  1.9221  0.3875  0.3810
  452MOL0     H59647   4.964   9.646  11.365 -1.1779 -0.4800  0.1646
  452MOL0     H59648   5.453   9.637  11.020  5.0951 -2.7903  3.2716
  452MOL0     H59649   5.569   9.456  10.949 -0.6870  2.5423  1.4302
  452MOL0     H59650   4.246   9.334  11.273  0.4433  0.9668 -1.7211
  452MOL0     H59651   4.112   9.130  11.315 -3.0211 -1.0516  0.1298
  452MOL0     H59652   3.740   9.000  11.529  0.7297 -1.6850  1.1635
  452MOL0     H59653   3.614   8.806  11.630 -1.6551  4.8445 -0.6291
  452MOL0     H59654   3.438   8.430  11.534  0.0829  0.9096  1.7605
  452MOL0     H59655   3.547   8.436  11.385  3.0150 -0.3964  2.4383
  452MOL0     H59656   3.328   8.628  11.462 -3.5959 -0.2793 -1.5274
  452MOL0     H59657   3.437   8.634  11.320 -1.1257  0.6519  1.2970
  452MOL0     H59658   3.204   8.442  11.373 -1.6903  1.8645 -1.4979
  452MOL0     H59659   3.340   8.403  11.260 -0.0608  1.8821 -3.6094
  452MOL0     H59660   3.268   8.624  11.150 -2.2663  1.0625 -1.3035
  452MOL0     H59661   3.156   8.490  11.133 -1.8143  1.2768 -0.6926
  452MOL0     H59662   2.932   8.746  11.369 -1.5657  1.3221 -4.0333
  452MOL0     H59663   3.673   8.585  11.282  0.4030  0.0539  0.2490
  452MOL0     H59664   3.789   8.774  11.157  0.5414  1.9820  0.5611
  453MOL0     O59665  11.151   8.081   3.294 -0.8573  0.1052  0.8484
  453MOL0     C59666  11.049   8.122   3.234 -0.3819 -0.3819  0.2014
  453MOL0     O59667  11.025   8.256   3.198  0.6318  0.3585  0.0771
  453MOL0     C59668  11.113   8.339   3.141 -0.9567  0.7478 -0.4453
  453MOL0     C59669  11.072   8.455   3.077  0.0209  0.0338  0.5474
  453MOL0     C59670  11.166   8.528   3.007  0.1888 -0.2747 -0.5075
  453MOL0     C59671  11.302   8.490   3.007 -0.1547 -0.0440 -0.1885
  453MOL0     O59672  11.392   8.575   2.945 -0.1863 -0.2370 -0.5089
  453MOL0     C59673  11.351   8.631   2.819 -1.4239 -0.0324  0.0992
  453MOL0     C59674  11.469   8.702   2.747 -0.0250 -0.4692  0.0549
  453MOL0     C59675  11.592   8.611   2.721  0.1231 -0.0409 -0.3194
  453MOL0     C59676  11.682   8.679   2.618 -1.1525 -0.2885 -0.6798
  453MOL0     C59677  11.732   8.822   2.631 -0.4505  1.4445 -0.1014
  453MOL0     C59678  11.807   8.844   2.764 -0.6196  0.2589  0.5000
  453MOL0     C59679  11.858   8.986   2.763  0.3246 -0.2130  0.0437
  453MOL0     C59680  11.749   9.093   2.768  0.9648 -0.1377  0.0849
  453MOL0     N59681  11.786   9.218   2.836  0.6023 -0.2575 -0.0371
  453MOL0     C59682  11.840   9.230   2.962 -0.2414 -0.3085  1.0481
  453MOL0     C59683  11.901   9.350   2.964  0.1291 -0.1174 -0.5156
  453MOL0     C59684  11.952   9.418   3.090  0.8079 -0.5738 -0.1904
  453MOL0     C59685  11.859   9.430   3.210  0.1901 -0.0233 -0.1214
  453MOL0     C59686  11.927   9.509   3.328  0.0496 -0.2703  0.0611
  453MOL0     C59687  11.827   9.573   3.427  0.4825  0.7101 -0.1174
  453MOL0     O59688  11.791   9.462   3.512  0.6986 -1.0690  0.7847
  453MOL0     C59689  11.667   9.462   3.578 -0.1166  0.5525 -0.6923
  453MOL0     C59690  11.584   9.574   3.601 -0.3491  0.1716 -0.2943
  453MOL0     C59691  11.468   9.556   3.672  0.1759  0.3941  1.2491
  453MOL0     C59692  11.443   9.437   3.733  0.8694  0.8900  0.9860
  453MOL0     C59693  11.315   9.414   3.804  0.7653  0.6601  0.1885
  453MOL0     O59694  11.314   9.343   3.919  0.3477  0.1724 -0.0829
  453MOL0     C59695  11.194   9.298   3.955  0.7081  0.7195  0.0772
  453MOL0     C59696  11.121   9.355   4.063 -0.0716 -0.6002 -0.6472
  453MOL0     C59697  11.011   9.287   4.118  0.4760 -0.3872  0.1768
  453MOL0     C59698  10.963   9.168   4.049  0.1138 -0.0998 -0.3221
  453MOL0     O59699  10.863   9.084   4.092  0.3641 -0.2265  0.5137
  453MOL0     C59700  10.752   9.135   4.170  0.1317  0.2357 -0.3284
  453MOL0     C59701  10.605   9.081   4.171  0.5895 -0.3309 -1.0802
  453MOL0     C59702  10.543   9.078   4.035  0.3195  0.4547 -0.0978
  453MOL0     C59703  10.608   8.961   3.957  0.1265  0.1188  0.3028
  453MOL0     C59704  10.577   8.938   3.809  0.8456 -0.3448  0.3836
  453MOL0     C59705  10.561   9.068   3.728  0.6321 -0.3179  0.1868
  453MOL0     C59706  10.579   9.050   3.578  0.8558 -0.2960 -1.2163
  453MOL0     C59707  10.494   8.935   3.513  0.3703 -0.8391 -0.0806
  453MOL0    Cl59708  10.322   9.002   3.526 -0.1488 -0.0885 -0.3285
  453MOL0     C59709  11.029   9.120   3.939  0.0200  0.8879  1.1281
  453MOL0     C59710  11.138   9.185   3.888 -0.8395 -0.3677  0.6206
  453MOL0     O59711  11.218   9.483   3.759 -0.3777  0.7169 -0.1157
  453MOL0     C59712  11.527   9.326   3.718  0.1704  0.8598  0.3126
  453MOL0     C59713  11.641   9.341   3.639  0.4381 -0.5209  0.0619
  453MOL0     N59714  11.882   9.413   2.846  1.0214 -0.7070  1.3378
  453MOL0     N59715  11.815   9.334   2.769  0.9966 -0.0759  0.8774
  453MOL0     C59716  11.342   8.380   3.065  0.4124  0.3649 -0.1134
  453MOL0     C59717  11.254   8.297   3.132  0.3523  0.7205 -0.9043
  453MOL0     C59718  10.936   8.027   3.204  0.8728 -0.0844  0.1060
  453MOL0     C59719  10.947   7.901   3.259 -0.5260 -1.1991  0.3763
  453MOL0     C59720  10.847   7.812   3.241 -0.7411 -1.2405 -0.3728
  453MOL0     C59721  10.738   7.845   3.165  0.2325 -0.1146 -0.7651
  453MOL0     O59722  10.634   7.747   3.162 -0.9548 -0.3914 -0.3923
  453MOL0     C59723  10.618   7.697   3.029 -0.8707 -0.6086 -0.6982
  453MOL0     C59724  10.463   7.692   3.011 -1.4626  0.5537  0.0391
  453MOL0     C59725  10.406   7.576   3.081  0.9706 -0.8426 -0.0634
  453MOL0     C59726  10.266   7.607   3.138  0.4847  0.1227 -0.3816
  453MOL0     C59727  10.221   7.485   3.196  0.1735  0.1087 -1.2810
  453MOL0     C59728  10.179   7.368   3.230  0.6700 -0.6178  0.5837
  453MOL0     C59729  10.726   7.977   3.115 -0.2829 -0.5361  0.3810
  453MOL0     C59730  10.831   8.073   3.129 -0.7103  0.8410 -1.5570
  453MOL0     H59731  10.970   8.489   3.062  0.5023  0.5614 -1.9007
  453MOL0     H59732  11.129   8.620   2.963  1.2849  1.4046  1.8247
  453MOL0     H59733  11.269   8.702   2.831 -1.5932  0.7053 -3.8538
  453MOL0     H59734  11.324   8.547   2.754 -1.2587  0.1108 -0.1567
  453MOL0     H59735  11.500   8.788   2.807 -3.2006 -0.8069  2.4014
  453MOL0     H59736  11.415   8.738   2.658 -1.7312 -1.2470  0.7454
  453MOL0     H59737  11.557   8.508   2.707  0.5376 -0.9395  3.9725
  453MOL0     H59738  11.656   8.601   2.809 -0.3906  2.3559  0.3867
  453MOL0     H59739  11.763   8.607   2.603 -0.6307 -0.1445  1.2604
  453MOL0     H59740  11.625   8.691   2.525 -2.5108  0.0041  0.1665
  453MOL0     H59741  11.652   8.897   2.628 -2.3770 -0.4754  0.5915
  453MOL0     H59742  11.801   8.836   2.547 -2.3308  1.3340 -1.7463
  453MOL0     H59743  11.894   8.780   2.779  0.0066  1.2725  1.3229
  453MOL0     H59744  11.735   8.823   2.843  0.8010 -0.7311  1.5769
  453MOL0     H59745  11.921   8.987   2.852 -0.3208 -0.8032  0.5234
  453MOL0     H59746  11.918   9.008   2.675 -0.2302  1.0800 -0.0397
  453MOL0     H59747  11.653   9.058   2.808 -0.0351 -0.5396 -2.4796
  453MOL0     H59748  11.732   9.122   2.664 -0.0766  0.3285  0.3709
  453MOL0     H59749  11.843   9.147   3.033  2.4499 -0.2437  1.0796
  453MOL0     H59750  11.988   9.514   3.052  1.1041 -2.2117 -4.5836
  453MOL0     H59751  12.032   9.352   3.125 -0.5934 -1.4908  1.4416
  453MOL0     H59752  11.842   9.327   3.243  2.1212  0.2476  1.9859
  453MOL0     H59753  11.763   9.469   3.176 -1.0801 -0.6824  2.4058
  453MOL0     H59754  11.993   9.443   3.385  2.2077  1.0975 -0.7787
  453MOL0     H59755  11.987   9.586   3.280  0.9809 -2.8071 -3.2767
  453MOL0     H59756  11.750   9.635   3.381 -1.0817  0.7087  2.3296
  453MOL0     H59757  11.891   9.632   3.494  1.7463  2.6498 -2.8605
  453MOL0     H59758  11.607   9.656   3.533  0.0959 -1.0220 -1.6115
  453MOL0     H59759  11.391   9.632   3.676 -1.4149 -1.0948  0.2424
  453MOL0     H59760  11.151   9.441   4.122 -1.7040  0.7771 -1.7532
  453MOL0     H59761  10.973   9.328   4.211  1.2449 -2.4450  1.4605
  453MOL0     H59762  10.755   9.244   4.175 -1.5813  0.2635  1.5245
  453MOL0     H59763  10.782   9.121   4.274  0.5986  0.7026 -0.3957
  453MOL0     H59764  10.545   9.142   4.238  2.1616  2.6973 -2.2400
  453MOL0     H59765  10.602   8.980   4.212  1.4207  0.1135  0.1337
  453MOL0     H59766  10.565   9.170   3.982 -1.0350 -0.3815 -2.2206
  453MOL0     H59767  10.435   9.057   4.036  0.8711 -3.3719 -2.4132
  453MOL0     H59768  10.717   8.972   3.962  0.0410  0.2601  3.4246
  453MOL0     H59769  10.589   8.871   4.017  3.9607 -1.4323 -0.5190
  453MOL0     H59770  10.486   8.877   3.807  1.3961 -1.1667 -0.4297
  453MOL0     H59771  10.654   8.888   3.749 -1.7173 -0.7039 -2.8477
  453MOL0     H59772  10.650   9.130   3.743  0.9399 -0.3013 -1.5148
  453MOL0     H59773  10.469   9.116   3.762  2.0434  0.1359  3.8260
  453MOL0     H59774  10.544   9.138   3.523 -0.4335 -0.7661 -1.1881
  453MOL0     H59775  10.685   9.029   3.558  1.5207  0.7795  0.8705
  453MOL0     H59776  10.508   8.839   3.565 -1.5197 -0.2872  1.5877
  453MOL0     H59777  10.521   8.926   3.407  0.4806  2.3106 -0.4160
  453MOL0     H59778  10.990   9.028   3.897 -0.5417  2.0085 -0.9643
  453MOL0     H59779  11.170   9.142   3.794 -2.3089  0.8168 -0.4773
  453MOL0     H59780  11.512   9.231   3.769 -0.7179  1.1830  0.6730
  453MOL0     H59781  11.709   9.257   3.624  2.4664  0.8353  1.2821
  453MOL0     H59782  11.444   8.345   3.079 -1.3523 -4.4294  2.9264
  453MOL0     H59783  11.299   8.207   3.173 -1.6371  0.6460  1.3470
  453MOL0     H59784  11.038   7.860   3.301  1.4917  1.8358 -0.7359
  453MOL0     H59785  10.856   7.715   3.288  3.1965  0.2835  2.6080
  453MOL0     H59786  10.669   7.600   3.026  3.5603  1.4173  0.9144
  453MOL0     H59787  10.672   7.747   2.948  0.1313  1.2515  1.0331
  453MOL0     H59788  10.428   7.789   3.048  1.6132  1.5070  0.7930
  453MOL0     H59789  10.450   7.692   2.902  4.5430 -0.3037 -1.0668
  453MOL0     H59790  10.471   7.550   3.164  3.1531 -0.0582 -1.4399
  453MOL0     H59791  10.399   7.488   3.016 -5.2041  0.8559 -2.4680
  453MOL0     H59792  10.275   7.688   3.211  1.3807  0.5501 -0.9425
  453MOL0     H59793  10.190   7.637   3.064 -0.3224  2.1422  1.1684
  453MOL0     H59794  10.127   7.284   3.271 -3.0222  1.6558  0.9991
  453MOL0     H59795  10.643   8.014   3.056  0.9298 -2.3840 -2.7390
  453MOL0     H59796  10.829   8.174   3.089  2.9305  0.3548 -3.2783
  454MOL0     O59797   3.254   7.838   8.381  0.6932 -0.8089  0.0912
  454MOL0     C59798   3.269   7.721   8.410 -0.2935  0.8195 -0.7849
  454MOL0     O59799   3.226   7.618   8.342  0.2488  0.5368  0.0122
  454MOL0     C59800   3.162   7.642   8.219  0.6986 -0.3095 -0.7552
  454MOL0     C59801   3.237   7.650   8.110  0.0691 -0.0061 -0.6654
  454MOL0     C59802   3.174   7.671   7.986  0.3327 -0.1491  0.4068
  454MOL0     C59803   3.032   7.689   7.970  0.7624 -1.2789 -0.3804
  454MOL0     O59804   2.996   7.749   7.855  0.2349  0.1630 -0.1234
  454MOL0     C59805   2.857   7.780   7.838  0.7628 -0.5835 -0.0239
  454MOL0     C59806   2.826   7.869   7.712 -0.4973  0.0166 -0.3950
  454MOL0     C59807   2.933   7.973   7.703  0.1607 -1.1928  0.1934
  454MOL0     C59808   2.923   8.087   7.598  0.2322 -0.3803  0.6883
  454MOL0     C59809   2.927   8.048   7.455  0.3002 -0.1084  0.1425
  454MOL0     C59810   2.925   8.175   7.369 -0.8684  0.5413  0.1018
  454MOL0     C59811   2.865   8.156   7.225  0.1131  0.7659 -0.6295
  454MOL0     C59812   2.976   8.114   7.122  1.2228 -0.2292  0.3740
  454MOL0     N59813   2.914   8.119   6.992  0.4388  0.5507  0.9411
  454MOL0     C59814   2.832   8.020   6.941 -0.2511  0.4762  0.5910
  454MOL0     C59815   2.787   8.063   6.828 -0.3722 -0.0377  0.8724
  454MOL0     C59816   2.715   7.995   6.716  0.5264  0.0423  0.1062
  454MOL0     C59817   2.694   8.084   6.593  1.4708 -0.3553 -0.3942
  454MOL0     C59818   2.823   8.110   6.513  0.7910  0.6031 -0.0518
  454MOL0     C59819   2.791   8.141   6.372 -0.3396 -0.7767  0.2411
  454MOL0     O59820   2.734   8.269   6.355  0.4176 -0.0241  0.0678
  454MOL0     C59821   2.817   8.373   6.347  0.0303  0.0666 -0.0219
  454MOL0     C59822   2.751   8.494   6.332 -0.4519  0.6003  0.3974
  454MOL0     C59823   2.830   8.614   6.333  0.1637 -0.0727  0.6521
  454MOL0     C59824   2.970   8.614   6.339 -0.6223 -0.4323  0.7018
  454MOL0     C59825   3.041   8.745   6.347 -1.0557 -0.3385  0.4496
  454MOL0     O59826   2.959   8.852   6.326 -0.0227  0.9176 -0.0523
  454MOL0     C59827   3.022   8.974   6.327 -0.2231  0.0802 -0.2483
  454MOL0     C59828   3.144   9.009   6.271 -0.6458  0.2346  0.3750
  454MOL0     C59829   3.184   9.143   6.262 -0.3254 -1.1309  0.1460
  454MOL0     C59830   3.105   9.243   6.318 -0.2548  0.0619 -0.0253
  454MOL0     O59831   3.162   9.369   6.326  1.1920  0.0172  0.0731
  454MOL0     C59832   3.093   9.489   6.353 -0.2729  0.6259 -0.8582
  454MOL0     C59833   3.183   9.614   6.377  0.4122 -0.2980 -0.3099
  454MOL0     C59834   3.095   9.728   6.429  0.0394  0.0740  0.0320
  454MOL0     C59835   3.167   9.863   6.450 -0.5125 -0.3189  0.3376
  454MOL0     C59836   3.269   9.859   6.565 -0.0920  0.2189  0.6612
  454MOL0     C59837   3.403   9.923   6.523 -0.6162 -0.2309  0.3302
  454MOL0     C59838   3.487   9.826   6.436  0.9037  0.3634  0.7779
  454MOL0     C59839   3.637   9.864   6.426  0.0785  0.5055  0.2710
  454MOL0    Cl59840   3.693   9.825   6.591  0.0630  0.2512  0.1384
  454MOL0     C59841   2.976   9.213   6.362  0.2727  0.7751  1.1626
  454MOL0     C59842   2.937   9.081   6.357 -0.1494  0.7912  0.7908
  454MOL0     O59843   3.160   8.754   6.380 -1.3710 -0.5246 -1.2114
  454MOL0     C59844   3.036   8.490   6.346 -0.0967  0.4520  0.6252
  454MOL0     C59845   2.960   8.369   6.359 -0.1833  0.0291 -0.1902
  454MOL0     N59846   2.846   8.186   6.801 -0.3562 -0.0887  0.5967
  454MOL0     N59847   2.907   8.219   6.907 -1.2762 -1.2077  0.7659
  454MOL0     C59848   2.958   7.686   8.091  1.2449 -0.6655  0.3823
  454MOL0     C59849   3.026   7.662   8.214 -0.3182  0.4781 -0.0433
  454MOL0     C59850   3.357   7.683   8.522 -0.0729 -0.0810 -0.9006
  454MOL0     C59851   3.334   7.558   8.583  0.5670  1.0499 -0.4739
  454MOL0     C59852   3.421   7.513   8.686  0.1160  0.1492  0.6060
  454MOL0     C59853   3.527   7.594   8.735 -0.5741 -0.1789 -0.1797
  454MOL0     O59854   3.624   7.570   8.820 -0.6153 -0.0744 -0.9692
  454MOL0     C59855   3.620   7.438   8.874  0.3248  0.3712 -0.6037
  454MOL0     C59856   3.742   7.408   8.958  0.2335 -0.3000  0.3530
  454MOL0     C59857   3.882   7.480   8.911  0.6877 -0.3191  0.2929
  454MOL0     C59858   3.903   7.452   8.773 -0.3802  0.2558  0.4349
  454MOL0     C59859   3.918   7.302   8.744  0.2051 -0.0645  0.3712
  454MOL0     C59860   3.928   7.187   8.732  0.4222 -0.7018  0.7398
  454MOL0     C59861   3.549   7.718   8.668 -0.7831  0.4115  0.7191
  454MOL0     C59862   3.465   7.767   8.568 -0.1377  0.1373 -0.3322
  454MOL0     H59863   3.344   7.641   8.124  0.1913  1.7520 -0.2887
  454MOL0     H59864   3.224   7.699   7.894 -0.2943 -2.0103 -0.5758
  454MOL0     H59865   2.824   7.846   7.919  2.7294  0.1991  0.2052
  454MOL0     H59866   2.797   7.689   7.848  1.4034 -0.8155  2.1995
  454MOL0     H59867   2.735   7.927   7.734  0.0137 -0.1814  2.6540
  454MOL0     H59868   2.809   7.808   7.623  1.8010 -1.1507 -0.0848
  454MOL0     H59869   3.030   7.934   7.669  1.1945  2.2788 -1.4095
  454MOL0     H59870   2.944   8.031   7.795  3.2393 -0.8748 -0.2520
  454MOL0     H59871   2.835   8.152   7.610  2.1560  2.6972 -0.5310
  454MOL0     H59872   3.008   8.153   7.618 -0.9400  0.4644  3.3193
  454MOL0     H59873   2.837   7.990   7.434  0.7822 -0.3562 -1.4233
  454MOL0     H59874   3.021   7.993   7.440  1.3037  1.5739  0.0167
  454MOL0     H59875   3.024   8.222   7.359 -1.6281  2.1696 -0.0291
  454MOL0     H59876   2.859   8.241   7.424  0.4288  0.4116  1.9119
  454MOL0     H59877   2.783   8.083   7.225  1.0860 -0.6292  3.6916
  454MOL0     H59878   2.842   8.258   7.194  0.3909  0.3422 -2.3047
  454MOL0     H59879   3.014   8.014   7.146  0.3814 -0.1909  1.9749
  454MOL0     H59880   3.053   8.191   7.130  1.1267 -0.1864  0.9126
  454MOL0     H59881   2.838   7.914   6.965  0.6527  0.4819  0.4139
  454MOL0     H59882   2.620   7.949   6.747 -0.1934  3.3649  3.7196
  454MOL0     H59883   2.777   7.913   6.679 -1.7417 -1.7356 -0.0639
  454MOL0     H59884   2.652   8.178   6.630 -0.2832 -1.0925 -0.4287
  454MOL0     H59885   2.615   8.035   6.536  0.1904  1.1479  0.0441
  454MOL0     H59886   2.875   8.197   6.553 -0.0293  0.1372  2.1251
  454MOL0     H59887   2.890   8.024   6.517  2.1471  1.4485 -2.3567
  454MOL0     H59888   2.721   8.064   6.340  0.1297 -0.7302 -0.9380
  454MOL0     H59889   2.879   8.124   6.310 -0.4981 -0.9822  0.0748
  454MOL0     H59890   2.643   8.503   6.324 -0.3395  0.9369 -1.1494
  454MOL0     H59891   2.774   8.707   6.339 -2.1067 -1.1595 -1.5597
  454MOL0     H59892   3.207   8.943   6.213 -0.5298  0.4720  0.2272
  454MOL0     H59893   3.271   9.170   6.203 -1.9330  3.0346 -0.6161
  454MOL0     H59894   3.020   9.477   6.434 -1.4051  0.8817 -1.8037
  454MOL0     H59895   3.022   9.504   6.271 -2.2288 -3.3602 -0.1620
  454MOL0     H59896   3.234   9.649   6.286 -1.4706  0.2343 -1.2058
  454MOL0     H59897   3.258   9.586   6.452  0.0242 -2.0430 -0.5290
  454MOL0     H59898   3.044   9.706   6.523  1.4572 -0.7297  0.6481
  454MOL0     H59899   3.030   9.748   6.343  0.7977 -2.7994 -1.3399
  454MOL0     H59900   3.199   9.895   6.351 -1.9040 -1.0778 -0.3823
  454MOL0     H59901   3.093   9.940   6.470 -1.1087 -0.7773 -0.0782
  454MOL0     H59902   3.291   9.759   6.604 -1.5540 -0.8968 -1.1909
  454MOL0     H59903   3.232   9.918   6.648 -0.7829  0.0920  0.4498
  454MOL0     H59904   3.460   9.949   6.613 -0.7428 -2.1373  1.0086
  454MOL0     H59905   3.393  10.015   6.465 -0.5364 -0.9101 -0.8071
  454MOL0     H59906   3.469   9.725   6.473 -1.8932  1.0028  1.4280
  454MOL0     H59907   3.444   9.837   6.336  0.4280  0.0958  0.9499
  454MOL0     H59908   3.635   9.971   6.402 -5.1655  0.5112 -0.4587
  454MOL0     H59909   3.693   9.810   6.349  0.2926  0.3376  0.5440
  454MOL0     H59910   2.907   9.289   6.395  2.1125  2.8399  0.4971
  454MOL0     H59911   2.836   9.071   6.396 -0.5054 -1.7073 -0.5634
  454MOL0     H59912   3.143   8.478   6.358  0.1921  0.7264 -1.3421
  454MOL0     H59913   3.023   8.282   6.367  2.3126  1.1314 -4.4259
  454MOL0     H59914   2.854   7.716   8.086  1.5787  0.6846  0.8995
  454MOL0     H59915   2.965   7.655   8.303 -3.0639  0.1387 -1.8356
  454MOL0     H59916   3.245   7.503   8.554  1.8687 -1.6054  0.3052
  454MOL0     H59917   3.409   7.414   8.728 -0.6261 -0.1881 -0.3626
  454MOL0     H59918   3.628   7.363   8.795  0.2882 -1.4260  1.0420
  454MOL0     H59919   3.526   7.436   8.929  0.9831  0.3596  0.5553
  454MOL0     H59920   3.716   7.445   9.057 -2.5929 -1.9210  0.3254
  454MOL0     H59921   3.740   7.299   8.969  1.1763 -0.2108  1.5955
  454MOL0     H59922   3.964   7.446   8.974  0.6405 -1.6116 -0.3241
  454MOL0     H59923   3.868   7.588   8.925  4.4280  0.1104  1.6985
  454MOL0     H59924   3.827   7.495   8.707  0.8495 -1.8357 -2.5736
  454MOL0     H59925   4.000   7.502   8.762  1.3253 -1.8946  3.9232
  454MOL0     H59926   3.946   7.082   8.746 -1.1146 -1.0073  0.6241
  454MOL0     H59927   3.627   7.775   8.718 -0.6895  0.6564  0.2891
  454MOL0     H59928   3.482   7.863   8.520 -2.6630  1.4013  1.0580
  455MOL0     O59929   4.995   6.608  11.234  0.1297 -0.2028 -0.1194
  455MOL0     C59930   5.111   6.614  11.180  0.5752 -0.0962 -0.4314
  455MOL0     O59931   5.143   6.646  11.051 -0.5286  0.4097  0.1552
  455MOL0     C59932   5.045   6.652  10.948  0.0159  0.2675 -0.2093
  455MOL0     C59933   5.076   6.586  10.830  0.9541  0.0560 -0.2196
  455MOL0     C59934   4.977   6.576  10.734  0.5399 -1.0253 -0.4685
  455MOL0     C59935   4.849   6.645  10.753  1.1081  0.2407 -0.4967
  455MOL0     O59936   4.759   6.624  10.657 -0.5046  0.4037 -0.6005
  455MOL0     C59937   4.615   6.642  10.683 -0.1244 -0.1354  0.9731
  455MOL0     C59938   4.529   6.574  10.572  0.4378 -0.3928  0.1031
  455MOL0     C59939   4.375   6.584  10.600 -0.4555  0.9415 -0.3789
  455MOL0     C59940   4.326   6.480  10.710 -0.0056 -0.6026 -0.0728
  455MOL0     C59941   4.201   6.541  10.783  0.0919 -0.9216 -0.2833
  455MOL0     C59942   4.078   6.553  10.694 -0.0371 -0.7859  0.1342
  455MOL0     C59943   3.943   6.544  10.756  0.3806 -1.3051 -0.4121
  455MOL0     C59944   3.906   6.647  10.864  0.3671  1.4539 -0.2370
  455MOL0     N59945   3.975   6.618  10.992 -0.8368 -0.1564 -0.2271
  455MOL0     C59946   4.030   6.713  11.077  0.5295 -0.1844  0.3172
  455MOL0     C59947   4.099   6.644  11.164 -0.8696 -0.9894 -0.0796
  455MOL0     C59948   4.199   6.723  11.261  0.1949  0.3627  0.8543
  455MOL0     C59949   4.136   6.801  11.373  0.4560 -0.7521 -0.5266
  455MOL0     C59950   4.236   6.888  11.439 -0.0439 -0.0487  0.6773
  455MOL0     C59951   4.370   6.822  11.480 -0.7186 -0.0636 -0.8339
  455MOL0     O59952   4.453   6.924  11.538  0.1329  0.0730  0.3928
  455MOL0     C59953   4.424   6.952  11.672 -0.0932  0.2886 -0.0828
  455MOL0     C59954   4.521   7.019  11.733 -0.2469 -0.5819 -0.1757
  455MOL0     C59955   4.509   7.068  11.868 -0.2664  0.0099 -0.1961
  455MOL0     C59956   4.404   7.017  11.948 -0.3832 -1.3780 -0.2143
  455MOL0     C59957   4.399   7.069  12.085 -0.9429  0.1442  0.3273
  455MOL0     O59958   4.522   7.118  12.142  0.1203 -0.0197  0.1188
  455MOL0     C59959   4.536   7.150  12.275  0.1092  1.5092 -0.8848
  455MOL0     C59960   4.660   7.212  12.312  0.3071 -0.2951  0.9462
  455MOL0     C59961   4.691   7.246  12.447 -0.6239 -0.9379 -0.0979
  455MOL0     C59962   4.599   7.231  12.544 -0.2682 -0.0732  0.9837
  455MOL0     O59963   4.625   7.249  12.674 -0.5872 -0.3720  0.7678
  455MOL0     C59964   4.705   7.363  12.720 -0.2897  0.2286  0.5138
  455MOL0     C59965   4.656   7.420  12.854  0.1000 -0.0009 -0.5589
  455MOL0     C59966   4.652   7.568  12.855 -0.0129 -0.6976 -0.7515
  455MOL0     C59967   4.794   7.633  12.888 -0.1470 -0.5462 -0.4739
  455MOL0     C59968   4.786   7.780  12.829  1.0654 -0.1700  0.0139
  455MOL0     C59969   4.884   7.864  12.908  0.7598  0.4181 -0.5798
  455MOL0     C59970   5.032   7.808  12.889  0.2471  0.6771 -0.2150
  455MOL0     C59971   5.137   7.881  12.979  0.0025 -0.0009  0.4510
  455MOL0    Cl59972   5.314   7.862  12.928 -0.4796 -0.1669  0.0921
  455MOL0     C59973   4.480   7.167  12.521 -0.0823 -0.5136  0.4779
  455MOL0     C59974   4.448   7.123  12.385  0.2808  0.1082 -0.1009
  455MOL0     O59975   4.296   7.047  12.146  0.0977 -0.3808  0.3520
  455MOL0     C59976   4.301   6.939  11.895 -0.3496 -0.0461 -0.1737
  455MOL0     C59977   4.312   6.908  11.760 -0.0109  0.1298  0.4431
  455MOL0     N59978   4.072   6.510  11.139  0.1776 -0.4971  0.0448
  455MOL0     N59979   4.003   6.496  11.030 -0.2223 -0.4504  0.0266
  455MOL0     C59980   4.822   6.715  10.876 -0.5386 -0.1779  0.8193
  455MOL0     C59981   4.922   6.720  10.965 -0.5589 -0.2065  0.1173
  455MOL0     C59982   5.223   6.600  11.275 -0.6607 -0.3100  0.4837
  455MOL0     C59983   5.356   6.640  11.243  0.3108 -0.6660 -0.0474
  455MOL0     C59984   5.461   6.620  11.329 -0.4552  0.1018 -0.3914
  455MOL0     C59985   5.433   6.558  11.455 -0.1316  0.1975  0.9670
  455MOL0     O59986   5.530   6.535  11.549  0.2047  0.2094  0.4203
  455MOL0     C59987   5.673   6.544  11.504 -0.0968 -0.1268 -0.6798
  455MOL0     C59988   5.781   6.515  11.613 -0.4530  0.6318  0.1808
  455MOL0     C59989   5.910   6.575  11.559 -0.4930 -0.1515 -0.6721
  455MOL0     C59990   6.040   6.537  11.624 -0.0256  0.0931  0.2939
  455MOL0     C59991   6.156   6.602  11.570  0.1263  0.2639 -0.3872
  455MOL0     C59992   6.247   6.673  11.544  0.2408 -0.5997 -0.4206
  455MOL0     C59993   5.303   6.527  11.489  0.6230  0.5007  0.3933
  455MOL0     C59994   5.198   6.548  11.395 -1.1158  0.1455 -0.7114
  455MOL0     H59995   5.161   6.519  10.817 -0.4568 -1.5245 -1.8217
  455MOL0     H59996   4.990   6.510  10.648  0.8995  1.0113 -2.0761
  455MOL0     H59997   4.583   6.746  10.693  0.8549  0.0685  2.3855
  455MOL0     H59998   4.605   6.575  10.768 -0.1220  0.2525  1.2823
  455MOL0     H59999   4.556   6.469  10.560  0.4040 -0.5918  1.5385
  455MOL0     H60000   4.544   6.631  10.480 -0.9342  0.1822  0.2124
  455MOL0     H60001   4.317   6.579  10.508  0.9658 -0.9407 -1.2328
  455MOL0     H60002   4.363   6.686  10.638  0.6789  1.1141 -0.4323
  455MOL0     H60003   4.292   6.389  10.659 -2.3437  0.9558 -1.4811
  455MOL0     H60004   4.400   6.467  10.789  2.4786  2.5847 -1.6827
  455MOL0     H60005   4.223   6.641  10.822 -1.0284 -0.4481 -0.8311
  455MOL0     H60006   4.175   6.479  10.869  1.3290 -1.6748 -0.4307
  455MOL0     H60007   4.076   6.477  10.615 -0.7071 -1.3152  0.6457
  455MOL0     H60008   4.089   6.649  10.643  0.5732 -1.1472 -0.4283
  455MOL0     H60009   3.871   6.557  10.675  0.8287 -0.6313 -0.7144
  455MOL0     H60010   3.931   6.444  10.799 -3.4358 -0.1654  1.5787
  455MOL0     H60011   3.797   6.647  10.880  0.5065  3.6382  1.2204
  455MOL0     H60012   3.919   6.751  10.833 -0.2342  0.5652 -3.8884
  455MOL0     H60013   4.028   6.821  11.068 -1.3332 -0.3456 -1.9597
  455MOL0     H60014   4.245   6.794  11.191  0.9482  0.2057  1.1801
  455MOL0     H60015   4.273   6.649  11.293 -0.0435 -0.9341 -1.3785
  455MOL0     H60016   4.088   6.747  11.455  4.1582 -1.5195  1.3665
  455MOL0     H60017   4.057   6.863  11.330 -1.5953 -1.9862  1.2642
  455MOL0     H60018   4.258   6.973  11.373  2.2975 -0.4400  0.8857
  455MOL0     H60019   4.177   6.925  11.523  2.3258  0.1382  2.3653
  455MOL0     H60020   4.424   6.779  11.396  0.0717 -2.2434  0.6924
  455MOL0     H60021   4.347   6.745  11.555 -1.2716  1.6227  0.7975
  455MOL0     H60022   4.606   7.052  11.673 -1.2391  0.4600 -1.0571
  455MOL0     H60023   4.583   7.134  11.912  1.2342 -0.5579 -1.7615
  455MOL0     H60024   4.721   7.238  12.226 -0.2604  0.8145  0.8750
  455MOL0     H60025   4.788   7.290  12.467  0.5644 -1.8292 -3.1951
  455MOL0     H60026   4.702   7.443  12.646 -2.4075  1.0629  1.4355
  455MOL0     H60027   4.809   7.331  12.735  0.7818  0.8474 -4.1101
  455MOL0     H60028   4.721   7.393  12.938  0.5613  0.8821 -0.6170
  455MOL0     H60029   4.555   7.382  12.871  0.5296 -2.9080 -3.5262
  455MOL0     H60030   4.581   7.594  12.934 -0.6387 -1.7543 -0.9367
  455MOL0     H60031   4.614   7.624  12.770 -2.8117  0.1289  0.9212
  455MOL0     H60032   4.804   7.633  12.997 -2.6481 -0.3544 -0.2006
  455MOL0     H60033   4.877   7.577  12.843  1.9571  3.3627 -1.9628
  455MOL0     H60034   4.683   7.813  12.849 -0.6041 -5.0270  0.9214
  455MOL0     H60035   4.794   7.776  12.720 -3.2231 -0.0642 -0.5031
  455MOL0     H60036   4.849   7.870  13.011  0.1877  0.1386 -0.7541
  455MOL0     H60037   4.886   7.966  12.870 -1.8842  0.9026  0.3523
  455MOL0     H60038   5.044   7.705  12.924 -2.2680 -0.5959 -2.6996
  455MOL0     H60039   5.073   7.819  12.788 -0.6182 -0.0040 -0.6550
  455MOL0     H60040   5.120   7.831  13.075  1.3429  0.0800  0.7394
  455MOL0     H60041   5.129   7.989  12.994 -0.2540 -0.3464  3.3273
  455MOL0     H60042   4.412   7.141  12.602  1.8999 -1.3430  1.9502
  455MOL0     H60043   4.352   7.073  12.377 -0.7988  1.6733  2.0614
  455MOL0     H60044   4.225   6.906  11.966  1.8823 -0.4801  2.1531
  455MOL0     H60045   4.231   6.849  11.719  1.9492 -1.2833 -1.5556
  455MOL0     H60046   4.728   6.758  10.907 -1.3186 -0.7304 -0.6918
  455MOL0     H60047   4.919   6.778  11.057  0.6661 -0.4795  0.3395
  455MOL0     H60048   5.387   6.680  11.148 -0.0135  0.3172  0.2507
  455MOL0     H60049   5.562   6.642  11.296 -0.3667 -0.5803 -0.5898
  455MOL0     H60050   5.692   6.645  11.468  0.4891  0.5063  1.2970
  455MOL0     H60051   5.687   6.465  11.428  2.4403 -1.2507  0.8326
  455MOL0     H60052   5.750   6.548  11.713 -3.1469 -0.7147 -0.1166
  455MOL0     H60053   5.780   6.407  11.630  1.1071  0.5164 -0.2882
  455MOL0     H60054   5.901   6.683  11.544 -1.5661  0.1588  1.7679
  455MOL0     H60055   5.920   6.536  11.457  1.0273 -0.0555 -0.5865
  455MOL0     H60056   6.043   6.563  11.730  1.4988  0.6381  0.1281
  455MOL0     H60057   6.054   6.429  11.625  1.1932  0.1822  3.5039
  455MOL0     H60058   6.328   6.734  11.507  1.8531 -2.7609 -0.6832
  455MOL0     H60059   5.282   6.493  11.590  1.4812  0.0194  0.4244
  455MOL0     H60060   5.101   6.520  11.436  0.1186 -1.7114  1.1566
  456MOL0     O60061   4.756  10.822   7.539 -0.2586  0.3356 -0.1437
  456MOL0     C60062   4.672  10.898   7.590  0.4184 -0.4289  0.7512
  456MOL0     O60063   4.641  11.023   7.548 -0.3611 -0.3595 -0.2342
  456MOL0     C60064   4.714  11.096   7.452  0.0617  0.1879  0.1112
  456MOL0     C60065   4.659  11.217   7.411 -0.5847  0.1690 -0.9826
  456MOL0     C60066   4.710  11.288   7.300  0.2466 -0.4094 -0.3426
  456MOL0     C60067   4.840  11.259   7.246  0.5404 -0.0477 -0.6751
  456MOL0     O60068   4.910  11.343   7.168  0.2310 -0.0047  0.0168
  456MOL0     C60069   5.029  11.299   7.096 -0.3909 -0.0173 -0.5427
  456MOL0     C60070   5.093  11.416   7.023 -0.2390  0.3650  0.6473
  456MOL0     C60071   5.013  11.462   6.902  0.7838  0.6257 -0.2523
  456MOL0     C60072   4.886  11.537   6.946  0.4095 -0.7895 -0.9068
  456MOL0     C60073   4.823  11.613   6.819  0.4918  0.2613  0.5255
  456MOL0     C60074   4.738  11.509   6.722 -0.5812 -0.1850 -0.0478
  456MOL0     C60075   4.589  11.483   6.774 -1.2760 -0.2196 -0.2115
  456MOL0     C60076   4.504  11.420   6.659  0.4372  0.1317 -0.3695
  456MOL0     N60077   4.478  11.522   6.553  0.0509  0.6670 -0.4325
  456MOL0     C60078   4.426  11.645   6.563 -0.9686  0.0340 -0.5847
  456MOL0     C60079   4.420  11.693   6.437  0.1846 -0.0693 -0.3457
  456MOL0     C60080   4.339  11.817   6.378  0.0712 -1.4752 -0.0596
  456MOL0     C60081   4.198  11.795   6.371 -0.7601  0.2204  0.5593
  456MOL0     C60082   4.131  11.922   6.370 -0.1188 -0.6892  0.7853
  456MOL0     C60083   3.977  11.915   6.357  0.4625  1.3289  0.1987
  456MOL0     O60084   3.955  11.819   6.249  1.0699 -0.5161 -0.4226
  456MOL0     C60085   3.826  11.759   6.242 -0.0850 -0.3367 -0.4653
  456MOL0     C60086   3.826  11.625   6.204 -0.8810 -0.2130 -0.4614
  456MOL0     C60087   3.708  11.550   6.194  0.1222  0.4684 -0.1495
  456MOL0     C60088   3.584  11.610   6.230  0.0190 -0.8892  1.0161
  456MOL0     C60089   3.457  11.537   6.238 -1.4243  0.4215  1.2866
  456MOL0     O60090   3.339  11.597   6.260 -0.2598 -0.0698 -0.3534
  456MOL0     C60091   3.215  11.540   6.240 -0.6593 -0.5670  0.4202
  456MOL0     C60092   3.109  11.602   6.302  0.3887 -0.2138 -0.3800
  456MOL0     C60093   2.979  11.562   6.278 -0.1469 -0.8848  0.1149
  456MOL0     C60094   2.947  11.447   6.212 -0.5633 -0.2644  0.0182
  456MOL0     O60095   2.826  11.386   6.206 -0.0152 -0.5136 -0.4778
  456MOL0     C60096   2.707  11.466   6.215 -0.0280 -0.0557  0.0625
  456MOL0     C60097   2.609  11.383   6.141  0.3490  0.2638  0.1261
  456MOL0     C60098   2.463  11.418   6.184  0.3744  0.1151 -0.9319
  456MOL0     C60099   2.361  11.358   6.087  0.3840 -0.3435  0.2799
  456MOL0     C60100   2.226  11.385   6.152 -0.3536 -0.2773  0.3472
  456MOL0     C60101   2.111  11.348   6.063  0.1445  0.1300 -0.1835
  456MOL0     C60102   1.996  11.355   6.168 -0.0197  0.0529  0.7546
  456MOL0     C60103   1.856  11.325   6.088 -0.6063  0.2772 -0.7014
  456MOL0    Cl60104   1.824  11.449   5.961 -1.0047 -0.1284  0.3589
  456MOL0     C60105   3.054  11.376   6.150  0.9357  1.5142  0.1916
  456MOL0     C60106   3.188  11.424   6.161 -0.1099 -0.8134  0.0099
  456MOL0     O60107   3.477  11.413   6.243 -0.0410  0.0022  0.3269
  456MOL0     C60108   3.584  11.740   6.267  1.4265  0.1240 -0.0145
  456MOL0     C60109   3.703  11.813   6.272  0.0877 -0.6829 -0.2570
  456MOL0     N60110   4.475  11.599   6.352  0.0927 -0.4913  0.4667
  456MOL0     N60111   4.515  11.506   6.422 -0.3546  0.0962 -0.1312
  456MOL0     C60112   4.905  11.142   7.300  0.2251 -0.3611 -0.5796
  456MOL0     C60113   4.841  11.062   7.391  0.2218 -0.3826 -0.4173
  456MOL0     C60114   4.591  10.844   7.692 -0.1479  0.9483  0.4802
  456MOL0     C60115   4.472  10.899   7.731 -0.3603  0.6793 -0.1107
  456MOL0     C60116   4.393  10.827   7.822  0.5500 -0.2913 -0.4230
  456MOL0     C60117   4.438  10.719   7.897 -0.4533 -1.1963 -0.2182
  456MOL0     O60118   4.346  10.666   7.984 -0.4007  0.0785 -0.4876
  456MOL0     C60119   4.346  10.536   8.054 -0.4560 -0.0108  1.0270
  456MOL0     C60120   4.210  10.512   8.116  0.1299  0.6133 -0.2038
  456MOL0     C60121   4.219  10.559   8.263  0.6489  0.2935  0.2209
  456MOL0     C60122   4.083  10.556   8.329  0.1528  0.6726  0.4877
  456MOL0     C60123   4.105  10.635   8.458  0.8090  0.2512  1.3214
  456MOL0     C60124   4.125  10.690   8.562 -0.0102 -0.2896 -0.3282
  456MOL0     C60125   4.558  10.667   7.863 -0.5413 -0.4954 -0.0341
  456MOL0     C60126   4.636  10.728   7.760 -0.1179  0.1370 -0.1217
  456MOL0     H60127   4.575  11.262   7.463 -0.2756  1.7887 -1.8195
  456MOL0     H60128   4.658  11.373   7.256 -1.5015 -0.9291  0.6171
  456MOL0     H60129   5.005  11.216   7.028 -1.7038 -1.0419  1.1013
  456MOL0     H60130   5.103  11.263   7.168  0.0908  1.0464 -0.4988
  456MOL0     H60131   5.191  11.383   6.987 -0.8676  0.1318 -0.9185
  456MOL0     H60132   5.109  11.500   7.091 -1.9431 -0.4410  2.1299
  456MOL0     H60133   4.994  11.363   6.860  0.3964 -0.0446  1.4088
  456MOL0     H60134   5.086  11.512   6.838 -0.6119  2.4534 -0.5099
  456MOL0     H60135   4.810  11.467   6.983  1.4168 -1.2534  0.3572
  456MOL0     H60136   4.909  11.617   7.017  3.4691 -0.0153 -2.6043
  456MOL0     H60137   4.902  11.648   6.753 -1.3345  0.4159 -1.7199
  456MOL0     H60138   4.767  11.696   6.864 -1.4137  0.0902 -1.3636
  456MOL0     H60139   4.794  11.415   6.731 -0.7146 -0.0717  4.2696
  456MOL0     H60140   4.747  11.555   6.624 -0.4072  2.4896  1.1346
  456MOL0     H60141   4.600  11.422   6.864 -0.2992  2.2996  1.4881
  456MOL0     H60142   4.545  11.579   6.801  1.2895  0.3445  2.5598
  456MOL0     H60143   4.404  11.394   6.694 -0.0919  2.0298 -0.4142
  456MOL0     H60144   4.553  11.328   6.624  3.1211  1.4906 -0.4859
  456MOL0     H60145   4.387  11.693   6.652  0.2788 -5.3701  3.4611
  456MOL0     H60146   4.364  11.841   6.274 -2.7103  0.3714 -0.3939
  456MOL0     H60147   4.377  11.892   6.447  0.4993  0.8017 -2.5830
  456MOL0     H60148   4.170  11.738   6.460  1.1699 -0.2317  0.9244
  456MOL0     H60149   4.186  11.732   6.282 -0.9170  2.0962 -0.8187
  456MOL0     H60150   4.156  11.976   6.462 -0.1804 -1.2622  1.1402
  456MOL0     H60151   4.158  11.979   6.281 -1.8370  1.7952  1.7281
  456MOL0     H60152   3.938  12.009   6.318 -1.3547  1.6747  2.5692
  456MOL0     H60153   3.930  11.876   6.448  1.4840 -1.5057 -0.3871
  456MOL0     H60154   3.918  11.580   6.171 -1.1192 -0.8077 -0.3352
  456MOL0     H60155   3.709  11.445   6.165 -1.6886 -1.0346  4.2940
  456MOL0     H60156   3.130  11.699   6.347 -1.1327 -0.5583  1.1626
  456MOL0     H60157   2.897  11.620   6.320  1.0566  1.5161 -0.6609
  456MOL0     H60158   2.720  11.561   6.162  1.4004 -0.6243 -0.6703
  456MOL0     H60159   2.658  11.488   6.310 -5.9382  1.2092 -2.8569
  456MOL0     H60160   2.610  11.276   6.163 -1.3330 -0.4983 -2.8903
  456MOL0     H60161   2.618  11.395   6.032 -2.8348  0.0452 -0.2519
  456MOL0     H60162   2.442  11.525   6.192  4.5302  0.9607  2.6320
  456MOL0     H60163   2.450  11.387   6.288 -1.5599 -2.1213 -1.7500
  456MOL0     H60164   2.376  11.401   5.988  0.9137 -2.0754 -0.4454
  456MOL0     H60165   2.366  11.249   6.080 -1.8266 -0.4038 -1.2217
  456MOL0     H60166   2.213  11.492   6.170 -3.3716 -0.4997  0.0156
  456MOL0     H60167   2.211  11.330   6.246 -2.7650  3.6338  2.5475
  456MOL0     H60168   2.132  11.251   6.016 -0.2795 -0.1790  0.2523
  456MOL0     H60169   2.090  11.422   5.986 -0.3162  1.0980  0.8488
  456MOL0     H60170   2.014  11.274   6.239 -1.4200  1.0075  2.2592
  456MOL0     H60171   1.995  11.459   6.204 -0.5218  0.6469 -0.8451
  456MOL0     H60172   1.778  11.321   6.164  1.6654  1.5684  1.8515
  456MOL0     H60173   1.865  11.228   6.038  2.9667  0.5196 -0.7867
  456MOL0     H60174   3.031  11.281   6.103 -3.1349  1.6011  1.6365
  456MOL0     H60175   3.280  11.390   6.113 -0.8395  0.1551 -2.1719
  456MOL0     H60176   3.492  11.790   6.296  1.5197  1.5183 -1.8892
  456MOL0     H60177   3.701  11.914   6.310  1.7892  0.4673 -3.0014
  456MOL0     H60178   5.005  11.121   7.266  0.9302  1.8504 -0.0289
  456MOL0     H60179   4.895  10.977   7.432  1.8832  0.0549 -1.5764
  456MOL0     H60180   4.428  10.985   7.681 -1.6321 -0.5986 -1.2956
  456MOL0     H60181   4.301  10.881   7.841  1.7764  1.8236 -0.0904
  456MOL0     H60182   4.425  10.514   8.125  3.1036  1.3056 -2.1941
  456MOL0     H60183   4.354  10.454   7.982 -1.1145 -0.8009  1.8415
  456MOL0     H60184   4.130  10.570   8.069  1.9529  1.5248 -2.3974
  456MOL0     H60185   4.191  10.405   8.108  1.2947  0.2222  1.6769
  456MOL0     H60186   4.258  10.659   8.246 -0.1133  0.3248 -1.5445
  456MOL0     H60187   4.293  10.505   8.323  2.4047 -1.4431 -3.2200
  456MOL0     H60188   4.004  10.594   8.265 -0.3182 -2.7569 -1.2170
  456MOL0     H60189   4.062  10.451   8.352  2.4839 -0.5029 -2.0879
  456MOL0     H60190   4.132  10.741   8.656  0.1607  0.5922 -0.8040
  456MOL0     H60191   4.595  10.581   7.918  0.4825 -0.8042 -1.1568
  456MOL0     H60192   4.734  10.690   7.731 -0.7569 -1.1077 -0.7285
  457MOL0     O60193   5.718  10.148   5.146  0.8972  0.0573  0.2791
  457MOL0     C60194   5.683  10.063   5.229  0.0762 -0.1404  0.3955
  457MOL0     O60195   5.633   9.941   5.197  0.4894  1.4008  0.4856
  457MOL0     C60196   5.647   9.889   5.073 -0.8316 -0.4003  0.0371
  457MOL0     C60197   5.569   9.939   4.966  1.2391  0.0890  0.1687
  457MOL0     C60198   5.580   9.894   4.834  0.3323  0.2646  0.1859
  457MOL0     C60199   5.663   9.786   4.803  0.3217  0.1545 -1.0418
  457MOL0     O60200   5.653   9.729   4.683 -0.8335 -0.8975 -0.3928
  457MOL0     C60201   5.527   9.710   4.624 -0.6021  0.8247  0.4452
  457MOL0     C60202   5.552   9.606   4.507 -0.6877 -0.5167 -0.5393
  457MOL0     C60203   5.644   9.479   4.531  0.0268  0.2751 -0.8547
  457MOL0     C60204   5.793   9.521   4.530  0.3020  0.1735 -0.1910
  457MOL0     C60205   5.874   9.461   4.643  1.0406 -0.3634 -0.0141
  457MOL0     C60206   5.891   9.313   4.631 -0.2097  0.1526 -1.2790
  457MOL0     C60207   5.978   9.275   4.753 -0.2285  0.5528  0.1008
  457MOL0     C60208   5.967   9.118   4.786 -0.8040  0.1051  0.9354
  457MOL0     N60209   5.992   9.041   4.660  0.4758  0.2375  0.4357
  457MOL0     C60210   6.116   9.010   4.598 -0.1687  0.1874  0.7273
  457MOL0     C60211   6.075   8.925   4.493 -0.9823 -0.5544 -0.2826
  457MOL0     C60212   6.169   8.851   4.404 -0.4004 -0.6595  0.0324
  457MOL0     C60213   6.217   8.961   4.305 -0.3057  0.1002 -0.0191
  457MOL0     C60214   6.326   8.915   4.204 -0.4761  0.0740 -0.6712
  457MOL0     C60215   6.295   8.785   4.118  0.5737 -0.1952  0.0156
  457MOL0     O60216   6.387   8.778   4.007 -0.1336 -0.0683 -0.0275
  457MOL0     C60217   6.345   8.713   3.889 -0.3834  0.6677  0.5382
  457MOL0     C60218   6.438   8.702   3.784  0.3185 -0.7986 -0.0423
  457MOL0     C60219   6.406   8.653   3.654 -0.4995  0.2783 -0.4730
  457MOL0     C60220   6.282   8.602   3.630 -0.2791 -0.1643  0.4751
  457MOL0     C60221   6.242   8.563   3.492  0.8319 -0.1844 -0.4347
  457MOL0     O60222   6.130   8.478   3.475 -0.3740  0.4453  0.0725
  457MOL0     C60223   6.100   8.445   3.346 -0.1446  0.1248  0.0895
  457MOL0     C60224   6.192   8.394   3.246 -0.1472  0.3676 -0.1251
  457MOL0     C60225   6.140   8.343   3.127 -0.8606  0.9552 -0.1863
  457MOL0     C60226   6.006   8.336   3.097  0.4253 -0.5907 -0.1671
  457MOL0     O60227   5.944   8.274   2.989  0.0484  0.0262  0.5497
  457MOL0     C60228   6.028   8.218   2.882 -0.6028  0.4271 -0.1059
  457MOL0     C60229   5.957   8.124   2.778 -0.1537 -0.1159  0.0012
  457MOL0     C60230   5.957   7.981   2.808  0.9023 -0.4359  1.4178
  457MOL0     C60231   5.875   7.933   2.924 -0.3020  0.3676  0.1176
  457MOL0     C60232   5.877   7.788   2.932  0.0966 -0.4499  0.1437
  457MOL0     C60233   5.803   7.718   3.051 -0.0123  0.9022  0.1014
  457MOL0     C60234   5.652   7.712   3.025  0.2315  0.9263  0.0865
  457MOL0     C60235   5.620   7.596   2.948  0.0061 -0.6038 -0.1171
  457MOL0    Cl60236   5.659   7.440   3.040 -0.2012  0.1645 -0.0178
  457MOL0     C60237   5.922   8.396   3.192  0.4104  0.5108  0.4641
  457MOL0     C60238   5.964   8.447   3.312 -0.2644  0.8439 -0.5640
  457MOL0     O60239   6.310   8.621   3.405 -0.1268  0.5199 -0.0019
  457MOL0     C60240   6.179   8.596   3.735 -0.4682 -0.2802 -0.3297
  457MOL0     C60241   6.220   8.648   3.858 -0.2547  0.8142 -0.6697
  457MOL0     N60242   5.936   8.929   4.480 -0.3474  0.0756 -0.5503
  457MOL0     N60243   5.890   9.004   4.580 -0.3943 -0.1109 -0.7560
  457MOL0     C60244   5.743   9.731   4.908  0.0260 -0.3829 -0.2329
  457MOL0     C60245   5.738   9.783   5.041  0.4246 -0.4205  0.1161
  457MOL0     C60246   5.678  10.113   5.368  1.2822  0.4785 -0.5068
  457MOL0     C60247   5.637  10.024   5.463 -0.4451  0.2051 -0.3394
  457MOL0     C60248   5.634  10.059   5.600  0.8611  0.7198 -0.6930
  457MOL0     C60249   5.654  10.187   5.644 -0.2489  0.5860 -0.5751
  457MOL0     O60250   5.624  10.216   5.777  0.1332  0.2176  0.4431
  457MOL0     C60251   5.595  10.341   5.825  0.3799  0.0539  0.2868
  457MOL0     C60252   5.726  10.381   5.895  0.3172 -0.5416 -0.2368
  457MOL0     C60253   5.705  10.479   6.021  0.3306  0.0300 -0.4608
  457MOL0     C60254   5.662  10.401   6.149  0.8163 -1.0163  0.3090
  457MOL0     C60255   5.757  10.307   6.201 -0.8872  0.1436  0.1810
  457MOL0     C60256   5.818  10.207   6.232  0.2234 -0.4981  0.0241
  457MOL0     C60257   5.689  10.278   5.549  0.3781  1.2625 -0.3891
  457MOL0     C60258   5.698  10.247   5.415  0.3620 -0.0675  0.4783
  457MOL0     H60259   5.503  10.019   4.997 -1.8235 -3.0898  2.7140
  457MOL0     H60260   5.514   9.938   4.760 -2.3301 -0.3799  2.0411
  457MOL0     H60261   5.464   9.789   4.582  0.8149  0.8528 -1.8288
  457MOL0     H60262   5.469   9.658   4.701 -0.0160 -0.9533 -0.2458
  457MOL0     H60263   5.581   9.655   4.413 -2.6748 -0.7572 -1.3156
  457MOL0     H60264   5.457   9.565   4.471  0.5903  0.3877 -5.7693
  457MOL0     H60265   5.629   9.428   4.436  1.0554 -0.0147 -0.8691
  457MOL0     H60266   5.621   9.417   4.618  4.9144  1.4782  1.6596
  457MOL0     H60267   5.845   9.487   4.440  1.6198 -1.3231  1.0707
  457MOL0     H60268   5.809   9.629   4.522  4.1971 -0.3552 -1.9325
  457MOL0     H60269   5.816   9.481   4.734 -1.5723  2.2942 -2.0739
  457MOL0     H60270   5.962   9.525   4.650 -0.2687  1.5950 -0.7463
  457MOL0     H60271   5.939   9.291   4.535  3.3135 -0.3445  0.4215
  457MOL0     H60272   5.795   9.262   4.642 -1.3615  2.5654  1.2727
  457MOL0     H60273   6.080   9.292   4.718 -0.7399  1.4928 -1.0068
  457MOL0     H60274   5.955   9.338   4.839 -2.9975 -0.2724  0.0681
  457MOL0     H60275   5.870   9.093   4.829 -1.6266  1.8606  0.1748
  457MOL0     H60276   6.053   9.092   4.849 -0.5280 -1.8186 -0.1309
  457MOL0     H60277   6.217   9.037   4.630 -1.0324  0.2712  3.6376
  457MOL0     H60278   6.114   8.768   4.359 -1.7015 -0.2821  0.8698
  457MOL0     H60279   6.256   8.803   4.450  1.1841  3.3156  1.6519
  457MOL0     H60280   6.244   9.048   4.366 -1.3224  0.1479  0.3707
  457MOL0     H60281   6.138   9.001   4.241  2.4716  3.9381 -1.4488
  457MOL0     H60282   6.342   8.994   4.131  1.0111 -2.4808 -3.3563
  457MOL0     H60283   6.414   8.903   4.269 -1.5709  1.7427  1.2187
  457MOL0     H60284   6.191   8.789   4.082  1.2689  1.7963 -2.0080
  457MOL0     H60285   6.311   8.695   4.178 -1.2437  0.4436  1.5629
  457MOL0     H60286   6.537   8.746   3.796  0.4351 -1.6549  2.7581
  457MOL0     H60287   6.477   8.650   3.572 -2.7575  0.7782 -2.5988
  457MOL0     H60288   6.297   8.390   3.273 -0.4239 -0.0189  0.9651
  457MOL0     H60289   6.213   8.300   3.059 -0.9220 -1.5293  1.1832
  457MOL0     H60290   6.112   8.159   2.921  2.9303  4.6428 -0.6058
  457MOL0     H60291   6.079   8.292   2.819  3.7572 -3.3445 -1.5322
  457MOL0     H60292   6.019   8.137   2.689 -1.2848  1.6801 -0.5793
  457MOL0     H60293   5.860   8.161   2.743 -0.8889 -2.6993 -0.9295
  457MOL0     H60294   6.061   7.950   2.823  1.1197 -0.8222 -0.5664
  457MOL0     H60295   5.928   7.927   2.718 -2.3821 -1.0560  2.7205
  457MOL0     H60296   5.928   7.982   3.006 -3.5346  5.7361 -0.5733
  457MOL0     H60297   5.771   7.968   2.923 -0.3943  0.0949  0.0584
  457MOL0     H60298   5.981   7.755   2.928 -0.2742 -1.9555  1.8245
  457MOL0     H60299   5.832   7.750   2.839  0.2872  2.2952 -1.1697
  457MOL0     H60300   5.825   7.775   3.142 -2.4508  0.8367  0.8032
  457MOL0     H60301   5.831   7.613   3.065 -3.4225 -0.0872  0.2416
  457MOL0     H60302   5.595   7.712   3.118 -4.0446  0.3745 -2.3149
  457MOL0     H60303   5.616   7.805   2.979 -0.0113  0.6238 -0.3462
  457MOL0     H60304   5.656   7.602   2.845  0.2767 -0.4082 -0.0120
  457MOL0     H60305   5.512   7.606   2.935  0.1600 -0.6138 -1.5811
  457MOL0     H60306   5.817   8.391   3.168  1.2019 -3.3019 -3.2804
  457MOL0     H60307   5.902   8.502   3.383  1.2703  2.5969 -0.5176
  457MOL0     H60308   6.081   8.553   3.721  1.5447 -5.2455 -1.0316
  457MOL0     H60309   6.136   8.635   3.925  0.0925 -0.5296 -0.4633
  457MOL0     H60310   5.801   9.641   4.890  3.3976  1.3221  1.1564
  457MOL0     H60311   5.797   9.737   5.120 -1.1779 -2.6797  0.1018
  457MOL0     H60312   5.595   9.928   5.435 -3.1805  1.2624 -0.1527
  457MOL0     H60313   5.614   9.980   5.672  0.0688  0.8868 -0.7154
  457MOL0     H60314   5.514  10.345   5.898 -0.4043  3.3218 -0.6094
  457MOL0     H60315   5.566  10.403   5.740  1.4699 -0.7320 -0.6952
  457MOL0     H60316   5.790  10.299   5.932  0.9603 -0.4823 -1.1900
  457MOL0     H60317   5.775  10.431   5.812  0.6919 -2.7003 -1.4027
  457MOL0     H60318   5.621  10.549   6.009 -0.2685 -0.4549  0.8052
  457MOL0     H60319   5.798  10.534   6.035  2.7503 -2.0500 -5.7904
  457MOL0     H60320   5.652  10.484   6.220  0.0358  1.6871 -2.6994
  457MOL0     H60321   5.558  10.370   6.145 -0.9135  3.9063 -0.9117
  457MOL0     H60322   5.861  10.114   6.260  2.6514  0.6104  0.1904
  457MOL0     H60323   5.706  10.377   5.589 -2.2528  2.0762 -1.0296
  457MOL0     H60324   5.726  10.321   5.341 -1.0615 -1.6452 -1.7453
  458MOL0     O60325   3.292   7.709   3.396 -0.0705  0.0905  0.3072
  458MOL0     C60326   3.227   7.658   3.308  0.0188 -0.9062 -0.2484
  458MOL0     O60327   3.122   7.566   3.327 -0.5515 -0.4201 -0.1071
  458MOL0     C60328   3.056   7.544   3.444 -0.4377  0.2132  0.1363
  458MOL0     C60329   2.955   7.452   3.432 -0.6785  1.0850  0.3604
  458MOL0     C60330   2.880   7.415   3.545  0.4164 -0.9106  0.0589
  458MOL0     C60331   2.907   7.477   3.663 -1.1503  0.0137  0.3517
  458MOL0     O60332   2.830   7.436   3.766 -0.4160 -0.9720 -0.5049
  458MOL0     C60333   2.776   7.531   3.853  0.0555 -1.1944  0.5204
  458MOL0     C60334   2.656   7.611   3.780 -0.4166 -0.1112  0.6127
  458MOL0     C60335   2.612   7.712   3.880  1.2025  0.6757 -0.6647
  458MOL0     C60336   2.475   7.764   3.844 -1.0098  0.3214 -0.3664
  458MOL0     C60337   2.473   7.846   3.715 -0.2169  1.2590 -0.2125
  458MOL0     C60338   2.569   7.973   3.711 -0.1466  0.3536 -0.1779
  458MOL0     C60339   2.538   8.068   3.590  0.1725  0.6127 -0.2827
  458MOL0     C60340   2.626   8.185   3.602  0.2973  0.5311  0.5337
  458MOL0     N60341   2.580   8.279   3.497  0.2361  0.2250 -0.3611
  458MOL0     C60342   2.479   8.361   3.506  1.0774  0.3523  0.0046
  458MOL0     C60343   2.473   8.428   3.384 -0.9295  0.6995  0.3075
  458MOL0     C60344   2.378   8.542   3.355  0.9717  1.1240  0.1017
  458MOL0     C60345   2.460   8.671   3.341 -0.9277  0.0610  0.2931
  458MOL0     C60346   2.557   8.714   3.451  0.6111  0.8383  1.0075
  458MOL0     C60347   2.632   8.851   3.429  0.7525 -0.3215 -0.2793
  458MOL0     O60348   2.710   8.880   3.547  1.1828 -1.0658 -0.3153
  458MOL0     C60349   2.754   9.005   3.548  0.7259  0.5553  0.9367
  458MOL0     C60350   2.684   9.100   3.624  0.0363  0.6791  0.5184
  458MOL0     C60351   2.725   9.232   3.633 -0.4634 -0.2152  1.2007
  458MOL0     C60352   2.845   9.282   3.566  0.4188 -0.1512  0.8510
  458MOL0     C60353   2.899   9.422   3.593  0.8326 -0.0989  0.6616
  458MOL0     O60354   2.792   9.510   3.618 -0.7560  0.1529 -0.3277
  458MOL0     C60355   2.791   9.648   3.634 -0.0781  0.2725  0.5434
  458MOL0     C60356   2.907   9.715   3.675  0.2747 -0.0484  0.3148
  458MOL0     C60357   2.913   9.851   3.678  0.5736  1.2179 -0.5603
  458MOL0     C60358   2.809   9.923   3.623 -0.4274  0.6030  1.1574
  458MOL0     O60359   2.823  10.056   3.611 -0.5542 -0.4431  0.3018
  458MOL0     C60360   2.728  10.122   3.524 -1.5102  0.0998 -0.4528
  458MOL0     C60361   2.766  10.263   3.482 -0.2627 -0.3311  0.4430
  458MOL0     C60362   2.786  10.364   3.602 -0.0463 -0.6507  0.0462
  458MOL0     C60363   2.825  10.499   3.550 -0.0371 -0.0790 -0.3652
  458MOL0     C60364   2.737  10.562   3.437 -0.6442 -0.0852 -0.2105
  458MOL0     C60365   2.613  10.633   3.496 -0.0411  0.3364 -0.1318
  458MOL0     C60366   2.645  10.781   3.561  0.6089 -0.8359  1.0798
  458MOL0     C60367   2.536  10.832   3.654  0.7317 -0.2895  0.1939
  458MOL0    Cl60368   2.466  10.708   3.753  0.8929  0.5850  0.5918
  458MOL0     C60369   2.693   9.849   3.571  0.0747  0.1938 -0.4655
  458MOL0     C60370   2.681   9.710   3.573  0.1644 -0.2948 -0.1082
  458MOL0     O60371   3.015   9.450   3.600 -0.9151  0.1947 -0.1195
  458MOL0     C60372   2.912   9.183   3.490  0.2608  0.1804  1.0918
  458MOL0     C60373   2.867   9.049   3.473 -0.1675  0.2513 -0.6790
  458MOL0     N60374   2.583   8.377   3.308  0.7715 -0.8750 -0.8787
  458MOL0     N60375   2.643   8.297   3.377 -0.6897  0.1001  0.2453
  458MOL0     C60376   3.008   7.578   3.674 -0.6856  0.7544 -0.4700
  458MOL0     C60377   3.087   7.614   3.564  1.0581 -0.4124  0.4314
  458MOL0     C60378   3.264   7.693   3.166 -0.7372  0.0515  0.0185
  458MOL0     C60379   3.365   7.790   3.145 -0.3039  0.2585  1.1680
  458MOL0     C60380   3.410   7.807   3.018 -1.2795 -0.4176  0.5035
  458MOL0     C60381   3.357   7.742   2.903  0.3198  0.5456 -1.2356
  458MOL0     O60382   3.409   7.760   2.779 -0.0878  0.2943 -0.4408
  458MOL0     C60383   3.383   7.879   2.715 -0.4196 -1.6767  0.0419
  458MOL0     C60384   3.500   7.913   2.622  0.2480  0.0948 -0.2382
  458MOL0     C60385   3.468   8.034   2.538 -0.4781  0.3708 -0.3921
  458MOL0     C60386   3.436   8.162   2.620  0.1219  0.5687 -0.4735
  458MOL0     C60387   3.374   8.261   2.537 -0.2823 -0.2827 -0.4610
  458MOL0     C60388   3.341   8.330   2.446 -0.3605  0.1102 -0.1183
  458MOL0     C60389   3.252   7.651   2.926 -0.0089 -0.4913  0.2611
  458MOL0     C60390   3.201   7.621   3.054 -1.0300  0.1010 -0.0155
  458MOL0     H60391   2.940   7.397   3.339  1.1093  0.0696  0.6265
  458MOL0     H60392   2.800   7.342   3.537 -2.4481  1.9913  0.0578
  458MOL0     H60393   2.852   7.602   3.885 -2.1347  1.0406  1.0507
  458MOL0     H60394   2.723   7.483   3.936 -0.7864 -2.6731 -0.8036
  458MOL0     H60395   2.573   7.544   3.753 -1.9032  1.7874  0.1942
  458MOL0     H60396   2.694   7.659   3.689  0.5190 -0.7843  0.6392
  458MOL0     H60397   2.686   7.792   3.897  0.4089  0.8549  2.3631
  458MOL0     H60398   2.588   7.660   3.973 -1.1405 -1.4248 -2.2954
  458MOL0     H60399   2.409   7.679   3.829 -2.3053  1.0190  1.1547
  458MOL0     H60400   2.439   7.828   3.924  0.0546  0.0587  0.3486
  458MOL0     H60401   2.371   7.885   3.707 -2.7407 -4.0998  1.5942
  458MOL0     H60402   2.513   7.776   3.641  1.0875 -0.9819  2.4117
  458MOL0     H60403   2.672   7.937   3.711 -0.2922 -0.0851  0.7612
  458MOL0     H60404   2.557   8.028   3.805 -0.1041 -1.2114  0.7928
  458MOL0     H60405   2.561   8.037   3.488 -4.3982  0.1593 -1.3723
  458MOL0     H60406   2.431   8.088   3.586 -0.2708 -1.5473 -0.3510
  458MOL0     H60407   2.725   8.153   3.569 -0.6248  0.6875 -2.8461
  458MOL0     H60408   2.625   8.220   3.705 -2.1827 -1.0403  1.1403
  458MOL0     H60409   2.403   8.377   3.582 -1.4969 -1.9551 -1.8502
  458MOL0     H60410   2.303   8.539   3.434  0.6488 -0.8145 -0.2181
  458MOL0     H60411   2.318   8.528   3.265 -0.6809  1.7102  1.0866
  458MOL0     H60412   2.386   8.752   3.335 -1.3261 -0.0751  2.5196
  458MOL0     H60413   2.522   8.666   3.251 -2.3477 -0.6093 -0.6886
  458MOL0     H60414   2.506   8.723   3.547  1.6925  2.8351  1.4504
  458MOL0     H60415   2.636   8.639   3.462 -0.5667 -1.1728 -2.6333
  458MOL0     H60416   2.557   8.930   3.433  1.4464  0.2996  1.0071
  458MOL0     H60417   2.679   8.865   3.331 -2.8115  1.4664 -1.9247
  458MOL0     H60418   2.584   9.085   3.663 -0.5299  1.9097 -0.3823
  458MOL0     H60419   2.675   9.290   3.709  3.5800  2.4351  2.1542
  458MOL0     H60420   3.000   9.667   3.702 -0.6736 -2.1601  0.0197
  458MOL0     H60421   2.991   9.893   3.740  0.5283 -2.2793  2.1921
  458MOL0     H60422   2.632  10.123   3.578 -0.9625  1.2786  0.5643
  458MOL0     H60423   2.716  10.076   3.426  0.3284 -0.0200 -0.6601
  458MOL0     H60424   2.686  10.288   3.413 -0.6510  0.6641  1.2302
  458MOL0     H60425   2.858  10.259   3.423 -0.6762 -1.6107 -0.1522
  458MOL0     H60426   2.852  10.320   3.677 -1.1855 -1.2374  0.7279
  458MOL0     H60427   2.687  10.365   3.648  1.5381 -0.1019  3.8680
  458MOL0     H60428   2.843  10.564   3.637 -0.5823 -0.7860  0.2891
  458MOL0     H60429   2.921  10.484   3.501  0.2403  1.9584 -0.5234
  458MOL0     H60430   2.722  10.487   3.358  2.8242 -1.1486 -0.0589
  458MOL0     H60431   2.794  10.639   3.384  0.1641 -1.1243 -0.9124
  458MOL0     H60432   2.579  10.567   3.576 -2.6891  2.8517  1.0343
  458MOL0     H60433   2.531  10.648   3.425  0.4247  0.8246 -0.5720
  458MOL0     H60434   2.741  10.784   3.612  1.3685 -1.1254 -0.2661
  458MOL0     H60435   2.662  10.843   3.472  1.6306 -0.3251  1.6101
  458MOL0     H60436   2.444  10.862   3.602  0.0802  0.4761  1.7406
  458MOL0     H60437   2.562  10.919   3.715 -0.7550 -2.0872  3.6598
  458MOL0     H60438   2.599   9.900   3.555  0.3630  0.8857 -0.0289
  458MOL0     H60439   2.598   9.660   3.524  1.6350 -2.4628 -0.5024
  458MOL0     H60440   3.009   9.219   3.455  0.5292  3.4936  4.6079
  458MOL0     H60441   2.931   8.977   3.422  0.9667  0.9886 -0.3269
  458MOL0     H60442   3.021   7.619   3.774 -1.6547  1.4952 -0.6296
  458MOL0     H60443   3.171   7.681   3.582  0.2650  0.5554  0.5910
  458MOL0     H60444   3.416   7.832   3.231 -0.5976 -1.8960  2.4754
  458MOL0     H60445   3.484   7.883   2.995 -0.2126 -0.8321  2.3240
  458MOL0     H60446   3.378   7.965   2.782  1.1817 -0.4966 -1.2783
  458MOL0     H60447   3.284   7.887   2.669  0.0767  3.6186 -0.6522
  458MOL0     H60448   3.583   7.933   2.691 -2.8234  3.2777  2.8891
  458MOL0     H60449   3.517   7.835   2.547 -2.1952 -1.0578  0.2911
  458MOL0     H60450   3.381   8.023   2.472  0.4196  0.7454 -1.6710
  458MOL0     H60451   3.545   8.049   2.463 -1.3810  1.2002 -1.1784
  458MOL0     H60452   3.371   8.144   2.706  0.2613 -0.0127 -0.4879
  458MOL0     H60453   3.531   8.193   2.664  0.7981 -3.4204  1.2542
  458MOL0     H60454   3.326   8.396   2.363 -0.5537 -0.0040 -0.1754
  458MOL0     H60455   3.214   7.608   2.834 -0.4472  2.8809 -1.2975
  458MOL0     H60456   3.128   7.540   3.059  1.4459 -2.2032  1.6731
  459MOL0     O60457   9.238   2.446   4.011  0.3630 -0.2228  0.6179
  459MOL0     C60458   9.332   2.503   4.067 -0.8861  0.0689  0.0262
  459MOL0     O60459   9.466   2.459   4.074 -0.4603  0.4180 -0.6523
  459MOL0     C60460   9.511   2.350   4.001  0.0304  0.0461 -0.3544
  459MOL0     C60461   9.470   2.330   3.871  0.5827 -0.4190  0.2577
  459MOL0     C60462   9.531   2.222   3.808 -0.6162  0.0875 -0.8354
  459MOL0     C60463   9.637   2.140   3.864  0.0327  0.7527  0.2695
  459MOL0     O60464   9.690   2.016   3.818  0.1360  0.4137 -0.1180
  459MOL0     C60465   9.614   1.961   3.710  0.2299  0.1406  0.4093
  459MOL0     C60466   9.665   1.815   3.684 -0.0050  0.1580  0.3665
  459MOL0     C60467   9.809   1.821   3.613 -0.0013  0.2627 -0.0395
  459MOL0     C60468   9.903   1.706   3.656  0.0633 -0.1983 -0.8818
  459MOL0     C60469  10.009   1.697   3.552 -0.6336  0.4264 -0.1701
  459MOL0     C60470  10.107   1.591   3.586  0.6816 -0.4670  0.1746
  459MOL0     C60471  10.220   1.609   3.477  0.5816 -0.0609 -0.7395
  459MOL0     C60472  10.304   1.485   3.496 -0.4989 -0.3632  1.0137
  459MOL0     N60473  10.421   1.488   3.395 -0.4899 -0.1871  0.2340
  459MOL0     C60474  10.415   1.488   3.255 -0.1657 -1.0144 -0.3519
  459MOL0     C60475  10.538   1.488   3.203  0.3614  0.5072 -0.4974
  459MOL0     C60476  10.566   1.509   3.061 -0.8452 -1.7922  0.8724
  459MOL0     C60477  10.708   1.444   3.042  0.2777  0.2424  0.1471
  459MOL0     C60478  10.771   1.507   2.911 -0.8158 -0.2088  0.5981
  459MOL0     C60479  10.692   1.485   2.786  0.4014 -0.1606  0.5240
  459MOL0     O60480  10.745   1.557   2.675  0.0255  0.5501 -0.6776
  459MOL0     C60481  10.683   1.551   2.556 -0.2614 -0.1491  0.6379
  459MOL0     C60482  10.615   1.441   2.502 -0.2120 -0.4091  0.0741
  459MOL0     C60483  10.569   1.439   2.371  0.1732 -0.8731 -0.4838
  459MOL0     C60484  10.578   1.555   2.285  0.2668 -0.0408 -0.2103
  459MOL0     C60485  10.533   1.557   2.138 -0.6805  0.8743 -0.9558
  459MOL0     O60486  10.511   1.668   2.075  0.2112  0.2591  0.2655
  459MOL0     C60487  10.458   1.671   1.948  0.8512  0.3513  0.0750
  459MOL0     C60488  10.317   1.673   1.930  0.3886 -0.5124  0.1713
  459MOL0     C60489  10.261   1.684   1.809 -0.7956  0.1732  0.8446
  459MOL0     C60490  10.346   1.686   1.696 -0.6595  0.3218  1.1894
  459MOL0     O60491  10.319   1.704   1.564 -0.0738  0.2558  0.4899
  459MOL0     C60492  10.176   1.692   1.533 -1.2889 -0.7555 -0.0898
  459MOL0     C60493  10.149   1.700   1.383  0.4666  0.2268 -0.2239
  459MOL0     C60494  10.234   1.619   1.301  0.7909  0.0366  0.5141
  459MOL0     C60495  10.185   1.629   1.160  0.8062  0.3861  0.7597
  459MOL0     C60496  10.255   1.532   1.056 -0.7156  0.0255 -0.7348
  459MOL0     C60497  10.222   1.551   0.911  0.2692 -0.3955  0.2828
  459MOL0     C60498  10.309   1.479   0.803  0.0058 -1.3030  0.0474
  459MOL0     C60499  10.236   1.427   0.681  0.1290 -0.2557 -0.2603
  459MOL0    Cl60500  10.347   1.332   0.570 -0.2237 -0.1765 -0.2325
  459MOL0     C60501  10.490   1.681   1.716 -0.5977  0.3285 -0.3553
  459MOL0     C60502  10.540   1.661   1.843 -0.2858  0.5707  0.0274
  459MOL0     O60503  10.520   1.452   2.084 -0.3173  0.0075  0.7685
  459MOL0     C60504  10.637   1.669   2.348 -0.2467  0.1258 -0.0256
  459MOL0     C60505  10.684   1.669   2.479 -0.1396 -0.0732  0.2785
  459MOL0     N60506  10.613   1.476   3.316 -0.8266  0.7790 -0.1102
  459MOL0     N60507  10.551   1.490   3.426 -0.2455  0.3902 -0.6159
  459MOL0     C60508   9.674   2.179   3.995 -0.1131  0.6263 -0.0300
  459MOL0     C60509   9.613   2.285   4.060 -0.3531  0.1822  0.9768
  459MOL0     C60510   9.299   2.629   4.135  0.2347  0.5038  0.3565
  459MOL0     C60511   9.177   2.684   4.119  0.2634 -0.2274 -0.4630
  459MOL0     C60512   9.131   2.800   4.190 -0.4451 -0.4052  0.1545
  459MOL0     C60513   9.226   2.865   4.268 -0.0774 -0.1966 -0.3035
  459MOL0     O60514   9.197   2.959   4.361  0.3678 -0.1592  0.2246
  459MOL0     C60515   9.076   3.030   4.356 -0.2437 -0.0079 -0.4005
  459MOL0     C60516   9.074   3.122   4.478 -0.1554 -0.2560 -0.2471
  459MOL0     C60517   9.052   3.067   4.616  0.5257  0.4195  0.3630
  459MOL0     C60518   9.078   3.167   4.726  0.5826 -0.1474 -0.4713
  459MOL0     C60519   9.188   3.261   4.732 -0.5007  0.9858  0.2172
  459MOL0     C60520   9.279   3.341   4.722  0.8655  0.9380 -0.5689
  459MOL0     C60521   9.363   2.814   4.283  0.3409 -0.6418  0.3277
  459MOL0     C60522   9.394   2.698   4.213  0.9814  0.8187  0.8820
  459MOL0     H60523   9.399   2.393   3.818  2.2052  0.6809 -0.6998
  459MOL0     H60524   9.493   2.192   3.710  0.1371  1.6460 -1.6537
  459MOL0     H60525   9.630   2.029   3.626  1.4752 -2.3062 -1.4293
  459MOL0     H60526   9.513   1.956   3.752  0.8899 -1.3965  1.9484
  459MOL0     H60527   9.591   1.748   3.638 -0.6857  1.8779 -1.1878
  459MOL0     H60528   9.689   1.788   3.787  0.5605  0.5350  0.3367
  459MOL0     H60529   9.863   1.910   3.648 -1.6300  0.5963  1.8155
  459MOL0     H60530   9.793   1.827   3.505 -5.0337  1.7570  0.5439
  459MOL0     H60531   9.951   1.727   3.752 -0.5062 -1.4643 -0.2866
  459MOL0     H60532   9.849   1.610   3.653 -1.2015  0.3196  1.7638
  459MOL0     H60533  10.065   1.790   3.540 -3.7545  2.4096 -0.4326
  459MOL0     H60534   9.969   1.680   3.451  2.2870  4.3505 -2.2663
  459MOL0     H60535  10.057   1.495   3.601 -0.5646 -0.1026 -1.4456
  459MOL0     H60536  10.160   1.625   3.676  3.9143  1.8525 -2.3559
  459MOL0     H60537  10.178   1.618   3.377  1.0352 -2.0105 -1.1356
  459MOL0     H60538  10.287   1.694   3.495 -0.3249  0.5313 -0.0313
  459MOL0     H60539  10.233   1.402   3.484  1.2013 -1.7321 -0.0030
  459MOL0     H60540  10.360   1.470   3.589  4.2875 -0.7666 -1.6046
  459MOL0     H60541  10.327   1.505   3.193 -2.6088  1.5700  3.3745
  459MOL0     H60542  10.561   1.617   3.046  2.8318 -1.5074  0.6834
  459MOL0     H60543  10.496   1.466   2.989 -1.5023  1.5822 -0.6910
  459MOL0     H60544  10.704   1.335   3.033 -3.7269  0.2134  0.4879
  459MOL0     H60545  10.782   1.472   3.118  0.5220 -0.2759  0.1106
  459MOL0     H60546  10.789   1.615   2.918  0.3641 -0.4679  2.1758
  459MOL0     H60547  10.874   1.474   2.897  0.2326  2.0454  2.2860
  459MOL0     H60548  10.585   1.503   2.804 -0.1196 -2.6627  0.3715
  459MOL0     H60549  10.694   1.377   2.764 -3.5798 -0.0395 -1.3622
  459MOL0     H60550  10.603   1.352   2.564 -0.1474 -0.1532  0.4580
  459MOL0     H60551  10.526   1.344   2.340  0.6189 -1.1819 -0.1633
  459MOL0     H60552  10.263   1.673   2.024  1.0118  0.0366  0.5405
  459MOL0     H60553  10.153   1.686   1.798 -0.9825  2.1773  2.4993
  459MOL0     H60554  10.122   1.769   1.589 -0.9611  1.6784 -2.8866
  459MOL0     H60555  10.134   1.597   1.567 -1.4181 -0.5363  0.3806
  459MOL0     H60556  10.169   1.804   1.356  4.1359  0.2262  1.8627
  459MOL0     H60557  10.042   1.679   1.369  0.1179 -0.3687  2.6323
  459MOL0     H60558  10.233   1.521   1.351 -1.5605  0.4749  1.5053
  459MOL0     H60559  10.337   1.653   1.313  0.6748  0.9039 -0.8012
  459MOL0     H60560  10.077   1.613   1.150  1.3653 -6.1344  0.6736
  459MOL0     H60561  10.202   1.731   1.123  0.3181  0.4231  0.6338
  459MOL0     H60562  10.247   1.428   1.088  1.9111  0.6651  2.5580
  459MOL0     H60563  10.363   1.543   1.067 -0.7496  1.7626 -1.7787
  459MOL0     H60564  10.215   1.657   0.886  1.1965 -0.4672 -0.3340
  459MOL0     H60565  10.115   1.529   0.905  0.6328 -2.9217  1.4817
  459MOL0     H60566  10.388   1.542   0.761 -0.5938 -0.0627  0.7365
  459MOL0     H60567  10.359   1.401   0.863  0.4258 -1.0422  0.0415
  459MOL0     H60568  10.208   1.522   0.635  2.5000  0.9975  0.7219
  459MOL0     H60569  10.143   1.372   0.701 -1.1662  2.7235  3.1210
  459MOL0     H60570  10.544   1.667   1.623 -1.0549  1.2425 -0.7693
  459MOL0     H60571  10.644   1.636   1.862 -0.2583 -3.0469 -3.6405
  459MOL0     H60572  10.674   1.754   2.291  1.8067 -0.4798  0.3001
  459MOL0     H60573  10.737   1.758   2.511 -0.1630  0.2587 -0.5731
  459MOL0     H60574   9.752   2.121   4.043 -0.3207 -1.2438 -1.8308
  459MOL0     H60575   9.650   2.311   4.158 -0.8950 -1.1047  1.5454
  459MOL0     H60576   9.107   2.631   4.056  0.2710 -0.3887 -0.3376
  459MOL0     H60577   9.034   2.842   4.162  0.6288  2.4596  0.4242
  459MOL0     H60578   8.994   2.958   4.347  0.0777 -0.1932 -2.5111
  459MOL0     H60579   9.067   3.087   4.263  0.9685 -1.4770 -1.4604
  459MOL0     H60580   9.173   3.169   4.480 -0.9672  1.5568 -0.5096
  459MOL0     H60581   8.996   3.198   4.472 -1.0067 -1.0353  0.5651
  459MOL0     H60582   9.121   2.984   4.629  0.4383 -0.5008 -3.7013
  459MOL0     H60583   8.951   3.025   4.626  0.2410  1.2893  1.2194
  459MOL0     H60584   8.986   3.226   4.735  1.5274  1.1876  0.9707
  459MOL0     H60585   9.086   3.103   4.814 -1.6760  1.5183  1.0842
  459MOL0     H60586   9.366   3.403   4.713  1.3179  0.2509 -1.0235
  459MOL0     H60587   9.435   2.874   4.339  0.7283  1.0023 -1.8051
  459MOL0     H60588   9.492   2.659   4.241  0.3558 -2.4786 -1.0378
  460MOL0     O60589   2.286   6.331   7.451 -0.0775  0.3115 -0.3759
  460MOL0     C60590   2.338   6.225   7.414  0.6590 -0.0986  0.0392
  460MOL0     O60591   2.417   6.141   7.488  0.2038 -0.8763 -0.7352
  460MOL0     C60592   2.423   6.153   7.632  0.2515 -0.9167  0.8712
  460MOL0     C60593   2.398   6.266   7.707 -0.3904 -0.1415 -0.8523
  460MOL0     C60594   2.426   6.262   7.846  0.3157  0.1679 -0.1955
  460MOL0     C60595   2.496   6.151   7.908  1.1883  0.1657  0.1650
  460MOL0     O60596   2.544   6.154   8.040  0.5924  0.0903  0.3874
  460MOL0     C60597   2.458   6.087   8.131  0.0813 -0.5745 -0.3037
  460MOL0     C60598   2.523   6.088   8.276 -0.3486 -0.2093  1.2373
  460MOL0     C60599   2.509   6.228   8.335  0.3900  0.0801 -0.7007
  460MOL0     C60600   2.573   6.245   8.470 -0.2753  0.0614 -0.7005
  460MOL0     C60601   2.725   6.284   8.458 -0.7350  0.5258  0.0428
  460MOL0     C60602   2.791   6.273   8.592 -0.0590  0.6785 -0.1770
  460MOL0     C60603   2.906   6.361   8.598 -1.7915 -0.2008 -0.7141
  460MOL0     C60604   2.975   6.369   8.741 -0.0771 -0.0986  0.3772
  460MOL0     N60605   3.043   6.245   8.770  0.4027 -0.3547 -0.6731
  460MOL0     C60606   3.153   6.201   8.708  0.4165 -0.0783  0.0552
  460MOL0     C60607   3.189   6.088   8.771 -1.0348 -0.2169 -0.8311
  460MOL0     C60608   3.316   6.006   8.742  1.1609 -0.6059 -0.6152
  460MOL0     C60609   3.445   6.068   8.799 -0.4542  0.9331  0.5201
  460MOL0     C60610   3.504   6.186   8.729  0.9869 -1.0880  0.5623
  460MOL0     C60611   3.645   6.226   8.770  0.5800 -0.2550  0.2564
  460MOL0     O60612   3.734   6.121   8.720  0.7344  0.0417  0.3420
  460MOL0     C60613   3.864   6.150   8.701 -0.4974 -0.7163  1.8608
  460MOL0     C60614   3.932   6.259   8.745 -0.5387 -1.5956 -0.1046
  460MOL0     C60615   4.070   6.273   8.737  1.2962 -0.0333  0.5425
  460MOL0     C60616   4.142   6.177   8.673 -0.9918  0.6161 -0.1010
  460MOL0     C60617   4.292   6.183   8.666 -0.1494 -0.2296 -0.6173
  460MOL0     O60618   4.349   6.087   8.580  0.6675 -0.5547 -0.4977
  460MOL0     C60619   4.485   6.110   8.560 -1.1975 -0.6773 -0.4240
  460MOL0     C60620   4.536   6.235   8.508  0.7813 -0.4147  0.0838
  460MOL0     C60621   4.674   6.256   8.492 -0.9974 -0.7667  0.4454
  460MOL0     C60622   4.776   6.160   8.523 -0.1745  0.9693 -0.6034
  460MOL0     O60623   4.907   6.200   8.514 -0.0581 -0.1317 -0.7109
  460MOL0     C60624   5.014   6.105   8.487 -0.4396 -0.2251  0.2561
  460MOL0     C60625   5.145   6.172   8.519  0.2727 -0.1696  0.1499
  460MOL0     C60626   5.267   6.116   8.445  0.4354 -0.4329  0.4249
  460MOL0     C60627   5.393   6.199   8.482 -1.1062  0.8135  0.7900
  460MOL0     C60628   5.527   6.123   8.483  0.3947 -0.3844  0.4304
  460MOL0     C60629   5.591   6.115   8.349  1.4991 -0.0656 -0.3734
  460MOL0     C60630   5.733   6.066   8.377 -0.4648  0.1089  0.0224
  460MOL0     C60631   5.805   6.062   8.236 -0.3537 -0.5410  0.0116
  460MOL0    Cl60632   5.909   6.209   8.209  0.1478  0.1563 -0.5033
  460MOL0     C60633   4.728   6.039   8.574  0.0840 -0.2667 -0.7264
  460MOL0     C60634   4.586   6.016   8.599  0.2018 -1.9804  0.2801
  460MOL0     O60635   4.347   6.261   8.744 -0.2100 -0.5270  0.0724
  460MOL0     C60636   4.074   6.060   8.633 -0.2800  0.0089  0.4158
  460MOL0     C60637   3.933   6.046   8.638  0.9797 -0.2603 -0.8344
  460MOL0     N60638   3.086   6.059   8.861 -0.6528  1.1330  0.5976
  460MOL0     N60639   2.994   6.155   8.854 -0.4767 -0.1289 -0.3542
  460MOL0     C60640   2.525   6.044   7.826 -0.5152 -0.6791 -0.6016
  460MOL0     C60641   2.488   6.042   7.694  0.0128  0.7469  0.6531
  460MOL0     C60642   2.330   6.203   7.267 -1.1746 -0.5758 -0.6554
  460MOL0     C60643   2.373   6.083   7.217  0.4059  0.5487 -0.5723
  460MOL0     C60644   2.386   6.061   7.081  0.5371 -0.3698 -0.4800
  460MOL0     C60645   2.367   6.171   6.988 -0.7422 -0.0542  0.1216
  460MOL0     O60646   2.385   6.184   6.851 -0.0168 -0.1005 -0.4113
  460MOL0     C60647   2.440   6.063   6.814 -0.0065  0.3245  0.2379
  460MOL0     C60648   2.474   6.079   6.663  0.1588 -0.3398 -0.5776
  460MOL0     C60649   2.516   5.957   6.586 -0.2129 -0.6837  0.1201
  460MOL0     C60650   2.566   5.988   6.443 -0.6650  0.9269 -0.2250
  460MOL0     C60651   2.534   5.873   6.351  0.5560 -1.1764  0.1486
  460MOL0     C60652   2.504   5.776   6.286 -0.6947 -0.8789 -0.8629
  460MOL0     C60653   2.320   6.293   7.043  0.5478 -1.0232 -0.6296
  460MOL0     C60654   2.306   6.307   7.181  1.9595 -0.5961 -0.2547
  460MOL0     H60655   2.347   6.356   7.674  0.8727 -0.1860 -3.0707
  460MOL0     H60656   2.415   6.347   7.911 -1.7631  0.9266 -1.4402
  460MOL0     H60657   2.446   5.982   8.104 -2.1842 -2.1802  5.4050
  460MOL0     H60658   2.362   6.139   8.131  0.7162  0.6331 -0.0862
  460MOL0     H60659   2.621   6.041   8.265 -2.0541 -3.7913  0.0880
  460MOL0     H60660   2.462   6.015   8.330 -2.8032  1.0750  0.3550
  460MOL0     H60661   2.409   6.272   8.324  0.1347 -0.9867 -3.4282
  460MOL0     H60662   2.566   6.297   8.272  0.2975 -0.4318 -1.3569
  460MOL0     H60663   2.516   6.318   8.530  2.4252  1.6815  0.0874
  460MOL0     H60664   2.573   6.153   8.529 -2.8479  1.6576  2.0976
  460MOL0     H60665   2.714   6.387   8.425 -2.3280  0.3891  0.0609
  460MOL0     H60666   2.776   6.224   8.383 -1.3381 -0.4312  0.3683
  460MOL0     H60667   2.808   6.168   8.617 -0.5604  0.9417  1.3991
  460MOL0     H60668   2.722   6.307   8.670 -1.0195 -1.6766  0.1007
  460MOL0     H60669   2.986   6.320   8.535 -1.1847 -0.7023  0.3607
  460MOL0     H60670   2.885   6.460   8.558 -1.3274  0.7176  1.1931
  460MOL0     H60671   2.902   6.401   8.816 -1.5513  2.9119 -2.0892
  460MOL0     H60672   3.040   6.457   8.738 -1.5828  1.1207  1.6616
  460MOL0     H60673   3.214   6.254   8.635 -0.8664  1.1401 -0.1588
  460MOL0     H60674   3.322   5.983   8.635  1.4584  0.2256 -0.7907
  460MOL0     H60675   3.303   5.908   8.788  0.1716 -1.9147 -3.5120
  460MOL0     H60676   3.526   5.994   8.803 -0.5853  0.7786  0.3186
  460MOL0     H60677   3.427   6.104   8.901  0.0047  0.1651  0.8816
  460MOL0     H60678   3.513   6.156   8.624  0.3467  0.3727  0.0668
  460MOL0     H60679   3.449   6.279   8.742  1.5028 -0.5731 -0.8281
  460MOL0     H60680   3.665   6.226   8.878  0.9138  3.6629  0.3476
  460MOL0     H60681   3.670   6.324   8.727  2.5210 -0.1091  1.5580
  460MOL0     H60682   3.876   6.335   8.799  3.4694  0.4989  1.5735
  460MOL0     H60683   4.127   6.353   8.783 -0.0346 -0.1001  2.3905
  460MOL0     H60684   4.462   6.308   8.479  1.1578 -0.6475 -1.5557
  460MOL0     H60685   4.694   6.356   8.454 -1.7386 -0.0946  1.7437
  460MOL0     H60686   5.006   6.085   8.379  0.6760 -4.0843  0.7440
  460MOL0     H60687   5.003   6.022   8.557  2.5929  0.1007  1.2556
  460MOL0     H60688   5.165   6.153   8.625 -2.5803 -3.5954  0.2587
  460MOL0     H60689   5.133   6.277   8.489  1.4180  0.0220  0.3224
  460MOL0     H60690   5.236   6.123   8.340 -2.7167  2.5721  1.3714
  460MOL0     H60691   5.276   6.012   8.477  1.6378 -0.0363  1.4322
  460MOL0     H60692   5.402   6.296   8.433  1.1006 -1.3906 -3.8186
  460MOL0     H60693   5.375   6.232   8.585  3.7419 -0.9105  2.4795
  460MOL0     H60694   5.516   6.020   8.518  0.0804 -1.1045 -1.6407
  460MOL0     H60695   5.587   6.177   8.557 -0.8748 -1.5742  2.4100
  460MOL0     H60696   5.597   6.211   8.297  0.1581  0.9302  1.2071
  460MOL0     H60697   5.518   6.051   8.299 -2.7613  1.2146  3.4417
  460MOL0     H60698   5.794   6.130   8.442  1.8202 -0.5997 -1.3153
  460MOL0     H60699   5.741   5.967   8.423  2.3075  0.3497  0.2321
  460MOL0     H60700   5.732   6.050   8.155  0.3197 -3.9640 -0.2101
  460MOL0     H60701   5.860   5.968   8.239  0.1520 -0.3331 -1.6944
  460MOL0     H60702   4.798   5.965   8.611  1.0149 -0.3320 -2.5137
  460MOL0     H60703   4.555   5.921   8.641 -0.3353 -1.2415  1.5964
  460MOL0     H60704   4.131   5.969   8.618 -0.4901 -0.1968  0.8551
  460MOL0     H60705   3.891   5.947   8.623 -0.0632 -0.0804  0.6853
  460MOL0     H60706   2.563   5.955   7.874 -1.5055 -0.9106 -0.2224
  460MOL0     H60707   2.506   5.954   7.633 -2.8072  0.2390  0.4273
  460MOL0     H60708   2.383   5.992   7.274  3.4712  0.1212 -1.6038
  460MOL0     H60709   2.409   5.961   7.045 -1.8275 -2.0246  2.2510
  460MOL0     H60710   2.372   5.979   6.831 -0.0597  0.6928  2.0957
  460MOL0     H60711   2.536   6.053   6.865  0.4128 -0.2613 -0.6476
  460MOL0     H60712   2.382   6.117   6.616  1.1013  2.5307 -0.2461
  460MOL0     H60713   2.549   6.158   6.657  0.0097 -0.2736 -1.9202
  460MOL0     H60714   2.427   5.893   6.585 -1.8194  1.3641  1.7262
  460MOL0     H60715   2.600   5.905   6.632 -0.5942 -2.5489 -1.1832
  460MOL0     H60716   2.518   6.081   6.410 -0.1825  0.8175 -1.2444
  460MOL0     H60717   2.675   5.997   6.435  0.1852 -4.0425  2.0126
  460MOL0     H60718   2.478   5.701   6.215 -2.0564 -1.1360 -0.1341
  460MOL0     H60719   2.292   6.375   6.978  1.0696  0.6853  1.1933
  460MOL0     H60720   2.283   6.403   7.227 -0.1566 -1.4276  0.5531
  461MOL0     O60721   6.038   6.905   3.196 -0.2293  1.0285  0.4376
  461MOL0     C60722   5.984   6.938   3.300 -0.2039 -0.6260 -1.1248
  461MOL0     O60723   5.930   6.858   3.388 -0.9577 -0.0109 -0.2288
  461MOL0     C60724   5.920   6.727   3.357  1.2733 -0.0450  0.5088
  461MOL0     C60725   5.807   6.671   3.304  0.4869 -0.5245 -1.1010
  461MOL0     C60726   5.805   6.534   3.269  0.2010  0.1908 -0.2250
  461MOL0     C60727   5.910   6.449   3.300 -0.9818 -0.4235 -0.4206
  461MOL0     O60728   5.919   6.314   3.274  0.7327 -0.3878 -0.0945
  461MOL0     C60729   5.810   6.230   3.229  0.2838 -0.0350  0.4692
  461MOL0     C60730   5.862   6.107   3.158  0.7800 -1.2755 -0.1574
  461MOL0     C60731   5.752   6.011   3.135  0.3782 -0.2238  0.0127
  461MOL0     C60732   5.797   5.895   3.046  0.6744 -0.1123  0.3620
  461MOL0     C60733   5.891   5.792   3.103 -0.1079  0.3215  0.8368
  461MOL0     C60734   5.817   5.684   3.187  0.1507  0.5687  0.0923
  461MOL0     C60735   5.927   5.584   3.237 -0.0416 -0.0716 -0.1195
  461MOL0     C60736   5.984   5.602   3.384  0.9789  1.0810 -1.0333
  461MOL0     N60737   6.070   5.719   3.397  0.2039  0.2449 -0.4002
  461MOL0     C60738   6.030   5.849   3.432  0.9012  1.0888  0.6538
  461MOL0     C60739   6.140   5.909   3.435  0.0999 -0.6980  0.2405
  461MOL0     C60740   6.150   6.061   3.435 -0.8651  0.0118  0.0674
  461MOL0     C60741   6.290   6.104   3.498  1.3519 -0.1447 -0.0592
  461MOL0     C60742   6.398   6.128   3.403  0.3019  0.0610  0.5265
  461MOL0     C60743   6.529   6.195   3.456  0.1062 -0.1509 -0.2507
  461MOL0     O60744   6.518   6.337   3.458  0.7783  0.4340  0.3033
  461MOL0     C60745   6.626   6.419   3.427  0.9627  0.7245  0.5385
  461MOL0     C60746   6.649   6.536   3.493  0.0291 -0.2450 -0.0272
  461MOL0     C60747   6.755   6.626   3.448  0.2223 -0.6298 -0.3412
  461MOL0     C60748   6.828   6.607   3.335  0.0377 -0.0382  0.9180
  461MOL0     C60749   6.940   6.704   3.301 -0.1609 -0.0700  0.5782
  461MOL0     O60750   6.972   6.814   3.382 -0.1040  0.4298  0.3279
  461MOL0     C60751   7.078   6.900   3.348 -0.6569 -0.6262 -0.2883
  461MOL0     C60752   7.058   7.013   3.263 -0.1227 -0.1983  0.3410
  461MOL0     C60753   7.175   7.092   3.227  0.0126  1.3822 -0.3278
  461MOL0     C60754   7.305   7.064   3.281  0.1332  0.7628  0.1660
  461MOL0     O60755   7.410   7.135   3.240 -1.0462  0.1053 -0.1004
  461MOL0     C60756   7.539   7.073   3.213 -0.3436 -0.5221 -0.1396
  461MOL0     C60757   7.638   7.165   3.155 -0.6225  0.2731  0.9471
  461MOL0     C60758   7.643   7.159   3.009 -0.1876  0.5215  0.7435
  461MOL0     C60759   7.704   7.028   2.953 -0.3405 -0.1986 -0.1752
  461MOL0     C60760   7.711   7.031   2.802 -0.4641 -0.0199 -0.2119
  461MOL0     C60761   7.747   6.891   2.751  0.2129 -0.7734  1.5295
  461MOL0     C60762   7.721   6.874   2.596  0.1996  0.3729 -0.2620
  461MOL0     C60763   7.814   6.954   2.498 -0.6643 -0.0790 -0.4111
  461MOL0    Cl60764   7.751   6.952   2.337  0.2648  0.0513  0.2187
  461MOL0     C60765   7.317   6.957   3.374  0.1769  0.0874 -0.5050
  461MOL0     C60766   7.200   6.886   3.412  0.5287  0.2640  0.2790
  461MOL0     O60767   6.995   6.675   3.200 -1.1553  0.6121  0.2556
  461MOL0     C60768   6.798   6.484   3.268 -0.0367 -0.9949  0.9454
  461MOL0     C60769   6.700   6.398   3.315  0.8139  0.3223  0.4304
  461MOL0     N60770   6.251   5.830   3.406  0.4494 -0.2428 -0.1692
  461MOL0     N60771   6.207   5.705   3.392 -0.1615 -0.3529 -0.8433
  461MOL0     C60772   6.024   6.504   3.372  0.6932 -0.8111  0.0481
  461MOL0     C60773   6.020   6.648   3.394  0.4830 -0.0050  0.0373
  461MOL0     C60774   5.984   7.083   3.332 -0.2335  0.2454 -0.8719
  461MOL0     C60775   5.942   7.132   3.460  0.1919  0.2145 -0.7497
  461MOL0     C60776   5.917   7.266   3.490 -0.1400 -0.4250 -0.2444
  461MOL0     C60777   5.934   7.357   3.388  0.1125 -1.1574  0.2109
  461MOL0     O60778   5.916   7.487   3.387 -0.6035  0.0648  0.4258
  461MOL0     C60779   6.027   7.549   3.454 -0.2383  0.2976 -0.2850
  461MOL0     C60780   6.158   7.556   3.367 -0.7103 -0.3785  1.0502
  461MOL0     C60781   6.164   7.695   3.300 -0.1796  0.2324  0.6387
  461MOL0     C60782   6.290   7.724   3.225  0.1922 -0.1107  0.8206
  461MOL0     C60783   6.267   7.846   3.157  0.7245 -0.5675 -0.6212
  461MOL0     C60784   6.244   7.961   3.104  0.2738 -0.3456 -0.2375
  461MOL0     C60785   5.971   7.310   3.263 -0.0033 -0.0064  0.0876
  461MOL0     C60786   5.997   7.178   3.229 -0.1875  0.4234 -0.1405
  461MOL0     H60787   5.725   6.738   3.281  1.0781  1.8011  2.6288
  461MOL0     H60788   5.718   6.492   3.220  1.0269 -0.7668 -0.9167
  461MOL0     H60789   5.740   6.288   3.169  3.7058  3.5883 -0.4367
  461MOL0     H60790   5.750   6.184   3.309 -4.9516 -1.3741 -3.6793
  461MOL0     H60791   5.937   6.058   3.220  0.6003 -2.3841 -0.8041
  461MOL0     H60792   5.907   6.135   3.062 -0.2454  1.0574 -0.0492
  461MOL0     H60793   5.672   6.062   3.081 -0.3247 -0.7220  0.5684
  461MOL0     H60794   5.723   5.972   3.233  1.0250  0.1939  0.3746
  461MOL0     H60795   5.701   5.844   3.031 -1.0928  3.3138 -1.2292
  461MOL0     H60796   5.831   5.928   2.947 -0.5828 -1.0050 -0.3936
  461MOL0     H60797   5.980   5.839   3.145 -0.5115  2.0336 -0.1062
  461MOL0     H60798   5.928   5.745   3.012 -0.9672 -1.1923  1.2319
  461MOL0     H60799   5.747   5.618   3.136  0.2468  2.7431 -3.1366
  461MOL0     H60800   5.772   5.730   3.275  2.1019  1.8498  0.4932
  461MOL0     H60801   5.880   5.485   3.235 -1.9376  0.7760 -1.6899
  461MOL0     H60802   6.007   5.572   3.164  0.1476 -0.4197  0.1410
  461MOL0     H60803   6.041   5.512   3.408  1.5730 -0.5271 -7.0079
  461MOL0     H60804   5.906   5.622   3.458  0.5049 -2.7898 -0.2987
  461MOL0     H60805   5.930   5.890   3.435  0.4127  0.1720 -1.3055
  461MOL0     H60806   6.067   6.109   3.487 -2.2007 -2.4024  0.3302
  461MOL0     H60807   6.151   6.107   3.336  0.5235  1.2797  0.6335
  461MOL0     H60808   6.337   6.030   3.564 -0.0497  0.8019  2.1337
  461MOL0     H60809   6.268   6.190   3.563 -0.9881 -1.7951  1.4945
  461MOL0     H60810   6.425   6.026   3.373 -3.5117 -0.0048 -3.9220
  461MOL0     H60811   6.368   6.184   3.314  1.0402  0.1416  0.3196
  461MOL0     H60812   6.617   6.164   3.398  1.4043  0.6951  1.2087
  461MOL0     H60813   6.535   6.158   3.559  0.8569  3.4421  1.1407
  461MOL0     H60814   6.573   6.558   3.567 -0.7007 -1.7112 -0.3184
  461MOL0     H60815   6.776   6.715   3.507  0.2243 -3.2399  4.0981
  461MOL0     H60816   6.966   7.034   3.211  1.8514  1.5537 -2.8009
  461MOL0     H60817   7.163   7.151   3.137  0.2307 -2.4708 -3.1291
  461MOL0     H60818   7.524   6.979   3.160  0.9118 -1.0448  0.3950
  461MOL0     H60819   7.582   7.037   3.308 -0.9625  0.8828  0.7124
  461MOL0     H60820   7.735   7.135   3.197 -1.0397  0.4270  2.0485
  461MOL0     H60821   7.613   7.269   3.181  0.3762  0.7550  0.0907
  461MOL0     H60822   7.712   7.239   2.979 -0.4023  1.9538  3.6471
  461MOL0     H60823   7.542   7.168   2.966  0.0612 -2.7368 -0.7849
  461MOL0     H60824   7.802   7.010   2.999 -1.3327  0.3749  2.3022
  461MOL0     H60825   7.641   6.941   2.972 -0.9119  0.6598  2.1742
  461MOL0     H60826   7.779   7.105   2.758 -0.4155  0.4807  0.6749
  461MOL0     H60827   7.611   7.055   2.763 -1.7174 -3.9442  0.1244
  461MOL0     H60828   7.672   6.826   2.797 -0.5431 -0.4157  0.8222
  461MOL0     H60829   7.850   6.857   2.760  0.7700 -0.4599 -2.1469
  461MOL0     H60830   7.725   6.768   2.570  0.0327  0.4195 -0.4815
  461MOL0     H60831   7.619   6.913   2.581 -0.0729 -1.2163 -3.3497
  461MOL0     H60832   7.914   6.911   2.504 -1.5357 -2.1847  0.1264
  461MOL0     H60833   7.818   7.058   2.531  2.4904  0.2333 -1.4572
  461MOL0     H60834   7.410   6.951   3.429 -0.6155  1.1963  1.0263
  461MOL0     H60835   7.199   6.814   3.493  0.7437 -2.8002 -2.2320
  461MOL0     H60836   6.847   6.454   3.176 -1.9801  1.1276 -0.8848
  461MOL0     H60837   6.691   6.308   3.256  0.7309  1.4841 -1.4056
  461MOL0     H60838   6.110   6.443   3.398  0.0835 -0.5175  3.1902
  461MOL0     H60839   6.090   6.704   3.455  0.5846  2.7600 -2.3544
  461MOL0     H60840   5.929   7.062   3.542 -0.7660  0.9236 -0.2811
  461MOL0     H60841   5.886   7.277   3.593 -1.0505 -2.6253 -0.2263
  461MOL0     H60842   6.058   7.492   3.541  3.1762 -2.0700 -2.7844
  461MOL0     H60843   5.996   7.647   3.492 -0.6679  0.5939 -1.3375
  461MOL0     H60844   6.235   7.552   3.445 -0.7579 -0.6518  1.0851
  461MOL0     H60845   6.177   7.481   3.289 -2.6627  4.0466 -4.3249
  461MOL0     H60846   6.157   7.772   3.377  3.2931  4.1178 -2.4703
  461MOL0     H60847   6.078   7.708   3.235 -0.2039 -1.3380  0.3196
  461MOL0     H60848   6.367   7.735   3.302  1.1348 -3.4600  0.5122
  461MOL0     H60849   6.328   7.649   3.155  1.0534  2.0286 -1.1853
  461MOL0     H60850   6.224   8.048   3.046  5.1869 -0.5176 -2.7254
  461MOL0     H60851   5.948   7.371   3.176  2.3429 -0.8394 -1.2098
  461MOL0     H60852   6.015   7.159   3.124 -2.8797  1.5525 -0.9015
  462MOL0     O60853   7.212   6.557  11.254 -0.4882 -1.2026  0.0967
  462MOL0     C60854   7.171   6.454  11.201 -0.7770 -0.2659  0.6069
  462MOL0     O60855   7.083   6.368  11.260  0.2367 -0.0924 -0.4090
  462MOL0     C60856   7.003   6.402  11.373  0.4410 -0.4232  0.7598
  462MOL0     C60857   6.949   6.530  11.396 -0.2104  0.2103  0.6510
  462MOL0     C60858   6.848   6.549  11.490  0.6085 -0.1944 -0.2372
  462MOL0     C60859   6.806   6.439  11.567  0.0761 -0.5575 -0.7326
  462MOL0     O60860   6.694   6.447  11.658  0.5263 -0.3011  0.2222
  462MOL0     C60861   6.652   6.572  11.705  0.7004 -0.9225 -0.5633
  462MOL0     C60862   6.529   6.552  11.793  0.6568 -0.0712  0.2486
  462MOL0     C60863   6.486   6.678  11.865 -0.4487 -0.6852 -0.8621
  462MOL0     C60864   6.354   6.661  11.943  1.3444  0.2020 -0.3198
  462MOL0     C60865   6.320   6.781  12.035  0.3127 -0.0704  0.4501
  462MOL0     C60866   6.338   6.915  11.973 -0.5936  0.3280  0.1101
  462MOL0     C60867   6.248   6.927  11.853  0.1823 -0.1345  1.1779
  462MOL0     C60868   6.208   7.070  11.830  0.0366  0.0728 -0.2740
  462MOL0     N60869   6.171   7.110  11.691 -0.7374  0.4728  0.2348
  462MOL0     C60870   6.253   7.111  11.576  0.3688 -0.3287 -1.3529
  462MOL0     C60871   6.171   7.148  11.477  0.8763 -0.8948  0.7945
  462MOL0     C60872   6.205   7.159  11.334 -0.0360  0.1086 -0.6034
  462MOL0     C60873   6.130   7.049  11.254  0.3540 -0.0145 -0.1961
  462MOL0     C60874   6.124   6.913  11.317 -1.0374  0.3370  0.1875
  462MOL0     C60875   6.104   6.793  11.221 -0.3481 -0.7530 -0.3042
  462MOL0     O60876   5.994   6.822  11.138 -0.3295 -0.7441 -0.5233
  462MOL0     C60877   5.927   6.718  11.086  0.2783 -0.1190 -0.5281
  462MOL0     C60878   5.799   6.738  11.049  0.3727 -0.7551  0.8738
  462MOL0     C60879   5.700   6.643  11.004  0.3633  0.1590  0.5045
  462MOL0     C60880   5.747   6.506  11.011  0.1270  0.3664 -0.6070
  462MOL0     C60881   5.649   6.399  10.997 -0.9353  0.4690  0.6777
  462MOL0     O60882   5.534   6.426  10.926  0.7191 -0.2056  0.0875
  462MOL0     C60883   5.429   6.334  10.948  1.0635 -1.3312  0.9042
  462MOL0     C60884   5.379   6.304  11.073  0.0625  0.0522 -0.6402
  462MOL0     C60885   5.278   6.219  11.092 -1.0323 -0.6492 -0.7330
  462MOL0     C60886   5.225   6.148  10.979  0.6062  0.3490 -0.1301
  462MOL0     O60887   5.142   6.034  10.986 -0.6111 -0.3855  0.2841
  462MOL0     C60888   5.061   6.030  11.104 -0.2815  0.0223 -0.2332
  462MOL0     C60889   4.936   5.933  11.091 -0.9854 -0.0582 -0.0070
  462MOL0     C60890   4.854   5.936  11.220  0.3701 -0.3471 -0.1782
  462MOL0     C60891   4.723   5.861  11.202  0.1753 -0.3317 -0.3499
  462MOL0     C60892   4.640   5.899  11.324  0.4895  0.8854  0.1443
  462MOL0     C60893   4.499   5.847  11.313  0.4138 -0.6036 -0.5607
  462MOL0     C60894   4.419   5.911  11.433  0.5733  0.6680  0.6906
  462MOL0     C60895   4.270   5.906  11.407  0.7383 -0.0168  0.8323
  462MOL0    Cl60896   4.205   5.754  11.370 -0.3164  0.1377  0.4653
  462MOL0     C60897   5.280   6.172  10.852  0.7064 -0.2176  0.5042
  462MOL0     C60898   5.369   6.270  10.837 -1.5151  0.0462  0.0824
  462MOL0     O60899   5.682   6.287  11.043 -0.0217  0.8870 -0.3695
  462MOL0     C60900   5.879   6.481  11.052  1.0229 -0.0780 -0.7291
  462MOL0     C60901   5.966   6.585  11.085 -0.1583  0.7217 -0.7312
  462MOL0     N60902   6.048   7.183  11.536  0.3384  0.0335  0.8657
  462MOL0     N60903   6.046   7.153  11.664 -0.2488  0.2094  0.9767
  462MOL0     C60904   6.862   6.307  11.547 -1.9749  0.0302 -0.1476
  462MOL0     C60905   6.966   6.294  11.452 -0.0673  1.0447  1.3386
  462MOL0     C60906   7.240   6.430  11.072 -1.2595  0.5066  0.0658
  462MOL0     C60907   7.226   6.315  10.995 -0.3359  0.3229 -0.0251
  462MOL0     C60908   7.280   6.304  10.871  0.3809 -0.6736 -0.2257
  462MOL0     C60909   7.360   6.404  10.814 -0.8091 -0.0876  1.0406
  462MOL0     O60910   7.387   6.373  10.685 -0.1982 -0.1384  1.0828
  462MOL0     C60911   7.480   6.463  10.614  0.7828  0.4706  0.5465
  462MOL0     C60912   7.476   6.422  10.461  0.2944  0.4154 -0.4513
  462MOL0     C60913   7.518   6.272  10.431 -0.0984  0.0909 -0.6662
  462MOL0     C60914   7.641   6.243  10.521  0.2266 -0.0325  0.0512
  462MOL0     C60915   7.707   6.119  10.487 -0.6442  0.3894  0.0207
  462MOL0     C60916   7.733   5.998  10.463  0.1095 -0.0829 -0.3048
  462MOL0     C60917   7.392   6.514  10.892 -0.1520  0.2868 -0.7572
  462MOL0     C60918   7.333   6.517  11.013 -0.0484 -0.7431 -0.2184
  462MOL0     H60919   6.989   6.612  11.337  2.9370 -2.0682 -0.6978
  462MOL0     H60920   6.816   6.650  11.513 -1.7728 -0.9950  0.2514
  462MOL0     H60921   6.608   6.611  11.613 -1.0446 -0.5955  0.3553
  462MOL0     H60922   6.724   6.641  11.749 -0.9285  0.8387 -0.5016
  462MOL0     H60923   6.553   6.487  11.877 -0.2175  0.4891  0.9428
  462MOL0     H60924   6.440   6.508  11.746  0.7696  0.4842 -0.4984
  462MOL0     H60925   6.466   6.750  11.785 -2.8165 -0.6979 -0.3562
  462MOL0     H60926   6.565   6.713  11.931 -1.9398 -0.7216  1.0434
  462MOL0     H60927   6.271   6.643  11.874 -0.8355  1.0073  1.9282
  462MOL0     H60928   6.370   6.572  12.005 -2.1843 -2.7629 -3.1308
  462MOL0     H60929   6.403   6.776  12.107  0.2615  1.1151  0.6065
  462MOL0     H60930   6.219   6.768  12.076 -0.1890  2.3303  0.1299
  462MOL0     H60931   6.440   6.931  11.937 -0.8396 -1.3932 -1.5233
  462MOL0     H60932   6.310   6.993  12.044 -1.3248  0.5392 -0.3926
  462MOL0     H60933   6.290   6.886  11.760 -0.8000  1.5824 -0.0710
  462MOL0     H60934   6.149   6.883  11.865 -0.8527  0.9643 -2.1450
  462MOL0     H60935   6.291   7.136  11.854  0.2460 -0.5425  0.7370
  462MOL0     H60936   6.117   7.090  11.888 -0.0185  0.4251 -0.4799
  462MOL0     H60937   6.361   7.107  11.569  0.7195 -1.1057  2.4087
  462MOL0     H60938   6.314   7.156  11.326  0.0142 -0.9222  0.1865
  462MOL0     H60939   6.179   7.259  11.298  1.6816  0.6084 -0.5276
  462MOL0     H60940   6.164   7.044  11.150 -0.0407  2.1799 -0.4751
  462MOL0     H60941   6.023   7.073  11.250  0.1983 -0.6169 -4.2367
  462MOL0     H60942   6.215   6.898  11.374 -0.1128  3.3321 -0.3352
  462MOL0     H60943   6.037   6.914  11.384 -2.0990 -1.3892 -1.0690
  462MOL0     H60944   6.094   6.697  11.273 -1.4562 -0.6031 -0.2024
  462MOL0     H60945   6.191   6.781  11.156 -1.8645 -0.9512 -2.3884
  462MOL0     H60946   5.756   6.833  11.080 -0.2830 -1.3054  1.7216
  462MOL0     H60947   5.604   6.682  10.972  0.7987  2.8626  2.1715
  462MOL0     H60948   5.408   6.363  11.160 -3.7272  0.1939  0.7087
  462MOL0     H60949   5.239   6.210  11.193  0.6226 -0.5227 -0.0519
  462MOL0     H60950   5.021   6.129  11.130 -1.7285 -0.6487  0.1947
  462MOL0     H60951   5.130   5.997  11.181 -0.1775 -1.8985 -1.1065
  462MOL0     H60952   4.977   5.832  11.078 -0.8084 -0.0697  0.5881
  462MOL0     H60953   4.878   5.951  11.000 -1.3670  2.9072  0.7222
  462MOL0     H60954   4.842   6.043  11.242  0.3903 -0.6518  1.4500
  462MOL0     H60955   4.906   5.889  11.304 -1.9722 -1.9048  0.4884
  462MOL0     H60956   4.673   5.916  11.121  1.2433  0.5932 -0.3967
  462MOL0     H60957   4.728   5.753  11.187  1.1085 -0.9141  3.2804
  462MOL0     H60958   4.627   6.008  11.324  2.4844  1.2309 -2.5856
  462MOL0     H60959   4.693   5.871  11.416 -1.6789  3.5625  2.3809
  462MOL0     H60960   4.486   5.739  11.300  0.2847 -0.4063 -2.4485
  462MOL0     H60961   4.458   5.895  11.223  0.0089 -0.8769 -0.5251
  462MOL0     H60962   4.439   5.860  11.528  1.1262  0.5082  0.4876
  462MOL0     H60963   4.440   6.018  11.448  2.4826  0.3471  0.4697
  462MOL0     H60964   4.248   5.972  11.323 -0.6098 -1.7072 -0.2210
  462MOL0     H60965   4.221   5.940  11.499  1.7757  0.5838  1.1774
  462MOL0     H60966   5.233   6.119  10.769  1.7405  0.7949 -0.7864
  462MOL0     H60967   5.383   6.301  10.735  0.0514  0.2239  0.3363
  462MOL0     H60968   5.918   6.380  11.062  0.2731 -0.2174  1.3390
  462MOL0     H60969   6.067   6.564  11.119 -1.0106 -0.7985  1.0051
  462MOL0     H60970   6.839   6.227  11.617 -1.5137 -0.1187 -0.1669
  462MOL0     H60971   7.020   6.201  11.435 -2.2707 -0.2602  1.0687
  462MOL0     H60972   7.182   6.223  11.032 -0.5166  0.1767 -0.5901
  462MOL0     H60973   7.267   6.211  10.817 -2.8379 -0.6549  0.2974
  462MOL0     H60974   7.581   6.453  10.656  0.3291 -3.2072  1.1103
  462MOL0     H60975   7.455   6.569  10.619 -1.2173  0.0903 -0.3647
  462MOL0     H60976   7.370   6.430  10.433  0.3082  1.6249 -0.2118
  462MOL0     H60977   7.542   6.472  10.389  0.7294 -2.6219 -2.3376
  462MOL0     H60978   7.555   6.263  10.328  0.4586 -0.1419 -0.4468
  462MOL0     H60979   7.435   6.202  10.444  1.3396 -1.9124 -1.6721
  462MOL0     H60980   7.712   6.326  10.513 -0.5777  0.7808  1.0303
  462MOL0     H60981   7.607   6.226  10.623  1.8444 -1.6961  0.3654
  462MOL0     H60982   7.755   5.893  10.452  1.7674  0.1527  0.4704
  462MOL0     H60983   7.465   6.587  10.859  0.6459 -0.4571 -0.6682
  462MOL0     H60984   7.343   6.610  11.068 -0.0357  0.1789 -1.7004
  463MOL0     O60985   2.961   5.583  10.370  0.1422  0.4253 -0.5568
  463MOL0     C60986   2.862   5.520  10.390  1.5076 -0.7602 -0.2664
  463MOL0     O60987   2.744   5.552  10.337 -0.0566  0.1948 -0.5599
  463MOL0     C60988   2.724   5.655  10.249  1.0984 -0.1824 -0.6414
  463MOL0     C60989   2.716   5.792  10.294 -0.4251  0.2459 -0.0835
  463MOL0     C60990   2.688   5.893  10.199  0.5540  0.0878 -0.8268
  463MOL0     C60991   2.645   5.866  10.069 -0.2957 -1.1917  0.7427
  463MOL0     O60992   2.584   5.967  10.001 -0.2636  0.6489  0.6041
  463MOL0     C60993   2.534   5.940   9.870 -0.8127 -0.3913  0.0766
  463MOL0     C60994   2.515   6.066   9.798  0.9614 -0.5793  0.4340
  463MOL0     C60995   2.417   6.157   9.887  0.3939 -0.3216 -0.8848
  463MOL0     C60996   2.358   6.288   9.815  0.9608  0.2095  0.0429
  463MOL0     C60997   2.270   6.384   9.904  0.6311 -0.0621 -0.8105
  463MOL0     C60998   2.359   6.456  10.009  0.3969  0.6108 -0.2590
  463MOL0     C60999   2.286   6.565  10.074  0.6658 -0.2370 -1.0735
  463MOL0     C61000   2.368   6.637  10.184 -0.4642 -0.2302  0.5244
  463MOL0     N61001   2.273   6.721  10.258  0.2753 -0.6205 -0.9533
  463MOL0     C61002   2.238   6.701  10.391  0.6701  0.3853 -0.1449
  463MOL0     C61003   2.167   6.820  10.427 -0.2077 -0.5101  0.4462
  463MOL0     C61004   2.104   6.842  10.563 -0.6159 -0.3715 -0.4668
  463MOL0     C61005   2.000   6.963  10.558 -0.1654 -0.6584  0.0012
  463MOL0     C61006   2.053   7.107  10.535 -0.1003  0.0012 -0.0249
  463MOL0     C61007   2.148   7.159  10.634  0.8066 -0.4694 -0.2961
  463MOL0     O61008   2.086   7.156  10.755  0.4573 -0.8190 -0.3134
  463MOL0     C61009   2.162   7.193  10.863 -0.5113  0.0579 -0.0514
  463MOL0     C61010   2.178   7.107  10.971  0.0802  0.3906  0.2331
  463MOL0     C61011   2.243   7.150  11.089  0.0808 -0.5255 -0.9296
  463MOL0     C61012   2.312   7.279  11.092 -0.1506  1.4848  0.1308
  463MOL0     C61013   2.398   7.313  11.204  0.1011 -0.3495 -0.1381
  463MOL0     O61014   2.485   7.414  11.177 -0.6406 -0.1579  0.7611
  463MOL0     C61015   2.592   7.445  11.253 -0.1833 -0.8421  0.4107
  463MOL0     C61016   2.718   7.469  11.193 -0.6704  0.2844  0.5344
  463MOL0     C61017   2.830   7.491  11.262 -1.0375  0.1699 -0.4993
  463MOL0     C61018   2.824   7.490  11.401 -0.3616 -0.1703 -0.2525
  463MOL0     O61019   2.934   7.521  11.476 -0.3621  0.1008  0.2068
  463MOL0     C61020   2.923   7.509  11.621 -0.6943 -0.1023 -0.3707
  463MOL0     C61021   3.069   7.480  11.680  0.0473 -0.7066  1.2214
  463MOL0     C61022   3.053   7.409  11.810 -0.6936  0.1517 -0.2792
  463MOL0     C61023   3.186   7.397  11.878 -0.4678 -0.3322 -0.1750
  463MOL0     C61024   3.177   7.327  12.016 -0.1814 -0.1020 -1.0515
  463MOL0     C61025   3.297   7.348  12.096 -0.2612  0.6824 -0.0121
  463MOL0     C61026   3.291   7.312  12.246  0.0575  0.2242  0.0995
  463MOL0     C61027   3.246   7.166  12.263 -0.0205  0.0034  0.4910
  463MOL0    Cl61028   3.282   7.116  12.427  0.5431 -1.0287 -0.7913
  463MOL0     C61029   2.696   7.486  11.464  0.4773 -0.5603  1.0153
  463MOL0     C61030   2.577   7.462  11.385 -1.1058 -0.1217 -1.0163
  463MOL0     O61031   2.398   7.229  11.294  0.4391  0.3661  0.9802
  463MOL0     C61032   2.304   7.349  10.971  0.5698  0.0891  1.3821
  463MOL0     C61033   2.224   7.310  10.859  0.7954  0.3412  0.0961
  463MOL0     N61034   2.167   6.903  10.319  1.4450 -0.1362 -0.2650
  463MOL0     N61035   2.225   6.850  10.220 -0.1128  0.5513 -0.4743
  463MOL0     C61036   2.646   5.737  10.038  0.2096 -0.4756 -0.3858
  463MOL0     C61037   2.690   5.630  10.116  0.1171  0.4423  0.3432
  463MOL0     C61038   2.876   5.399  10.469  0.0829 -0.2425 -0.4751
  463MOL0     C61039   2.766   5.311  10.496 -0.2341 -0.0817 -0.3182
  463MOL0     C61040   2.781   5.205  10.584  0.1023  0.3585 -0.0819
  463MOL0     C61041   2.892   5.177  10.649  0.1853  0.2501  1.2060
  463MOL0     O61042   2.889   5.090  10.756  1.3191 -0.4360  0.5245
  463MOL0     C61043   2.956   5.147  10.881 -0.3216  0.7217  0.6211
  463MOL0     C61044   2.917   5.041  10.984 -0.7200  0.4023 -0.0055
  463MOL0     C61045   2.767   5.059  11.015  0.8544 -0.0885 -0.0685
  463MOL0     C61046   2.735   5.176  11.118 -1.0459 -0.9680  0.3135
  463MOL0     C61047   2.797   5.152  11.252 -0.4834  0.7692  0.7954
  463MOL0     C61048   2.858   5.134  11.356  0.3915 -0.4414 -0.2631
  463MOL0     C61049   3.008   5.260  10.622 -0.0208 -0.4433  0.1628
  463MOL0     C61050   2.996   5.368  10.540 -0.1365  0.1834 -0.2783
  463MOL0     H61051   2.729   5.803  10.401 -2.8627 -0.6489  0.3775
  463MOL0     H61052   2.695   5.998  10.227 -1.1475 -0.5451  2.3865
  463MOL0     H61053   2.437   5.891   9.877  0.5045 -3.1068  0.6544
  463MOL0     H61054   2.613   5.885   9.818 -0.8281 -1.3604  1.0613
  463MOL0     H61055   2.465   6.045   9.703  0.7515 -3.6818  1.1246
  463MOL0     H61056   2.601   6.128   9.775 -1.6934  2.7578 -1.4466
  463MOL0     H61057   2.490   6.184   9.964  0.8101 -0.9900 -1.0335
  463MOL0     H61058   2.338   6.098   9.933  1.6561  1.0463  3.5023
  463MOL0     H61059   2.443   6.348   9.780  1.8528 -0.0619  1.6433
  463MOL0     H61060   2.282   6.256   9.744 -0.8722 -4.3871  3.5423
  463MOL0     H61061   2.195   6.320   9.951 -1.1644  1.5071 -1.4190
  463MOL0     H61062   2.217   6.452   9.837 -0.3055 -0.9205 -0.9775
  463MOL0     H61063   2.448   6.494   9.958  2.9097 -4.1290 -0.0286
  463MOL0     H61064   2.390   6.382  10.084 -0.5500  0.9199  0.4562
  463MOL0     H61065   2.250   6.631   9.995  0.8491 -0.2294 -1.1507
  463MOL0     H61066   2.204   6.516  10.127  0.6484  0.3211 -0.5743
  463MOL0     H61067   2.454   6.695  10.148 -0.9004  0.3739  0.4429
  463MOL0     H61068   2.415   6.555  10.240  2.8483 -1.2369 -3.2608
  463MOL0     H61069   2.265   6.614  10.450  0.2541  0.3274 -0.0354
  463MOL0     H61070   2.180   6.874  10.634 -2.6830  3.3704  0.3696
  463MOL0     H61071   2.057   6.759  10.616 -2.5232  1.5548  1.0709
  463MOL0     H61072   1.952   6.977  10.655  0.4856  3.2287 -0.0690
  463MOL0     H61073   1.929   6.936  10.479  1.5788 -2.3891 -1.1018
  463MOL0     H61074   2.088   7.110  10.431  2.7651  2.2306  0.8812
  463MOL0     H61075   1.969   7.174  10.513  1.3692  1.4749 -1.4493
  463MOL0     H61076   2.168   7.256  10.588  0.2681 -0.1016  0.2335
  463MOL0     H61077   2.240   7.099  10.638  1.9905  1.2105 -0.9217
  463MOL0     H61078   2.135   7.007  10.976  1.3353 -0.1081  2.1044
  463MOL0     H61079   2.237   7.083  11.175  0.3450  0.2134 -0.3283
  463MOL0     H61080   2.725   7.447  11.087 -0.4650  0.0052  0.6026
  463MOL0     H61081   2.927   7.513  11.218 -1.0112  3.2628  0.8014
  463MOL0     H61082   2.864   7.419  11.643  1.0808 -1.2038  0.0700
  463MOL0     H61083   2.882   7.599  11.668 -1.7281 -0.1106 -1.2090
  463MOL0     H61084   3.130   7.571  11.678 -0.7826 -0.1470 -0.2486
  463MOL0     H61085   3.124   7.411  11.615 -1.4728 -1.7344  0.9727
  463MOL0     H61086   3.020   7.305  11.801  3.1093 -1.2915  0.6527
  463MOL0     H61087   2.993   7.461  11.885 -0.2702  0.1450  0.0675
  463MOL0     H61088   3.249   7.347  11.804 -1.6609  0.1842 -1.5870
  463MOL0     H61089   3.218   7.501  11.893 -0.7120 -0.2430 -0.2715
  463MOL0     H61090   3.155   7.222  11.997  0.2815 -0.3761 -0.1068
  463MOL0     H61091   3.097   7.371  12.077  2.7046  0.7896  2.4412
  463MOL0     H61092   3.318   7.455  12.092  0.9202  0.6380  2.8707
  463MOL0     H61093   3.376   7.296  12.042 -0.3275 -0.5957  1.0670
  463MOL0     H61094   3.395   7.327  12.275  0.2532  0.2008 -0.5627
  463MOL0     H61095   3.226   7.377  12.305 -0.3564  1.1939 -1.3642
  463MOL0     H61096   3.299   7.100  12.194 -2.3018  0.4357 -1.8289
  463MOL0     H61097   3.141   7.164  12.236  0.6281  5.3917 -4.3698
  463MOL0     H61098   2.677   7.494  11.571 -2.0890 -1.3744  0.6996
  463MOL0     H61099   2.482   7.458  11.437  0.5848  0.3951  2.3394
  463MOL0     H61100   2.354   7.445  10.964  0.7913  0.1408  3.1070
  463MOL0     H61101   2.201   7.374  10.774  0.3271  0.7294  0.5119
  463MOL0     H61102   2.613   5.714   9.938 -0.4670 -1.4816  0.0498
  463MOL0     H61103   2.682   5.534  10.067 -3.0440  2.0933 -2.8173
  463MOL0     H61104   2.668   5.337  10.457  0.6714  0.7166 -2.2110
  463MOL0     H61105   2.694   5.146  10.611  0.4072 -0.0952 -0.0799
  463MOL0     H61106   2.914   5.243  10.913  1.2695  1.0508  1.8315
  463MOL0     H61107   3.064   5.153  10.868  0.1260  1.0141  3.8333
  463MOL0     H61108   2.928   4.938  10.948 -3.9939 -0.3036  0.6184
  463MOL0     H61109   2.982   5.058  11.070 -0.3050  0.3808 -0.3125
  463MOL0     H61110   2.729   4.969  11.063 -2.1763  1.4669  0.6761
  463MOL0     H61111   2.699   5.085  10.934 -1.2957  2.6425  2.3633
  463MOL0     H61112   2.780   5.266  11.075  2.0140  0.3615  5.4111
  463MOL0     H61113   2.630   5.194  11.141 -0.8663 -0.4758  0.7848
  463MOL0     H61114   2.902   5.123  11.452 -3.0716 -1.8503  1.3539
  463MOL0     H61115   3.100   5.247  10.678  0.1884  1.0723  0.2006
  463MOL0     H61116   3.092   5.417  10.526 -0.4397  0.0174 -3.6870
  464MOL0     O61117   1.226   2.392   1.283  0.0609  0.3089  0.3526
  464MOL0     C61118   1.310   2.481   1.286  0.8253 -0.4026 -0.7223
  464MOL0     O61119   1.423   2.479   1.363 -0.3952 -0.9775  0.5891
  464MOL0     C61120   1.436   2.380   1.458  0.1218  0.1256  0.0239
  464MOL0     C61121   1.563   2.320   1.474 -0.0961 -0.6176 -0.8070
  464MOL0     C61122   1.584   2.229   1.580 -0.7990 -0.4478  0.4636
  464MOL0     C61123   1.475   2.186   1.661  0.7899  0.1957  0.3873
  464MOL0     O61124   1.499   2.089   1.752 -0.5477  0.6679  0.2033
  464MOL0     C61125   1.427   1.973   1.745  0.2182  0.3414  0.2259
  464MOL0     C61126   1.517   1.856   1.800  0.2278  0.6591  0.2022
  464MOL0     C61127   1.545   1.850   1.961  0.1872  0.4317  1.5737
  464MOL0     C61128   1.634   1.738   1.997  0.0535 -0.8328  0.1869
  464MOL0     C61129   1.705   1.766   2.137 -0.5282 -0.2666  0.4205
  464MOL0     C61130   1.751   1.636   2.204 -0.1990  0.5578 -1.1936
  464MOL0     C61131   1.858   1.674   2.299 -0.0766  0.0350 -0.3451
  464MOL0     C61132   1.889   1.558   2.397 -0.0882 -1.3326  0.4099
  464MOL0     N61133   2.002   1.596   2.486  0.0173  0.3729  1.1775
  464MOL0     C61134   1.997   1.673   2.600 -0.6293  0.1366 -0.0036
  464MOL0     C61135   2.125   1.675   2.651  0.7789  0.4920 -1.1632
  464MOL0     C61136   2.157   1.754   2.778 -0.2541  0.0439 -0.4645
  464MOL0     C61137   2.149   1.676   2.916 -0.0186 -0.3123  0.9258
  464MOL0     C61138   2.197   1.532   2.894 -0.6931  0.7725  0.3557
  464MOL0     C61139   2.348   1.515   2.885  0.0737 -0.2883 -0.1849
  464MOL0     O61140   2.403   1.542   3.016  0.5351  0.4644 -0.3362
  464MOL0     C61141   2.510   1.462   3.047  0.3491 -0.6526  0.1697
  464MOL0     C61142   2.627   1.495   2.986  0.9189  0.0883  0.2333
  464MOL0     C61143   2.739   1.448   3.045 -0.5174 -0.4570 -0.1868
  464MOL0     C61144   2.734   1.347   3.143  0.3813  0.1392  0.4972
  464MOL0     C61145   2.860   1.282   3.191  0.0633  0.3637 -0.0458
  464MOL0     O61146   2.860   1.189   3.298  0.3820  0.1498  0.4340
  464MOL0     C61147   2.983   1.154   3.338 -0.0147 -0.6682  0.0686
  464MOL0     C61148   3.056   1.236   3.425  0.3683 -0.2189 -0.8006
  464MOL0     C61149   3.193   1.205   3.450 -0.3556  0.3856  0.0749
  464MOL0     C61150   3.261   1.091   3.392  0.1509  0.1051 -0.0656
  464MOL0     O61151   3.392   1.086   3.425 -0.5553 -0.0460  0.5252
  464MOL0     C61152   3.475   1.000   3.346 -0.6466  0.4466  0.2195
  464MOL0     C61153   3.498   1.066   3.211  0.3197  0.2834 -1.0652
  464MOL0     C61154   3.586   0.988   3.117 -0.1952  0.1104 -1.6190
  464MOL0     C61155   3.556   1.019   2.971  1.3075 -0.4829 -0.2682
  464MOL0     C61156   3.670   0.972   2.892 -0.6643 -0.4759 -0.5595
  464MOL0     C61157   3.657   0.983   2.739 -0.1327 -0.1920 -0.6106
  464MOL0     C61158   3.642   1.119   2.691 -0.3817 -0.2453  0.7607
  464MOL0     C61159   3.640   1.117   2.529  0.1610  0.5159 -0.8353
  464MOL0    Cl61160   3.796   1.153   2.436  0.2126 -0.2031  0.0038
  464MOL0     C61161   3.175   0.995   3.334 -0.0155  0.0384 -0.2955
  464MOL0     C61162   3.035   1.035   3.311 -0.5398 -0.9346 -0.4351
  464MOL0     O61163   2.960   1.325   3.139  0.3475  0.3881  1.7489
  464MOL0     C61164   2.613   1.306   3.191  0.0424 -0.8223 -0.1863
  464MOL0     C61165   2.504   1.371   3.149 -0.3021 -0.6920 -0.5555
  464MOL0     N61166   2.208   1.598   2.571  0.2526  0.2797 -1.6100
  464MOL0     N61167   2.132   1.555   2.470  0.7427 -0.1472  0.4011
  464MOL0     C61168   1.349   2.241   1.639  0.2268  0.6348  1.2139
  464MOL0     C61169   1.335   2.342   1.542 -0.7572  1.0655  0.4314
  464MOL0     C61170   1.286   2.592   1.199  0.2535 -0.3893  1.0983
  464MOL0     C61171   1.353   2.714   1.217 -0.4906  0.4211 -0.4612
  464MOL0     C61172   1.312   2.835   1.151 -0.0510 -0.1384  0.2151
  464MOL0     C61173   1.204   2.830   1.061 -0.4709 -0.5874  0.0620
  464MOL0     O61174   1.154   2.945   0.988  0.1135 -0.2899  0.2522
  464MOL0     C61175   1.186   3.078   1.039  0.4026 -0.1889 -0.7253
  464MOL0     C61176   1.044   3.143   1.017 -0.0563 -0.3995  0.1406
  464MOL0     C61177   1.062   3.295   1.036 -0.8028  0.1491 -0.5560
  464MOL0     C61178   0.925   3.352   1.010 -0.6124 -0.2038  0.1790
  464MOL0     C61179   0.850   3.353   1.137  0.2858 -0.2374 -0.2292
  464MOL0     C61180   0.811   3.350   1.243  0.1562 -1.2918 -0.1496
  464MOL0     C61181   1.139   2.707   1.042 -0.2122 -0.5023 -0.0979
  464MOL0     C61182   1.181   2.590   1.114 -0.0981 -1.1837 -0.4320
  464MOL0     H61183   1.640   2.354   1.407 -1.1279  0.1758 -1.6120
  464MOL0     H61184   1.683   2.190   1.602 -0.2053  0.3620 -0.6813
  464MOL0     H61185   1.399   1.962   1.640  0.9030  3.4456 -0.3846
  464MOL0     H61186   1.347   1.975   1.820  2.1571  1.3835  2.3971
  464MOL0     H61187   1.616   1.853   1.755  1.1745  2.6392  2.0090
  464MOL0     H61188   1.467   1.761   1.778  0.9241 -0.1284  1.8107
  464MOL0     H61189   1.445   1.834   2.004 -1.3774  1.6040 -1.2971
  464MOL0     H61190   1.577   1.943   2.008  3.9733 -1.0614  2.2978
  464MOL0     H61191   1.569   1.650   2.002  0.1332 -0.9877 -1.0365
  464MOL0     H61192   1.702   1.712   1.915  0.0935 -1.0478  0.2885
  464MOL0     H61193   1.633   1.813   2.205  0.1939 -1.6653  2.2136
  464MOL0     H61194   1.786   1.839   2.134  0.0990 -0.9750 -1.0067
  464MOL0     H61195   1.785   1.575   2.121 -0.6529 -1.3479 -0.0335
  464MOL0     H61196   1.671   1.577   2.249  1.1006  0.0276  0.5407
  464MOL0     H61197   1.944   1.717   2.247  1.0615 -1.1504  0.4742
  464MOL0     H61198   1.817   1.752   2.364  0.9147 -3.0832  4.5796
  464MOL0     H61199   1.915   1.464   2.347 -0.7557 -1.4980  0.3737
  464MOL0     H61200   1.795   1.541   2.450 -0.1372  0.7941  1.1025
  464MOL0     H61201   1.916   1.734   2.640  0.3391 -1.5224  5.1977
  464MOL0     H61202   2.107   1.851   2.790  3.1841  1.7966  1.3822
  464MOL0     H61203   2.254   1.802   2.761 -0.2663 -0.0512 -0.8193
  464MOL0     H61204   2.043   1.665   2.940 -1.1032  1.8119 -2.2129
  464MOL0     H61205   2.205   1.738   2.987 -1.0303  0.8920  0.7021
  464MOL0     H61206   2.164   1.467   2.975  1.6278  0.5356  1.1598
  464MOL0     H61207   2.155   1.488   2.803 -0.1406 -4.8589  2.4470
  464MOL0     H61208   2.386   1.595   2.820 -1.6613  2.7011  2.2180
  464MOL0     H61209   2.385   1.421   2.843 -1.6548 -1.8691  1.6387
  464MOL0     H61210   2.630   1.572   2.909  0.3058 -0.1583 -0.0404
  464MOL0     H61211   2.831   1.491   3.008  0.1721 -3.3676 -2.1779
  464MOL0     H61212   3.018   1.326   3.473 -1.5271 -1.4141  0.0758
  464MOL0     H61213   3.254   1.266   3.516  2.1339 -1.4744 -0.3641
  464MOL0     H61214   3.435   0.899   3.339 -0.2578  0.3890 -1.6374
  464MOL0     H61215   3.570   0.995   3.399 -0.4177 -1.5910 -0.3263
  464MOL0     H61216   3.543   1.166   3.211 -0.6367  0.7254 -1.0906
  464MOL0     H61217   3.400   1.073   3.162 -1.0674  1.6267  1.6982
  464MOL0     H61218   3.567   0.882   3.137 -2.8163  0.6010 -1.1983
  464MOL0     H61219   3.687   1.004   3.157 -0.7274 -0.8913  0.2878
  464MOL0     H61220   3.464   0.973   2.933  1.5189 -1.4398  0.3737
  464MOL0     H61221   3.541   1.128   2.967  2.8608 -0.2019  0.8370
  464MOL0     H61222   3.676   0.865   2.916 -1.1944 -0.6317 -1.1170
  464MOL0     H61223   3.760   1.026   2.924 -1.8403  2.2409 -1.5276
  464MOL0     H61224   3.575   0.916   2.708 -1.0530 -0.6245  2.4123
  464MOL0     H61225   3.746   0.939   2.692 -0.0600 -0.8982  0.1559
  464MOL0     H61226   3.546   1.158   2.723  0.1814  2.2115 -0.2825
  464MOL0     H61227   3.714   1.194   2.726 -0.8349 -0.1525  1.5007
  464MOL0     H61228   3.574   1.198   2.497 -1.5000  0.8903  2.9689
  464MOL0     H61229   3.607   1.015   2.506  0.9231  0.1352 -0.3057
  464MOL0     H61230   3.212   0.897   3.304 -4.2179 -2.5790  1.9926
  464MOL0     H61231   2.992   0.957   3.248 -1.8935 -1.0795  0.6281
  464MOL0     H61232   2.602   1.221   3.258  0.4700  0.1077  1.0946
  464MOL0     H61233   2.406   1.367   3.197 -0.7236 -0.8243 -1.4038
  464MOL0     H61234   1.263   2.207   1.696  0.1941  0.9243  1.3393
  464MOL0     H61235   1.240   2.394   1.531 -1.8017 -0.4401  1.9558
  464MOL0     H61236   1.438   2.719   1.284  0.1758  1.4448 -1.3568
  464MOL0     H61237   1.350   2.932   1.183  0.7457 -1.0461  2.1720
  464MOL0     H61238   1.260   3.131   0.978  0.2805  1.2262  0.2888
  464MOL0     H61239   1.223   3.098   1.140 -0.2906  2.8143 -0.9416
  464MOL0     H61240   1.010   3.119   0.915  2.1222 -0.8442 -0.5392
  464MOL0     H61241   0.980   3.107   1.097  2.0360  0.9140  2.5401
  464MOL0     H61242   1.140   3.327   0.967  1.4563 -1.1714  1.2638
  464MOL0     H61243   1.097   3.304   1.139 -1.3903 -1.0959 -0.2222
  464MOL0     H61244   0.927   3.458   0.984 -2.1953 -0.2875 -0.3264
  464MOL0     H61245   0.873   3.308   0.925  1.2581  0.4798 -1.3850
  464MOL0     H61246   0.771   3.360   1.342  0.4142  0.6538 -0.1923
  464MOL0     H61247   1.058   2.711   0.970  0.4466  2.0534 -0.8166
  464MOL0     H61248   1.131   2.496   1.095  0.0600 -1.4359  0.3540
  465MOL0     O61249  11.238   8.690  10.070 -0.1372  0.3270 -0.3763
  465MOL0     C61250  11.305   8.774  10.134 -0.0441 -0.5057 -0.3242
  465MOL0     O61251  11.353   8.755  10.267  0.1343  0.4787 -0.0567
  465MOL0     C61252  11.364   8.637  10.329  0.2349  1.1557 -0.7382
  465MOL0     C61253  11.394   8.643  10.471  0.8838  0.1637  0.4188
  465MOL0     C61254  11.427   8.535  10.545 -0.3107  0.6145  0.5766
  465MOL0     C61255  11.415   8.405  10.498  0.1320 -0.6465  0.2397
  465MOL0     O61256  11.430   8.290  10.576  0.3805 -0.2933  1.3377
  465MOL0     C61257  11.459   8.173  10.507  0.1449 -0.8611  0.6083
  465MOL0     C61258  11.522   8.060  10.600 -0.1443  0.1933 -0.2687
  465MOL0     C61259  11.445   8.016  10.722  0.6656 -0.5495 -0.4614
  465MOL0     C61260  11.481   7.868  10.755  0.7720 -0.6406  0.3098
  465MOL0     C61261  11.396   7.815  10.870  0.3340 -0.2011 -0.5726
  465MOL0     C61262  11.441   7.666  10.903  0.5379 -0.3903  0.8415
  465MOL0     C61263  11.362   7.558  10.830  0.6493  0.8140 -0.4341
  465MOL0     C61264  11.442   7.426  10.828  0.5970  0.8527 -0.5359
  465MOL0     N61265  11.394   7.337  10.718 -0.0144 -0.5540  0.4492
  465MOL0     C61266  11.368   7.207  10.734 -0.0179 -0.7122 -0.8120
  465MOL0     C61267  11.328   7.168  10.611 -0.2609 -0.1729  0.1817
  465MOL0     C61268  11.317   7.025  10.557  0.1502  0.3052  0.5727
  465MOL0     C61269  11.415   6.999  10.452 -0.5400 -0.9352 -0.6247
  465MOL0     C61270  11.440   6.852  10.436  0.0411  0.3759  0.9122
  465MOL0     C61271  11.562   6.825  10.337 -1.0209 -0.4830  0.8750
  465MOL0     O61272  11.545   6.871  10.200 -0.4926 -0.1203  0.1820
  465MOL0     C61273  11.655   6.892  10.126  0.2365 -0.5639  0.2827
  465MOL0     C61274  11.651   6.989  10.016  0.1108  0.0422  0.0418
  465MOL0     C61275  11.763   7.033   9.949 -0.9314  0.1924 -0.0282
  465MOL0     C61276  11.886   6.978   9.958 -0.2448  0.7477  0.3140
  465MOL0     C61277  12.002   7.007   9.862 -0.2447 -0.3120 -0.4603
  465MOL0     O61278  11.982   7.116   9.771  0.3768  0.6423 -0.8657
  465MOL0     C61279  12.046   7.117   9.655  0.1591  0.3725  0.9536
  465MOL0     C61280  12.071   7.251   9.618 -0.4525 -0.6306 -0.5791
  465MOL0     C61281  12.162   7.277   9.513  0.5290 -1.6274 -0.7419
  465MOL0     C61282  12.208   7.180   9.434  0.4286 -0.4151 -0.8826
  465MOL0     O61283  12.283   7.208   9.329  0.2698  0.2326  0.1124
  465MOL0     C61284  12.370   7.326   9.320 -0.0728  0.1569 -0.3707
  465MOL0     C61285  12.489   7.307   9.223 -0.9183  0.5238 -0.6014
  465MOL0     C61286  12.586   7.417   9.215 -0.2473 -0.0797 -0.2536
  465MOL0     C61287  12.704   7.374   9.115  0.4214 -0.0736 -0.1577
  465MOL0     C61288  12.810   7.290   9.198 -0.3525 -0.7711 -0.0026
  465MOL0     C61289  12.923   7.249   9.107  0.1938 -0.4101  0.7525
  465MOL0     C61290  13.016   7.149   9.170 -0.6135  0.3173 -0.6307
  465MOL0     C61291  13.133   7.115   9.078 -0.1365 -1.3432 -0.7246
  465MOL0    Cl61292  13.093   6.988   8.947  0.5213  0.9304  0.0532
  465MOL0     C61293  12.183   7.051   9.470 -0.2538 -0.4446  0.4726
  465MOL0     C61294  12.106   7.013   9.583  0.6376  0.4585  0.5709
  465MOL0     O61295  12.102   6.939   9.883  0.6964  1.0264  0.3620
  465MOL0     C61296  11.885   6.865  10.046  0.0883  0.2649  1.1715
  465MOL0     C61297  11.777   6.825  10.123 -0.4031  0.2683 -0.5983
  465MOL0     N61298  11.339   7.274  10.520  0.2166  0.3683  0.7603
  465MOL0     N61299  11.364   7.381  10.586  0.0842  0.2049  0.0765
  465MOL0     C61300  11.369   8.392  10.362  0.1479 -0.3423  0.2191
  465MOL0     C61301  11.330   8.509  10.290 -0.6129  0.0704  0.3058
  465MOL0     C61302  11.324   8.903  10.062  0.1718  0.3513 -0.0224
  465MOL0     C61303  11.413   8.995  10.119  1.3367 -0.9012  0.2269
  465MOL0     C61304  11.429   9.122  10.066 -0.3894  0.4417 -1.1029
  465MOL0     C61305  11.356   9.167   9.952 -0.6476  0.3619 -0.0622
  465MOL0     O61306  11.379   9.276   9.877  0.4232 -0.4813  0.5712
  465MOL0     C61307  11.471   9.381   9.920  0.0072  0.7376 -0.1147
  465MOL0     C61308  11.421   9.446  10.055  0.3041  0.2513  0.1001
  465MOL0     C61309  11.507   9.574  10.065 -0.3371 -0.0285  0.0449
  465MOL0     C61310  11.491   9.642  10.198  0.3051  0.2861  0.5981
  465MOL0     C61311  11.569   9.770  10.210  0.1185 -0.4822 -0.4591
  465MOL0     C61312  11.596   9.885  10.218 -0.3006  0.4148 -0.2569
  465MOL0     C61313  11.261   9.077   9.899 -0.4499 -0.3393  0.0824
  465MOL0     C61314  11.244   8.944   9.949 -0.4005 -0.2537  0.6202
  465MOL0     H61315  11.408   8.742  10.513 -1.7937  1.1237 -0.7674
  465MOL0     H61316  11.445   8.544  10.651 -1.8444 -0.5785  0.9768
  465MOL0     H61317  11.538   8.194  10.434  0.8003  1.5035  1.9026
  465MOL0     H61318  11.365   8.145  10.459 -0.3935  0.3851  0.8928
  465MOL0     H61319  11.620   8.091  10.638 -1.1009  0.2360  2.2994
  465MOL0     H61320  11.525   7.969  10.539  0.8267 -0.0345  0.0944
  465MOL0     H61321  11.340   8.033  10.697  0.3925 -2.6965 -0.9505
  465MOL0     H61322  11.467   8.077  10.810 -1.9317 -0.4775  0.2000
  465MOL0     H61323  11.456   7.809  10.666  1.6647 -1.8236  0.8167
  465MOL0     H61324  11.588   7.871  10.777  0.5639 -2.3390  1.7105
  465MOL0     H61325  11.291   7.816  10.836  0.4965  0.7399 -1.0835
  465MOL0     H61326  11.416   7.874  10.960 -0.3830 -2.5558  1.2157
  465MOL0     H61327  11.432   7.643  11.009  1.6331 -1.2535  0.7669
  465MOL0     H61328  11.549   7.660  10.885  0.8469  0.3579  2.2893
  465MOL0     H61329  11.265   7.537  10.877  1.3908  2.9284  2.3619
  465MOL0     H61330  11.350   7.589  10.726 -1.5065 -1.0202 -0.7919
  465MOL0     H61331  11.422   7.374  10.922  0.5046 -3.0542 -2.5142
  465MOL0     H61332  11.550   7.437  10.817  0.4523  1.9956 -0.9606
  465MOL0     H61333  11.397   7.145  10.818  2.9119 -1.8595 -2.5329
  465MOL0     H61334  11.214   7.011  10.523  0.1468 -0.1770  0.7645
  465MOL0     H61335  11.330   6.948  10.635 -0.5171  0.3485  0.7370
  465MOL0     H61336  11.513   7.047  10.468 -1.5624  1.1331 -0.1893
  465MOL0     H61337  11.378   7.037  10.357  0.8226  1.2578 -0.3568
  465MOL0     H61338  11.454   6.807  10.535 -2.0817 -1.5537  0.4017
  465MOL0     H61339  11.349   6.808  10.395 -0.5742  3.7094 -1.7930
  465MOL0     H61340  11.579   6.717  10.338 -2.5936 -0.7633  1.3937
  465MOL0     H61341  11.636   6.889  10.386 -1.0836  0.7246 -0.5551
  465MOL0     H61342  11.557   7.038   9.994  0.9363  1.6949  0.0356
  465MOL0     H61343  11.762   7.125   9.891  0.2769  1.4138  1.7803
  465MOL0     H61344  12.033   7.328   9.685 -3.0282 -1.0171 -1.4855
  465MOL0     H61345  12.181   7.382   9.492 -0.1616  0.2459  5.7912
  465MOL0     H61346  12.412   7.343   9.419 -0.3215 -2.4191  0.2524
  465MOL0     H61347  12.304   7.410   9.298  0.5232  0.8029  0.2494
  465MOL0     H61348  12.453   7.302   9.120 -1.7370  1.1044 -0.3621
  465MOL0     H61349  12.537   7.212   9.245 -0.4797  0.7420 -0.6084
  465MOL0     H61350  12.613   7.458   9.312 -1.6443 -0.7166  0.4276
  465MOL0     H61351  12.548   7.511   9.175 -0.6811 -0.0122  0.3135
  465MOL0     H61352  12.673   7.308   9.033  0.3436  0.0739 -0.2475
  465MOL0     H61353  12.745   7.465   9.070  0.7754  0.0598  0.4171
  465MOL0     H61354  12.766   7.195   9.229  0.5213 -1.3946 -0.6242
  465MOL0     H61355  12.841   7.350   9.283 -0.7905 -0.7829  0.1703
  465MOL0     H61356  12.981   7.334   9.072  0.0380  0.3205  2.2028
  465MOL0     H61357  12.899   7.209   9.008 -1.0689  1.1809  0.3770
  465MOL0     H61358  13.052   7.183   9.267  1.5398 -2.6416 -0.2550
  465MOL0     H61359  12.957   7.062   9.202  2.2454 -0.8159  1.9844
  465MOL0     H61360  13.202   7.065   9.147 -0.1746  1.9682  2.0004
  465MOL0     H61361  13.183   7.205   9.041  0.4328 -0.7971  1.2373
  465MOL0     H61362  12.248   6.974   9.428  0.2824  0.5221 -0.4998
  465MOL0     H61363  12.095   6.906   9.599  0.0969  0.0330 -2.1071
  465MOL0     H61364  11.972   6.801  10.055 -1.3515 -1.7089  1.5520
  465MOL0     H61365  11.786   6.745  10.196  1.8947  1.0766  0.0972
  465MOL0     H61366  11.365   8.299  10.306 -1.9112  0.4032 -0.9740
  465MOL0     H61367  11.299   8.482  10.190  2.1918 -0.1642 -0.5760
  465MOL0     H61368  11.467   8.983  10.212  3.0302  2.7975 -0.0921
  465MOL0     H61369  11.507   9.183  10.112 -1.4705  0.8916  0.2258
  465MOL0     H61370  11.469   9.455   9.838  2.3418  0.6127 -0.3546
  465MOL0     H61371  11.571   9.339   9.933 -0.7088 -0.3990  2.1625
  465MOL0     H61372  11.313   9.465  10.057 -0.1035 -1.8247  2.2111
  465MOL0     H61373  11.441   9.375  10.135  4.5088 -1.2738 -1.9981
  465MOL0     H61374  11.498   9.654   9.991  2.2052  3.3443  2.9862
  465MOL0     H61375  11.606   9.531  10.051 -1.6179 -2.1855 -3.4474
  465MOL0     H61376  11.387   9.667  10.223  0.0664 -0.8178  0.7705
  465MOL0     H61377  11.522   9.565  10.270  1.0217  1.1830  1.2739
  465MOL0     H61378  11.613   9.986  10.249  1.5272  0.2241 -0.4763
  465MOL0     H61379  11.197   9.119   9.822 -2.4362 -0.1723  1.7621
  465MOL0     H61380  11.172   8.877   9.903 -1.1805 -0.1991  1.7153
  466MOL0     O61381   2.605   1.693   5.626  0.1249 -0.4128  0.4972
  466MOL0     C61382   2.595   1.577   5.664  0.4027 -0.2963 -1.2008
  466MOL0     O61383   2.662   1.465   5.618  0.4406  0.2014  0.4202
  466MOL0     C61384   2.776   1.495   5.544  0.3323  0.1602  0.1490
  466MOL0     C61385   2.876   1.572   5.593  0.3299 -0.4907  0.2120
  466MOL0     C61386   3.000   1.577   5.535 -0.4469 -0.0007 -0.6102
  466MOL0     C61387   3.011   1.533   5.404 -0.3474 -0.1553 -0.5919
  466MOL0     O61388   3.127   1.554   5.335  0.8508  0.2373  0.1709
  466MOL0     C61389   3.126   1.653   5.227 -0.5423  0.0202  0.0974
  466MOL0     C61390   3.089   1.597   5.085 -0.1317  0.0325 -0.3162
  466MOL0     C61391   3.187   1.508   4.999 -0.2514 -0.2955  0.0102
  466MOL0     C61392   3.296   1.594   4.935  0.7746 -0.6996  1.0285
  466MOL0     C61393   3.383   1.497   4.854  0.0038  0.0811 -0.2223
  466MOL0     C61394   3.501   1.576   4.787  0.5234  0.1088  0.2635
  466MOL0     C61395   3.449   1.665   4.670  0.2512  0.0495  0.2594
  466MOL0     C61396   3.548   1.770   4.600  0.3283  0.4162  0.6928
  466MOL0     N61397   3.559   1.901   4.662  1.6717  0.0964 -0.9228
  466MOL0     C61398   3.565   2.024   4.598  0.9070 -0.0400 -0.2463
  466MOL0     C61399   3.569   2.119   4.692 -1.6397 -0.7622 -0.2745
  466MOL0     C61400   3.585   2.268   4.665  0.4706 -0.0282 -0.9413
  466MOL0     C61401   3.720   2.327   4.724 -0.4392 -0.0263 -0.0628
  466MOL0     C61402   3.746   2.477   4.683 -0.5442  0.1353 -0.3244
  466MOL0     C61403   3.663   2.584   4.751  0.2320 -0.6717 -0.3464
  466MOL0     O61404   3.693   2.564   4.897  0.3189  0.1951  1.1611
  466MOL0     C61405   3.585   2.558   4.983  0.3986  0.0601 -0.0885
  466MOL0     C61406   3.499   2.656   4.977  0.2083 -0.9063 -0.0650
  466MOL0     C61407   3.385   2.665   5.067  0.2574  0.4554 -0.1697
  466MOL0     C61408   3.373   2.563   5.165 -1.1021  0.1314  0.4550
  466MOL0     C61409   3.265   2.564   5.258  0.3152  0.0320  0.4629
  466MOL0     O61410   3.210   2.696   5.265 -0.0419 -0.3117  0.4973
  466MOL0     C61411   3.108   2.728   5.345  1.0142 -0.3342  0.1638
  466MOL0     C61412   3.111   2.735   5.485  0.4818 -0.7319  0.2598
  466MOL0     C61413   2.999   2.783   5.552  0.3546  0.5748  0.2101
  466MOL0     C61414   2.882   2.834   5.483 -0.4233  0.5527 -0.3318
  466MOL0     O61415   2.775   2.871   5.561  0.4880  0.0200 -0.2102
  466MOL0     C61416   2.655   2.908   5.496  0.6058  0.5282  0.5845
  466MOL0     C61417   2.554   2.966   5.596 -0.6144 -0.6246 -0.3821
  466MOL0     C61418   2.510   3.103   5.531  0.5421  0.7241  0.3749
  466MOL0     C61419   2.384   3.159   5.591  1.0508  0.0884  0.0316
  466MOL0     C61420   2.354   3.298   5.551 -0.1442  0.3257 -0.5615
  466MOL0     C61421   2.303   3.319   5.411 -0.0858  0.4065  0.7704
  466MOL0     C61422   2.203   3.437   5.417 -0.8074 -0.2384  0.2738
  466MOL0     C61423   2.241   3.561   5.478 -0.5488  0.0119 -0.4620
  466MOL0    Cl61424   2.169   3.694   5.387 -0.0375  0.1199  0.0535
  466MOL0     C61425   2.889   2.839   5.344 -0.0110  1.0890  0.3725
  466MOL0     C61426   2.998   2.778   5.273  0.5117  1.2667 -0.4423
  466MOL0     O61427   3.227   2.470   5.330 -0.9332 -0.5047  0.1399
  466MOL0     C61428   3.475   2.466   5.177  0.9885  0.8229  0.0239
  466MOL0     C61429   3.578   2.461   5.082 -0.3530  0.0528 -0.9405
  466MOL0     N61430   3.536   2.054   4.814  0.4393 -0.0739 -0.4158
  466MOL0     N61431   3.540   1.930   4.790 -0.0113 -0.3712 -0.2567
  466MOL0     C61432   2.911   1.456   5.353 -0.2032  0.3236  0.9646
  466MOL0     C61433   2.792   1.435   5.420  0.1864 -0.2560  0.1989
  466MOL0     C61434   2.498   1.556   5.778 -0.1094 -0.6724 -0.1060
  466MOL0     C61435   2.459   1.424   5.817  0.0497 -0.5129 -0.0055
  466MOL0     C61436   2.391   1.402   5.940 -0.1051  1.0044  0.0760
  466MOL0     C61437   2.341   1.503   6.012  1.2514 -0.3700  0.6291
  466MOL0     O61438   2.268   1.484   6.126 -0.5927  1.0299  0.4366
  466MOL0     C61439   2.188   1.370   6.144  1.1669 -0.5647 -0.0744
  466MOL0     C61440   2.099   1.364   6.260 -0.1253 -0.8964  0.6723
  466MOL0     C61441   2.020   1.225   6.267  0.1969  0.0208  0.4062
  466MOL0     C61442   1.941   1.211   6.402 -0.1409 -0.2328  0.5434
  466MOL0     C61443   1.864   1.087   6.391  0.3803 -0.3220 -0.1559
  466MOL0     C61444   1.785   1.006   6.361  0.3990 -0.0498 -1.3294
  466MOL0     C61445   2.346   1.634   5.962 -0.5105 -0.2023  0.1018
  466MOL0     C61446   2.439   1.661   5.851  1.0183  1.1384 -0.6224
  466MOL0     H61447   2.867   1.631   5.684 -1.5631  0.9495 -0.8320
  466MOL0     H61448   3.090   1.630   5.566  0.2161 -2.3223  1.7829
  466MOL0     H61449   3.229   1.683   5.206 -2.0205  4.6201 -1.8957
  466MOL0     H61450   3.074   1.743   5.261 -0.6835  0.0918 -0.3029
  466MOL0     H61451   3.052   1.686   5.034  2.6040  0.1497 -2.3008
  466MOL0     H61452   2.998   1.538   5.098 -1.5398  1.4402 -2.9653
  466MOL0     H61453   3.139   1.450   4.920 -2.8071  0.1336  1.1185
  466MOL0     H61454   3.229   1.435   5.068 -1.2853  0.4528  1.4973
  466MOL0     H61455   3.237   1.664   4.875 -1.4565 -1.8330  1.7773
  466MOL0     H61456   3.353   1.650   5.010 -1.1060  3.6548 -0.5003
  466MOL0     H61457   3.324   1.435   4.786  0.6125 -1.8020  0.8813
  466MOL0     H61458   3.426   1.427   4.927 -0.6698 -0.2512 -0.1351
  466MOL0     H61459   3.571   1.505   4.742  0.3941  1.2456 -1.8726
  466MOL0     H61460   3.540   1.640   4.867 -2.3328  1.5240  0.6422
  466MOL0     H61461   3.412   1.593   4.596  3.3671  0.7600 -2.2087
  466MOL0     H61462   3.356   1.716   4.696 -0.0719  0.4618 -1.5512
  466MOL0     H61463   3.527   1.784   4.493  1.6919 -0.0322  0.3475
  466MOL0     H61464   3.651   1.735   4.606  0.4854  0.6033 -0.6152
  466MOL0     H61465   3.541   2.038   4.493 -2.4771  0.0906  0.4277
  466MOL0     H61466   3.499   2.324   4.703  1.3137  2.3330 -2.3198
  466MOL0     H61467   3.587   2.271   4.556 -2.6307  0.1278 -1.1094
  466MOL0     H61468   3.808   2.272   4.692  1.0612  1.8979  0.5535
  466MOL0     H61469   3.723   2.321   4.833 -2.9342 -1.0118  0.0250
  466MOL0     H61470   3.850   2.510   4.697 -0.5538  0.5154 -1.1050
  466MOL0     H61471   3.735   2.477   4.575 -0.5085 -0.5239 -0.3319
  466MOL0     H61472   3.559   2.577   4.717  0.6349  1.3301 -2.2183
  466MOL0     H61473   3.703   2.682   4.724  2.0540 -1.6662 -1.4412
  466MOL0     H61474   3.509   2.739   4.907 -1.3359  0.3346  1.1124
  466MOL0     H61475   3.330   2.759   5.061  0.0994  0.2742 -3.0609
  466MOL0     H61476   3.180   2.682   5.550 -1.3783 -0.3932  2.6266
  466MOL0     H61477   2.990   2.772   5.660 -0.9067  0.0513  0.0729
  466MOL0     H61478   2.614   2.824   5.438  1.9595  0.4846 -0.3629
  466MOL0     H61479   2.674   2.985   5.421 -0.3418  3.6680  3.3167
  466MOL0     H61480   2.607   2.971   5.692  0.2902 -2.2196 -0.7612
  466MOL0     H61481   2.470   2.899   5.615  0.7598 -2.1418  0.6876
  466MOL0     H61482   2.490   3.085   5.425 -1.1658 -1.5535  1.0211
  466MOL0     H61483   2.598   3.166   5.549  1.6671 -0.2346 -1.4139
  466MOL0     H61484   2.310   3.082   5.569  0.5814  0.9457 -1.4975
  466MOL0     H61485   2.390   3.147   5.700  1.0350 -1.1793 -0.0983
  466MOL0     H61486   2.436   3.367   5.573 -0.0122  0.4455 -1.3703
  466MOL0     H61487   2.273   3.329   5.618 -1.0897  1.0059 -1.9410
  466MOL0     H61488   2.262   3.231   5.360  0.7585  1.9627 -2.9526
  466MOL0     H61489   2.379   3.346   5.337 -1.2629 -1.5238 -1.2861
  466MOL0     H61490   2.215   3.464   5.312 -0.3253 -1.8932 -0.1253
  466MOL0     H61491   2.103   3.411   5.454  0.3314 -2.7077  1.8027
  466MOL0     H61492   2.350   3.566   5.476 -0.1479 -4.1570  1.1174
  466MOL0     H61493   2.210   3.567   5.582  0.7541  1.5940 -0.1285
  466MOL0     H61494   2.808   2.859   5.275 -0.3615 -1.4680 -0.0812
  466MOL0     H61495   2.996   2.767   5.165 -2.7418 -1.8344 -0.2686
  466MOL0     H61496   3.469   2.378   5.240  0.2725  1.5137  0.9683
  466MOL0     H61497   3.647   2.380   5.102  0.7489  1.1135 -0.3711
  466MOL0     H61498   2.916   1.418   5.252  0.2269  1.5424  0.5111
  466MOL0     H61499   2.713   1.374   5.376  1.2496 -0.6080 -1.3057
  466MOL0     H61500   2.478   1.336   5.756  0.4526  0.8595 -1.9137
  466MOL0     H61501   2.374   1.298   5.969  1.6553  0.6629  0.0059
  466MOL0     H61502   2.247   1.278   6.141  0.5397 -0.9783 -0.0921
  466MOL0     H61503   2.123   1.351   6.057 -1.5411  0.0152  1.6982
  466MOL0     H61504   2.173   1.385   6.337 -0.0379 -0.7825  0.5583
  466MOL0     H61505   2.030   1.448   6.254  2.3899  1.2780 -4.9415
  466MOL0     H61506   2.089   1.141   6.258  3.4906  2.6320 -1.0875
  466MOL0     H61507   1.954   1.214   6.181  0.5604  1.4011 -0.0873
  466MOL0     H61508   2.015   1.203   6.482 -0.8082 -1.5934  1.0526
  466MOL0     H61509   1.876   1.297   6.422  0.1799  0.3521 -0.8053
  466MOL0     H61510   1.719   0.924   6.342  0.0743 -1.2918  3.7069
  466MOL0     H61511   2.292   1.711   6.015  1.1710  1.3417 -0.3232
  466MOL0     H61512   2.450   1.763   5.816 -2.0101  2.5205  1.9311
  467MOL0     O61513   5.394   5.406   0.775 -0.9709  0.7942  0.7093
  467MOL0     C61514   5.440   5.488   0.849 -0.8303 -0.6029 -1.1499
  467MOL0     O61515   5.563   5.542   0.849 -0.9741 -1.0173 -0.5036
  467MOL0     C61516   5.668   5.506   0.772 -0.3311 -1.1577 -0.4850
  467MOL0     C61517   5.796   5.572   0.787  0.9144 -0.3304  0.3978
  467MOL0     C61518   5.904   5.529   0.717 -0.0351  0.1991 -0.0972
  467MOL0     C61519   5.898   5.427   0.623  1.1191  0.3969 -0.4155
  467MOL0     O61520   6.011   5.397   0.544  0.2034 -0.9032 -0.5718
  467MOL0     C61521   6.011   5.274   0.468 -0.3309 -0.0475 -0.1870
  467MOL0     C61522   6.130   5.258   0.384 -0.2992 -0.4879 -0.5617
  467MOL0     C61523   6.266   5.281   0.459 -0.4016 -0.0471  0.4728
  467MOL0     C61524   6.385   5.263   0.356  0.3147 -0.0043 -0.0200
  467MOL0     C61525   6.517   5.263   0.426 -0.2128  0.5636 -0.5144
  467MOL0     C61526   6.633   5.242   0.327 -0.1793  1.3491 -0.6204
  467MOL0     C61527   6.682   5.375   0.241  1.0314  0.7062  0.5472
  467MOL0     C61528   6.724   5.484   0.328  0.4579  0.4786  0.8047
  467MOL0     N61529   6.818   5.447   0.444 -0.2616  0.6993  0.9917
  467MOL0     C61530   6.938   5.408   0.432  0.2465  0.1764  0.0559
  467MOL0     C61531   7.002   5.456   0.549 -0.7511  0.1237 -0.6295
  467MOL0     C61532   7.142   5.429   0.601 -0.7617 -0.1516  0.7894
  467MOL0     C61533   7.247   5.463   0.484 -0.6129  0.8003  0.0013
  467MOL0     C61534   7.391   5.454   0.534 -0.2766  0.5411  0.0400
  467MOL0     C61535   7.458   5.318   0.516 -0.1618  0.2683 -0.5957
  467MOL0     O61536   7.377   5.222   0.585 -0.2414  0.6054 -0.0448
  467MOL0     C61537   7.417   5.181   0.708 -0.2693 -0.0120 -0.3097
  467MOL0     C61538   7.501   5.261   0.789 -1.4129  1.0494  1.1641
  467MOL0     C61539   7.535   5.212   0.918  0.8855  1.2891  0.3393
  467MOL0     C61540   7.478   5.090   0.966 -0.1032 -0.1610 -0.0367
  467MOL0     C61541   7.522   5.036   1.103 -1.0840 -0.6602 -0.1622
  467MOL0     O61542   7.639   5.098   1.153  0.2396  0.0290 -0.3431
  467MOL0     C61543   7.707   5.069   1.267  0.1823  0.3122  0.1149
  467MOL0     C61544   7.684   4.958   1.360 -0.0397  0.0360  0.0840
  467MOL0     C61545   7.753   4.961   1.486  0.4098  0.7951 -0.3133
  467MOL0     C61546   7.833   5.066   1.526 -0.6442  0.7684  0.4238
  467MOL0     O61547   7.879   5.061   1.651  0.5159  0.3361  0.6573
  467MOL0     C61548   7.966   5.164   1.705 -0.4075 -0.6238 -0.7916
  467MOL0     C61549   8.005   5.107   1.842  0.2686 -0.1353  0.6820
  467MOL0     C61550   8.165   5.119   1.863  0.6902  0.8547 -0.5362
  467MOL0     C61551   8.239   4.997   1.814  0.6385  0.3035  0.4819
  467MOL0     C61552   8.387   4.993   1.853 -0.8342 -0.2211 -0.1583
  467MOL0     C61553   8.421   4.988   2.010  0.3846  0.4619  0.4229
  467MOL0     C61554   8.560   4.926   2.036 -0.7061  0.4276  0.5745
  467MOL0     C61555   8.606   4.931   2.179 -1.1212 -0.0267 -0.6973
  467MOL0    Cl61556   8.480   4.903   2.293 -0.0460 -0.0552  0.1375
  467MOL0     C61557   7.871   5.157   1.427  0.3313 -0.4717 -0.8359
  467MOL0     C61558   7.810   5.163   1.296  0.3974 -0.2492 -0.8162
  467MOL0     O61559   7.460   4.946   1.155 -0.0779 -0.1681 -0.0815
  467MOL0     C61560   7.389   5.012   0.880  0.2655  0.7160 -0.3450
  467MOL0     C61561   7.359   5.070   0.757 -0.1527  0.1402  0.0509
  467MOL0     N61562   6.906   5.508   0.633  0.1541 -0.4236 -0.3891
  467MOL0     N61563   6.801   5.512   0.569  0.1161  0.5536 -0.0763
  467MOL0     C61564   5.776   5.355   0.613 -1.3255 -0.1083 -0.7702
  467MOL0     C61565   5.666   5.397   0.693 -0.1266  0.7963  0.0352
  467MOL0     C61566   5.350   5.527   0.961 -0.5171  0.3543  0.2250
  467MOL0     C61567   5.402   5.587   1.075 -0.6112 -0.3074 -0.5212
  467MOL0     C61568   5.322   5.617   1.188  0.0760 -0.2680 -0.0333
  467MOL0     C61569   5.183   5.591   1.189 -0.6565  0.3889  0.7264
  467MOL0     O61570   5.095   5.631   1.293  0.7963 -0.6807 -0.3124
  467MOL0     C61571   5.131   5.617   1.431  0.4501  0.7469  0.2850
  467MOL0     C61572   5.141   5.465   1.474  0.0247  0.1504 -0.2881
  467MOL0     C61573   5.177   5.447   1.624  0.4066  0.4322  1.3656
  467MOL0     C61574   5.081   5.501   1.721  0.3148 -0.7432 -0.4281
  467MOL0     C61575   5.091   5.641   1.767 -0.9354  0.4091 -0.6214
  467MOL0     C61576   5.085   5.755   1.806  0.8942 -0.0249  0.6757
  467MOL0     C61577   5.135   5.536   1.072  0.8077  0.2046 -0.0824
  467MOL0     C61578   5.214   5.505   0.957 -1.1354 -0.2432 -0.3312
  467MOL0     H61579   5.806   5.662   0.847  0.5222  0.5569 -0.8385
  467MOL0     H61580   6.008   5.559   0.724  0.0230  0.2465 -1.0607
  467MOL0     H61581   5.922   5.283   0.405 -0.7073 -0.5872  0.2583
  467MOL0     H61582   6.014   5.185   0.531 -0.3404  1.2635  1.7945
  467MOL0     H61583   6.117   5.317   0.293 -2.6299 -1.7088 -1.1142
  467MOL0     H61584   6.130   5.154   0.348  0.3975 -0.6269 -0.1803
  467MOL0     H61585   6.279   5.211   0.542  0.0809 -1.1529 -0.5059
  467MOL0     H61586   6.268   5.385   0.493  0.4045  0.3977 -0.8610
  467MOL0     H61587   6.381   5.171   0.299  0.4520  0.3493 -0.6039
  467MOL0     H61588   6.389   5.343   0.282  1.1352  1.0835  1.1443
  467MOL0     H61589   6.520   5.186   0.503  0.2010 -0.5096 -1.5698
  467MOL0     H61590   6.539   5.363   0.467  3.3650 -0.3888  0.2854
  467MOL0     H61591   6.601   5.160   0.261 -0.9470  2.1201 -1.2306
  467MOL0     H61592   6.715   5.201   0.386 -1.2483 -0.2352 -0.1348
  467MOL0     H61593   6.763   5.355   0.170 -0.0038 -2.9349  0.2133
  467MOL0     H61594   6.603   5.406   0.172  0.3704 -1.4066  0.2902
  467MOL0     H61595   6.629   5.533   0.351 -0.1635  0.5603 -1.6822
  467MOL0     H61596   6.782   5.563   0.280  0.3743  1.2146  1.8806
  467MOL0     H61597   6.990   5.383   0.340 -2.3285 -0.7152 -1.2618
  467MOL0     H61598   7.141   5.327   0.641 -6.0423 -0.9142 -0.4502
  467MOL0     H61599   7.157   5.497   0.685  3.7239 -1.9078  1.7064
  467MOL0     H61600   7.223   5.561   0.441 -1.0873  0.7111  0.0538
  467MOL0     H61601   7.253   5.384   0.409  1.0698  2.1004 -1.3076
  467MOL0     H61602   7.456   5.514   0.469  2.3654 -1.4491  0.6724
  467MOL0     H61603   7.410   5.480   0.639  3.5389 -0.1903 -0.3132
  467MOL0     H61604   7.559   5.332   0.555 -0.4816 -0.4128  0.5269
  467MOL0     H61605   7.464   5.293   0.410 -0.0445 -0.7395 -0.3608
  467MOL0     H61606   7.536   5.359   0.760  3.5954 -1.1016 -1.2817
  467MOL0     H61607   7.609   5.255   0.984  2.9389 -0.7655 -0.4804
  467MOL0     H61608   7.616   4.876   1.341  2.7200 -2.1246 -1.3705
  467MOL0     H61609   7.735   4.884   1.560  4.6699  1.1772  1.4210
  467MOL0     H61610   7.916   5.260   1.720  0.6001  0.0128 -1.4263
  467MOL0     H61611   8.049   5.181   1.636  0.8316  4.7266  1.5379
  467MOL0     H61612   7.979   5.001   1.835 -2.7687  0.5769 -1.1022
  467MOL0     H61613   7.952   5.162   1.920  3.3400  1.2447  1.9602
  467MOL0     H61614   8.195   5.132   1.967 -1.4236  2.4941 -0.0501
  467MOL0     H61615   8.203   5.205   1.807 -3.5472  3.0890 -0.4503
  467MOL0     H61616   8.187   4.909   1.853 -1.7048  2.3631  2.3817
  467MOL0     H61617   8.235   4.999   1.705  0.9711  2.9305  0.4436
  467MOL0     H61618   8.435   5.081   1.810  1.0439 -1.4289 -0.6642
  467MOL0     H61619   8.426   4.901   1.808 -1.8473 -0.4155 -0.6693
  467MOL0     H61620   8.347   4.928   2.064 -0.2733  0.4412 -0.4858
  467MOL0     H61621   8.422   5.090   2.050  1.8934  0.7573 -0.2846
  467MOL0     H61622   8.569   4.819   2.011 -0.7919  0.2253  1.3955
  467MOL0     H61623   8.629   4.984   1.974 -0.4471  1.1889  1.5694
  467MOL0     H61624   8.644   5.033   2.190  0.2662 -0.5339 -0.4474
  467MOL0     H61625   8.692   4.868   2.207 -1.1572  1.0294  2.0741
  467MOL0     H61626   7.940   5.239   1.445 -0.6955 -0.0418  1.5791
  467MOL0     H61627   7.840   5.236   1.222  1.8190 -2.3488 -2.4593
  467MOL0     H61628   7.336   4.927   0.922  2.1120  0.4806  1.6825
  467MOL0     H61629   7.291   5.015   0.694 -1.8428  1.0078  1.0360
  467MOL0     H61630   5.758   5.280   0.538  0.4665 -2.2797  0.8085
  467MOL0     H61631   5.584   5.325   0.688  1.4160 -1.0260 -0.2490
  467MOL0     H61632   5.509   5.604   1.080 -0.5659 -0.3312 -1.3724
  467MOL0     H61633   5.358   5.667   1.277 -4.1266  0.4641  1.4820
  467MOL0     H61634   5.043   5.650   1.487  0.0541  1.3819 -0.7010
  467MOL0     H61635   5.221   5.669   1.466 -1.1904  1.9337  3.1153
  467MOL0     H61636   5.055   5.403   1.447 -0.9475 -0.3074  3.3119
  467MOL0     H61637   5.226   5.414   1.427  0.8328 -3.4406  4.2740
  467MOL0     H61638   5.283   5.466   1.643  0.6559  1.1430 -0.4774
  467MOL0     H61639   5.165   5.339   1.636  2.4580  0.2384  2.1434
  467MOL0     H61640   4.980   5.486   1.681 -0.2779  1.2229  0.2328
  467MOL0     H61641   5.084   5.427   1.802  0.8398 -2.0983 -1.6387
  467MOL0     H61642   5.078   5.859   1.831 -1.4546 -0.6454  3.1736
  467MOL0     H61643   5.028   5.515   1.068  0.6229  1.2396 -2.3856
  467MOL0     H61644   5.172   5.469   0.863  1.0352  2.2346 -2.3853
  468MOL0     O61645   8.223   7.947  10.159  0.2640  0.0679  0.3352
  468MOL0     C61646   8.256   7.904  10.269 -0.4946 -1.0374 -0.4027
  468MOL0     O61647   8.245   7.772  10.310  0.9172  0.0266  0.5703
  468MOL0     C61648   8.230   7.663  10.224  1.2000  0.5499 -0.8835
  468MOL0     C61649   8.254   7.648  10.089 -0.3078  0.4853 -0.1083
  468MOL0     C61650   8.242   7.522  10.029  0.1452  0.2471 -0.8266
  468MOL0     C61651   8.185   7.411  10.096 -0.4659 -0.6002 -0.2474
  468MOL0     O61652   8.146   7.296  10.029  0.2127  0.1764 -1.2576
  468MOL0     C61653   8.083   7.312   9.899  0.4136  0.7206  0.4862
  468MOL0     C61654   7.959   7.402   9.894 -0.5386  0.4677 -0.1274
  468MOL0     C61655   7.876   7.376   9.768 -0.6057  0.9681  0.4994
  468MOL0     C61656   7.779   7.497   9.723 -0.7703  0.0090  0.2151
  468MOL0     C61657   7.706   7.478   9.589 -0.2656 -0.0206 -0.0644
  468MOL0     C61658   7.584   7.394   9.598  0.5005 -1.3608 -0.1232
  468MOL0     C61659   7.492   7.411   9.469 -0.2481 -0.0624  0.3908
  468MOL0     C61660   7.550   7.361   9.346  0.6842  1.0120  0.8851
  468MOL0     N61661   7.569   7.220   9.332 -1.3694 -0.1830 -0.5264
  468MOL0     C61662   7.689   7.159   9.370  0.2359 -0.6148 -0.8526
  468MOL0     C61663   7.690   7.037   9.318 -0.2144  0.7882  0.2047
  468MOL0     C61664   7.812   6.948   9.320 -0.2081 -0.0183 -0.0827
  468MOL0     C61665   7.790   6.807   9.393 -0.0393  0.3492  0.5867
  468MOL0     C61666   7.843   6.789   9.538 -0.7491 -0.8306  0.5599
  468MOL0     C61667   7.800   6.902   9.627  0.2658 -0.6654 -0.1264
  468MOL0     O61668   7.876   6.895   9.753 -0.1275 -0.2902  0.4319
  468MOL0     C61669   7.856   6.956   9.869  0.2528 -0.3713 -0.2886
  468MOL0     C61670   7.740   7.023   9.908  0.7493  0.0828  0.0011
  468MOL0     C61671   7.728   7.090  10.038 -0.0444 -0.4053  0.2838
  468MOL0     C61672   7.845   7.097  10.119  0.6154  0.3780 -0.7455
  468MOL0     C61673   7.854   7.185  10.233  0.7597  0.8973  0.4063
  468MOL0     O61674   7.761   7.280  10.226  0.1445 -1.1969 -0.4915
  468MOL0     C61675   7.742   7.358  10.333 -0.4211 -0.1806 -0.5823
  468MOL0     C61676   7.664   7.316  10.439 -1.5330  0.0859  0.2095
  468MOL0     C61677   7.668   7.386  10.558 -0.2198 -0.2419  1.0339
  468MOL0     C61678   7.723   7.511  10.568 -0.6326  0.4284 -0.4234
  468MOL0     O61679   7.713   7.596  10.672 -0.2039  0.2371  0.1308
  468MOL0     C61680   7.706   7.546  10.809  0.4958  0.5383 -1.4619
  468MOL0     C61681   7.626   7.655  10.886 -0.2783  1.0864 -0.2343
  468MOL0     C61682   7.684   7.793  10.872  1.4491 -0.4111 -0.1575
  468MOL0     C61683   7.604   7.887  10.952 -0.8243  0.1508 -0.4745
  468MOL0     C61684   7.625   8.035  10.907 -0.0105  0.4404 -0.6682
  468MOL0     C61685   7.572   8.066  10.772 -0.8961 -1.3427  0.0040
  468MOL0     C61686   7.603   8.214  10.742  0.4289 -0.4284 -0.4674
  468MOL0     C61687   7.556   8.258  10.605  0.3181 -0.9199 -0.2381
  468MOL0    Cl61688   7.617   8.431  10.591  0.6637  0.1228 -0.4094
  468MOL0     C61689   7.819   7.545  10.464 -0.0475 -0.3174 -0.2042
  468MOL0     C61690   7.821   7.471  10.347 -0.2799  0.1531  0.2199
  468MOL0     O61691   7.940   7.163  10.316 -0.2876  0.3530 -0.3731
  468MOL0     C61692   7.955   7.015  10.090 -0.6026  0.0032  0.5139
  468MOL0     C61693   7.963   6.959   9.960  0.3134 -0.6516 -0.8006
  468MOL0     N61694   7.570   7.012   9.265  0.7870 -1.0227 -0.3604
  468MOL0     N61695   7.499   7.127   9.275  0.3854  0.7111 -0.5579
  468MOL0     C61696   8.156   7.430  10.228  0.0216  0.6655 -0.0350
  468MOL0     C61697   8.186   7.550  10.293  0.5882  0.8647  0.2293
  468MOL0     C61698   8.296   8.001  10.373  0.4606  0.6022 -0.9334
  468MOL0     C61699   8.392   7.980  10.468 -0.8697 -0.2600 -0.6505
  468MOL0     C61700   8.441   8.076  10.557  0.7935 -0.3464 -0.5059
  468MOL0     C61701   8.407   8.210  10.539 -0.1857 -0.4968 -0.2017
  468MOL0     O61702   8.442   8.316  10.619  0.3319  0.0289  0.3135
  468MOL0     C61703   8.369   8.444  10.624  0.3254  0.4200  0.8862
  468MOL0     C61704   8.432   8.546  10.730 -0.6338 -0.6104 -0.0530
  468MOL0     C61705   8.468   8.690  10.675 -1.3478  0.2481 -0.3237
  468MOL0     C61706   8.346   8.774  10.622  0.8352  0.3600  0.4729
  468MOL0     C61707   8.230   8.773  10.705  0.2660 -0.0161  0.2749
  468MOL0     C61708   8.130   8.775  10.768 -0.2201 -0.3816  0.0373
  468MOL0     C61709   8.303   8.230  10.447 -0.3105  0.9089 -0.2996
  468MOL0     C61710   8.255   8.131  10.374 -1.0692 -0.7189 -0.5542
  468MOL0     H61711   8.309   7.725  10.036 -0.4205  1.9948  1.8873
  468MOL0     H61712   8.265   7.524   9.923 -1.2244 -0.5186 -1.1595
  468MOL0     H61713   8.048   7.212   9.870  0.5815 -0.2008  3.1729
  468MOL0     H61714   8.158   7.346   9.827  1.3957 -3.9533 -1.0386
  468MOL0     H61715   7.985   7.508   9.894  1.4802  0.0473  2.1421
  468MOL0     H61716   7.901   7.364   9.979 -0.1890  2.1831  0.9196
  468MOL0     H61717   7.815   7.286   9.773 -0.0137  0.3203 -2.2293
  468MOL0     H61718   7.950   7.360   9.689 -2.0679  1.1374 -0.9456
  468MOL0     H61719   7.700   7.514   9.796 -0.3940  0.3512  0.5416
  468MOL0     H61720   7.836   7.590   9.716 -0.1555 -0.4870 -2.8395
  468MOL0     H61721   7.775   7.446   9.511  2.1392  2.2512  0.9965
  468MOL0     H61722   7.677   7.574   9.547  1.0303 -1.4155 -4.8042
  468MOL0     H61723   7.521   7.424   9.682  0.8487 -3.7220  1.0798
  468MOL0     H61724   7.597   7.287   9.620 -1.6544 -1.4146  1.1919
  468MOL0     H61725   7.398   7.356   9.480 -0.0218 -0.5370 -0.0027
  468MOL0     H61726   7.475   7.515   9.439 -0.7009  0.1583  1.3832
  468MOL0     H61727   7.649   7.403   9.325  1.5304 -0.8918  0.8646
  468MOL0     H61728   7.479   7.404   9.274 -2.8046  1.7077  4.4203
  468MOL0     H61729   7.774   7.199   9.424 -1.7333  1.1527  1.1744
  468MOL0     H61730   7.901   6.992   9.365 -2.3323 -0.3591  5.1109
  468MOL0     H61731   7.836   6.914   9.218 -1.3909  4.1019 -1.9516
  468MOL0     H61732   7.836   6.726   9.336 -3.7616 -1.8726  0.4368
  468MOL0     H61733   7.683   6.785   9.395 -0.2178  0.5043 -2.7269
  468MOL0     H61734   7.828   6.689   9.579  0.1030 -0.5386  1.6141
  468MOL0     H61735   7.951   6.800   9.528 -0.9111 -1.1852 -2.6786
  468MOL0     H61736   7.697   6.880   9.656 -0.0392 -0.5726 -1.1098
  468MOL0     H61737   7.819   6.999   9.579  0.1487 -1.1433 -1.1687
  468MOL0     H61738   7.647   7.031   9.853 -0.9623 -2.5355  2.2334
  468MOL0     H61739   7.640   7.149  10.064  1.7679  4.0682 -2.4880
  468MOL0     H61740   7.611   7.221  10.434 -2.5584  0.6836 -0.4273
  468MOL0     H61741   7.616   7.334  10.638  0.8364 -0.7456  1.4214
  468MOL0     H61742   7.805   7.529  10.851 -0.2707 -1.4404 -0.3102
  468MOL0     H61743   7.657   7.448  10.815  1.7277 -0.0732 -1.0922
  468MOL0     H61744   7.630   7.627  10.992 -0.3935  1.3284 -0.1644
  468MOL0     H61745   7.520   7.654  10.859 -0.7637  2.2294  1.4841
  468MOL0     H61746   7.673   7.825  10.767 -0.4437  2.7514  0.8670
  468MOL0     H61747   7.787   7.801  10.909  1.2590 -1.4707  0.6288
  468MOL0     H61748   7.496   7.866  10.946 -0.8077 -1.3429  2.4145
  468MOL0     H61749   7.618   7.877  11.060  0.5695  3.1412 -0.2888
  468MOL0     H61750   7.728   8.063  10.931  0.5245 -0.8248 -1.3972
  468MOL0     H61751   7.563   8.082  10.985 -0.7417  0.1813 -1.0831
  468MOL0     H61752   7.466   8.041  10.759 -1.6165  1.6861 -0.7070
  468MOL0     H61753   7.637   8.021  10.697  1.4705  0.4590  0.8543
  468MOL0     H61754   7.549   8.273  10.816  2.2841  1.7642 -0.7441
  468MOL0     H61755   7.707   8.249  10.749 -0.5966  3.4295 -1.8446
  468MOL0     H61756   7.447   8.255  10.594  0.3658  0.1340 -1.2907
  468MOL0     H61757   7.608   8.197  10.531  0.4402 -0.0013 -0.9370
  468MOL0     H61758   7.885   7.631  10.464 -1.2348  0.6549  1.8153
  468MOL0     H61759   7.892   7.487  10.267  0.6833 -3.7119  0.0750
  468MOL0     H61760   8.050   7.033  10.141 -0.1899  2.4311 -0.9108
  468MOL0     H61761   8.060   6.918   9.936  0.6407 -1.0259  1.0310
  468MOL0     H61762   8.087   7.360  10.275  0.6784  0.9650  1.4251
  468MOL0     H61763   8.149   7.552  10.395  1.0721 -2.6911  0.6257
  468MOL0     H61764   8.430   7.883  10.500  1.3210  1.0264  0.8645
  468MOL0     H61765   8.518   8.045  10.627 -0.2537  2.6091  2.2627
  468MOL0     H61766   8.265   8.432  10.653  0.1992  1.6259  1.0073
  468MOL0     H61767   8.377   8.491  10.525  0.9013 -1.9554 -0.2573
  468MOL0     H61768   8.358   8.553  10.810  0.8816  0.0158  1.3356
  468MOL0     H61769   8.528   8.508  10.765 -0.1216  0.6696 -0.0256
  468MOL0     H61770   8.549   8.685  10.601 -1.0317 -0.8927  0.0818
  468MOL0     H61771   8.522   8.732  10.760 -0.0632 -0.6624 -0.6430
  468MOL0     H61772   8.378   8.873  10.588 -3.6320  1.9340  0.1517
  468MOL0     H61773   8.321   8.732  10.524  1.0121  3.6104 -1.1131
  468MOL0     H61774   8.045   8.778  10.833  0.0397 -0.7270  0.3966
  468MOL0     H61775   8.246   8.321  10.434 -4.9968 -1.6605  0.1660
  468MOL0     H61776   8.173   8.161  10.309 -0.6577 -1.2702 -1.3465
  469MOL0     O61777   3.359   5.579   8.441 -0.5801 -0.2412  0.0512
  469MOL0     C61778   3.364   5.576   8.562 -0.4916  0.8956  0.6198
  469MOL0     O61779   3.469   5.607   8.640  0.6093  0.6285  0.0264
  469MOL0     C61780   3.585   5.616   8.571  0.3747 -1.2904 -0.9770
  469MOL0     C61781   3.620   5.737   8.512 -0.6689 -0.1940  0.4380
  469MOL0     C61782   3.738   5.740   8.435 -0.9348  0.5876 -0.3529
  469MOL0     C61783   3.832   5.641   8.439  1.0348  0.6307  0.2124
  469MOL0     O61784   3.955   5.642   8.377 -0.1034 -0.9025  1.0748
  469MOL0     C61785   3.991   5.760   8.292 -0.2778 -0.0524 -0.2893
  469MOL0     C61786   4.144   5.759   8.262 -0.7255  0.5015  0.1017
  469MOL0     C61787   4.237   5.798   8.381 -0.5386 -0.9837  0.1837
  469MOL0     C61788   4.371   5.829   8.327  0.0655  0.4899 -1.0334
  469MOL0     C61789   4.398   5.945   8.228  0.4834  0.0047 -1.1050
  469MOL0     C61790   4.547   5.950   8.204 -0.1143  0.7674 -0.0134
  469MOL0     C61791   4.578   6.079   8.128 -1.6139 -0.1970  0.6236
  469MOL0     C61792   4.735   6.094   8.102 -0.2670 -1.1230  0.8313
  469MOL0     N61793   4.773   6.224   8.034  0.6106  1.2159 -0.0597
  469MOL0     C61794   4.733   6.347   8.079 -0.7760  0.1926  0.9755
  469MOL0     C61795   4.817   6.427   8.004 -0.8187 -0.7156  0.2308
  469MOL0     C61796   4.797   6.576   8.001 -0.2585 -0.0775 -0.7629
  469MOL0     C61797   4.857   6.652   8.116 -0.5375  0.6352  0.6972
  469MOL0     C61798   4.824   6.800   8.110  0.3197 -0.2477 -0.5782
  469MOL0     C61799   4.949   6.864   8.044  0.7722 -0.3627  0.0970
  469MOL0     O61800   4.951   7.015   8.043 -0.0019  0.1907  1.2070
  469MOL0     C61801   5.028   7.057   7.935  0.3533  0.2374  0.8710
  469MOL0     C61802   5.111   6.983   7.837  0.3475  0.2738 -0.1372
  469MOL0     C61803   5.191   7.042   7.734  0.7819  0.1495 -0.2384
  469MOL0     C61804   5.196   7.181   7.721 -0.2753 -0.2515 -0.9102
  469MOL0     C61805   5.280   7.239   7.614  0.5337 -1.0945  0.1212
  469MOL0     O61806   5.259   7.369   7.576  0.6249 -0.2892 -0.2082
  469MOL0     C61807   5.349   7.420   7.488  0.8873 -0.4715  0.6571
  469MOL0     C61808   5.485   7.378   7.483 -0.4546  0.0670  0.0779
  469MOL0     C61809   5.579   7.429   7.390 -0.5371  0.6321 -0.7926
  469MOL0     C61810   5.539   7.535   7.310 -0.3390  0.4236  0.0965
  469MOL0     O61811   5.634   7.602   7.229  0.6998 -0.2514  0.8218
  469MOL0     C61812   5.725   7.694   7.282  0.5841  0.2004 -0.7999
  469MOL0     C61813   5.830   7.722   7.180 -1.3305 -0.2324 -0.6818
  469MOL0     C61814   5.956   7.781   7.243 -0.6991 -0.2992 -0.0884
  469MOL0     C61815   6.055   7.803   7.127 -0.1017  0.0889 -0.4956
  469MOL0     C61816   6.172   7.886   7.188 -0.8068  0.4233  0.8156
  469MOL0     C61817   6.285   7.879   7.093 -0.7558 -0.9671  0.3166
  469MOL0     C61818   6.419   7.924   7.156  0.6244 -0.5149 -0.3730
  469MOL0     C61819   6.441   8.073   7.170 -0.6682 -0.8547 -0.5086
  469MOL0    Cl61820   6.616   8.120   7.222  0.0672 -0.5021 -0.4672
  469MOL0     C61821   5.403   7.572   7.320 -0.5307 -0.4148 -0.0715
  469MOL0     C61822   5.310   7.525   7.406  0.1501  1.1610  1.1906
  469MOL0     O61823   5.348   7.151   7.554  0.3366 -0.4241  0.1270
  469MOL0     C61824   5.116   7.260   7.815  1.1235  0.0885 -0.6450
  469MOL0     C61825   5.041   7.191   7.921 -1.1588 -0.3971  0.8391
  469MOL0     N61826   4.911   6.353   7.927  0.7887 -0.3527 -1.1240
  469MOL0     N61827   4.894   6.233   7.970 -0.3140 -0.5115 -0.0305
  469MOL0     C61828   3.795   5.523   8.500  0.1869  0.9622 -0.5755
  469MOL0     C61829   3.671   5.506   8.570 -0.6181 -0.4649 -0.5710
  469MOL0     C61830   3.249   5.524   8.626 -0.3986  1.3494  0.7496
  469MOL0     C61831   3.223   5.513   8.763 -1.0917 -0.9209  0.5284
  469MOL0     C61832   3.107   5.456   8.810 -0.1153 -1.2694  0.4864
  469MOL0     C61833   3.007   5.422   8.726  1.3856 -1.5195  0.0646
  469MOL0     O61834   2.883   5.379   8.774  0.5324 -0.4444  0.3095
  469MOL0     C61835   2.849   5.407   8.907  0.2135  0.6883 -0.9889
  469MOL0     C61836   2.699   5.366   8.916  0.0159 -0.3192  0.7056
  469MOL0     C61837   2.652   5.340   9.054 -0.4488 -0.6253 -0.4245
  469MOL0     C61838   2.495   5.315   9.062 -0.3262 -0.5616  0.5917
  469MOL0     C61839   2.451   5.207   8.965 -0.6236 -0.4464 -0.2229
  469MOL0     C61840   2.415   5.113   8.899  0.0376  0.4028 -0.6780
  469MOL0     C61841   3.023   5.432   8.582 -0.1529  0.0822  0.5794
  469MOL0     C61842   3.140   5.487   8.539 -0.0621  0.3391  0.1065
  469MOL0     H61843   3.567   5.830   8.527 -0.7468 -0.1272 -0.2247
  469MOL0     H61844   3.765   5.832   8.383  1.2675 -0.7495 -1.7658
  469MOL0     H61845   3.974   5.855   8.343 -0.7339 -0.4666  0.3417
  469MOL0     H61846   3.930   5.756   8.200  0.7283 -1.0340 -0.9374
  469MOL0     H61847   4.152   5.833   8.182 -0.1138 -1.1722 -1.4420
  469MOL0     H61848   4.161   5.659   8.222 -4.3246 -0.1799  0.0005
  469MOL0     H61849   4.247   5.713   8.448  0.3992  2.3220  4.7020
  469MOL0     H61850   4.198   5.891   8.423  1.3084  1.5285 -3.0892
  469MOL0     H61851   4.438   5.846   8.412 -1.3604 -1.6174  0.6126
  469MOL0     H61852   4.402   5.736   8.280 -1.0246 -0.0944 -0.6306
  469MOL0     H61853   4.387   6.041   8.279 -2.3278 -1.4580  1.3831
  469MOL0     H61854   4.338   5.941   8.137 -0.7900  0.1056 -0.3017
  469MOL0     H61855   4.579   5.858   8.154 -1.9997  1.3407 -2.5153
  469MOL0     H61856   4.601   5.960   8.298  0.0334  0.0490 -0.0184
  469MOL0     H61857   4.516   6.079   8.038 -2.9697  4.7885  1.2434
  469MOL0     H61858   4.547   6.176   8.169  1.8451  0.4563  1.9793
  469MOL0     H61859   4.773   6.006   8.048  0.8999  0.4270 -1.0137
  469MOL0     H61860   4.798   6.093   8.190  0.4993 -4.9668  0.4429
  469MOL0     H61861   4.647   6.377   8.139  0.3473  2.8248  1.3613
  469MOL0     H61862   4.688   6.589   8.001 -0.2264  0.2110 -1.4760
  469MOL0     H61863   4.833   6.626   7.911  0.4928  0.2125 -0.3109
  469MOL0     H61864   4.964   6.632   8.125 -1.0133 -1.6801  1.9724
  469MOL0     H61865   4.813   6.605   8.204  0.0098 -1.6607 -0.1787
  469MOL0     H61866   4.731   6.807   8.053 -0.7642  0.1717  1.1701
  469MOL0     H61867   4.800   6.848   8.205 -0.0989  0.4144 -1.0100
  469MOL0     H61868   4.960   6.831   7.941 -3.5396 -0.3833 -0.5446
  469MOL0     H61869   5.042   6.830   8.092  2.9144  0.1050 -3.4232
  469MOL0     H61870   5.122   6.875   7.832 -1.0757  0.0710  0.4986
  469MOL0     H61871   5.269   6.980   7.691  0.8214 -1.0924  1.4984
  469MOL0     H61872   5.527   7.317   7.563  1.2731  0.6007 -0.3814
  469MOL0     H61873   5.679   7.400   7.417  0.1976  2.2486 -1.6457
  469MOL0     H61874   5.773   7.664   7.376  0.7106  0.6583 -0.7142
  469MOL0     H61875   5.680   7.792   7.300 -0.4798 -0.6663  1.6827
  469MOL0     H61876   5.788   7.796   7.111  3.2358  2.5734 -0.8310
  469MOL0     H61877   5.870   7.643   7.115  3.3077  1.2173  0.1002
  469MOL0     H61878   5.998   7.725   7.328  1.0250  0.7503 -0.1856
  469MOL0     H61879   5.925   7.881   7.274  2.2563  0.9861 -0.9687
  469MOL0     H61880   6.089   7.706   7.089  0.3191 -0.6057  1.5157
  469MOL0     H61881   6.016   7.858   7.040  1.2577  2.8941  0.5276
  469MOL0     H61882   6.201   7.825   7.274 -3.0936  1.2581  2.2802
  469MOL0     H61883   6.152   7.987   7.224 -0.0951  2.3886 -3.5829
  469MOL0     H61884   6.254   7.941   7.009 -1.1342 -1.6989 -0.0942
  469MOL0     H61885   6.290   7.777   7.054 -1.1304 -0.6032 -0.7132
  469MOL0     H61886   6.420   7.873   7.253  1.3374 -2.7078 -1.4622
  469MOL0     H61887   6.500   7.884   7.095  1.8410  0.7906  0.3442
  469MOL0     H61888   6.370   8.090   7.251  1.7465  1.6706  1.2295
  469MOL0     H61889   6.399   8.123   7.082  0.8456 -2.3662 -2.1838
  469MOL0     H61890   5.376   7.662   7.266 -0.8668  1.5484  3.0992
  469MOL0     H61891   5.205   7.554   7.407 -0.0117  0.5897  0.9234
  469MOL0     H61892   5.119   7.368   7.817 -1.1593  0.2817  3.5111
  469MOL0     H61893   4.987   7.243   7.999 -2.0267 -0.6081  0.3868
  469MOL0     H61894   3.864   5.438   8.502 -0.4726  0.3436 -2.4082
  469MOL0     H61895   3.639   5.418   8.625 -1.8785 -0.2011 -0.8324
  469MOL0     H61896   3.303   5.539   8.831 -1.3193  2.7311 -0.3719
  469MOL0     H61897   3.097   5.429   8.914 -2.8963 -2.4544  0.0064
  469MOL0     H61898   2.859   5.509   8.944  2.4053  0.3671 -0.5651
  469MOL0     H61899   2.904   5.344   8.978 -0.1236  2.3077  0.7892
  469MOL0     H61900   2.658   5.453   8.863 -0.1854 -0.7186  0.1980
  469MOL0     H61901   2.666   5.285   8.851  0.5025  2.3426 -3.2409
  469MOL0     H61902   2.669   5.436   9.103 -2.6562  0.5140 -1.7565
  469MOL0     H61903   2.713   5.262   9.101  1.5568  0.8202 -0.4886
  469MOL0     H61904   2.460   5.288   9.162 -1.2111 -1.5317  0.0391
  469MOL0     H61905   2.439   5.408   9.046  4.4845  2.8465  1.2310
  469MOL0     H61906   2.390   5.023   8.847 -2.7903 -0.3552  1.7244
  469MOL0     H61907   2.939   5.416   8.515  0.3765 -1.1648  0.1951
  469MOL0     H61908   3.143   5.505   8.432  2.0814 -0.1106  0.0537
  470MOL0     O61909   2.293   5.410  10.440  0.2853 -0.4282 -0.0301
  470MOL0     C61910   2.277   5.415  10.316 -0.7004 -0.6914 -0.4966
  470MOL0     O61911   2.331   5.325  10.223 -0.2268 -0.0070  0.0279
  470MOL0     C61912   2.422   5.236  10.260 -0.6489  0.4257 -0.5260
  470MOL0     C61913   2.538   5.238  10.190 -0.1395 -0.3094  0.6397
  470MOL0     C61914   2.629   5.128  10.196 -0.1405 -1.0826  0.1137
  470MOL0     C61915   2.601   5.016  10.275  0.8198  0.9296 -0.3079
  470MOL0     O61916   2.682   4.904  10.284  0.8471  0.0910 -0.2333
  470MOL0     C61917   2.784   4.907  10.384 -0.0515 -0.4861  0.3282
  470MOL0     C61918   2.902   4.986  10.332 -0.0048 -0.7132  1.0397
  470MOL0     C61919   2.989   4.914  10.226 -0.2469 -0.9633 -0.4924
  470MOL0     C61920   3.120   4.998  10.199  0.3498  0.2973  0.3067
  470MOL0     C61921   3.218   4.948  10.315  0.2590  0.2478  0.3171
  470MOL0     C61922   3.320   5.052  10.333  0.5443 -0.2389  0.6358
  470MOL0     C61923   3.444   5.054  10.225  0.9337 -0.3980 -0.5961
  470MOL0     C61924   3.537   4.942  10.262 -0.0327  0.3176  0.1546
  470MOL0     N61925   3.627   4.909  10.148 -1.0029 -0.4089 -0.5013
  470MOL0     C61926   3.603   4.842  10.027 -0.7214  0.2392  1.3122
  470MOL0     C61927   3.728   4.837   9.974 -0.2509 -0.7311  0.6628
  470MOL0     C61928   3.769   4.751   9.859  0.0788 -0.4361 -0.3952
  470MOL0     C61929   3.896   4.791   9.792 -0.5185 -0.6272 -0.7373
  470MOL0     C61930   3.876   4.936   9.731  0.3051  0.1956  0.0237
  470MOL0     C61931   4.000   5.029   9.709  0.3870 -0.2687  0.3564
  470MOL0     O61932   4.095   4.961   9.632 -0.7675  0.4441  0.5336
  470MOL0     C61933   4.209   5.028   9.605  0.2901  0.6971 -0.0708
  470MOL0     C61934   4.238   5.171   9.633 -0.6539  0.3046 -0.8535
  470MOL0     C61935   4.351   5.238   9.577  0.3942 -0.5335  0.5479
  470MOL0     C61936   4.443   5.173   9.499 -1.0179  0.4119  0.2283
  470MOL0     C61937   4.568   5.239   9.447 -0.1621 -1.7887  0.8821
  470MOL0     O61938   4.646   5.177   9.362 -0.0021 -0.1341 -0.0407
  470MOL0     C61939   4.747   5.246   9.297  0.4986 -0.3450  0.5869
  470MOL0     C61940   4.856   5.164   9.281  0.2962  0.4691  0.8804
  470MOL0     C61941   4.976   5.208   9.223 -0.5697  0.3278  0.2158
  470MOL0     C61942   4.980   5.336   9.165 -0.9854  0.2041 -0.3733
  470MOL0     O61943   5.102   5.373   9.120  0.4228 -0.4986 -0.2606
  470MOL0     C61944   5.145   5.511   9.117 -0.7108  0.5474 -0.4525
  470MOL0     C61945   5.298   5.519   9.100 -0.3854 -0.7768  0.8109
  470MOL0     C61946   5.340   5.537   8.943  0.0900  0.2061  0.0486
  470MOL0     C61947   5.477   5.598   8.928 -0.2647  0.7517 -0.5957
  470MOL0     C61948   5.518   5.632   8.786 -0.3995 -0.4923  0.3425
  470MOL0     C61949   5.666   5.654   8.777  0.2934  0.0187  0.6519
  470MOL0     C61950   5.710   5.709   8.635  0.0521  0.4257  0.2709
  470MOL0     C61951   5.694   5.599   8.531 -0.3558 -0.3846 -0.6424
  470MOL0    Cl61952   5.742   5.639   8.364 -0.3964 -0.1973 -0.0982
  470MOL0     C61953   4.864   5.414   9.180 -0.3412 -1.1970  0.3983
  470MOL0     C61954   4.748   5.379   9.245 -1.3175 -0.1067  0.2507
  470MOL0     O61955   4.593   5.349   9.498 -0.4533  0.2167  0.2705
  470MOL0     C61956   4.424   5.035   9.482  0.5158  0.3481  0.1663
  470MOL0     C61957   4.306   4.967   9.531  0.0086 -0.4635  0.3970
  470MOL0     N61958   3.820   4.906  10.055  0.3464 -0.5598 -0.7410
  470MOL0     N61959   3.756   4.952  10.160  0.3148 -0.3634 -0.5218
  470MOL0     C61960   2.483   5.020  10.356  0.7341  0.1605  0.2163
  470MOL0     C61961   2.396   5.125  10.343 -0.2425  0.4841 -0.6094
  470MOL0     C61962   2.222   5.540  10.270 -0.0428  0.0078  0.1541
  470MOL0     C61963   2.087   5.572  10.292  0.0210  1.0688 -0.5348
  470MOL0     C61964   2.025   5.686  10.240 -0.1383 -0.1628  0.5349
  470MOL0     C61965   2.112   5.787  10.196 -0.4324  0.1395  0.8461
  470MOL0     O61966   2.063   5.906  10.162 -0.0641 -0.7548 -0.4520
  470MOL0     C61967   1.954   5.964  10.245  0.3500  0.5994 -0.6942
  470MOL0     C61968   1.923   6.111  10.207  0.6851 -0.7040  0.1062
  470MOL0     C61969   2.045   6.203  10.258 -0.0275  0.0326 -0.4028
  470MOL0     C61970   2.003   6.275  10.389 -0.1053 -0.1559 -0.2654
  470MOL0     C61971   1.952   6.410  10.356  0.0533  0.2638  0.2816
  470MOL0     C61972   1.928   6.522  10.327 -0.2915  0.1098 -1.3825
  470MOL0     C61973   2.251   5.762  10.178 -0.0084 -0.3530  0.0889
  470MOL0     C61974   2.304   5.632  10.208 -0.5256  0.0932 -0.3593
  470MOL0     H61975   2.558   5.320  10.121  0.5496  1.5447  2.9244
  470MOL0     H61976   2.709   5.126  10.123 -1.2243  2.3148 -1.3210
  470MOL0     H61977   2.824   4.809  10.410 -1.7604 -1.3455 -0.0949
  470MOL0     H61978   2.738   4.949  10.474 -0.9028  0.0455 -0.3439
  470MOL0     H61979   2.968   5.004  10.417  1.1383 -1.1691  0.2756
  470MOL0     H61980   2.861   5.083  10.303 -2.0679 -1.8425 -0.1308
  470MOL0     H61981   2.939   4.905  10.129 -0.7190 -0.2460 -0.3230
  470MOL0     H61982   3.016   4.816  10.266 -0.5510 -0.9288 -0.1972
  470MOL0     H61983   3.165   4.961  10.106 -0.8391  3.5926 -1.7719
  470MOL0     H61984   3.100   5.105  10.202 -1.0807  0.0806 -0.4219
  470MOL0     H61985   3.265   4.851  10.296  3.9856  2.0898 -0.6588
  470MOL0     H61986   3.166   4.935  10.411  0.1657  1.5581  0.4652
  470MOL0     H61987   3.370   5.035  10.429  0.8912 -0.7772  0.3695
  470MOL0     H61988   3.274   5.151  10.333  1.2995  0.1200  0.6873
  470MOL0     H61989   3.401   5.032  10.126 -1.1057  0.3685  0.0525
  470MOL0     H61990   3.487   5.154  10.231 -2.8199  1.3522  0.4049
  470MOL0     H61991   3.474   4.853  10.271 -1.4356  0.8612 -2.9363
  470MOL0     H61992   3.605   4.951  10.347  1.1640 -2.6319 -0.3706
  470MOL0     H61993   3.507   4.799  10.001 -0.7205  1.8272 -1.8496
  470MOL0     H61994   3.700   4.756   9.775  2.6460  0.9878 -2.5815
  470MOL0     H61995   3.778   4.648   9.895 -2.4431 -0.9023 -0.9529
  470MOL0     H61996   3.925   4.724   9.710 -0.9735 -0.4136 -1.0791
  470MOL0     H61997   3.981   4.812   9.858 -1.3311  3.5847 -0.7515
  470MOL0     H61998   3.820   4.930   9.638 -1.6912  0.4011  1.1441
  470MOL0     H61999   3.805   4.995   9.790  0.9646 -1.6854  2.9473
  470MOL0     H62000   4.043   5.041   9.809 -0.0289 -2.0574  0.7873
  470MOL0     H62001   3.972   5.123   9.661  0.6677 -1.3044 -2.0072
  470MOL0     H62002   4.173   5.242   9.684  0.6242  1.5636 -0.9231
  470MOL0     H62003   4.355   5.347   9.583 -3.5497 -0.1875 -0.0279
  470MOL0     H62004   4.865   5.058   9.304  2.0480 -0.9483 -4.5977
  470MOL0     H62005   5.055   5.134   9.215  0.0845  1.1514 -1.7456
  470MOL0     H62006   5.106   5.566   9.204  0.0391  0.9312 -0.3534
  470MOL0     H62007   5.104   5.546   9.022 -1.3160  0.1643 -0.3372
  470MOL0     H62008   5.336   5.431   9.150 -2.4510 -1.4032  1.3988
  470MOL0     H62009   5.322   5.613   9.150  2.7754 -2.1001  2.0199
  470MOL0     H62010   5.266   5.597   8.888  0.3122  0.5178  0.0832
  470MOL0     H62011   5.344   5.433   8.911  0.7355 -1.0211  3.7033
  470MOL0     H62012   5.491   5.692   8.982  2.7517 -0.2728  0.5966
  470MOL0     H62013   5.559   5.535   8.964 -2.5821 -0.8505  2.2459
  470MOL0     H62014   5.470   5.727   8.760  0.3450 -0.1793  0.0879
  470MOL0     H62015   5.479   5.566   8.708 -3.8538  2.5638 -0.7983
  470MOL0     H62016   5.727   5.569   8.804 -1.0229 -2.0451 -2.2772
  470MOL0     H62017   5.687   5.735   8.847  1.4811  0.4408 -0.1706
  470MOL0     H62018   5.650   5.797   8.609 -0.7219  0.2462  1.3953
  470MOL0     H62019   5.815   5.741   8.644  0.2065 -0.5657  3.4330
  470MOL0     H62020   5.588   5.572   8.529 -0.9877  1.7755  0.5905
  470MOL0     H62021   5.755   5.517   8.569 -0.1524  0.1015  0.0990
  470MOL0     H62022   4.874   5.518   9.149  1.3561 -1.4504 -0.0078
  470MOL0     H62023   4.671   5.456   9.248 -0.5107  0.6938  1.2018
  470MOL0     H62024   4.483   4.992   9.403 -2.2963  0.2171 -2.0357
  470MOL0     H62025   4.297   4.860   9.517 -0.0767 -0.2193 -1.7449
  470MOL0     H62026   2.460   4.934  10.418 -1.2325 -0.8006 -1.7192
  470MOL0     H62027   2.298   5.128  10.388 -0.4800 -0.5719 -1.0311
  470MOL0     H62028   2.031   5.484  10.325 -2.1572  2.6039  0.1271
  470MOL0     H62029   1.919   5.708  10.231  0.0623  0.9752  0.8834
  470MOL0     H62030   1.970   5.961  10.353 -0.1317  4.8701 -0.3151
  470MOL0     H62031   1.868   5.900  10.229  1.4912 -0.7160 -1.7829
  470MOL0     H62032   1.905   6.114  10.099 -1.1075 -1.4631  0.3381
  470MOL0     H62033   1.831   6.143  10.258  1.7148 -0.5463  1.9280
  470MOL0     H62034   2.073   6.274  10.179  2.5957 -2.1227 -1.5856
  470MOL0     H62035   2.133   6.139  10.271 -1.1977 -1.9319 -1.6742
  470MOL0     H62036   1.917   6.225  10.435  0.0362  0.3280  0.5313
  470MOL0     H62037   2.075   6.272  10.471 -1.4887 -0.7812  0.9857
  470MOL0     H62038   1.916   6.624  10.294  1.4969  0.5306 -0.8427
  470MOL0     H62039   2.319   5.839  10.145  0.3050 -1.0839 -1.0024
  470MOL0     H62040   2.404   5.607  10.176  0.1122  2.2361 -0.2194
  471MOL0     O62041   2.951   6.779  11.172  0.5506 -0.4150  0.9062
  471MOL0     C62042   2.993   6.698  11.094 -0.7197 -0.0137 -0.1683
  471MOL0     O62043   3.064   6.586  11.121 -0.0873  0.0958 -0.2228
  471MOL0     C62044   3.101   6.576  11.259  0.1085 -0.1050  0.9446
  471MOL0     C62045   3.180   6.674  11.318 -0.4371  0.4730  0.2772
  471MOL0     C62046   3.209   6.666  11.460  0.1430  0.2226  0.3284
  471MOL0     C62047   3.166   6.554  11.533  0.1034  0.7865 -0.0898
  471MOL0     O62048   3.184   6.560  11.668 -0.3471  0.0173  0.1566
  471MOL0     C62049   3.200   6.439  11.750  0.0136  0.0758  0.2136
  471MOL0     C62050   3.338   6.422  11.809 -0.3986 -0.7323  0.4283
  471MOL0     C62051   3.439   6.417  11.696 -0.3409  0.0687  0.6490
  471MOL0     C62052   3.574   6.432  11.758  0.2931 -0.1176  0.1031
  471MOL0     C62053   3.687   6.425  11.655 -0.7313  0.4323  0.3166
  471MOL0     C62054   3.701   6.568  11.584  1.1019  0.0707  0.2714
  471MOL0     C62055   3.794   6.564  11.468 -0.5374 -0.2565 -0.0925
  471MOL0     C62056   3.791   6.705  11.389  0.3155 -0.7119  0.1800
  471MOL0     N62057   3.678   6.724  11.290 -0.1940 -0.7316 -0.2476
  471MOL0     C62058   3.631   6.629  11.208 -0.8973  0.5212 -0.6393
  471MOL0     C62059   3.514   6.677  11.157  0.4774 -0.0004 -0.6612
  471MOL0     C62060   3.406   6.605  11.068 -0.4445  0.0419  0.5546
  471MOL0     C62061   3.454   6.546  10.933  0.2987 -0.4025 -0.1338
  471MOL0     C62062   3.491   6.646  10.819 -0.0099 -1.2030  0.5925
  471MOL0     C62063   3.367   6.746  10.778 -0.2025 -0.7055 -0.4957
  471MOL0     O62064   3.257   6.683  10.715  0.8465  0.4308 -0.2541
  471MOL0     C62065   3.213   6.761  10.611  0.5313  0.8500  0.3973
  471MOL0     C62066   3.142   6.875  10.649 -0.3436  0.2808 -0.2996
  471MOL0     C62067   3.098   6.969  10.555 -0.2934  0.2152 -0.0504
  471MOL0     C62068   3.136   6.946  10.418  0.1184 -0.6745  0.0631
  471MOL0     C62069   3.099   7.046  10.316  1.2044 -0.0463  1.2470
  471MOL0     O62070   3.117   7.016  10.190  0.8155  0.1438 -0.4612
  471MOL0     C62071   3.111   7.106  10.082  0.0195 -0.1498  1.0471
  471MOL0     C62072   2.988   7.130  10.023 -0.1373 -0.3083 -0.7450
  471MOL0     C62073   2.989   7.214   9.909 -0.0053  0.6703  0.6449
  471MOL0     C62074   3.101   7.285   9.870  0.2463 -0.5396 -0.9761
  471MOL0     O62075   3.090   7.374   9.770 -0.3947  0.4443  0.0269
  471MOL0     C62076   3.132   7.509   9.797  0.4086  0.0128 -0.0779
  471MOL0     C62077   3.094   7.592   9.684 -0.1903 -0.4036 -0.4176
  471MOL0     C62078   2.949   7.598   9.646 -0.0984 -0.9499  0.1049
  471MOL0     C62079   2.920   7.703   9.531 -0.1439  0.0818 -1.0664
  471MOL0     C62080   2.778   7.714   9.474  0.7552 -0.1060  0.4123
  471MOL0     C62081   2.770   7.806   9.352  1.0856  0.7833 -0.1269
  471MOL0     C62082   2.626   7.811   9.285  0.3818 -0.1381  0.0966
  471MOL0     C62083   2.624   7.882   9.149 -0.1007 -0.7846 -0.8294
  471MOL0    Cl62084   2.450   7.870   9.083  0.1506 -0.8302 -0.2742
  471MOL0     C62085   3.228   7.258   9.928 -0.6506  0.2743 -0.2962
  471MOL0     C62086   3.224   7.176  10.040  1.3319  0.1411 -0.3807
  471MOL0     O62087   3.045   7.151  10.351  0.0182 -0.4797  0.1501
  471MOL0     C62088   3.194   6.818  10.377  1.0298 -0.7189 -0.6867
  471MOL0     C62089   3.234   6.729  10.478  0.0742 -0.1754  0.1132
  471MOL0     N62090   3.487   6.797  11.218 -0.5790 -0.3615 -0.0472
  471MOL0     N62091   3.585   6.820  11.291 -0.1535  0.0491  0.5189
  471MOL0     C62092   3.098   6.446  11.469  0.3022 -0.3024  0.4088
  471MOL0     C62093   3.060   6.459  11.333 -0.6356  1.1650  0.4331
  471MOL0     C62094   2.945   6.711  10.953 -0.4221  0.3539  0.3118
  471MOL0     C62095   2.998   6.627  10.851  1.0223 -0.3811  0.4416
  471MOL0     C62096   2.938   6.628  10.718  0.4793  0.3608 -0.7784
  471MOL0     C62097   2.846   6.722  10.684  0.1096  1.3265 -0.3153
  471MOL0     O62098   2.800   6.721  10.556 -0.1577 -0.1479 -0.7612
  471MOL0     C62099   2.759   6.848  10.491 -0.5801 -0.1236 -0.9121
  471MOL0     C62100   2.696   6.821  10.348 -1.1533 -0.1583  0.4116
  471MOL0     C62101   2.809   6.838  10.237 -0.0048 -0.1849  0.0507
  471MOL0     C62102   2.762   6.806  10.094  0.0264 -0.4221  0.1449
  471MOL0     C62103   2.665   6.902  10.043  0.3698 -0.2060 -0.6003
  471MOL0     C62104   2.586   6.981  10.001  0.5506 -0.1530 -0.5043
  471MOL0     C62105   2.818   6.822  10.776  0.5183 -0.5900 -0.2559
  471MOL0     C62106   2.859   6.812  10.912 -0.6610  0.1230  0.2747
  471MOL0     H62107   3.228   6.758  11.268  2.6560 -2.8620 -2.9625
  471MOL0     H62108   3.260   6.746  11.513  0.7822  0.2045 -0.2404
  471MOL0     H62109   3.179   6.341  11.705 -0.8356 -0.2966  1.3797
  471MOL0     H62110   3.132   6.449  11.835 -1.1126 -0.3451 -0.6025
  471MOL0     H62111   3.341   6.329  11.867 -0.4220 -1.3635 -0.5643
  471MOL0     H62112   3.380   6.508  11.861  0.0441  1.0694 -2.6738
  471MOL0     H62113   3.414   6.488  11.616  1.7292 -0.8498 -0.9103
  471MOL0     H62114   3.416   6.330  11.633 -2.5703  2.8805 -2.8597
  471MOL0     H62115   3.578   6.526  11.813  0.4149 -0.0928  0.0532
  471MOL0     H62116   3.581   6.347  11.827 -0.0007  0.9874  1.5329
  471MOL0     H62117   3.669   6.352  11.576 -0.2811 -0.2726  0.8582
  471MOL0     H62118   3.787   6.410  11.698 -1.3674 -1.9586  1.1048
  471MOL0     H62119   3.733   6.650  11.649  0.8999 -0.3730  0.9526
  471MOL0     H62120   3.601   6.583  11.543  0.5877 -2.3218  0.5052
  471MOL0     H62121   3.894   6.544  11.506  0.5024  0.4249 -2.3013
  471MOL0     H62122   3.767   6.486  11.397 -0.5612 -1.9746  1.7352
  471MOL0     H62123   3.880   6.711  11.326  2.6368 -2.8465  2.9548
  471MOL0     H62124   3.782   6.789  11.459  1.3306  4.2266 -4.8963
  471MOL0     H62125   3.684   6.542  11.169 -0.5738 -0.1634  1.2489
  471MOL0     H62126   3.316   6.667  11.062  0.4512  1.2862 -0.7463
  471MOL0     H62127   3.364   6.536  11.142 -2.6223  2.1826  1.4507
  471MOL0     H62128   3.378   6.472  10.907 -0.0429 -0.3927  0.7992
  471MOL0     H62129   3.545   6.490  10.952  0.3348  0.1401  1.4621
  471MOL0     H62130   3.575   6.712  10.843 -0.5977  0.0678 -0.6948
  471MOL0     H62131   3.508   6.578  10.734 -0.8138  1.4671 -1.8422
  471MOL0     H62132   3.407   6.823  10.711  0.6844 -0.0684  0.7368
  471MOL0     H62133   3.328   6.795  10.868 -0.0870 -1.1877 -0.1818
  471MOL0     H62134   3.114   6.886  10.754 -1.9458  0.9351 -0.7773
  471MOL0     H62135   3.050   7.060  10.588 -0.3025 -0.8061  3.0881
  471MOL0     H62136   2.893   7.094  10.060 -2.4245  1.6352 -4.1234
  471MOL0     H62137   2.898   7.245   9.859 -0.0171 -0.5707 -0.1607
  471MOL0     H62138   3.239   7.508   9.818  1.3001 -0.7294 -3.8692
  471MOL0     H62139   3.089   7.551   9.888  1.8811  0.9065  0.2326
  471MOL0     H62140   3.159   7.573   9.598  1.9304  3.0567  0.2052
  471MOL0     H62141   3.119   7.693   9.718 -0.9913 -0.6617  1.0097
  471MOL0     H62142   2.887   7.638   9.728 -0.0256  3.1023 -1.5656
  471MOL0     H62143   2.916   7.497   9.620 -1.3409 -0.4700 -0.2839
  471MOL0     H62144   2.946   7.801   9.572 -2.7800 -0.5604  2.7903
  471MOL0     H62145   2.992   7.677   9.453  0.3081  0.7465 -0.8794
  471MOL0     H62146   2.711   7.753   9.550  0.4711 -1.1704  0.7294
  471MOL0     H62147   2.725   7.622   9.447  0.0360 -0.1996  2.0611
  471MOL0     H62148   2.840   7.780   9.272  1.6097 -0.4862  0.7145
  471MOL0     H62149   2.795   7.911   9.373  2.1709  0.7897 -1.3011
  471MOL0     H62150   2.592   7.707   9.284 -2.1290  0.6003  0.3953
  471MOL0     H62151   2.557   7.861   9.354  1.0894 -2.3404  2.5596
  471MOL0     H62152   2.695   7.834   9.081 -0.0230 -3.9546  1.2693
  471MOL0     H62153   2.634   7.990   9.163 -4.3915 -0.4969  2.1524
  471MOL0     H62154   3.321   7.282   9.879  0.0695 -0.7502  0.5359
  471MOL0     H62155   3.313   7.160  10.100  0.0281 -1.2644  1.2687
  471MOL0     H62156   3.214   6.803  10.271 -0.6684  3.0709 -1.6874
  471MOL0     H62157   3.290   6.643  10.443  0.6049  0.5558 -0.8726
  471MOL0     H62158   3.062   6.361  11.525 -1.7606 -0.1517 -0.6021
  471MOL0     H62159   3.008   6.380  11.280 -0.1661 -1.1504  3.1978
  471MOL0     H62160   3.075   6.555  10.879  1.1036 -1.9609 -3.2500
  471MOL0     H62161   2.976   6.550  10.652 -0.7096 -0.4120 -0.5805
  471MOL0     H62162   2.841   6.919  10.493 -0.0676 -0.7204 -0.4430
  471MOL0     H62163   2.671   6.881  10.547 -1.1512  2.1256 -2.9660
  471MOL0     H62164   2.662   6.719  10.328 -1.9877  0.0639  0.6179
  471MOL0     H62165   2.616   6.893  10.329 -0.4099  0.0270 -2.4843
  471MOL0     H62166   2.891   6.775  10.270  1.5553  1.4939 -0.4369
  471MOL0     H62167   2.845   6.941  10.243 -0.6457  0.2770 -2.5125
  471MOL0     H62168   2.843   6.813  10.021  0.6707 -0.1643  0.8714
  471MOL0     H62169   2.719   6.706  10.078 -0.7123  0.0683 -1.0448
  471MOL0     H62170   2.513   7.041   9.950 -1.1588 -0.4269  1.4842
  471MOL0     H62171   2.769   6.914  10.745  2.3813  0.0242 -1.5235
  471MOL0     H62172   2.828   6.889  10.982 -0.1832 -0.9930  1.7639
  472MOL0     O62173  10.819   4.635   0.303  0.9240 -0.3064  0.4576
  472MOL0     C62174  10.895   4.646   0.391  0.2757  0.0809  0.3526
  472MOL0     O62175  10.932   4.546   0.480 -0.3032 -0.0332  0.3939
  472MOL0     C62176  10.841   4.462   0.535  0.2499 -0.0785  0.6237
  472MOL0     C62177  10.883   4.344   0.590  0.4868  0.1264  0.2636
  472MOL0     C62178  10.799   4.255   0.648  0.0626  0.2521  0.1331
  472MOL0     C62179  10.660   4.288   0.671 -0.9116 -0.0940  0.3301
  472MOL0     O62180  10.560   4.207   0.719  0.0707 -1.1536 -0.1695
  472MOL0     C62181  10.576   4.069   0.743  0.4236  0.5178  0.1274
  472MOL0     C62182  10.526   3.975   0.631  1.3042  0.1486 -0.0216
  472MOL0     C62183  10.381   3.997   0.589  0.0911 -1.2351  0.2011
  472MOL0     C62184  10.338   3.943   0.449  0.0256 -0.5292  0.2247
  472MOL0     C62185  10.333   3.788   0.450  0.1424  0.3936  0.2259
  472MOL0     C62186  10.300   3.750   0.300 -0.6148  0.6222  0.6672
  472MOL0     C62187  10.399   3.778   0.194 -0.6730  0.6836  0.2179
  472MOL0     C62188  10.535   3.721   0.217 -0.6154 -0.4756 -0.6135
  472MOL0     N62189  10.533   3.581   0.246 -0.0602 -0.4172  0.3828
  472MOL0     C62190  10.471   3.497   0.146  0.2360 -0.5948  0.0592
  472MOL0     C62191  10.441   3.385   0.214 -0.0539 -0.4638  0.4803
  472MOL0     C62192  10.361   3.266   0.144 -0.6214 -0.7736 -0.2170
  472MOL0     C62193  10.240   3.229   0.223 -0.8175  0.1931 -0.4356
  472MOL0     C62194  10.136   3.160   0.143  1.3845 -0.0967  0.0194
  472MOL0     C62195  10.165   3.022   0.060  0.4934  0.5562 -0.6912
  472MOL0     O62196  10.234   2.943   0.158 -0.0042  1.0861  0.0163
  472MOL0     C62197  10.167   2.852   0.230 -1.1605  0.0535 -0.0169
  472MOL0     C62198  10.203   2.848   0.363 -0.6843 -0.0054  0.2281
  472MOL0     C62199  10.156   2.751   0.445 -0.7989  0.5077 -0.1399
  472MOL0     C62200  10.061   2.659   0.399 -1.6313  0.9654 -0.4746
  472MOL0     C62201  10.011   2.548   0.486 -0.3125 -0.1481 -0.1921
  472MOL0     O62202  10.106   2.482   0.574  0.7476  0.0371  0.6066
  472MOL0     C62203  10.041   2.393   0.663  0.3314 -0.6014  0.6679
  472MOL0     C62204   9.975   2.445   0.771 -0.9164  0.2577 -1.0521
  472MOL0     C62205   9.882   2.369   0.845 -0.1836  1.0370 -0.5739
  472MOL0     C62206   9.864   2.230   0.818 -0.7040  0.0504  0.5868
  472MOL0     O62207   9.772   2.152   0.870  0.7571 -0.2518 -0.5278
  472MOL0     C62208   9.701   2.176   0.993 -0.9200  0.4901  0.9917
  472MOL0     C62209   9.587   2.265   0.978  0.5439 -0.2342  1.2657
  472MOL0     C62210   9.525   2.313   1.115 -0.1069  0.1712 -0.1836
  472MOL0     C62211   9.402   2.225   1.149 -0.9032 -0.7924 -0.3021
  472MOL0     C62212   9.363   2.238   1.298 -0.4538 -0.3025  0.1708
  472MOL0     C62213   9.245   2.162   1.318  0.1720  1.0787 -0.7964
  472MOL0     C62214   9.182   2.197   1.451 -0.1414  0.4621  0.5338
  472MOL0     C62215   9.065   2.107   1.485 -0.2464  0.6417 -0.6516
  472MOL0    Cl62216   9.029   2.098   1.669  0.1622 -0.2723  0.5653
  472MOL0     C62217   9.931   2.181   0.703  0.7636  0.1205  0.2895
  472MOL0     C62218  10.024   2.257   0.630 -0.1650 -0.3062  0.6712
  472MOL0     O62219   9.898   2.508   0.458 -0.1361  0.0667  0.6488
  472MOL0     C62220  10.019   2.663   0.266 -0.4864  0.4515 -0.1004
  472MOL0     C62221  10.076   2.761   0.180 -0.3178  0.0765  0.3329
  472MOL0     N62222  10.478   3.394   0.344  0.1849  0.3492 -0.0708
  472MOL0     N62223  10.537   3.513   0.367 -0.7357 -0.6300  0.2018
  472MOL0     C62224  10.615   4.404   0.614  1.1570  0.9853  0.2705
  472MOL0     C62225  10.701   4.483   0.534 -1.3158  0.2192 -0.2292
  472MOL0     C62226  10.983   4.761   0.380 -0.1272  0.2908  0.1317
  472MOL0     C62227  11.046   4.807   0.500  0.2099  0.8799  0.0522
  472MOL0     C62228  11.133   4.915   0.489 -0.2659  0.9934  0.0549
  472MOL0     C62229  11.145   4.981   0.372  0.6521  0.5939  0.2447
  472MOL0     O62230  11.227   5.087   0.366 -0.1754  0.4351 -0.1375
  472MOL0     C62231  11.273   5.165   0.477  0.0294 -0.1876  0.5404
  472MOL0     C62232  11.367   5.272   0.428 -0.2577  0.2004  0.3500
  472MOL0     C62233  11.425   5.354   0.543 -0.0966 -0.8600 -0.3230
  472MOL0     C62234  11.313   5.446   0.605 -0.1125  0.9457  0.0227
  472MOL0     C62235  11.373   5.546   0.692  0.0941 -0.0230  0.2732
  472MOL0     C62236  11.430   5.610   0.779 -0.1337 -0.2011 -0.4547
  472MOL0     C62237  11.067   4.952   0.262 -0.0701  0.4938  0.1016
  472MOL0     C62238  10.983   4.842   0.262 -0.0423  0.5219 -0.3903
  472MOL0     H62239  10.990   4.328   0.601  0.3583  0.6135  2.7648
  472MOL0     H62240  10.844   4.162   0.682  3.4629  1.9701  0.8768
  472MOL0     H62241  10.510   4.058   0.829  0.0014  0.9407 -0.1381
  472MOL0     H62242  10.677   4.046   0.780  0.8617  1.1368 -0.6402
  472MOL0     H62243  10.541   3.872   0.664 -2.8770  0.3827  3.5787
  472MOL0     H62244  10.593   3.988   0.546  3.0914 -0.7608  1.1918
  472MOL0     H62245  10.356   4.104   0.597 -1.0796 -1.5981  2.2055
  472MOL0     H62246  10.316   3.942   0.658 -0.9820 -3.0625 -2.1379
  472MOL0     H62247  10.242   3.972   0.406  0.0119 -2.9643 -1.5783
  472MOL0     H62248  10.414   3.973   0.376  0.2655  2.3207  1.5003
  472MOL0     H62249  10.251   3.760   0.517  1.1775  0.6233  1.6550
  472MOL0     H62250  10.429   3.746   0.482 -2.3016 -3.8599  2.9299
  472MOL0     H62251  10.202   3.788   0.269 -1.5330 -2.7733 -1.1249
  472MOL0     H62252  10.273   3.644   0.300  1.1251  0.1156 -1.2531
  472MOL0     H62253  10.358   3.740   0.100  1.8303  0.6776 -0.9253
  472MOL0     H62254  10.405   3.884   0.168  0.5041  0.2037 -1.6575
  472MOL0     H62255  10.601   3.770   0.289  0.9808 -3.0403 -0.2156
  472MOL0     H62256  10.596   3.729   0.126  1.8495 -0.9881  0.8778
  472MOL0     H62257  10.430   3.522   0.049  1.6230 -1.5078 -0.8163
  472MOL0     H62258  10.427   3.181   0.123  1.5753  0.1514  2.4081
  472MOL0     H62259  10.332   3.307   0.046  1.8157  1.9583  0.0644
  472MOL0     H62260  10.198   3.325   0.255  0.2942  1.0426 -1.4066
  472MOL0     H62261  10.278   3.171   0.308 -1.3777 -1.0877 -1.0270
  472MOL0     H62262  10.056   3.133   0.211  1.9735 -1.3286  0.2411
  472MOL0     H62263  10.091   3.231   0.072 -0.8748 -0.6998  0.7753
  472MOL0     H62264  10.232   3.038  -0.025  1.3626 -4.2649 -1.2427
  472MOL0     H62265  10.074   2.980   0.017 -0.5288  2.5974 -0.6076
  472MOL0     H62266  10.260   2.922   0.419 -1.6234 -0.3112  1.6281
  472MOL0     H62267  10.185   2.740   0.549 -1.9339 -1.4800  0.0269
  472MOL0     H62268   9.979   2.547   0.807  1.7129 -0.6026  1.4528
  472MOL0     H62269   9.832   2.416   0.929  1.6248  1.5813  0.2468
  472MOL0     H62270   9.777   2.203   1.067  3.5874 -2.4195 -2.0248
  472MOL0     H62271   9.659   2.077   1.016  2.0650 -1.2830 -0.6223
  472MOL0     H62272   9.505   2.215   0.927 -0.1622 -0.9439  3.0003
  472MOL0     H62273   9.615   2.356   0.924 -0.9573 -0.8281 -0.5877
  472MOL0     H62274   9.489   2.416   1.116  0.0254  0.3231 -2.9609
  472MOL0     H62275   9.596   2.292   1.196 -0.7370  0.5851  0.4885
  472MOL0     H62276   9.319   2.239   1.080  0.1058 -1.2093 -1.6403
  472MOL0     H62277   9.426   2.118   1.141  0.2124 -0.9223  3.2445
  472MOL0     H62278   9.342   2.343   1.317 -1.5762 -0.5740  0.4770
  472MOL0     H62279   9.439   2.201   1.367 -0.4933 -1.6943 -0.4822
  472MOL0     H62280   9.277   2.057   1.316  1.0607  1.3210 -3.8004
  472MOL0     H62281   9.178   2.186   1.235  1.3304  2.2462 -1.4202
  472MOL0     H62282   9.250   2.187   1.536 -3.3564  1.2871  3.4412
  472MOL0     H62283   9.158   2.304   1.447  0.4871  0.5859 -0.2651
  472MOL0     H62284   9.090   2.012   1.439 -2.9326  0.2006 -1.4022
  472MOL0     H62285   8.968   2.123   1.436 -1.8626  0.0448  2.0849
  472MOL0     H62286   9.913   2.081   0.666  0.0564  0.9039 -1.5774
  472MOL0     H62287  10.080   2.218   0.546  0.7899  0.7756  0.7896
  472MOL0     H62288   9.961   2.581   0.225 -0.5184 -0.4413  1.6232
  472MOL0     H62289  10.057   2.753   0.074  2.3687  0.7449 -0.2562
  472MOL0     H62290  10.508   4.422   0.608  0.9417  0.2620  1.5204
  472MOL0     H62291  10.658   4.563   0.474 -1.6908 -0.0674 -0.3444
  472MOL0     H62292  11.041   4.743   0.587 -0.3852  1.0908  0.1741
  472MOL0     H62293  11.202   4.921   0.573  2.0033  2.0645 -1.7506
  472MOL0     H62294  11.330   5.101   0.545 -1.1246 -0.9290  0.8512
  472MOL0     H62295  11.190   5.203   0.537  1.0690 -2.3933  3.6211
  472MOL0     H62296  11.453   5.235   0.371  1.2952  3.6925  0.1527
  472MOL0     H62297  11.303   5.331   0.361 -3.3372 -0.9642  2.0923
  472MOL0     H62298  11.511   5.412   0.507  0.6271 -3.4449 -3.2111
  472MOL0     H62299  11.456   5.277   0.614 -0.4614 -2.5782 -1.9595
  472MOL0     H62300  11.257   5.497   0.526 -2.5699 -1.1138  0.3163
  472MOL0     H62301  11.239   5.392   0.665  0.6176  0.3145  0.3777
  472MOL0     H62302  11.491   5.652   0.856 -1.9442 -1.9622  2.1089
  472MOL0     H62303  11.098   5.020   0.183  0.4975  1.0313  0.7749
  472MOL0     H62304  10.921   4.803   0.182 -4.0064  0.1124  2.5543
  473MOL0     O62305   9.314   8.786   7.186 -1.1619  0.3995  0.1857
  473MOL0     C62306   9.289   8.748   7.074  0.1943 -0.3389 -0.1503
  473MOL0     O62307   9.341   8.793   6.964 -0.6324  0.3635  0.4622
  473MOL0     C62308   9.432   8.897   6.975  0.1212 -0.6780  0.9776
  473MOL0     C62309   9.561   8.862   6.983  0.4003  0.0440  0.7528
  473MOL0     C62310   9.658   8.957   6.986 -0.1351  0.0224  0.1714
  473MOL0     C62311   9.627   9.093   6.981  0.9225  0.0599 -0.8173
  473MOL0     O62312   9.716   9.204   6.971 -0.4511  0.8386 -0.3303
  473MOL0     C62313   9.854   9.176   6.936 -0.2676 -0.3589  0.7289
  473MOL0     C62314   9.900   9.275   6.827  0.5885  0.5755  0.3526
  473MOL0     C62315  10.015   9.221   6.754  0.6030 -0.0163 -0.1143
  473MOL0     C62316  10.042   9.316   6.633 -0.4000 -0.0971  0.2201
  473MOL0     C62317  10.074   9.467   6.654  0.1448 -0.6023  0.4710
  473MOL0     C62318  10.098   9.540   6.524 -1.0828 -0.8621 -0.9559
  473MOL0     C62319  10.108   9.695   6.538  0.2177  0.1696 -0.8776
  473MOL0     C62320  10.087   9.745   6.680 -0.1679  0.4827 -1.1277
  473MOL0     N62321  10.103   9.886   6.683  1.2136  0.0560 -1.1796
  473MOL0     C62322  10.004   9.983   6.645 -0.0457  0.3476 -0.6223
  473MOL0     C62323  10.047  10.102   6.684  0.3754 -1.0657 -0.6507
  473MOL0     C62324   9.977  10.233   6.680  0.4266 -0.1841  0.0403
  473MOL0     C62325   9.842  10.232   6.751 -1.2627 -0.5254  0.2647
  473MOL0     C62326   9.776  10.363   6.744  0.7168  0.7889  0.1190
  473MOL0     C62327   9.828  10.448   6.857  0.4877  0.2058  0.2641
  473MOL0     O62328   9.791  10.389   6.978 -0.0607 -0.4614 -0.2595
  473MOL0     C62329   9.840  10.458   7.086  0.2699  0.2937 -0.3917
  473MOL0     C62330   9.934  10.560   7.092  0.0501 -0.2966  0.4380
  473MOL0     C62331   9.973  10.622   7.214  0.6514  1.2421  0.3543
  473MOL0     C62332   9.916  10.580   7.332 -0.5359 -0.8538 -0.6162
  473MOL0     C62333   9.944  10.654   7.461 -0.0377 -0.3996  0.4185
  473MOL0     O62334  10.060  10.734   7.462 -0.2306 -0.3262 -0.0008
  473MOL0     C62335  10.102  10.797   7.577  0.0829 -0.2431 -0.7397
  473MOL0     C62336  10.013  10.879   7.636 -0.4928  0.4260 -0.0186
  473MOL0     C62337  10.056  10.953   7.753 -0.2982  0.1783 -0.3065
  473MOL0     C62338  10.185  10.947   7.798 -1.3254  1.2129  0.7815
  473MOL0     O62339  10.243  11.024   7.891 -0.5696  0.1020  1.3541
  473MOL0     C62340  10.169  11.033   8.015 -0.5305 -0.2837 -0.3409
  473MOL0     C62341  10.261  11.089   8.121 -1.2445 -0.0039  1.1979
  473MOL0     C62342  10.380  10.998   8.168 -0.5265  0.7121 -0.2607
  473MOL0     C62343  10.470  10.965   8.054  0.7490  0.0485  0.1030
  473MOL0     C62344  10.604  10.900   8.107  0.3465  0.0085  0.4117
  473MOL0     C62345  10.696  10.873   7.989  1.3402 -0.3840 -0.8093
  473MOL0     C62346  10.831  10.839   8.041  0.0182  0.1891 -0.4776
  473MOL0     C62347  10.937  10.841   7.930  0.3023 -0.6670 -0.3378
  473MOL0    Cl62348  11.089  10.785   7.986  0.2708 -0.0019  0.2193
  473MOL0     C62349  10.275  10.853   7.736  0.1808 -0.5285 -0.1614
  473MOL0     C62350  10.238  10.793   7.623  0.2861  0.9301  0.1576
  473MOL0     O62351   9.855  10.647   7.546 -0.1854  0.3516  0.0423
  473MOL0     C62352   9.819  10.480   7.328 -0.8000  0.0785  0.2442
  473MOL0     C62353   9.783  10.422   7.212 -0.3160  0.3518  0.3121
  473MOL0     N62354  10.168  10.082   6.747 -1.9731  0.1028  0.0027
  473MOL0     N62355  10.205   9.952   6.738 -0.9777 -0.8211 -0.2615
  473MOL0     C62356   9.494   9.125   6.966  0.5185  0.8632 -0.6337
  473MOL0     C62357   9.398   9.029   6.965 -0.0242  0.3717  0.1767
  473MOL0     C62358   9.190   8.645   7.053  0.4291  0.3113  0.1016
  473MOL0     C62359   9.142   8.611   6.926  0.2827  0.3283 -0.4934
  473MOL0     C62360   9.064   8.494   6.914  0.1083 -1.2478  0.5446
  473MOL0     C62361   9.019   8.429   7.024  0.5528  0.9878  0.1655
  473MOL0     O62362   8.924   8.336   7.007  0.2250 -0.8319 -0.0296
  473MOL0     C62363   8.951   8.217   6.924  0.1061 -0.7968 -0.3084
  473MOL0     C62364   8.942   8.099   7.012 -0.2713  0.5381  0.5014
  473MOL0     C62365   9.069   8.079   7.093 -0.2908 -0.1503  0.0439
  473MOL0     C62366   9.067   7.935   7.154 -0.7042 -0.0303  0.6061
  473MOL0     C62367   9.181   7.926   7.234 -0.1948 -1.2556  0.0002
  473MOL0     C62368   9.277   7.938   7.295 -0.9621 -0.1926 -0.6410
  473MOL0     C62369   9.057   8.476   7.153 -0.0100 -0.1219 -0.3174
  473MOL0     C62370   9.146   8.578   7.168  0.0092  0.1093 -0.6530
  473MOL0     H62371   9.587   8.758   6.999  2.9049  0.6746  1.2072
  473MOL0     H62372   9.757   8.913   6.989  0.2857  0.8861 -0.4316
  473MOL0     H62373   9.866   9.078   6.889 -0.8674 -0.9298  1.7321
  473MOL0     H62374   9.922   9.190   7.020  2.0983  3.3581 -1.5461
  473MOL0     H62375   9.944   9.365   6.872  0.9030  2.0322 -2.6115
  473MOL0     H62376   9.816   9.308   6.766 -0.5024 -3.9764 -0.9639
  473MOL0     H62377   9.993   9.121   6.716  0.7276  0.6645 -2.1337
  473MOL0     H62378  10.103   9.214   6.818  4.2512  1.8329 -4.3724
  473MOL0     H62379  10.134   9.273   6.592 -0.8303  0.2811 -1.2255
  473MOL0     H62380   9.969   9.304   6.552  1.8928  0.3682 -2.0679
  473MOL0     H62381  10.160   9.475   6.722 -1.7546  1.5743  2.8240
  473MOL0     H62382   9.981   9.510   6.691  1.2701  1.4577  1.0916
  473MOL0     H62383  10.007   9.523   6.466 -2.1348  0.0240  0.3695
  473MOL0     H62384  10.183   9.497   6.471  0.7265  0.2555  0.8988
  473MOL0     H62385  10.200   9.730   6.491 -1.1456  1.6386 -2.6097
  473MOL0     H62386  10.028   9.738   6.478  0.8717  1.6416 -0.7233
  473MOL0     H62387  10.153   9.697   6.753 -1.0928  2.4125  1.1491
  473MOL0     H62388   9.991   9.710   6.721 -0.7425  1.6291 -1.4489
  473MOL0     H62389   9.917   9.964   6.584 -0.1757 -0.1944 -0.2696
  473MOL0     H62390   9.966  10.254   6.573  0.3968  3.0817  0.5953
  473MOL0     H62391  10.035  10.317   6.720 -1.4774  0.2552  2.1115
  473MOL0     H62392   9.863  10.200   6.854 -3.1577 -1.2438  0.4640
  473MOL0     H62393   9.783  10.148   6.714 -1.8658  0.2863 -0.6800
  473MOL0     H62394   9.758  10.398   6.642 -1.5135 -0.0855  0.1504
  473MOL0     H62395   9.671  10.347   6.772 -0.0210  1.4437 -2.1283
  473MOL0     H62396   9.777  10.544   6.860  0.3395  0.2595 -1.9478
  473MOL0     H62397   9.937  10.445   6.843  0.5689 -1.7090  0.9720
  473MOL0     H62398   9.970  10.601   6.998 -2.8985  1.0666 -0.2118
  473MOL0     H62399  10.036  10.710   7.219  1.4193  0.7873 -0.7943
  473MOL0     H62400   9.919  10.888   7.584 -1.1995  2.0979  1.4509
  473MOL0     H62401  10.005  11.031   7.807  3.1398  0.4227  3.0627
  473MOL0     H62402  10.136  10.937   8.058  3.0605 -0.8126  1.6165
  473MOL0     H62403  10.089  11.106   8.000  0.4132  1.0278  0.7848
  473MOL0     H62404  10.198  11.098   8.210  1.9188 -1.2161  3.7555
  473MOL0     H62405  10.290  11.191   8.093 -0.5556 -0.4766  0.1162
  473MOL0     H62406  10.354  10.898   8.204 -1.0263  0.5424 -1.0626
  473MOL0     H62407  10.439  11.054   8.241 -2.7568  1.6133  0.9133
  473MOL0     H62408  10.425  10.881   8.000 -0.0945 -0.1644  1.1031
  473MOL0     H62409  10.480  11.049   7.985  0.0862 -0.9421 -1.2312
  473MOL0     H62410  10.585  10.809   8.164 -3.0379 -0.4274 -1.2015
  473MOL0     H62411  10.652  10.975   8.171  0.4659  1.4328 -1.2674
  473MOL0     H62412  10.693  10.952   7.915 -0.7049 -2.2219 -2.8567
  473MOL0     H62413  10.655  10.789   7.932 -0.1608 -1.8575  2.2086
  473MOL0     H62414  10.859  10.906   8.122  0.0636 -0.2282 -0.1423
  473MOL0     H62415  10.816  10.734   8.067 -1.9605  0.4847 -0.2431
  473MOL0     H62416  10.935  10.938   7.880  1.1232  0.5861  1.9391
  473MOL0     H62417  10.916  10.760   7.859  0.8121 -2.0428  1.0214
  473MOL0     H62418  10.378  10.845   7.771 -0.0860  1.3245  1.1662
  473MOL0     H62419  10.309  10.741   7.559 -0.7548 -1.2341  0.6697
  473MOL0     H62420   9.758  10.451   7.412 -1.2428  0.6036  0.1130
  473MOL0     H62421   9.707  10.345   7.216 -1.8242  1.8218  2.6687
  473MOL0     H62422   9.452   9.224   6.948 -2.3478  0.2163  1.7261
  473MOL0     H62423   9.296   9.065   6.951  0.4443  1.6879 -0.0206
  473MOL0     H62424   9.166   8.665   6.835 -1.9292 -3.0776 -3.3953
  473MOL0     H62425   9.020   8.465   6.819 -0.1697 -1.1883  0.6527
  473MOL0     H62426   9.055   8.220   6.888  0.0168 -0.4027 -0.5429
  473MOL0     H62427   8.877   8.207   6.844 -1.1402  0.9527  0.5473
  473MOL0     H62428   8.864   8.121   7.085  0.0283  2.0930  0.3857
  473MOL0     H62429   8.915   8.010   6.955  1.5865 -2.4847  3.9357
  473MOL0     H62430   9.070   8.139   7.185  0.0807 -2.4140  1.6117
  473MOL0     H62431   9.162   8.098   7.040  1.2796 -1.4656  2.1554
  473MOL0     H62432   8.981   7.931   7.222 -0.2436 -1.1955  1.1602
  473MOL0     H62433   9.076   7.849   7.087  2.6342  0.4229  0.3519
  473MOL0     H62434   9.374   7.959   7.335 -1.3795  1.6949 -0.5431
  473MOL0     H62435   9.026   8.420   7.240  1.4443 -4.5540 -2.3869
  473MOL0     H62436   9.171   8.616   7.267 -2.0527  1.9404 -0.7739
  474MOL0     O62437   4.329   4.885   1.356 -0.4374  0.5487 -0.1938
  474MOL0     C62438   4.438   4.925   1.320 -0.9142 -0.5998 -0.8975
  474MOL0     O62439   4.462   5.054   1.292 -0.0288  0.1789 -0.3332
  474MOL0     C62440   4.358   5.134   1.274  0.2698 -0.9663 -0.8194
  474MOL0     C62441   4.302   5.136   1.147  0.4513 -0.2035 -0.2378
  474MOL0     C62442   4.191   5.209   1.132  0.3599 -0.0682  1.0287
  474MOL0     C62443   4.140   5.305   1.226 -0.0949 -0.7330 -0.2106
  474MOL0     O62444   4.034   5.387   1.208 -0.3566  0.3582  0.6773
  474MOL0     C62445   3.914   5.338   1.143  0.6702 -0.1424 -0.0792
  474MOL0     C62446   3.783   5.387   1.209 -0.5858 -0.3892  0.4365
  474MOL0     C62447   3.773   5.546   1.215  0.3660 -0.0703 -0.6225
  474MOL0     C62448   3.654   5.586   1.309 -0.2750  0.2359  0.7207
  474MOL0     C62449   3.518   5.525   1.259 -0.9157  0.0323 -0.7040
  474MOL0     C62450   3.413   5.594   1.343  1.0587 -0.2391  0.8266
  474MOL0     C62451   3.277   5.534   1.310  0.0627  0.3519 -0.0687
  474MOL0     C62452   3.157   5.602   1.393  0.5131  1.1753 -0.3759
  474MOL0     N62453   3.158   5.754   1.405  0.2008 -0.0775 -0.7502
  474MOL0     C62454   3.229   5.807   1.516  0.3336 -0.0521  0.2239
  474MOL0     C62455   3.229   5.942   1.491  0.7312 -0.3655  0.0731
  474MOL0     C62456   3.321   6.046   1.561  0.5747 -0.1895 -0.0128
  474MOL0     C62457   3.292   6.063   1.710 -1.3382 -1.2101 -0.0855
  474MOL0     C62458   3.331   6.207   1.755 -0.2487  0.1249 -0.4673
  474MOL0     C62459   3.302   6.227   1.897 -0.2319  0.4466  0.4034
  474MOL0     O62460   3.159   6.240   1.915 -0.7496  0.3403 -0.5399
  474MOL0     C62461   3.112   6.215   2.036 -0.3482 -0.3060  0.1492
  474MOL0     C62462   3.189   6.219   2.153 -0.5047 -0.0313 -0.7593
  474MOL0     C62463   3.137   6.189   2.278  0.1546  0.3683  0.0493
  474MOL0     C62464   2.994   6.173   2.290 -0.4425  0.1062 -0.2587
  474MOL0     C62465   2.939   6.166   2.425  1.4812  0.3631 -0.0581
  474MOL0     O62466   3.022   6.134   2.525 -1.1928  0.3698  0.3262
  474MOL0     C62467   2.992   6.164   2.654  0.6235 -0.0571 -0.9643
  474MOL0     C62468   2.934   6.287   2.685  0.6207  0.0698 -0.6007
  474MOL0     C62469   2.895   6.302   2.820 -0.3693 -0.5460  0.4286
  474MOL0     C62470   2.933   6.216   2.922 -0.2036  0.7216 -1.2600
  474MOL0     O62471   2.890   6.249   3.045 -0.4380 -0.7706 -0.4852
  474MOL0     C62472   2.960   6.196   3.161 -0.8258 -0.9072  0.5727
  474MOL0     C62473   2.960   6.280   3.289 -0.2687  0.0588  0.1379
  474MOL0     C62474   3.026   6.420   3.275 -0.7373  0.3287 -1.1068
  474MOL0     C62475   2.997   6.514   3.389  0.2599 -0.9610 -0.5173
  474MOL0     C62476   3.088   6.639   3.395  0.4215 -0.6117 -0.0228
  474MOL0     C62477   3.099   6.731   3.277 -0.6976  0.0170 -0.0855
  474MOL0     C62478   3.193   6.852   3.300 -0.2960  0.1215 -0.2966
  474MOL0     C62479   3.320   6.837   3.236 -1.1324 -0.1631 -1.0975
  474MOL0    Cl62480   3.319   6.851   3.054  0.1075  0.5068  0.1930
  474MOL0     C62481   3.007   6.101   2.890  1.1661 -0.7345 -0.3246
  474MOL0     C62482   3.039   6.082   2.753  0.4700 -0.0292 -0.6421
  474MOL0     O62483   2.816   6.201   2.444 -0.4718  0.9465  0.5013
  474MOL0     C62484   2.917   6.179   2.172  0.1150  0.5949 -0.0608
  474MOL0     C62485   2.977   6.186   2.051  0.7100 -1.5988 -0.1955
  474MOL0     N62486   3.161   5.963   1.379 -0.4203 -0.6189  0.1885
  474MOL0     N62487   3.121   5.855   1.326  0.1726  0.4150  0.1177
  474MOL0     C62488   4.214   5.328   1.338 -0.5274 -0.6356  0.8789
  474MOL0     C62489   4.319   5.235   1.371  0.4044 -0.5084  0.7666
  474MOL0     C62490   4.549   4.818   1.321  0.2212  0.6832  0.3426
  474MOL0     C62491   4.677   4.852   1.277  0.1447 -0.3549 -0.6583
  474MOL0     C62492   4.774   4.758   1.264  0.5669  1.1556 -0.0367
  474MOL0     C62493   4.742   4.618   1.288 -0.2183 -0.0752  0.2265
  474MOL0     O62494   4.828   4.508   1.256  0.2559  0.6580 -0.4042
  474MOL0     C62495   4.888   4.513   1.131  0.5689  0.3300 -0.3995
  474MOL0     C62496   4.965   4.384   1.109 -0.7801  0.5527  0.0264
  474MOL0     C62497   5.057   4.395   0.992  0.3603 -0.4201  0.6212
  474MOL0     C62498   5.147   4.281   0.967 -0.6183 -1.1298 -0.8307
  474MOL0     C62499   5.069   4.156   0.953 -0.4195  0.0587  0.7691
  474MOL0     C62500   5.017   4.047   0.935 -0.0793 -0.1155 -0.1096
  474MOL0     C62501   4.627   4.580   1.345 -0.2283  0.5875  0.3843
  474MOL0     C62502   4.532   4.683   1.369 -0.8922  0.0004 -0.1263
  474MOL0     H62503   4.350   5.086   1.064  3.5525  1.7287  0.2100
  474MOL0     H62504   4.134   5.201   1.040  0.5517  0.5869  0.8492
  474MOL0     H62505   3.904   5.231   1.124 -1.9070 -0.0727  0.5418
  474MOL0     H62506   3.934   5.379   1.044  2.4053 -0.2017  0.2069
  474MOL0     H62507   3.793   5.341   1.308 -2.3087  0.2485  0.9362
  474MOL0     H62508   3.691   5.354   1.160 -0.0476 -1.5196  0.1452
  474MOL0     H62509   3.748   5.585   1.116 -0.0272 -0.2221 -0.5869
  474MOL0     H62510   3.858   5.599   1.260 -1.0325  1.3602  0.5138
  474MOL0     H62511   3.673   5.566   1.415 -3.9490  4.3190  2.4864
  474MOL0     H62512   3.634   5.694   1.303 -1.0115  0.0592 -0.0699
  474MOL0     H62513   3.520   5.419   1.283 -1.0461 -0.0837 -1.1960
  474MOL0     H62514   3.504   5.546   1.152 -2.7650  1.9581 -0.1489
  474MOL0     H62515   3.410   5.700   1.317  2.8887  0.2230  2.2732
  474MOL0     H62516   3.449   5.568   1.442  0.1471 -0.9852  0.9816
  474MOL0     H62517   3.256   5.555   1.204 -0.2674  1.2776  0.1766
  474MOL0     H62518   3.278   5.425   1.320 -3.1755 -0.8785 -6.7558
  474MOL0     H62519   3.154   5.562   1.495 -0.5014 -1.4091 -1.3430
  474MOL0     H62520   3.063   5.561   1.355  0.1601  0.4634  1.1997
  474MOL0     H62521   3.282   5.767   1.602  2.5460  0.8007 -0.6573
  474MOL0     H62522   3.330   6.140   1.506 -0.1336 -0.6562 -0.9454
  474MOL0     H62523   3.422   6.004   1.556  1.5949  1.5160  3.1165
  474MOL0     H62524   3.356   6.001   1.773  0.1470  1.9587  1.7806
  474MOL0     H62525   3.188   6.039   1.736 -0.5615 -4.4102  0.4156
  474MOL0     H62526   3.439   6.224   1.755  0.4962 -3.4800 -2.5024
  474MOL0     H62527   3.278   6.283   1.696 -2.9038 -1.4394 -0.2808
  474MOL0     H62528   3.354   6.314   1.936  0.1400  1.1639 -1.5661
  474MOL0     H62529   3.343   6.138   1.947  0.0923  0.7759  0.7283
  474MOL0     H62530   3.296   6.238   2.165 -0.0583 -2.6116  0.1276
  474MOL0     H62531   3.196   6.169   2.367  0.5485  1.1463 -0.0382
  474MOL0     H62532   2.894   6.351   2.606  0.4254  1.7899  0.8181
  474MOL0     H62533   2.837   6.392   2.841 -1.2990 -0.7585 -1.0865
  474MOL0     H62534   3.067   6.179   3.143 -0.6453  0.0599  0.6496
  474MOL0     H62535   2.901   6.108   3.186 -0.9943 -0.4397  1.8700
  474MOL0     H62536   3.012   6.219   3.364  1.5409 -2.1229 -2.7029
  474MOL0     H62537   2.854   6.304   3.305  0.0052  0.7585  0.9789
  474MOL0     H62538   2.975   6.473   3.194  2.0477  2.4282 -1.6423
  474MOL0     H62539   3.132   6.417   3.248 -1.1258  1.0999 -2.8638
  474MOL0     H62540   2.896   6.555   3.389  0.8511  0.5783 -0.0679
  474MOL0     H62541   3.014   6.469   3.488 -1.9003  0.3813  0.5469
  474MOL0     H62542   3.189   6.603   3.419 -0.3227 -0.9916  2.9455
  474MOL0     H62543   3.062   6.698   3.483  1.7379 -0.4182  0.2608
  474MOL0     H62544   3.006   6.781   3.250  0.1156  0.5994 -1.9963
  474MOL0     H62545   3.133   6.678   3.188 -0.9876 -1.9188  0.9176
  474MOL0     H62546   3.153   6.948   3.264  3.2024  1.8929  0.0830
  474MOL0     H62547   3.205   6.868   3.408 -0.0426  1.8693 -0.5500
  474MOL0     H62548   3.349   6.734   3.257  0.8997  0.5569 -0.0899
  474MOL0     H62549   3.398   6.907   3.265 -1.1905 -0.4610 -0.2038
  474MOL0     H62550   3.031   6.038   2.975 -1.8171 -0.5468  0.7453
  474MOL0     H62551   3.120   6.013   2.730  0.5926 -0.3139  0.5417
  474MOL0     H62552   2.811   6.161   2.189  1.0633 -2.9721  4.1140
  474MOL0     H62553   2.920   6.206   1.961  2.5795 -1.0340 -1.3284
  474MOL0     H62554   4.187   5.402   1.412 -1.5545 -2.5979  2.5807
  474MOL0     H62555   4.361   5.250   1.470  4.1379  2.6849 -1.0095
  474MOL0     H62556   4.701   4.951   1.241  3.9293 -0.5449  0.8724
  474MOL0     H62557   4.869   4.784   1.219  0.8302  0.1312 -0.0998
  474MOL0     H62558   4.949   4.602   1.115  0.0830  0.6545 -0.4537
  474MOL0     H62559   4.803   4.517   1.062  0.6639  1.7866 -0.4517
  474MOL0     H62560   5.023   4.368   1.201 -0.9015  2.0253  0.3937
  474MOL0     H62561   4.904   4.298   1.082  0.4455 -0.6259  0.9068
  474MOL0     H62562   5.118   4.484   1.009  0.9692 -1.0052  1.5856
  474MOL0     H62563   5.005   4.412   0.897 -1.6585  0.8051  1.8573
  474MOL0     H62564   5.200   4.289   0.872  0.6717 -2.1554 -0.2251
  474MOL0     H62565   5.219   4.273   1.048 -1.8452 -1.4950  0.2719
  474MOL0     H62566   4.980   3.951   0.907  1.2161 -0.4365 -0.7830
  474MOL0     H62567   4.601   4.475   1.355  1.0746  0.3845  2.3245
  474MOL0     H62568   4.440   4.680   1.426  0.2349 -2.0057  1.7261
  475MOL0     O62569   8.700   9.540   4.971  0.5349 -0.1872  0.1767
  475MOL0     C62570   8.662   9.428   4.938 -0.4601  0.3315  0.3264
  475MOL0     O62571   8.592   9.398   4.828 -0.4361 -0.1506  0.3738
  475MOL0     C62572   8.563   9.503   4.738 -0.4878  0.2744 -0.2981
  475MOL0     C62573   8.431   9.528   4.705  0.3122 -0.5960  0.6298
  475MOL0     C62574   8.402   9.627   4.608 -0.4101  0.2740  0.0288
  475MOL0     C62575   8.509   9.704   4.556  0.2365 -0.0436 -0.1776
  475MOL0     O62576   8.465   9.814   4.487 -0.6708  0.1949  0.2367
  475MOL0     C62577   8.543   9.828   4.359  0.2785 -1.0130  0.0623
  475MOL0     C62578   8.538   9.708   4.251  0.4403 -0.9754 -0.2408
  475MOL0     C62579   8.393   9.691   4.195 -0.3153  0.2039  0.0736
  475MOL0     C62580   8.382   9.568   4.093 -0.5651  0.4462  0.1379
  475MOL0     C62581   8.230   9.534   4.076 -0.1727 -0.5107 -0.6791
  475MOL0     C62582   8.196   9.447   3.959 -0.3396 -0.2707 -0.7025
  475MOL0     C62583   8.252   9.307   3.979  0.2140  0.4772  0.1150
  475MOL0     C62584   8.187   9.210   3.863 -0.6094 -0.2277 -0.5846
  475MOL0     N62585   8.212   9.070   3.892  0.2456  0.0924 -0.5323
  475MOL0     C62586   8.173   9.006   4.008  0.9225  0.3365 -0.5180
  475MOL0     C62587   8.201   8.870   3.983 -0.0950 -0.6802 -0.6442
  475MOL0     C62588   8.202   8.753   4.081  0.3096  0.2209 -0.3796
  475MOL0     C62589   8.128   8.626   4.023 -0.3079 -0.1197  0.6910
  475MOL0     C62590   7.975   8.653   4.025  0.2769 -1.1490  0.9291
  475MOL0     C62591   7.896   8.552   3.942  1.4504 -0.4252  0.0474
  475MOL0     O62592   7.919   8.423   3.990  0.6842 -0.0703  0.8607
  475MOL0     C62593   7.808   8.353   4.046  0.4442  1.4614 -0.2752
  475MOL0     C62594   7.668   8.378   4.062  0.1918 -0.5804 -0.7115
  475MOL0     C62595   7.574   8.291   4.109  0.5375  0.6574 -0.2148
  475MOL0     C62596   7.607   8.162   4.152  0.1929  0.8377 -0.5751
  475MOL0     C62597   7.504   8.070   4.207  0.8511 -0.7918 -0.6935
  475MOL0     O62598   7.410   8.128   4.289 -0.6525  0.3182 -0.2302
  475MOL0     C62599   7.343   8.057   4.385 -0.1660  0.3845 -0.5527
  475MOL0     C62600   7.301   7.927   4.370  0.0778 -0.4141 -0.1856
  475MOL0     C62601   7.264   7.838   4.476  0.4447  0.5372  0.3721
  475MOL0     C62602   7.256   7.894   4.604 -0.0186  0.4295 -0.3279
  475MOL0     O62603   7.215   7.810   4.712 -0.7458 -0.5467  0.1450
  475MOL0     C62604   7.177   7.675   4.691  1.2448  0.5828 -0.2977
  475MOL0     C62605   7.139   7.615   4.827 -0.6571 -0.1600 -0.5644
  475MOL0     C62606   7.136   7.467   4.808 -0.1923  0.1028 -0.1047
  475MOL0     C62607   7.019   7.422   4.728  0.0420  0.3131 -0.2982
  475MOL0     C62608   6.970   7.274   4.750  0.7171  0.2619  0.2625
  475MOL0     C62609   6.900   7.246   4.883 -0.4266 -0.3960 -0.4274
  475MOL0     C62610   6.757   7.304   4.880 -0.3889 -0.3434 -0.4368
  475MOL0     C62611   6.694   7.310   5.014  0.6842  0.2627 -0.2638
  475MOL0    Cl62612   6.752   7.465   5.094  0.1702  0.4441 -0.1946
  475MOL0     C62613   7.305   8.025   4.629 -0.4926 -0.1494  0.1844
  475MOL0     C62614   7.355   8.103   4.515 -0.1481  0.0362  0.6967
  475MOL0     O62615   7.520   7.950   4.189 -0.8504  0.4225 -0.0393
  475MOL0     C62616   7.738   8.133   4.138 -0.2415  0.1723 -0.2564
  475MOL0     C62617   7.840   8.223   4.091 -0.5565 -1.1253 -0.2054
  475MOL0     N62618   8.233   8.859   3.844 -0.0571 -0.2076 -0.0297
  475MOL0     N62619   8.252   8.981   3.802  0.2770  0.1842  0.8200
  475MOL0     C62620   8.638   9.681   4.600  0.4056  0.7260 -0.1481
  475MOL0     C62621   8.662   9.585   4.693 -0.4074  1.8648 -0.1145
  475MOL0     C62622   8.684   9.316   5.038 -0.4690  0.5555 -0.3618
  475MOL0     C62623   8.633   9.189   5.008 -0.2351 -0.3891  0.1486
  475MOL0     C62624   8.666   9.086   5.099  0.0686 -0.7497  0.8125
  475MOL0     C62625   8.750   9.104   5.211  0.2144 -1.1289 -0.4380
  475MOL0     O62626   8.776   9.001   5.298  0.3081  0.2118  0.0432
  475MOL0     C62627   8.738   8.861   5.270  0.8505  0.8061 -0.9491
  475MOL0     C62628   8.825   8.807   5.158 -0.5409  0.8943 -0.3711
  475MOL0     C62629   8.974   8.785   5.196 -0.1718  0.0640 -0.6540
  475MOL0     C62630   9.053   8.704   5.092 -0.6791 -0.8802 -0.5225
  475MOL0     C62631   9.000   8.578   5.051  0.7488 -0.5561  0.7468
  475MOL0     C62632   8.958   8.468   5.021 -0.8036  0.9018  0.7403
  475MOL0     C62633   8.800   9.228   5.237  0.4878 -0.4380  0.0605
  475MOL0     C62634   8.779   9.328   5.144  0.0551 -0.2159 -1.0133
  475MOL0     H62635   8.352   9.473   4.756 -0.6975  0.5378  0.3287
  475MOL0     H62636   8.301   9.637   4.572 -1.1533 -1.9967  1.2626
  475MOL0     H62637   8.646   9.854   4.384 -0.8589  1.6328  2.5780
  475MOL0     H62638   8.488   9.907   4.306  2.2306 -0.6259 -1.5106
  475MOL0     H62639   8.568   9.611   4.294  3.8382  0.5952  1.3283
  475MOL0     H62640   8.606   9.743   4.174 -1.3988  4.6446  0.2384
  475MOL0     H62641   8.344   9.774   4.144 -2.3925 -1.4514 -0.7899
  475MOL0     H62642   8.338   9.659   4.284  2.7952 -0.8806  1.7651
  475MOL0     H62643   8.431   9.594   3.999  4.5134  0.3889  2.3990
  475MOL0     H62644   8.426   9.472   4.125 -1.6969 -0.7327 -1.6574
  475MOL0     H62645   8.178   9.628   4.055  2.7952  0.8447 -2.4909
  475MOL0     H62646   8.200   9.492   4.173  0.8433  4.0548  1.9120
  475MOL0     H62647   8.229   9.501   3.869 -0.1186 -0.5422 -0.7866
  475MOL0     H62648   8.087   9.445   3.957 -0.5075  3.0259 -0.1597
  475MOL0     H62649   8.361   9.306   3.983  0.2166  0.9765  0.2704
  475MOL0     H62650   8.224   9.266   4.076 -0.1897  0.7356  0.1123
  475MOL0     H62651   8.229   9.242   3.767  1.0220  0.1974  0.2515
  475MOL0     H62652   8.077   9.214   3.858 -0.8482 -4.1397 -1.3920
  475MOL0     H62653   8.136   9.051   4.100 -2.2796 -2.0851 -0.4281
  475MOL0     H62654   8.142   8.771   4.171 -3.0357  0.8181 -2.5455
  475MOL0     H62655   8.305   8.719   4.097  1.0763  1.5221 -2.1475
  475MOL0     H62656   8.137   8.540   4.090  1.6002 -2.5804 -2.4333
  475MOL0     H62657   8.168   8.597   3.925  1.0442  2.2899  0.4548
  475MOL0     H62658   7.954   8.647   4.132 -0.9500 -1.8488  0.6647
  475MOL0     H62659   7.955   8.756   3.993  3.9478 -1.6602 -4.4446
  475MOL0     H62660   7.924   8.564   3.837 -2.0539 -2.9675 -1.3694
  475MOL0     H62661   7.789   8.574   3.946  1.6612  0.5841  0.4575
  475MOL0     H62662   7.628   8.473   4.028  1.3145  0.9396  1.9325
  475MOL0     H62663   7.467   8.301   4.098  0.1578 -2.6885 -0.4282
  475MOL0     H62664   7.293   7.892   4.267 -1.6608 -1.2603  0.1915
  475MOL0     H62665   7.245   7.734   4.451  0.1187  1.3681 -3.6577
  475MOL0     H62666   7.267   7.621   4.660 -0.1201 -2.0421  0.0677
  475MOL0     H62667   7.099   7.666   4.615 -0.2977 -0.2380  1.2918
  475MOL0     H62668   7.045   7.658   4.862  0.4992  1.8827  0.2476
  475MOL0     H62669   7.210   7.646   4.904 -2.3924  1.1145  0.6023
  475MOL0     H62670   7.135   7.423   4.909 -0.9429  0.6523  0.1366
  475MOL0     H62671   7.217   7.418   4.754  2.9414  2.1854  2.2738
  475MOL0     H62672   6.938   7.491   4.753 -1.2248 -0.7343 -1.3308
  475MOL0     H62673   7.056   7.428   4.625  2.1265 -1.6623  0.2569
  475MOL0     H62674   7.063   7.216   4.749  0.6441  0.1068  1.4195
  475MOL0     H62675   6.899   7.246   4.672  2.0441 -2.7690 -0.0258
  475MOL0     H62676   6.964   7.286   4.962  0.5098 -0.9437 -0.8904
  475MOL0     H62677   6.899   7.137   4.899  0.8951 -0.3121  0.3187
  475MOL0     H62678   6.747   7.400   4.827 -1.1918 -0.9906 -1.5067
  475MOL0     H62679   6.696   7.243   4.813  0.8413 -0.8720 -1.0968
  475MOL0     H62680   6.727   7.222   5.070 -1.8762 -1.3935 -1.2032
  475MOL0     H62681   6.588   7.295   4.991  1.2902 -3.4163 -1.3007
  475MOL0     H62682   7.318   8.071   4.727  1.6927  0.9884 -0.5664
  475MOL0     H62683   7.386   8.206   4.528 -1.5866  0.9415 -2.1941
  475MOL0     H62684   7.766   8.032   4.164 -4.0688 -1.6109 -2.2853
  475MOL0     H62685   7.945   8.198   4.088  0.0208  1.1307 -0.7697
  475MOL0     H62686   8.717   9.748   4.569  1.7301 -1.1743 -1.0987
  475MOL0     H62687   8.764   9.571   4.726 -0.9726 -1.7374  0.4800
  475MOL0     H62688   8.566   9.173   4.925 -0.2539 -1.6125  0.3816
  475MOL0     H62689   8.614   8.996   5.068 -1.4004  0.7878 -1.5152
  475MOL0     H62690   8.631   8.845   5.249  1.5408 -3.2969 -2.3101
  475MOL0     H62691   8.751   8.800   5.359 -2.2937  0.2500 -0.7357
  475MOL0     H62692   8.782   8.706   5.147 -0.6010  0.7844  0.7361
  475MOL0     H62693   8.821   8.857   5.061  4.2918  0.2453 -1.1264
  475MOL0     H62694   8.986   8.731   5.291  2.2322  0.0058 -0.9344
  475MOL0     H62695   9.014   8.883   5.223 -0.0850  0.4317 -2.0564
  475MOL0     H62696   9.080   8.746   4.995 -0.4267 -1.2997 -0.6358
  475MOL0     H62697   9.152   8.684   5.133 -0.8992  1.0628  1.1069
  475MOL0     H62698   8.925   8.369   4.997  1.4322  0.2242  0.2296
  475MOL0     H62699   8.860   9.244   5.326  0.5955  1.3538 -0.2850
  475MOL0     H62700   8.830   9.421   5.166  2.1604 -2.0793  3.0659
  476MOL0     O62701  10.316   4.375   6.360  0.1432  0.5104 -0.0183
  476MOL0     C62702  10.300   4.310   6.462  1.0908  1.0825  0.9507
  476MOL0     O62703  10.190   4.226   6.489 -0.3651  0.0953 -0.1360
  476MOL0     C62704  10.104   4.209   6.386 -0.0070  0.1525 -0.1871
  476MOL0     C62705  10.139   4.168   6.255  0.5143  0.3599 -0.7870
  476MOL0     C62706  10.046   4.173   6.150 -0.0726 -0.6241  0.0575
  476MOL0     C62707   9.917   4.216   6.170 -0.0585 -0.4554  1.1768
  476MOL0     O62708   9.818   4.201   6.069  0.0723  0.1184  0.1468
  476MOL0     C62709   9.788   4.329   6.005 -0.7769  0.1318 -0.4594
  476MOL0     C62710   9.755   4.296   5.858 -0.0828  0.6980 -0.9733
  476MOL0     C62711   9.623   4.219   5.839  0.5509  1.1632 -0.5229
  476MOL0     C62712   9.628   4.117   5.734  0.4399  0.2248 -0.0834
  476MOL0     C62713   9.487   4.057   5.715 -0.1678 -0.3997  0.1304
  476MOL0     C62714   9.478   3.987   5.581  0.1695 -0.2286  0.2256
  476MOL0     C62715   9.328   3.993   5.541 -0.2499 -0.1413  0.3550
  476MOL0     C62716   9.312   3.961   5.390  0.0347  0.3035 -0.4650
  476MOL0     N62717   9.354   4.051   5.289 -0.6136  0.0094  0.6717
  476MOL0     C62718   9.337   4.190   5.285  1.5243  0.1338 -0.1493
  476MOL0     C62719   9.425   4.237   5.193 -0.0498 -0.5470 -0.4251
  476MOL0     C62720   9.423   4.373   5.137 -0.7947  0.1320 -0.6574
  476MOL0     C62721   9.556   4.420   5.076 -0.2067 -1.0970 -0.3360
  476MOL0     C62722   9.546   4.543   5.000 -0.2144 -0.8621 -0.1140
  476MOL0     C62723   9.683   4.595   4.948  0.5091  0.0845  0.6180
  476MOL0     O62724   9.737   4.496   4.861  0.1441 -0.4122  0.2252
  476MOL0     C62725   9.682   4.499   4.736 -0.4758 -0.8002 -0.3876
  476MOL0     C62726   9.611   4.395   4.680  0.3774  0.1198 -0.1970
  476MOL0     C62727   9.576   4.381   4.539 -0.3482 -0.3251  0.2297
  476MOL0     C62728   9.619   4.484   4.449  0.1864 -0.0929 -1.0710
  476MOL0     C62729   9.575   4.481   4.301  0.2875 -0.0163 -0.0404
  476MOL0     O62730   9.483   4.391   4.274  0.6573  0.3970  0.6976
  476MOL0     C62731   9.460   4.357   4.145 -0.7457 -0.5596 -0.6611
  476MOL0     C62732   9.332   4.374   4.084 -0.5405 -0.3977 -0.6942
  476MOL0     C62733   9.299   4.328   3.953  0.8504 -0.6663  0.3561
  476MOL0     C62734   9.391   4.254   3.885 -0.2424 -0.5424 -0.7718
  476MOL0     O62735   9.379   4.204   3.754 -0.2964 -0.5445 -0.0610
  476MOL0     C62736   9.252   4.216   3.680 -0.3505 -0.2403 -0.0824
  476MOL0     C62737   9.151   4.119   3.737 -0.0205 -0.3690  0.1753
  476MOL0     C62738   9.011   4.133   3.660 -0.1750  0.4121 -0.0379
  476MOL0     C62739   8.928   4.003   3.677  0.0677  0.1710  0.3426
  476MOL0     C62740   8.989   3.884   3.608 -0.4218  0.1823  0.0800
  476MOL0     C62741   9.011   3.888   3.452  0.5387  0.6248  0.4040
  476MOL0     C62742   9.153   3.931   3.409  1.1960  0.4230  0.3041
  476MOL0     C62743   9.229   3.810   3.356  1.1130  0.0722  0.2779
  476MOL0    Cl62744   9.215   3.809   3.178  0.0543 -0.3154 -0.3550
  476MOL0     C62745   9.511   4.227   3.949 -0.0860  0.5483  0.7942
  476MOL0     C62746   9.552   4.280   4.070  0.7724  0.3505  0.2731
  476MOL0     O62747   9.633   4.552   4.220 -0.7765 -0.2419  0.2727
  476MOL0     C62748   9.692   4.590   4.504 -0.1767 -0.3340  0.8870
  476MOL0     C62749   9.728   4.591   4.644 -1.8582 -0.4546  0.5157
  476MOL0     N62750   9.495   4.126   5.144 -0.5658 -0.2242  1.3987
  476MOL0     N62751   9.455   4.020   5.202  0.0369  0.4282  0.2973
  476MOL0     C62752   9.874   4.240   6.293 -0.5824 -0.4063 -0.6260
  476MOL0     C62753   9.962   4.239   6.403  0.4849 -0.9723  0.7374
  476MOL0     C62754  10.403   4.313   6.566 -0.9637  0.1125  0.7116
  476MOL0     C62755  10.505   4.414   6.573  0.6840 -0.1132  0.4456
  476MOL0     C62756  10.595   4.418   6.675  0.1394 -0.7016 -0.1639
  476MOL0     C62757  10.610   4.318   6.774  0.0003 -0.7536 -0.2456
  476MOL0     O62758  10.699   4.314   6.875 -0.0465  0.4431 -0.2145
  476MOL0     C62759  10.814   4.399   6.886 -0.2912  0.5450 -0.3105
  476MOL0     C62760  10.909   4.350   7.004 -0.0881 -0.1803 -0.6603
  476MOL0     C62761  11.064   4.343   6.972 -0.3191  0.6900 -0.1146
  476MOL0     C62762  11.131   4.254   7.084 -0.0156  0.6987 -0.5794
  476MOL0     C62763  11.095   4.116   7.054  0.1462  0.4256  0.3038
  476MOL0     C62764  11.074   3.996   7.027  0.0858 -0.3585  0.0450
  476MOL0     C62765  10.498   4.230   6.773 -1.2173  0.2026  0.5669
  476MOL0     C62766  10.404   4.229   6.671  0.4920  0.0802  0.0039
  476MOL0     H62767  10.237   4.124   6.240 -0.3941 -2.0140 -0.2586
  476MOL0     H62768  10.075   4.134   6.053  4.1266  2.2933 -0.1437
  476MOL0     H62769   9.867   4.403   5.992 -1.3200  0.4745 -2.2074
  476MOL0     H62770   9.710   4.375   6.066 -1.6053  0.1023 -1.4524
  476MOL0     H62771   9.834   4.237   5.812  0.0296 -1.3481  1.6221
  476MOL0     H62772   9.746   4.387   5.798 -1.4365 -1.0572 -3.6191
  476MOL0     H62773   9.551   4.296   5.812 -0.4531 -0.2056 -1.9175
  476MOL0     H62774   9.587   4.179   5.934 -3.4230  2.9874 -1.0633
  476MOL0     H62775   9.658   4.158   5.638 -0.7752 -0.6152 -0.8515
  476MOL0     H62776   9.697   4.041   5.769 -1.5520 -2.0784 -0.8661
  476MOL0     H62777   9.411   4.134   5.726 -0.8871 -1.3073  1.9194
  476MOL0     H62778   9.473   3.983   5.794 -1.0989 -0.0716  0.2800
  476MOL0     H62779   9.514   3.884   5.593  0.6078  0.1496  2.9399
  476MOL0     H62780   9.526   4.037   5.497 -3.2467 -0.5114 -2.0453
  476MOL0     H62781   9.270   3.916   5.592 -2.0342 -0.2096 -1.6318
  476MOL0     H62782   9.285   4.093   5.557  0.7933  0.3871 -0.0987
  476MOL0     H62783   9.210   3.925   5.371  0.5844 -1.2439 -0.5958
  476MOL0     H62784   9.357   3.863   5.375 -1.0011 -0.6261  1.8607
  476MOL0     H62785   9.265   4.253   5.336 -1.4103 -1.0026 -2.6169
  476MOL0     H62786   9.394   4.439   5.220 -3.4827 -0.3096 -1.1700
  476MOL0     H62787   9.343   4.373   5.063 -0.5867  0.7921 -0.8897
  476MOL0     H62788   9.592   4.348   5.003  4.0487  1.6035 -1.2805
  476MOL0     H62789   9.631   4.426   5.156 -1.5430  3.7304  0.8714
  476MOL0     H62790   9.473   4.537   4.918  0.1697 -1.7264 -0.4071
  476MOL0     H62791   9.502   4.616   5.069 -2.6442 -1.8265 -0.5360
  476MOL0     H62792   9.754   4.598   5.031  0.7946  0.9287  0.3470
  476MOL0     H62793   9.685   4.691   4.896  3.8742  0.0838  0.5490
  476MOL0     H62794   9.588   4.315   4.750 -0.5146 -1.5542 -2.2849
  476MOL0     H62795   9.529   4.290   4.504  0.9596 -0.3941 -1.4721
  476MOL0     H62796   9.260   4.440   4.131  0.7248  0.4848  0.0534
  476MOL0     H62797   9.203   4.358   3.912  0.8368 -1.1339  0.0380
  476MOL0     H62798   9.275   4.187   3.578 -1.2180 -1.8542  0.1379
  476MOL0     H62799   9.205   4.315   3.680 -0.3364 -0.2062  1.4527
  476MOL0     H62800   9.140   4.125   3.845 -0.7493 -1.3225  0.1672
  476MOL0     H62801   9.198   4.023   3.711  1.1112  0.0118  0.7489
  476MOL0     H62802   9.041   4.160   3.559  0.1032 -0.5728 -0.2256
  476MOL0     H62803   8.960   4.218   3.706 -1.1099 -0.3759  0.4221
  476MOL0     H62804   8.925   3.979   3.783 -1.1965  2.7976  0.9868
  476MOL0     H62805   8.831   4.013   3.627  0.0569 -3.4444 -0.6543
  476MOL0     H62806   8.925   3.797   3.627 -1.1432  0.3611 -1.4190
  476MOL0     H62807   9.076   3.848   3.664 -0.0811  0.6200 -0.1619
  476MOL0     H62808   8.932   3.948   3.407  1.2237  0.8836 -0.4980
  476MOL0     H62809   8.992   3.784   3.424  3.2350 -0.1722  1.2145
  476MOL0     H62810   9.149   4.009   3.332  1.8598 -0.6667 -0.8688
  476MOL0     H62811   9.204   3.973   3.497 -1.6587  0.6234  2.0012
  476MOL0     H62812   9.205   3.718   3.411  0.9273 -0.5547 -0.8234
  476MOL0     H62813   9.335   3.824   3.375  1.1795 -0.8952  0.6745
  476MOL0     H62814   9.573   4.152   3.903 -2.2870 -1.3546  0.7306
  476MOL0     H62815   9.652   4.274   4.113  1.2729 -0.4230 -0.9667
  476MOL0     H62816   9.714   4.677   4.443 -1.0361 -1.8818 -1.8240
  476MOL0     H62817   9.795   4.673   4.668 -2.9150  0.7153 -0.4239
  476MOL0     H62818   9.769   4.259   6.310  0.1002  3.5787  0.2010
  476MOL0     H62819   9.928   4.265   6.502  0.5102 -2.4500  1.1661
  476MOL0     H62820  10.489   4.488   6.494  1.4936  0.7784  1.1024
  476MOL0     H62821  10.653   4.509   6.684 -0.7181 -0.1743  0.2009
  476MOL0     H62822  10.771   4.497   6.910 -0.3824  0.0890  1.5372
  476MOL0     H62823  10.875   4.404   6.795 -1.4493  1.0568 -1.0902
  476MOL0     H62824  10.896   4.421   7.086  0.2088  4.6728 -4.3570
  476MOL0     H62825  10.866   4.255   7.037 -0.5668 -0.3879 -1.8297
  476MOL0     H62826  11.116   4.439   6.982  0.9522  0.0508 -0.3109
  476MOL0     H62827  11.083   4.302   6.873  0.4464 -1.3463  0.8023
  476MOL0     H62828  11.239   4.269   7.079  0.1888 -0.5256 -0.0895
  476MOL0     H62829  11.099   4.288   7.183  1.6097  1.7188 -0.3704
  476MOL0     H62830  11.046   3.894   7.008 -0.7525 -0.4171  1.4293
  476MOL0     H62831  10.491   4.157   6.852  1.4025 -2.2095 -1.2189
  476MOL0     H62832  10.321   4.159   6.673 -0.3336  1.0409  0.3398
  477MOL0     O62833   7.248   6.723   1.446  0.5441  0.5046  0.1178
  477MOL0     C62834   7.355   6.741   1.390 -0.6198 -0.8243 -0.5939
  477MOL0     O62835   7.453   6.817   1.438  0.2973 -0.6386  0.4711
  477MOL0     C62836   7.466   6.829   1.569 -0.5415  0.5514 -0.7863
  477MOL0     C62837   7.399   6.764   1.676  1.3324 -0.5876  0.4330
  477MOL0     C62838   7.431   6.791   1.807  0.5095  0.5009  0.4722
  477MOL0     C62839   7.543   6.866   1.844 -0.2441 -0.7514 -0.1457
  477MOL0     O62840   7.595   6.883   1.985  0.8324  0.5289  0.7760
  477MOL0     C62841   7.547   6.791   2.083 -0.1750  0.4104 -0.2584
  477MOL0     C62842   7.457   6.865   2.180 -0.9115  1.2307 -0.7624
  477MOL0     C62843   7.455   6.780   2.314  0.3167 -0.5611  0.0742
  477MOL0     C62844   7.398   6.854   2.430  0.7345 -0.0370  0.7944
  477MOL0     C62845   7.380   6.766   2.548 -0.5047 -0.4649 -0.5309
  477MOL0     C62846   7.329   6.848   2.667  0.1886  0.5566  0.4089
  477MOL0     C62847   7.335   6.772   2.799 -1.0982 -0.2246 -0.2067
  477MOL0     C62848   7.340   6.879   2.917 -0.2187  0.1521 -0.1724
  477MOL0     N62849   7.211   6.954   2.929  1.1904  0.0362  0.7847
  477MOL0     C62850   7.094   6.889   2.962 -0.3707 -0.2212  0.2044
  477MOL0     C62851   6.994   6.978   2.925 -1.2924  0.2789  0.5086
  477MOL0     C62852   6.843   6.950   2.925  0.3099 -0.4676 -0.2719
  477MOL0     C62853   6.765   6.996   2.805 -0.5232  0.0587 -0.0532
  477MOL0     C62854   6.827   6.962   2.674  0.8618  0.0105 -0.4251
  477MOL0     C62855   6.721   6.964   2.568 -0.1060 -1.1768  0.6567
  477MOL0     O62856   6.797   7.006   2.444 -0.2773  0.4957 -0.5066
  477MOL0     C62857   6.872   6.907   2.394  0.5680 -0.0525  0.1209
  477MOL0     C62858   6.955   6.959   2.291 -0.1620 -0.6186 -0.3228
  477MOL0     C62859   7.028   6.872   2.219 -0.7363 -0.6104  0.5548
  477MOL0     C62860   7.003   6.732   2.225 -0.1630 -0.7704  0.3206
  477MOL0     C62861   7.052   6.641   2.121  0.5655 -0.4810 -0.2457
  477MOL0     O62862   7.018   6.507   2.143  0.6880  0.3161 -0.5871
  477MOL0     C62863   7.029   6.403   2.057 -0.6544 -0.8769 -0.3808
  477MOL0     C62864   6.943   6.300   2.088  0.4213 -0.5003  0.7695
  477MOL0     C62865   6.957   6.185   2.008  0.0114  0.2804  0.3575
  477MOL0     C62866   7.042   6.181   1.899 -0.2361  0.0889 -0.0801
  477MOL0     O62867   7.024   6.074   1.821 -0.0311 -0.3752  0.3302
  477MOL0     C62868   7.145   6.029   1.736 -0.0322  0.0278  0.1899
  477MOL0     C62869   7.101   5.991   1.596 -0.0435  0.3146 -0.2205
  477MOL0     C62870   7.219   5.952   1.506 -0.7015  0.2096 -0.0680
  477MOL0     C62871   7.170   5.903   1.373 -1.3019 -0.6688  0.6056
  477MOL0     C62872   7.136   5.757   1.377  0.4761 -0.4584  0.5414
  477MOL0     C62873   7.086   5.713   1.237 -0.5790  0.8117 -0.1845
  477MOL0     C62874   7.027   5.569   1.231  0.2143  0.3041 -0.4566
  477MOL0     C62875   6.946   5.548   1.102 -0.2437 -1.1838 -0.3682
  477MOL0    Cl62876   7.061   5.544   0.965 -0.2916 -0.3655 -0.2642
  477MOL0     C62877   7.130   6.289   1.867  0.1725  0.3810 -0.6458
  477MOL0     C62878   7.131   6.396   1.953 -1.0915  0.5768 -0.6701
  477MOL0     O62879   7.121   6.674   2.029  0.3440 -0.2352 -0.2556
  477MOL0     C62880   6.912   6.683   2.323 -0.9771  0.7933 -0.6101
  477MOL0     C62881   6.855   6.770   2.413 -0.2814  0.2015 -0.5608
  477MOL0     N62882   7.051   7.093   2.878  0.1465 -0.3143 -0.1054
  477MOL0     N62883   7.178   7.079   2.888  0.4552  0.1220  0.0819
  477MOL0     C62884   7.608   6.925   1.743 -0.5560 -0.1382 -0.7230
  477MOL0     C62885   7.573   6.913   1.609  0.0494 -1.1530 -0.3972
  477MOL0     C62886   7.372   6.693   1.251 -0.5212  0.0167  1.1521
  477MOL0     C62887   7.476   6.728   1.161  0.3477  0.0712 -0.6377
  477MOL0     C62888   7.472   6.677   1.031  0.6367  0.0039  0.0738
  477MOL0     C62889   7.368   6.586   0.986  0.4349  0.3304 -0.6823
  477MOL0     O62890   7.364   6.528   0.860  0.0075  0.0528 -0.0995
  477MOL0     C62891   7.462   6.573   0.757 -0.3215 -0.5788  0.2011
  477MOL0     C62892   7.446   6.509   0.608 -0.6707  0.2366 -0.3657
  477MOL0     C62893   7.503   6.371   0.622  0.4881  0.1026  1.0663
  477MOL0     C62894   7.475   6.287   0.496  0.2387 -0.0800 -0.2597
  477MOL0     C62895   7.329   6.264   0.481  0.2567  0.2129 -0.0178
  477MOL0     C62896   7.208   6.242   0.493  0.1567  0.2977  0.1812
  477MOL0     C62897   7.269   6.543   1.078  0.0355  0.1180  0.4621
  477MOL0     C62898   7.268   6.600   1.205  0.3273  0.0633  0.2099
  477MOL0     H62899   7.308   6.706   1.659  0.8580 -0.1401  1.4023
  477MOL0     H62900   7.352   6.767   1.877 -0.3776  1.3642 -0.2027
  477MOL0     H62901   7.639   6.762   2.135 -1.2779 -0.4032  1.3429
  477MOL0     H62902   7.494   6.699   2.055  1.0184 -0.2791 -0.3156
  477MOL0     H62903   7.355   6.863   2.141 -0.2466  1.4294 -2.5953
  477MOL0     H62904   7.489   6.967   2.200 -0.1383  0.3404  3.5325
  477MOL0     H62905   7.561   6.759   2.334  0.3321  0.3137  0.9436
  477MOL0     H62906   7.413   6.679   2.304  1.4786 -1.0198 -0.4029
  477MOL0     H62907   7.455   6.945   2.453 -2.9346  1.7755  3.8087
  477MOL0     H62908   7.305   6.886   2.382  0.7382 -1.6086 -0.3379
  477MOL0     H62909   7.481   6.729   2.572 -0.4867 -0.8364 -1.1622
  477MOL0     H62910   7.322   6.675   2.530  1.8874 -2.0941 -0.4744
  477MOL0     H62911   7.225   6.878   2.655  0.6017  1.7157 -0.5392
  477MOL0     H62912   7.385   6.942   2.659 -1.0743  1.2155 -1.4631
  477MOL0     H62913   7.251   6.702   2.798 -1.3345 -0.0155 -3.0589
  477MOL0     H62914   7.431   6.718   2.801  0.7828  2.6867 -2.6438
  477MOL0     H62915   7.414   6.958   2.901  0.1044 -0.3399 -1.2135
  477MOL0     H62916   7.357   6.835   3.016  1.9891  0.6660 -0.2686
  477MOL0     H62917   7.086   6.788   3.001 -0.3002 -0.4486 -0.3522
  477MOL0     H62918   6.821   7.012   3.013  0.9669 -0.0239 -0.4142
  477MOL0     H62919   6.815   6.846   2.943 -1.5540  0.3890  2.6981
  477MOL0     H62920   6.731   7.100   2.810 -1.0128 -0.1574  2.9107
  477MOL0     H62921   6.680   6.931   2.823  0.2288 -0.4846  1.6983
  477MOL0     H62922   6.905   7.039   2.672 -0.7827  1.7869 -3.2633
  477MOL0     H62923   6.885   6.869   2.671  0.2982 -0.6692  3.7880
  477MOL0     H62924   6.641   7.036   2.586  0.6538  0.2675 -1.4654
  477MOL0     H62925   6.666   6.870   2.560 -0.0687 -1.4638  2.9468
  477MOL0     H62926   6.969   7.066   2.277 -0.4687 -0.7012 -1.3160
  477MOL0     H62927   7.101   6.906   2.146 -0.2101 -1.8839  0.4511
  477MOL0     H62928   6.858   6.312   2.154  0.2633 -2.7419  1.0419
  477MOL0     H62929   6.883   6.107   2.015  1.7657 -1.5198 -0.1817
  477MOL0     H62930   7.200   5.949   1.785 -1.3837 -1.3174 -0.4105
  477MOL0     H62931   7.212   6.113   1.711 -0.9574  0.7105 -0.0471
  477MOL0     H62932   7.069   6.085   1.551  1.9732  0.9228 -0.4756
  477MOL0     H62933   7.025   5.914   1.606 -1.2711  1.5430  0.1326
  477MOL0     H62934   7.276   5.877   1.561 -0.4503  1.2066  1.0728
  477MOL0     H62935   7.285   6.039   1.494 -0.5536  0.1608  0.3767
  477MOL0     H62936   7.082   5.957   1.338 -1.3413 -2.3071 -2.1025
  477MOL0     H62937   7.259   5.914   1.310  0.7357  0.7911  3.5042
  477MOL0     H62938   7.060   5.729   1.451 -0.9281  0.0785 -0.6275
  477MOL0     H62939   7.224   5.702   1.408  1.0323  0.9686  1.6134
  477MOL0     H62940   7.178   5.714   1.178  3.1567  0.2454  4.9394
  477MOL0     H62941   7.011   5.778   1.191 -0.7649 -0.0300 -1.1134
  477MOL0     H62942   7.117   5.508   1.242  0.4005  0.0438 -2.8061
  477MOL0     H62943   6.958   5.549   1.313 -0.2812 -1.8405 -1.3205
  477MOL0     H62944   6.889   5.640   1.088 -0.6996 -0.8000  3.1199
  477MOL0     H62945   6.872   5.468   1.116 -0.6246 -0.7767 -0.0224
  477MOL0     H62946   7.183   6.301   1.772 -2.1193 -1.2546 -2.2265
  477MOL0     H62947   7.205   6.475   1.949  2.9785 -2.8704 -0.3529
  477MOL0     H62948   6.884   6.579   2.335  0.1382  0.4080 -1.2171
  477MOL0     H62949   6.777   6.729   2.477  0.3990  1.6743  1.3069
  477MOL0     H62950   7.693   6.986   1.771  0.8749 -1.3363 -2.2977
  477MOL0     H62951   7.620   6.973   1.532 -1.9399 -0.0519 -0.7989
  477MOL0     H62952   7.547   6.805   1.190  1.0198 -0.6255 -0.3955
  477MOL0     H62953   7.532   6.735   0.961  1.6373  1.2457  1.8908
  477MOL0     H62954   7.564   6.558   0.793  0.4690  1.0643 -1.2365
  477MOL0     H62955   7.449   6.681   0.744  0.7783 -0.2418  1.5904
  477MOL0     H62956   7.340   6.503   0.583 -0.4068 -2.2108 -1.2154
  477MOL0     H62957   7.495   6.576   0.536  2.0731 -1.1458  0.0686
  477MOL0     H62958   7.467   6.313   0.707 -3.0307 -0.4380 -0.6191
  477MOL0     H62959   7.612   6.378   0.633  1.0009 -2.7723 -1.0235
  477MOL0     H62960   7.514   6.320   0.399  0.6790 -0.7447 -0.3131
  477MOL0     H62961   7.522   6.189   0.502 -1.0585 -0.7531 -0.8395
  477MOL0     H62962   7.102   6.232   0.502 -0.2034  1.3458 -2.0943
  477MOL0     H62963   7.201   6.462   1.050  3.4740 -2.4659 -1.1825
  477MOL0     H62964   7.185   6.557   1.260  0.1934  2.3596  1.9818
  478MOL0     O62965   2.913   2.912   2.476 -0.3424  0.4746 -0.0163
  478MOL0     C62966   2.954   3.029   2.486 -0.2575  0.1649  0.3264
  478MOL0     O62967   3.078   3.076   2.447 -0.2646  0.9215 -0.5494
  478MOL0     C62968   3.164   2.977   2.410 -0.2673 -0.4115  0.2345
  478MOL0     C62969   3.162   2.923   2.281  0.6398  0.1942  0.3077
  478MOL0     C62970   3.231   2.806   2.235 -0.1431  0.6629  0.4411
  478MOL0     C62971   3.313   2.744   2.330 -0.0219  0.4776  1.3459
  478MOL0     O62972   3.378   2.647   2.268  0.2748  0.5932  0.1523
  478MOL0     C62973   3.457   2.560   2.339  0.6352  1.6117 -0.5624
  478MOL0     C62974   3.487   2.445   2.243  0.0486 -0.2348 -0.3094
  478MOL0     C62975   3.580   2.346   2.313  0.7153  0.2068  0.2783
  478MOL0     C62976   3.681   2.281   2.227 -1.0012  0.8915  0.1400
  478MOL0     C62977   3.776   2.183   2.302  0.7103 -0.1969 -0.4249
  478MOL0     C62978   3.857   2.095   2.213 -0.9658 -0.1419  0.5683
  478MOL0     C62979   3.956   2.006   2.287  0.2867 -0.7558  0.1338
  478MOL0     C62980   4.070   1.959   2.200  0.4268  0.4685 -0.1166
  478MOL0     N62981   4.157   1.873   2.282  0.6871  0.2638 -0.4511
  478MOL0     C62982   4.290   1.902   2.314 -0.1886 -0.1534  0.3573
  478MOL0     C62983   4.340   1.799   2.366 -0.9201  0.6867  0.5046
  478MOL0     C62984   4.479   1.760   2.411  0.6919  0.1612  0.0087
  478MOL0     C62985   4.582   1.784   2.300 -0.0025 -0.7067  0.4324
  478MOL0     C62986   4.577   1.673   2.195  0.8297  0.5043 -0.5758
  478MOL0     C62987   4.656   1.715   2.079 -0.3818 -0.5534  1.0437
  478MOL0     O62988   4.651   1.608   1.990  0.7758  0.8907  0.5226
  478MOL0     C62989   4.756   1.615   1.905  1.1265  0.2405  0.6906
  478MOL0     C62990   4.815   1.730   1.851 -0.1366 -0.6560 -0.3236
  478MOL0     C62991   4.900   1.708   1.738 -0.4888 -0.2870  0.5956
  478MOL0     C62992   4.943   1.581   1.704 -0.0831  0.9579  0.3146
  478MOL0     C62993   5.050   1.562   1.612  0.1848  0.5178  0.0961
  478MOL0     O62994   5.053   1.666   1.517  0.5409 -0.5279 -0.1034
  478MOL0     C62995   5.149   1.684   1.425 -0.1707 -0.2750 -0.4928
  478MOL0     C62996   5.122   1.711   1.301  0.2275  1.2333  0.2624
  478MOL0     C62997   5.223   1.725   1.204  0.3743  0.2727 -0.8036
  478MOL0     C62998   5.360   1.715   1.246  0.5945 -1.3589 -1.1784
  478MOL0     O62999   5.467   1.709   1.163  0.1881  0.3676  0.5116
  478MOL0     C63000   5.453   1.736   1.019 -0.9781 -0.0118 -0.6205
  478MOL0     C63001   5.430   1.607   0.940  0.2251  0.0907  0.0711
  478MOL0     C63002   5.352   1.648   0.818  0.4882  0.1323  0.1887
  478MOL0     C63003   5.298   1.523   0.759 -0.4960  0.9337 -0.3993
  478MOL0     C63004   5.242   1.542   0.623 -0.7511  0.1258 -0.3478
  478MOL0     C63005   5.183   1.424   0.539  0.4329 -1.1311 -0.4939
  478MOL0     C63006   5.272   1.309   0.512 -0.2195  0.2146  0.1413
  478MOL0     C63007   5.409   1.342   0.464 -1.6068 -0.0003 -0.5570
  478MOL0    Cl63008   5.400   1.417   0.299  0.3926  0.3654  0.5788
  478MOL0     C63009   5.387   1.697   1.376 -0.6794 -0.8029 -0.8182
  478MOL0     C63010   5.282   1.671   1.462 -0.0533 -0.1827 -0.3916
  478MOL0     O63011   5.111   1.458   1.605  0.0949  0.5369 -0.4191
  478MOL0     C63012   4.884   1.473   1.760 -0.8047 -0.7925  0.9610
  478MOL0     C63013   4.795   1.490   1.859 -0.5164  0.0389 -0.8288
  478MOL0     N63014   4.237   1.697   2.372  0.1693 -0.4756 -0.0934
  478MOL0     N63015   4.129   1.747   2.319  0.0037 -0.1666 -0.5633
  478MOL0     C63016   3.330   2.799   2.459  0.5329  0.1531  0.6701
  478MOL0     C63017   3.253   2.911   2.496  0.0391  0.5878 -0.4897
  478MOL0     C63018   2.860   3.127   2.529  0.0320  0.6133  0.4069
  478MOL0     C63019   2.723   3.092   2.550  0.9843 -0.2294  0.8730
  478MOL0     C63020   2.630   3.187   2.581 -0.3790 -0.3117  0.8792
  478MOL0     C63021   2.665   3.316   2.627 -0.0091  0.6656  0.3109
  478MOL0     O63022   2.588   3.414   2.686  0.5160  0.5326  0.0467
  478MOL0     C63023   2.463   3.372   2.739  0.8761 -0.4665 -0.4062
  478MOL0     C63024   2.390   3.476   2.829 -0.5609  0.4204 -0.2415
  478MOL0     C63025   2.253   3.416   2.868  0.5477  1.1079  0.0019
  478MOL0     C63026   2.167   3.509   2.955 -1.0219  0.3928 -1.3679
  478MOL0     C63027   2.023   3.480   2.942 -0.0350 -0.5616  0.5909
  478MOL0     C63028   1.906   3.481   2.951  0.9141 -0.0746  0.2357
  478MOL0     C63029   2.795   3.346   2.615 -1.3868 -0.2315  0.9160
  478MOL0     C63030   2.890   3.259   2.553 -0.7546 -0.3359  0.7615
  478MOL0     H63031   3.089   2.977   2.221 -1.8363  1.0434  3.7600
  478MOL0     H63032   3.220   2.779   2.131 -1.5657  1.0307  0.4699
  478MOL0     H63033   3.412   2.519   2.429 -0.0242  0.8876 -1.2047
  478MOL0     H63034   3.551   2.612   2.361 -0.6457  3.0127  1.8674
  478MOL0     H63035   3.536   2.472   2.150 -0.5203 -2.2994 -1.2613
  478MOL0     H63036   3.394   2.389   2.224 -0.0334 -0.9434  1.8258
  478MOL0     H63037   3.520   2.261   2.347  4.8072 -1.6331  3.8427
  478MOL0     H63038   3.631   2.387   2.400  0.1039  2.4608 -0.3563
  478MOL0     H63039   3.619   2.230   2.152 -3.1374  1.9068  1.1120
  478MOL0     H63040   3.758   2.351   2.192 -1.0330  1.6950  1.6066
  478MOL0     H63041   3.718   2.118   2.369 -1.4159  0.3092 -1.6604
  478MOL0     H63042   3.840   2.249   2.361 -1.7897  1.8804  0.1738
  478MOL0     H63043   3.898   2.153   2.130 -1.2024  0.0479  0.5838
  478MOL0     H63044   3.777   2.032   2.173 -3.2087  2.4719  0.6515
  478MOL0     H63045   3.994   2.070   2.366 -0.4352  1.8314 -1.4903
  478MOL0     H63046   3.901   1.920   2.326 -1.9284  0.1742 -0.7881
  478MOL0     H63047   4.126   2.047   2.166  4.1949 -1.5179  0.5121
  478MOL0     H63048   4.021   1.903   2.120 -2.7955  0.0992  1.9077
  478MOL0     H63049   4.347   1.989   2.283 -0.2205 -0.3577 -0.2802
  478MOL0     H63050   4.483   1.654   2.440 -2.2011  0.6048  2.4923
  478MOL0     H63051   4.501   1.824   2.496  1.2847  1.0638 -0.8081
  478MOL0     H63052   4.676   1.806   2.350  0.7408 -0.5653 -0.9797
  478MOL0     H63053   4.548   1.875   2.250  0.9932 -1.0707 -0.9747
  478MOL0     H63054   4.632   1.592   2.244  3.5437  2.1481 -0.6933
  478MOL0     H63055   4.476   1.639   2.170  1.1156 -1.0345  0.2370
  478MOL0     H63056   4.757   1.731   2.117 -0.2583 -0.2543  0.6004
  478MOL0     H63057   4.610   1.804   2.036 -2.5559 -1.7379  0.7537
  478MOL0     H63058   4.798   1.834   1.879  1.4741 -0.7738  1.3287
  478MOL0     H63059   4.943   1.794   1.687 -0.3776 -0.3862  0.5208
  478MOL0     H63060   5.017   1.720   1.276 -0.7636  1.2792  3.8965
  478MOL0     H63061   5.204   1.742   1.099  0.5717  0.4468 -0.8112
  478MOL0     H63062   5.546   1.783   0.983 -0.2616  1.7891  3.0745
  478MOL0     H63063   5.377   1.813   1.003  1.0823  2.6606  1.3798
  478MOL0     H63064   5.372   1.539   1.002 -0.0868  1.5632  1.4475
  478MOL0     H63065   5.527   1.569   0.905  0.4526  1.1073 -0.4152
  478MOL0     H63066   5.409   1.697   0.739 -2.1992  0.2825 -1.8182
  478MOL0     H63067   5.263   1.705   0.847 -0.2483 -0.9483  0.1119
  478MOL0     H63068   5.382   1.453   0.751 -0.6833  0.6847 -0.2461
  478MOL0     H63069   5.226   1.468   0.821  3.5164 -4.2482  0.4010
  478MOL0     H63070   5.308   1.587   0.549  0.1581 -0.9380 -0.1973
  478MOL0     H63071   5.156   1.609   0.637 -1.9232 -1.8072  2.8390
  478MOL0     H63072   5.144   1.462   0.444  0.7135 -1.6472 -0.8179
  478MOL0     H63073   5.099   1.384   0.595  2.2069 -1.0394  2.4656
  478MOL0     H63074   5.284   1.239   0.596 -1.4962  0.0305  0.1835
  478MOL0     H63075   5.219   1.252   0.436 -1.3738  2.0915 -0.5342
  478MOL0     H63076   5.467   1.249   0.467 -0.4334  0.7227 -0.2680
  478MOL0     H63077   5.467   1.409   0.528 -1.4800 -3.2386  3.1663
  478MOL0     H63078   5.492   1.687   1.402  0.7426  1.1448 -5.0582
  478MOL0     H63079   5.316   1.650   1.563  2.0089  1.2515 -0.7157
  478MOL0     H63080   4.904   1.373   1.721  3.4971 -0.2014  1.0865
  478MOL0     H63081   4.746   1.403   1.901  0.9719  1.0943  3.6835
  478MOL0     H63082   3.401   2.742   2.520  3.2123 -0.9018 -3.0759
  478MOL0     H63083   3.258   2.941   2.600 -1.1521  0.2222 -0.3068
  478MOL0     H63084   2.688   2.989   2.548  0.4554 -0.0521  0.7360
  478MOL0     H63085   2.523   3.169   2.589 -0.7516  0.6734 -1.1466
  478MOL0     H63086   2.482   3.283   2.799  0.5061 -0.4603 -0.2795
  478MOL0     H63087   2.396   3.355   2.654  2.8232 -3.5217 -1.4858
  478MOL0     H63088   2.450   3.481   2.920  0.1558  0.0456 -0.6895
  478MOL0     H63089   2.373   3.570   2.776 -1.3739 -0.6267 -1.9264
  478MOL0     H63090   2.277   3.319   2.912  1.4248 -0.0516 -2.7784
  478MOL0     H63091   2.195   3.395   2.778  1.8824  2.0918 -1.1312
  478MOL0     H63092   2.184   3.521   3.062 -3.2227  1.8259 -1.1036
  478MOL0     H63093   2.185   3.614   2.929  0.5254  0.7711  0.9468
  478MOL0     H63094   1.802   3.484   2.976  1.6328  4.3684  4.0855
  478MOL0     H63095   2.841   3.438   2.651 -1.1591 -0.1497  0.4157
  478MOL0     H63096   2.995   3.286   2.546 -0.6039 -0.2190  2.8529
  479MOL0     O63097   8.201   4.440   6.498 -0.4762  0.0319 -0.2753
  479MOL0     C63098   8.101   4.494   6.544  0.3765 -0.8263 -0.2182
  479MOL0     O63099   8.028   4.586   6.476 -0.4568  0.3064  0.6611
  479MOL0     C63100   8.060   4.608   6.347  0.3199  0.2422  0.4967
  479MOL0     C63101   8.090   4.740   6.308  0.2459  0.7698  0.3355
  479MOL0     C63102   8.137   4.765   6.178 -0.3724  0.4857 -0.7263
  479MOL0     C63103   8.149   4.667   6.082  0.6660 -0.2716 -0.3081
  479MOL0     O63104   8.175   4.702   5.951 -0.1329  0.6560  0.3263
  479MOL0     C63105   8.064   4.757   5.884 -0.2355  0.0460  0.6933
  479MOL0     C63106   8.117   4.869   5.790 -1.3473 -0.4326  0.1321
  479MOL0     C63107   8.180   4.983   5.866  0.0241 -0.9930 -0.3489
  479MOL0     C63108   8.218   5.107   5.778 -0.2517 -0.8285  1.0267
  479MOL0     C63109   8.267   5.223   5.858  0.1702  0.0110  0.4784
  479MOL0     C63110   8.392   5.191   5.942 -1.1727  0.1815  0.2113
  479MOL0     C63111   8.508   5.127   5.860 -0.3739  0.0548  0.5919
  479MOL0     C63112   8.537   5.201   5.723  0.4187  0.7669 -0.7557
  479MOL0     N63113   8.642   5.133   5.641  0.0454  0.8803 -0.7483
  479MOL0     C63114   8.750   5.197   5.574  0.3668 -0.1859  0.4103
  479MOL0     C63115   8.810   5.101   5.518 -0.0956 -0.1957 -0.5567
  479MOL0     C63116   8.945   5.105   5.456 -0.2975  0.4534 -0.6307
  479MOL0     C63117   8.944   5.180   5.321 -0.1958  0.0940  0.6291
  479MOL0     C63118   8.858   5.125   5.202 -0.1774 -0.3078 -0.2353
  479MOL0     C63119   8.827   5.249   5.112  0.2925 -0.6350  0.6018
  479MOL0     O63120   8.805   5.193   4.983  0.2589  0.9361 -0.4539
  479MOL0     C63121   8.775   5.270   4.871 -0.6921  0.9032 -0.8435
  479MOL0     C63122   8.847   5.227   4.758  0.4149 -0.7185 -0.1050
  479MOL0     C63123   8.808   5.296   4.640 -1.0847 -1.1705 -1.2666
  479MOL0     C63124   8.706   5.389   4.621 -0.6244  0.6502  0.2709
  479MOL0     C63125   8.670   5.441   4.488  0.1672 -0.5749  1.5887
  479MOL0     O63126   8.574   5.534   4.494 -0.9662 -0.3670  0.3645
  479MOL0     C63127   8.543   5.591   4.375 -0.0473 -0.7162  0.5492
  479MOL0     C63128   8.410   5.567   4.334 -0.4293 -0.5703 -0.3085
  479MOL0     C63129   8.374   5.621   4.209  0.2798  0.0613  0.1611
  479MOL0     C63130   8.465   5.680   4.120  0.0339 -1.2032 -0.2863
  479MOL0     O63131   8.407   5.710   3.994  0.2660  0.7448  0.6403
  479MOL0     C63132   8.466   5.824   3.928  1.1466  0.3488  0.4911
  479MOL0     C63133   8.572   5.793   3.826  0.0988  0.0426  0.0275
  479MOL0     C63134   8.524   5.699   3.717  1.2109  0.6763 -0.4718
  479MOL0     C63135   8.616   5.693   3.598  0.1467 -0.0045  0.2404
  479MOL0     C63136   8.583   5.797   3.489  0.7147  1.5874  0.0944
  479MOL0     C63137   8.645   5.778   3.355  0.2065 -0.2084  0.1704
  479MOL0     C63138   8.627   5.912   3.268  0.6132 -0.0853  0.6436
  479MOL0     C63139   8.484   5.945   3.229  0.2165 -0.5269 -0.3164
  479MOL0    Cl63140   8.455   5.885   3.053 -0.2489  0.0429 -0.0871
  479MOL0     C63141   8.598   5.695   4.163 -0.3743 -1.2260 -0.0538
  479MOL0     C63142   8.638   5.648   4.285 -0.0021 -0.2051 -1.3831
  479MOL0     O63143   8.740   5.402   4.388  0.7669 -0.2015  0.0501
  479MOL0     C63144   8.640   5.428   4.742 -0.1068 -0.7647 -1.0877
  479MOL0     C63145   8.668   5.360   4.867 -0.2550 -0.2117 -0.3183
  479MOL0     N63146   8.746   4.980   5.538 -0.3398  0.1050  0.4838
  479MOL0     N63147   8.646   5.005   5.610 -0.0498 -0.0660 -0.4944
  479MOL0     C63148   8.120   4.535   6.121  0.2738  0.0787  0.0756
  479MOL0     C63149   8.075   4.503   6.252 -0.0577  0.3852  0.8613
  479MOL0     C63150   8.045   4.452   6.677  0.4056 -0.3167  0.8370
  479MOL0     C63151   7.925   4.516   6.732 -0.9901 -0.2734  0.5814
  479MOL0     C63152   7.894   4.496   6.864 -0.1019  0.3800  0.0319
  479MOL0     C63153   7.958   4.397   6.941 -0.1301 -0.1238 -0.3438
  479MOL0     O63154   7.902   4.358   7.057  0.0809  0.2349  0.5250
  479MOL0     C63155   7.981   4.312   7.170  0.8027  0.1058 -1.1476
  479MOL0     C63156   8.013   4.422   7.281  0.2139 -0.5334  0.5859
  479MOL0     C63157   8.070   4.366   7.414  0.6544  0.1240  0.4412
  479MOL0     C63158   7.963   4.309   7.503 -0.1367  0.7076  0.0579
  479MOL0     C63159   8.049   4.274   7.623 -0.1966  0.4009 -0.5758
  479MOL0     C63160   8.107   4.218   7.717 -0.3755 -0.5996 -0.2019
  479MOL0     C63161   8.066   4.329   6.886  0.2622 -1.4489  0.4262
  479MOL0     C63162   8.114   4.358   6.759  0.1509 -0.9407  0.5326
  479MOL0     H63163   8.083   4.827   6.373 -0.0979  0.4822  0.6903
  479MOL0     H63164   8.168   4.860   6.136 -0.0238  0.6298 -0.1508
  479MOL0     H63165   7.985   4.800   5.947 -1.9710 -3.3829  1.1401
  479MOL0     H63166   8.034   4.672   5.822 -0.6850  2.2416 -2.3161
  479MOL0     H63167   8.031   4.909   5.735 -0.4454  2.0626  0.3920
  479MOL0     H63168   8.189   4.826   5.720 -1.0209 -1.3084  0.9805
  479MOL0     H63169   8.273   4.955   5.915  0.9702  0.0096 -1.5106
  479MOL0     H63170   8.109   5.024   5.938  0.1936  2.6494 -2.0047
  479MOL0     H63171   8.293   5.079   5.704 -1.9003  1.0159 -1.5220
  479MOL0     H63172   8.139   5.160   5.724  1.9252  2.8129  1.0979
  479MOL0     H63173   8.189   5.252   5.930 -2.7566 -3.2524 -1.0479
  479MOL0     H63174   8.285   5.305   5.787 -1.4677 -0.5252 -0.6105
  479MOL0     H63175   8.379   5.138   6.037 -1.3272 -1.0985 -0.4942
  479MOL0     H63176   8.426   5.289   5.974 -1.5682  0.2065  0.5722
  479MOL0     H63177   8.595   5.134   5.925 -0.0658  0.7963  0.1154
  479MOL0     H63178   8.489   5.021   5.842  2.2933 -0.2951 -0.6633
  479MOL0     H63179   8.558   5.307   5.743 -0.6375  0.4852  2.3426
  479MOL0     H63180   8.443   5.202   5.668 -0.5635 -1.6754  0.7407
  479MOL0     H63181   8.770   5.303   5.568 -0.3955 -0.0831 -0.5671
  479MOL0     H63182   8.990   5.007   5.437  2.5754  1.9402 -2.1475
  479MOL0     H63183   9.012   5.162   5.520 -2.1674  0.1622  1.7617
  479MOL0     H63184   9.041   5.193   5.272 -0.1862  0.7443  0.8161
  479MOL0     H63185   8.900   5.276   5.347 -0.2271  0.0854  0.6073
  479MOL0     H63186   8.909   5.038   5.161  0.7874  0.7814 -1.4435
  479MOL0     H63187   8.756   5.092   5.223  0.0018 -0.1553  0.9314
  479MOL0     H63188   8.919   5.307   5.105  1.8612 -2.7817  2.0661
  479MOL0     H63189   8.742   5.310   5.147  1.1867  1.2123 -0.3352
  479MOL0     H63190   8.918   5.146   4.775  3.1402  1.9820  2.4534
  479MOL0     H63191   8.852   5.264   4.546 -2.4668  0.9303 -2.7215
  479MOL0     H63192   8.338   5.506   4.388 -1.8288  0.4793 -0.9314
  479MOL0     H63193   8.269   5.613   4.182  0.6713 -1.3206 -1.1608
  479MOL0     H63194   8.521   5.885   4.001  0.5767  0.6816  0.6517
  479MOL0     H63195   8.388   5.876   3.871  0.5190 -0.3117  0.7299
  479MOL0     H63196   8.663   5.752   3.870  1.3069  1.0915 -1.4054
  479MOL0     H63197   8.598   5.885   3.773 -2.0093  0.1687 -0.8876
  479MOL0     H63198   8.423   5.729   3.687  0.9167 -0.8499 -1.1069
  479MOL0     H63199   8.522   5.598   3.759  1.0829  1.5626  1.8611
  479MOL0     H63200   8.716   5.725   3.630 -0.1878  1.9085 -0.4815
  479MOL0     H63201   8.616   5.593   3.555 -0.1071 -1.1286  2.6797
  479MOL0     H63202   8.623   5.893   3.521  4.5337  1.6916 -3.9261
  479MOL0     H63203   8.475   5.816   3.484 -0.1128 -2.5269 -3.2164
  479MOL0     H63204   8.574   5.709   3.309  0.8994 -0.4882 -0.5100
  479MOL0     H63205   8.750   5.749   3.366 -0.0970 -0.6962  2.0802
  479MOL0     H63206   8.669   5.996   3.323 -0.0591  0.8690 -0.2614
  479MOL0     H63207   8.685   5.893   3.177  1.7017 -2.6395  1.7827
  479MOL0     H63208   8.460   6.049   3.252  1.3552  0.4583 -3.1573
  479MOL0     H63209   8.420   5.891   3.300  0.6351  0.3004  0.7243
  479MOL0     H63210   8.665   5.742   4.092  0.5674 -3.1480 -0.4992
  479MOL0     H63211   8.742   5.661   4.311 -0.0257  1.7996 -2.1197
  479MOL0     H63212   8.547   5.484   4.750  0.1630 -0.5547  1.6635
  479MOL0     H63213   8.621   5.380   4.963 -0.3858  0.6696 -0.5598
  479MOL0     H63214   8.125   4.454   6.049 -3.5171  1.3653 -1.9328
  479MOL0     H63215   8.052   4.401   6.281  0.3308  0.7049  2.3852
  479MOL0     H63216   7.852   4.582   6.684 -1.9990  0.1947  2.6440
  479MOL0     H63217   7.807   4.544   6.908  0.1074  0.1398  0.7163
  479MOL0     H63218   8.080   4.273   7.145  0.4164 -1.4191 -0.4395
  479MOL0     H63219   7.924   4.233   7.220  1.2516  0.4724 -0.0184
  479MOL0     H63220   8.089   4.492   7.244  2.5232 -2.8328  0.7250
  479MOL0     H63221   7.920   4.476   7.304  0.1225 -0.0309 -0.8459
  479MOL0     H63222   8.117   4.451   7.463 -3.0429  2.2629  0.6799
  479MOL0     H63223   8.137   4.283   7.392  0.4077 -0.1323  0.6552
  479MOL0     H63224   7.889   4.385   7.530  0.5047  1.4203 -0.1486
  479MOL0     H63225   7.910   4.225   7.458 -1.7709  1.4064  0.6193
  479MOL0     H63226   8.136   4.189   7.816 -1.3445  1.3764  0.7186
  479MOL0     H63227   8.106   4.252   6.951  0.9357 -2.5547 -1.2287
  479MOL0     H63228   8.213   4.319   6.735 -0.0125 -0.6131 -0.6956
  480MOL0     O63229   9.601   9.221   9.646  0.3607  1.0328  0.0321
  480MOL0     C63230   9.709   9.214   9.707 -1.1245 -0.2715  0.2413
  480MOL0     O63231   9.808   9.281   9.673  0.0511 -0.2407 -0.2583
  480MOL0     C63232   9.798   9.362   9.564  0.6031  0.1352 -0.5445
  480MOL0     C63233   9.768   9.494   9.596  0.5865 -0.3975  0.1971
  480MOL0     C63234   9.758   9.589   9.490 -0.6481  0.5453 -0.6495
  480MOL0     C63235   9.788   9.546   9.358 -0.5411 -0.0534  0.1090
  480MOL0     O63236   9.771   9.620   9.244 -0.1325 -0.3036 -0.6915
  480MOL0     C63237   9.778   9.762   9.247  0.8530  0.1732 -1.4332
  480MOL0     C63238   9.739   9.792   9.107 -0.7130 -0.0211 -0.2758
  480MOL0     C63239   9.779   9.924   9.053  0.3745 -0.2774 -0.3032
  480MOL0     C63240   9.702  10.037   9.107 -0.0585 -0.0127  0.1701
  480MOL0     C63241   9.758  10.178   9.086 -0.2913 -0.2031 -0.6073
  480MOL0     C63242   9.646  10.282   9.108 -0.0171 -0.7008  0.4241
  480MOL0     C63243   9.683  10.426   9.081  0.4192  0.4555 -1.9742
  480MOL0     C63244   9.650  10.478   8.931  0.4973 -0.8672 -0.0989
  480MOL0     N63245   9.507  10.506   8.896  0.5211 -0.3878  0.4436
  480MOL0     C63246   9.464  10.581   8.780 -0.1831  0.8384 -0.2329
  480MOL0     C63247   9.329  10.599   8.791 -0.0193 -1.0022  0.7015
  480MOL0     C63248   9.244  10.707   8.717 -0.4325 -0.0527  0.5339
  480MOL0     C63249   9.232  10.699   8.570  0.4427  0.4825 -0.4390
  480MOL0     C63250   9.145  10.815   8.517 -0.3371 -0.1148 -0.0697
  480MOL0     C63251   9.156  10.834   8.369 -0.5063 -0.1754 -1.1949
  480MOL0     O63252   9.165  10.716   8.291  0.9273 -0.4703 -0.1441
  480MOL0     C63253   9.064  10.713   8.201 -0.1400 -0.0779 -0.4184
  480MOL0     C63254   8.937  10.682   8.246  0.3004 -0.0450 -0.2110
  480MOL0     C63255   8.841  10.678   8.152  0.4388  0.7504  0.3472
  480MOL0     C63256   8.857  10.707   8.011 -0.7657  0.6036  0.0370
  480MOL0     C63257   8.738  10.715   7.917  0.7616  0.3743 -0.3847
  480MOL0     O63258   8.766  10.747   7.791 -0.1599 -0.3038 -0.1454
  480MOL0     C63259   8.689  10.711   7.678 -0.0765  0.4193 -0.0230
  480MOL0     C63260   8.618  10.590   7.654 -0.7629  0.7437 -0.1643
  480MOL0     C63261   8.558  10.558   7.532  0.4894 -0.2564 -0.4601
  480MOL0     C63262   8.565  10.644   7.429  0.1784  0.1975 -1.2927
  480MOL0     O63263   8.513  10.615   7.303 -0.4276 -0.2729  0.1856
  480MOL0     C63264   8.388  10.549   7.295 -0.3649 -1.1070 -0.3037
  480MOL0     C63265   8.349  10.524   7.155 -0.4171  1.0625 -0.1108
  480MOL0     C63266   8.446  10.409   7.121  0.4703  0.0563  0.2559
  480MOL0     C63267   8.432  10.350   6.973 -0.0383  0.3194 -0.0932
  480MOL0     C63268   8.554  10.267   6.935 -0.4456  0.4250  0.5587
  480MOL0     C63269   8.525  10.179   6.810  1.0397  0.1986  0.0716
  480MOL0     C63270   8.629  10.077   6.790  0.2603  1.1968 -1.5538
  480MOL0     C63271   8.596   9.939   6.849 -0.0279 -0.9487 -0.3123
  480MOL0    Cl63272   8.623   9.947   7.030 -0.0578  0.2439  0.2555
  480MOL0     C63273   8.627  10.767   7.450  0.7174  0.3117 -0.0363
  480MOL0     C63274   8.675  10.797   7.573 -0.9874 -0.0248 -0.3183
  480MOL0     O63275   8.629  10.684   7.959 -0.1720  0.5998 -1.7829
  480MOL0     C63276   8.988  10.732   7.980  0.3735 -0.2227  0.5819
  480MOL0     C63277   9.099  10.739   8.069  0.8033  0.1645  0.2559
  480MOL0     N63278   9.287  10.523   8.895  0.5895  0.2686 -0.5530
  480MOL0     N63279   9.392  10.471   8.958  0.8603  0.5425  0.5792
  480MOL0     C63280   9.808   9.408   9.335  0.1927 -0.9793  0.2245
  480MOL0     C63281   9.821   9.314   9.431 -0.4407 -0.0238 -0.9629
  480MOL0     C63282   9.719   9.131   9.826  0.1324 -0.5630  1.0437
  480MOL0     C63283   9.845   9.098   9.884 -0.4817  0.2928  0.6201
  480MOL0     C63284   9.856   9.022   9.996 -0.8019 -0.1770 -0.4034
  480MOL0     C63285   9.746   8.968  10.057  0.3382  1.0282  0.1139
  480MOL0     O63286   9.769   8.892  10.175  0.2594 -0.2069 -0.1581
  480MOL0     C63287   9.646   8.844  10.235  0.3089  0.5124  1.3095
  480MOL0     C63288   9.688   8.749  10.344 -0.0141 -1.0697  0.2178
  480MOL0     C63289   9.779   8.814  10.451  0.1323  0.7638 -0.9154
  480MOL0     C63290   9.727   8.785  10.594 -0.4738  0.8423 -0.8437
  480MOL0     C63291   9.704   8.640  10.625 -0.1749 -0.0566  0.1911
  480MOL0     C63292   9.690   8.526  10.665 -1.2821  0.0844 -0.6727
  480MOL0     C63293   9.615   8.993  10.002 -0.0490  0.1221 -0.6374
  480MOL0     C63294   9.600   9.083   9.894  0.1537 -0.0947 -0.1023
  480MOL0     H63295   9.768   9.531   9.699  1.8217 -0.6657  0.3151
  480MOL0     H63296   9.726   9.690   9.512 -2.8413 -0.7116  2.7478
  480MOL0     H63297   9.873   9.808   9.276 -0.1651 -0.5488  4.0319
  480MOL0     H63298   9.694   9.796   9.308  1.4238 -0.6552 -0.1626
  480MOL0     H63299   9.632   9.776   9.097 -0.8404 -0.6032  1.6861
  480MOL0     H63300   9.801   9.736   9.036  3.2276 -0.5482  3.1331
  480MOL0     H63301   9.777   9.907   8.945 -1.0746 -0.9965 -0.1867
  480MOL0     H63302   9.883   9.944   9.076  1.1173 -2.6565 -1.2218
  480MOL0     H63303   9.615  10.026   9.042  1.8335 -2.2585 -2.2082
  480MOL0     H63304   9.682  10.028   9.214 -3.5681  0.3048 -0.3408
  480MOL0     H63305   9.807  10.204   8.992  1.2075 -0.2520  0.1291
  480MOL0     H63306   9.834  10.200   9.162  0.4243  1.0397 -1.6593
  480MOL0     H63307   9.604  10.277   9.209 -1.4347 -1.6133 -0.1703
  480MOL0     H63308   9.561  10.241   9.052  1.5097 -1.4000 -1.4868
  480MOL0     H63309   9.635  10.482   9.162  1.0700 -0.4848 -0.9154
  480MOL0     H63310   9.791  10.437   9.095  0.7478 -3.9069  0.6767
  480MOL0     H63311   9.697  10.412   8.858 -1.4321 -0.8953 -1.3818
  480MOL0     H63312   9.701  10.575   8.925 -1.1058  0.1439  1.6162
  480MOL0     H63313   9.518  10.634   8.701  0.0566  1.3981  0.3023
  480MOL0     H63314   9.285  10.800   8.760 -2.1186  0.5938  0.8113
  480MOL0     H63315   9.141  10.707   8.755  0.3619  2.4965  3.1349
  480MOL0     H63316   9.187  10.602   8.548 -2.0044  0.9056  1.9823
  480MOL0     H63317   9.333  10.703   8.531 -0.0711  1.0889 -1.7691
  480MOL0     H63318   9.043  10.788   8.547  0.4261 -0.4936  2.4119
  480MOL0     H63319   9.177  10.907   8.567 -2.6968  1.8243 -1.9114
  480MOL0     H63320   9.251  10.882   8.342  0.6668 -1.2931  0.7383
  480MOL0     H63321   9.069  10.893   8.341 -4.1214 -3.7567  1.3813
  480MOL0     H63322   8.919  10.641   8.344  0.8662  2.2090  0.9170
  480MOL0     H63323   8.738  10.680   8.186  1.4828  2.5898  3.9367
  480MOL0     H63324   8.609  10.513   7.731  1.5403  0.5563 -0.0152
  480MOL0     H63325   8.512  10.460   7.530 -1.1462  0.4329  0.7842
  480MOL0     H63326   8.312  10.611   7.343  0.5417 -0.9563  0.9802
  480MOL0     H63327   8.392  10.457   7.355  0.7198 -0.2376  0.9917
  480MOL0     H63328   8.366  10.607   7.086 -3.7116  2.1395  0.2076
  480MOL0     H63329   8.241  10.505   7.154 -0.2891  0.2111  0.8222
  480MOL0     H63330   8.450  10.331   7.198  0.6504  0.8498  1.0667
  480MOL0     H63331   8.547  10.447   7.140  0.0589  1.4506 -0.2176
  480MOL0     H63332   8.343  10.286   6.975 -1.2129  1.8590  3.0045
  480MOL0     H63333   8.412  10.426   6.897 -2.0854  1.4670  1.4959
  480MOL0     H63334   8.578  10.202   7.020  1.3421 -2.6914 -2.1135
  480MOL0     H63335   8.631  10.336   6.900  0.6458 -1.5714 -1.2467
  480MOL0     H63336   8.520  10.246   6.723  0.3506  0.4770  0.3222
  480MOL0     H63337   8.427  10.141   6.840 -0.6588  3.0668 -1.3779
  480MOL0     H63338   8.629  10.062   6.682  1.3258 -1.8657 -1.2186
  480MOL0     H63339   8.724  10.110   6.833 -0.5216  0.8753  0.5547
  480MOL0     H63340   8.665   9.874   6.795 -0.1880 -1.2714 -0.1243
  480MOL0     H63341   8.493   9.910   6.828 -1.3911  2.5881  0.6656
  480MOL0     H63342   8.621  10.833   7.364  1.9776 -0.3361 -0.6392
  480MOL0     H63343   8.735  10.885   7.595  0.5962 -1.4460  1.3936
  480MOL0     H63344   8.999  10.745   7.873  0.9800  1.3558  0.8056
  480MOL0     H63345   9.204  10.753   8.046  0.4981 -0.2372 -1.5089
  480MOL0     H63346   9.820   9.376   9.232  0.0364 -2.0611  0.5366
  480MOL0     H63347   9.854   9.217   9.397 -2.3494 -1.7373  1.6607
  480MOL0     H63348   9.934   9.137   9.835 -1.0012 -0.4078 -0.9218
  480MOL0     H63349   9.954   8.994  10.034 -0.2345  1.1452 -0.8493
  480MOL0     H63350   9.589   8.794  10.157 -0.2878  1.4095  1.1634
  480MOL0     H63351   9.588   8.932  10.263 -2.7606 -0.2809 -1.8374
  480MOL0     H63352   9.596   8.697  10.373 -0.3577  0.8193  2.8009
  480MOL0     H63353   9.754   8.678  10.293  1.2817  0.2554 -0.0051
  480MOL0     H63354   9.788   8.923  10.441  0.4575  0.6593 -1.7999
  480MOL0     H63355   9.883   8.782  10.452 -0.9016 -3.0508  0.1409
  480MOL0     H63356   9.798   8.823  10.668  0.0582 -0.6355 -0.5779
  480MOL0     H63357   9.629   8.833  10.594 -2.1187 -2.2015 -3.1384
  480MOL0     H63358   9.682   8.424  10.695 -2.4237  0.4452  0.3220
  480MOL0     H63359   9.521   8.959  10.043 -0.9200  1.8333 -1.1165
  480MOL0     H63360   9.501   9.123   9.874 -0.4916 -0.1335  2.6072
  481MOL0     O63361   8.533   3.291   3.124 -0.0504  0.2077 -0.8085
  481MOL0     C63362   8.529   3.292   3.245 -0.0921  0.0367 -0.7640
  481MOL0     O63363   8.612   3.226   3.335  0.0556  0.3713  0.4792
  481MOL0     C63364   8.714   3.148   3.301 -0.9895  0.7348 -0.7016
  481MOL0     C63365   8.778   3.092   3.418 -0.1604  0.6799  1.4857
  481MOL0     C63366   8.895   3.020   3.406  0.0694  0.8337  0.0467
  481MOL0     C63367   8.952   2.985   3.279  0.8051 -0.1469  0.0276
  481MOL0     O63368   9.061   2.899   3.260  0.3481 -0.6825  0.4800
  481MOL0     C63369   9.160   2.888   3.354  0.5052  0.6137  0.0103
  481MOL0     C63370   9.262   3.002   3.387 -0.1254  0.1679  0.3093
  481MOL0     C63371   9.251   3.123   3.284 -0.3962 -0.2432 -0.6747
  481MOL0     C63372   9.309   3.065   3.146 -0.6331  0.2793 -0.4210
  481MOL0     C63373   9.287   3.178   3.047  0.9205  0.7291  0.2127
  481MOL0     C63374   9.384   3.299   3.077 -0.1633  0.1983  0.2477
  481MOL0     C63375   9.402   3.390   2.950  0.3574 -0.5826  0.2417
  481MOL0     C63376   9.461   3.524   2.986  0.3957  0.1098  0.2837
  481MOL0     N63377   9.464   3.604   2.867 -0.6682 -0.6098 -0.4101
  481MOL0     C63378   9.360   3.680   2.797 -0.3443  0.6839 -0.5855
  481MOL0     C63379   9.433   3.756   2.708  0.1370  0.2980 -0.2914
  481MOL0     C63380   9.380   3.860   2.607 -0.2841  0.4374 -0.7136
  481MOL0     C63381   9.339   3.978   2.687  0.5913  0.0466 -0.3749
  481MOL0     C63382   9.230   4.054   2.606 -0.1450  0.1076 -0.0058
  481MOL0     C63383   9.156   4.160   2.686  0.9505  1.0145  0.4794
  481MOL0     O63384   9.103   4.099   2.809  0.0855 -0.5787  1.1147
  481MOL0     C63385   9.037   4.180   2.889  0.1357  1.0784  0.7392
  481MOL0     C63386   8.977   4.133   3.012  0.3771  0.6732 -0.3273
  481MOL0     C63387   8.905   4.215   3.100  0.1541  0.4031 -0.5775
  481MOL0     C63388   8.917   4.348   3.094 -0.3466 -0.6143  0.4020
  481MOL0     C63389   8.857   4.435   3.201  0.0590 -0.1720  0.7148
  481MOL0     O63390   8.833   4.377   3.324 -0.1083 -0.4116 -0.4350
  481MOL0     C63391   8.818   4.456   3.431  0.1878  0.0261  0.0640
  481MOL0     C63392   8.921   4.457   3.519  0.0612  0.3002 -0.0723
  481MOL0     C63393   8.899   4.512   3.647 -0.3441 -0.5821 -0.3802
  481MOL0     C63394   8.773   4.566   3.676 -0.2088 -0.3375  0.7049
  481MOL0     O63395   8.742   4.619   3.800  0.9565  0.6059  0.5397
  481MOL0     C63396   8.846   4.662   3.881 -0.6136 -0.5812  0.4999
  481MOL0     C63397   8.802   4.658   4.033 -0.8875  1.2434 -0.1865
  481MOL0     C63398   8.887   4.737   4.113 -0.0934 -1.0958 -0.9358
  481MOL0     C63399   8.855   4.896   4.094  1.5373  0.4868  0.1152
  481MOL0     C63400   8.947   4.986   4.181 -0.2036 -0.1412 -0.0366
  481MOL0     C63401   8.906   5.133   4.181  0.5301 -0.1553  0.3714
  481MOL0     C63402   9.010   5.223   4.248  0.8958 -0.7740 -0.1803
  481MOL0     C63403   9.086   5.299   4.151 -0.5854 -0.4961 -0.0766
  481MOL0    Cl63404   9.245   5.349   4.221  0.6699  0.0642  0.2924
  481MOL0     C63405   8.668   4.560   3.580 -0.0687 -0.1915  0.6722
  481MOL0     C63406   8.695   4.510   3.458 -0.0079 -0.1647  0.0209
  481MOL0     O63407   8.857   4.556   3.186 -0.4450 -0.3213  0.3915
  481MOL0     C63408   8.973   4.404   2.974 -0.0724 -0.1359 -0.5121
  481MOL0     C63409   9.031   4.321   2.882  0.7199  1.0819  0.2417
  481MOL0     N63410   9.566   3.727   2.722 -0.4792  0.6107  0.6455
  481MOL0     N63411   9.581   3.649   2.817 -0.5073  0.6158 -0.7480
  481MOL0     C63412   8.881   3.033   3.169  0.3642  0.2088  0.3744
  481MOL0     C63413   8.763   3.108   3.175 -0.0624  0.9757  0.4540
  481MOL0     C63414   8.411   3.356   3.301 -0.7364  0.1192  0.3561
  481MOL0     C63415   8.381   3.364   3.440 -0.8969 -0.4396  0.7299
  481MOL0     C63416   8.270   3.431   3.499  0.0203  0.2661  0.7962
  481MOL0     C63417   8.171   3.475   3.412 -0.5824 -0.3054 -0.5837
  481MOL0     O63418   8.066   3.544   3.458 -0.3617 -0.0760  0.6043
  481MOL0     C63419   8.047   3.581   3.599 -0.5213 -0.2637  0.3601
  481MOL0     C63420   7.914   3.660   3.597  0.2243 -0.3051 -0.0221
  481MOL0     C63421   7.788   3.573   3.574  0.4775  0.1816  0.5898
  481MOL0     C63422   7.747   3.494   3.705  0.0395 -0.0489 -0.6446
  481MOL0     C63423   7.699   3.591   3.800  0.7542  0.2354 -0.0029
  481MOL0     C63424   7.658   3.674   3.875  0.5561 -0.6498  0.5065
  481MOL0     C63425   8.190   3.474   3.278  0.0886 -0.5236  0.0636
  481MOL0     C63426   8.310   3.421   3.224  0.4141 -0.8687 -1.2246
  481MOL0     H63427   8.736   3.113   3.516 -0.9523  0.8507  1.1164
  481MOL0     H63428   8.935   2.982   3.499 -0.2922 -0.0126 -0.1401
  481MOL0     H63429   9.213   2.794   3.333  1.4505  1.0817  0.2672
  481MOL0     H63430   9.106   2.873   3.447 -4.7065 -0.0620 -2.7292
  481MOL0     H63431   9.365   2.967   3.397 -0.8198 -2.1207  0.1202
  481MOL0     H63432   9.230   3.036   3.485 -0.7888 -1.3341  0.6452
  481MOL0     H63433   9.313   3.208   3.315  0.4997 -1.5203  1.2360
  481MOL0     H63434   9.148   3.159   3.283 -1.0202 -1.8792  0.6667
  481MOL0     H63435   9.412   3.028   3.142 -0.8785 -0.5746  0.6092
  481MOL0     H63436   9.254   2.974   3.121  1.4323 -1.3603  0.6995
  481MOL0     H63437   9.181   3.207   3.043  0.7105  0.0773 -4.4409
  481MOL0     H63438   9.299   3.136   2.947 -4.7983  0.1543 -0.5774
  481MOL0     H63439   9.479   3.274   3.125 -0.8300  3.0909  3.5271
  481MOL0     H63440   9.315   3.363   3.133 -0.3268  0.1085  0.1486
  481MOL0     H63441   9.480   3.342   2.889  1.1130 -2.8440  2.7825
  481MOL0     H63442   9.315   3.392   2.884  2.7277 -1.6148 -3.2332
  481MOL0     H63443   9.553   3.513   3.043 -0.3368  2.5655  2.1563
  481MOL0     H63444   9.400   3.583   3.055  2.0939  4.0685 -1.2664
  481MOL0     H63445   9.252   3.679   2.810 -0.1559  1.1063  1.4215
  481MOL0     H63446   9.300   3.809   2.554  0.9935 -2.2257 -0.2443
  481MOL0     H63447   9.455   3.878   2.529  2.1502  3.1722  1.9915
  481MOL0     H63448   9.425   4.043   2.705  0.8388 -0.8591  2.1229
  481MOL0     H63449   9.294   3.954   2.784 -0.3805 -0.4269 -0.9285
  481MOL0     H63450   9.272   4.084   2.510  1.8941  2.8951  1.6081
  481MOL0     H63451   9.152   3.980   2.583  2.0705 -2.8702  1.3852
  481MOL0     H63452   9.073   4.197   2.625  0.9821  0.9374  0.3885
  481MOL0     H63453   9.221   4.247   2.695  0.6077  1.7368 -2.7185
  481MOL0     H63454   8.975   4.024   3.015 -3.1756  0.5183 -2.3553
  481MOL0     H63455   8.839   4.178   3.178 -0.4784 -0.1506 -1.3542
  481MOL0     H63456   9.017   4.421   3.485 -0.4156 -1.3096  0.2196
  481MOL0     H63457   8.985   4.528   3.711 -0.4923  2.0552 -0.7343
  481MOL0     H63458   8.891   4.759   3.855  0.9595 -1.2836  0.4735
  481MOL0     H63459   8.915   4.577   3.886 -2.6299 -2.3597 -0.4033
  481MOL0     H63460   8.810   4.554   4.066  1.1932  1.5771  0.4909
  481MOL0     H63461   8.702   4.701   4.042 -2.1338 -1.7815  2.2641
  481MOL0     H63462   8.992   4.715   4.093  0.4145  1.3037 -1.2568
  481MOL0     H63463   8.873   4.733   4.222  1.1452 -1.0104 -0.7599
  481MOL0     H63464   8.867   4.934   3.992  2.8192 -0.4257 -0.1015
  481MOL0     H63465   8.754   4.923   4.125  0.6248  0.6788 -2.7603
  481MOL0     H63466   9.047   4.977   4.138 -0.4466 -0.3319 -0.5677
  481MOL0     H63467   8.960   4.949   4.284 -2.6092 -1.1010 -0.0029
  481MOL0     H63468   8.805   5.144   4.223 -0.0930 -0.6455 -0.9568
  481MOL0     H63469   8.903   5.164   4.077  2.9297  2.4025  0.9297
  481MOL0     H63470   8.934   5.286   4.295 -0.9266 -1.9659 -1.4102
  481MOL0     H63471   9.069   5.167   4.322 -3.0071 -1.9476  2.3344
  481MOL0     H63472   9.023   5.388   4.136 -0.0979 -0.2561 -0.7261
  481MOL0     H63473   9.112   5.250   4.057  0.3014  0.4594 -0.3457
  481MOL0     H63474   8.570   4.600   3.600 -0.5404 -0.3781 -1.0712
  481MOL0     H63475   8.607   4.503   3.394  2.2615  0.6206 -3.4554
  481MOL0     H63476   8.962   4.511   2.963 -0.2654  0.0825  1.4622
  481MOL0     H63477   9.083   4.375   2.804  1.0508  1.1064  0.4774
  481MOL0     H63478   8.935   3.022   3.076  4.4079  2.7752  2.1568
  481MOL0     H63479   8.722   3.147   3.082 -0.0175  0.8536  0.3835
  481MOL0     H63480   8.445   3.320   3.516 -3.2071 -3.8646  0.8903
  481MOL0     H63481   8.268   3.428   3.608  2.6950  1.4406  0.9494
  481MOL0     H63482   8.126   3.640   3.645 -0.3614  0.6549 -1.0427
  481MOL0     H63483   8.039   3.498   3.670  0.9161  1.5970  2.8475
  481MOL0     H63484   7.890   3.720   3.685  1.3452  0.8864 -0.4949
  481MOL0     H63485   7.921   3.729   3.512  1.2607 -0.7812 -0.3489
  481MOL0     H63486   7.819   3.496   3.502  0.7620  0.8576 -0.0260
  481MOL0     H63487   7.716   3.637   3.522 -0.8831 -3.4056 -2.3868
  481MOL0     H63488   7.669   3.418   3.693 -1.2892  1.1286  0.0896
  481MOL0     H63489   7.828   3.442   3.755  0.0429  2.0952  1.8109
  481MOL0     H63490   7.605   3.751   3.927 -0.8840 -0.4009 -1.2655
  481MOL0     H63491   8.114   3.514   3.212  1.1437 -0.3984 -1.1328
  481MOL0     H63492   8.312   3.421   3.116 -2.9548 -2.9687 -1.4294
  482MOL0     O63493   2.582  11.182   1.041 -0.3715 -0.8128 -0.2732
  482MOL0     C63494   2.494  11.153   0.958  0.0166 -0.6032  0.1148
  482MOL0     O63495   2.467  11.033   0.908 -0.3546 -0.1741 -0.3481
  482MOL0     C63496   2.549  10.934   0.955 -0.1020  0.3582  0.6111
  482MOL0     C63497   2.613  10.852   0.868  1.1204  0.2366 -0.6028
  482MOL0     C63498   2.694  10.753   0.915  1.1992 -0.3068  0.2116
  482MOL0     C63499   2.681  10.715   1.056 -0.1695 -0.2856 -0.8641
  482MOL0     O63500   2.754  10.611   1.109 -0.0802 -0.0451  0.1327
  482MOL0     C63501   2.858  10.544   1.029  0.4778 -0.8652 -0.1660
  482MOL0     C63502   2.800  10.436   0.934 -0.2674  0.6163 -0.0427
  482MOL0     C63503   2.764  10.294   0.980  0.5397 -1.2002  0.8488
  482MOL0     C63504   2.773  10.189   0.866  0.1553 -0.5055  0.0635
  482MOL0     C63505   2.900  10.189   0.782  0.1673 -0.1088 -1.3648
  482MOL0     C63506   2.934  10.061   0.704  0.6983 -0.0418 -0.7903
  482MOL0     C63507   2.838  10.027   0.586  0.4973  0.3174 -0.4638
  482MOL0     C63508   2.846   9.879   0.539 -0.1001 -0.4256 -0.0593
  482MOL0     N63509   2.792   9.784   0.634 -0.1671 -0.0161  0.3538
  482MOL0     C63510   2.845   9.661   0.658 -0.7679 -0.3529  0.1820
  482MOL0     C63511   2.752   9.593   0.730 -0.4498  0.0039  1.5703
  482MOL0     C63512   2.762   9.449   0.776  0.1420 -1.1024  0.5581
  482MOL0     C63513   2.629   9.396   0.844  0.0566 -1.2089 -0.5388
  482MOL0     C63514   2.656   9.284   0.941 -0.1122 -0.2192 -0.3610
  482MOL0     C63515   2.533   9.239   1.014  0.0625 -0.4346 -0.5053
  482MOL0     O63516   2.480   9.354   1.096 -0.2619 -0.1609 -0.1729
  482MOL0     C63517   2.488   9.330   1.230 -0.2369  0.8398 -0.1766
  482MOL0     C63518   2.376   9.310   1.309  0.6932  1.5105  0.9868
  482MOL0     C63519   2.390   9.293   1.446  0.4454  0.0346  0.0603
  482MOL0     C63520   2.510   9.302   1.514 -0.8850  0.3522  0.2895
  482MOL0     C63521   2.530   9.291   1.665  0.2885 -0.2712  0.1967
  482MOL0     O63522   2.655   9.294   1.720 -0.3969 -1.4523  0.3115
  482MOL0     C63523   2.675   9.305   1.856  0.2312 -0.2540 -0.2992
  482MOL0     C63524   2.756   9.406   1.907 -0.9817 -0.6165 -0.7940
  482MOL0     C63525   2.797   9.392   2.045  0.2314 -0.3344 -0.4462
  482MOL0     C63526   2.747   9.296   2.129  0.1767  0.3150  0.9795
  482MOL0     O63527   2.805   9.296   2.252 -1.0029  0.3370  0.2146
  482MOL0     C63528   2.781   9.184   2.336  0.2637  0.0729  0.9739
  482MOL0     C63529   2.883   9.183   2.453  0.3082  0.3061  0.1570
  482MOL0     C63530   2.893   9.316   2.531  0.0522  1.0676  0.1802
  482MOL0     C63531   2.781   9.324   2.633 -0.1386  0.0302 -0.2343
  482MOL0     C63532   2.754   9.465   2.706 -0.8249  0.9053  1.3089
  482MOL0     C63533   2.753   9.583   2.604  0.3279 -0.2118  0.8310
  482MOL0     C63534   2.757   9.711   2.681 -0.9718 -0.0139  0.1202
  482MOL0     C63535   2.748   9.838   2.586 -0.1392 -0.6112  0.3416
  482MOL0    Cl63536   2.589   9.853   2.502 -0.6152 -0.2163 -0.2140
  482MOL0     C63537   2.661   9.201   2.073  0.0224  0.2964  0.2236
  482MOL0     C63538   2.634   9.202   1.939 -0.0376 -0.5689 -0.4647
  482MOL0     O63539   2.427   9.285   1.740  0.5622  0.4225  0.2713
  482MOL0     C63540   2.622   9.322   1.433  0.1298 -0.3844 -0.9328
  482MOL0     C63541   2.617   9.333   1.285  0.5084  0.2792  0.1044
  482MOL0     N63542   2.637   9.673   0.731 -0.4671 -0.4731 -0.2644
  482MOL0     N63543   2.664   9.786   0.683  0.2960  0.9448 -0.6365
  482MOL0     C63544   2.601  10.789   1.142  0.6268 -0.0618  0.4834
  482MOL0     C63545   2.545  10.900   1.094  0.7996  0.3162  0.4075
  482MOL0     C63546   2.402  11.261   0.926 -0.9244  0.0526 -0.5945
  482MOL0     C63547   2.329  11.244   0.805  0.1331  0.9160 -0.5439
  482MOL0     C63548   2.250  11.343   0.752  0.3309 -0.2051 -1.2218
  482MOL0     C63549   2.233  11.460   0.827  0.5438 -0.4768 -0.3188
  482MOL0     O63550   2.132  11.553   0.794  0.7636 -0.2543  0.3761
  482MOL0     C63551   2.161  11.611   0.664 -0.8109  0.3520  0.7062
  482MOL0     C63552   2.079  11.726   0.620  0.0036  0.1029 -0.4578
  482MOL0     C63553   1.936  11.694   0.573 -0.4582  0.2345 -0.6295
  482MOL0     C63554   1.846  11.810   0.552  0.6940  0.1734 -0.3361
  482MOL0     C63555   1.870  11.878   0.419  0.6784  0.5344 -0.0493
  482MOL0     C63556   1.897  11.934   0.314 -0.2172  0.3951 -0.3381
  482MOL0     C63557   2.305  11.486   0.950  0.7202  0.0359  1.2198
  482MOL0     C63558   2.391  11.382   0.993  0.0116  0.0572  0.1810
  482MOL0     H63559   2.613  10.895   0.768  0.4023 -0.8443 -1.0899
  482MOL0     H63560   2.776  10.714   0.855 -0.6643 -4.8667  0.2536
  482MOL0     H63561   2.920  10.491   1.102  0.6873 -1.3348 -0.6749
  482MOL0     H63562   2.931  10.613   0.987  3.4390 -2.1257  2.5360
  482MOL0     H63563   2.864  10.449   0.846 -1.1961  1.9289 -0.5606
  482MOL0     H63564   2.704  10.474   0.900 -0.9612 -1.1211 -0.1269
  482MOL0     H63565   2.660  10.283   1.012  0.2334 -2.2910 -0.4362
  482MOL0     H63566   2.825  10.259   1.065 -1.0044 -0.0171  2.5178
  482MOL0     H63567   2.752  10.093   0.914 -0.1939 -0.1956  0.5393
  482MOL0     H63568   2.687  10.204   0.800 -1.1360 -2.3645  1.2282
  482MOL0     H63569   2.981  10.218   0.850 -0.7704  3.1291 -1.4302
  482MOL0     H63570   2.887  10.269   0.709 -1.1511 -0.9386 -2.0794
  482MOL0     H63571   2.937   9.988   0.785  1.6127  1.2301  0.3726
  482MOL0     H63572   3.037  10.071   0.669  2.4004 -0.5303  3.4958
  482MOL0     H63573   2.744  10.054   0.634 -0.3763 -2.0345 -0.6940
  482MOL0     H63574   2.839  10.096   0.501 -0.3182 -2.3732 -2.8184
  482MOL0     H63575   2.952   9.860   0.521 -0.1733  1.2892 -2.9076
  482MOL0     H63576   2.783   9.867   0.450 -1.4355  1.2301  0.6062
  482MOL0     H63577   2.938   9.610   0.636 -0.3381 -0.0885  1.3223
  482MOL0     H63578   2.835   9.446   0.857 -0.2597  2.2276  1.2015
  482MOL0     H63579   2.802   9.383   0.698  2.7752 -1.1552  1.8483
  482MOL0     H63580   2.549   9.359   0.780 -1.6146 -1.0425  1.3481
  482MOL0     H63581   2.579   9.477   0.900  0.0998 -0.9142 -0.9222
  482MOL0     H63582   2.696   9.194   0.893  0.0317 -0.1890 -0.3010
  482MOL0     H63583   2.728   9.317   1.017 -1.2496  0.8262  0.2913
  482MOL0     H63584   2.559   9.157   1.082 -2.3074  0.2555  1.3887
  482MOL0     H63585   2.449   9.214   0.949  0.8404  2.1946 -2.7002
  482MOL0     H63586   2.280   9.303   1.260  2.6642  2.6858 -3.6697
  482MOL0     H63587   2.298   9.265   1.495 -0.3659  3.1858  0.5738
  482MOL0     H63588   2.790   9.492   1.849  0.5578 -0.9667 -0.4666
  482MOL0     H63589   2.858   9.473   2.084 -0.5524  0.3822 -0.6718
  482MOL0     H63590   2.809   9.097   2.277 -0.1029 -1.8555  3.4955
  482MOL0     H63591   2.677   9.181   2.368 -0.5405 -0.2717 -1.4737
  482MOL0     H63592   2.980   9.162   2.405  0.1488 -0.8235  0.2856
  482MOL0     H63593   2.860   9.104   2.525 -1.9079  1.6609  1.0087
  482MOL0     H63594   2.897   9.399   2.460  5.0774  1.4937  0.5524
  482MOL0     H63595   2.993   9.318   2.576  0.6730  1.0387 -1.1378
  482MOL0     H63596   2.685   9.304   2.585 -2.3380 -1.2350  4.2443
  482MOL0     H63597   2.795   9.250   2.712  0.8718 -0.4209 -0.8110
  482MOL0     H63598   2.835   9.476   2.777  1.5064  2.4294 -1.3686
  482MOL0     H63599   2.659   9.462   2.759 -0.4608 -1.3862  1.9293
  482MOL0     H63600   2.664   9.586   2.540  3.0074 -2.6525 -3.5800
  482MOL0     H63601   2.841   9.578   2.538 -0.6794 -0.5211 -0.5186
  482MOL0     H63602   2.699   9.714   2.773 -0.0184 -1.7583  0.8196
  482MOL0     H63603   2.861   9.715   2.715 -0.0581 -2.0549 -2.1278
  482MOL0     H63604   2.826   9.821   2.512  1.2118  0.8381  1.3827
  482MOL0     H63605   2.759   9.930   2.645 -0.3036 -0.8074  0.6809
  482MOL0     H63606   2.619   9.127   2.139 -1.5447  0.3848 -0.6210
  482MOL0     H63607   2.579   9.122   1.892 -0.1043  0.7191 -2.7223
  482MOL0     H63608   2.715   9.309   1.488 -0.1020  0.2485 -0.3695
  482MOL0     H63609   2.713   9.345   1.235 -0.0543 -3.6133 -2.3181
  482MOL0     H63610   2.584  10.783   1.249 -1.5716  1.2692  0.2882
  482MOL0     H63611   2.490  10.965   1.161 -1.5108 -2.3646  1.3104
  482MOL0     H63612   2.333  11.152   0.749 -0.6927  1.2695 -1.2171
  482MOL0     H63613   2.187  11.331   0.664  0.3551  0.6890 -1.3707
  482MOL0     H63614   2.140  11.531   0.593 -0.2327 -0.3010  1.2569
  482MOL0     H63615   2.267  11.634   0.655 -0.1120 -0.9763  4.0919
  482MOL0     H63616   2.080  11.790   0.709 -1.5368 -1.9357  1.1303
  482MOL0     H63617   2.136  11.773   0.539  0.0735  1.8046  0.5357
  482MOL0     H63618   1.882  11.628   0.642 -2.4930 -1.3671 -3.5021
  482MOL0     H63619   1.950  11.633   0.483  0.8784  3.5614 -2.8674
  482MOL0     H63620   1.747  11.767   0.539  1.0056 -0.1413 -1.8291
  482MOL0     H63621   1.847  11.878   0.637  0.2154 -0.8712  0.5289
  482MOL0     H63622   1.918  11.966   0.214  1.4124 -0.3493 -0.2732
  482MOL0     H63623   2.292  11.567   1.022 -2.9640 -1.7615  2.8475
  482MOL0     H63624   2.452  11.393   1.082  0.9693  2.2427 -0.6734
  483MOL0     O63625   1.034   6.146   6.137 -0.3915 -0.7089  0.3303
  483MOL0     C63626   1.113   6.240   6.124  0.1309 -0.3481 -0.3212
  483MOL0     O63627   1.219   6.252   6.039  0.5722  0.4560 -0.3102
  483MOL0     C63628   1.262   6.142   5.968  0.5280  0.7508  0.1717
  483MOL0     C63629   1.291   6.170   5.830 -0.2847  0.0817 -0.6583
  483MOL0     C63630   1.344   6.078   5.748 -0.3999  0.5373 -0.1724
  483MOL0     C63631   1.369   5.945   5.786 -0.5619  1.1018 -0.6802
  483MOL0     O63632   1.399   5.851   5.685 -0.6791  0.1300  0.7820
  483MOL0     C63633   1.403   5.709   5.720 -0.4691 -0.1806 -0.1014
  483MOL0     C63634   1.451   5.644   5.591  0.2013  0.1213  1.0213
  483MOL0     C63635   1.430   5.488   5.600  0.1027  0.7922  0.4242
  483MOL0     C63636   1.463   5.431   5.459 -0.2154  0.3773  0.4849
  483MOL0     C63637   1.606   5.444   5.415 -0.2288 -0.0158 -0.7111
  483MOL0     C63638   1.629   5.566   5.315  0.1642 -0.0406 -0.1400
  483MOL0     C63639   1.764   5.551   5.245 -0.6484  0.3927 -0.2576
  483MOL0     C63640   1.883   5.549   5.337  0.7304 -0.6184  0.3822
  483MOL0     N63641   1.958   5.426   5.349  1.0654  0.5737 -0.2331
  483MOL0     C63642   2.053   5.376   5.270 -0.9040  0.4022 -0.5451
  483MOL0     C63643   2.096   5.258   5.326 -0.4306 -0.4538 -0.8492
  483MOL0     C63644   2.202   5.173   5.257 -0.0489  0.5801 -0.4762
  483MOL0     C63645   2.274   5.082   5.359  0.7815 -0.7020  0.2115
  483MOL0     C63646   2.388   5.140   5.454  0.3591 -0.4955  0.5609
  483MOL0     C63647   2.474   5.044   5.522  0.4415 -0.1658  0.2197
  483MOL0     O63648   2.607   5.079   5.535 -0.6427 -0.2096  0.3647
  483MOL0     C63649   2.684   4.970   5.563 -1.0416  0.0256 -0.7814
  483MOL0     C63650   2.699   4.867   5.459  0.0855 -1.0617 -1.0300
  483MOL0     C63651   2.776   4.752   5.480  1.4953  0.4150 -0.5828
  483MOL0     C63652   2.853   4.747   5.591  0.1321 -0.6305  0.2724
  483MOL0     C63653   2.929   4.618   5.621  0.4269 -0.2777 -0.3766
  483MOL0     O63654   2.969   4.548   5.514  0.4847 -0.2570 -0.1915
  483MOL0     C63655   3.038   4.429   5.510 -0.6811 -0.6416 -0.0809
  483MOL0     C63656   3.089   4.401   5.389  0.1865  0.6126 -0.1275
  483MOL0     C63657   3.186   4.303   5.368  0.1408  0.7933  0.0563
  483MOL0     C63658   3.228   4.223   5.480  0.9991 -0.3676  0.3579
  483MOL0     O63659   3.321   4.119   5.474  0.1058 -1.5668 -0.1570
  483MOL0     C63660   3.408   4.098   5.360 -0.2991 -0.4054  0.0631
  483MOL0     C63661   3.530   4.008   5.387  0.0290 -0.4216  0.3378
  483MOL0     C63662   3.639   4.084   5.451  0.5875 -0.0445  0.1196
  483MOL0     C63663   3.758   4.001   5.503 -0.2896  0.4922 -0.2399
  483MOL0     C63664   3.834   3.916   5.394  0.2422 -0.0502  0.4159
  483MOL0     C63665   3.936   3.827   5.464 -0.0866  0.2254  0.7905
  483MOL0     C63666   3.996   3.726   5.367  1.0709  0.0982 -0.0419
  483MOL0     C63667   4.098   3.627   5.429  0.3845  1.0612 -0.3955
  483MOL0    Cl63668   4.220   3.584   5.303  0.1240 -0.0846  0.0799
  483MOL0     C63669   3.174   4.258   5.601 -0.8886 -0.6323 -0.4894
  483MOL0     C63670   3.078   4.352   5.620  0.8497 -0.3037 -0.1614
  483MOL0     O63671   2.956   4.596   5.735  0.1841 -0.1863 -0.3365
  483MOL0     C63672   2.862   4.860   5.676  0.5181  0.0222  0.5294
  483MOL0     C63673   2.768   4.971   5.672 -0.3818  0.4234 -0.3743
  483MOL0     N63674   2.017   5.239   5.436 -0.4157 -0.1314  0.0447
  483MOL0     N63675   1.944   5.353   5.462 -0.2152  0.1100 -0.4293
  483MOL0     C63676   1.334   5.914   5.915  0.9325 -0.6516 -0.0904
  483MOL0     C63677   1.275   6.010   6.004 -1.7488  1.0164 -0.3334
  483MOL0     C63678   1.071   6.365   6.206  0.9552  0.1442  0.7651
  483MOL0     C63679   0.969   6.356   6.300 -0.0251  0.4324  0.0155
  483MOL0     C63680   0.919   6.463   6.362 -0.3350 -0.3732 -0.3031
  483MOL0     C63681   0.957   6.594   6.322 -0.2991 -0.1873  0.2088
  483MOL0     O63682   0.891   6.702   6.385  0.5642  0.0421 -0.0985
  483MOL0     C63683   0.954   6.832   6.378  0.3205  0.0354 -0.1882
  483MOL0     C63684   0.919   6.920   6.502  0.8017 -0.3815 -0.0072
  483MOL0     C63685   0.783   6.994   6.493 -0.3433  0.7172 -0.2469
  483MOL0     C63686   0.751   7.086   6.610 -0.2274 -0.0118 -0.7872
  483MOL0     C63687   0.861   7.174   6.646 -0.1759 -0.3904 -0.9187
  483MOL0     C63688   0.932   7.272   6.670  0.5267 -0.0345  0.2292
  483MOL0     C63689   1.056   6.613   6.222  1.0178 -0.0775 -0.3616
  483MOL0     C63690   1.111   6.498   6.166  0.3552  0.0953 -0.1539
  483MOL0     H63691   1.282   6.270   5.788 -3.2637  0.1524 -0.0092
  483MOL0     H63692   1.359   6.117   5.648 -0.9288  3.3083  0.7615
  483MOL0     H63693   1.301   5.673   5.739 -0.4579 -1.2564 -1.8604
  483MOL0     H63694   1.475   5.695   5.802  0.7149  1.0243 -0.9070
  483MOL0     H63695   1.554   5.675   5.575  0.1270  0.4246  1.1160
  483MOL0     H63696   1.381   5.674   5.512  2.7975 -1.5697 -2.1091
  483MOL0     H63697   1.337   5.445   5.638  1.9333 -2.1784  1.8937
  483MOL0     H63698   1.508   5.452   5.668  0.6099  0.8505 -0.1189
  483MOL0     H63699   1.445   5.323   5.458  1.7947 -0.0116 -1.2219
  483MOL0     H63700   1.396   5.485   5.392  1.8955  4.1137  1.1463
  483MOL0     H63701   1.643   5.360   5.355  3.6273  0.7726  0.2412
  483MOL0     H63702   1.681   5.450   5.495  0.9499 -1.1270 -1.6801
  483MOL0     H63703   1.619   5.658   5.373 -2.4587  1.7573 -3.0706
  483MOL0     H63704   1.551   5.576   5.239  0.4888  2.0936 -0.2660
  483MOL0     H63705   1.770   5.459   5.187  3.4028  1.2110 -1.3922
  483MOL0     H63706   1.767   5.630   5.169 -1.3900 -1.6641 -2.5707
  483MOL0     H63707   1.851   5.580   5.437  1.3547 -2.2147  1.1185
  483MOL0     H63708   1.949   5.629   5.303 -0.5905  0.2477 -0.2269
  483MOL0     H63709   2.088   5.411   5.174 -3.1643 -0.5960 -1.8241
  483MOL0     H63710   2.282   5.237   5.219 -0.0061 -0.2512 -1.8539
  483MOL0     H63711   2.164   5.120   5.170 -0.9555 -1.4490  1.0593
  483MOL0     H63712   2.325   5.008   5.296  1.9712  0.7612 -0.5993
  483MOL0     H63713   2.192   5.034   5.414 -1.4262 -0.9726 -3.0351
  483MOL0     H63714   2.447   5.212   5.397  3.5050 -3.3957 -0.1264
  483MOL0     H63715   2.344   5.201   5.533  0.9509  0.4713  0.1581
  483MOL0     H63716   2.450   4.950   5.472 -1.7580 -0.5269  1.8025
  483MOL0     H63717   2.431   5.022   5.620  1.0717 -2.4697  0.0237
  483MOL0     H63718   2.658   4.873   5.359 -1.3380 -1.4120 -0.4863
  483MOL0     H63719   2.769   4.670   5.410  1.5305 -1.0456  1.0547
  483MOL0     H63720   3.062   4.475   5.314  1.2121 -0.9221 -2.0785
  483MOL0     H63721   3.221   4.292   5.266 -0.9939 -1.4392 -0.1532
  483MOL0     H63722   3.450   4.193   5.327 -1.1552  0.2148  0.7234
  483MOL0     H63723   3.348   4.054   5.279  0.7101 -1.2025 -0.2798
  483MOL0     H63724   3.574   3.973   5.293  0.2361  1.7513 -0.4236
  483MOL0     H63725   3.508   3.928   5.458  1.2712  0.4958  1.8242
  483MOL0     H63726   3.603   4.140   5.538 -0.4444  0.3102 -0.5259
  483MOL0     H63727   3.670   4.158   5.377 -2.0160  1.1836  0.1431
  483MOL0     H63728   3.837   4.061   5.548 -0.0434  0.1516 -0.2211
  483MOL0     H63729   3.714   3.951   5.590 -1.8639  0.2639 -1.1196
  483MOL0     H63730   3.879   3.978   5.316 -0.2500 -0.5773 -0.3054
  483MOL0     H63731   3.759   3.861   5.337  0.7262  1.1303 -1.4380
  483MOL0     H63732   3.893   3.773   5.548  2.3698 -0.0935  1.9540
  483MOL0     H63733   4.020   3.884   5.505  0.3890  2.0357 -2.3401
  483MOL0     H63734   3.910   3.667   5.335  0.2019  1.0761  0.4316
  483MOL0     H63735   4.031   3.782   5.280 -4.1210  3.5620 -0.3611
  483MOL0     H63736   4.055   3.531   5.460  0.0122  0.9688 -1.1790
  483MOL0     H63737   4.150   3.675   5.512  0.2521 -0.5391  0.6710
  483MOL0     H63738   3.220   4.198   5.679  0.6794  1.3685  0.1968
  483MOL0     H63739   3.042   4.378   5.719 -2.5187  2.1783 -1.8566
  483MOL0     H63740   2.943   4.872   5.748  0.3095  0.7260  0.6499
  483MOL0     H63741   2.764   5.062   5.731  0.7405  0.9404 -1.0676
  483MOL0     H63742   1.340   5.810   5.945  0.9300 -0.4853  0.5032
  483MOL0     H63743   1.263   5.979   6.108  3.5237 -2.1951 -0.2977
  483MOL0     H63744   0.926   6.257   6.314 -1.4272  0.8086 -1.4459
  483MOL0     H63745   0.846   6.448   6.441 -1.1270 -4.6040 -1.5848
  483MOL0     H63746   0.935   6.884   6.283  0.1206  0.7938  0.2592
  483MOL0     H63747   1.062   6.816   6.381  0.7246  1.8400 -2.4261
  483MOL0     H63748   0.920   6.858   6.592  0.4637 -1.1660 -0.5274
  483MOL0     H63749   0.994   6.997   6.518 -0.5820  0.3870  3.6962
  483MOL0     H63750   0.710   6.913   6.485  1.9567 -1.2438 -3.6111
  483MOL0     H63751   0.774   7.055   6.403  1.4527  2.1820  0.4960
  483MOL0     H63752   0.660   7.142   6.586 -0.2104  0.4169  0.1144
  483MOL0     H63753   0.730   7.027   6.700  0.9456 -2.9050 -2.2807
  483MOL0     H63754   0.999   7.355   6.683 -0.8700  1.1364  0.1786
  483MOL0     H63755   1.074   6.708   6.174 -1.1068  2.9427  4.1589
  483MOL0     H63756   1.176   6.504   6.079 -1.5428  0.5738 -1.5845
  484MOL0     O63757   9.967   4.124   0.505  0.4754  0.1680  0.4003
  484MOL0     C63758  10.010   4.087   0.611 -0.2087  0.9069 -0.4323
  484MOL0     O63759  10.087   4.159   0.708 -0.8676  0.2213 -0.3599
  484MOL0     C63760  10.129   4.291   0.687 -0.3125  0.0066 -0.2530
  484MOL0     C63761  10.242   4.320   0.765  0.2845  0.2489 -0.0663
  484MOL0     C63762  10.265   4.447   0.795 -0.1264  0.8733  0.9391
  484MOL0     C63763  10.184   4.553   0.742 -0.5830 -0.2157 -0.6851
  484MOL0     O63764  10.214   4.680   0.786  1.1117 -0.0927  0.2688
  484MOL0     C63765  10.158   4.785   0.700 -0.5797 -1.5855 -0.7367
  484MOL0     C63766  10.216   4.928   0.729  0.0658  1.1079  1.1088
  484MOL0     C63767  10.153   5.041   0.645  0.5070  0.0109 -0.1556
  484MOL0     C63768  10.004   5.058   0.653  0.4932 -0.5942  1.2689
  484MOL0     C63769   9.949   5.127   0.524 -0.6692 -0.3533  0.3796
  484MOL0     C63770   9.793   5.135   0.559  0.5111 -1.3629  0.0904
  484MOL0     C63771   9.737   5.266   0.505 -0.4177 -0.0396 -0.4662
  484MOL0     C63772   9.775   5.385   0.587 -0.0815  0.1500  0.1270
  484MOL0     N63773   9.724   5.510   0.528  0.3486  0.8624  0.2222
  484MOL0     C63774   9.593   5.557   0.540  0.5028  0.1363 -0.4062
  484MOL0     C63775   9.586   5.665   0.465  1.1775 -0.0794  0.2211
  484MOL0     C63776   9.457   5.744   0.439 -1.3338 -0.1352 -0.6696
  484MOL0     C63777   9.476   5.903   0.441 -0.3264  0.2423  0.2365
  484MOL0     C63778   9.348   5.971   0.387 -0.6158  1.3938  0.0860
  484MOL0     C63779   9.335   6.110   0.428 -0.9016 -0.4773 -0.5609
  484MOL0     O63780   9.296   6.116   0.568  0.6224  0.7414 -0.7697
  484MOL0     C63781   9.283   6.231   0.637  0.1046  0.3684 -0.1140
  484MOL0     C63782   9.223   6.224   0.762  0.0456  0.2161  0.0335
  484MOL0     C63783   9.210   6.336   0.844  0.6499 -0.2923 -0.7250
  484MOL0     C63784   9.265   6.461   0.797 -0.1101  0.3461  0.0435
  484MOL0     C63785   9.242   6.587   0.878  0.5123 -0.7557 -0.1579
  484MOL0     O63786   9.270   6.707   0.813 -0.0791  0.2577  0.5021
  484MOL0     C63787   9.232   6.824   0.871  0.5719  0.4866 -0.0888
  484MOL0     C63788   9.329   6.891   0.944 -1.0977  1.1801  0.1004
  484MOL0     C63789   9.293   7.001   1.026 -1.1526 -0.0423  0.8111
  484MOL0     C63790   9.169   7.060   1.019 -0.4115 -0.2035  0.4787
  484MOL0     O63791   9.157   7.176   1.079  0.1486  0.7888 -1.1538
  484MOL0     C63792   9.028   7.228   1.109 -0.3093  0.1551 -0.0228
  484MOL0     C63793   9.028   7.378   1.121  0.1009  0.1754 -0.1369
  484MOL0     C63794   8.907   7.441   1.194  0.9848  0.4527  0.3895
  484MOL0     C63795   8.905   7.592   1.198  0.8424 -0.0508 -1.0156
  484MOL0     C63796   8.783   7.659   1.261 -0.0997 -0.1977  1.3727
  484MOL0     C63797   8.818   7.803   1.273 -0.4253  0.4701 -1.1330
  484MOL0     C63798   8.694   7.881   1.305  0.1126 -0.0669 -0.1994
  484MOL0     C63799   8.700   7.984   1.414 -0.9446 -0.1260 -0.4565
  484MOL0    Cl63800   8.672   7.904   1.566  0.0276  0.1253  0.3383
  484MOL0     C63801   9.080   6.993   0.933  0.3763  0.6682  0.7483
  484MOL0     C63802   9.103   6.869   0.860 -0.3102 -1.2877  0.4291
  484MOL0     O63803   9.202   6.577   0.995 -0.7449 -0.7918  0.2161
  484MOL0     C63804   9.326   6.460   0.671  0.1102 -0.5210 -0.5236
  484MOL0     C63805   9.338   6.349   0.592  0.0160  0.1269 -0.2106
  484MOL0     N63806   9.706   5.688   0.407  0.0684 -1.0384  1.3859
  484MOL0     N63807   9.778   5.585   0.432 -0.3049 -0.1705  0.3325
  484MOL0     C63808  10.079   4.520   0.648  0.3879 -0.1936  0.0330
  484MOL0     C63809  10.057   4.387   0.618 -0.1874 -0.1046  0.5391
  484MOL0     C63810   9.967   3.950   0.655 -0.6671 -0.1061 -0.4533
  484MOL0     C63811   9.861   3.892   0.595 -0.2644  0.1387  0.3835
  484MOL0     C63812   9.812   3.776   0.644  0.7639  0.2030 -0.1010
  484MOL0     C63813   9.865   3.711   0.753  0.6174  0.3463 -0.7366
  484MOL0     O63814   9.817   3.599   0.811  0.2796  0.2384 -0.2908
  484MOL0     C63815   9.765   3.505   0.728  0.1686 -0.5877  1.0186
  484MOL0     C63816   9.741   3.371   0.787 -0.2327  0.7506  0.0886
  484MOL0     C63817   9.648   3.383   0.903  0.6754  0.1890  0.3786
  484MOL0     C63818   9.495   3.345   0.878 -0.0316  0.7687 -0.6689
  484MOL0     C63819   9.422   3.455   0.814 -0.4430 -0.4172 -0.0041
  484MOL0     C63820   9.353   3.536   0.760  0.5264 -0.2324  0.1616
  484MOL0     C63821   9.977   3.769   0.812  0.2867 -0.0807 -0.1349
  484MOL0     C63822  10.033   3.882   0.767 -0.5266 -1.3759  0.4704
  484MOL0     H63823  10.306   4.245   0.810  0.3389 -0.4958 -1.3315
  484MOL0     H63824  10.346   4.481   0.859 -0.5129  1.8145  0.9481
  484MOL0     H63825  10.051   4.792   0.721 -0.3263  0.8134  0.0829
  484MOL0     H63826  10.175   4.763   0.594  1.4342 -0.1529 -0.7825
  484MOL0     H63827  10.321   4.910   0.702 -0.6416 -0.4745 -0.8453
  484MOL0     H63828  10.204   4.944   0.836 -3.7445  0.1903  0.9671
  484MOL0     H63829  10.184   5.025   0.541 -1.5087 -2.8066 -0.4473
  484MOL0     H63830  10.206   5.133   0.672 -1.5742  0.8324  1.4272
  484MOL0     H63831   9.960   4.959   0.660 -0.2939 -0.3374  0.2239
  484MOL0     H63832   9.986   5.109   0.748 -0.2074 -0.0789  0.8756
  484MOL0     H63833   9.958   5.070   0.431  0.0872  2.3815 -1.3244
  484MOL0     H63834   9.990   5.228   0.520 -2.1541  0.4363  2.7919
  484MOL0     H63835   9.775   5.128   0.666  0.1393 -1.1527  0.0434
  484MOL0     H63836   9.737   5.056   0.509 -0.0076 -0.3148 -1.0412
  484MOL0     H63837   9.786   5.279   0.408  1.9319 -1.8146  0.4087
  484MOL0     H63838   9.627   5.263   0.508 -0.3951 -0.0419  0.5954
  484MOL0     H63839   9.884   5.381   0.582 -0.1065 -3.0751  0.2775
  484MOL0     H63840   9.747   5.368   0.692 -1.7956 -3.9843 -0.8000
  484MOL0     H63841   9.519   5.516   0.608  1.9247  0.2115  1.2537
  484MOL0     H63842   9.373   5.714   0.502 -0.4062 -2.6245 -0.5271
  484MOL0     H63843   9.438   5.707   0.338  0.9680  0.1297 -1.2408
  484MOL0     H63844   9.552   5.938   0.370 -0.9707  1.8971  0.3055
  484MOL0     H63845   9.495   5.944   0.541  1.6053  4.1882 -1.4976
  484MOL0     H63846   9.330   5.952   0.281  3.9268  1.6434 -0.9045
  484MOL0     H63847   9.268   5.914   0.436 -0.9649  1.7918 -0.0188
  484MOL0     H63848   9.268   6.183   0.381  0.3478  1.7494  0.9219
  484MOL0     H63849   9.430   6.159   0.404 -1.7949  0.2680 -2.9169
  484MOL0     H63850   9.190   6.131   0.809 -1.4520  1.9962  2.7722
  484MOL0     H63851   9.159   6.303   0.934 -0.0936 -2.6316 -1.9226
  484MOL0     H63852   9.427   6.843   0.944 -1.8070 -0.3576  1.4329
  484MOL0     H63853   9.363   7.038   1.100  1.2419 -0.7149 -0.9968
  484MOL0     H63854   9.008   7.187   1.208  2.2081  1.4009  1.1004
  484MOL0     H63855   8.946   7.196   1.044  0.3247 -1.0686 -0.2682
  484MOL0     H63856   9.028   7.431   1.025  0.6514  2.1597  0.8971
  484MOL0     H63857   9.121   7.410   1.168 -1.3816  2.5476  1.4400
  484MOL0     H63858   8.901   7.415   1.300 -3.7192  2.6437  0.9382
  484MOL0     H63859   8.819   7.403   1.140  1.1497 -0.6663  0.8827
  484MOL0     H63860   8.986   7.627   1.262  0.0152  0.8720 -0.4313
  484MOL0     H63861   8.912   7.627   1.094 -1.2369  2.2737 -0.4780
  484MOL0     H63862   8.776   7.632   1.367 -3.5767 -0.0705  1.2900
  484MOL0     H63863   8.691   7.651   1.202 -1.3441 -3.4296  3.4213
  484MOL0     H63864   8.845   7.835   1.172 -1.4339 -0.1579 -1.6157
  484MOL0     H63865   8.893   7.818   1.350  0.6556 -3.0816 -1.3201
  484MOL0     H63866   8.658   7.924   1.211 -0.7296  0.3730  0.3076
  484MOL0     H63867   8.618   7.805   1.324 -0.3419  0.4483  0.0808
  484MOL0     H63868   8.648   8.076   1.386 -0.9499  0.4655  1.3655
  484MOL0     H63869   8.808   8.002   1.410 -1.1813  1.3872 -0.5273
  484MOL0     H63870   8.984   7.043   0.922  0.7338  1.4071  0.9122
  484MOL0     H63871   9.028   6.824   0.796 -0.4251  1.6456 -1.7089
  484MOL0     H63872   9.379   6.550   0.643  0.6969  0.2745  2.6956
  484MOL0     H63873   9.374   6.363   0.491 -1.1651  4.7030 -0.1889
  484MOL0     H63874  10.003   4.578   0.596  2.0243  3.3066  1.2461
  484MOL0     H63875   9.982   4.359   0.544  2.1065  0.9345 -2.4129
  484MOL0     H63876   9.820   3.940   0.507  2.1848  0.5290 -0.6204
  484MOL0     H63877   9.720   3.741   0.598 -0.0222  2.0242 -0.0042
  484MOL0     H63878   9.825   3.498   0.637  1.9028  3.1088  1.7006
  484MOL0     H63879   9.677   3.550   0.680  1.6038  2.2568  0.8539
  484MOL0     H63880   9.705   3.300   0.712  2.4047  0.2369 -0.7816
  484MOL0     H63881   9.835   3.325   0.817  0.0243 -2.0193 -4.1122
  484MOL0     H63882   9.641   3.486   0.939  0.0216  0.3999 -0.3470
  484MOL0     H63883   9.689   3.322   0.984  1.6195  1.0179  0.5486
  484MOL0     H63884   9.486   3.255   0.816 -2.0342 -0.1892  0.9007
  484MOL0     H63885   9.450   3.316   0.973 -0.1072 -2.3538 -1.5247
  484MOL0     H63886   9.290   3.617   0.730  1.9583  1.1465  0.7034
  484MOL0     H63887  10.022   3.720   0.898  0.7421  1.6735  0.6650
  484MOL0     H63888  10.116   3.922   0.824 -2.2604  0.6627  1.7239
  485MOL0     O63889   8.122   9.485  11.028 -0.4476 -0.4378 -0.4849
  485MOL0     C63890   8.143   9.446  11.142 -0.0788  0.1953  0.2361
  485MOL0     O63891   8.223   9.338  11.181 -0.7857 -0.3459  0.3457
  485MOL0     C63892   8.280   9.276  11.077  0.2657 -0.9617 -0.2186
  485MOL0     C63893   8.204   9.171  11.014  0.7769  0.0188 -0.1990
  485MOL0     C63894   8.260   9.117  10.901  1.1433 -1.1222 -0.6628
  485MOL0     C63895   8.384   9.168  10.846  0.8420 -0.4919  0.7824
  485MOL0     O63896   8.437   9.116  10.734  0.5244 -0.6071  0.7500
  485MOL0     C63897   8.410   9.189  10.608  0.1223  0.0647  0.0213
  485MOL0     C63898   8.270   9.168  10.555  0.0998  0.2060 -0.2608
  485MOL0     C63899   8.229   9.267  10.439 -0.5918 -0.2321  1.0006
  485MOL0     C63900   8.094   9.239  10.404 -0.3222  0.1463  1.0605
  485MOL0     C63901   8.034   9.295  10.270  0.2475 -0.1881  0.3184
  485MOL0     C63902   8.021   9.449  10.263 -0.4165 -0.5533 -0.1829
  485MOL0     C63903   8.098   9.504  10.138 -0.2883  0.2124 -0.5861
  485MOL0     C63904   8.050   9.463  10.004 -0.4213  0.2534  0.5728
  485MOL0     N63905   8.121   9.521   9.889  0.0429  0.0634  0.0992
  485MOL0     C63906   8.138   9.652   9.874 -0.4002 -0.1918  0.6790
  485MOL0     C63907   8.181   9.662   9.742 -0.8308 -0.9048  0.1936
  485MOL0     C63908   8.217   9.790   9.671 -0.6449  0.2412  0.0356
  485MOL0     C63909   8.311   9.893   9.735 -0.4096 -0.1940 -0.4187
  485MOL0     C63910   8.436   9.859   9.813 -0.8417  0.0391 -0.3826
  485MOL0     C63911   8.523   9.759   9.727  0.2412  0.1433  0.7874
  485MOL0     O63912   8.648   9.734   9.792  0.3393 -0.1785 -0.4857
  485MOL0     C63913   8.643   9.685   9.923  0.0946 -0.5322  0.4196
  485MOL0     C63914   8.692   9.762  10.014 -0.1734 -0.1305 -0.1870
  485MOL0     C63915   8.698   9.714  10.147  0.6603 -0.0897 -0.0929
  485MOL0     C63916   8.620   9.601  10.191 -0.3537 -0.3085  0.1928
  485MOL0     C63917   8.618   9.555  10.328 -0.4109 -0.2130 -0.6129
  485MOL0     O63918   8.691   9.624  10.416  0.5924  0.0337  0.1498
  485MOL0     C63919   8.681   9.629  10.552 -0.9063  0.0441  0.5051
  485MOL0     C63920   8.584   9.572  10.637  0.2788 -0.5185 -0.8345
  485MOL0     C63921   8.598   9.594  10.772  1.1962 -1.2795  0.0702
  485MOL0     C63922   8.694   9.676  10.827  0.2591  0.6907  1.1434
  485MOL0     O63923   8.683   9.684  10.958 -0.0798 -0.3782 -0.7869
  485MOL0     C63924   8.584   9.755  11.023  0.1230  0.2099 -0.2351
  485MOL0     C63925   8.611   9.754  11.172 -0.2430 -0.9311  1.0154
  485MOL0     C63926   8.613   9.606  11.242  0.3244 -0.9305 -0.1023
  485MOL0     C63927   8.752   9.544  11.232  0.5246 -0.0601  0.8672
  485MOL0     C63928   8.748   9.392  11.268 -0.1796  0.0284  0.2845
  485MOL0     C63929   8.686   9.361  11.401 -0.1963  0.8354 -0.9383
  485MOL0     C63930   8.536   9.319  11.392  0.4101  0.6061 -0.3946
  485MOL0     C63931   8.490   9.291  11.543  0.7794 -0.2812  0.9037
  485MOL0    Cl63932   8.319   9.261  11.571 -0.0542  0.1480 -0.2568
  485MOL0     C63933   8.785   9.737  10.742  0.2976 -0.5757  0.3191
  485MOL0     C63934   8.782   9.705  10.606 -0.7620 -0.9777 -0.2051
  485MOL0     O63935   8.533   9.470  10.365 -0.5725  0.4425 -0.3930
  485MOL0     C63936   8.567   9.528  10.083 -0.3859  0.6067 -0.6443
  485MOL0     C63937   8.571   9.577   9.958 -0.6677  0.2252  0.7861
  485MOL0     N63938   8.206   9.539   9.692  0.9646 -0.5619 -0.4130
  485MOL0     N63939   8.150   9.453   9.775 -0.8195 -0.2799  0.0522
  485MOL0     C63940   8.463   9.260  10.908  0.3110 -0.0044  0.5552
  485MOL0     C63941   8.414   9.310  11.024 -0.4204 -0.5102 -0.6405
  485MOL0     C63942   8.078   9.512  11.257  0.1223  0.2284 -0.3021
  485MOL0     C63943   8.074   9.440  11.380  0.3723 -0.0654  0.1637
  485MOL0     C63944   8.015   9.488  11.491 -0.3708 -0.0635  0.1321
  485MOL0     C63945   7.944   9.608  11.481 -0.8839  0.2147 -0.0437
  485MOL0     O63946   7.883   9.645  11.600 -0.4583  0.1390 -0.3927
  485MOL0     C63947   7.958   9.748  11.658 -0.1002  0.0463 -0.4036
  485MOL0     C63948   7.866   9.814  11.756  0.5013  1.6837  0.1576
  485MOL0     C63949   7.930   9.906  11.857  0.4488  0.0125 -0.1514
  485MOL0     C63950   7.966  10.050  11.797 -0.0122  0.9523 -0.6178
  485MOL0     C63951   7.842  10.123  11.787  0.5532 -0.3825 -0.8927
  485MOL0     C63952   7.748  10.195  11.760 -0.8681  0.3300 -0.5774
  485MOL0     C63953   7.941   9.673  11.363  0.1741  0.5547  0.7586
  485MOL0     C63954   8.004   9.630  11.252  0.2631  0.9218  0.3688
  485MOL0     H63955   8.099   9.150  11.036  1.3896 -1.7506  1.4017
  485MOL0     H63956   8.202   9.043  10.846 -1.9218 -0.9287  1.9990
  485MOL0     H63957   8.485   9.152  10.537 -1.2175 -3.4524  0.2405
  485MOL0     H63958   8.431   9.296  10.619 -1.3627  0.9330 -3.8899
  485MOL0     H63959   8.202   9.178  10.640  1.2471  0.0553  0.7093
  485MOL0     H63960   8.262   9.062  10.529 -1.5040  0.0437  0.7629
  485MOL0     H63961   8.298   9.242  10.358  2.3220  3.8830  1.8916
  485MOL0     H63962   8.243   9.370  10.473  0.1569 -1.3506  4.5013
  485MOL0     H63963   8.087   9.131  10.390 -3.7219  0.4126 -0.2539
  485MOL0     H63964   8.028   9.264  10.488 -0.9476  2.2373  0.0343
  485MOL0     H63965   7.936   9.249  10.251 -0.7864  2.7041 -2.3344
  485MOL0     H63966   8.101   9.262  10.190  2.5951  1.4142  1.5200
  485MOL0     H63967   8.079   9.487  10.348  2.1049 -3.0345 -0.6597
  485MOL0     H63968   7.916   9.478  10.258 -0.0010  0.8216 -3.9311
  485MOL0     H63969   8.084   9.612  10.151  1.5828  0.1452  3.2630
  485MOL0     H63970   8.205   9.488  10.152 -0.6798 -1.2595  1.0341
  485MOL0     H63971   7.942   9.483  10.002 -0.0509  2.5295  0.1764
  485MOL0     H63972   8.062   9.355   9.996  1.5272  0.3698  1.3660
  485MOL0     H63973   8.118   9.733   9.944  0.6434 -1.9080  3.1092
  485MOL0     H63974   8.124   9.836   9.636 -2.1806 -2.6357 -0.0028
  485MOL0     H63975   8.258   9.760   9.574 -3.2356 -1.9879 -0.4887
  485MOL0     H63976   8.253   9.956   9.803  3.3106  3.3564 -0.1495
  485MOL0     H63977   8.338   9.967   9.659  0.4976  2.7016  2.4854
  485MOL0     H63978   8.499   9.945   9.839 -1.5984  1.1913 -2.2000
  485MOL0     H63979   8.403   9.817   9.909 -3.0308  2.2245 -0.0636
  485MOL0     H63980   8.526   9.808   9.629 -0.1121 -0.7961  0.2901
  485MOL0     H63981   8.477   9.660   9.717  2.1373 -0.8038  0.9196
  485MOL0     H63982   8.747   9.853   9.989  2.7276 -1.0238  2.4056
  485MOL0     H63983   8.764   9.770  10.212  2.6863 -0.6755 -1.5562
  485MOL0     H63984   8.496   9.524  10.596  0.7031 -0.6071 -1.6675
  485MOL0     H63985   8.525   9.545  10.836  2.6245 -3.2397  0.2844
  485MOL0     H63986   8.484   9.713  11.010  0.0920  0.3568 -0.4739
  485MOL0     H63987   8.584   9.856  10.980  1.7972  0.9255  1.3219
  485MOL0     H63988   8.528   9.812  11.216  1.3852  2.2581  0.2267
  485MOL0     H63989   8.710   9.800  11.176  0.6449 -2.5849 -0.6351
  485MOL0     H63990   8.531   9.552  11.193  0.2179 -1.0703  0.2259
  485MOL0     H63991   8.593   9.608  11.349 -0.1084 -3.1529 -0.0898
  485MOL0     H63992   8.799   9.558  11.135  0.1039  0.3909  0.7278
  485MOL0     H63993   8.821   9.592  11.303  1.6459 -3.2387  2.1061
  485MOL0     H63994   8.851   9.356  11.265 -0.9851 -2.4164  0.1136
  485MOL0     H63995   8.693   9.335  11.192 -1.5501  0.0182  1.2396
  485MOL0     H63996   8.718   9.439  11.469  0.5668  0.1143 -0.4528
  485MOL0     H63997   8.742   9.278  11.446 -2.2244  1.9648  4.4814
  485MOL0     H63998   8.476   9.399  11.346 -1.0370 -1.7486 -2.8693
  485MOL0     H63999   8.517   9.230  11.331 -3.1916  1.3912 -0.6491
  485MOL0     H64000   8.527   9.372  11.606 -0.0319  1.7063 -1.0371
  485MOL0     H64001   8.536   9.202  11.586 -3.4127 -2.6530  1.0949
  485MOL0     H64002   8.850   9.819  10.773 -0.2119  0.4993 -1.2875
  485MOL0     H64003   8.851   9.761  10.542  0.2315 -2.0368 -0.1010
  485MOL0     H64004   8.526   9.434  10.117 -1.4662  0.7521 -1.4886
  485MOL0     H64005   8.518   9.526   9.879 -0.1756  1.6074 -0.4755
  485MOL0     H64006   8.554   9.296  10.863 -0.0108  2.1190  1.4734
  485MOL0     H64007   8.462   9.382  11.089 -2.3611 -2.2292  3.0092
  485MOL0     H64008   8.131   9.349  11.393 -1.0626 -1.0966 -0.5913
  485MOL0     H64009   8.009   9.437  11.587  0.3507  2.3947  1.5796
  485MOL0     H64010   8.002   9.819  11.588 -0.2339  1.3627  0.8020
  485MOL0     H64011   8.045   9.704  11.707 -1.6208 -2.8301 -0.0519
  485MOL0     H64012   7.787   9.864  11.700  1.2938  1.7369 -0.9530
  485MOL0     H64013   7.818   9.733  11.811  1.3171  0.0046 -1.5083
  485MOL0     H64014   8.020   9.869  11.906 -0.7113 -0.6684  1.5549
  485MOL0     H64015   7.852   9.916  11.933  1.4159  1.1119  0.7515
  485MOL0     H64016   8.033  10.100  11.867 -1.5665 -1.1809  2.6494
  485MOL0     H64017   8.023  10.020  11.709  2.3892  2.3151  0.3629
  485MOL0     H64018   7.663  10.256  11.738  0.2927  1.6820 -1.5253
  485MOL0     H64019   7.877   9.758  11.342  2.1935  1.7309 -1.0409
  485MOL0     H64020   7.981   9.676  11.156 -0.5727  4.0870  1.9550
  486MOL0     O64021   7.863   6.388   2.551 -0.6899 -0.5872 -0.3250
  486MOL0     C64022   7.778   6.452   2.615 -0.1933 -0.6636 -0.1236
  486MOL0     O64023   7.659   6.492   2.573  0.3554 -1.1440 -0.4707
  486MOL0     C64024   7.630   6.472   2.439  0.0742 -0.4245 -0.0207
  486MOL0     C64025   7.714   6.508   2.336  0.3556  0.5903  0.0934
  486MOL0     C64026   7.675   6.495   2.208 -0.4630 -0.2300 -0.3130
  486MOL0     C64027   7.542   6.452   2.174  0.1554 -1.2156 -0.4063
  486MOL0     O64028   7.487   6.449   2.046  0.0167 -0.2098 -0.1598
  486MOL0     C64029   7.564   6.467   1.927 -0.4216  0.0591  0.0729
  486MOL0     C64030   7.506   6.379   1.821 -0.2978 -0.8634  0.7417
  486MOL0     C64031   7.571   6.404   1.680  0.4133  0.2895  0.7069
  486MOL0     C64032   7.492   6.331   1.577  0.0576  0.1350  0.3286
  486MOL0     C64033   7.546   6.347   1.436 -0.6080  0.6748 -0.2826
  486MOL0     C64034   7.479   6.248   1.337 -0.0631  0.7602  0.5565
  486MOL0     C64035   7.552   6.237   1.200  1.2683 -1.2010 -0.8326
  486MOL0     C64036   7.503   6.119   1.108 -0.2535 -0.7208 -0.4194
  486MOL0     N64037   7.362   6.157   1.072 -0.0694 -0.7074  0.5904
  486MOL0     C64038   7.325   6.177   0.943  0.4977  1.2294  0.8104
  486MOL0     C64039   7.190   6.196   0.955  0.3578 -0.6188 -0.0302
  486MOL0     C64040   7.108   6.202   0.833  0.4446  0.6971 -0.5323
  486MOL0     C64041   6.969   6.152   0.881 -0.5931 -0.4757 -0.3896
  486MOL0     C64042   6.989   6.003   0.911 -0.6280  1.1891 -0.0584
  486MOL0     C64043   6.866   5.933   0.943  0.6390 -0.0396 -0.2001
  486MOL0     O64044   6.768   5.956   0.837  0.4181 -0.0854 -0.2734
  486MOL0     C64045   6.637   5.933   0.854 -0.4941 -0.7146 -0.1891
  486MOL0     C64046   6.563   6.044   0.887  0.1429  0.1078 -0.1659
  486MOL0     C64047   6.422   6.034   0.903  0.3057 -0.3533  1.3428
  486MOL0     C64048   6.359   5.910   0.886  1.0432 -0.0629  0.3252
  486MOL0     C64049   6.211   5.892   0.923 -0.1039 -0.2801  0.8904
  486MOL0     O64050   6.131   6.004   0.959  0.4992  1.1055  0.3560
  486MOL0     C64051   5.997   5.976   0.980  0.3333 -0.3374  0.8344
  486MOL0     C64052   5.942   5.937   1.095 -0.1528  0.0584  0.7034
  486MOL0     C64053   5.811   5.901   1.110 -0.2611  0.5651  0.4747
  486MOL0     C64054   5.733   5.896   0.995 -0.7780  0.4740 -0.0894
  486MOL0     O64055   5.603   5.870   1.006 -0.3924 -0.0113 -0.7480
  486MOL0     C64056   5.534   5.991   1.043 -0.2471 -0.4985  0.5771
  486MOL0     C64057   5.378   5.964   1.021 -0.7505 -0.2679 -0.4994
  486MOL0     C64058   5.328   5.950   0.870 -0.1707 -0.8583 -0.4866
  486MOL0     C64059   5.176   5.964   0.870  0.2674  0.7511 -0.8060
  486MOL0     C64060   5.105   5.966   0.739  0.4332  0.2806  0.5357
  486MOL0     C64061   5.008   5.849   0.721 -1.1389  0.3704  0.4061
  486MOL0     C64062   4.902   5.839   0.830 -0.1172 -0.4386 -0.0006
  486MOL0     C64063   4.800   5.718   0.822  0.9635 -0.1474 -0.6328
  486MOL0    Cl64064   4.880   5.549   0.816 -0.0286 -0.0021 -0.2333
  486MOL0     C64065   5.788   5.940   0.872  0.2805 -0.1964 -0.5359
  486MOL0     C64066   5.918   6.001   0.868 -0.0709  0.6331 -0.4094
  486MOL0     O64067   6.165   5.774   0.914  0.4938  0.1137  0.0051
  486MOL0     C64068   6.443   5.798   0.861 -0.1555 -0.0245  0.2342
  486MOL0     C64069   6.582   5.810   0.837 -1.2585  0.2165  0.3025
  486MOL0     N64070   7.150   6.207   1.088  0.2185  0.2100 -0.1856
  486MOL0     N64071   7.251   6.164   1.152  0.2871 -0.5499 -0.1708
  486MOL0     C64072   7.450   6.435   2.273 -0.1062 -0.1172  0.3760
  486MOL0     C64073   7.498   6.442   2.409  0.5776 -0.2379  0.0543
  486MOL0     C64074   7.807   6.489   2.759 -0.8864  0.2129  0.1536
  486MOL0     C64075   7.940   6.500   2.812  0.0960  0.1107 -0.0774
  486MOL0     C64076   7.956   6.531   2.943 -0.2314 -0.3528 -0.1172
  486MOL0     C64077   7.853   6.542   3.032  0.0123  0.1454  0.5351
  486MOL0     O64078   7.866   6.568   3.161 -0.3228 -0.1981  0.2354
  486MOL0     C64079   7.991   6.610   3.225  0.4075 -0.8081  0.2885
  486MOL0     C64080   7.947   6.659   3.366 -0.8046  0.2077  0.7200
  486MOL0     C64081   7.899   6.805   3.373 -0.1360  0.8965 -0.4693
  486MOL0     C64082   7.880   6.848   3.518 -0.6668  0.3116 -0.5160
  486MOL0     C64083   7.844   6.989   3.516  0.0303 -0.3107  0.3660
  486MOL0     C64084   7.798   7.096   3.507 -0.1184 -1.1441 -0.4011
  486MOL0     C64085   7.722   6.539   2.986 -0.0009 -0.6209  0.5951
  486MOL0     C64086   7.699   6.506   2.854 -0.1669 -0.2006  0.1582
  486MOL0     H64087   7.806   6.556   2.366  0.5608 -0.6519  1.5834
  486MOL0     H64088   7.747   6.517   2.129 -0.1770 -1.2543 -0.3535
  486MOL0     H64089   7.670   6.458   1.950  0.0011 -1.8156 -2.1927
  486MOL0     H64090   7.558   6.574   1.904 -1.3759 -0.8754 -5.4031
  486MOL0     H64091   7.400   6.398   1.804 -0.3569 -0.2689  1.7238
  486MOL0     H64092   7.513   6.276   1.854  0.3351 -0.4955  1.8037
  486MOL0     H64093   7.676   6.374   1.670  0.9566  2.3741 -0.6903
  486MOL0     H64094   7.560   6.511   1.660  0.5333  0.3747  1.1058
  486MOL0     H64095   7.496   6.225   1.607  1.8894  0.2729  0.6824
  486MOL0     H64096   7.388   6.363   1.585 -0.0676 -0.3687  0.8567
  486MOL0     H64097   7.652   6.323   1.445 -0.7414 -0.2385 -1.0109
  486MOL0     H64098   7.530   6.449   1.399 -0.4741  1.2041  1.0592
  486MOL0     H64099   7.374   6.279   1.328 -0.2605 -0.0408 -0.0520
  486MOL0     H64100   7.484   6.150   1.387  0.1313 -2.8871 -5.5915
  486MOL0     H64101   7.557   6.334   1.150  0.9348  0.9972  2.9927
  486MOL0     H64102   7.660   6.220   1.211  1.1948 -0.3822  2.0408
  486MOL0     H64103   7.523   6.024   1.157  1.4442 -0.0579  0.2774
  486MOL0     H64104   7.574   6.120   1.024  0.4410  0.0593  0.1581
  486MOL0     H64105   7.390   6.167   0.857 -1.6144 -1.6634 -0.6160
  486MOL0     H64106   7.157   6.132   0.765  0.0060  1.7517 -1.9698
  486MOL0     H64107   7.098   6.295   0.777  0.2160 -1.4729 -4.4255
  486MOL0     H64108   6.899   6.163   0.798 -2.7839 -1.3838  1.2233
  486MOL0     H64109   6.931   6.209   0.967  3.2662 -0.5351  1.5608
  486MOL0     H64110   7.033   5.943   0.831 -3.5520 -0.7756 -0.3783
  486MOL0     H64111   7.044   5.993   1.005 -0.3260  1.8914 -0.1588
  486MOL0     H64112   6.825   5.970   1.037 -0.4543  2.0198 -1.4268
  486MOL0     H64113   6.894   5.830   0.970 -2.4246 -0.0591  3.8773
  486MOL0     H64114   6.601   6.146   0.890 -0.5624  0.3600  0.3622
  486MOL0     H64115   6.369   6.128   0.918  0.3078 -0.0844 -0.1852
  486MOL0     H64116   6.002   5.947   1.185  1.3844 -0.2840 -0.2472
  486MOL0     H64117   5.764   5.900   1.208 -4.1595 -1.2297 -1.2273
  486MOL0     H64118   5.565   6.073   0.978 -4.1074  0.1881 -0.6224
  486MOL0     H64119   5.553   6.022   1.147  1.5951  1.2690 -0.1944
  486MOL0     H64120   5.334   6.057   1.059 -1.7014 -1.0959  0.4820
  486MOL0     H64121   5.352   5.879   1.084  1.0873  0.4608  1.3655
  486MOL0     H64122   5.359   5.860   0.817 -1.8262 -2.3104  0.9057
  486MOL0     H64123   5.360   6.034   0.807  1.4751 -2.0299 -1.2769
  486MOL0     H64124   5.156   5.881   0.939  2.7648 -1.0571 -2.0871
  486MOL0     H64125   5.161   6.060   0.921  1.6180 -0.7861  2.8761
  486MOL0     H64126   5.178   5.962   0.658 -0.4068  3.7080 -0.5283
  486MOL0     H64127   5.051   6.058   0.715  1.9435  0.6416 -1.7709
  486MOL0     H64128   5.063   5.755   0.720  0.3950  1.2064  1.7711
  486MOL0     H64129   4.959   5.867   0.624  1.1213  0.6722 -0.7579
  486MOL0     H64130   4.965   5.817   0.916  1.5955  1.5110 -0.6938
  486MOL0     H64131   4.837   5.925   0.847 -0.0157 -0.1327 -1.0533
  486MOL0     H64132   4.739   5.728   0.732 -1.4834  0.9705  1.0298
  486MOL0     H64133   4.723   5.714   0.900 -0.6518 -2.3079 -2.2106
  486MOL0     H64134   5.726   5.923   0.785  1.2227 -1.3094 -1.0036
  486MOL0     H64135   5.952   6.048   0.776 -1.4188  0.2235 -1.1424
  486MOL0     H64136   6.398   5.702   0.839  2.4486 -0.8485 -2.0484
  486MOL0     H64137   6.640   5.723   0.805  1.2988  1.3477  1.5168
  486MOL0     H64138   7.353   6.425   2.227  1.4952 -0.6153 -3.2140
  486MOL0     H64139   7.430   6.444   2.494  0.6467  0.1744  0.1024
  486MOL0     H64140   8.023   6.512   2.742  0.0863  3.5770  0.3093
  486MOL0     H64141   8.053   6.565   2.978 -0.0100 -1.5156  0.4443
  486MOL0     H64142   8.035   6.690   3.164 -0.2410  1.4243  2.5444
  486MOL0     H64143   8.071   6.537   3.231 -0.2123 -1.5055  0.1526
  486MOL0     H64144   7.867   6.592   3.397 -0.1988 -0.3399  1.1288
  486MOL0     H64145   8.030   6.645   3.436  0.4995  0.0785 -0.8054
  486MOL0     H64146   7.806   6.799   3.316 -2.0067 -0.9745  2.4792
  486MOL0     H64147   7.975   6.871   3.330  3.7687 -1.4548  2.2176
  486MOL0     H64148   7.808   6.783   3.568  1.5987 -2.6980 -0.8165
  486MOL0     H64149   7.979   6.845   3.566  0.7517  2.4004 -3.0615
  486MOL0     H64150   7.743   7.188   3.507 -0.2648 -1.2260 -0.9487
  486MOL0     H64151   7.636   6.557   3.049 -0.4276  5.7812 -1.0436
  486MOL0     H64152   7.595   6.490   2.828 -2.0576  2.2667  5.0536
  487MOL0     O64153   1.546  10.009   1.659 -0.6068 -0.2336  0.0782
  487MOL0     C64154   1.498  10.062   1.763  0.1417 -0.2703 -0.1774
  487MOL0     O64155   1.484  10.198   1.783 -0.6180  0.1736  0.6311
  487MOL0     C64156   1.543  10.293   1.698  0.1160  0.0983  0.7339
  487MOL0     C64157   1.456  10.407   1.692 -0.1097  1.0084 -0.2989
  487MOL0     C64158   1.490  10.506   1.598 -0.3625  0.0302 -0.4396
  487MOL0     C64159   1.606  10.505   1.519  0.0888 -0.6161 -0.6538
  487MOL0     O64160   1.630  10.616   1.442 -0.4421 -0.4603  0.4604
  487MOL0     C64161   1.760  10.619   1.380  0.0327 -1.4009 -0.2338
  487MOL0     C64162   1.782  10.758   1.302  0.0795  1.0574 -0.7682
  487MOL0     C64163   1.747  10.885   1.374 -0.8411  1.1407  0.4548
  487MOL0     C64164   1.759  11.013   1.297  0.1944 -0.9840  0.2295
  487MOL0     C64165   1.708  11.138   1.378 -0.3690 -0.0119  0.0907
  487MOL0     C64166   1.762  11.273   1.310 -0.3661  0.2070  0.0058
  487MOL0     C64167   1.690  11.392   1.366 -1.2174 -0.2031 -1.1488
  487MOL0     C64168   1.539  11.426   1.327  0.5354  0.2308 -1.0363
  487MOL0     N64169   1.515  11.570   1.375 -1.4538 -0.0464  0.0247
  487MOL0     C64170   1.555  11.686   1.306  0.1728  0.3971  0.2336
  487MOL0     C64171   1.524  11.790   1.389  0.0167 -1.0283  0.8783
  487MOL0     C64172   1.556  11.938   1.366  0.2212  0.3655  0.2007
  487MOL0     C64173   1.509  12.040   1.468 -0.4609 -0.2026  0.7772
  487MOL0     C64174   1.354  12.069   1.444 -0.4584  0.5757 -0.4491
  487MOL0     C64175   1.295  12.192   1.513 -0.0935 -0.0433 -0.8825
  487MOL0     O64176   1.155  12.169   1.515  0.8249  0.0002  0.4582
  487MOL0     C64177   1.080  12.257   1.444 -0.0787  0.1340 -0.4103
  487MOL0     C64178   1.086  12.391   1.472 -0.9410  0.3344 -0.2963
  487MOL0     C64179   1.014  12.489   1.399  0.4345  0.1110  0.5627
  487MOL0     C64180   0.942  12.440   1.288  0.3031 -0.6576  1.0255
  487MOL0     C64181   0.870  12.543   1.204  0.5581 -0.0491 -0.0890
  487MOL0     O64182   0.912  12.672   1.214  0.8396  0.3824  0.1674
  487MOL0     C64183   0.830  12.765   1.149 -0.1519  0.2597 -0.0646
  487MOL0     C64184   0.693  12.769   1.173 -0.0814  1.3850  0.4564
  487MOL0     C64185   0.619  12.877   1.120  0.0504 -0.0739  0.5099
  487MOL0     C64186   0.681  12.970   1.028 -0.5830  0.4120 -0.6792
  487MOL0     O64187   0.616  13.075   0.968 -0.4473  0.7854  0.0751
  487MOL0     C64188   0.590  13.065   0.829 -0.8488 -0.2203  0.1405
  487MOL0     C64189   0.557  13.207   0.785 -0.1652 -0.5028 -0.0761
  487MOL0     C64190   0.488  13.214   0.643 -0.2487  0.1919 -0.5230
  487MOL0     C64191   0.433  13.356   0.636 -0.0655  0.9444  1.1000
  487MOL0     C64192   0.404  13.415   0.497  0.4255  0.1279 -0.7026
  487MOL0     C64193   0.514  13.406   0.398 -0.2958 -0.1640 -0.3558
  487MOL0     C64194   0.630  13.482   0.447 -1.1695  0.4028  1.1069
  487MOL0     C64195   0.727  13.531   0.329  0.5911  0.2375 -0.3598
  487MOL0    Cl64196   0.746  13.424   0.194 -0.6993  0.3567 -0.2131
  487MOL0     C64197   0.808  12.945   0.996 -0.6466 -0.1517 -0.5310
  487MOL0     C64198   0.891  12.856   1.058  0.1976  0.6608  0.6401
  487MOL0     O64199   0.793  12.495   1.124  0.2674 -0.1771  0.0395
  487MOL0     C64200   0.938  12.307   1.256 -0.6519 -0.3613 -0.2985
  487MOL0     C64201   1.008  12.211   1.331  0.3515  0.3356 -0.3802
  487MOL0     N64202   1.469  11.741   1.500 -0.0025 -0.1385 -0.1861
  487MOL0     N64203   1.463  11.609   1.494 -0.7939 -0.5276  0.1728
  487MOL0     C64204   1.698  10.393   1.541 -0.1001  0.5039  0.0997
  487MOL0     C64205   1.664  10.290   1.626  0.0621  1.0043 -1.0005
  487MOL0     C64206   1.445   9.975   1.872 -0.2593  0.8773 -1.3692
  487MOL0     C64207   1.432   9.829   1.853  0.5620  0.1403  0.4790
  487MOL0     C64208   1.391   9.736   1.961 -0.1435 -0.3227 -0.2318
  487MOL0     C64209   1.372   9.782   2.093  0.6557 -0.2304  0.4282
  487MOL0     O64210   1.338   9.691   2.191  0.0326  0.0865 -0.0034
  487MOL0     C64211   1.227   9.732   2.264  0.4516 -0.0724  0.0094
  487MOL0     C64212   1.109   9.646   2.229 -0.4377 -0.1866  0.7960
  487MOL0     C64213   0.986   9.695   2.296  1.7121  0.2781  1.0457
  487MOL0     C64214   0.842   9.638   2.250 -0.3556 -0.0785  0.1440
  487MOL0     C64215   0.856   9.495   2.246  0.0918 -0.2226  0.1824
  487MOL0     C64216   0.858   9.374   2.261 -0.3100 -0.3900  0.9793
  487MOL0     C64217   1.397   9.916   2.118 -0.1880 -0.6547  0.0865
  487MOL0     C64218   1.428  10.008   2.009 -0.3326 -0.4408 -0.0396
  487MOL0     H64219   1.375  10.415   1.763  0.9917 -1.3015  1.3791
  487MOL0     H64220   1.424  10.592   1.604  0.8175  0.8570  2.4484
  487MOL0     H64221   1.760  10.545   1.300  1.8202 -0.1662 -1.4451
  487MOL0     H64222   1.833  10.619   1.461 -1.5990  3.0072  1.6042
  487MOL0     H64223   1.718  10.748   1.214  1.5693 -1.0854 -1.6936
  487MOL0     H64224   1.885  10.764   1.265  0.6130 -0.5144  0.3376
  487MOL0     H64225   1.808  10.891   1.464 -1.3949  0.5360  0.8857
  487MOL0     H64226   1.641  10.875   1.403 -1.1773 -0.9879 -1.2530
  487MOL0     H64227   1.862  11.028   1.265 -0.9626  1.3123 -3.0075
  487MOL0     H64228   1.701  11.001   1.204  0.2727 -2.0217  0.3072
  487MOL0     H64229   1.740  11.131   1.482 -1.3796  0.1850  0.4286
  487MOL0     H64230   1.599  11.124   1.376 -0.6246  1.7013 -0.4920
  487MOL0     H64231   1.737  11.264   1.204 -2.0599 -0.7488  0.4391
  487MOL0     H64232   1.871  11.286   1.313  0.0236 -2.1069 -1.5010
  487MOL0     H64233   1.687  11.390   1.476  0.5432  2.3495 -0.9599
  487MOL0     H64234   1.742  11.481   1.329 -3.5023  2.1940  0.9841
  487MOL0     H64235   1.457  11.369   1.373  1.3695 -0.4007 -0.2885
  487MOL0     H64236   1.534  11.427   1.218  0.3753 -1.9999 -1.0930
  487MOL0     H64237   1.591  11.687   1.204  3.1350  1.5752  1.1796
  487MOL0     H64238   1.533  11.972   1.265 -1.6369  2.3946  1.2374
  487MOL0     H64239   1.665  11.930   1.378  0.2610 -0.4384 -0.6115
  487MOL0     H64240   1.552  12.138   1.443 -0.9724  0.0993  1.0604
  487MOL0     H64241   1.534  12.008   1.569 -1.7359 -0.9651  0.8757
  487MOL0     H64242   1.330  12.068   1.338 -1.2737 -2.5863 -0.3467
  487MOL0     H64243   1.302  11.977   1.474  4.1308 -1.4472  2.4103
  487MOL0     H64244   1.323  12.281   1.456 -0.2480 -1.4607 -3.2991
  487MOL0     H64245   1.330  12.187   1.617 -0.2723 -0.6058 -0.8452
  487MOL0     H64246   1.129  12.419   1.568  0.4133 -0.3179 -0.6913
  487MOL0     H64247   1.027  12.591   1.434  2.8702 -0.2406  0.8576
  487MOL0     H64248   0.652  12.698   1.245 -0.0690  0.9278  0.0209
  487MOL0     H64249   0.515  12.893   1.149  0.1444  2.3654 -0.2372
  487MOL0     H64250   0.504  12.998   0.823  0.4734 -2.1546  1.5271
  487MOL0     H64251   0.674  13.021   0.774  0.4962  0.8840  1.2658
  487MOL0     H64252   0.645  13.273   0.783 -3.4527  4.3646 -1.0508
  487MOL0     H64253   0.486  13.240   0.861 -1.1282  0.0074 -1.1681
  487MOL0     H64254   0.414  13.135   0.630 -0.4428 -0.2527  2.5622
  487MOL0     H64255   0.571  13.201   0.573  0.5192  2.4252 -0.0928
  487MOL0     H64256   0.355  13.364   0.712 -1.3194 -1.5970  0.1903
  487MOL0     H64257   0.515  13.415   0.678  2.7746 -0.9370 -1.3430
  487MOL0     H64258   0.359  13.514   0.501 -1.3824 -0.6904  1.0348
  487MOL0     H64259   0.312  13.367   0.463 -0.7082  0.4131  1.7472
  487MOL0     H64260   0.486  13.439   0.298 -1.6216 -5.0786 -1.8662
  487MOL0     H64261   0.538  13.303   0.370  1.3346  0.0396  0.1434
  487MOL0     H64262   0.591  13.564   0.509 -2.7518 -0.5571  1.4192
  487MOL0     H64263   0.686  13.413   0.511 -0.7566  0.0140  0.3430
  487MOL0     H64264   0.825  13.546   0.375  2.5924 -3.9733 -2.6594
  487MOL0     H64265   0.692  13.624   0.283  1.0753 -1.8843 -5.6153
  487MOL0     H64266   0.848  13.015   0.923 -0.4142 -1.5983 -1.8428
  487MOL0     H64267   0.998  12.869   1.055  0.1132  2.1200  2.2109
  487MOL0     H64268   0.890  12.280   1.163  0.5162 -2.8665 -0.2438
  487MOL0     H64269   1.002  12.108   1.300 -0.8622  0.2937 -0.0591
  487MOL0     H64270   1.793  10.377   1.491  1.7271  2.2639  2.7134
  487MOL0     H64271   1.734  10.209   1.642 -0.3638  0.5676 -1.3375
  487MOL0     H64272   1.452   9.775   1.761  0.5688 -1.4803  1.3891
  487MOL0     H64273   1.390   9.629   1.949 -0.3757 -0.2530 -0.8895
  487MOL0     H64274   1.189   9.833   2.254 -0.3373 -0.1850  1.5167
  487MOL0     H64275   1.242   9.719   2.372 -1.9846  0.0799  0.4265
  487MOL0     H64276   1.112   9.636   2.120 -1.7131 -1.4038  0.8499
  487MOL0     H64277   1.120   9.542   2.259  0.3796 -0.7410 -1.2722
  487MOL0     H64278   0.977   9.804   2.294 -1.7963  0.1110  1.2961
  487MOL0     H64279   0.995   9.672   2.403  0.7774  0.0790  1.0855
  487MOL0     H64280   0.763   9.667   2.320 -0.0482 -0.9208  0.8568
  487MOL0     H64281   0.817   9.685   2.154  0.1888  1.9432  0.9350
  487MOL0     H64282   0.860   9.274   2.298 -1.4172 -0.1376  1.7821
  487MOL0     H64283   1.380   9.964   2.214  1.2684  1.1785 -0.4955
  487MOL0     H64284   1.443  10.113   2.029 -1.2164  0.0180 -1.6772
  488MOL0     O64285   0.366   5.803   6.666 -0.1329  0.2530 -1.0136
  488MOL0     C64286   0.372   5.895   6.752 -1.0401  0.8685 -0.4270
  488MOL0     O64287   0.359   5.881   6.880 -0.0107 -0.5759  0.7072
  488MOL0     C64288   0.344   5.770   6.945  0.0540 -0.2948  0.1835
  488MOL0     C64289   0.399   5.762   7.078 -0.6895 -0.4750  0.5533
  488MOL0     C64290   0.396   5.656   7.166  0.6271  0.4257  0.2312
  488MOL0     C64291   0.319   5.549   7.115 -0.6243 -0.6785 -0.0594
  488MOL0     O64292   0.300   5.430   7.176 -0.4095  0.1543 -0.6934
  488MOL0     C64293   0.343   5.415   7.316 -0.9113 -0.6096  0.7824
  488MOL0     C64294   0.300   5.280   7.378  0.0234 -0.4477  0.8451
  488MOL0     C64295   0.156   5.291   7.423  0.8335  0.2472  1.0660
  488MOL0     C64296   0.079   5.154   7.450 -0.2040 -0.0986 -0.8324
  488MOL0     C64297  -0.065   5.174   7.510  0.6566  0.4009  1.2839
  488MOL0     C64298  -0.137   5.046   7.546  0.2279  0.2108 -0.0957
  488MOL0     C64299  -0.288   5.063   7.576 -0.4193 -1.9898  0.3282
  488MOL0     C64300  -0.325   5.158   7.691  0.1830 -0.5276 -0.7404
  488MOL0     N64301  -0.471   5.182   7.701 -0.0605 -0.7924  0.3045
  488MOL0     C64302  -0.554   5.273   7.626  0.2917  1.5059 -0.8330
  488MOL0     C64303  -0.673   5.269   7.692 -0.3487 -0.0826 -0.2200
  488MOL0     C64304  -0.782   5.345   7.648  1.2776  0.0257 -0.0371
  488MOL0     C64305  -0.780   5.470   7.742 -0.1203  0.1366  1.0506
  488MOL0     C64306  -0.893   5.568   7.709 -0.2626 -1.1352 -0.1325
  488MOL0     C64307  -1.025   5.548   7.768 -0.6772  0.5831 -0.8473
  488MOL0     O64308  -1.039   5.574   7.906 -0.0693 -0.7266 -0.2441
  488MOL0     C64309  -1.008   5.698   7.955  0.1877  0.7024  0.8884
  488MOL0     C64310  -1.101   5.801   7.935  0.4649  0.4856  0.0565
  488MOL0     C64311  -1.067   5.929   7.959 -0.0041  0.0081 -0.5382
  488MOL0     C64312  -0.942   5.963   8.014  0.0772  0.6237  0.3555
  488MOL0     C64313  -0.896   6.102   8.044 -0.3775 -0.3336 -0.0079
  488MOL0     O64314  -0.759   6.123   8.061  0.2703 -0.1127 -0.0367
  488MOL0     C64315  -0.701   6.221   8.139  0.1487 -0.2017  0.7544
  488MOL0     C64316  -0.785   6.285   8.242 -0.2056  0.1598 -0.0539
  488MOL0     C64317  -0.721   6.372   8.343 -0.1242 -0.2376  0.7363
  488MOL0     C64318  -0.589   6.402   8.324 -1.1347  0.2368  0.1554
  488MOL0     O64319  -0.543   6.508   8.403 -0.0222  0.6027  0.0209
  488MOL0     C64320  -0.583   6.626   8.342  0.6301  0.0043 -0.3254
  488MOL0     C64321  -0.483   6.720   8.384 -0.5910 -0.6453  0.3079
  488MOL0     C64322  -0.356   6.703   8.308 -0.4896 -0.6200  0.1176
  488MOL0     C64323  -0.236   6.780   8.371 -0.0122  0.0046 -0.1081
  488MOL0     C64324  -0.119   6.781   8.272 -0.3764 -0.7044  0.0703
  488MOL0     C64325  -0.056   6.649   8.232 -0.5565 -0.4665 -0.1068
  488MOL0     C64326   0.089   6.685   8.179 -0.4055 -0.5882 -0.2533
  488MOL0     C64327   0.142   6.570   8.097  0.4257 -0.2512  0.0348
  488MOL0    Cl64328   0.083   6.610   7.936 -0.4501  0.2751 -0.3103
  488MOL0     C64329  -0.505   6.335   8.231  0.2517 -0.5351 -0.2885
  488MOL0     C64330  -0.560   6.248   8.143  0.2689  0.1555  0.7007
  488MOL0     O64331  -0.985   6.189   8.053 -0.3539  0.2868  0.1009
  488MOL0     C64332  -0.858   5.854   8.041  0.0525 -0.3943 -0.8868
  488MOL0     C64333  -0.885   5.724   8.010 -0.1111  0.6755  0.9370
  488MOL0     N64334  -0.675   5.177   7.797 -0.7452 -0.7866  0.6622
  488MOL0     N64335  -0.553   5.134   7.794  0.6828  0.8458 -1.0935
  488MOL0     C64336   0.250   5.556   6.989 -1.3404 -0.2018 -0.1277
  488MOL0     C64337   0.269   5.662   6.905 -0.7769  1.0956 -0.9717
  488MOL0     C64338   0.427   6.017   6.694  0.8284 -0.2229 -0.2745
  488MOL0     C64339   0.503   6.017   6.578  1.1019 -0.3123  0.3385
  488MOL0     C64340   0.541   6.135   6.528 -0.9563  0.8592 -0.6166
  488MOL0     C64341   0.521   6.258   6.590  0.3128  0.0283 -0.1656
  488MOL0     O64342   0.599   6.365   6.549  0.6875 -0.7189 -0.1040
  488MOL0     C64343   0.653   6.463   6.649  0.8996  0.0018 -0.8674
  488MOL0     C64344   0.561   6.593   6.653 -0.6175 -0.0980  0.0230
  488MOL0     C64345   0.617   6.711   6.736 -0.2837  0.0922 -0.1657
  488MOL0     C64346   0.576   6.712   6.890  0.2269  0.1028  1.1062
  488MOL0     C64347   0.662   6.810   6.953 -0.0585 -0.4618  0.4427
  488MOL0     C64348   0.753   6.880   6.991 -0.0810  0.0545 -0.2501
  488MOL0     C64349   0.445   6.265   6.708 -0.3341  0.3581  0.3372
  488MOL0     C64350   0.394   6.141   6.752  0.9646 -0.6745  0.5685
  488MOL0     H64351   0.468   5.836   7.117  0.4612 -0.9118 -0.5596
  488MOL0     H64352   0.440   5.651   7.265 -2.1701 -0.8612  1.5432
  488MOL0     H64353   0.317   5.501   7.379 -1.1894 -1.3193  1.6579
  488MOL0     H64354   0.451   5.414   7.295 -0.5842 -0.5553  2.3012
  488MOL0     H64355   0.366   5.246   7.458  0.9031  1.4486  0.9861
  488MOL0     H64356   0.308   5.217   7.289  0.9513 -0.4906  0.9422
  488MOL0     H64357   0.098   5.347   7.350 -3.5691 -4.7338  0.1255
  488MOL0     H64358   0.155   5.349   7.516 -0.5983  1.1560  0.5079
  488MOL0     H64359   0.078   5.097   7.356  1.1516  0.6252 -1.3069
  488MOL0     H64360   0.148   5.108   7.522  0.7176  2.3337 -0.0480
  488MOL0     H64361  -0.118   5.243   7.444  1.8159 -0.6714 -0.9029
  488MOL0     H64362  -0.065   5.237   7.599 -2.9593  0.5387  1.3451
  488MOL0     H64363  -0.105   4.995   7.638 -1.0039 -0.5174 -0.0477
  488MOL0     H64364  -0.128   4.975   7.463  1.2504 -0.2208  0.3595
  488MOL0     H64365  -0.331   5.110   7.487  1.8928 -1.2161 -0.4509
  488MOL0     H64366  -0.350   4.975   7.595 -1.7376 -0.8717  1.5359
  488MOL0     H64367  -0.274   5.251   7.660  1.0554 -0.7205  0.0798
  488MOL0     H64368  -0.283   5.116   7.782 -0.6353 -0.4853 -0.3397
  488MOL0     H64369  -0.525   5.334   7.542  1.9958 -0.1653 -1.5628
  488MOL0     H64370  -0.870   5.284   7.666 -1.5093  3.5144 -0.7739
  488MOL0     H64371  -0.789   5.379   7.544 -2.7813  0.1756  0.1252
  488MOL0     H64372  -0.683   5.519   7.724 -1.5117  2.0898 -1.9011
  488MOL0     H64373  -0.777   5.439   7.847  0.0964  1.5661  1.4988
  488MOL0     H64374  -0.863   5.668   7.743 -0.1196 -0.0810 -3.0970
  488MOL0     H64375  -0.916   5.565   7.602 -2.1609  1.5799  0.0795
  488MOL0     H64376  -1.044   5.441   7.756  0.3038  0.1078  1.3320
  488MOL0     H64377  -1.091   5.616   7.712  2.5790  4.1392 -0.7951
  488MOL0     H64378  -1.201   5.786   7.897  0.2178  3.0962 -0.5262
  488MOL0     H64379  -1.145   6.002   7.942 -0.9442 -1.1188 -1.2606
  488MOL0     H64380  -0.892   6.269   8.254 -0.0500 -0.4107  0.6081
  488MOL0     H64381  -0.783   6.435   8.405  1.1238  3.2549 -1.2866
  488MOL0     H64382  -0.675   6.664   8.388  1.4613  1.4639  0.1988
  488MOL0     H64383  -0.593   6.639   8.234 -1.1752  2.3951  0.0458
  488MOL0     H64384  -0.464   6.716   8.492 -0.5057  1.4482  0.4194
  488MOL0     H64385  -0.504   6.827   8.372  1.5312 -0.3756 -1.7978
  488MOL0     H64386  -0.361   6.739   8.205  3.5422  0.1554  0.0220
  488MOL0     H64387  -0.330   6.596   8.309 -0.9390 -0.8431 -2.9848
  488MOL0     H64388  -0.251   6.888   8.384  1.4742  0.0846  1.3626
  488MOL0     H64389  -0.214   6.738   8.469 -0.7447  0.8871  0.4578
  488MOL0     H64390  -0.032   6.831   8.315  0.1066  1.1466 -2.7557
  488MOL0     H64391  -0.136   6.843   8.183  0.8741  0.1668  0.4080
  488MOL0     H64392  -0.113   6.592   8.159 -0.0547  0.4099 -1.2129
  488MOL0     H64393  -0.043   6.591   8.324 -2.6810 -0.1066  0.4664
  488MOL0     H64394   0.096   6.779   8.123 -1.4888 -1.3659 -1.7676
  488MOL0     H64395   0.152   6.695   8.267  1.8029 -3.8092 -1.2896
  488MOL0     H64396   0.114   6.467   8.122 -0.2981  0.1284  0.8301
  488MOL0     H64397   0.251   6.566   8.098  0.4409 -0.8064 -1.6189
  488MOL0     H64398  -0.401   6.367   8.230  0.7913 -2.1442  0.1061
  488MOL0     H64399  -0.497   6.195   8.072 -1.8378 -3.2981  1.1745
  488MOL0     H64400  -0.758   5.870   8.080 -0.9173  1.4260  1.0977
  488MOL0     H64401  -0.806   5.650   8.019  1.4315  2.3282  1.5284
  488MOL0     H64402   0.194   5.467   6.964 -0.8496 -0.1470 -1.4740
  488MOL0     H64403   0.229   5.666   6.804 -1.0531  1.2775 -0.8540
  488MOL0     H64404   0.525   5.921   6.531  1.0196 -2.4591  4.3079
  488MOL0     H64405   0.614   6.139   6.447  2.0867  0.1046  1.9166
  488MOL0     H64406   0.752   6.491   6.612  1.6516 -0.2839  0.8343
  488MOL0     H64407   0.661   6.426   6.751 -2.4287 -3.1550 -1.5371
  488MOL0     H64408   0.551   6.631   6.551 -2.5791  0.6876  0.4560
  488MOL0     H64409   0.461   6.566   6.690 -0.2360 -1.1310  0.3529
  488MOL0     H64410   0.569   6.797   6.688 -4.2334 -2.1926 -0.7648
  488MOL0     H64411   0.726   6.711   6.730 -0.2026 -0.2656  1.1362
  488MOL0     H64412   0.470   6.740   6.890 -0.1172 -1.0327 -0.6372
  488MOL0     H64413   0.599   6.626   6.953  0.4661  0.2232  1.1860
  488MOL0     H64414   0.829   6.949   7.022  0.2100 -0.2529 -0.2778
  488MOL0     H64415   0.406   6.356   6.753 -0.8354 -0.2493  1.1628
  488MOL0     H64416   0.314   6.137   6.825 -1.5279  1.6973 -1.7897
  489MOL0     O64417   5.789  10.279   9.871 -0.1493 -0.7465 -1.1053
  489MOL0     C64418   5.672  10.306   9.855 -0.2465  0.0463  0.2552
  489MOL0     O64419   5.570  10.249   9.923  0.0860 -0.0814  0.9299
  489MOL0     C64420   5.597  10.163  10.028  1.0240 -0.2433 -0.6901
  489MOL0     C64421   5.531  10.041  10.018  0.3835  0.7113  0.6052
  489MOL0     C64422   5.524   9.948  10.121  0.1830 -1.2428 -0.5020
  489MOL0     C64423   5.597   9.982  10.239  0.5337 -0.0330  0.8210
  489MOL0     O64424   5.595   9.888  10.334  0.1824 -0.0151 -0.0470
  489MOL0     C64425   5.713   9.840  10.388  0.6032 -0.0379 -0.7751
  489MOL0     C64426   5.690   9.798  10.534  0.6312 -0.7201  0.3939
  489MOL0     C64427   5.614   9.906  10.619 -0.5927  0.0275 -0.2266
  489MOL0     C64428   5.591   9.864  10.759 -0.1282 -0.0949  0.2944
  489MOL0     C64429   5.550   9.984  10.840 -0.5572  0.4859  0.1925
  489MOL0     C64430   5.398   9.999  10.848 -0.0589  0.5636 -0.4838
  489MOL0     C64431   5.363  10.094  10.964 -1.0082  0.4082 -0.0733
  489MOL0     C64432   5.217  10.115  10.988 -0.8906  0.0743  0.0463
  489MOL0     N64433   5.138  10.144  10.870 -0.1392  0.8535 -0.6331
  489MOL0     C64434   5.162  10.252  10.783 -0.3263  0.5053 -0.7093
  489MOL0     C64435   5.094  10.237  10.669 -0.0208  0.0397  0.6090
  489MOL0     C64436   5.081  10.331  10.548  0.0747  0.7839  0.3156
  489MOL0     C64437   4.979  10.432  10.588 -0.5783  0.0686 -0.1683
  489MOL0     C64438   4.916  10.506  10.471  0.6966  0.8642 -0.0821
  489MOL0     C64439   4.793  10.582  10.507  0.7067 -0.0501  0.0207
  489MOL0     O64440   4.811  10.689  10.601 -0.1092  0.7171  0.7654
  489MOL0     C64441   4.709  10.768  10.638 -0.4782 -0.6248  0.0196
  489MOL0     C64442   4.575  10.731  10.613 -0.7329 -0.3511  0.1517
  489MOL0     C64443   4.472  10.809  10.663 -0.4886  0.1836  0.1393
  489MOL0     C64444   4.494  10.931  10.727  0.0235  0.0268  0.1358
  489MOL0     C64445   4.386  11.012  10.778  0.5120 -0.0302  0.5683
  489MOL0     O64446   4.251  10.989  10.735  0.0018 -0.2973  0.5091
  489MOL0     C64447   4.145  11.071  10.760 -1.2904  0.2239 -0.2578
  489MOL0     C64448   4.139  11.194  10.702 -0.9879 -1.0267  0.0150
  489MOL0     C64449   4.025  11.281  10.719  0.3586  0.3892  0.4967
  489MOL0     C64450   3.924  11.237  10.805  0.1270 -0.3390 -0.0223
  489MOL0     O64451   3.844  11.347  10.832 -0.4919 -0.2976  0.0657
  489MOL0     C64452   3.736  11.328  10.926 -0.9727 -0.5558  0.1272
  489MOL0     C64453   3.629  11.234  10.871  1.0773  0.1362  0.3363
  489MOL0     C64454   3.506  11.231  10.955 -0.0775 -0.0992 -0.4686
  489MOL0     C64455   3.389  11.146  10.882 -0.3913 -1.3235  0.0035
  489MOL0     C64456   3.279  11.094  10.983 -0.2011 -1.3352  0.3746
  489MOL0     C64457   3.231  11.207  11.093 -0.4767 -0.9301  0.4777
  489MOL0     C64458   3.089  11.170  11.125 -1.0825 -0.0083  0.4435
  489MOL0     C64459   3.043  11.224  11.260  0.2222  0.4203  0.4454
  489MOL0    Cl64460   2.865  11.193  11.266  0.2411 -0.1604 -0.7516
  489MOL0     C64461   3.930  11.114  10.865 -0.0281  0.0402 -0.3060
  489MOL0     C64462   4.038  11.030  10.838  0.0758  0.0644 -0.2085
  489MOL0     O64463   4.416  11.082  10.874  0.2345  0.3932 -0.1819
  489MOL0     C64464   4.630  10.963  10.759  0.0386  0.8702  1.2374
  489MOL0     C64465   4.738  10.874  10.723  0.7492  0.1273  0.2544
  489MOL0     N64466   5.031  10.111  10.684  0.1120 -0.4224  0.2562
  489MOL0     N64467   5.051  10.063  10.800  0.5258  0.5073  0.3239
  489MOL0     C64468   5.668  10.100  10.252 -1.4721 -0.3107 -0.3104
  489MOL0     C64469   5.665  10.191  10.144  0.1110  0.4297 -0.1175
  489MOL0     C64470   5.640  10.402   9.753  0.3626 -0.7593 -0.3272
  489MOL0     C64471   5.515  10.408   9.695 -0.1139  0.1832 -0.0782
  489MOL0     C64472   5.502  10.496   9.583 -0.5315  0.5325 -0.7647
  489MOL0     C64473   5.607  10.579   9.531 -0.1925  1.0278  0.4611
  489MOL0     O64474   5.593  10.664   9.421 -0.0123  0.2190  0.1588
  489MOL0     C64475   5.704  10.692   9.346  1.0622 -1.0628  0.5102
  489MOL0     C64476   5.688  10.628   9.215 -1.5736 -0.0927 -0.6472
  489MOL0     C64477   5.567  10.665   9.130 -0.3778  0.5644  0.2523
  489MOL0     C64478   5.568  10.814   9.086 -0.7641 -0.1074  0.4164
  489MOL0     C64479   5.688  10.842   8.998 -0.4595 -0.3958  0.4926
  489MOL0     C64480   5.772  10.873   8.916  0.9037 -0.4923 -0.3035
  489MOL0     C64481   5.716  10.585   9.611 -0.2828 -0.5555 -0.7141
  489MOL0     C64482   5.741  10.490   9.708 -0.5832  0.3314  0.2315
  489MOL0     H64483   5.474  10.029   9.926  0.5930 -0.1836  0.5811
  489MOL0     H64484   5.460   9.860  10.116 -0.9480 -0.3936 -3.2179
  489MOL0     H64485   5.791   9.916  10.388 -1.8410  2.6523  1.3843
  489MOL0     H64486   5.736   9.741  10.345  1.5849  0.4311 -1.3586
  489MOL0     H64487   5.792   9.769  10.561  0.5860 -1.7128 -0.4320
  489MOL0     H64488   5.638   9.702  10.544  3.0092 -2.1992 -0.6042
  489MOL0     H64489   5.516   9.921  10.574  1.0215  0.5107 -3.9857
  489MOL0     H64490   5.663  10.004  10.619 -0.4022 -0.0683 -0.2308
  489MOL0     H64491   5.519   9.782  10.756  2.0616 -2.1563  0.4320
  489MOL0     H64492   5.689   9.828  10.793  1.3886  4.0725  0.8933
  489MOL0     H64493   5.601  10.077  10.813  1.0649 -0.1984  0.7670
  489MOL0     H64494   5.592   9.956  10.937  3.6622 -1.1396 -1.8587
  489MOL0     H64495   5.357   9.904  10.882  0.4063 -0.2028 -1.9560
  489MOL0     H64496   5.343  10.025  10.757 -0.3726  0.1015 -0.4284
  489MOL0     H64497   5.396  10.054  11.060 -2.0255  1.8161  0.9100
  489MOL0     H64498   5.416  10.188  10.946 -1.8249  0.8212 -0.3668
  489MOL0     H64499   5.205  10.203  11.053  1.4692  1.7465 -1.6183
  489MOL0     H64500   5.186  10.026  11.043 -0.5715  2.1215  3.9144
  489MOL0     H64501   5.238  10.327  10.804  3.9425 -3.5493 -0.2381
  489MOL0     H64502   5.045  10.271  10.464  1.9702  0.7871 -0.5487
  489MOL0     H64503   5.180  10.366  10.518 -0.6861  0.1383 -3.3513
  489MOL0     H64504   5.019  10.504  10.659 -3.2429  2.4530 -0.8943
  489MOL0     H64505   4.890  10.392  10.638  0.1250  0.8130  1.7461
  489MOL0     H64506   4.985  10.563  10.407 -0.4013  0.9792 -1.2108
  489MOL0     H64507   4.880  10.433  10.398 -0.0197  2.0410 -0.9472
  489MOL0     H64508   4.727  10.504  10.546  1.8818 -2.2477 -2.0603
  489MOL0     H64509   4.737  10.610  10.417 -0.4372 -0.7053  0.5042
  489MOL0     H64510   4.556  10.636  10.564  2.2286 -1.2831  0.6302
  489MOL0     H64511   4.369  10.775  10.655  0.1234 -1.8890  0.4477
  489MOL0     H64512   4.221  11.212  10.633  0.7017 -0.8885  1.9376
  489MOL0     H64513   4.009  11.384  10.691  3.5514  1.3077  1.6074
  489MOL0     H64514   3.692  11.428  10.936  5.1414  2.4539  1.5311
  489MOL0     H64515   3.784  11.317  11.024 -1.9056  2.3489  1.0096
  489MOL0     H64516   3.657  11.130  10.852  0.5861 -0.3364  2.0356
  489MOL0     H64517   3.614  11.272  10.770 -0.5213 -0.8284  0.1838
  489MOL0     H64518   3.475  11.333  10.980  1.8933  0.7215 -1.2124
  489MOL0     H64519   3.528  11.182  11.050  0.2577  0.7363 -0.1060
  489MOL0     H64520   3.343  11.202  10.801  0.7865 -3.4149 -2.2549
  489MOL0     H64521   3.432  11.059  10.831  2.4722  0.4299 -0.7993
  489MOL0     H64522   3.309  11.007  11.043  1.5680 -0.6130  0.6126
  489MOL0     H64523   3.208  11.060  10.907  2.1394 -0.5000 -2.3930
  489MOL0     H64524   3.237  11.314  11.070 -2.4867 -0.7074  0.7972
  489MOL0     H64525   3.295  11.185  11.178 -1.9276 -0.6541  1.6847
  489MOL0     H64526   3.024  11.206  11.045 -0.3102 -1.5952 -0.9504
  489MOL0     H64527   3.071  11.063  11.137 -2.0280  0.2790  1.9746
  489MOL0     H64528   3.069  11.330  11.271  0.6907  0.1426  2.2595
  489MOL0     H64529   3.087  11.174  11.346  1.7443  0.0777 -0.4997
  489MOL0     H64530   3.864  11.066  10.936  0.2474 -0.9518 -0.7072
  489MOL0     H64531   4.044  10.927  10.872 -2.4943 -0.0831  0.0202
  489MOL0     H64532   4.653  11.061  10.800  0.4599  0.6521  1.5452
  489MOL0     H64533   4.844  10.895  10.725  0.4618  2.1082 -1.7465
  489MOL0     H64534   5.721  10.119  10.345  0.8931  1.2238 -1.8565
  489MOL0     H64535   5.718  10.286  10.145 -0.5405  0.8092 -0.4826
  489MOL0     H64536   5.437  10.342   9.731  0.6654  0.1221  1.5743
  489MOL0     H64537   5.409  10.498   9.527 -1.0191 -2.8558 -0.2967
  489MOL0     H64538   5.801  10.662   9.387  0.6736 -2.5972  0.3661
  489MOL0     H64539   5.703  10.800   9.330 -1.3993 -0.9775  0.8978
  489MOL0     H64540   5.780  10.657   9.164  0.8789 -0.4586  3.1635
  489MOL0     H64541   5.699  10.521   9.233 -2.5488  0.1619  1.8691
  489MOL0     H64542   5.467  10.627   9.155 -0.8937  1.1076 -0.8895
  489MOL0     H64543   5.575  10.604   9.040 -0.0135 -0.5268  1.0033
  489MOL0     H64544   5.484  10.839   9.020 -1.1004  2.2915  1.6496
  489MOL0     H64545   5.562  10.889   9.165  1.8280  2.5180 -1.6974
  489MOL0     H64546   5.854  10.904   8.855  1.1027  0.0950  0.2475
  489MOL0     H64547   5.783  10.669   9.601  0.6605 -1.6152 -6.1691
  489MOL0     H64548   5.830  10.490   9.770 -0.7114 -0.4130  0.4347
  490MOL0     O64549   8.372   4.912   9.080  0.6527 -0.1813  0.8651
  490MOL0     C64550   8.323   4.876   9.188 -0.0812  0.0434  0.4124
  490MOL0     O64551   8.214   4.798   9.202 -0.3339 -0.0799  0.8119
  490MOL0     C64552   8.177   4.712   9.109  0.6871  0.6071 -0.4641
  490MOL0     C64553   8.272   4.624   9.046 -0.2736 -0.6588 -0.0403
  490MOL0     C64554   8.238   4.523   8.958 -0.4510 -1.2339 -0.2623
  490MOL0     C64555   8.110   4.508   8.927  1.4096  0.1562  0.0274
  490MOL0     O64556   8.065   4.414   8.834 -0.3067  0.6673 -0.6025
  490MOL0     C64557   8.085   4.283   8.885  0.4519 -0.0330 -0.1065
  490MOL0     C64558   7.937   4.233   8.916  0.3468 -0.7884  0.5537
  490MOL0     C64559   7.949   4.093   8.957  0.6746 -0.1404 -0.4193
  490MOL0     C64560   7.814   4.031   8.920 -0.3793  1.0933  0.9758
  490MOL0     C64561   7.812   3.879   8.921  0.1683 -0.4933 -0.1037
  490MOL0     C64562   7.694   3.819   8.835  0.6135 -0.4163  0.5144
  490MOL0     C64563   7.711   3.669   8.839 -0.1251  0.0809  0.4035
  490MOL0     C64564   7.593   3.607   8.775 -0.5065 -1.0700  0.4499
  490MOL0     N64565   7.614   3.474   8.721  0.3584 -0.5028 -0.6018
  490MOL0     C64566   7.659   3.460   8.584  0.3119 -0.1474  0.1723
  490MOL0     C64567   7.643   3.321   8.569 -0.2996 -0.2000 -1.0790
  490MOL0     C64568   7.684   3.251   8.441  0.2295  0.5850 -1.2642
  490MOL0     C64569   7.764   3.112   8.468 -0.6832 -0.2620 -0.4179
  490MOL0     C64570   7.796   3.044   8.334  0.3840  0.0152 -1.1337
  490MOL0     C64571   7.672   2.991   8.269 -0.1579  0.3234 -0.8890
  490MOL0     O64572   7.694   2.848   8.247 -0.4580  0.3979  0.6649
  490MOL0     C64573   7.664   2.748   8.337 -0.2486 -0.3988 -0.7612
  490MOL0     C64574   7.692   2.615   8.320 -0.2975 -1.0481 -0.6800
  490MOL0     C64575   7.649   2.517   8.415  0.2679  0.1549 -0.3859
  490MOL0     C64576   7.598   2.559   8.541 -0.3892  0.7334 -0.8059
  490MOL0     C64577   7.558   2.460   8.647  0.7389  0.1688 -0.4426
  490MOL0     O64578   7.564   2.323   8.618  0.3182  0.1287 -0.7218
  490MOL0     C64579   7.520   2.222   8.699 -0.6117  0.1334 -0.3357
  490MOL0     C64580   7.542   2.095   8.642  0.0297 -0.2240 -0.4620
  490MOL0     C64581   7.493   1.970   8.702 -0.2449 -0.1335  0.1120
  490MOL0     C64582   7.423   1.983   8.825 -0.8915  0.6899 -0.3544
  490MOL0     O64583   7.356   1.871   8.871 -0.0107 -0.1968 -0.8976
  490MOL0     C64584   7.317   1.865   9.007  0.0787 -0.1372 -0.2426
  490MOL0     C64585   7.316   1.718   9.043 -0.2761 -0.1113  0.1817
  490MOL0     C64586   7.240   1.691   9.181  0.0852 -0.2900  0.2790
  490MOL0     C64587   7.231   1.548   9.239  0.2950  0.4919  0.5426
  490MOL0     C64588   7.203   1.527   9.390  0.8885  0.0717 -0.5657
  490MOL0     C64589   7.156   1.372   9.412 -0.0691 -0.6901  0.1213
  490MOL0     C64590   7.262   1.261   9.359 -0.4486 -0.5524 -0.7414
  490MOL0     C64591   7.222   1.114   9.387  0.4826 -0.0514 -0.2749
  490MOL0    Cl64592   7.222   1.068   9.554  0.3681 -0.2403  0.0706
  490MOL0     C64593   7.396   2.113   8.885  0.1215 -0.1912  0.1863
  490MOL0     C64594   7.443   2.222   8.824 -0.3847  0.1985  1.2778
  490MOL0     O64595   7.504   2.507   8.748  0.6162 -0.0335  0.1494
  490MOL0     C64596   7.575   2.697   8.557 -0.2263 -0.9346 -0.2478
  490MOL0     C64597   7.596   2.791   8.459 -0.3861 -0.2158  1.0988
  490MOL0     N64598   7.592   3.268   8.689 -0.7243  0.9789  0.0179
  490MOL0     N64599   7.552   3.360   8.769  0.2107 -0.4554  0.2680
  490MOL0     C64600   8.011   4.596   8.975 -0.0625 -0.5682  1.1643
  490MOL0     C64601   8.050   4.703   9.061 -0.3582 -0.9929  0.1415
  490MOL0     C64602   8.374   4.930   9.316  0.3493  0.9703  0.0435
  490MOL0     C64603   8.485   5.019   9.324  0.8325 -0.4400 -0.5837
  490MOL0     C64604   8.530   5.064   9.448  0.4066 -0.2840 -0.1811
  490MOL0     C64605   8.466   5.031   9.565  1.4589  0.6553 -0.9030
  490MOL0     O64606   8.502   5.077   9.691  0.0276 -0.6782 -0.2277
  490MOL0     C64607   8.583   5.199   9.722  0.0314  0.0990  1.2306
  490MOL0     C64608   8.504   5.322   9.716  0.6614 -0.3005  0.2401
  490MOL0     C64609   8.597   5.436   9.756 -0.4791  0.3104  0.1551
  490MOL0     C64610   8.523   5.565   9.746  0.8871  0.1049  0.2952
  490MOL0     C64611   8.600   5.667   9.810  0.6833 -0.4998  0.5528
  490MOL0     C64612   8.674   5.752   9.853  0.5354 -1.2745  0.2538
  490MOL0     C64613   8.347   4.940   9.556 -0.8366 -0.1025 -0.5265
  490MOL0     C64614   8.307   4.895   9.431  0.7825  0.8210 -0.4419
  490MOL0     H64615   8.371   4.644   9.085 -1.6186  3.9833  1.6900
  490MOL0     H64616   8.297   4.445   8.911  0.4500  0.1106 -1.4374
  490MOL0     H64617   8.160   4.274   8.965 -0.0605 -2.6361  0.1432
  490MOL0     H64618   8.141   4.234   8.805  1.1874  2.6197 -1.3610
  490MOL0     H64619   7.874   4.253   8.829  0.9060 -0.4042  0.2287
  490MOL0     H64620   7.902   4.298   8.996  4.4357  0.8212  1.3053
  490MOL0     H64621   7.970   4.071   9.062 -1.9561 -1.6528 -0.1420
  490MOL0     H64622   8.029   4.040   8.904 -0.9624 -0.6409 -2.5170
  490MOL0     H64623   7.740   4.075   8.987  0.6781  0.6370  2.5056
  490MOL0     H64624   7.777   4.048   8.819 -1.8693  2.2712  1.6877
  490MOL0     H64625   7.818   3.843   9.025 -0.4815 -2.7397 -0.7735
  490MOL0     H64626   7.901   3.836   8.874 -0.3148  0.4789 -1.9912
  490MOL0     H64627   7.678   3.859   8.734 -0.6903  4.2182  2.2760
  490MOL0     H64628   7.600   3.848   8.883 -0.2978 -0.6877 -1.0606
  490MOL0     H64629   7.802   3.646   8.782 -0.0230  5.0304 -1.9833
  490MOL0     H64630   7.722   3.631   8.941 -0.8498  0.2891  0.5617
  490MOL0     H64631   7.546   3.671   8.700 -1.9463  1.0464  2.9624
  490MOL0     H64632   7.520   3.587   8.855  1.4242  0.0489  2.6113
  490MOL0     H64633   7.690   3.529   8.506  3.3102  0.2183  1.5545
  490MOL0     H64634   7.746   3.307   8.372 -0.6676  1.6613 -1.2201
  490MOL0     H64635   7.591   3.229   8.388  0.9033  1.0092 -2.6408
  490MOL0     H64636   7.720   3.045   8.542  1.6387  0.1219  1.4231
  490MOL0     H64637   7.862   3.139   8.509 -0.3181  1.5105 -2.2691
  490MOL0     H64638   7.847   3.107   8.260  0.4392 -2.2171 -3.1505
  490MOL0     H64639   7.873   2.972   8.364  0.2204  0.0611 -0.6068
  490MOL0     H64640   7.663   3.043   8.173  3.5959 -0.1760 -1.6639
  490MOL0     H64641   7.577   3.010   8.320  1.0925  0.7919  1.3666
  490MOL0     H64642   7.711   2.592   8.216 -2.5027 -3.7871 -0.5958
  490MOL0     H64643   7.649   2.409   8.408  1.2591 -0.1539  2.8835
  490MOL0     H64644   7.608   2.093   8.556  2.7392  1.5443  1.4230
  490MOL0     H64645   7.524   1.875   8.659  1.1477  0.1714  0.3947
  490MOL0     H64646   7.223   1.919   9.022  1.1161  1.2161  1.8750
  490MOL0     H64647   7.389   1.918   9.071  1.6950  0.5163 -2.4608
  490MOL0     H64648   7.419   1.684   9.056  1.2466  4.7160  3.4837
  490MOL0     H64649   7.260   1.670   8.962  2.5936 -0.8497 -1.5099
  490MOL0     H64650   7.139   1.734   9.181 -0.1057 -0.7229  0.5569
  490MOL0     H64651   7.299   1.741   9.258  0.4290 -0.8024  0.3502
  490MOL0     H64652   7.156   1.501   9.174 -0.0628  1.1561  0.4556
  490MOL0     H64653   7.320   1.488   9.219 -1.4166 -1.5735 -1.4446
  490MOL0     H64654   7.108   1.577   9.415 -1.8404 -3.4299 -2.9272
  490MOL0     H64655   7.280   1.563   9.459 -0.4871  1.8976  0.0989
  490MOL0     H64656   7.066   1.353   9.353  0.0304  0.4621 -0.4204
  490MOL0     H64657   7.122   1.364   9.515 -0.9692 -2.4001 -0.2676
  490MOL0     H64658   7.275   1.284   9.253 -2.3484 -0.4285 -0.9952
  490MOL0     H64659   7.354   1.280   9.414  0.1939 -1.8367 -1.3268
  490MOL0     H64660   7.302   1.059   9.337  0.7740  2.9991 -3.6132
  490MOL0     H64661   7.128   1.083   9.341  0.4714  0.9299 -0.9478
  490MOL0     H64662   7.313   2.149   8.945 -0.7664  2.3974 -2.3942
  490MOL0     H64663   7.419   2.315   8.874 -2.7530 -0.8843  2.3415
  490MOL0     H64664   7.531   2.733   8.650 -1.2890 -2.0193 -0.3091
  490MOL0     H64665   7.587   2.896   8.486 -1.5280 -1.0392  4.4174
  490MOL0     H64666   7.908   4.594   8.942 -0.4698  2.2062  2.0595
  490MOL0     H64667   7.964   4.765   9.086  1.0297  0.2870  1.9822
  490MOL0     H64668   8.552   5.056   9.247  0.0793  3.0144  0.2746
  490MOL0     H64669   8.628   5.111   9.454 -1.3775  3.6917  1.7370
  490MOL0     H64670   8.664   5.195   9.649 -1.3404 -0.7029 -0.3107
  490MOL0     H64671   8.640   5.178   9.813 -1.1425  0.0166  1.9658
  490MOL0     H64672   8.474   5.335   9.611 -1.0322  0.5217  0.7896
  490MOL0     H64673   8.418   5.323   9.782  1.6503  0.6879  1.5748
  490MOL0     H64674   8.676   5.443   9.680  0.1598  0.4287  0.8161
  490MOL0     H64675   8.640   5.423   9.856  2.5806  0.0532 -1.0694
  490MOL0     H64676   8.488   5.590   9.645 -2.2940 -0.2393  1.1779
  490MOL0     H64677   8.428   5.557   9.800  0.1017 -0.9423 -1.1638
  490MOL0     H64678   8.743   5.832   9.872  1.7864 -1.8525 -1.5165
  490MOL0     H64679   8.292   4.905   9.643 -1.5691 -1.3685 -1.4649
  490MOL0     H64680   8.217   4.837   9.411  1.3802 -0.0206 -0.7650
  491MOL0     O64681   6.049   0.075   8.993  0.1918  0.6520 -0.2161
  491MOL0     C64682   6.050   0.110   8.873 -0.2337 -0.0158 -0.3495
  491MOL0     O64683   6.165   0.121   8.803 -0.3693 -0.5510  0.2112
  491MOL0     C64684   6.299   0.079   8.842  0.1647 -0.1049  0.5066
  491MOL0     C64685   6.331  -0.001   8.947  0.2456  0.1892  0.7773
  491MOL0     C64686   6.465  -0.036   8.972 -0.0304  0.4344  0.9359
  491MOL0     C64687   6.571  -0.019   8.878  0.6596 -0.8165  0.4352
  491MOL0     O64688   6.703  -0.054   8.904 -0.2232 -0.0259 -0.0354
  491MOL0     C64689   6.721  -0.165   8.996  0.3494 -0.8007 -0.0042
  491MOL0     C64690   6.866  -0.205   8.997  0.2416 -0.6931 -0.0052
  491MOL0     C64691   6.927  -0.252   8.867 -1.3970  0.1634  0.3592
  491MOL0     C64692   7.048  -0.356   8.892  0.5042 -0.1826 -0.3611
  491MOL0     C64693   7.107  -0.419   8.758  0.5174 -0.1426  0.1060
  491MOL0     C64694   7.010  -0.524   8.695 -0.3943 -0.4453  0.2225
  491MOL0     C64695   7.080  -0.562   8.571 -0.7703  0.1720  0.9396
  491MOL0     C64696   6.992  -0.645   8.472  0.6155 -0.1801  0.0128
  491MOL0     N64697   6.940  -0.772   8.529  0.7630 -0.6681  0.2729
  491MOL0     C64698   6.970  -0.906   8.497 -0.6621  0.0160  0.0377
  491MOL0     C64699   6.871  -0.977   8.549  0.0951  0.4271 -0.3671
  491MOL0     C64700   6.856  -1.127   8.526  0.7563 -0.2460 -0.1900
  491MOL0     C64701   6.792  -1.187   8.642 -0.2920 -0.5788  0.0899
  491MOL0     C64702   6.809  -1.339   8.650 -0.3686 -0.4897 -0.5404
  491MOL0     C64703   6.722  -1.408   8.759  0.1006  0.7669 -0.4772
  491MOL0     O64704   6.768  -1.541   8.746 -0.3606  0.2343 -0.3589
  491MOL0     C64705   6.890  -1.591   8.803  0.5226 -0.8971 -0.1071
  491MOL0     C64706   6.954  -1.516   8.897  0.0854 -0.4214 -0.0469
  491MOL0     C64707   7.068  -1.565   8.958 -0.3717  0.5836  0.1987
  491MOL0     C64708   7.127  -1.685   8.920  0.6532 -0.2168 -0.3763
  491MOL0     C64709   7.248  -1.731   8.993 -0.2251  0.3428 -0.5104
  491MOL0     O64710   7.272  -1.864   9.003  0.0963  0.8707 -0.3058
  491MOL0     C64711   7.367  -1.904   9.086  0.1647  0.3545 -1.0126
  491MOL0     C64712   7.350  -1.928   9.219  0.8226 -0.2053 -0.6925
  491MOL0     C64713   7.443  -1.989   9.309 -0.2718  0.4985 -0.0453
  491MOL0     C64714   7.571  -2.021   9.254 -0.1732  1.5032 -1.1044
  491MOL0     O64715   7.661  -2.083   9.336  0.1780 -0.0083  0.2994
  491MOL0     C64716   7.794  -2.090   9.284 -0.0053 -0.6207  0.4959
  491MOL0     C64717   7.892  -2.129   9.390  0.0513  0.1677 -0.8327
  491MOL0     C64718   7.840  -2.250   9.475 -0.0429  0.6609 -0.3774
  491MOL0     C64719   7.929  -2.278   9.600 -0.7581  0.9583  0.2898
  491MOL0     C64720   8.057  -2.368   9.564  0.7522 -0.7459  0.6959
  491MOL0     C64721   8.194  -2.334   9.626  0.3984 -0.5276 -0.6132
  491MOL0     C64722   8.302  -2.434   9.599 -0.2995 -0.3212 -0.0893
  491MOL0     C64723   8.302  -2.557   9.689 -0.0837  1.4398  0.0059
  491MOL0    Cl64724   8.350  -2.727   9.612 -0.0069 -0.0147 -0.3515
  491MOL0     C64725   7.591  -1.990   9.120 -0.6740 -0.3145  0.6897
  491MOL0     C64726   7.488  -1.944   9.035  0.3939  0.4281  0.6040
  491MOL0     O64727   7.325  -1.645   9.036  0.4516 -0.2228  0.8111
  491MOL0     C64728   7.068  -1.753   8.805 -0.4328 -0.1014 -1.3771
  491MOL0     C64729   6.951  -1.702   8.753  0.1680  0.0118 -0.4197
  491MOL0     N64730   6.779  -0.891   8.613 -0.5863 -0.0690 -1.1921
  491MOL0     N64731   6.821  -0.770   8.604 -0.5051 -0.3895 -0.0208
  491MOL0     C64732   6.542   0.064   8.769 -0.5596  0.3456  0.1793
  491MOL0     C64733   6.409   0.120   8.746 -0.1944 -0.2865 -0.6919
  491MOL0     C64734   5.930   0.143   8.803  0.3593 -0.1133 -0.0809
  491MOL0     C64735   5.939   0.220   8.688  0.0802 -0.9104 -0.6622
  491MOL0     C64736   5.830   0.249   8.599  0.8660 -0.4465 -0.6271
  491MOL0     C64737   5.704   0.198   8.639 -0.7757  0.0955 -0.1400
  491MOL0     O64738   5.592   0.246   8.570 -0.1037 -0.1763  0.1354
  491MOL0     C64739   5.461   0.183   8.587 -0.8221 -0.2232  0.1010
  491MOL0     C64740   5.459   0.033   8.551 -0.4740 -0.0725  0.1280
  491MOL0     C64741   5.320  -0.008   8.515 -0.1632  0.1108 -0.2092
  491MOL0     C64742   5.229  -0.035   8.635 -0.3049  0.4111 -0.0322
  491MOL0     C64743   5.100  -0.042   8.561 -0.2771  0.2225  0.0416
  491MOL0     C64744   4.991  -0.061   8.511 -1.0022  0.0846  0.4660
  491MOL0     C64745   5.692   0.132   8.758 -0.1873 -0.4850 -0.0592
  491MOL0     C64746   5.799   0.095   8.841 -1.2907  0.2851 -0.6281
  491MOL0     H64747   6.252  -0.021   9.019 -0.5015  0.4656  0.0421
  491MOL0     H64748   6.486  -0.105   9.054 -2.4061  2.3979  3.3943
  491MOL0     H64749   6.657  -0.250   8.968 -1.1868  0.8136 -1.6415
  491MOL0     H64750   6.698  -0.135   9.098  0.4738 -0.4992 -0.0647
  491MOL0     H64751   6.864  -0.277   9.079 -1.3528 -0.2050  0.4182
  491MOL0     H64752   6.923  -0.117   9.027  1.7646 -1.2863 -1.0548
  491MOL0     H64753   6.947  -0.156   8.819 -3.1856 -0.2899 -1.4409
  491MOL0     H64754   6.860  -0.298   8.794 -1.8183  1.3899 -0.0471
  491MOL0     H64755   7.130  -0.313   8.951 -0.6619  2.0277 -0.2803
  491MOL0     H64756   7.007  -0.425   8.966 -0.4498  0.8839  0.1261
  491MOL0     H64757   7.197  -0.473   8.788  0.5555 -0.4219 -0.5121
  491MOL0     H64758   7.139  -0.335   8.695  0.6708  0.3813  0.8679
  491MOL0     H64759   6.907  -0.488   8.684 -0.8236  0.4037  5.0238
  491MOL0     H64760   7.007  -0.609   8.763 -2.2641 -1.5884 -1.1810
  491MOL0     H64761   7.118  -0.472   8.521  4.0946 -1.9580  0.1698
  491MOL0     H64762   7.173  -0.617   8.588 -0.6029 -0.1842 -0.9121
  491MOL0     H64763   7.050  -0.665   8.382 -0.5615 -1.2711 -0.5283
  491MOL0     H64764   6.910  -0.578   8.447  0.4064 -0.5151 -0.1946
  491MOL0     H64765   7.059  -0.941   8.446  1.0412  0.6084  2.4369
  491MOL0     H64766   6.949  -1.180   8.501  0.2978 -1.4872  0.6365
  491MOL0     H64767   6.789  -1.141   8.441 -1.8835  1.9448  1.3715
  491MOL0     H64768   6.686  -1.167   8.628 -0.2031 -1.0666 -1.5028
  491MOL0     H64769   6.827  -1.133   8.731 -0.8677  0.2613 -0.1766
  491MOL0     H64770   6.777  -1.380   8.554 -0.0971  0.4092 -1.0201
  491MOL0     H64771   6.913  -1.350   8.681 -0.2735 -0.2527 -0.7792
  491MOL0     H64772   6.616  -1.415   8.732 -0.0618 -3.5459  0.4088
  491MOL0     H64773   6.738  -1.382   8.864 -0.1340 -0.0821 -0.2179
  491MOL0     H64774   6.914  -1.426   8.941 -0.8083 -1.0959  0.5778
  491MOL0     H64775   7.109  -1.511   9.043 -0.6576 -2.2977  2.3126
  491MOL0     H64776   7.247  -1.911   9.250  1.6530 -0.0994  2.2766
  491MOL0     H64777   7.422  -2.001   9.415 -1.4144  1.7629 -0.1109
  491MOL0     H64778   7.821  -1.988   9.256 -0.1534 -1.2399 -2.2014
  491MOL0     H64779   7.807  -2.158   9.199  3.0486  0.0055  0.3489
  491MOL0     H64780   7.913  -2.050   9.463 -2.1170 -2.2754  2.7030
  491MOL0     H64781   7.984  -2.174   9.352 -0.0829  0.4559 -1.5133
  491MOL0     H64782   7.827  -2.343   9.419  0.7368  0.2172  0.1518
  491MOL0     H64783   7.744  -2.231   9.523 -1.1782 -2.6212 -1.0536
  491MOL0     H64784   7.962  -2.195   9.663  2.8529 -0.5021  0.5642
  491MOL0     H64785   7.866  -2.337   9.667 -0.3645  3.5564  3.1523
  491MOL0     H64786   8.067  -2.363   9.455  0.3468  0.8820  0.6962
  491MOL0     H64787   8.028  -2.468   9.594  0.1773 -0.9770 -0.5273
  491MOL0     H64788   8.189  -2.314   9.733 -3.2044  0.8857 -0.8840
  491MOL0     H64789   8.213  -2.231   9.594  0.5983  0.1520  1.5347
  491MOL0     H64790   8.300  -2.472   9.496 -0.4280 -0.2503 -0.1123
  491MOL0     H64791   8.399  -2.384   9.599 -0.1398 -0.5888 -1.2995
  491MOL0     H64792   8.207  -2.573   9.740  0.3228 -0.4648  0.2499
  491MOL0     H64793   8.368  -2.535   9.774  1.1649 -1.5729 -0.0643
  491MOL0     H64794   7.686  -2.012   9.072 -0.3898  0.4225  0.9025
  491MOL0     H64795   7.502  -1.932   8.928 -1.3662  0.7015  0.3632
  491MOL0     H64796   7.106  -1.852   8.781 -0.1514 -1.1218  2.5397
  491MOL0     H64797   6.885  -1.764   8.692 -1.1165  0.5057  0.4240
  491MOL0     H64798   6.622   0.097   8.703  0.4526 -1.1039  0.6390
  491MOL0     H64799   6.380   0.195   8.673  0.3473  1.3218  0.6729
  491MOL0     H64800   6.034   0.264   8.658 -0.5561 -0.6731 -2.4467
  491MOL0     H64801   5.849   0.310   8.512 -3.5816 -0.3534 -1.7724
  491MOL0     H64802   5.397   0.236   8.515 -2.1079 -0.3484  1.1191
  491MOL0     H64803   5.410   0.202   8.682 -2.1887 -0.1110 -0.6384
  491MOL0     H64804   5.527   0.018   8.466  0.2025 -1.6446  0.9029
  491MOL0     H64805   5.502  -0.028   8.631 -1.4210 -0.4436  0.3582
  491MOL0     H64806   5.325  -0.110   8.475  0.0443  1.2142 -3.2220
  491MOL0     H64807   5.271   0.058   8.443 -4.6554  0.3029  2.6296
  491MOL0     H64808   5.261  -0.128   8.682  2.3859  0.0712 -2.2767
  491MOL0     H64809   5.240   0.032   8.720  2.5452  0.7136 -0.5523
  491MOL0     H64810   4.896  -0.081   8.467  0.7463 -0.7860 -3.3447
  491MOL0     H64811   5.595   0.101   8.796 -1.1673  0.8955 -1.3111
  491MOL0     H64812   5.793   0.052   8.941  1.2479 -1.8853 -1.3109
  492MOL0     O64813   6.449  10.757   1.524 -0.8146 -0.2208 -0.1502
  492MOL0     C64814   6.560  10.799   1.491  0.5974 -0.5810 -0.2158
  492MOL0     O64815   6.667  10.737   1.453 -0.5749  1.2861 -0.1480
  492MOL0     C64816   6.678  10.596   1.436  1.1541 -0.2006 -0.8210
  492MOL0     C64817   6.570  10.510   1.400 -0.5387 -0.2399  0.0421
  492MOL0     C64818   6.587  10.380   1.382 -0.3484  0.1467  0.1929
  492MOL0     C64819   6.712  10.315   1.397  0.7569 -0.4923 -0.6684
  492MOL0     O64820   6.746  10.183   1.387  0.8212  0.3530  0.3767
  492MOL0     C64821   6.650  10.091   1.330 -0.0285 -0.1677 -0.6567
  492MOL0     C64822   6.723   9.969   1.285  0.1001  0.1774  0.1272
  492MOL0     C64823   6.808   9.984   1.157 -0.3648  0.1242  0.0842
  492MOL0     C64824   6.946   9.918   1.175  0.5070 -0.2322 -0.3347
  492MOL0     C64825   7.019   9.929   1.041 -0.0881  0.6325 -0.2645
  492MOL0     C64826   7.116   9.817   1.019  0.6418  0.5638 -0.5033
  492MOL0     C64827   7.235   9.829   1.108  0.6510 -0.7830  0.0480
  492MOL0     C64828   7.294   9.698   1.142  1.1970 -1.2295  0.2346
  492MOL0     N64829   7.371   9.642   1.033  0.4309 -0.4795 -0.0516
  492MOL0     C64830   7.328   9.575   0.922  0.3095  0.7122 -0.5141
  492MOL0     C64831   7.419   9.593   0.829  0.2104  0.3254 -0.9552
  492MOL0     C64832   7.406   9.526   0.690 -0.3273 -1.6543 -0.2032
  492MOL0     C64833   7.339   9.628   0.586 -0.4790  0.5114 -0.2402
  492MOL0     C64834   7.425   9.741   0.547  0.4107 -1.0981 -0.4138
  492MOL0     C64835   7.340   9.868   0.507 -0.0254 -0.2750 -0.1487
  492MOL0     O64836   7.443   9.974   0.473 -0.0195 -0.6808  0.5185
  492MOL0     C64837   7.441   9.987   0.335  0.0356  0.2713 -0.4145
  492MOL0     C64838   7.378  10.097   0.282  0.0226  0.4203 -0.2119
  492MOL0     C64839   7.355  10.112   0.145 -0.9866  0.1637  0.1268
  492MOL0     C64840   7.407  10.019   0.061 -0.2774  0.2891  0.2507
  492MOL0     C64841   7.384  10.031  -0.079  0.4383 -0.1747  0.0020
  492MOL0     O64842   7.364  10.160  -0.131  0.7915 -0.1622  0.1780
  492MOL0     C64843   7.315  10.157  -0.262 -0.1634 -0.8295 -1.0431
  492MOL0     C64844   7.392  10.196  -0.370  0.2580  0.6294 -0.3755
  492MOL0     C64845   7.347  10.184  -0.503 -0.1200 -0.5912 -0.2391
  492MOL0     C64846   7.218  10.134  -0.518 -0.0961 -0.2196 -1.1714
  492MOL0     O64847   7.164  10.113  -0.646  0.4052 -0.3162 -0.5514
  492MOL0     C64848   7.204  10.197  -0.755 -0.9895  0.2555  0.4905
  492MOL0     C64849   7.101  10.190  -0.870 -0.3113  1.0938 -0.5356
  492MOL0     C64850   7.155  10.281  -0.986  0.0649  0.6061  0.0736
  492MOL0     C64851   7.272  10.206  -1.064 -0.8466 -0.4566 -1.0184
  492MOL0     C64852   7.320  10.296  -1.177 -0.8299  0.3830 -0.6212
  492MOL0     C64853   7.387  10.425  -1.122 -0.5909  0.1121  0.4796
  492MOL0     C64854   7.501  10.404  -1.031  0.0251 -0.1453  0.0192
  492MOL0     C64855   7.593  10.527  -1.032 -0.7180  0.5814 -0.4898
  492MOL0    Cl64856   7.538  10.657  -0.940 -0.3475 -0.3308  0.0853
  492MOL0     C64857   7.138  10.103  -0.409  0.7197 -0.1764  0.7318
  492MOL0     C64858   7.182  10.120  -0.280  0.3638  0.7540 -0.1297
  492MOL0     O64859   7.382   9.928  -0.152 -0.1081  0.5322  1.1102
  492MOL0     C64860   7.476   9.904   0.115 -0.8666  0.2407  0.5424
  492MOL0     C64861   7.498   9.896   0.252  0.4439  0.6741  0.5371
  492MOL0     N64862   7.517   9.674   0.883 -0.4168 -0.3739  0.1663
  492MOL0     N64863   7.487   9.699   0.997  0.9106  0.1349  0.7120
  492MOL0     C64864   6.817  10.397   1.429  0.3061 -0.2258  0.3565
  492MOL0     C64865   6.802  10.533   1.456  0.5051  0.3509 -0.6532
  492MOL0     C64866   6.571  10.944   1.501  1.1833  0.3270  0.0815
  492MOL0     C64867   6.459  11.034   1.493  0.0972 -0.7434  0.3088
  492MOL0     C64868   6.482  11.177   1.503  0.1898 -0.8573 -0.2717
  492MOL0     C64869   6.603  11.230   1.523 -0.9140  0.4971 -0.2968
  492MOL0     O64870   6.606  11.356   1.574  0.1121  0.9166 -0.7774
  492MOL0     C64871   6.706  11.394   1.672  0.3052 -0.2724  0.5378
  492MOL0     C64872   6.790  11.514   1.621  0.0405  0.6041 -0.7533
  492MOL0     C64873   6.880  11.484   1.492 -0.5989 -0.6372 -0.7646
  492MOL0     C64874   7.011  11.414   1.538  0.3874 -0.5903  0.8007
  492MOL0     C64875   7.056  11.298   1.456  0.6616  0.5796 -0.3715
  492MOL0     C64876   7.092  11.192   1.412  0.1287  0.5861 -0.8659
  492MOL0     C64877   6.712  11.144   1.522  0.7179 -0.6673 -0.1016
  492MOL0     C64878   6.697  11.004   1.513 -0.5046  0.0914 -0.0367
  492MOL0     H64879   6.479  10.557   1.364 -0.0873  0.6751  0.0592
  492MOL0     H64880   6.493  10.329   1.365 -0.4767  0.3678  0.2231
  492MOL0     H64881   6.589  10.136   1.251 -3.2912 -1.3955  0.9897
  492MOL0     H64882   6.575  10.066   1.405 -0.9309  2.8852 -0.4071
  492MOL0     H64883   6.658   9.882   1.276  3.3639 -2.4634 -0.1825
  492MOL0     H64884   6.795   9.952   1.366  1.0851 -0.2711 -0.8184
  492MOL0     H64885   6.843  10.088   1.148  1.1574 -0.0257  2.8821
  492MOL0     H64886   6.759   9.965   1.062  1.9595  2.3474 -1.6945
  492MOL0     H64887   7.002   9.958   1.259  1.3473  0.8531 -1.3724
  492MOL0     H64888   6.929   9.810   1.184 -0.0477 -0.5346 -3.7026
  492MOL0     H64889   7.069  10.026   1.041 -0.3582  0.7865 -1.1432
  492MOL0     H64890   6.955   9.938   0.952  0.0772 -0.2070 -0.4727
  492MOL0     H64891   7.143   9.817   0.913  0.7560  0.6198 -0.4740
  492MOL0     H64892   7.067   9.721   1.039  1.5385  0.5799  2.0784
  492MOL0     H64893   7.303   9.902   1.062 -0.6411  0.4678  0.0237
  492MOL0     H64894   7.202   9.868   1.205 -0.8785 -1.7335 -0.0659
  492MOL0     H64895   7.223   9.623   1.177  2.3764 -1.4803  2.2372
  492MOL0     H64896   7.364   9.722   1.223  0.7367  1.1941 -0.0082
  492MOL0     H64897   7.237   9.518   0.909  0.7321 -0.3415  0.9804
  492MOL0     H64898   7.349   9.433   0.683 -1.1684 -1.0143 -3.4811
  492MOL0     H64899   7.504   9.506   0.647 -0.6254 -1.5596 -0.9456
  492MOL0     H64900   7.249   9.667   0.634 -1.1933 -0.5618 -0.6774
  492MOL0     H64901   7.313   9.576   0.494 -2.4823  0.9807  0.0302
  492MOL0     H64902   7.486   9.772   0.633  0.4146  0.7258 -1.0199
  492MOL0     H64903   7.502   9.716   0.473  0.4433 -2.6085  0.0974
  492MOL0     H64904   7.286   9.893   0.598  0.7502  0.8619  0.0174
  492MOL0     H64905   7.275   9.843   0.422  0.2253 -1.7839  0.0650
  492MOL0     H64906   7.332  10.177   0.339 -1.5094  0.0735 -0.9140
  492MOL0     H64907   7.293  10.190   0.102 -1.2032 -0.3295 -0.4627
  492MOL0     H64908   7.497  10.223  -0.361  0.2781  0.5202 -0.2765
  492MOL0     H64909   7.406  10.206  -0.592 -1.9369  0.6612 -1.1809
  492MOL0     H64910   7.299  10.160  -0.795 -1.4092  1.5820 -1.9360
  492MOL0     H64911   7.210  10.302  -0.726  2.6078  0.6427 -1.1157
  492MOL0     H64912   6.999  10.222  -0.849 -1.2168 -0.1417 -2.7390
  492MOL0     H64913   7.081  10.085  -0.897 -1.9260  1.4241 -0.7186
  492MOL0     H64914   7.189  10.374  -0.940  1.4475 -0.1976  0.7397
  492MOL0     H64915   7.077  10.302  -1.060  0.8240 -2.4019 -1.7576
  492MOL0     H64916   7.352  10.167  -1.000 -1.1339  1.9230  0.9864
  492MOL0     H64917   7.229  10.112  -1.098  0.0789 -1.1786 -0.2630
  492MOL0     H64918   7.238  10.318  -1.245 -1.4763 -1.8955 -0.6710
  492MOL0     H64919   7.390  10.241  -1.241 -1.2747  0.8316 -1.5094
  492MOL0     H64920   7.307  10.479  -1.070  0.8462 -1.7929  5.1573
  492MOL0     H64921   7.417  10.483  -1.210  1.1904 -0.5450  0.6126
  492MOL0     H64922   7.463  10.368  -0.936  1.8997  0.2576  0.9648
  492MOL0     H64923   7.570  10.322  -1.056  0.7273  0.2759  0.5411
  492MOL0     H64924   7.621  10.564  -1.130  0.0918 -0.0581 -0.5070
  492MOL0     H64925   7.689  10.494  -0.990 -0.7346  0.2558 -0.7036
  492MOL0     H64926   7.034  10.073  -0.414  0.9332 -0.7243 -0.7172
  492MOL0     H64927   7.124  10.102  -0.190 -3.0711 -0.0244 -2.3005
  492MOL0     H64928   7.513   9.821   0.055  0.4156  0.6668  0.7145
  492MOL0     H64929   7.553   9.806   0.280 -1.2063  0.3370  3.0038
  492MOL0     H64930   6.912  10.346   1.443 -0.4745 -1.4287  1.4881
  492MOL0     H64931   6.892  10.586   1.486  0.0312  2.1527 -2.1874
  492MOL0     H64932   6.358  11.009   1.464  0.4809  0.7537 -2.7707
  492MOL0     H64933   6.398  11.246   1.508  2.9070  2.7416 -0.2632
  492MOL0     H64934   6.775  11.317   1.708  0.8440 -0.1158 -0.1433
  492MOL0     H64935   6.635  11.424   1.750 -1.2681 -0.1012 -0.9091
  492MOL0     H64936   6.723  11.600   1.607 -1.3384 -0.5604 -1.6745
  492MOL0     H64937   6.851  11.547   1.705 -4.0152  2.1076  1.9471
  492MOL0     H64938   6.905  11.580   1.445  1.1257 -0.6802  0.0099
  492MOL0     H64939   6.827  11.420   1.420 -2.7556  1.9862 -1.6862
  492MOL0     H64940   7.088  11.492   1.543  0.7429 -0.4742 -3.1613
  492MOL0     H64941   7.001  11.369   1.637  0.4038 -1.3258  0.4750
  492MOL0     H64942   7.112  11.096   1.369  0.4004  1.9555 -4.0830
  492MOL0     H64943   6.816  11.171   1.541  0.6916  1.0815 -2.0072
  492MOL0     H64944   6.787  10.944   1.512 -1.4428 -1.3603 -0.4415
  493MOL0     O64945   6.958   7.381   0.174 -0.6362  0.2772 -0.3530
  493MOL0     C64946   6.868   7.456   0.183 -1.0122 -0.4914 -0.1784
  493MOL0     O64947   6.775   7.475   0.082 -0.3825  0.4885 -0.6549
  493MOL0     C64948   6.803   7.422  -0.035 -0.7770 -0.5923  0.1721
  493MOL0     C64949   6.703   7.347  -0.099  0.1165 -0.3451 -0.8860
  493MOL0     C64950   6.729   7.291  -0.228  0.3844 -0.7690 -0.1098
  493MOL0     C64951   6.836   7.333  -0.300 -0.4776  0.1177 -0.1916
  493MOL0     O64952   6.864   7.295  -0.430  0.3331 -0.6318 -0.3808
  493MOL0     C64953   6.989   7.230  -0.442 -0.6215  0.2407 -1.2453
  493MOL0     C64954   7.026   7.119  -0.331  0.4943 -0.3268 -0.4096
  493MOL0     C64955   7.114   7.010  -0.389 -0.6990 -0.3154 -0.3930
  493MOL0     C64956   7.027   6.902  -0.444 -0.4994  0.0438 -0.0391
  493MOL0     C64957   7.104   6.783  -0.513 -0.4264  0.1833  0.2314
  493MOL0     C64958   7.032   6.724  -0.634 -0.8912 -0.1214 -0.3474
  493MOL0     C64959   6.901   6.648  -0.607  0.0793 -0.2622  0.9328
  493MOL0     C64960   6.914   6.532  -0.509 -0.3604  0.1843 -0.8758
  493MOL0     N64961   6.809   6.432  -0.509 -0.5133 -0.4155 -1.6409
  493MOL0     C64962   6.778   6.370  -0.386 -0.7048  0.3335  0.9104
  493MOL0     C64963   6.668   6.299  -0.417 -0.6788  0.6234  0.5891
  493MOL0     C64964   6.615   6.185  -0.352  0.1127 -0.7174  0.2001
  493MOL0     C64965   6.469   6.196  -0.345 -0.6200  0.4044 -0.9835
  493MOL0     C64966   6.404   6.131  -0.225  0.2317  1.4567 -0.0132
  493MOL0     C64967   6.252   6.144  -0.225 -0.0791  0.2184 -0.2952
  493MOL0     O64968   6.214   6.156  -0.090 -0.0607  0.1029 -0.3409
  493MOL0     C64969   6.081   6.170  -0.058  0.2592  0.8564 -0.1598
  493MOL0     C64970   6.055   6.130   0.065  0.2349 -1.3165 -1.0819
  493MOL0     C64971   5.921   6.113   0.108  0.1329  0.4666  0.1173
  493MOL0     C64972   5.817   6.144   0.024  0.4268 -0.3173 -0.0555
  493MOL0     C64973   5.675   6.137   0.068  0.7582 -0.1660 -0.2028
  493MOL0     O64974   5.584   6.166  -0.027 -0.1106 -0.3842  0.7417
  493MOL0     C64975   5.464   6.120   0.006  0.0191 -0.1106  0.3170
  493MOL0     C64976   5.382   6.216   0.057 -0.7764 -0.4297  0.5698
  493MOL0     C64977   5.245   6.189   0.098  0.1034  0.5397  0.6607
  493MOL0     C64978   5.200   6.063   0.079 -0.0354  0.7399 -0.9083
  493MOL0     O64979   5.080   6.019   0.120  0.1918 -0.3020  0.7535
  493MOL0     C64980   5.007   6.103   0.204 -0.8361 -0.1738 -0.0719
  493MOL0     C64981   4.879   6.026   0.261  0.4957 -0.6845  0.6018
  493MOL0     C64982   4.820   6.124   0.361  0.0695  1.5642 -0.2645
  493MOL0     C64983   4.697   6.066   0.426  1.2438  0.1571  0.6720
  493MOL0     C64984   4.571   6.092   0.346  0.7143 -0.0499  0.5988
  493MOL0     C64985   4.451   6.044   0.431 -0.3003 -0.5604  0.3479
  493MOL0     C64986   4.405   6.146   0.536  0.5822 -0.5837  0.0604
  493MOL0     C64987   4.304   6.090   0.639 -0.0783  0.5170 -0.3422
  493MOL0    Cl64988   4.229   6.211   0.738  0.1533  0.0391  0.3103
  493MOL0     C64989   5.292   5.959   0.039 -0.0676  0.5013 -1.0835
  493MOL0     C64990   5.418   5.992   0.002 -0.1517  0.2305  0.0678
  493MOL0     O64991   5.652   6.094   0.180  0.8877 -0.1111  0.6425
  493MOL0     C64992   5.850   6.199  -0.107  0.5124  0.4752 -0.2026
  493MOL0     C64993   5.982   6.217  -0.145  0.4923 -1.1859 -0.3338
  493MOL0     N64994   6.627   6.324  -0.543  0.2842  0.2172  0.6037
  493MOL0     N64995   6.713   6.398  -0.598  0.2742  0.1373  0.2548
  493MOL0     C64996   6.940   7.412  -0.241  0.6031  1.0574  1.1037
  493MOL0     C64997   6.925   7.447  -0.111  0.0083 -0.5129 -0.4452
  493MOL0     C64998   6.853   7.525   0.305  0.1472 -0.2226 -1.1312
  493MOL0     C64999   6.936   7.521   0.423  0.3235  0.1437  0.2092
  493MOL0     C65000   6.908   7.605   0.532  0.6119  0.3249  1.1515
  493MOL0     C65001   6.788   7.680   0.538  0.8317  1.2765  0.5635
  493MOL0     O65002   6.768   7.740   0.661 -0.1911 -0.1072  0.2756
  493MOL0     C65003   6.649   7.818   0.679  0.3258 -0.1240  0.3544
  493MOL0     C65004   6.576   7.791   0.811 -0.5998  0.0374  0.4243
  493MOL0     C65005   6.672   7.778   0.932  1.0520 -0.3438  0.0778
  493MOL0     C65006   6.584   7.710   1.044  0.1963 -0.0491  0.2817
  493MOL0     C65007   6.500   7.814   1.115  0.1930  0.0915 -0.5155
  493MOL0     C65008   6.431   7.894   1.178  1.0177  0.2803 -0.4958
  493MOL0     C65009   6.700   7.668   0.432  0.1731  0.5493  0.4902
  493MOL0     C65010   6.725   7.579   0.329  0.0698 -0.3762 -0.4577
  493MOL0     H65011   6.619   7.332  -0.031  0.0387  0.2503 -0.8429
  493MOL0     H65012   6.665   7.216  -0.272  0.4510 -1.8319  1.5212
  493MOL0     H65013   7.071   7.303  -0.437  0.6010 -1.1739  0.3091
  493MOL0     H65014   6.984   7.177  -0.538 -3.1539  1.1190 -1.6548
  493MOL0     H65015   6.941   7.080  -0.273  2.9506 -3.1755  1.6034
  493MOL0     H65016   7.093   7.167  -0.260 -1.6783  0.6222  1.1232
  493MOL0     H65017   7.184   6.968  -0.317 -0.2669 -4.1620 -2.7705
  493MOL0     H65018   7.178   7.043  -0.472  1.1131 -3.4881 -0.4002
  493MOL0     H65019   6.967   6.873  -0.357  1.5362 -1.1240  1.0509
  493MOL0     H65020   6.959   6.937  -0.523  0.7060  0.6160 -0.8506
  493MOL0     H65021   7.118   6.714  -0.429  1.1360  2.9377  2.3917
  493MOL0     H65022   7.200   6.823  -0.545  0.7297 -3.9902 -2.2834
  493MOL0     H65023   7.095   6.656  -0.691 -0.5843  0.6890 -1.0061
  493MOL0     H65024   7.021   6.800  -0.712 -0.6599 -0.6546 -0.9130
  493MOL0     H65025   6.827   6.725  -0.580 -1.2483 -1.0893 -0.2094
  493MOL0     H65026   6.866   6.590  -0.693 -1.7102  0.0973  1.3700
  493MOL0     H65027   6.929   6.576  -0.410 -2.5111  0.5284 -0.6450
  493MOL0     H65028   7.001   6.481  -0.550  0.2573  0.5117  0.0052
  493MOL0     H65029   6.842   6.370  -0.298  1.9630 -1.5298 -0.8800
  493MOL0     H65030   6.655   6.165  -0.252 -1.3272  0.6299  1.0916
  493MOL0     H65031   6.631   6.096  -0.414 -3.0733 -0.5465 -1.0704
  493MOL0     H65032   6.415   6.159  -0.432 -6.0616  0.5687  1.8347
  493MOL0     H65033   6.449   6.303  -0.332  2.4333  0.7676  2.3454
  493MOL0     H65034   6.443   6.028  -0.219  3.3450  2.5498  0.5887
  493MOL0     H65035   6.442   6.171  -0.131 -2.7948  2.1132  1.0400
  493MOL0     H65036   6.209   6.063  -0.285  0.4631  1.6425 -2.7057
  493MOL0     H65037   6.222   6.241  -0.266 -0.4245  0.5264  0.6538
  493MOL0     H65038   6.130   6.100   0.137 -0.2214 -0.4951 -0.2453
  493MOL0     H65039   5.901   6.079   0.209  0.8019 -0.9054 -0.2005
  493MOL0     H65040   5.427   6.312   0.081  0.2527 -0.6622 -0.3600
  493MOL0     H65041   5.186   6.264   0.150 -0.3012 -0.1820  1.2765
  493MOL0     H65042   4.971   6.197   0.161  0.7283  1.0023  1.0549
  493MOL0     H65043   5.070   6.135   0.288 -0.5850 -0.0357 -0.3073
  493MOL0     H65044   4.908   5.930   0.304  1.9133  0.4972  2.4542
  493MOL0     H65045   4.813   6.003   0.177 -1.7857 -2.4408  2.7129
  493MOL0     H65046   4.800   6.221   0.316  1.0439  1.9614  0.1299
  493MOL0     H65047   4.892   6.132   0.444 -2.7735 -5.7326  3.9183
  493MOL0     H65048   4.709   5.957   0.431  0.9974  0.0352 -0.8329
  493MOL0     H65049   4.684   6.093   0.531 -2.4876 -2.6823  1.1615
  493MOL0     H65050   4.569   6.021   0.263  0.2722 -1.0836  1.4619
  493MOL0     H65051   4.553   6.197   0.320  0.2264  0.4916  2.9034
  493MOL0     H65052   4.472   5.948   0.480 -2.6481 -0.8859  0.8296
  493MOL0     H65053   4.373   6.017   0.360  0.4759  0.9763 -1.1461
  493MOL0     H65054   4.494   6.182   0.589 -0.5067  1.8247  0.4069
  493MOL0     H65055   4.364   6.233   0.483 -2.2453 -0.8117  1.6834
  493MOL0     H65056   4.332   6.009   0.708  0.0245  3.1957  3.0330
  493MOL0     H65057   4.219   6.039   0.592 -1.2655  1.3807  0.7813
  493MOL0     H65058   5.252   5.859   0.041 -1.2051  0.9457 -0.3552
  493MOL0     H65059   5.495   5.919  -0.022 -0.8017 -0.3784 -0.1637
  493MOL0     H65060   5.770   6.235  -0.170  0.3098 -1.3002 -1.0191
  493MOL0     H65061   6.007   6.253  -0.244 -0.0868  2.0000  0.5516
  493MOL0     H65062   7.020   7.457  -0.298  1.1094  2.3196  2.7088
  493MOL0     H65063   7.013   7.496  -0.073 -0.4300 -0.7998  1.0016
  493MOL0     H65064   7.031   7.469   0.434  3.1852  5.1247  2.1888
  493MOL0     H65065   6.978   7.615   0.615  2.8026 -0.1361 -0.5417
  493MOL0     H65066   6.580   7.785   0.601  1.1554  1.2412 -1.0145
  493MOL0     H65067   6.662   7.926   0.671 -1.5489  0.3502  2.6274
  493MOL0     H65068   6.503   7.872   0.823 -1.1236 -0.6674  2.3363
  493MOL0     H65069   6.528   7.695   0.794 -0.7160 -0.0268  1.0856
  493MOL0     H65070   6.710   7.875   0.966 -2.3027  1.3774 -0.6400
  493MOL0     H65071   6.758   7.714   0.909  1.1050 -0.0076 -0.7125
  493MOL0     H65072   6.522   7.627   1.010 -3.1986  1.7383  1.5629
  493MOL0     H65073   6.646   7.664   1.121 -3.4407 -3.3449  1.5364
  493MOL0     H65074   6.344   7.948   1.211  0.7879  0.5870 -1.5779
  493MOL0     H65075   6.604   7.717   0.421  0.6512  1.9419  2.0682
  493MOL0     H65076   6.645   7.554   0.261  1.7051 -2.8627 -1.6202
  494MOL0     O65077   4.895   9.425  11.256  0.4878  0.0919 -0.1106
  494MOL0     C65078   4.798   9.359  11.298 -0.5555  0.3476  0.1647
  494MOL0     O65079   4.801   9.222  11.313  0.7140 -0.5077 -1.2237
  494MOL0     C65080   4.907   9.144  11.277  0.0731 -0.3796  0.3352
  494MOL0     C65081   4.875   9.038  11.200  0.8387 -0.9590  0.3365
  494MOL0     C65082   4.966   8.936  11.165 -0.2149 -0.3561 -0.5865
  494MOL0     C65083   5.100   8.943  11.210  0.1750 -0.5980  0.0481
  494MOL0     O65084   5.191   8.845  11.185 -0.2749 -1.2198  0.1707
  494MOL0     C65085   5.172   8.748  11.081 -0.3053 -0.4929  1.1778
  494MOL0     C65086   5.304   8.704  11.026  0.6118  0.2288 -1.0006
  494MOL0     C65087   5.404   8.636  11.128  0.2578 -0.0166 -0.8443
  494MOL0     C65088   5.451   8.711  11.260 -0.0319  0.3627 -0.7109
  494MOL0     C65089   5.543   8.622  11.346 -0.9494  1.3062 -0.8504
  494MOL0     C65090   5.606   8.698  11.466 -0.3552 -0.5436  0.4449
  494MOL0     C65091   5.675   8.600  11.562  0.1141 -0.8331 -0.1465
  494MOL0     C65092   5.747   8.659  11.690  0.9240 -0.1602  0.4238
  494MOL0     N65093   5.670   8.749  11.776  1.3121 -0.5072 -0.7816
  494MOL0     C65094   5.703   8.872  11.819  0.0273 -1.3917 -0.5219
  494MOL0     C65095   5.592   8.924  11.883 -0.0116 -0.2108 -0.9300
  494MOL0     C65096   5.559   9.070  11.927 -0.0971 -0.0544  0.0668
  494MOL0     C65097   5.564   9.101  12.069  0.1996  0.6339 -1.0162
  494MOL0     C65098   5.687   9.038  12.141 -0.7698  0.4573 -0.0438
  494MOL0     C65099   5.677   9.057  12.297 -0.3220  0.2388  0.4538
  494MOL0     O65100   5.797   8.996  12.336 -0.1838  0.6247 -0.1519
  494MOL0     C65101   5.826   8.996  12.471  0.0799 -0.4445  0.8594
  494MOL0     C65102   5.745   8.938  12.574  0.0176  1.0315 -0.4057
  494MOL0     C65103   5.767   8.969  12.713  0.2541 -0.4426  0.0018
  494MOL0     C65104   5.888   9.031  12.747 -0.1060  0.1574  0.1981
  494MOL0     C65105   5.924   9.085  12.887 -0.9519  0.2938 -0.0401
  494MOL0     O65106   5.837   9.027  12.988 -0.5879  0.6719 -0.9197
  494MOL0     C65107   5.856   9.072  13.119  0.9177 -0.7983  0.9332
  494MOL0     C65108   5.784   9.191  13.147 -1.5958 -0.9057 -0.0451
  494MOL0     C65109   5.800   9.250  13.274 -0.0382  0.1475  0.3961
  494MOL0     C65110   5.890   9.206  13.372 -0.3643  0.0090  0.1097
  494MOL0     O65111   5.918   9.270  13.486 -0.4486 -0.0885  0.0698
  494MOL0     C65112   5.801   9.283  13.567  0.1804 -0.2105  0.1905
  494MOL0     C65113   5.744   9.421  13.576  0.5642  0.0282 -0.6141
  494MOL0     C65114   5.843   9.526  13.577 -0.1964 -0.6629 -0.2910
  494MOL0     C65115   5.779   9.667  13.570 -1.0987 -0.0047  0.0507
  494MOL0     C65116   5.875   9.784  13.621  0.3702  0.2560 -0.3993
  494MOL0     C65117   5.990   9.811  13.525  0.2831  0.0619 -0.8131
  494MOL0     C65118   6.087   9.923  13.556 -0.6082 -0.5723 -0.2843
  494MOL0     C65119   6.209   9.901  13.464 -0.3898  0.8275 -0.2729
  494MOL0    Cl65120   6.295   9.745  13.511 -0.2619 -0.6498 -0.3774
  494MOL0     C65121   5.973   9.102  13.338 -0.3723 -0.3374  0.7214
  494MOL0     C65122   5.943   9.024  13.221  0.2834  0.9419  0.3145
  494MOL0     O65123   6.020   9.163  12.913 -0.5058  0.5851  0.4635
  494MOL0     C65124   5.962   9.092  12.643 -0.5112  1.1290 -0.2695
  494MOL0     C65125   5.931   9.076  12.513  0.9054  0.6875 -0.0072
  494MOL0     N65126   5.500   8.824  11.891 -0.7802  0.6255  0.6243
  494MOL0     N65127   5.545   8.722  11.822  0.7560  0.2658  0.7198
  494MOL0     C65128   5.139   9.068  11.276  1.1055  0.8660  0.3603
  494MOL0     C65129   5.041   9.167  11.307  0.4196  0.6601 -1.0382
  494MOL0     C65130   4.679   9.430  11.363  0.5658 -0.3886 -1.0805
  494MOL0     C65131   4.659   9.570  11.361  0.2992 -0.1097 -0.2924
  494MOL0     C65132   4.546   9.642  11.415 -0.6826 -0.2074  0.0602
  494MOL0     C65133   4.459   9.572  11.492 -0.1537  0.1569  0.7930
  494MOL0     O65134   4.359   9.647  11.542  0.5538 -0.0334  0.4493
  494MOL0     C65135   4.309   9.597  11.669 -0.8325 -0.5664  0.3332
  494MOL0     C65136   4.190   9.686  11.708  0.3495  0.0647  0.1263
  494MOL0     C65137   4.239   9.810  11.793  0.4665  0.4317  0.2462
  494MOL0     C65138   4.127   9.873  11.881 -0.3600  0.5850  0.2103
  494MOL0     C65139   4.097   9.794  11.996 -0.0394  0.2199  0.9906
  494MOL0     C65140   4.074   9.724  12.092  0.1679  0.5496 -0.3634
  494MOL0     C65141   4.467   9.424  11.494  0.5306 -0.2611  0.5389
  494MOL0     C65142   4.571   9.350  11.428 -1.4940 -0.2918 -0.4559
  494MOL0     H65143   4.773   9.026  11.163  2.3555 -4.2216 -3.6255
  494MOL0     H65144   4.947   8.854  11.098 -1.7344 -1.3628  1.0084
  494MOL0     H65145   5.115   8.796  11.001  0.4525 -0.0457  0.9012
  494MOL0     H65146   5.117   8.663  11.122  0.3150 -1.8593 -0.6863
  494MOL0     H65147   5.366   8.779  10.976  3.6663 -0.6433  1.1788
  494MOL0     H65148   5.268   8.625  10.960  0.2076 -0.8864  0.4988
  494MOL0     H65149   5.490   8.606  11.068 -0.8297 -3.5210 -0.8710
  494MOL0     H65150   5.360   8.540  11.156  1.4726 -0.4968 -0.5056
  494MOL0     H65151   5.504   8.799  11.222 -1.2661  0.3873 -2.4454
  494MOL0     H65152   5.364   8.738  11.321  0.0196  1.5966 -1.1588
  494MOL0     H65153   5.620   8.574  11.285 -0.9611 -0.7960  0.6812
  494MOL0     H65154   5.489   8.537  11.390 -0.0247  0.8677 -0.5421
  494MOL0     H65155   5.523   8.740  11.523 -0.0627 -0.7055  0.9976
  494MOL0     H65156   5.677   8.776  11.438  1.7542 -2.2030  0.8820
  494MOL0     H65157   5.600   8.527  11.593 -0.4093 -1.3797 -2.4921
  494MOL0     H65158   5.759   8.555  11.508  1.1321  0.8691 -0.0735
  494MOL0     H65159   5.827   8.711  11.638 -0.3147  0.8653 -0.5303
  494MOL0     H65160   5.788   8.578  11.751  0.2654 -2.0481 -1.4842
  494MOL0     H65161   5.798   8.917  11.790  0.0416 -2.5357 -2.5142
  494MOL0     H65162   5.472   9.109  11.872  0.6111  0.6008 -0.6303
  494MOL0     H65163   5.631   9.146  11.894 -0.9397  1.7260  2.0657
  494MOL0     H65164   5.485   9.048  12.123  1.8776  1.9436  3.1383
  494MOL0     H65165   5.549   9.206  12.095  0.2354  0.6295 -0.9749
  494MOL0     H65166   5.702   8.930  12.131  5.2018  0.7592  1.7201
  494MOL0     H65167   5.779   9.089  12.109 -0.4501 -0.6413 -0.9181
  494MOL0     H65168   5.600   8.997  12.347 -0.7509 -0.4893 -1.0547
  494MOL0     H65169   5.672   9.166  12.312  1.1694  0.4879 -0.6495
  494MOL0     H65170   5.667   8.868  12.544 -0.5943  1.8717 -0.8166
  494MOL0     H65171   5.695   8.934  12.787 -2.9920 -0.9029 -3.0972
  494MOL0     H65172   5.715   9.246  13.084 -1.7549  1.1548  1.8191
  494MOL0     H65173   5.749   9.343  13.298  2.4846  2.3463 -2.0877
  494MOL0     H65174   5.839   9.267  13.668  1.9629  1.3050 -0.1847
  494MOL0     H65175   5.723   9.207  13.557 -1.6973  1.6067  0.3151
  494MOL0     H65176   5.677   9.421  13.662 -0.8903  2.1083 -1.6665
  494MOL0     H65177   5.681   9.437  13.488 -1.0294 -1.7749  0.1278
  494MOL0     H65178   5.921   9.512  13.502 -0.3771 -0.9211 -0.4353
  494MOL0     H65179   5.889   9.512  13.675  3.0635  0.5900 -1.5105
  494MOL0     H65180   5.735   9.685  13.471 -0.3777  0.3422 -0.2119
  494MOL0     H65181   5.702   9.655  13.647 -3.1523  1.1139 -1.6953
  494MOL0     H65182   5.925   9.748  13.711  0.7446  0.3977 -0.5494
  494MOL0     H65183   5.821   9.878  13.632  1.0184  0.4062  1.9112
  494MOL0     H65184   5.948   9.815  13.424 -0.2922  1.0752 -0.5512
  494MOL0     H65185   6.060   9.727  13.531  0.3060  0.0056 -1.7027
  494MOL0     H65186   6.046  10.022  13.531 -2.7793 -1.0314  1.1890
  494MOL0     H65187   6.129   9.932  13.656  0.9922  0.2738 -0.9928
  494MOL0     H65188   6.278   9.986  13.464 -0.5139  0.9411  0.5348
  494MOL0     H65189   6.172   9.880  13.363  0.6114 -0.7685 -0.3561
  494MOL0     H65190   6.043   9.064  13.411 -1.7077  0.2943  2.3910
  494MOL0     H65191   6.001   8.935  13.196  0.7993  1.7560 -1.5820
  494MOL0     H65192   6.034   9.166  12.676 -1.7554  1.4033  2.0279
  494MOL0     H65193   5.992   9.125  12.439 -2.1685  2.2718 -1.7171
  494MOL0     H65194   5.240   9.091  11.307  1.6433  1.2762 -1.5224
  494MOL0     H65195   5.077   9.252  11.364 -2.2688  3.4990 -3.2555
  494MOL0     H65196   4.726   9.626  11.296  0.1178 -2.2842 -2.4572
  494MOL0     H65197   4.530   9.746  11.388 -1.0784 -0.3385 -0.2256
  494MOL0     H65198   4.379   9.583  11.752 -0.9316  1.3129  0.7746
  494MOL0     H65199   4.264   9.499  11.652  0.7990 -0.9931 -2.0035
  494MOL0     H65200   4.152   9.730  11.615 -0.5883 -0.0782  0.4283
  494MOL0     H65201   4.117   9.616  11.752  0.8588  0.2918  1.3538
  494MOL0     H65202   4.268   9.886  11.720  1.2615 -1.6765 -1.7511
  494MOL0     H65203   4.328   9.784  11.851  0.1468  0.7827  0.9095
  494MOL0     H65204   4.146   9.976  11.911 -2.1628  0.7828  0.7891
  494MOL0     H65205   4.032   9.872  11.827 -0.1910  0.5639 -0.0877
  494MOL0     H65206   4.040   9.664  12.174 -1.2002 -1.5186 -2.3179
  494MOL0     H65207   4.383   9.369  11.536  0.6705  0.8318  2.4058
  494MOL0     H65208   4.584   9.242  11.422  0.3342 -0.1139 -0.3074
  495MOL0     O65209   9.705   5.728   5.310  0.6736  0.3123 -0.5894
  495MOL0     C65210   9.749   5.841   5.306 -0.0124 -0.6167  0.2620
  495MOL0     O65211   9.672   5.956   5.296 -0.8806 -0.0096  0.4960
  495MOL0     C65212   9.540   5.966   5.313  0.8702  0.5028 -0.2077
  495MOL0     C65213   9.458   5.879   5.377 -0.4771 -0.1752  0.4550
  495MOL0     C65214   9.326   5.908   5.406  0.3802  0.8751 -0.0867
  495MOL0     C65215   9.265   6.024   5.352  0.1725 -0.4329  0.1922
  495MOL0     O65216   9.136   6.057   5.386  0.6610 -0.1725 -0.0074
  495MOL0     C65217   9.083   6.173   5.324  0.2584 -1.0364  0.2270
  495MOL0     C65218   8.955   6.203   5.393 -0.3057 -0.3343 -0.5350
  495MOL0     C65219   8.907   6.352   5.370 -0.7986  0.3018  0.0066
  495MOL0     C65220   8.772   6.385   5.439 -0.3405  0.8280  0.3499
  495MOL0     C65221   8.716   6.524   5.425 -0.1746  0.1064  0.4869
  495MOL0     C65222   8.799   6.627   5.477 -0.6486 -0.1831  0.2203
  495MOL0     C65223   8.749   6.770   5.458 -0.4810  0.8028  0.3670
  495MOL0     C65224   8.845   6.862   5.526 -0.2421  0.4646 -0.4908
  495MOL0     N65225   8.808   7.000   5.477  0.0656 -0.4957 -0.5571
  495MOL0     C65226   8.706   7.083   5.525  0.0051  0.1200 -0.1257
  495MOL0     C65227   8.721   7.205   5.475  0.3754 -0.8262  0.9546
  495MOL0     C65228   8.666   7.342   5.512  0.1430 -0.6208 -0.0624
  495MOL0     C65229   8.519   7.358   5.479 -0.0145  0.2109 -0.0586
  495MOL0     C65230   8.496   7.506   5.421  1.3505  0.1885 -0.0221
  495MOL0     C65231   8.351   7.550   5.437  0.4732 -0.0939 -0.5733
  495MOL0     O65232   8.263   7.458   5.376  0.2696 -0.0188  0.3219
  495MOL0     C65233   8.218   7.493   5.243  0.1220 -0.4725 -0.5739
  495MOL0     C65234   8.078   7.500   5.230 -0.4122 -1.0464  0.2336
  495MOL0     C65235   8.019   7.511   5.103 -0.3276  0.1818 -0.2122
  495MOL0     C65236   8.099   7.506   4.986  0.4903  0.4739 -0.3993
  495MOL0     C65237   8.031   7.519   4.859 -0.8050 -0.4791 -0.0747
  495MOL0     O65238   8.105   7.491   4.749  0.3695 -0.4750  0.6980
  495MOL0     C65239   8.041   7.486   4.624 -0.6671 -0.0062  0.1671
  495MOL0     C65240   8.094   7.541   4.505  0.3022 -0.5034  0.1896
  495MOL0     C65241   8.035   7.513   4.381  0.2970 -0.2133 -0.4783
  495MOL0     C65242   7.916   7.445   4.372 -0.2133 -0.2410 -0.9806
  495MOL0     O65243   7.852   7.446   4.261  0.1445 -0.2095 -0.5170
  495MOL0     C65244   7.841   7.310   4.205  0.9495  0.0985  0.5284
  495MOL0     C65245   7.792   7.298   4.057  0.5838  0.2208 -1.0456
  495MOL0     C65246   7.641   7.318   4.041 -0.4210 -0.4779  0.9856
  495MOL0     C65247   7.622   7.357   3.894  0.8057  0.8547 -0.0859
  495MOL0     C65248   7.609   7.223   3.814  1.1675 -0.3561 -0.4871
  495MOL0     C65249   7.462   7.170   3.828 -0.3960  0.0219  0.1619
  495MOL0     C65250   7.453   7.052   3.732  0.2225 -1.0656  0.4559
  495MOL0     C65251   7.534   6.932   3.779  0.3376  0.1749 -0.9709
  495MOL0    Cl65252   7.466   6.797   3.681  0.0911  0.0699  0.1684
  495MOL0     C65253   7.867   7.389   4.496 -0.4365  0.0935  0.2400
  495MOL0     C65254   7.941   7.394   4.611  0.5617  0.4682 -0.1005
  495MOL0     O65255   7.917   7.560   4.855 -0.2498  0.2426 -0.3321
  495MOL0     C65256   8.244   7.510   4.997  0.3586 -0.1747  1.0372
  495MOL0     C65257   8.296   7.501   5.123  0.0228 -0.3957 -0.5088
  495MOL0     N65258   8.830   7.203   5.394 -0.1426 -0.6725 -1.2767
  495MOL0     N65259   8.890   7.084   5.395  0.0932  1.1371  0.0344
  495MOL0     C65260   9.350   6.106   5.267 -0.9343  0.9328 -0.7654
  495MOL0     C65261   9.483   6.077   5.250  0.8975  0.4018 -0.3676
  495MOL0     C65262   9.892   5.858   5.303  0.6816  0.1466 -0.0212
  495MOL0     C65263   9.940   5.983   5.275 -0.5298 -1.0439 -0.0220
  495MOL0     C65264  10.077   6.001   5.258 -0.2423 -0.1278 -0.0536
  495MOL0     C65265  10.170   5.892   5.273  0.5624 -0.5064  0.0727
  495MOL0     O65266  10.301   5.913   5.249  0.1315  0.0911 -0.1803
  495MOL0     C65267  10.388   5.820   5.187  0.6403 -0.6880 -0.1167
  495MOL0     C65268  10.489   5.780   5.293  1.1982  0.3567  0.8562
  495MOL0     C65269  10.573   5.898   5.343 -0.2139  0.0629  0.6929
  495MOL0     C65270  10.720   5.853   5.340  0.1219 -0.5570 -0.8545
  495MOL0     C65271  10.789   5.881   5.215  0.7341  0.4306  0.5637
  495MOL0     C65272  10.848   5.896   5.109  0.9507  0.3304  0.3902
  495MOL0     C65273  10.115   5.765   5.305  0.2452 -0.2204  0.0306
  495MOL0     C65274   9.981   5.749   5.325  0.4031 -0.1230  0.7687
  495MOL0     H65275   9.503   5.794   5.426  1.8198  1.4921  1.4115
  495MOL0     H65276   9.269   5.843   5.471 -0.1989  0.9575 -0.5052
  495MOL0     H65277   9.068   6.160   5.217 -1.3760  1.6460  0.0291
  495MOL0     H65278   9.151   6.257   5.344  1.1461 -1.3403 -1.3757
  495MOL0     H65279   8.963   6.194   5.502 -0.5566 -0.0050 -0.4867
  495MOL0     H65280   8.874   6.138   5.359 -0.1991 -2.2916  2.5441
  495MOL0     H65281   8.893   6.357   5.262 -0.4020 -1.8046 -0.1913
  495MOL0     H65282   8.985   6.424   5.396 -0.4296  0.3459 -1.1772
  495MOL0     H65283   8.697   6.316   5.400  0.0189  0.3434  0.5105
  495MOL0     H65284   8.783   6.372   5.547  5.1778  1.1525  0.1524
  495MOL0     H65285   8.622   6.527   5.480 -0.7031  0.0289 -0.4032
  495MOL0     H65286   8.700   6.548   5.320 -0.8035  0.4828  0.6621
  495MOL0     H65287   8.895   6.616   5.426 -0.5735  0.7069  0.1483
  495MOL0     H65288   8.823   6.619   5.584  1.2600  2.8048  0.1600
  495MOL0     H65289   8.741   6.801   5.353 -0.5138  0.9633  0.4159
  495MOL0     H65290   8.652   6.779   5.507 -2.4748 -1.0166 -2.9006
  495MOL0     H65291   8.944   6.827   5.496 -0.1764 -2.5999  2.7544
  495MOL0     H65292   8.830   6.864   5.634 -0.6518 -0.3386 -0.5294
  495MOL0     H65293   8.640   7.053   5.606  0.1129  1.7402  0.6032
  495MOL0     H65294   8.737   7.424   5.496  0.4141 -0.5936  1.1615
  495MOL0     H65295   8.662   7.343   5.621 -2.1737 -1.7628 -0.0840
  495MOL0     H65296   8.465   7.336   5.572  0.7416 -0.9756  0.1118
  495MOL0     H65297   8.474   7.293   5.403 -0.2601  1.0868 -0.6870
  495MOL0     H65298   8.558   7.574   5.480  2.2170  1.0776 -1.8595
  495MOL0     H65299   8.515   7.503   5.313 -0.6673 -3.0842 -0.4269
  495MOL0     H65300   8.336   7.651   5.399  0.1344  1.0744  2.3979
  495MOL0     H65301   8.325   7.550   5.543  1.9987 -1.1606 -0.1584
  495MOL0     H65302   8.031   7.505   5.328  2.2679  1.0602  1.5592
  495MOL0     H65303   7.914   7.538   5.092 -0.1914  0.6128 -0.4694
  495MOL0     H65304   8.174   7.613   4.520 -1.6131  2.2817 -1.8569
  495MOL0     H65305   8.076   7.567   4.297 -1.0327  1.4100 -0.1430
  495MOL0     H65306   7.769   7.255   4.266  2.5693 -1.1115  1.4609
  495MOL0     H65307   7.931   7.248   4.205 -0.2298 -1.8046 -1.8268
  495MOL0     H65308   7.811   7.194   4.031  0.2000 -0.3131  0.7344
  495MOL0     H65309   7.855   7.366   3.997  0.7880  1.8130  0.8754
  495MOL0     H65310   7.621   7.410   4.096  2.2979  0.4079  0.6455
  495MOL0     H65311   7.573   7.239   4.072 -0.9891 -0.9137 -1.1577
  495MOL0     H65312   7.530   7.413   3.878  0.6550  1.1387  1.6012
  495MOL0     H65313   7.710   7.408   3.854  0.0202  0.6595 -2.2172
  495MOL0     H65314   7.681   7.148   3.848  2.1808  0.3185 -1.1010
  495MOL0     H65315   7.631   7.249   3.710 -2.5102 -0.0276 -1.3254
  495MOL0     H65316   7.383   7.242   3.803  0.3233  0.2262 -1.6878
  495MOL0     H65317   7.445   7.134   3.930  0.8688  2.7313  1.4369
  495MOL0     H65318   7.349   7.021   3.724  0.2681 -1.4171  1.2254
  495MOL0     H65319   7.489   7.098   3.639  0.8771  2.4438  2.2635
  495MOL0     H65320   7.510   6.919   3.885 -0.1830  4.1473 -0.4567
  495MOL0     H65321   7.641   6.925   3.760  0.7133  0.3576  0.8936
  495MOL0     H65322   7.773   7.334   4.491 -2.4976  2.9506  3.1869
  495MOL0     H65323   7.886   7.355   4.697 -0.5413 -1.1143 -1.4585
  495MOL0     H65324   8.298   7.497   4.903 -0.2278 -0.6558  0.7610
  495MOL0     H65325   8.402   7.479   5.120  0.4129  1.1317  0.6682
  495MOL0     H65326   9.312   6.191   5.212  1.1126  1.6793 -1.1241
  495MOL0     H65327   9.528   6.162   5.201  1.8976 -0.5112 -1.0825
  495MOL0     H65328   9.879   6.070   5.251 -1.8272 -2.1618 -0.9348
  495MOL0     H65329  10.128   6.095   5.237  0.7731 -0.2105  1.8403
  495MOL0     H65330  10.433   5.877   5.105 -0.5411 -1.1286 -1.1025
  495MOL0     H65331  10.331   5.739   5.141  2.1438 -2.3904  0.9109
  495MOL0     H65332  10.441   5.724   5.373  0.5102 -0.4355 -0.0913
  495MOL0     H65333  10.553   5.705   5.246 -2.2317 -2.2084 -0.1105
  495MOL0     H65334  10.540   5.922   5.444 -1.5813 -2.0703  0.7989
  495MOL0     H65335  10.563   5.987   5.280 -0.0864 -0.3355  0.1019
  495MOL0     H65336  10.775   5.923   5.404  0.9412 -1.6209 -0.3709
  495MOL0     H65337  10.734   5.754   5.384  0.3270  0.5554  1.7528
  495MOL0     H65338  10.880   5.905   5.007 -1.0876 -5.1933 -1.1050
  495MOL0     H65339  10.193   5.697   5.337 -0.4128  0.2365  2.9302
  495MOL0     H65340   9.941   5.659   5.370 -3.0359 -0.6451 -2.7497
  496MOL0     O65341  11.086   4.941   9.375  0.3358  0.3037 -0.8725
  496MOL0     C65342  11.077   4.991   9.494 -0.9360  0.1271 -0.4107
  496MOL0     O65343  11.169   5.062   9.563  0.2416 -0.7076  0.1814
  496MOL0     C65344  11.277   5.117   9.495 -0.5295  0.1825 -1.2416
  496MOL0     C65345  11.268   5.156   9.365  0.1026 -0.0140  0.5708
  496MOL0     C65346  11.380   5.225   9.309 -0.4437  0.0210 -0.3011
  496MOL0     C65347  11.502   5.255   9.378 -0.3845 -1.0655 -0.9290
  496MOL0     O65348  11.602   5.341   9.334 -0.2997 -0.2206  0.2479
  496MOL0     C65349  11.671   5.298   9.224 -0.0209 -0.7582  0.9793
  496MOL0     C65350  11.761   5.415   9.179  0.6108 -0.1119 -0.2884
  496MOL0     C65351  11.914   5.386   9.184 -0.0157 -0.0218 -0.6826
  496MOL0     C65352  11.982   5.425   9.317 -0.2927 -1.5176  0.9584
  496MOL0     C65353  12.009   5.304   9.413 -0.7104  0.0256  0.3538
  496MOL0     C65354  11.885   5.282   9.506 -0.3389 -1.6067  0.6016
  496MOL0     C65355  11.911   5.178   9.622  0.1796 -0.6147  1.0811
  496MOL0     C65356  11.948   5.039   9.570  0.1571  1.5683 -0.3418
  496MOL0     N65357  11.868   4.990   9.453 -0.7535 -0.2146 -0.2147
  496MOL0     C65358  11.738   4.953   9.456 -0.7108  0.4220  0.2337
  496MOL0     C65359  11.718   4.894   9.334  0.5616  1.0735 -0.3820
  496MOL0     C65360  11.593   4.825   9.280 -0.1100 -0.3339 -0.7793
  496MOL0     C65361  11.464   4.828   9.373  0.1478 -0.4713  0.0141
  496MOL0     C65362  11.461   4.705   9.480  0.0167 -0.1131  0.2026
  496MOL0     C65363  11.326   4.683   9.533  0.2038 -0.2481  0.6362
  496MOL0     O65364  11.334   4.571   9.621  0.5227  0.5915 -0.1807
  496MOL0     C65365  11.226   4.578   9.702 -0.2714 -0.0591  0.9037
  496MOL0     C65366  11.227   4.642   9.825 -0.1935  0.8226 -1.0452
  496MOL0     C65367  11.117   4.669   9.907 -0.3623  0.5654  0.2194
  496MOL0     C65368  10.989   4.606   9.870 -0.0788  0.7688  1.1126
  496MOL0     C65369  10.865   4.644   9.942 -0.4792 -0.4457  0.0119
  496MOL0     O65370  10.869   4.706  10.059 -0.2958  0.0709 -0.2032
  496MOL0     C65371  10.762   4.706  10.147  0.6806  0.3344  0.7475
  496MOL0     C65372  10.776   4.649  10.276  0.2895 -0.9746 -0.7899
  496MOL0     C65373  10.661   4.625  10.353  0.1140 -0.1897 -0.4075
  496MOL0     C65374  10.541   4.676  10.310  0.1379 -1.0309  0.0971
  496MOL0     O65375  10.432   4.651  10.384 -0.6988  0.1365  0.0708
  496MOL0     C65376  10.370   4.523  10.360  0.4240  0.5502  1.1841
  496MOL0     C65377  10.234   4.570  10.322  0.9236  0.7745 -0.0910
  496MOL0     C65378  10.137   4.465  10.269 -0.4592  0.3132  0.1650
  496MOL0     C65379  10.008   4.531  10.214  0.5774 -0.8967 -0.4115
  496MOL0     C65380   9.907   4.422  10.160 -0.5033  0.1323 -0.1148
  496MOL0     C65381   9.772   4.462  10.115  0.6584 -0.5112 -0.1384
  496MOL0     C65382   9.668   4.353  10.073 -0.2668 -0.2561 -0.2255
  496MOL0     C65383   9.643   4.263  10.201  0.6674  0.6982  0.6433
  496MOL0    Cl65384   9.516   4.144  10.152 -0.8031 -0.0617 -0.1959
  496MOL0     C65385  10.520   4.743  10.180 -0.6889 -0.0975 -0.0277
  496MOL0     C65386  10.636   4.758  10.105  1.4781 -0.5183  0.8030
  496MOL0     O65387  10.767   4.593   9.889  0.4769  0.3220 -0.2088
  496MOL0     C65388  10.987   4.536   9.738  0.1325 -0.9489  0.6578
  496MOL0     C65389  11.111   4.515   9.661 -0.1103 -0.6194  0.0621
  496MOL0     N65390  11.833   4.914   9.260  0.2749 -0.1899  0.9828
  496MOL0     N65391  11.917   4.980   9.323  0.3782  0.6592  0.2871
  496MOL0     C65392  11.512   5.197   9.508  0.3904  0.8072  0.9882
  496MOL0     C65393  11.393   5.136   9.565  0.2869 -0.6733  0.1720
  496MOL0     C65394  10.949   4.968   9.567  0.6857  0.7047 -0.4457
  496MOL0     C65395  10.935   5.017   9.705  0.4604 -1.3175  0.1135
  496MOL0     C65396  10.802   5.008   9.767 -0.0491  0.6716  0.5135
  496MOL0     C65397  10.709   4.918   9.710 -0.2010 -0.0304 -0.2085
  496MOL0     O65398  10.598   4.909   9.784  0.6339 -0.7563 -0.9429
  496MOL0     C65399  10.482   4.878   9.704  0.4021 -0.1875 -1.2520
  496MOL0     C65400  10.359   4.901   9.798  1.0089 -1.2251  0.3239
  496MOL0     C65401  10.232   4.931   9.712 -1.1742 -0.3308 -0.0853
  496MOL0     C65402  10.095   4.958   9.781 -0.8368 -0.1260 -0.6837
  496MOL0     C65403  10.114   5.039   9.903 -0.6904 -0.5646 -0.7407
  496MOL0     C65404  10.137   5.109   9.994 -0.0116 -0.4240 -0.0411
  496MOL0     C65405  10.726   4.867   9.580 -0.1834 -0.7677  0.3541
  496MOL0     C65406  10.844   4.888   9.510 -0.3049  0.1311 -0.2083
  496MOL0     H65407  11.179   5.146   9.304  0.2855 -1.8718  0.5441
  496MOL0     H65408  11.364   5.285   9.220  0.3827  0.9815  0.1711
  496MOL0     H65409  11.607   5.273   9.140 -1.0797  0.4260  1.3977
  496MOL0     H65410  11.733   5.210   9.242  1.7216  0.0030 -0.9498
  496MOL0     H65411  11.737   5.509   9.228  2.2714 -0.1145  0.5975
  496MOL0     H65412  11.732   5.441   9.076 -1.3066 -3.8588 -0.8582
  496MOL0     H65413  11.970   5.442   9.109  2.2782 -1.4227 -0.1269
  496MOL0     H65414  11.937   5.280   9.164  3.8894  0.4618  0.3684
  496MOL0     H65415  12.081   5.461   9.291 -1.2733  0.3326 -0.4338
  496MOL0     H65416  11.932   5.510   9.363 -1.3700 -2.1311  0.9641
  496MOL0     H65417  12.095   5.327   9.477 -0.5990  2.3884 -0.5462
  496MOL0     H65418  12.025   5.215   9.353  2.0416 -1.6668  3.2867
  496MOL0     H65419  11.796   5.253   9.450 -0.1875 -0.6397 -0.1628
  496MOL0     H65420  11.859   5.376   9.556 -0.8034 -0.8117 -1.0478
  496MOL0     H65421  11.982   5.216   9.695  0.4990  1.7528 -0.3591
  496MOL0     H65422  11.816   5.163   9.673  0.3750  0.0085  1.6390
  496MOL0     H65423  11.946   4.972   9.656  1.8539  0.1928 -1.2927
  496MOL0     H65424  12.054   5.048   9.542  0.1606 -1.2312 -1.6342
  496MOL0     H65425  11.664   4.973   9.533 -0.2538 -1.5572  1.2685
  496MOL0     H65426  11.624   4.722   9.260 -2.3614 -0.9201 -1.5559
  496MOL0     H65427  11.567   4.877   9.188 -2.0361  2.7291  1.3286
  496MOL0     H65428  11.381   4.822   9.302 -0.7547 -1.5279  1.1118
  496MOL0     H65429  11.454   4.924   9.425 -1.4389 -0.2540 -0.6371
  496MOL0     H65430  11.483   4.618   9.418  0.3356  0.2881 -0.2611
  496MOL0     H65431  11.531   4.714   9.564 -1.4726 -0.3937  1.5143
  496MOL0     H65432  11.255   4.673   9.450 -0.3328  3.6263  0.4459
  496MOL0     H65433  11.300   4.774   9.588  2.0513  0.2854  0.6963
  496MOL0     H65434  11.310   4.692   9.874 -0.2083 -2.4032  2.8316
  496MOL0     H65435  11.119   4.732   9.995 -1.9988 -3.4422  3.4609
  496MOL0     H65436  10.870   4.617  10.321 -0.3866 -2.8991 -0.6292
  496MOL0     H65437  10.656   4.568  10.445  0.1456  1.3837  0.6185
  496MOL0     H65438  10.386   4.449  10.440  4.1989 -1.6284 -1.2757
  496MOL0     H65439  10.417   4.471  10.276 -1.3570  0.1600  0.3786
  496MOL0     H65440  10.240   4.643  10.241 -0.8479 -0.0133 -0.9847
  496MOL0     H65441  10.183   4.606  10.412 -2.7345  0.7930 -1.9734
  496MOL0     H65442  10.105   4.401  10.351 -0.8919  1.7803  1.1787
  496MOL0     H65443  10.195   4.405  10.198  2.2782  0.7215  1.9433
  496MOL0     H65444   9.961   4.575  10.303 -1.5835 -4.1358  0.1982
  496MOL0     H65445  10.013   4.609  10.137  2.0634 -1.5643 -1.0356
  496MOL0     H65446   9.893   4.346  10.238  2.6167  0.9763  1.4874
  496MOL0     H65447   9.940   4.379  10.065 -0.3637  2.3564 -1.1475
  496MOL0     H65448   9.765   4.550  10.050  0.0321 -0.6641 -0.2853
  496MOL0     H65449   9.725   4.508  10.202 -0.0109 -0.6762 -0.4013
  496MOL0     H65450   9.573   4.399  10.040 -1.4835 -2.3460  0.2054
  496MOL0     H65451   9.708   4.294   9.990  0.0731  0.3666 -0.5174
  496MOL0     H65452   9.618   4.318  10.293  1.2324  0.5424  0.8916
  496MOL0     H65453   9.732   4.204  10.224 -0.0312  0.1725  2.1991
  496MOL0     H65454  10.423   4.782  10.150 -0.3777 -0.6105 -1.7758
  496MOL0     H65455  10.632   4.814  10.012 -0.5873  1.2918  1.8776
  496MOL0     H65456  10.899   4.477   9.714 -0.0071 -0.5645  0.2187
  496MOL0     H65457  11.109   4.462   9.567 -0.7170  0.5485 -0.6141
  496MOL0     H65458  11.606   5.215   9.559  1.7179  0.3335 -1.1527
  496MOL0     H65459  11.390   5.097   9.666 -2.0825 -0.1404  0.3756
  496MOL0     H65460  11.009   5.082   9.751  1.7425 -2.2954 -0.5058
  496MOL0     H65461  10.775   5.066   9.854 -0.8044 -1.0247  1.4473
  496MOL0     H65462  10.473   4.777   9.664  1.2097 -0.2646 -1.2708
  496MOL0     H65463  10.469   4.946   9.619  0.2491  3.4204  1.4024
  496MOL0     H65464  10.352   4.807   9.854 -1.5778 -0.6055  1.1360
  496MOL0     H65465  10.381   4.980   9.870  0.1151 -2.3023  1.8301
  496MOL0     H65466  10.223   4.863   9.627 -0.0332  0.9440 -1.2704
  496MOL0     H65467  10.259   5.024   9.661 -0.6134  1.6320  3.4137
  496MOL0     H65468  10.035   5.014   9.709  0.5407 -0.8662 -2.4968
  496MOL0     H65469  10.039   4.868   9.808 -0.9687 -0.1318 -0.9769
  496MOL0     H65470  10.149   5.176  10.077  1.1249 -0.0286 -0.5139
  496MOL0     H65471  10.650   4.801   9.540 -0.9644 -0.3969  1.1885
  496MOL0     H65472  10.853   4.838   9.414 -4.0271 -2.7945  0.7015
  497MOL0     O65473   1.174   3.776   2.352  0.2597  0.5838 -0.3262
  497MOL0     C65474   1.144   3.865   2.275 -0.2172  0.5571 -0.1378
  497MOL0     O65475   1.112   3.994   2.303 -0.5040  0.1758  0.6411
  497MOL0     C65476   1.146   4.030   2.429  0.0839  0.1981 -0.3666
  497MOL0     C65477   1.262   4.096   2.453  0.1284  0.0790  0.3190
  497MOL0     C65478   1.296   4.148   2.581  2.1476  0.4427 -0.0617
  497MOL0     C65479   1.206   4.126   2.689 -0.0914 -0.1137 -0.6539
  497MOL0     O65480   1.246   4.190   2.802  0.1617  0.2884  0.1902
  497MOL0     C65481   1.164   4.304   2.840  0.3069 -0.7841 -0.3200
  497MOL0     C65482   1.087   4.260   2.961 -0.8075 -0.3070  1.4723
  497MOL0     C65483   0.960   4.339   2.989 -0.6015 -0.1144 -0.0960
  497MOL0     C65484   0.977   4.485   3.027 -0.1669 -0.9366  0.1533
  497MOL0     C65485   0.978   4.574   2.901  0.0335  1.3671  0.3599
  497MOL0     C65486   0.846   4.602   2.831  0.5847 -0.4136 -0.0565
  497MOL0     C65487   0.726   4.652   2.914 -0.5715  0.6934  1.0100
  497MOL0     C65488   0.605   4.673   2.828 -0.1784  0.5311 -0.4850
  497MOL0     N65489   0.622   4.739   2.695  0.5251 -0.3667  1.1828
  497MOL0     C65490   0.709   4.844   2.661 -0.1006 -0.0811 -0.9248
  497MOL0     C65491   0.730   4.837   2.528 -0.6150  0.1522 -0.4839
  497MOL0     C65492   0.852   4.913   2.473  0.0831  0.3369  0.0904
  497MOL0     C65493   0.900   4.836   2.336  0.0012  0.4155  0.0726
  497MOL0     C65494   1.036   4.873   2.294 -0.3073  0.5675  0.2342
  497MOL0     C65495   1.061   5.027   2.277 -0.5297  0.4645 -0.6114
  497MOL0     O65496   1.004   5.055   2.147  0.3442 -0.6819 -0.2476
  497MOL0     C65497   1.045   5.159   2.068 -0.0709  0.3208 -0.4665
  497MOL0     C65498   1.137   5.260   2.108  0.5520  0.0636 -0.5939
  497MOL0     C65499   1.159   5.372   2.022 -0.1771 -0.3250  0.4614
  497MOL0     C65500   1.107   5.380   1.893  0.1297 -0.6156  1.1526
  497MOL0     C65501   1.143   5.488   1.798 -0.6116  0.0411 -0.7228
  497MOL0     O65502   1.101   5.457   1.673  0.1656 -0.3332  0.4433
  497MOL0     C65503   1.097   5.548   1.570 -0.0352 -0.3268  0.8247
  497MOL0     C65504   1.051   5.491   1.454 -0.0538  0.1173  0.4320
  497MOL0     C65505   1.032   5.569   1.344 -0.1167 -0.2147  0.1532
  497MOL0     C65506   1.062   5.705   1.338  0.0388  0.5399 -0.2235
  497MOL0     O65507   1.035   5.781   1.233  0.0648  1.7974 -0.3804
  497MOL0     C65508   0.914   5.764   1.167  0.6683  0.7195  0.6020
  497MOL0     C65509   0.911   5.876   1.054  0.3236  0.0467 -0.5232
  497MOL0     C65510   0.789   5.855   0.968  0.3476  0.0600  0.4037
  497MOL0     C65511   0.799   5.958   0.859  0.5463 -0.4257 -0.1914
  497MOL0     C65512   0.669   5.968   0.782 -0.1319  0.3399  1.1775
  497MOL0     C65513   0.662   6.065   0.664 -0.4657  0.2052 -0.6508
  497MOL0     C65514   0.520   6.069   0.608  0.2230 -0.8091  0.7544
  497MOL0     C65515   0.527   6.128   0.468  0.3689  0.0934  0.3037
  497MOL0    Cl65516   0.355   6.123   0.419  0.1359 -0.0183  0.2909
  497MOL0     C65517   1.136   5.752   1.446 -0.4040 -0.6642 -0.3262
  497MOL0     C65518   1.150   5.683   1.570  0.0428 -0.3606  0.4297
  497MOL0     O65519   1.205   5.591   1.839  0.7249 -0.2521  0.7525
  497MOL0     C65520   1.017   5.277   1.860 -0.5265 -0.6988 -0.9209
  497MOL0     C65521   0.981   5.173   1.945  0.0343 -0.1840 -0.4080
  497MOL0     N65522   0.643   4.731   2.475 -0.1251 -0.1087  0.7110
  497MOL0     N65523   0.592   4.676   2.578  0.6979 -0.0298 -0.0511
  497MOL0     C65524   1.093   4.046   2.664 -0.8763  0.1132 -0.2429
  497MOL0     C65525   1.055   4.004   2.537  0.0441  0.1226  0.3742
  497MOL0     C65526   1.160   3.837   2.128 -0.9055 -0.2042  0.2316
  497MOL0     C65527   1.217   3.718   2.079  0.9108 -0.5350  0.1449
  497MOL0     C65528   1.222   3.688   1.941 -0.4530  0.0616 -0.1991
  497MOL0     C65529   1.188   3.785   1.846  0.0452 -0.6344 -0.6000
  497MOL0     O65530   1.218   3.761   1.715  0.2793  0.0839  0.3039
  497MOL0     C65531   1.262   3.866   1.621  0.1431 -0.5693 -0.1650
  497MOL0     C65532   1.156   3.938   1.538 -0.1698  0.0669 -0.0844
  497MOL0     C65533   1.079   3.846   1.438  0.5422 -0.8383 -0.3331
  497MOL0     C65534   0.974   3.906   1.346 -0.5088  0.0726 -0.1938
  497MOL0     C65535   0.926   3.793   1.265  0.4239  0.1126 -0.5691
  497MOL0     C65536   0.880   3.696   1.217  0.5421 -0.9866  0.8424
  497MOL0     C65537   1.134   3.911   1.895 -0.7415  0.0167 -1.4171
  497MOL0     C65538   1.127   3.936   2.037  0.2913  0.0313 -0.1709
  497MOL0     H65539   1.317   4.099   2.360  0.6537 -0.3431  0.6101
  497MOL0     H65540   1.384   4.209   2.600  4.1260 -2.1127 -0.4863
  497MOL0     H65541   1.089   4.335   2.766 -0.9978  2.8967  2.2740
  497MOL0     H65542   1.222   4.395   2.855  0.7893 -1.3874  1.8247
  497MOL0     H65543   1.163   4.260   3.039 -0.2033 -1.0253  0.9083
  497MOL0     H65544   1.060   4.156   2.940  0.3764 -0.4691  0.6038
  497MOL0     H65545   0.913   4.275   3.065  1.7469 -2.1505 -0.2280
  497MOL0     H65546   0.892   4.328   2.904  1.6376 -3.1364 -1.6981
  497MOL0     H65547   0.899   4.517   3.097  1.3217  3.0552  0.2194
  497MOL0     H65548   1.065   4.506   3.088 -1.8619  0.1763  2.3650
  497MOL0     H65549   1.047   4.537   2.825  0.2746  0.2102  1.1174
  497MOL0     H65550   1.008   4.671   2.941 -2.0099  1.6196  1.4082
  497MOL0     H65551   0.819   4.504   2.789 -0.5209  0.5387 -1.6841
  497MOL0     H65552   0.865   4.668   2.746 -0.3157 -0.8814 -0.6449
  497MOL0     H65553   0.696   4.586   2.996 -2.3030 -1.0382 -0.8835
  497MOL0     H65554   0.736   4.749   2.963 -2.5141  1.5913 -0.2433
  497MOL0     H65555   0.536   4.740   2.879  0.7966  0.3429  1.1530
  497MOL0     H65556   0.546   4.581   2.822 -1.7493  1.3827  0.9338
  497MOL0     H65557   0.776   4.890   2.733  2.1366 -2.9696 -1.0144
  497MOL0     H65558   0.929   4.910   2.550 -1.4801 -0.3641  1.6965
  497MOL0     H65559   0.817   5.012   2.444 -0.8827 -0.1390 -0.4229
  497MOL0     H65560   0.833   4.852   2.250 -0.3786  0.1797  0.3241
  497MOL0     H65561   0.908   4.728   2.349 -1.6344  0.2186 -0.3089
  497MOL0     H65562   1.115   4.832   2.356 -0.9512  1.3519  1.6325
  497MOL0     H65563   1.035   4.825   2.196 -2.2110 -2.1876  1.4746
  497MOL0     H65564   1.169   5.044   2.269 -0.3386 -1.1188 -1.8458
  497MOL0     H65565   1.031   5.090   2.362  2.6225  2.4398 -0.8075
  497MOL0     H65566   1.168   5.270   2.211  1.7688  0.3117 -0.9585
  497MOL0     H65567   1.216   5.459   2.055  0.9457 -1.0850  0.5390
  497MOL0     H65568   0.992   5.401   1.465 -3.1595  1.1775 -4.5271
  497MOL0     H65569   0.985   5.524   1.257 -1.2896  2.1921 -0.5817
  497MOL0     H65570   0.841   5.789   1.244  1.5047 -0.0251  1.6594
  497MOL0     H65571   0.906   5.665   1.122 -2.4192 -0.0189  2.5010
  497MOL0     H65572   1.006   5.863   1.000  1.1704 -0.2135  0.9813
  497MOL0     H65573   0.928   5.977   1.092  0.5869  0.9485 -2.8687
  497MOL0     H65574   0.697   5.882   1.019 -0.1748  0.8218 -0.8903
  497MOL0     H65575   0.785   5.757   0.919 -1.8032  2.0645 -4.0368
  497MOL0     H65576   0.827   6.055   0.903  1.0567  0.3317 -2.0765
  497MOL0     H65577   0.877   5.936   0.785  2.0439  3.0703  0.1187
  497MOL0     H65578   0.589   5.982   0.855 -1.2062 -1.2174  0.3469
  497MOL0     H65579   0.653   5.864   0.751 -3.0966  1.0489 -0.0044
  497MOL0     H65580   0.739   6.030   0.595  0.5804  1.7836 -0.3425
  497MOL0     H65581   0.699   6.163   0.696  0.7542 -0.3155 -0.4169
  497MOL0     H65582   0.472   5.971   0.609  2.1146 -1.9264 -2.5648
  497MOL0     H65583   0.463   6.135   0.675 -0.9392 -1.5214  0.4916
  497MOL0     H65584   0.588   6.061   0.406  2.3132  0.4970  1.6820
  497MOL0     H65585   0.565   6.230   0.477 -0.7181  0.4649  0.7299
  497MOL0     H65586   1.144   5.861   1.445  1.0132 -0.5849 -5.4157
  497MOL0     H65587   1.202   5.727   1.655  0.4714 -1.3377  0.6852
  497MOL0     H65588   0.975   5.272   1.760  1.2626 -0.4462 -1.7304
  497MOL0     H65589   0.901   5.110   1.908  0.5408 -0.4642 -1.0252
  497MOL0     H65590   1.025   4.031   2.747  0.1434  0.5456  0.6916
  497MOL0     H65591   0.963   3.950   2.517 -0.2686 -0.9742  4.0348
  497MOL0     H65592   1.242   3.632   2.140  2.1173  0.7468  1.5794
  497MOL0     H65593   1.266   3.595   1.909 -0.0508  0.1517  0.0815
  497MOL0     H65594   1.334   3.813   1.558  2.2978  2.5162 -0.5516
  497MOL0     H65595   1.314   3.943   1.678 -0.4095 -1.2277  1.2961
  497MOL0     H65596   1.093   4.007   1.596  0.6226 -1.7160  3.1461
  497MOL0     H65597   1.209   4.002   1.466 -0.9998 -0.4290 -1.1637
  497MOL0     H65598   1.030   3.768   1.496 -3.4500  1.5514 -0.1306
  497MOL0     H65599   1.159   3.802   1.377  2.0763  0.5288  0.6012
  497MOL0     H65600   0.882   3.942   1.394 -0.5824 -1.6859  1.0788
  497MOL0     H65601   1.014   3.990   1.287  4.0452 -2.7054 -1.5685
  497MOL0     H65602   0.832   3.621   1.158 -5.0469  0.6562  2.7164
  497MOL0     H65603   1.106   3.984   1.820  2.6708  0.1713 -2.7449
  497MOL0     H65604   1.088   4.028   2.079 -3.6142 -0.7655 -1.5848
  498MOL0     O65605   9.535   0.096   0.921 -0.1161  0.0996 -0.0677
  498MOL0     C65606   9.614   0.181   0.879 -0.3281  0.0723  0.8197
  498MOL0     O65607   9.726   0.241   0.943 -0.8740 -0.4610 -0.5953
  498MOL0     C65608   9.737   0.217   1.076  0.2259 -0.2868 -0.0425
  498MOL0     C65609   9.848   0.138   1.130  0.5161  0.0482  0.1987
  498MOL0     C65610   9.857   0.123   1.271  0.0665 -0.0414  0.3489
  498MOL0     C65611   9.760   0.180   1.359  0.6235 -0.3486 -0.1360
  498MOL0     O65612   9.783   0.180   1.495 -0.1408  0.5839  0.7161
  498MOL0     C65613   9.717   0.272   1.580 -0.4124  0.0432 -0.1524
  498MOL0     C65614   9.742   0.210   1.717  0.3834  0.6061  0.4511
  498MOL0     C65615   9.685   0.300   1.825  0.3792 -0.0023  0.1753
  498MOL0     C65616   9.693   0.234   1.959 -0.4554 -0.1688  0.3205
  498MOL0     C65617   9.646   0.328   2.075  0.3022 -0.8393  0.4070
  498MOL0     C65618   9.512   0.394   2.054 -0.6206  0.2355  0.0896
  498MOL0     C65619   9.538   0.541   2.002 -0.3058  0.2445  0.0751
  498MOL0     C65620   9.417   0.570   1.906 -1.0619 -0.8366 -0.8088
  498MOL0     N65621   9.418   0.697   1.834 -0.2670 -0.2506 -0.5120
  498MOL0     C65622   9.342   0.805   1.867 -0.1562  0.0854 -0.1453
  498MOL0     C65623   9.349   0.879   1.760  0.4506  0.1672 -0.1314
  498MOL0     C65624   9.280   1.006   1.745 -0.3436  0.1131 -0.3007
  498MOL0     C65625   9.129   0.996   1.729  0.3279  0.4889 -0.1427
  498MOL0     C65626   9.078   1.139   1.729  0.5171 -1.1376  0.7170
  498MOL0     C65627   8.943   1.145   1.662  0.5501  0.4852 -0.4071
  498MOL0     O65628   8.937   1.179   1.518 -0.0123 -0.2393 -0.7182
  498MOL0     C65629   8.821   1.130   1.463  0.3320 -0.5213 -0.6521
  498MOL0     C65630   8.772   0.993   1.452  0.4847  0.2930  0.1062
  498MOL0     C65631   8.647   0.975   1.402 -1.0059  0.3728  0.4201
  498MOL0     C65632   8.576   1.076   1.347  0.3833 -0.0695  0.5931
  498MOL0     C65633   8.443   1.040   1.290  1.2232  0.2227  0.3681
  498MOL0     O65634   8.421   0.917   1.239  0.1882 -1.2467 -0.0989
  498MOL0     C65635   8.302   0.889   1.172  0.3012  0.8643  0.2284
  498MOL0     C65636   8.313   0.795   1.070  0.3645  1.0667  1.1154
  498MOL0     C65637   8.208   0.727   1.014 -1.3309  1.6495 -1.0075
  498MOL0     C65638   8.074   0.750   1.064 -0.2045  0.2625  0.0355
  498MOL0     O65639   7.965   0.689   1.012  0.1502 -0.3760  0.5782
  498MOL0     C65640   7.918   0.578   1.077 -0.2203  0.6728 -0.5423
  498MOL0     C65641   7.794   0.505   1.013 -0.2113 -0.3528  0.0994
  498MOL0     C65642   7.872   0.396   0.925 -0.2439 -0.3213  0.6325
  498MOL0     C65643   7.764   0.313   0.861  0.0385  0.6672 -0.0499
  498MOL0     C65644   7.812   0.180   0.793 -0.3999  0.6558  0.2442
  498MOL0     C65645   7.728   0.102   0.695  0.1733  0.5110  0.3280
  498MOL0     C65646   7.797  -0.033   0.655  0.2764  0.4600  0.1246
  498MOL0     C65647   7.866  -0.020   0.514  0.5460 -0.4589 -0.3331
  498MOL0    Cl65648   7.758  -0.004   0.383  0.3410 -0.6118 -0.3151
  498MOL0     C65649   8.069   0.846   1.161  0.9376 -0.1324 -0.6692
  498MOL0     C65650   8.178   0.916   1.215 -0.2318  0.1849 -0.2231
  498MOL0     O65651   8.361   1.122   1.281  1.1884  0.1132  0.1561
  498MOL0     C65652   8.622   1.206   1.361 -0.6868 -0.1555 -0.3085
  498MOL0     C65653   8.734   1.239   1.432  0.3909  0.2505 -0.5140
  498MOL0     N65654   9.411   0.808   1.658  0.3432 -0.3580  1.1469
  498MOL0     N65655   9.449   0.693   1.702 -0.5108  0.1389 -0.0284
  498MOL0     C65656   9.655   0.247   1.296 -0.2974  0.2577  0.0648
  498MOL0     C65657   9.639   0.260   1.160  0.2725 -0.0942  0.5760
  498MOL0     C65658   9.607   0.202   0.732  0.3602 -0.4439 -0.7753
  498MOL0     C65659   9.484   0.185   0.670 -0.3926  0.4939 -0.3730
  498MOL0     C65660   9.464   0.208   0.535  0.0442 -1.0501  0.2241
  498MOL0     C65661   9.564   0.262   0.464 -0.1791 -0.2759 -0.7078
  498MOL0     O65662   9.528   0.286   0.338  0.3258 -0.3760 -0.7936
  498MOL0     C65663   9.630   0.323   0.252 -0.9442  0.1621  0.5606
  498MOL0     C65664   9.582   0.367   0.116 -0.3251  0.4679  0.1365
  498MOL0     C65665   9.545   0.520   0.116  0.9015 -0.1961 -0.3171
  498MOL0     C65666   9.462   0.549  -0.012  0.4751 -0.4999 -0.3352
  498MOL0     C65667   9.546   0.580  -0.121  0.7521 -0.3673 -0.5574
  498MOL0     C65668   9.626   0.619  -0.198  0.5455 -0.8182  0.9528
  498MOL0     C65669   9.697   0.283   0.526 -0.3025 -0.1453 -0.1160
  498MOL0     C65670   9.716   0.257   0.662  0.6396 -0.0120 -0.5038
  498MOL0     H65671   9.908   0.097   1.049  0.5984  1.0882 -0.2814
  498MOL0     H65672   9.943   0.064   1.301 -0.4225 -1.1361 -0.3420
  498MOL0     H65673   9.609   0.279   1.565 -0.6146  0.0777  1.1890
  498MOL0     H65674   9.755   0.373   1.559 -0.8371 -0.3808 -3.6620
  498MOL0     H65675   9.850   0.205   1.737  0.0698  0.3770  2.2339
  498MOL0     H65676   9.703   0.108   1.723  1.1763  0.2214 -0.6116
  498MOL0     H65677   9.584   0.322   1.791  1.4003  3.5179 -0.9774
  498MOL0     H65678   9.733   0.399   1.828 -4.5217  2.7129 -1.1088
  498MOL0     H65679   9.643   0.137   1.964  2.1083 -1.6919 -1.2698
  498MOL0     H65680   9.796   0.204   1.982 -0.2298  0.7058  0.5064
  498MOL0     H65681   9.726   0.400   2.094 -0.7916 -0.2018  2.9451
  498MOL0     H65682   9.645   0.272   2.169 -1.9448 -0.8926  0.4228
  498MOL0     H65683   9.452   0.393   2.146 -0.2501  1.3427  0.3608
  498MOL0     H65684   9.455   0.341   1.978  0.5308  2.2576 -2.3239
  498MOL0     H65685   9.546   0.612   2.084  1.8249 -2.4166  2.3550
  498MOL0     H65686   9.630   0.532   1.943  0.5173  0.7905  1.2477
  498MOL0     H65687   9.320   0.565   1.957  0.0382 -3.3703  1.2425
  498MOL0     H65688   9.409   0.498   1.824 -0.4353  0.7665 -2.3459
  498MOL0     H65689   9.285   0.820   1.957 -0.1665 -1.6282  0.1762
  498MOL0     H65690   9.310   1.054   1.651 -1.4906  0.2621 -0.6057
  498MOL0     H65691   9.314   1.060   1.834  0.2297 -3.3565  1.7622
  498MOL0     H65692   9.093   0.945   1.819  0.4562 -0.9871 -0.8982
  498MOL0     H65693   9.094   0.952   1.635 -2.5764  2.8813 -0.3260
  498MOL0     H65694   9.058   1.173   1.830  0.3039 -2.9669  1.3320
  498MOL0     H65695   9.148   1.203   1.675 -0.5969 -0.3279  0.1826
  498MOL0     H65696   8.893   1.227   1.715  1.9729  1.1196  0.0261
  498MOL0     H65697   8.879   1.060   1.685 -1.6396  2.3902  1.0363
  498MOL0     H65698   8.840   0.917   1.487  0.5447 -0.5706 -1.7656
  498MOL0     H65699   8.610   0.873   1.406  0.2000 -0.1168 -0.2402
  498MOL0     H65700   8.413   0.761   1.045 -1.0903 -2.2529 -0.7253
  498MOL0     H65701   8.232   0.659   0.933 -2.1549  0.1656 -0.0411
  498MOL0     H65702   7.899   0.609   1.181  1.0497  3.7325 -1.1157
  498MOL0     H65703   7.997   0.504   1.091  0.7978  1.6307 -1.1329
  498MOL0     H65704   7.736   0.559   0.939 -1.6833 -3.8042 -1.5103
  498MOL0     H65705   7.732   0.467   1.094  1.5438  1.3256  2.3557
  498MOL0     H65706   7.929   0.325   0.987 -1.7276 -1.8242  0.3406
  498MOL0     H65707   7.944   0.436   0.853 -0.3655  0.2918  0.8454
  498MOL0     H65708   7.700   0.284   0.945  2.2326 -2.1697  0.8080
  498MOL0     H65709   7.717   0.370   0.781  0.9077  0.5624 -0.6547
  498MOL0     H65710   7.841   0.107   0.870  2.8526  0.9873 -0.5191
  498MOL0     H65711   7.903   0.209   0.740 -0.3980  1.3585  0.6199
  498MOL0     H65712   7.688   0.157   0.610  1.3032 -0.9350 -1.1970
  498MOL0     H65713   7.635   0.080   0.748  0.5392 -4.5272 -0.5909
  498MOL0     H65714   7.868  -0.070   0.729  2.1497 -2.1160 -2.7225
  498MOL0     H65715   7.731  -0.119   0.637  2.7676 -1.2697 -1.4147
  498MOL0     H65716   7.927  -0.109   0.497  0.0716 -0.9086  0.2567
  498MOL0     H65717   7.931   0.069   0.513 -0.4134  0.2532 -0.7439
  498MOL0     H65718   7.969   0.862   1.198  1.8077  2.0740  0.9745
  498MOL0     H65719   8.167   0.993   1.291  3.8740  0.1439  0.6265
  498MOL0     H65720   8.553   1.281   1.323 -0.6043 -0.3571 -0.8724
  498MOL0     H65721   8.750   1.345   1.450  3.7527  0.0771 -1.8259
  498MOL0     H65722   9.578   0.297   1.353  0.7469 -0.5509  2.3272
  498MOL0     H65723   9.548   0.300   1.117  0.5041 -0.8546 -0.6925
  498MOL0     H65724   9.406   0.158   0.741  2.9458 -0.3216  3.3090
  498MOL0     H65725   9.364   0.210   0.493 -0.7012  0.0129  1.9638
  498MOL0     H65726   9.697   0.240   0.228 -0.4052  1.0476 -1.1738
  498MOL0     H65727   9.690   0.402   0.297  0.9215 -0.1754 -1.1758
  498MOL0     H65728   9.668   0.352   0.051 -0.4169 -0.5694  0.2430
  498MOL0     H65729   9.507   0.298   0.076  1.8635 -0.7602 -2.0789
  498MOL0     H65730   9.637   0.579   0.120  1.3769 -1.0239  2.4377
  498MOL0     H65731   9.476   0.536   0.199 -0.3753  0.3983 -1.4421
  498MOL0     H65732   9.418   0.457  -0.052 -0.6100  0.9625 -2.7309
  498MOL0     H65733   9.385   0.624   0.010 -1.6486 -2.3584 -1.0461
  498MOL0     H65734   9.684   0.647  -0.283  1.9215 -2.7659  1.1695
  498MOL0     H65735   9.776   0.330   0.468 -0.1598 -0.0251  0.1758
  498MOL0     H65736   9.813   0.276   0.706  0.2242  3.6688 -0.8806
  499MOL0     O65737   9.131   7.850   9.413  0.0796  0.4827 -0.7852
  499MOL0     C65738   9.028   7.837   9.342 -0.4437  0.0719  0.5175
  499MOL0     O65739   8.899   7.880   9.359 -0.4411 -0.8555  0.7497
  499MOL0     C65740   8.881   7.985   9.449 -0.6425  0.2459  0.4450
  499MOL0     C65741   8.809   7.963   9.571 -0.2598 -0.4266 -0.1491
  499MOL0     C65742   8.791   8.071   9.669 -0.8734 -0.6349  0.0373
  499MOL0     C65743   8.832   8.203   9.630 -0.4016 -0.3856  0.5589
  499MOL0     O65744   8.818   8.318   9.703  0.2392  0.5452  0.0912
  499MOL0     C65745   8.717   8.326   9.810 -0.6535 -0.5727 -0.0162
  499MOL0     C65746   8.570   8.344   9.757 -0.2186  0.4273  0.3501
  499MOL0     C65747   8.468   8.306   9.867  0.0504  1.0355  0.4959
  499MOL0     C65748   8.328   8.259   9.831 -0.1848  0.2151  0.5015
  499MOL0     C65749   8.244   8.251   9.954  0.0834 -0.6331 -0.1203
  499MOL0     C65750   8.216   8.379  10.037 -0.3126  0.1528 -0.0784
  499MOL0     C65751   8.171   8.497   9.968 -0.5935 -1.2504 -0.7213
  499MOL0     C65752   8.179   8.618  10.065  0.0593 -0.7078 -0.2780
  499MOL0     N65753   8.320   8.667  10.085 -0.0435 -0.1349 -0.6443
  499MOL0     C65754   8.424   8.659   9.993 -0.3230  0.1216 -0.5254
  499MOL0     C65755   8.532   8.709  10.055  0.4703  0.9385 -0.7846
  499MOL0     C65756   8.671   8.739  10.004 -0.2503 -0.6942 -0.0338
  499MOL0     C65757   8.660   8.829   9.882  0.1306  0.5733  0.9619
  499MOL0     C65758   8.800   8.843   9.817  0.3263  0.2720 -0.6823
  499MOL0     C65759   8.792   8.933   9.695  0.8000 -0.2169 -0.0630
  499MOL0     O65760   8.769   9.070   9.745 -0.6495  0.0770  0.0011
  499MOL0     C65761   8.735   9.163   9.648  0.5550 -0.2807  0.4329
  499MOL0     C65762   8.703   9.288   9.684  0.2301 -0.3510 -0.5645
  499MOL0     C65763   8.694   9.396   9.590 -0.1979  1.4543  0.7473
  499MOL0     C65764   8.693   9.376   9.450 -0.4736  0.4023  0.3452
  499MOL0     C65765   8.664   9.490   9.356  0.4407 -0.4214 -0.9976
  499MOL0     O65766   8.666   9.461   9.226  0.6549 -0.2584 -0.0043
  499MOL0     C65767   8.651   9.541   9.121  0.3621 -0.3123 -0.4368
  499MOL0     C65768   8.686   9.495   8.998 -0.7629 -0.1516 -0.8324
  499MOL0     C65769   8.662   9.570   8.881  0.0889  0.1767  0.0937
  499MOL0     C65770   8.620   9.699   8.886 -0.1938 -0.9921  0.2561
  499MOL0     O65771   8.602   9.778   8.776 -0.9213  0.4479  0.0097
  499MOL0     C65772   8.704   9.771   8.684 -0.5093  0.8922  0.8893
  499MOL0     C65773   8.709   9.892   8.597  0.7681 -0.2265  0.3761
  499MOL0     C65774   8.726  10.017   8.685  0.2036 -0.6101 -0.4161
  499MOL0     C65775   8.692  10.144   8.595 -0.0456  0.4579  0.3876
  499MOL0     C65776   8.549  10.212   8.593  0.0915 -0.0474  0.5579
  499MOL0     C65777   8.499  10.252   8.448  0.6042  0.0438  0.7840
  499MOL0     C65778   8.584  10.368   8.398  0.0279 -0.0215  0.6767
  499MOL0     C65779   8.523  10.442   8.278  0.0981  0.2095  0.9206
  499MOL0    Cl65780   8.465  10.313   8.158 -0.2732  0.4294  0.2168
  499MOL0     C65781   8.598   9.758   9.011 -0.5189 -0.0846  0.8298
  499MOL0     C65782   8.606   9.670   9.122  0.0503 -0.6742 -0.1663
  499MOL0     O65783   8.657   9.599   9.408  0.8045 -0.1321 -0.1419
  499MOL0     C65784   8.724   9.241   9.408  0.7350  0.0431  0.5472
  499MOL0     C65785   8.752   9.140   9.512 -0.6824 -0.0290  0.1534
  499MOL0     N65786   8.497   8.738  10.181 -0.1555 -0.2933 -0.0640
  499MOL0     N65787   8.368   8.708  10.205 -0.7076 -0.9193 -0.0930
  499MOL0     C65788   8.895   8.223   9.508  0.1518  0.1433 -0.2237
  499MOL0     C65789   8.917   8.120   9.417 -0.6731  0.0173  1.2220
  499MOL0     C65790   9.035   7.729   9.240  0.3853  0.2860  0.5326
  499MOL0     C65791   9.133   7.624   9.258  0.4054  0.5649  0.5310
  499MOL0     C65792   9.158   7.542   9.145  0.8967 -0.1417 -0.4531
  499MOL0     C65793   9.087   7.548   9.034  0.5271 -0.0955  1.2245
  499MOL0     O65794   9.092   7.465   8.925  0.1753  0.1310  0.7955
  499MOL0     C65795   9.210   7.481   8.846 -0.5626  0.0651  0.5640
  499MOL0     C65796   9.241   7.337   8.774 -0.2447 -0.5222 -0.9072
  499MOL0     C65797   9.125   7.276   8.698 -0.5469 -0.2655 -0.3052
  499MOL0     C65798   9.126   7.128   8.706 -0.6836 -0.0218 -0.8784
  499MOL0     C65799   9.015   7.063   8.634  0.0045  1.0795 -1.0150
  499MOL0     C65800   8.917   7.007   8.589 -1.2153 -0.8996  0.1536
  499MOL0     C65801   8.989   7.642   9.014  0.2257  0.1194 -0.1572
  499MOL0     C65802   8.959   7.741   9.113 -0.9597 -0.5425  0.7010
  499MOL0     H65803   8.769   7.864   9.588  0.4592 -0.7025 -0.0687
  499MOL0     H65804   8.730   8.054   9.756  0.0053 -0.9999  0.5932
  499MOL0     H65805   8.738   8.412   9.874  1.9259 -0.1746 -1.2863
  499MOL0     H65806   8.726   8.244   9.882  1.4904 -1.6394 -1.3983
  499MOL0     H65807   8.550   8.270   9.679  0.2103 -0.0696  0.7070
  499MOL0     H65808   8.554   8.440   9.707  1.1501  0.2065 -0.5578
  499MOL0     H65809   8.468   8.390   9.937 -1.0148  1.0220  0.5269
  499MOL0     H65810   8.511   8.225   9.927 -0.2196 -0.3932 -1.1318
  499MOL0     H65811   8.278   8.318   9.754 -0.7976 -1.7243 -0.6594
  499MOL0     H65812   8.346   8.156   9.799  0.5009 -0.6406  3.3164
  499MOL0     H65813   8.290   8.175  10.017  1.0184 -2.7437 -3.1553
  499MOL0     H65814   8.144   8.210   9.935  0.0810 -2.7411  3.6091
  499MOL0     H65815   8.305   8.389  10.100 -0.5551  0.7080  0.1829
  499MOL0     H65816   8.139   8.352  10.110  2.4886 -1.3936  2.5578
  499MOL0     H65817   8.231   8.508   9.877  1.9893  2.6780  1.1661
  499MOL0     H65818   8.074   8.485   9.919  0.5446 -2.2432 -2.8787
  499MOL0     H65819   8.127   8.597  10.159 -0.1436 -2.6876 -0.7826
  499MOL0     H65820   8.130   8.707  10.026 -1.2494  0.4458  3.6112
  499MOL0     H65821   8.422   8.615   9.894 -1.5917 -1.8659  0.3041
  499MOL0     H65822   8.720   8.644   9.983  0.2174 -0.2580 -0.9755
  499MOL0     H65823   8.725   8.798  10.078 -1.5605  1.3798 -0.6273
  499MOL0     H65824   8.631   8.931   9.908  0.9842  1.7627 -2.2798
  499MOL0     H65825   8.589   8.787   9.810  1.7585  1.9823 -1.6204
  499MOL0     H65826   8.856   8.889   9.898 -2.1394  0.3001  1.1026
  499MOL0     H65827   8.844   8.747   9.789  2.6117  0.8482  0.7405
  499MOL0     H65828   8.715   8.893   9.628 -0.3423  2.1250 -0.2726
  499MOL0     H65829   8.892   8.933   9.653  1.2037  2.5001  0.6698
  499MOL0     H65830   8.691   9.318   9.787  1.4422  1.1240 -0.8331
  499MOL0     H65831   8.678   9.499   9.620  0.2170  1.4697  0.9188
  499MOL0     H65832   8.747   9.407   8.987  2.1150  1.8640 -2.4202
  499MOL0     H65833   8.701   9.529   8.789 -0.6576 -1.7960  0.6192
  499MOL0     H65834   8.690   9.692   8.609 -1.2531  3.3615 -1.7493
  499MOL0     H65835   8.797   9.766   8.742  0.1238 -0.6641 -0.1534
  499MOL0     H65836   8.605   9.903   8.564  0.6944 -1.2752  0.2391
  499MOL0     H65837   8.782   9.882   8.516  2.9145 -0.4175  2.2649
  499MOL0     H65838   8.829  10.024   8.720  1.4920  0.0734 -3.9161
  499MOL0     H65839   8.655  10.016   8.768 -1.2200  1.7767 -1.4905
  499MOL0     H65840   8.771  10.218   8.612  2.3658 -2.2550  1.9873
  499MOL0     H65841   8.710  10.116   8.491  2.3960  0.1658  0.8235
  499MOL0     H65842   8.548  10.285   8.675  1.4588 -0.1631  0.6953
  499MOL0     H65843   8.475  10.144   8.636  1.1529 -0.9658  0.9800
  499MOL0     H65844   8.391  10.270   8.453  0.5875 -0.1013  0.9694
  499MOL0     H65845   8.521  10.173   8.377  2.0823  1.6413 -0.6204
  499MOL0     H65846   8.596  10.451   8.468 -1.5714  3.8456 -3.1625
  499MOL0     H65847   8.674  10.323   8.356  0.1194  0.5330  0.2616
  499MOL0     H65848   8.590  10.509   8.225 -0.2609 -1.8125 -2.3774
  499MOL0     H65849   8.429  10.486   8.314 -1.4132 -2.6545  0.8063
  499MOL0     H65850   8.570   9.862   9.011 -0.9263 -0.1765 -0.1923
  499MOL0     H65851   8.576   9.713   9.217  2.3364  0.7128  0.0045
  499MOL0     H65852   8.736   9.223   9.302  0.0721  3.1945 -0.1544
  499MOL0     H65853   8.778   9.037   9.487 -2.3797 -0.4594  0.0272
  499MOL0     H65854   8.923   8.323   9.478 -2.6962  1.1966  0.3831
  499MOL0     H65855   8.967   8.136   9.322 -0.4797 -2.5608  0.8049
  499MOL0     H65856   9.186   7.619   9.352  0.8737  2.3063  0.3932
  499MOL0     H65857   9.235   7.466   9.146  1.2040  0.1657 -0.5136
  499MOL0     H65858   9.295   7.509   8.909 -0.5343 -2.3706  1.7412
  499MOL0     H65859   9.206   7.561   8.773 -0.1664  0.9513  1.4864
  499MOL0     H65860   9.330   7.346   8.711  1.8304 -1.2974  1.7276
  499MOL0     H65861   9.272   7.268   8.853 -2.8774  2.1953  2.8008
  499MOL0     H65862   9.131   7.291   8.589  2.4791 -0.6412 -0.2645
  499MOL0     H65863   9.026   7.312   8.726  0.2902  3.8698 -1.9617
  499MOL0     H65864   9.214   7.082   8.661 -1.6896 -0.1383 -2.8563
  499MOL0     H65865   9.118   7.106   8.813  0.4475  0.8615 -0.5907
  499MOL0     H65866   8.826   6.962   8.556 -1.3247 -0.1154 -0.6782
  499MOL0     H65867   8.937   7.650   8.919  2.4239  2.5710 -1.2799
  499MOL0     H65868   8.903   7.829   9.080 -1.4277 -1.5348 -1.2769
  500MOL0     O65869   6.307   3.863   1.611  0.0735 -0.5994 -0.2446
  500MOL0     C65870   6.376   3.875   1.511 -0.0858 -0.9524  1.1153
  500MOL0     O65871   6.494   3.941   1.510 -0.2534  0.2061  0.0002
  500MOL0     C65872   6.555   3.996   1.624 -0.7947 -0.0390  0.2938
  500MOL0     C65873   6.660   4.092   1.605 -1.5546 -0.2104  0.2400
  500MOL0     C65874   6.716   4.167   1.715  0.4699 -0.4162  1.0563
  500MOL0     C65875   6.682   4.121   1.845  0.8203  0.6109  0.6301
  500MOL0     O65876   6.732   4.184   1.957 -0.6462 -0.0749  0.8506
  500MOL0     C65877   6.777   4.105   2.066 -0.6825  0.1983  0.4111
  500MOL0     C65878   6.897   4.165   2.142 -0.1345 -0.4337  0.2116
  500MOL0     C65879   7.010   4.185   2.048 -0.6515  0.2148  0.0080
  500MOL0     C65880   7.136   4.238   2.108  0.1133 -0.2629  0.3203
  500MOL0     C65881   7.235   4.289   2.001 -0.5471  0.1538  0.3141
  500MOL0     C65882   7.200   4.391   1.889  0.6103  1.7533  0.2396
  500MOL0     C65883   7.150   4.520   1.940 -0.0119 -0.5381 -0.6255
  500MOL0     C65884   7.110   4.619   1.840 -0.0421 -1.6792  0.3192
  500MOL0     N65885   7.216   4.675   1.754  0.2997  0.5879  0.3529
  500MOL0     C65886   7.228   4.632   1.625 -0.3091 -0.3505  0.3103
  500MOL0     C65887   7.349   4.686   1.579  0.5476 -0.1469 -1.0472
  500MOL0     C65888   7.411   4.686   1.441 -0.0826 -0.0909  0.0511
  500MOL0     C65889   7.365   4.563   1.357  0.5740  0.2704 -0.5898
  500MOL0     C65890   7.438   4.568   1.218 -0.4744 -0.2978  0.7398
  500MOL0     C65891   7.403   4.461   1.125  0.3614  0.4691  0.2138
  500MOL0     O65892   7.409   4.324   1.175  0.0624 -0.0262 -0.1440
  500MOL0     C65893   7.356   4.222   1.093 -0.6661 -0.0374  0.4148
  500MOL0     C65894   7.257   4.242   0.995 -1.0396 -0.5136  0.7076
  500MOL0     C65895   7.230   4.128   0.920 -0.4569 -0.1004  1.1327
  500MOL0     C65896   7.277   3.998   0.933  0.7836  0.1795  0.1334
  500MOL0     C65897   7.222   3.886   0.864 -0.1366 -0.0518  0.7313
  500MOL0     O65898   7.279   3.765   0.873  0.2315  0.1296 -0.3661
  500MOL0     C65899   7.206   3.658   0.822 -0.9994 -0.1381  0.1040
  500MOL0     C65900   7.213   3.635   0.688 -0.2071  0.3260  0.3535
  500MOL0     C65901   7.123   3.538   0.632  0.5181 -0.8932  0.3344
  500MOL0     C65902   7.030   3.466   0.713  0.0253 -0.0405 -0.5149
  500MOL0     O65903   6.958   3.360   0.655  0.3610  1.1110 -0.1656
  500MOL0     C65904   7.004   3.282   0.546 -0.4101  0.2486  0.8218
  500MOL0     C65905   6.949   3.311   0.405 -0.1957 -0.1431 -0.1051
  500MOL0     C65906   6.816   3.258   0.372  0.2097 -0.4120 -0.2170
  500MOL0     C65907   6.706   3.328   0.455 -0.1749 -0.0590  0.0812
  500MOL0     C65908   6.566   3.289   0.394 -0.1342 -0.0090  0.6016
  500MOL0     C65909   6.469   3.295   0.514  0.4503 -0.2807 -0.4667
  500MOL0     C65910   6.329   3.239   0.486  1.3292 -0.1418 -0.6234
  500MOL0     C65911   6.233   3.257   0.605 -0.2433  0.0760 -0.4556
  500MOL0    Cl65912   6.168   3.426   0.607  0.1775 -0.7926 -0.2276
  500MOL0     C65913   7.033   3.492   0.843 -0.2294 -0.3655 -0.6844
  500MOL0     C65914   7.115   3.588   0.904 -0.8566  0.0047  0.3603
  500MOL0     O65915   7.120   3.904   0.803  0.1555  0.2479 -0.9583
  500MOL0     C65916   7.377   3.986   1.036 -0.1146 -0.4614 -0.4708
  500MOL0     C65917   7.412   4.100   1.116 -0.6620  0.1047 -0.8417
  500MOL0     N65918   7.403   4.763   1.684 -0.7167 -0.2316  0.2778
  500MOL0     N65919   7.319   4.755   1.781 -0.2603 -0.0969 -0.0464
  500MOL0     C65920   6.601   4.007   1.856  0.0712  0.4734  0.5363
  500MOL0     C65921   6.542   3.948   1.747 -0.6148 -1.0318 -0.1027
  500MOL0     C65922   6.321   3.855   1.371  0.9604 -0.6174 -0.5167
  500MOL0     C65923   6.398   3.867   1.254 -0.5511 -0.2732  0.4980
  500MOL0     C65924   6.350   3.826   1.127 -1.0845 -0.9354 -0.3150
  500MOL0     C65925   6.214   3.799   1.104 -0.6264 -0.1558 -0.4190
  500MOL0     O65926   6.167   3.761   0.979 -0.1849 -0.2575 -0.6317
  500MOL0     C65927   6.036   3.813   0.946  0.4173  0.0698  0.8208
  500MOL0     C65928   5.966   3.683   0.882 -0.1294 -0.5012 -0.0318
  500MOL0     C65929   5.840   3.724   0.797  0.7791 -0.5264 -0.1988
  500MOL0     C65930   5.747   3.614   0.740 -0.4124 -0.2386 -0.1662
  500MOL0     C65931   5.625   3.660   0.691  0.9433 -0.4677  0.6062
  500MOL0     C65932   5.528   3.711   0.639  0.5739 -0.1546  0.3934
  500MOL0     C65933   6.140   3.785   1.228 -0.5513  0.0277  0.2208
  500MOL0     C65934   6.188   3.828   1.354 -0.1649  0.6819  0.2113
  500MOL0     H65935   6.699   4.116   1.507  2.4170  0.3535  1.7810
  500MOL0     H65936   6.803   4.231   1.699  0.9163 -1.1754  0.3809
  500MOL0     H65937   6.810   4.005   2.036 -3.0370 -0.6112  0.3651
  500MOL0     H65938   6.694   4.099   2.136 -0.5895 -3.2675  0.3870
  500MOL0     H65939   6.918   4.099   2.227 -1.8251  1.1679  1.9670
  500MOL0     H65940   6.867   4.261   2.185 -0.9853 -1.0068  0.9315
  500MOL0     H65941   6.986   4.244   1.959 -2.9309 -1.8645 -0.8745
  500MOL0     H65942   7.043   4.088   2.010  1.2154  0.3723  1.1215
  500MOL0     H65943   7.102   4.319   2.172  0.3271  1.8935 -2.1165
  500MOL0     H65944   7.179   4.153   2.162  2.3271  1.0703  0.7712
  500MOL0     H65945   7.278   4.204   1.948  0.3954  0.8641 -0.1093
  500MOL0     H65946   7.324   4.323   2.055  1.4365 -1.8833 -1.4407
  500MOL0     H65947   7.130   4.352   1.814  1.2668  1.6477 -0.3230
  500MOL0     H65948   7.291   4.399   1.829 -0.6401 -0.7164 -2.2020
  500MOL0     H65949   7.064   4.490   2.001 -1.1537  3.5475  0.0754
  500MOL0     H65950   7.221   4.566   2.008  0.6343  0.8866 -2.2016
  500MOL0     H65951   7.057   4.697   1.895  0.3540 -1.6965  0.7324
  500MOL0     H65952   7.037   4.570   1.775  0.1177 -0.0525 -1.1657
  500MOL0     H65953   7.160   4.568   1.569 -1.6794  0.0487  1.4824
  500MOL0     H65954   7.520   4.690   1.440 -0.1007  2.3573 -0.4968
  500MOL0     H65955   7.392   4.788   1.405 -0.6004  0.3036  1.3840
  500MOL0     H65956   7.257   4.572   1.344  0.3488 -0.1434  0.8013
  500MOL0     H65957   7.392   4.468   1.404  0.8039 -0.6972 -2.5721
  500MOL0     H65958   7.413   4.666   1.176  1.3279  0.6365  1.7281
  500MOL0     H65959   7.543   4.566   1.246 -0.5767  0.0590  1.1567
  500MOL0     H65960   7.478   4.470   1.046 -0.3835  1.2719 -0.4273
  500MOL0     H65961   7.302   4.479   1.087 -0.3762 -3.6469 -0.3230
  500MOL0     H65962   7.197   4.332   0.990  1.8020  1.7252  3.3463
  500MOL0     H65963   7.152   4.138   0.845  2.1378 -2.2356 -2.1505
  500MOL0     H65964   7.281   3.684   0.618  0.3310  1.8785  1.9095
  500MOL0     H65965   7.133   3.516   0.527  1.2237  0.7040  0.0369
  500MOL0     H65966   6.973   3.182   0.575  0.8642  0.3287  2.6474
  500MOL0     H65967   7.113   3.274   0.541 -0.5038 -0.3076 -2.0973
  500MOL0     H65968   7.017   3.255   0.339  0.5620  2.8851 -2.1081
  500MOL0     H65969   6.965   3.416   0.380 -1.5568  0.5528  1.7552
  500MOL0     H65970   6.805   3.153   0.398  0.4969 -1.4371 -3.7141
  500MOL0     H65971   6.798   3.281   0.267 -2.5174  3.0654  0.7998
  500MOL0     H65972   6.728   3.296   0.557  2.6596 -0.8524 -0.6763
  500MOL0     H65973   6.716   3.437   0.458  1.1208 -0.1884  1.5297
  500MOL0     H65974   6.572   3.183   0.369  3.6230  0.0409  0.7135
  500MOL0     H65975   6.530   3.341   0.305  2.3911 -1.1853 -1.2394
  500MOL0     H65976   6.464   3.400   0.544 -0.2223 -1.1066  2.7630
  500MOL0     H65977   6.508   3.242   0.602 -0.3450 -0.8523 -0.4466
  500MOL0     H65978   6.285   3.295   0.403  1.0779  0.7964  0.1356
  500MOL0     H65979   6.342   3.133   0.461  2.3129 -0.1930  0.0403
  500MOL0     H65980   6.279   3.238   0.702 -1.0342 -1.6881 -0.3954
  500MOL0     H65981   6.154   3.186   0.579  0.3688  0.5676 -4.2476
  500MOL0     H65982   6.981   3.444   0.926  1.8639 -0.6075  0.5535
  500MOL0     H65983   7.121   3.612   1.010 -1.4037 -0.4760  0.5037
  500MOL0     H65984   7.427   3.890   1.047 -0.0924 -0.3966  0.0394
  500MOL0     H65985   7.489   4.088   1.191 -1.9651 -0.8912  0.4090
  500MOL0     H65986   6.569   3.954   1.946 -0.8935  0.1569  0.0274
  500MOL0     H65987   6.476   3.863   1.762 -0.0669 -1.2429  1.2380
  500MOL0     H65988   6.503   3.895   1.261 -1.0209  1.2917  1.8414
  500MOL0     H65989   6.422   3.802   1.050  0.4808 -0.5460  0.9716
  500MOL0     H65990   6.047   3.900   0.881 -0.5779 -2.2735 -2.7977
  500MOL0     H65991   5.984   3.839   1.038 -0.1066 -1.0577  0.8603
  500MOL0     H65992   6.048   3.646   0.819  0.4963  2.7962 -1.3638
  500MOL0     H65993   5.945   3.619   0.968  0.5638  1.1990  1.4506
  500MOL0     H65994   5.877   3.785   0.714  3.6490 -0.5525  0.9370
  500MOL0     H65995   5.770   3.787   0.852 -1.4387 -1.1409 -2.1682
  500MOL0     H65996   5.815   3.553   0.679 -0.3586 -1.1811  0.7987
  500MOL0     H65997   5.716   3.549   0.822  0.8835  0.7983  1.2140
  500MOL0     H65998   5.442   3.758   0.595  0.3350 -0.7414  0.2166
  500MOL0     H65999   6.035   3.760   1.237 -1.6734  4.0695 -0.0157
  500MOL0     H66000   6.123   3.816   1.440  1.4608 -2.6194  1.1251
  501MOL0     O66001   5.970   9.274   5.134 -0.3485  0.7788 -0.4641
  501MOL0     C66002   6.060   9.358   5.150  0.4054 -0.1857 -0.2761
  501MOL0     O66003   6.187   9.340   5.101 -0.0094  0.5354  0.2313
  501MOL0     C66004   6.213   9.212   5.041 -0.5782  0.4715 -0.1413
  501MOL0     C66005   6.302   9.206   4.931  0.6769 -0.5202  0.4712
  501MOL0     C66006   6.346   9.088   4.883  0.1865  0.2647  0.4864
  501MOL0     C66007   6.309   8.959   4.943 -0.8776 -1.0014 -0.7557
  501MOL0     O66008   6.350   8.833   4.909 -0.7508  0.4816  1.1623
  501MOL0     C66009   6.382   8.820   4.771 -0.1808  0.2688  0.2151
  501MOL0     C66010   6.465   8.691   4.774  0.1111 -0.0181  0.3980
  501MOL0     C66011   6.513   8.661   4.619 -0.2519  0.0465 -0.0563
  501MOL0     C66012   6.620   8.548   4.601 -0.4132 -0.2131  0.1671
  501MOL0     C66013   6.584   8.411   4.654 -0.6768  0.3320  0.1176
  501MOL0     C66014   6.480   8.341   4.564 -1.5944  0.3779 -0.3084
  501MOL0     C66015   6.446   8.189   4.597  0.6631 -0.8825 -0.0982
  501MOL0     C66016   6.421   8.163   4.747  0.0525 -0.1114 -0.4643
  501MOL0     N66017   6.304   8.072   4.772 -0.9231 -0.5197  0.7388
  501MOL0     C66018   6.188   8.068   4.700 -0.2080  0.4275  1.2152
  501MOL0     C66019   6.127   7.963   4.761  0.5533  0.4726  0.7033
  501MOL0     C66020   5.987   7.911   4.703 -0.6272 -0.5320 -0.7031
  501MOL0     C66021   5.997   7.835   4.571 -0.4078  0.2489  0.4914
  501MOL0     C66022   5.865   7.775   4.513 -0.4231 -0.2916  0.4435
  501MOL0     C66023   5.764   7.717   4.620  0.0934  0.3657  0.4072
  501MOL0     O66024   5.634   7.676   4.566 -0.8476  0.8713  0.1598
  501MOL0     C66025   5.627   7.542   4.548  0.4023 -0.3821  0.0592
  501MOL0     C66026   5.603   7.454   4.652 -0.0201 -0.7456 -0.1264
  501MOL0     C66027   5.609   7.315   4.632 -0.0847 -0.0326 -0.9822
  501MOL0     C66028   5.641   7.265   4.502  0.5664 -0.3304 -0.3856
  501MOL0     C66029   5.643   7.121   4.474  0.1601  0.7454 -0.7398
  501MOL0     O66030   5.709   7.081   4.368  0.4379 -0.5314 -0.3038
  501MOL0     C66031   5.688   6.952   4.318  0.7803  0.4644  0.0487
  501MOL0     C66032   5.796   6.878   4.271 -0.4856 -0.0077 -0.3506
  501MOL0     C66033   5.786   6.753   4.212  0.3935  1.0335 -0.3116
  501MOL0     C66034   5.660   6.694   4.197 -0.3676  0.8177  0.5511
  501MOL0     O66035   5.631   6.562   4.151 -0.7537 -0.2233 -0.0531
  501MOL0     C66036   5.709   6.501   4.044 -0.6250 -0.5542  0.1978
  501MOL0     C66037   5.694   6.356   4.001  0.6899  0.3203  0.0562
  501MOL0     C66038   5.758   6.261   4.098  0.8903  0.4798 -0.5285
  501MOL0     C66039   5.735   6.123   4.041 -0.1980  0.5740  0.1770
  501MOL0     C66040   5.779   6.012   4.141  0.4611 -0.9156  0.0157
  501MOL0     C66041   5.931   5.999   4.167 -0.3289 -0.1464  0.4956
  501MOL0     C66042   6.031   6.013   4.046 -0.1150 -0.6480  0.4043
  501MOL0     C66043   6.175   5.968   4.095  0.2599  0.4900 -0.5473
  501MOL0    Cl66044   6.295   6.017   3.975 -0.2424  0.2904 -0.2547
  501MOL0     C66045   5.554   6.761   4.247 -0.1466 -0.2564 -1.4836
  501MOL0     C66046   5.560   6.889   4.311 -0.1198  0.3549 -0.5268
  501MOL0     O66047   5.598   7.046   4.556  0.5560  0.0527  0.8578
  501MOL0     C66048   5.688   7.360   4.405 -0.1490 -0.2998  0.8418
  501MOL0     C66049   5.657   7.496   4.418  0.7098 -0.0861  0.0726
  501MOL0     N66050   6.193   7.906   4.861  0.5259  0.9214  0.0227
  501MOL0     N66051   6.303   7.979   4.867  0.3486 -0.1794 -0.5540
  501MOL0     C66052   6.238   8.975   5.062 -1.4357  0.3662 -0.1526
  501MOL0     C66053   6.199   9.099   5.116 -1.0241 -0.0271 -0.3056
  501MOL0     C66054   6.035   9.463   5.251 -0.6901 -0.0699  0.6843
  501MOL0     C66055   5.947   9.442   5.356  0.3863 -0.7035 -0.6460
  501MOL0     C66056   5.938   9.531   5.464  0.3517  0.5110  0.6350
  501MOL0     C66057   6.014   9.652   5.468  0.8949 -0.2493  0.8298
  501MOL0     O66058   6.019   9.737   5.571 -0.0000  0.1086  0.4063
  501MOL0     C66059   5.940   9.862   5.577 -0.1157 -0.1755 -0.0781
  501MOL0     C66060   6.032   9.973   5.628  0.4592  1.7743 -0.0178
  501MOL0     C66061   6.046   9.986   5.781 -0.7532 -1.0857  0.2169
  501MOL0     C66062   6.080  10.133   5.810  0.4197  0.0517 -0.1745
  501MOL0     C66063   6.101  10.147   5.961 -0.4512 -1.2142  0.7084
  501MOL0     C66064   6.122  10.143   6.080  0.0491  0.4851 -0.1303
  501MOL0     C66065   6.082   9.682   5.348 -0.9525  0.1453  0.3807
  501MOL0     C66066   6.097   9.587   5.246  0.3537 -0.5017 -0.4970
  501MOL0     H66067   6.319   9.306   4.892 -0.5462 -1.6621 -3.4317
  501MOL0     H66068   6.414   9.093   4.798  2.6237 -0.5432  2.2960
  501MOL0     H66069   6.454   8.892   4.731  1.0343 -2.5488 -3.1836
  501MOL0     H66070   6.296   8.818   4.703  1.5110  4.0614 -2.3972
  501MOL0     H66071   6.410   8.609   4.819  0.6089 -0.3645  0.3860
  501MOL0     H66072   6.553   8.710   4.836  0.3062  1.4274 -0.2626
  501MOL0     H66073   6.538   8.756   4.571  1.2063 -1.4427 -2.4392
  501MOL0     H66074   6.422   8.628   4.568 -1.7717  2.3061  1.0248
  501MOL0     H66075   6.668   8.535   4.503 -1.9982 -2.3589 -0.4003
  501MOL0     H66076   6.700   8.582   4.667 -0.7014  5.9157 -1.9137
  501MOL0     H66077   6.552   8.419   4.758 -0.3621  1.2567  0.1507
  501MOL0     H66078   6.676   8.352   4.658  1.4713  3.0243 -3.6828
  501MOL0     H66079   6.507   8.342   4.458 -3.6827 -0.9250 -0.9237
  501MOL0     H66080   6.389   8.400   4.575 -1.3979  0.5173  0.7343
  501MOL0     H66081   6.357   8.173   4.536  0.1669  1.9962 -0.2821
  501MOL0     H66082   6.518   8.113   4.566 -0.5020 -3.6628  3.4124
  501MOL0     H66083   6.397   8.251   4.808 -2.8023 -1.5325  0.6356
  501MOL0     H66084   6.511   8.121   4.791  0.3922  0.8438 -0.2220
  501MOL0     H66085   6.155   8.124   4.614  1.3210  1.7977  1.4732
  501MOL0     H66086   5.914   7.992   4.695 -1.1130 -0.7199  1.3382
  501MOL0     H66087   5.939   7.851   4.781 -1.9300  0.2314 -0.8954
  501MOL0     H66088   6.063   7.753   4.601 -1.3446  0.5075  3.7194
  501MOL0     H66089   6.042   7.887   4.486 -1.1421  1.2285  0.6766
  501MOL0     H66090   5.811   7.862   4.472  3.0164  1.5642 -0.5018
  501MOL0     H66091   5.897   7.702   4.439 -1.0929  0.8892 -1.0652
  501MOL0     H66092   5.751   7.788   4.702 -1.9003  2.2673 -1.4108
  501MOL0     H66093   5.817   7.634   4.668  0.3650  0.7520  0.7849
  501MOL0     H66094   5.594   7.497   4.751  2.6660  0.8476 -0.4715
  501MOL0     H66095   5.614   7.249   4.718  2.3515  3.7661  2.1034
  501MOL0     H66096   5.893   6.924   4.282 -0.2545 -0.1952 -1.4548
  501MOL0     H66097   5.871   6.693   4.184  2.8940  2.6511  3.1326
  501MOL0     H66098   5.813   6.517   4.073 -0.1119  0.4129 -1.9931
  501MOL0     H66099   5.699   6.561   3.953 -2.9368 -2.1282 -0.6755
  501MOL0     H66100   5.745   6.345   3.905  0.8473 -0.4770  0.2257
  501MOL0     H66101   5.589   6.332   3.985  0.8184 -0.2370  0.0109
  501MOL0     H66102   5.710   6.274   4.196 -1.0740 -1.8295 -1.1167
  501MOL0     H66103   5.861   6.300   4.105  0.3615  2.0735 -1.1079
  501MOL0     H66104   5.630   6.100   4.017  0.8262 -1.8232 -2.6711
  501MOL0     H66105   5.804   6.111   3.956  0.7651 -0.4172  1.0593
  501MOL0     H66106   5.754   5.923   4.082  0.8199 -1.9333  1.3576
  501MOL0     H66107   5.717   6.022   4.231 -0.0735  1.2931 -0.5479
  501MOL0     H66108   5.948   5.906   4.221  3.4072 -0.3119 -0.6292
  501MOL0     H66109   5.967   6.075   4.237 -0.4358  0.0610  0.3249
  501MOL0     H66110   6.007   5.947   3.962  3.1194  2.6041 -3.4682
  501MOL0     H66111   6.027   6.117   4.012 -0.1603 -0.0135  2.2205
  501MOL0     H66112   6.176   5.860   4.112 -2.6901  0.3455 -0.6919
  501MOL0     H66113   6.184   6.016   4.194 -0.8027 -1.5357  0.6069
  501MOL0     H66114   5.458   6.712   4.247 -1.9438  2.7955  2.0833
  501MOL0     H66115   5.473   6.934   4.358 -1.4129 -1.1575 -1.3614
  501MOL0     H66116   5.701   7.322   4.304 -3.3199 -1.9254  0.9112
  501MOL0     H66117   5.689   7.579   4.356 -2.0569  1.0454  0.0364
  501MOL0     H66118   6.226   8.891   5.129 -2.8124  2.3638  2.2573
  501MOL0     H66119   6.156   9.104   5.215  0.1775 -1.4772  0.3411
  501MOL0     H66120   5.889   9.350   5.356  0.4720 -0.7706 -1.7318
  501MOL0     H66121   5.869   9.540   5.548 -0.5053  3.2967 -0.2494
  501MOL0     H66122   5.851   9.850   5.640  0.3341  1.3844  0.9090
  501MOL0     H66123   5.910   9.877   5.473  1.2924 -3.0532 -0.9891
  501MOL0     H66124   6.129   9.978   5.579 -0.5502 -2.1776 -2.9711
  501MOL0     H66125   5.980  10.062   5.594  1.2620  2.6019  0.8641
  501MOL0     H66126   6.123   9.914   5.808 -0.0813  0.5148  2.8877
  501MOL0     H66127   5.956   9.951   5.832 -2.0107  0.9545 -0.4769
  501MOL0     H66128   6.172  10.170   5.763 -1.8204  1.2244 -4.1219
  501MOL0     H66129   6.005  10.210   5.788  1.1942  1.2254  1.1431
  501MOL0     H66130   6.167  10.167   6.174 -0.4387 -3.4679  1.3059
  501MOL0     H66131   6.137   9.776   5.346 -1.0881  0.2368  0.8354
  501MOL0     H66132   6.163   9.611   5.164  1.2139  1.7755  0.7674
  502MOL0     O66133   3.804   5.365   0.568  0.6367  1.1269  0.1020
  502MOL0     C66134   3.741   5.353   0.675  0.3137 -0.2501 -0.0215
  502MOL0     O66135   3.650   5.441   0.722 -0.1742  0.3262 -0.0803
  502MOL0     C66136   3.594   5.534   0.634 -1.1005  1.0288 -0.2951
  502MOL0     C66137   3.557   5.663   0.689 -0.6615  0.7367  0.3826
  502MOL0     C66138   3.515   5.767   0.599 -0.5542  0.0666 -0.4710
  502MOL0     C66139   3.501   5.745   0.459  0.6395 -0.0362  0.5948
  502MOL0     O66140   3.448   5.830   0.366 -0.4382  0.6403  0.5511
  502MOL0     C66141   3.524   5.944   0.349  0.3482 -0.1391  0.3744
  502MOL0     C66142   3.484   6.006   0.209  0.8088  0.1125 -0.1930
  502MOL0     C66143   3.540   5.914   0.097  0.1991 -0.0116  0.0609
  502MOL0     C66144   3.420   5.814   0.052  0.5977 -0.6183 -0.1226
  502MOL0     C66145   3.475   5.715  -0.061  0.7059 -0.0332 -0.4074
  502MOL0     C66146   3.392   5.575  -0.058 -0.3033  0.5254  0.4619
  502MOL0     C66147   3.489   5.463  -0.089 -0.1981 -0.1110 -0.1981
  502MOL0     C66148   3.414   5.326  -0.066 -0.4661  0.0557  0.3390
  502MOL0     N66149   3.390   5.289   0.076 -0.5094  0.2331 -0.0607
  502MOL0     C66150   3.490   5.274   0.167  1.4555 -0.4495 -0.4803
  502MOL0     C66151   3.446   5.178   0.254 -0.1347 -0.9926 -0.9629
  502MOL0     C66152   3.530   5.134   0.370 -0.6615  0.5570 -0.1705
  502MOL0     C66153   3.534   4.980   0.392 -0.6119  0.2912 -0.6837
  502MOL0     C66154   3.632   4.921   0.506  0.2141  0.4943  1.2081
  502MOL0     C66155   3.608   4.969   0.647  0.4355  0.5248 -0.6787
  502MOL0     O66156   3.476   4.947   0.679  0.7202  0.2561  0.8844
  502MOL0     C66157   3.432   4.816   0.715  0.1854 -1.1792  0.7289
  502MOL0     C66158   3.497   4.730   0.805 -0.5895 -0.2891  0.3919
  502MOL0     C66159   3.449   4.605   0.835  0.1784 -0.7367 -0.2107
  502MOL0     C66160   3.343   4.551   0.756 -0.2383  0.1676  0.7390
  502MOL0     C66161   3.305   4.416   0.773  0.4341 -0.1559  0.0363
  502MOL0     O66162   3.232   4.357   0.671 -0.1575 -0.2676  0.0998
  502MOL0     C66163   3.194   4.225   0.702 -0.3019 -0.4525  0.3896
  502MOL0     C66164   3.102   4.199   0.805  0.7717  0.0782  0.0896
  502MOL0     C66165   3.083   4.071   0.863 -0.0217  0.8799 -0.0157
  502MOL0     C66166   3.146   3.957   0.803 -0.6859  0.4496  0.7352
  502MOL0     O66167   3.129   3.825   0.840 -0.2166 -0.5613  0.2723
  502MOL0     C66168   3.112   3.794   0.985  0.6865 -0.1971 -0.0185
  502MOL0     C66169   2.989   3.724   1.030 -0.1298  0.4632 -0.1502
  502MOL0     C66170   2.863   3.757   0.952 -0.6485  0.0708  0.5320
  502MOL0     C66171   2.748   3.643   0.977 -0.2036  0.0825 -0.9345
  502MOL0     C66172   2.627   3.646   0.879  0.0641 -0.3502  0.1473
  502MOL0     C66173   2.672   3.572   0.755 -0.3159 -0.3038 -0.2503
  502MOL0     C66174   2.560   3.562   0.657  1.4986  0.7543  0.4127
  502MOL0     C66175   2.434   3.483   0.678 -0.0240  0.5188 -0.3579
  502MOL0    Cl66176   2.356   3.462   0.519  0.3748 -0.1382 -0.1059
  502MOL0     C66177   3.224   3.976   0.687  0.3546 -0.6503 -0.1641
  502MOL0     C66178   3.243   4.106   0.640 -0.5944 -1.5094  0.6698
  502MOL0     O66179   3.339   4.358   0.879 -1.1471 -0.6266 -0.0728
  502MOL0     C66180   3.276   4.638   0.661 -0.0089 -0.4889 -0.1161
  502MOL0     C66181   3.319   4.772   0.653 -0.3912  1.0661 -0.2020
  502MOL0     N66182   3.313   5.150   0.223  0.0130  0.2966  0.0013
  502MOL0     N66183   3.277   5.214   0.118 -0.6078  0.1492 -0.5295
  502MOL0     C66184   3.518   5.615   0.408 -0.4112 -0.3022  0.3748
  502MOL0     C66185   3.563   5.521   0.495 -0.0201  0.3771 -0.1250
  502MOL0     C66186   3.779   5.241   0.763 -0.1119  0.3262 -0.0269
  502MOL0     C66187   3.897   5.172   0.727 -0.1497 -0.4572  0.1449
  502MOL0     C66188   3.940   5.060   0.806  0.4374  1.0203 -0.1217
  502MOL0     C66189   3.855   5.015   0.917  1.1887 -0.0784 -1.2174
  502MOL0     O66190   3.892   4.893   0.983 -0.5533  0.2017 -0.2931
  502MOL0     C66191   3.805   4.830   1.081 -0.6027  0.2652 -0.3034
  502MOL0     C66192   3.812   4.895   1.216 -0.3400 -0.5003  0.3354
  502MOL0     C66193   3.945   4.877   1.294 -1.0591 -0.7879 -0.5223
  502MOL0     C66194   3.976   4.740   1.359 -0.3608 -0.8272 -0.1056
  502MOL0     C66195   3.885   4.715   1.469  0.2869 -0.0455 -0.4111
  502MOL0     C66196   3.822   4.709   1.577 -0.0213 -0.9937  0.0889
  502MOL0     C66197   3.742   5.094   0.955 -0.4142 -0.2422  0.0110
  502MOL0     C66198   3.704   5.204   0.879 -0.3088  0.5061  0.4440
  502MOL0     H66199   3.574   5.686   0.793  1.1457  2.2140 -0.1803
  502MOL0     H66200   3.503   5.867   0.640  3.7639  0.2224  0.9044
  502MOL0     H66201   3.632   5.927   0.349  0.8924  2.4548 -2.2534
  502MOL0     H66202   3.500   6.021   0.423  0.9415 -1.1876  1.6893
  502MOL0     H66203   3.539   6.096   0.181  0.3101  0.1566 -1.0597
  502MOL0     H66204   3.377   6.023   0.198  0.6511  0.7409  1.9249
  502MOL0     H66205   3.621   5.848   0.129 -0.0535 -1.6152 -2.3445
  502MOL0     H66206   3.568   5.974   0.009 -0.5168 -1.9069 -1.5191
  502MOL0     H66207   3.381   5.753   0.134 -0.2872  0.3944  0.2187
  502MOL0     H66208   3.339   5.877   0.017 -0.8189  0.2981  4.2186
  502MOL0     H66209   3.578   5.689  -0.034  0.5217 -0.8859 -0.5003
  502MOL0     H66210   3.465   5.766  -0.157 -1.8857  3.1501  1.3425
  502MOL0     H66211   3.316   5.578  -0.137 -0.5863 -0.0432  0.7041
  502MOL0     H66212   3.346   5.556   0.040 -2.8322 -0.0914 -0.7466
  502MOL0     H66213   3.540   5.477  -0.186 -4.8331  0.9897 -2.7624
  502MOL0     H66214   3.571   5.472  -0.016 -0.9762 -1.4478  0.8727
  502MOL0     H66215   3.457   5.242  -0.122  2.0713  1.2788  0.3242
  502MOL0     H66216   3.313   5.342  -0.106 -1.4174 -0.4034  2.4257
  502MOL0     H66217   3.586   5.323   0.178  1.7944 -1.2265  0.0632
  502MOL0     H66218   3.485   5.182   0.457 -1.7974 -1.1355  0.2181
  502MOL0     H66219   3.630   5.177   0.359  1.1822 -3.6614 -1.9046
  502MOL0     H66220   3.563   4.927   0.300  1.5039  2.5682 -1.4271
  502MOL0     H66221   3.428   4.961   0.414 -0.9992  2.0188 -0.9166
  502MOL0     H66222   3.617   4.812   0.505  0.4018  0.4693  1.1404
  502MOL0     H66223   3.736   4.938   0.476  0.0453 -0.4758 -0.0204
  502MOL0     H66224   3.623   5.077   0.644  0.9896  0.5267  1.0692
  502MOL0     H66225   3.681   4.917   0.710  1.3517  2.2855 -0.2249
  502MOL0     H66226   3.577   4.776   0.862 -1.7973  0.4624  1.5264
  502MOL0     H66227   3.479   4.541   0.917  1.0861 -1.8131 -1.3499
  502MOL0     H66228   3.064   4.290   0.850  1.8813  0.7788 -0.3532
  502MOL0     H66229   3.007   4.059   0.940  0.4877  0.2558  0.3992
  502MOL0     H66230   3.121   3.892   1.033  3.4681 -0.2522 -0.2687
  502MOL0     H66231   3.203   3.746   1.021  0.0081 -1.3559  0.2160
  502MOL0     H66232   2.959   3.749   1.132 -1.7210 -0.3676 -0.3709
  502MOL0     H66233   2.996   3.615   1.020  2.5631  0.4385  1.0380
  502MOL0     H66234   2.874   3.755   0.843 -3.0680  0.6894  0.2052
  502MOL0     H66235   2.826   3.858   0.968  0.8552  1.0335 -1.6795
  502MOL0     H66236   2.797   3.546   0.967  0.5879 -0.1367  3.3427
  502MOL0     H66237   2.704   3.664   1.075  2.8904  3.4328 -0.0322
  502MOL0     H66238   2.618   3.749   0.842 -0.3581 -0.5635 -0.3622
  502MOL0     H66239   2.536   3.601   0.919 -0.3384  1.1672  1.0358
  502MOL0     H66240   2.713   3.472   0.772 -0.2265 -0.3734 -0.8364
  502MOL0     H66241   2.755   3.626   0.709  2.4500 -1.2790  3.2166
  502MOL0     H66242   2.527   3.663   0.631 -0.4372 -0.2390 -1.1978
  502MOL0     H66243   2.606   3.525   0.565  2.0783 -1.0542  1.3781
  502MOL0     H66244   2.361   3.525   0.748 -0.2827 -2.4393  1.3339
  502MOL0     H66245   2.464   3.384   0.713 -1.1317 -0.3851 -1.8723
  502MOL0     H66246   3.252   3.890   0.627  2.3115  1.6972 -2.9020
  502MOL0     H66247   3.305   4.122   0.553  2.5798 -0.1167  2.9710
  502MOL0     H66248   3.182   4.622   0.609  1.1133 -0.2906 -2.3201
  502MOL0     H66249   3.290   4.855   0.589  3.2293  2.0553 -0.7471
  502MOL0     H66250   3.515   5.607   0.300  0.6460  2.0677  0.0907
  502MOL0     H66251   3.578   5.419   0.460 -3.6307 -1.6571  3.2514
  502MOL0     H66252   3.955   5.179   0.636 -0.6409 -0.3100 -0.1575
  502MOL0     H66253   4.026   4.998   0.785 -0.3355  0.1850 -0.9115
  502MOL0     H66254   3.824   4.723   1.099 -1.0670 -0.3625 -3.0222
  502MOL0     H66255   3.701   4.848   1.052 -1.1342 -1.2224  0.5168
  502MOL0     H66256   3.797   5.002   1.200 -0.2822 -0.8577 -2.5394
  502MOL0     H66257   3.740   4.842   1.279 -0.7392 -1.8826 -1.2262
  502MOL0     H66258   3.946   4.957   1.369  1.4577 -2.7527  1.7363
  502MOL0     H66259   4.024   4.896   1.220 -2.5597 -1.1839 -2.2890
  502MOL0     H66260   3.959   4.672   1.275  1.0790 -1.0636 -0.2331
  502MOL0     H66261   4.081   4.731   1.388 -0.1266  0.6943 -0.3910
  502MOL0     H66262   3.786   4.713   1.678  0.3053 -1.0208  0.2073
  502MOL0     H66263   3.684   5.072   1.044 -0.3846 -0.8285 -0.1119
  502MOL0     H66264   3.620   5.270   0.900  1.7378  2.9092  1.6915
  503MOL0     O66265   8.742   7.054   2.022  0.0279  0.7251 -0.2787
  503MOL0     C66266   8.738   7.172   2.071 -0.8295  1.7206  0.9345
  503MOL0     O66267   8.626   7.236   2.099 -0.0436  0.0399  0.1794
  503MOL0     C66268   8.509   7.164   2.094 -0.5247 -0.7099  1.0842
  503MOL0     C66269   8.407   7.201   2.003 -0.7505 -0.5812 -0.2124
  503MOL0     C66270   8.283   7.139   2.012  0.0107 -0.4440  0.5729
  503MOL0     C66271   8.257   7.061   2.123  0.1663  0.2736  0.0270
  503MOL0     O66272   8.145   6.985   2.148 -1.2276 -0.4927 -0.1017
  503MOL0     C66273   8.018   7.041   2.105  0.5272  1.0732 -1.0577
  503MOL0     C66274   7.979   7.176   2.154  0.0969  0.1181  0.5775
  503MOL0     C66275   7.860   7.237   2.078  1.2169 -0.3904 -0.9337
  503MOL0     C66276   7.866   7.391   2.099 -0.4166  0.4634  0.3555
  503MOL0     C66277   7.751   7.462   2.027 -0.7242 -0.0599 -0.0932
  503MOL0     C66278   7.771   7.617   2.000 -0.4964 -0.4406  0.8701
  503MOL0     C66279   7.769   7.693   2.127  0.5088 -0.2718 -0.7214
  503MOL0     C66280   7.728   7.839   2.096  0.4173 -0.2028  0.0198
  503MOL0     N66281   7.692   7.916   2.217 -0.1885 -0.0179  0.4736
  503MOL0     C66282   7.760   8.016   2.271  0.8463 -0.7458 -0.6998
  503MOL0     C66283   7.708   8.035   2.399  0.0321  0.0052 -0.4988
  503MOL0     C66284   7.731   8.155   2.491 -0.3207  0.4763  0.9649
  503MOL0     C66285   7.750   8.281   2.404 -0.3398 -0.3340 -0.4578
  503MOL0     C66286   7.632   8.318   2.320  0.1060  0.8392 -0.8157
  503MOL0     C66287   7.668   8.438   2.233  1.4690 -0.5193  0.7334
  503MOL0     O66288   7.548   8.438   2.144 -0.5141 -0.2371 -0.6097
  503MOL0     C66289   7.502   8.561   2.104 -1.8530  0.1550  0.6290
  503MOL0     C66290   7.573   8.680   2.106  0.3696 -1.5518  0.7797
  503MOL0     C66291   7.508   8.801   2.067 -0.3360  0.2677  0.8333
  503MOL0     C66292   7.381   8.793   2.011  0.2086  0.0723 -1.1411
  503MOL0     C66293   7.326   8.921   1.957  0.3135 -0.6883 -1.0732
  503MOL0     O66294   7.403   9.027   1.946 -0.2203  0.3302  0.4374
  503MOL0     C66295   7.348   9.135   1.874  0.4047  0.0539 -0.5396
  503MOL0     C66296   7.305   9.248   1.947  0.0266 -0.1880 -0.8822
  503MOL0     C66297   7.235   9.353   1.886  0.4275 -0.2744  0.7495
  503MOL0     C66298   7.225   9.359   1.744  0.6956  0.1437 -0.2895
  503MOL0     O66299   7.179   9.470   1.673 -0.0237 -0.1922 -0.0576
  503MOL0     C66300   7.092   9.563   1.754 -0.2237  0.3847 -0.3153
  503MOL0     C66301   7.013   9.643   1.648  0.0724 -1.1054  0.4883
  503MOL0     C66302   6.888   9.567   1.588 -0.6556 -0.3813  0.1732
  503MOL0     C66303   6.778   9.664   1.537 -0.2941  0.7509 -1.0001
  503MOL0     C66304   6.660   9.594   1.486  0.0971  0.7576  0.7457
  503MOL0     C66305   6.686   9.502   1.367  0.4234  0.7386 -0.2170
  503MOL0     C66306   6.728   9.571   1.232  1.5157  0.7730 -0.4654
  503MOL0     C66307   6.650   9.517   1.108 -0.4233 -0.4533 -1.6612
  503MOL0    Cl66308   6.736   9.504   0.953  0.0636  0.1073 -0.0226
  503MOL0     C66309   7.282   9.246   1.669  0.2457  0.6523 -0.0998
  503MOL0     C66310   7.332   9.129   1.737  0.5134  0.9252 -0.6049
  503MOL0     O66311   7.210   8.923   1.922  0.2555  1.1880 -0.6067
  503MOL0     C66312   7.312   8.672   2.003  0.5511 -0.4930  0.2902
  503MOL0     C66313   7.374   8.559   2.052  0.0682  0.7874 -0.3964
  503MOL0     N66314   7.616   7.936   2.428 -0.5548  0.2068  0.2083
  503MOL0     N66315   7.613   7.866   2.319 -1.4293  0.5080 -0.3985
  503MOL0     C66316   8.358   7.027   2.219 -0.8708 -0.4882  0.9362
  503MOL0     C66317   8.488   7.077   2.200 -0.9450 -0.8101 -0.4151
  503MOL0     C66318   8.867   7.249   2.073 -0.4120  0.9744 -0.7968
  503MOL0     C66319   8.990   7.202   2.009 -0.1245  0.7564 -0.7933
  503MOL0     C66320   9.113   7.268   2.006  0.8386 -1.2578  0.7106
  503MOL0     C66321   9.115   7.404   2.054 -0.8573  0.1094  0.0373
  503MOL0     O66322   9.225   7.493   2.036 -0.3874 -0.2558 -0.2326
  503MOL0     C66323   9.248   7.595   2.132  0.1621 -0.3269 -1.0684
  503MOL0     C66324   9.290   7.552   2.283  0.4425  0.4150  0.5671
  503MOL0     C66325   9.429   7.484   2.295 -0.1898 -0.3591 -0.0176
  503MOL0     C66326   9.549   7.584   2.289 -0.4530 -0.1057  0.2021
  503MOL0     C66327   9.578   7.633   2.158 -0.4799  0.0413 -0.5745
  503MOL0     C66328   9.620   7.677   2.051  0.5033  0.2087  0.4462
  503MOL0     C66329   8.992   7.452   2.114  0.6269  0.1351 -0.2857
  503MOL0     C66330   8.876   7.372   2.136 -0.1459 -0.3792  0.7891
  503MOL0     H66331   8.417   7.283   1.932  0.4741  0.3737  1.0118
  503MOL0     H66332   8.198   7.159   1.948 -1.5049  3.4704  3.4434
  503MOL0     H66333   7.945   6.964   2.135  2.1374 -0.4623 -0.9312
  503MOL0     H66334   8.004   7.040   1.996 -3.5509  1.5665 -0.6886
  503MOL0     H66335   8.058   7.251   2.155  0.7900 -0.5829 -0.2568
  503MOL0     H66336   7.954   7.160   2.259 -0.0227 -0.2000  0.5001
  503MOL0     H66337   7.765   7.193   2.110  2.2384 -1.8654  0.1814
  503MOL0     H66338   7.874   7.224   1.970 -1.0270  0.7886 -1.4363
  503MOL0     H66339   7.862   7.405   2.208  1.1577 -3.6875  1.1376
  503MOL0     H66340   7.962   7.425   2.060 -1.0248 -3.2854 -5.5857
  503MOL0     H66341   7.664   7.445   2.092  1.4687  1.5467  3.6157
  503MOL0     H66342   7.743   7.428   1.924  1.1072 -0.5551 -0.1071
  503MOL0     H66343   7.692   7.662   1.939  0.4521  0.1681  0.0555
  503MOL0     H66344   7.862   7.637   1.942 -1.9159  2.0408 -0.6954
  503MOL0     H66345   7.695   7.657   2.200  0.6555 -1.6406 -1.2245
  503MOL0     H66346   7.867   7.688   2.174 -0.4630 -3.4188  1.2857
  503MOL0     H66347   7.632   7.843   2.044  1.1941 -0.1579 -1.4607
  503MOL0     H66348   7.805   7.899   2.046  2.6722 -3.7032 -1.0415
  503MOL0     H66349   7.830   8.082   2.220  1.9997 -2.8402 -2.0083
  503MOL0     H66350   7.824   8.146   2.549  0.2256  2.1258  0.4281
  503MOL0     H66351   7.644   8.165   2.557  0.9973 -3.0363  3.5252
  503MOL0     H66352   7.844   8.284   2.349  1.6864  0.0548  2.7394
  503MOL0     H66353   7.758   8.372   2.465  1.8536  0.5980 -2.0171
  503MOL0     H66354   7.585   8.232   2.270 -3.2218  0.7916  2.0247
  503MOL0     H66355   7.549   8.343   2.387 -0.6036 -1.6889 -0.6262
  503MOL0     H66356   7.759   8.421   2.176 -0.0120  0.4069 -2.1111
  503MOL0     H66357   7.683   8.527   2.295 -0.3268  1.4736 -1.5025
  503MOL0     H66358   7.677   8.683   2.135  0.5413  1.0983  0.1513
  503MOL0     H66359   7.562   8.895   2.078 -0.8100  0.6541 -0.0481
  503MOL0     H66360   7.332   9.257   2.052  2.1931 -1.3241 -1.2873
  503MOL0     H66361   7.198   9.436   1.945 -0.0745 -0.6632  0.9886
  503MOL0     H66362   7.157   9.632   1.808  2.1147 -3.3511  2.0937
  503MOL0     H66363   7.023   9.527   1.830 -1.6214  4.4147  0.5598
  503MOL0     H66364   7.074   9.675   1.563 -2.9387  1.8975 -0.7502
  503MOL0     H66365   6.968   9.732   1.693 -0.1302 -1.5775  1.2299
  503MOL0     H66366   6.850   9.496   1.662  0.2528  0.4445  1.4761
  503MOL0     H66367   6.933   9.502   1.513 -1.2433 -2.0110  1.1846
  503MOL0     H66368   6.752   9.722   1.626  0.6720 -1.3250  0.7272
  503MOL0     H66369   6.816   9.719   1.450 -0.3166  1.8203 -0.3576
  503MOL0     H66370   6.583   9.659   1.444 -2.2376 -1.8827  0.6210
  503MOL0     H66371   6.620   9.534   1.569  0.8466 -3.6329 -1.7625
  503MOL0     H66372   6.586   9.461   1.352  0.5743  0.8996 -1.7764
  503MOL0     H66373   6.756   9.423   1.396 -1.9848 -1.1289  0.8542
  503MOL0     H66374   6.715   9.680   1.242  0.9722  0.6328  0.3823
  503MOL0     H66375   6.834   9.545   1.223  0.5290 -3.5555 -1.8196
  503MOL0     H66376   6.572   9.590   1.088 -0.0931  1.0249  1.6919
  503MOL0     H66377   6.604   9.421   1.135 -0.7869 -0.6476 -2.9202
  503MOL0     H66378   7.277   9.241   1.561 -0.9608  0.1095 -0.0379
  503MOL0     H66379   7.359   9.038   1.685  0.6051  0.5182  0.1480
  503MOL0     H66380   7.219   8.672   1.946 -0.5934 -0.9360  2.0726
  503MOL0     H66381   7.326   8.462   2.052 -0.3757  0.8851  3.0159
  503MOL0     H66382   8.332   6.969   2.307 -0.1141 -1.0310  0.8129
  503MOL0     H66383   8.564   7.062   2.276  1.5699 -1.6338 -2.9224
  503MOL0     H66384   9.000   7.107   1.958 -1.2172  1.1427 -1.7712
  503MOL0     H66385   9.202   7.229   1.960  1.9434  4.2788 -2.7685
  503MOL0     H66386   9.159   7.659   2.126  1.4471  1.4310 -2.0415
  503MOL0     H66387   9.315   7.673   2.095  0.6700 -1.3454 -2.3474
  503MOL0     H66388   9.289   7.643   2.344 -0.6343  0.0353  1.1518
  503MOL0     H66389   9.213   7.483   2.320  1.6066 -0.3844  1.5726
  503MOL0     H66390   9.440   7.402   2.223 -2.7325  0.1882 -1.1536
  503MOL0     H66391   9.425   7.441   2.395 -1.0149 -1.1485 -0.3776
  503MOL0     H66392   9.511   7.665   2.352  0.3410 -0.4654  1.1739
  503MOL0     H66393   9.638   7.537   2.332 -1.0133 -1.4537 -0.0797
  503MOL0     H66394   9.656   7.717   1.959  0.4405  1.2495  0.8585
  503MOL0     H66395   8.990   7.547   2.167  1.3513  0.3660 -0.6664
  503MOL0     H66396   8.793   7.426   2.180 -0.9052 -1.0524  0.2069
  504MOL0     O66397   1.864   3.775   1.778 -0.4775 -0.7707  0.1316
  504MOL0     C66398   1.788   3.694   1.818 -0.0913 -0.6983  0.3103
  504MOL0     O66399   1.660   3.717   1.820  0.2069  1.0663  0.2386
  504MOL0     C66400   1.612   3.846   1.803  0.9149  1.3559  1.0213
  504MOL0     C66401   1.609   3.918   1.683  1.0195  0.0278 -0.9834
  504MOL0     C66402   1.557   4.047   1.686  0.0054 -0.7574  0.8236
  504MOL0     C66403   1.493   4.103   1.791  0.0640 -0.7493 -0.3202
  504MOL0     O66404   1.454   4.237   1.784 -1.3607 -0.2992  0.7693
  504MOL0     C66405   1.331   4.278   1.833 -0.0657  0.4872  1.3431
  504MOL0     C66406   1.288   4.413   1.791 -0.2943  0.2830 -1.4059
  504MOL0     C66407   1.349   4.521   1.881 -0.2346 -0.1423 -0.8891
  504MOL0     C66408   1.304   4.660   1.844  0.3181  0.9155  0.0070
  504MOL0     C66409   1.334   4.761   1.955 -0.5592  0.0501 -0.2791
  504MOL0     C66410   1.277   4.908   1.934 -0.3204 -0.2313 -0.5213
  504MOL0     C66411   1.332   4.960   1.791  0.6942  0.3212 -0.4525
  504MOL0     C66412   1.485   4.962   1.782 -0.6267  0.5020  0.0215
  504MOL0     N66413   1.534   5.055   1.883 -0.3416 -0.3907 -0.0256
  504MOL0     C66414   1.538   5.196   1.880  0.1108 -0.0715  0.0265
  504MOL0     C66415   1.569   5.226   2.005  0.4380  0.0653 -0.5284
  504MOL0     C66416   1.570   5.363   2.056  0.6813  0.7358  0.2070
  504MOL0     C66417   1.707   5.426   2.052  0.7382  0.2328  0.8038
  504MOL0     C66418   1.757   5.442   1.903 -0.7219  0.0348 -0.7610
  504MOL0     C66419   1.911   5.470   1.900 -0.0748 -0.0960 -0.7492
  504MOL0     O66420   1.982   5.347   1.923  0.2488  0.4632 -0.0412
  504MOL0     C66421   1.962   5.244   1.833 -0.0642 -1.3260 -0.1018
  504MOL0     C66422   1.983   5.268   1.693  0.9280 -0.3899  0.1990
  504MOL0     C66423   1.946   5.167   1.602  0.6436  0.7935  0.4768
  504MOL0     C66424   1.903   5.043   1.650  0.6298 -0.6528 -0.4618
  504MOL0     C66425   1.845   4.936   1.565  0.8322 -0.1940  0.3421
  504MOL0     O66426   1.791   4.822   1.619  0.2108  0.6248  0.4150
  504MOL0     C66427   1.734   4.716   1.550 -0.4866 -0.4947  0.1827
  504MOL0     C66428   1.682   4.721   1.419 -0.5097  0.9681 -0.0469
  504MOL0     C66429   1.621   4.606   1.359 -0.7039  0.4934 -0.5585
  504MOL0     C66430   1.618   4.480   1.422  0.6531 -0.2241  0.4679
  504MOL0     O66431   1.581   4.362   1.360 -1.1481 -0.1241  0.6762
  504MOL0     C66432   1.608   4.339   1.218  0.6176 -0.5733  0.1430
  504MOL0     C66433   1.548   4.204   1.187  0.0644  0.2603 -0.0488
  504MOL0     C66434   1.585   4.081   1.264  0.2375  0.0596  0.8951
  504MOL0     C66435   1.478   3.969   1.247  1.1035  0.3277  0.0396
  504MOL0     C66436   1.552   3.832   1.272  0.5140 -0.8495  0.2186
  504MOL0     C66437   1.463   3.710   1.246 -0.4856 -0.7281 -0.2302
  504MOL0     C66438   1.385   3.718   1.108 -0.6426 -0.0045  0.5537
  504MOL0     C66439   1.296   3.594   1.075 -0.6188  0.2336 -0.1225
  504MOL0    Cl66440   1.219   3.604   0.918 -0.2452  0.2085  0.5283
  504MOL0     C66441   1.666   4.481   1.557 -0.5750 -0.0966 -0.5822
  504MOL0     C66442   1.716   4.596   1.622 -0.7717 -1.0882  0.3186
  504MOL0     O66443   1.843   4.964   1.443  0.8015 -0.7182 -0.3226
  504MOL0     C66444   1.896   5.020   1.789 -0.2297 -0.4030 -0.2974
  504MOL0     C66445   1.922   5.123   1.879  0.4509  0.7612 -0.2038
  504MOL0     N66446   1.589   5.112   2.091 -0.0468 -0.9628  0.2424
  504MOL0     N66447   1.571   5.016   2.015 -0.0793  0.9287  0.3867
  504MOL0     C66448   1.491   4.019   1.909  0.1230  0.1853  0.3581
  504MOL0     C66449   1.554   3.897   1.919  0.2651  0.0973 -0.1485
  504MOL0     C66450   1.831   3.573   1.891 -0.3868 -0.4732 -0.0560
  504MOL0     C66451   1.750   3.474   1.954  0.5469 -0.3344  0.9814
  504MOL0     C66452   1.803   3.363   2.007 -0.4838  1.6676 -0.7992
  504MOL0     C66453   1.942   3.325   2.007 -0.0797  0.4277  0.4611
  504MOL0     O66454   1.986   3.217   2.071  0.7560  0.0413 -0.2199
  504MOL0     C66455   2.121   3.174   2.070 -0.7291  0.1699 -0.2863
  504MOL0     C66456   2.155   3.084   1.945  0.0246 -0.1094  0.6953
  504MOL0     C66457   2.295   3.033   1.952 -0.9760 -0.5397 -0.2447
  504MOL0     C66458   2.381   3.097   1.841  0.2483  1.0970 -0.3921
  504MOL0     C66459   2.399   3.230   1.864  0.2062 -0.1410  0.0943
  504MOL0     C66460   2.410   3.348   1.898 -0.4663 -0.3488 -0.5170
  504MOL0     C66461   2.028   3.423   1.935  0.5367  0.7598  0.4449
  504MOL0     C66462   1.970   3.544   1.879  0.2425  0.3864 -0.1981
  504MOL0     H66463   1.634   3.871   1.589  1.9871  0.9684 -1.2202
  504MOL0     H66464   1.558   4.118   1.604  2.1160 -0.4848  1.0388
  504MOL0     H66465   1.326   4.262   1.941  1.2396 -0.8491  1.2419
  504MOL0     H66466   1.259   4.204   1.798 -0.0860  0.1704  2.0489
  504MOL0     H66467   1.179   4.411   1.791 -0.5579  4.1322  1.0504
  504MOL0     H66468   1.314   4.416   1.684 -1.0097 -3.3828 -1.8117
  504MOL0     H66469   1.458   4.509   1.886 -0.4534 -2.2947 -0.0287
  504MOL0     H66470   1.315   4.507   1.984  1.1591  0.6809 -0.2820
  504MOL0     H66471   1.356   4.689   1.752 -1.7731 -2.4564 -2.4805
  504MOL0     H66472   1.199   4.669   1.814  0.3585  1.6156  0.0648
  504MOL0     H66473   1.440   4.757   1.980 -0.3925  1.0068 -0.7785
  504MOL0     H66474   1.290   4.731   2.050  0.0992 -0.5194 -0.1460
  504MOL0     H66475   1.319   4.983   2.002  0.1201  0.8719 -1.9532
  504MOL0     H66476   1.169   4.916   1.948 -0.0896  0.1344  1.3979
  504MOL0     H66477   1.278   4.897   1.719  1.5611 -3.5007  2.0010
  504MOL0     H66478   1.306   5.066   1.779 -3.4797 -0.3783  0.9230
  504MOL0     H66479   1.521   4.996   1.684  0.9256  0.9707  0.7151
  504MOL0     H66480   1.522   4.859   1.784 -0.7554  0.3871 -1.8303
  504MOL0     H66481   1.522   5.253   1.789  4.9653 -1.6563 -2.1481
  504MOL0     H66482   1.534   5.367   2.160 -3.7239 -1.0831 -1.0184
  504MOL0     H66483   1.504   5.427   1.997  2.3491  2.6900  0.3378
  504MOL0     H66484   1.772   5.362   2.113  0.1169  0.2083  1.4639
  504MOL0     H66485   1.705   5.521   2.106 -2.7059 -0.6061  2.4760
  504MOL0     H66486   1.730   5.358   1.839  0.1359 -1.1226  0.3616
  504MOL0     H66487   1.712   5.531   1.858 -2.2985 -1.4653 -2.2780
  504MOL0     H66488   1.939   5.541   1.979 -1.4717  3.0452 -2.8770
  504MOL0     H66489   1.953   5.512   1.808 -1.2558  1.5695 -0.5733
  504MOL0     H66490   2.019   5.359   1.647  2.7412  0.2795  2.6883
  504MOL0     H66491   1.965   5.171   1.495  0.0424 -1.5084  0.2272
  504MOL0     H66492   1.676   4.811   1.359 -2.4363  1.3028  0.5670
  504MOL0     H66493   1.575   4.622   1.262  2.5127  3.9793 -1.7625
  504MOL0     H66494   1.715   4.331   1.197  0.5541 -2.1325  0.2740
  504MOL0     H66495   1.558   4.420   1.166  0.6849 -0.9111 -0.4577
  504MOL0     H66496   1.571   4.184   1.082 -2.1874  1.4242 -0.8186
  504MOL0     H66497   1.441   4.220   1.202  0.4101  2.6011  0.3724
  504MOL0     H66498   1.596   4.094   1.372 -0.7102  1.0199  0.8921
  504MOL0     H66499   1.678   4.034   1.231  0.4659 -1.8024  3.7830
  504MOL0     H66500   1.397   3.977   1.320 -1.7703 -1.5161 -2.6718
  504MOL0     H66501   1.443   3.965   1.144  4.2559  2.3661 -1.2516
  504MOL0     H66502   1.596   3.825   1.371  0.2786 -2.9721  0.2365
  504MOL0     H66503   1.634   3.814   1.202  2.1106  0.2349  1.7356
  504MOL0     H66504   1.391   3.689   1.326  0.6886 -0.2957  0.9657
  504MOL0     H66505   1.535   3.628   1.243  2.2243  1.1337  4.1335
  504MOL0     H66506   1.323   3.807   1.103 -0.2061  0.2843  0.1395
  504MOL0     H66507   1.462   3.708   1.031  0.0174 -2.9644  1.4617
  504MOL0     H66508   1.216   3.575   1.148  0.6458 -2.7490  0.6245
  504MOL0     H66509   1.360   3.509   1.100 -2.2124 -0.8346  0.5299
  504MOL0     H66510   1.663   4.381   1.599  1.5426 -0.6007 -1.4866
  504MOL0     H66511   1.762   4.605   1.720 -1.6799  0.2863  0.6498
  504MOL0     H66512   1.863   4.924   1.827  0.1753 -0.6170 -0.4929
  504MOL0     H66513   1.917   5.118   1.988  0.3162  2.7250 -0.0949
  504MOL0     H66514   1.452   4.075   1.993  2.5508  3.0688 -0.2596
  504MOL0     H66515   1.549   3.838   2.010  3.1387  1.6691  1.1613
  504MOL0     H66516   1.642   3.485   1.947  0.5710 -1.0565 -1.5728
  504MOL0     H66517   1.738   3.312   2.078  0.7303  2.6237  1.1108
  504MOL0     H66518   2.137   3.119   2.163 -0.9192 -1.7300 -1.3238
  504MOL0     H66519   2.186   3.262   2.065 -1.0195  0.3288 -2.9363
  504MOL0     H66520   2.084   3.002   1.937 -0.8053  0.5927  0.6975
  504MOL0     H66521   2.142   3.138   1.850 -2.9426 -0.6816  0.6679
  504MOL0     H66522   2.288   2.924   1.941  1.9113 -0.8388 -0.0722
  504MOL0     H66523   2.350   3.060   2.043 -0.4854 -1.1173 -0.3555
  504MOL0     H66524   2.482   3.056   1.852  0.2423  1.8177  4.0718
  504MOL0     H66525   2.331   3.090   1.744 -2.2995 -0.4009  0.9618
  504MOL0     H66526   2.421   3.452   1.921  1.1751 -0.6261  0.0409
  504MOL0     H66527   2.133   3.399   1.929  1.1182  2.0355  3.5994
  504MOL0     H66528   2.038   3.621   1.844  1.6332 -0.3672  0.7413
  505MOL0     O66529   6.223   8.309   5.065  0.5505  0.0013 -0.1441
  505MOL0     C66530   6.304   8.380   5.115  0.7392  0.0357 -0.6238
  505MOL0     O66531   6.291   8.463   5.215 -0.2477  0.3927  0.3350
  505MOL0     C66532   6.163   8.486   5.237 -0.2911 -0.4277  0.3107
  505MOL0     C66533   6.076   8.402   5.301  0.3931 -0.5239  0.0497
  505MOL0     C66534   5.946   8.451   5.330 -0.4739  0.0757 -0.5104
  505MOL0     C66535   5.901   8.578   5.291 -0.0550 -0.1848 -0.4886
  505MOL0     O66536   5.773   8.615   5.321 -0.7587 -0.5546 -0.6195
  505MOL0     C66537   5.755   8.746   5.382  0.3736  0.5772 -0.2200
  505MOL0     C66538   5.768   8.863   5.286  0.5610 -0.0227 -1.1849
  505MOL0     C66539   5.719   8.837   5.144  0.5519  0.2304 -0.5521
  505MOL0     C66540   5.735   8.970   5.060 -0.0245  0.2632 -0.0771
  505MOL0     C66541   5.614   9.007   4.980  0.5764  0.9979  0.3499
  505MOL0     C66542   5.594   8.886   4.872 -0.0871 -0.1882 -0.6378
  505MOL0     C66543   5.511   8.929   4.754 -0.3282  0.1692  0.7475
  505MOL0     C66544   5.489   8.816   4.651 -0.5523  0.2793 -0.0285
  505MOL0     N66545   5.403   8.700   4.698 -0.2232  0.7271 -0.5366
  505MOL0     C66546   5.408   8.572   4.646 -0.5664 -0.7511  0.2199
  505MOL0     C66547   5.309   8.504   4.709  0.0253 -0.2886 -0.1612
  505MOL0     C66548   5.282   8.355   4.702  0.6951 -0.1950 -0.2143
  505MOL0     C66549   5.404   8.270   4.711  0.0347  0.4492  0.1884
  505MOL0     C66550   5.365   8.126   4.724  0.0707  0.5545 -1.0251
  505MOL0     C66551   5.485   8.035   4.746 -0.5598  0.0476 -0.1589
  505MOL0     O66552   5.611   8.066   4.675  0.5083 -0.1172 -0.9928
  505MOL0     C66553   5.609   8.048   4.537  0.7396  0.0063 -0.8559
  505MOL0     C66554   5.524   7.956   4.468 -0.0260 -0.2933  0.1668
  505MOL0     C66555   5.545   7.926   4.338  0.1840 -0.0978  0.2889
  505MOL0     C66556   5.634   8.005   4.258 -0.7624  0.9950 -0.1663
  505MOL0     C66557   5.666   7.965   4.127  0.7595 -0.0275  0.2915
  505MOL0     O66558   5.613   7.837   4.096  0.4512 -0.1005 -0.2723
  505MOL0     C66559   5.607   7.796   3.970  0.3569  0.0780  0.7796
  505MOL0     C66560   5.590   7.659   3.964 -0.0620 -1.3705 -0.4947
  505MOL0     C66561   5.576   7.596   3.845  0.3970  0.8471  0.7715
  505MOL0     C66562   5.574   7.670   3.729 -0.3995  0.1444  0.4751
  505MOL0     O66563   5.526   7.604   3.623 -0.0016  0.5684  0.2096
  505MOL0     C66564   5.584   7.623   3.489  0.4272  0.1330 -0.5288
  505MOL0     C66565   5.467   7.614   3.401  0.6423 -0.2868  0.4353
  505MOL0     C66566   5.381   7.748   3.400  0.2634 -0.0093 -0.3647
  505MOL0     C66567   5.279   7.768   3.284 -0.8833 -0.2389 -0.1299
  505MOL0     C66568   5.175   7.657   3.291 -0.1693  0.0044 -0.1806
  505MOL0     C66569   5.062   7.653   3.186  0.3157  0.4530  0.6905
  505MOL0     C66570   5.122   7.599   3.052 -0.5555  0.5624  0.3702
  505MOL0     C66571   5.005   7.571   2.960  0.1501  0.4293 -1.3539
  505MOL0    Cl66572   5.079   7.522   2.795 -0.3642 -0.1597  0.1441
  505MOL0     C66573   5.587   7.808   3.730 -0.2751  0.4193 -0.8810
  505MOL0     C66574   5.600   7.869   3.855 -0.0541  0.5246 -0.5632
  505MOL0     O66575   5.746   8.034   4.064 -0.4321  0.2516 -0.5361
  505MOL0     C66576   5.706   8.112   4.328 -0.1662 -0.0682  0.2922
  505MOL0     C66577   5.699   8.129   4.471 -0.3566 -0.0380  0.8816
  505MOL0     N66578   5.239   8.591   4.789  0.7911  0.0822 -0.1522
  505MOL0     N66579   5.295   8.708   4.781  0.5443  0.4804 -0.8575
  505MOL0     C66580   5.995   8.645   5.205  0.5269 -0.1261 -0.4839
  505MOL0     C66581   6.119   8.602   5.184  1.0773  0.0457 -0.6626
  505MOL0     C66582   6.438   8.362   5.082 -1.8686 -0.1862  0.4270
  505MOL0     C66583   6.487   8.232   5.053 -0.2365 -0.1279  0.3940
  505MOL0     C66584   6.620   8.205   5.015  0.0703 -0.3017 -0.0728
  505MOL0     C66585   6.707   8.309   5.010 -0.8718  0.3660 -0.2657
  505MOL0     O66586   6.839   8.292   4.973 -0.3170 -0.3945  0.4450
  505MOL0     C66587   6.887   8.158   4.937 -1.3000 -0.9591 -0.5011
  505MOL0     C66588   7.018   8.140   4.863 -1.5502  0.7380 -0.6138
  505MOL0     C66589   7.145   8.195   4.934 -0.0296  0.0399  0.2907
  505MOL0     C66590   7.227   8.094   5.015 -0.6098 -0.3846 -0.1070
  505MOL0     C66591   7.282   8.152   5.144 -0.6061  0.0037 -0.4328
  505MOL0     C66592   7.313   8.209   5.247 -0.3546 -0.2116 -0.4937
  505MOL0     C66593   6.666   8.443   5.036  1.1515 -0.9415  0.1429
  505MOL0     C66594   6.539   8.464   5.074 -0.0025  0.1691 -0.4719
  505MOL0     H66595   6.107   8.302   5.330  1.3010 -0.2021  0.2208
  505MOL0     H66596   5.880   8.372   5.366 -1.7606  1.5689  0.5145
  505MOL0     H66597   5.796   8.753   5.483  2.7672 -2.7087 -0.8002
  505MOL0     H66598   5.647   8.752   5.394  0.2791  0.8299 -1.0752
  505MOL0     H66599   5.868   8.909   5.285 -0.7108  3.0583 -0.0035
  505MOL0     H66600   5.697   8.937   5.323  2.1148  0.6449  0.6822
  505MOL0     H66601   5.614   8.805   5.144  1.6152 -3.9138 -0.1651
  505MOL0     H66602   5.766   8.751   5.094  0.7168 -0.1008  0.1591
  505MOL0     H66603   5.757   9.058   5.123  1.3122 -1.1668  1.5548
  505MOL0     H66604   5.816   8.946   4.991 -2.5622  0.8084 -3.4671
  505MOL0     H66605   5.629   9.104   4.931  1.8572 -0.7852 -3.0959
  505MOL0     H66606   5.521   9.007   5.038 -0.6831 -2.6145 -1.3638
  505MOL0     H66607   5.566   8.794   4.925  1.2568  0.9417  2.2393
  505MOL0     H66608   5.695   8.877   4.832  0.3220  1.2732 -0.0069
  505MOL0     H66609   5.412   8.970   4.778 -0.8780 -0.1195 -0.9282
  505MOL0     H66610   5.561   9.006   4.696 -3.4395  0.5277 -1.7166
  505MOL0     H66611   5.587   8.783   4.615  0.0259  1.8985 -0.0043
  505MOL0     H66612   5.442   8.851   4.559 -0.6230  0.2823  0.0091
  505MOL0     H66613   5.475   8.530   4.572 -1.7569  0.8862 -1.9048
  505MOL0     H66614   5.226   8.331   4.611  2.2534 -0.9787 -1.0209
  505MOL0     H66615   5.221   8.328   4.788  0.0980  0.9652 -0.2630
  505MOL0     H66616   5.467   8.286   4.799  1.8939  0.9847 -1.1698
  505MOL0     H66617   5.471   8.283   4.624 -0.3762 -4.6036 -1.1789
  505MOL0     H66618   5.287   8.119   4.800  0.8540 -0.7987 -0.3074
  505MOL0     H66619   5.319   8.088   4.633 -1.8385 -1.4242  0.6526
  505MOL0     H66620   5.457   7.929   4.743 -1.1000  0.1730  0.1755
  505MOL0     H66621   5.516   8.050   4.850  1.0720  1.9091 -0.8511
  505MOL0     H66622   5.451   7.897   4.522  0.7105  0.4763  2.1089
  505MOL0     H66623   5.480   7.848   4.299 -0.6471  0.6877  0.0605
  505MOL0     H66624   5.584   7.588   4.045  3.0117  0.7178  1.8122
  505MOL0     H66625   5.565   7.488   3.839 -4.1044  1.1138  0.5814
  505MOL0     H66626   5.653   7.540   3.472  1.5176  0.7707  0.6204
  505MOL0     H66627   5.637   7.718   3.475 -0.9179  0.6250 -2.9217
  505MOL0     H66628   5.402   7.530   3.426 -0.4455  0.2397 -0.4772
  505MOL0     H66629   5.496   7.608   3.296 -3.0825  0.4287 -0.8054
  505MOL0     H66630   5.467   7.815   3.402  1.4181 -1.2982 -2.6173
  505MOL0     H66631   5.339   7.758   3.500  1.9952  0.6100  0.3359
  505MOL0     H66632   5.231   7.866   3.284  2.0756  1.3197  0.4908
  505MOL0     H66633   5.324   7.759   3.184 -2.6135  1.0725 -1.0869
  505MOL0     H66634   5.117   7.667   3.383 -0.8009  0.4769 -0.6232
  505MOL0     H66635   5.222   7.558   3.297 -0.0735  0.1297  1.7603
  505MOL0     H66636   5.016   7.750   3.163 -0.7585 -0.4676 -1.3083
  505MOL0     H66637   4.984   7.589   3.226 -1.3896  2.9936  1.6881
  505MOL0     H66638   5.180   7.676   3.002 -0.0105 -1.3000 -2.0835
  505MOL0     H66639   5.194   7.517   3.062 -0.0648  0.1391 -4.3603
  505MOL0     H66640   4.937   7.657   2.954 -3.3183 -1.8788  1.0184
  505MOL0     H66641   4.959   7.480   3.000 -1.8516  2.2472  0.7289
  505MOL0     H66642   5.579   7.864   3.637 -1.2983  1.6458 -0.0933
  505MOL0     H66643   5.609   7.977   3.863 -1.3052  0.5711  0.8350
  505MOL0     H66644   5.777   8.176   4.276  1.7198 -0.6276  2.0768
  505MOL0     H66645   5.770   8.188   4.529  3.9028 -2.4955 -1.3373
  505MOL0     H66646   5.976   8.747   5.174 -0.0703 -0.3464 -0.8479
  505MOL0     H66647   6.188   8.667   5.132  0.2720  1.6514  0.1984
  505MOL0     H66648   6.421   8.146   5.057  1.9286 -1.8103  2.2176
  505MOL0     H66649   6.649   8.103   4.994  0.7400 -0.4692  1.5011
  505MOL0     H66650   6.818   8.113   4.864 -1.8752  1.0962 -1.2795
  505MOL0     H66651   6.898   8.107   5.033  3.7169  1.7403  0.6933
  505MOL0     H66652   7.029   8.033   4.842  0.0755  1.1111 -1.8345
  505MOL0     H66653   7.012   8.190   4.766  0.3845  0.4266 -0.9296
  505MOL0     H66654   7.120   8.280   4.997 -1.5860 -0.2375  0.0786
  505MOL0     H66655   7.214   8.228   4.856 -0.9780 -1.0727 -1.0680
  505MOL0     H66656   7.155   8.015   5.039 -2.8974  0.6216 -2.9756
  505MOL0     H66657   7.302   8.056   4.945 -0.1827  2.3545 -1.2927
  505MOL0     H66658   7.337   8.259   5.338 -0.5091 -2.1103  0.6534
  505MOL0     H66659   6.742   8.520   5.043 -0.1526  0.4271 -0.4312
  505MOL0     H66660   6.514   8.564   5.107 -0.4746 -0.1899  0.2950
  506MOL0     O66661   3.369   0.909   0.552 -0.4688  0.5746  0.2915
  506MOL0     C66662   3.418   0.804   0.512 -1.2784  0.8948 -0.1671
  506MOL0     O66663   3.350   0.692   0.460 -0.4966  0.1924 -0.0423
  506MOL0     C66664   3.212   0.712   0.473 -0.0353  0.3595 -1.4164
  506MOL0     C66665   3.139   0.805   0.404 -0.0404 -0.0015  1.0245
  506MOL0     C66666   3.000   0.820   0.419  0.0034 -0.1652  0.5080
  506MOL0     C66667   2.937   0.746   0.519 -0.9287 -0.7227 -0.0261
  506MOL0     O66668   2.804   0.728   0.528 -0.4050  0.5504 -0.8343
  506MOL0     C66669   2.724   0.726   0.409 -0.3244  0.0490 -0.5174
  506MOL0     C66670   2.575   0.702   0.445 -1.3788 -0.1167 -0.0897
  506MOL0     C66671   2.522   0.791   0.565  0.3426 -0.9159 -0.1165
  506MOL0     C66672   2.529   0.942   0.533 -0.6341 -0.1747  0.1859
  506MOL0     C66673   2.490   1.012   0.665 -0.0993  0.0995 -0.3336
  506MOL0     C66674   2.494   1.164   0.651  0.6334 -0.1275  0.4334
  506MOL0     C66675   2.458   1.241   0.769 -0.4744 -0.3771  0.0796
  506MOL0     C66676   2.582   1.275   0.857 -0.3463 -0.4685  0.2768
  506MOL0     N66677   2.557   1.395   0.942 -0.4593  0.2500  1.1441
  506MOL0     C66678   2.604   1.422   1.063 -0.3374 -0.8943 -0.8179
  506MOL0     C66679   2.597   1.555   1.091 -0.2811  0.2195 -0.6551
  506MOL0     C66680   2.639   1.632   1.218  0.9205  0.9088 -0.2905
  506MOL0     C66681   2.771   1.586   1.273  0.4089  0.1136 -0.0778
  506MOL0     C66682   2.798   1.640   1.413  0.1734 -1.0264  0.1653
  506MOL0     C66683   2.916   1.576   1.482 -0.7909  0.5166 -0.4933
  506MOL0     O66684   2.959   1.649   1.599  0.1724 -0.2152  0.3402
  506MOL0     C66685   3.070   1.606   1.667 -0.0172 -0.3741 -0.4249
  506MOL0     C66686   3.087   1.642   1.804  0.3566  0.9955 -0.4034
  506MOL0     C66687   3.175   1.576   1.899  0.8969 -0.0537  0.3336
  506MOL0     C66688   3.270   1.493   1.839 -0.3295 -0.2590  0.5934
  506MOL0     C66689   3.399   1.446   1.909  0.2930  0.8238  0.7739
  506MOL0     O66690   3.482   1.388   1.816  0.0972  0.2929 -0.3896
  506MOL0     C66691   3.605   1.349   1.849  0.6563  0.7971 -0.4265
  506MOL0     C66692   3.707   1.358   1.752  0.0125  1.1973 -0.7645
  506MOL0     C66693   3.837   1.307   1.780  0.5558 -1.1265 -0.6377
  506MOL0     C66694   3.853   1.237   1.904 -0.1939  0.0630  0.3375
  506MOL0     O66695   3.971   1.181   1.933 -0.2056 -0.2285 -0.0004
  506MOL0     C66696   4.078   1.161   1.834  0.3732 -0.7174 -0.1133
  506MOL0     C66697   4.171   1.053   1.884 -0.5420  0.7200  0.9100
  506MOL0     C66698   4.293   1.038   1.787  0.3591  0.3605 -0.7096
  506MOL0     C66699   4.410   0.958   1.861 -0.5522 -0.0021 -0.2462
  506MOL0     C66700   4.532   0.955   1.772  0.4553 -0.7255 -0.3711
  506MOL0     C66701   4.613   1.096   1.769 -0.4010  0.1468 -0.3808
  506MOL0     C66702   4.755   1.082   1.721  0.4806  0.1895 -1.1950
  506MOL0     C66703   4.839   0.994   1.800 -0.6857 -0.5606 -0.2519
  506MOL0    Cl66704   5.000   0.997   1.721  0.4748  0.1304 -0.2223
  506MOL0     C66705   3.745   1.208   1.979 -0.1416 -0.0649 -1.0551
  506MOL0     C66706   3.621   1.254   1.955 -0.1685  0.4020  0.8405
  506MOL0     O66707   3.414   1.445   2.032  0.5503  0.5499  0.1942
  506MOL0     C66708   3.268   1.477   1.695  0.0172  0.0077  0.9120
  506MOL0     C66709   3.165   1.522   1.614  0.1523  0.4390  0.1869
  506MOL0     N66710   2.521   1.600   0.985 -0.8502 -0.1288 -0.3735
  506MOL0     N66711   2.512   1.509   0.888 -0.5462  0.2645  0.5517
  506MOL0     C66712   3.016   0.660   0.603 -0.4607 -0.5306 -0.1436
  506MOL0     C66713   3.156   0.640   0.585  0.4051  0.1346  0.1301
  506MOL0     C66714   3.566   0.806   0.506 -0.4165 -0.4701 -0.0692
  506MOL0     C66715   3.642   0.924   0.532  0.1408  0.5597 -0.9774
  506MOL0     C66716   3.775   0.934   0.491 -0.1737  0.3509  0.6446
  506MOL0     C66717   3.843   0.831   0.420 -0.4832  0.5638 -0.4494
  506MOL0     O66718   3.954   0.867   0.347 -0.4715 -0.3227  0.0293
  506MOL0     C66719   4.045   0.766   0.292  0.1026 -0.0186 -0.3544
  506MOL0     C66720   4.163   0.837   0.230  0.6609 -0.0672  0.2485
  506MOL0     C66721   4.230   0.939   0.327  0.6337  0.2333 -0.5381
  506MOL0     C66722   4.311   0.873   0.434 -1.0704 -0.3910 -0.5412
  506MOL0     C66723   4.384   0.974   0.515 -0.3046  0.5570 -1.0485
  506MOL0     C66724   4.465   1.042   0.584  0.1244  0.3733  0.6578
  506MOL0     C66725   3.762   0.715   0.393  1.3309  0.1441  0.4924
  506MOL0     C66726   3.630   0.700   0.441 -0.0513 -0.1705  0.6655
  506MOL0     H66727   3.185   0.862   0.324  0.1758  3.3156  3.3056
  506MOL0     H66728   2.949   0.885   0.350 -2.3890 -0.9903  1.3863
  506MOL0     H66729   2.774   0.645   0.355  1.8970 -0.1792  1.7424
  506MOL0     H66730   2.734   0.822   0.356 -0.1507  0.1065 -0.3824
  506MOL0     H66731   2.561   0.599   0.480  0.6735  0.5407  3.1833
  506MOL0     H66732   2.524   0.710   0.349 -0.6107  1.7089 -0.3921
  506MOL0     H66733   2.569   0.752   0.656 -0.2354 -0.5753  0.3378
  506MOL0     H66734   2.415   0.767   0.565 -0.1964  0.5062 -4.8919
  506MOL0     H66735   2.631   0.966   0.500  0.4879 -2.7119  1.4904
  506MOL0     H66736   2.462   0.967   0.450  0.3358 -0.2774 -0.6553
  506MOL0     H66737   2.563   0.985   0.742 -0.7900 -1.9157 -0.3095
  506MOL0     H66738   2.387   0.987   0.691  0.1884 -0.7739  0.0105
  506MOL0     H66739   2.412   1.187   0.583 -0.8337  2.8620  2.9662
  506MOL0     H66740   2.586   1.194   0.599 -0.6621  2.8440 -0.3154
  506MOL0     H66741   2.410   1.332   0.732 -4.2734 -1.9007  0.7297
  506MOL0     H66742   2.384   1.190   0.832  2.9852 -1.8819  3.2533
  506MOL0     H66743   2.667   1.301   0.793 -0.0237  1.9561  1.5663
  506MOL0     H66744   2.608   1.186   0.915  3.2410 -1.5331 -2.5640
  506MOL0     H66745   2.658   1.353   1.128 -2.1510 -0.0003  1.7955
  506MOL0     H66746   2.565   1.608   1.294 -0.4324 -3.1464 -2.5900
  506MOL0     H66747   2.632   1.738   1.189  0.3006  0.8513 -0.3595
  506MOL0     H66748   2.836   1.622   1.193 -0.6359  2.4694  0.0650
  506MOL0     H66749   2.777   1.477   1.266  1.4416  0.2380 -4.8496
  506MOL0     H66750   2.804   1.749   1.400 -0.9911 -0.6151  2.6242
  506MOL0     H66751   2.711   1.625   1.477  1.2809  0.6108  2.1572
  506MOL0     H66752   2.994   1.567   1.405 -2.9506 -2.6988 -2.5764
  506MOL0     H66753   2.886   1.476   1.513  0.9051  0.7606  2.2676
  506MOL0     H66754   3.019   1.716   1.846 -0.3401  0.5855 -0.8027
  506MOL0     H66755   3.179   1.599   2.005  3.0254 -0.8320  0.4702
  506MOL0     H66756   3.690   1.414   1.661  1.5584  1.8748 -0.6651
  506MOL0     H66757   3.912   1.333   1.707  0.7864  0.5928  0.1617
  506MOL0     H66758   4.138   1.252   1.826 -1.3179  0.5938  1.2670
  506MOL0     H66759   4.036   1.126   1.739  0.3082 -1.2429  0.1080
  506MOL0     H66760   4.116   0.958   1.893  4.1890 -2.3798  0.4062
  506MOL0     H66761   4.221   1.077   1.977  0.7954 -1.1501  0.7188
  506MOL0     H66762   4.335   1.132   1.751  4.0976 -1.2355 -0.9610
  506MOL0     H66763   4.260   0.983   1.698  0.5698  3.0475 -2.5396
  506MOL0     H66764   4.432   1.003   1.958  2.1039 -2.7389  0.5897
  506MOL0     H66765   4.371   0.857   1.877 -0.5217 -0.3303 -2.0125
  506MOL0     H66766   4.499   0.931   1.671 -2.0006  3.3291 -0.7360
  506MOL0     H66767   4.601   0.878   1.807  1.6159  0.4224 -0.0931
  506MOL0     H66768   4.609   1.160   1.857 -1.4028  1.6092 -1.4249
  506MOL0     H66769   4.564   1.164   1.698 -0.8852  1.0057  0.7424
  506MOL0     H66770   4.746   1.062   1.614  0.6967  1.0268 -1.3750
  506MOL0     H66771   4.814   1.174   1.716 -0.2203  0.7187 -0.0156
  506MOL0     H66772   4.809   0.888   1.797  0.9779 -1.0476 -0.4522
  506MOL0     H66773   4.850   1.023   1.905  1.8876  4.2251 -1.5585
  506MOL0     H66774   3.756   1.143   2.065  2.8536  1.3458 -0.2146
  506MOL0     H66775   3.533   1.223   2.011  0.5191 -1.8352  0.7639
  506MOL0     H66776   3.348   1.425   1.643  0.3497 -0.0271  1.4475
  506MOL0     H66777   3.152   1.495   1.510 -3.3034 -1.1844  0.9062
  506MOL0     H66778   2.976   0.609   0.690  4.7023  0.0598  2.9561
  506MOL0     H66779   3.208   0.582   0.661  1.4824  2.7831  1.5369
  506MOL0     H66780   3.603   1.017   0.573 -3.3264 -0.7129 -1.0666
  506MOL0     H66781   3.821   1.029   0.515 -0.9858  1.9331 -3.2511
  506MOL0     H66782   3.991   0.699   0.224  1.2965  0.0273 -1.3969
  506MOL0     H66783   4.080   0.715   0.382 -2.0148 -3.3149 -1.2245
  506MOL0     H66784   4.229   0.759   0.191  1.5796  1.6892 -1.9185
  506MOL0     H66785   4.137   0.891   0.139  0.2107 -0.2610  0.2624
  506MOL0     H66786   4.155   1.006   0.371  2.2197  1.0949  0.9710
  506MOL0     H66787   4.301   1.000   0.271  0.6241  0.8843  0.1418
  506MOL0     H66788   4.246   0.826   0.509  1.1123  0.0307  1.7753
  506MOL0     H66789   4.377   0.791   0.404  0.4548  1.1678 -1.5642
  506MOL0     H66790   4.547   1.086   0.638  0.1809 -0.3139  1.1515
  506MOL0     H66791   3.798   0.641   0.321  2.9189  0.9592  0.4092
  506MOL0     H66792   3.585   0.611   0.398  3.4900 -0.5783 -2.7379
  507MOL0     O66793   3.314   7.215   3.964 -0.6371 -0.4377 -0.4769
  507MOL0     C66794   3.426   7.169   3.959 -0.1606 -0.3999  0.3607
  507MOL0     O66795   3.494   7.148   3.847  0.8103 -0.0580  0.1761
  507MOL0     C66796   3.440   7.160   3.716  0.2953  0.0888  0.4031
  507MOL0     C66797   3.336   7.240   3.666  0.4959  0.3214 -0.1310
  507MOL0     C66798   3.309   7.253   3.533 -0.1796 -0.3054 -0.0371
  507MOL0     C66799   3.369   7.166   3.440 -0.1733 -0.5617 -1.1760
  507MOL0     O66800   3.345   7.158   3.300 -0.9902  0.1513 -0.1431
  507MOL0     C66801   3.274   7.266   3.240  0.1723 -0.0673  0.4610
  507MOL0     C66802   3.291   7.261   3.088 -0.5088  0.0235 -0.1607
  507MOL0     C66803   3.443   7.282   3.046  0.0824 -0.6521 -1.4008
  507MOL0     C66804   3.449   7.263   2.894  0.4098 -0.5657  0.2308
  507MOL0     C66805   3.591   7.252   2.851 -0.0158  0.1428 -0.1185
  507MOL0     C66806   3.674   7.381   2.833  0.6999  0.4312 -0.1611
  507MOL0     C66807   3.812   7.352   2.767 -0.3283 -0.0775 -0.3148
  507MOL0     C66808   3.919   7.293   2.875  0.5606 -0.2537 -0.4721
  507MOL0     N66809   4.059   7.281   2.826 -0.3413 -0.8125 -0.2215
  507MOL0     C66810   4.177   7.305   2.903  0.8760  0.3444  0.0939
  507MOL0     C66811   4.266   7.237   2.833 -0.9376  0.4921 -0.0440
  507MOL0     C66812   4.413   7.230   2.847  0.1598  0.5046 -0.9975
  507MOL0     C66813   4.496   7.191   2.720 -0.0088  0.2089 -0.1511
  507MOL0     C66814   4.641   7.173   2.744 -0.0466  0.7518  0.0410
  507MOL0     C66815   4.731   7.298   2.746  0.6910 -0.2304 -0.0454
  507MOL0     O66816   4.699   7.387   2.641  0.3502 -0.4605  0.2056
  507MOL0     C66817   4.707   7.349   2.511  0.3495 -0.7280  0.1956
  507MOL0     C66818   4.780   7.236   2.471  0.3599 -0.1119 -0.8250
  507MOL0     C66819   4.799   7.199   2.335 -0.5301  0.0714 -0.0827
  507MOL0     C66820   4.731   7.277   2.237 -0.4950 -0.7126  0.8392
  507MOL0     C66821   4.735   7.239   2.100  0.6914 -0.8415  0.1534
  507MOL0     O66822   4.821   7.148   2.060  0.5611  0.3729  0.4082
  507MOL0     C66823   4.825   7.102   1.931 -0.3549 -0.9731  0.5206
  507MOL0     C66824   4.811   7.183   1.813 -0.9273  1.0715 -0.4748
  507MOL0     C66825   4.814   7.114   1.684 -0.1701 -0.0073 -0.3480
  507MOL0     C66826   4.842   6.973   1.680  0.6196 -0.5902  0.0555
  507MOL0     O66827   4.846   6.915   1.555 -0.0076  0.2912  0.1141
  507MOL0     C66828   4.902   6.779   1.546  0.4179 -0.5316  0.0752
  507MOL0     C66829   4.989   6.778   1.419 -0.6574  0.7957  0.1339
  507MOL0     C66830   4.924   6.691   1.305 -0.0302 -0.2944 -0.0438
  507MOL0     C66831   4.996   6.708   1.172 -0.0722 -0.8117  0.6743
  507MOL0     C66832   4.990   6.577   1.077 -0.3103 -0.1987 -1.0936
  507MOL0     C66833   4.861   6.554   1.010 -0.0441  0.3594  0.4344
  507MOL0     C66834   4.863   6.435   0.921 -1.4288  0.3829 -0.3618
  507MOL0     C66835   4.950   6.457   0.791 -0.2948  0.6019  0.1403
  507MOL0    Cl66836   4.897   6.330   0.677 -0.0366  0.4861  0.1158
  507MOL0     C66837   4.866   6.909   1.798  0.0304 -0.0339  1.1290
  507MOL0     C66838   4.865   6.976   1.915 -0.2846  0.4934  0.4688
  507MOL0     O66839   4.645   7.284   2.025  0.2405  0.4752 -1.5884
  507MOL0     C66840   4.656   7.397   2.282  0.6150  1.1852 -0.4168
  507MOL0     C66841   4.645   7.431   2.417 -0.3835 -0.1445 -0.1471
  507MOL0     N66842   4.210   7.204   2.711  0.0553 -0.0214 -1.4222
  507MOL0     N66843   4.083   7.233   2.704  0.4471  0.2275  0.3446
  507MOL0     C66844   3.456   7.079   3.493 -0.4060 -0.1263  0.0244
  507MOL0     C66845   3.497   7.072   3.620  0.2078  0.5341  0.1305
  507MOL0     C66846   3.494   7.116   4.080 -0.6746  0.5044  0.9164
  507MOL0     C66847   3.423   7.075   4.196  1.2077  0.1647 -0.4514
  507MOL0     C66848   3.499   7.028   4.310  0.0066 -0.6016 -0.2995
  507MOL0     C66849   3.633   7.012   4.317  0.7178 -0.8266  0.6019
  507MOL0     O66850   3.691   6.962   4.439 -0.5688 -0.3741  0.4076
  507MOL0     C66851   3.830   6.990   4.469 -0.4386 -0.3406 -0.1115
  507MOL0     C66852   3.864   7.139   4.496  0.4926  0.2895 -0.6638
  507MOL0     C66853   3.798   7.181   4.627  0.6807 -0.8819 -1.2415
  507MOL0     C66854   3.866   7.122   4.745  0.5258  0.2563 -0.3700
  507MOL0     C66855   3.810   7.156   4.881  0.6061  0.7091 -0.1684
  507MOL0     C66856   3.771   7.196   4.989 -0.1630 -0.5974  0.6520
  507MOL0     C66857   3.699   7.047   4.196  0.8137 -0.9712 -0.2727
  507MOL0     C66858   3.634   7.102   4.084  0.0553 -0.4712  0.3718
  507MOL0     H66859   3.295   7.303   3.745  0.1554 -1.0277  0.8025
  507MOL0     H66860   3.248   7.338   3.504  2.0472  1.2241 -0.4115
  507MOL0     H66861   3.298   7.366   3.277 -0.3502  0.3728 -0.3430
  507MOL0     H66862   3.171   7.255   3.276  0.9970  4.7005  5.8297
  507MOL0     H66863   3.227   7.327   3.029  1.7173  0.4056 -2.2934
  507MOL0     H66864   3.268   7.160   3.053  0.4413 -0.4083  0.4004
  507MOL0     H66865   3.509   7.216   3.102  1.1110  1.1336 -0.4226
  507MOL0     H66866   3.461   7.387   3.072  2.3187 -0.0850 -4.6463
  507MOL0     H66867   3.398   7.167   2.882  0.9611 -0.8987  0.4970
  507MOL0     H66868   3.395   7.344   2.846  2.0651  1.4845  1.6189
  507MOL0     H66869   3.585   7.197   2.757 -2.1790  0.7840 -0.4013
  507MOL0     H66870   3.643   7.196   2.929 -1.4245 -1.2773 -0.1589
  507MOL0     H66871   3.673   7.431   2.930  2.2091 -1.7558  1.0816
  507MOL0     H66872   3.623   7.437   2.754 -1.0743 -1.2972 -0.3405
  507MOL0     H66873   3.795   7.273   2.694 -2.1934 -1.2311  1.2792
  507MOL0     H66874   3.866   7.440   2.729  0.0233  0.4117  1.2343
  507MOL0     H66875   3.885   7.190   2.887  1.4344 -0.7857 -2.1807
  507MOL0     H66876   3.925   7.340   2.973 -1.9477  1.8518 -1.2215
  507MOL0     H66877   4.196   7.351   2.999  0.7777  0.8802 -0.1371
  507MOL0     H66878   4.428   7.160   2.929 -0.1076  1.2234 -0.3211
  507MOL0     H66879   4.455   7.326   2.878 -2.5915  1.3075  0.6077
  507MOL0     H66880   4.472   7.256   2.635 -3.3367  1.4715  1.5755
  507MOL0     H66881   4.464   7.090   2.695  1.9359 -0.1627 -1.3282
  507MOL0     H66882   4.656   7.109   2.831  0.4794 -0.0887 -0.6533
  507MOL0     H66883   4.675   7.111   2.660 -5.4325 -1.9243 -0.6253
  507MOL0     H66884   4.839   7.276   2.746  0.8952  0.2966  3.1942
  507MOL0     H66885   4.714   7.350   2.841  0.9016 -2.3974  1.2584
  507MOL0     H66886   4.839   7.176   2.540  0.2415 -0.4432 -1.0138
  507MOL0     H66887   4.855   7.108   2.316  1.8811  1.5252 -0.3578
  507MOL0     H66888   4.783   7.287   1.822  1.2951  1.5277  3.8360
  507MOL0     H66889   4.780   7.168   1.596 -2.4531  3.4180  2.3263
  507MOL0     H66890   4.822   6.705   1.554  0.4072 -0.7635 -1.8018
  507MOL0     H66891   4.978   6.768   1.623  0.9570 -0.9357 -0.5058
  507MOL0     H66892   5.088   6.739   1.441 -0.6943  1.0912  0.8495
  507MOL0     H66893   5.022   6.880   1.397 -1.0373  0.8115 -0.4101
  507MOL0     H66894   4.820   6.720   1.293  0.1400  0.2169 -0.3188
  507MOL0     H66895   4.934   6.587   1.335 -3.6656 -1.3034 -1.7731
  507MOL0     H66896   4.946   6.793   1.126  0.2413  0.4567  2.5913
  507MOL0     H66897   5.102   6.731   1.190  0.0805  0.1141 -1.2118
  507MOL0     H66898   5.025   6.493   1.138  4.9814  3.4972  1.7994
  507MOL0     H66899   5.074   6.589   1.008  0.6132 -2.9188 -0.5472
  507MOL0     H66900   4.838   6.645   0.954 -4.2789 -0.2124  0.8888
  507MOL0     H66901   4.776   6.549   1.079 -2.5158  0.8296 -2.3557
  507MOL0     H66902   4.904   6.357   0.986 -1.9536  0.5203  0.1411
  507MOL0     H66903   4.762   6.404   0.893 -0.8208 -3.3118  0.9412
  507MOL0     H66904   5.056   6.442   0.813 -0.5956  1.7132  2.7096
  507MOL0     H66905   4.928   6.556   0.750 -0.6742  1.5781  2.5507
  507MOL0     H66906   4.896   6.805   1.799  0.2650  0.0341  2.0862
  507MOL0     H66907   4.875   6.922   2.009  3.4386  1.3005  0.6915
  507MOL0     H66908   4.601   7.456   2.209 -0.3152  1.8531  0.7892
  507MOL0     H66909   4.595   7.525   2.440 -1.2086 -0.8123  0.8648
  507MOL0     H66910   3.509   7.019   3.420  0.2049 -0.2867  0.5940
  507MOL0     H66911   3.575   7.000   3.642 -0.3132  0.8473  3.4932
  507MOL0     H66912   3.320   7.097   4.219  0.8291 -3.2850  1.8054
  507MOL0     H66913   3.459   6.988   4.403  1.7225 -1.3431  0.1560
  507MOL0     H66914   3.898   6.957   4.390  0.2071 -1.2015  0.7793
  507MOL0     H66915   3.855   6.936   4.561 -1.2847  1.4378  1.2349
  507MOL0     H66916   3.972   7.157   4.499  0.9176 -2.0888  0.9604
  507MOL0     H66917   3.844   7.194   4.404  0.1503  0.3354 -0.5624
  507MOL0     H66918   3.695   7.144   4.626 -1.3125  3.7575  0.9227
  507MOL0     H66919   3.807   7.290   4.630  1.0097 -0.9341 -0.2350
  507MOL0     H66920   3.848   7.014   4.737 -0.2178  0.1919  1.6946
  507MOL0     H66921   3.973   7.144   4.735  0.0389  3.3925  0.0958
  507MOL0     H66922   3.745   7.250   5.078  0.3368  1.8927 -0.6346
  507MOL0     H66923   3.808   7.044   4.201  0.8473  0.8024  2.0796
  507MOL0     H66924   3.685   7.146   3.999 -1.1729 -2.5133 -1.5415
  508MOL0     O66925   8.889  11.135   5.121 -0.3207  0.2853  0.5120
  508MOL0     C66926   8.975  11.072   5.054 -0.2236 -0.8113 -0.3084
  508MOL0     O66927   9.022  11.098   4.936  0.4420  0.4995  0.3104
  508MOL0     C66928   8.958  11.201   4.870 -0.6423  0.0947 -0.1966
  508MOL0     C66929   8.927  11.332   4.920 -0.5459  0.3568 -0.4404
  508MOL0     C66930   8.866  11.425   4.830  0.0127  0.6961  0.0447
  508MOL0     C66931   8.839  11.403   4.690  1.5671 -0.0196  0.1911
  508MOL0     O66932   8.772  11.492   4.610 -0.0924  0.0475 -0.8171
  508MOL0     C66933   8.721  11.620   4.656  1.1412  0.3809 -0.7758
  508MOL0     C66934   8.631  11.676   4.552 -0.0886 -0.0686 -0.5575
  508MOL0     C66935   8.723  11.751   4.448  0.8890 -0.2823 -0.0797
  508MOL0     C66936   8.802  11.656   4.364  0.4737 -0.2846  0.6634
  508MOL0     C66937   8.890  11.721   4.263 -0.5113 -0.6020  0.4961
  508MOL0     C66938   8.811  11.819   4.166 -0.9626  0.4658  0.1910
  508MOL0     C66939   8.730  11.733   4.066 -0.9377  0.1152 -0.5129
  508MOL0     C66940   8.811  11.691   3.946 -0.3972  0.2497 -0.9447
  508MOL0     N66941   8.743  11.590   3.868  0.8178 -0.0976  0.2542
  508MOL0     C66942   8.742  11.458   3.901 -0.1184  0.0307 -0.6491
  508MOL0     C66943   8.630  11.409   3.838 -1.2250  1.8634 -0.4378
  508MOL0     C66944   8.580  11.270   3.834  0.5171 -0.9967  0.5208
  508MOL0     C66945   8.671  11.181   3.749  1.0319 -0.3787 -0.2345
  508MOL0     C66946   8.645  11.206   3.596 -0.2882  0.5994 -0.3700
  508MOL0     C66947   8.750  11.125   3.507 -0.4248 -0.3781  0.1019
  508MOL0     O66948   8.877  11.186   3.519 -0.1998 -0.0602  0.5808
  508MOL0     C66949   8.970  11.146   3.430 -0.6367 -0.5226  0.0503
  508MOL0     C66950   9.080  11.079   3.483 -0.1251  1.2558  0.9528
  508MOL0     C66951   9.201  11.060   3.411 -0.1623  0.4476  0.2890
  508MOL0     C66952   9.209  11.096   3.274  0.4877 -0.1368 -0.6244
  508MOL0     C66953   9.315  11.047   3.183 -0.2762 -0.0850 -0.6131
  508MOL0     O66954   9.306  11.082   3.052  0.4118  0.3868  0.0728
  508MOL0     C66955   9.424  11.067   2.981  1.2962 -0.1656  1.5404
  508MOL0     C66956   9.430  10.980   2.871  0.3187  0.3288 -0.1271
  508MOL0     C66957   9.545  10.964   2.806 -0.6146 -0.1283 -0.0191
  508MOL0     C66958   9.657  11.050   2.835 -0.9842 -0.4884 -0.0418
  508MOL0     O66959   9.777  11.038   2.768 -0.1709  0.1848  0.5739
  508MOL0     C66960   9.778  11.025   2.622  0.2487 -1.4083 -1.5555
  508MOL0     C66961   9.913  10.971   2.587  0.4786  0.1469 -0.3370
  508MOL0     C66962   9.954  10.839   2.636  0.9861  0.5363 -1.2286
  508MOL0     C66963   9.851  10.723   2.607  0.3697 -0.6055 -0.1997
  508MOL0     C66964   9.927  10.589   2.606  0.2766  0.0317  0.4184
  508MOL0     C66965   9.817  10.500   2.533 -0.1117  0.2639 -0.1326
  508MOL0     C66966   9.884  10.363   2.500  0.4050  0.5909 -0.3572
  508MOL0     C66967   9.792  10.283   2.401 -0.3101  0.8895 -0.3219
  508MOL0    Cl66968   9.627  10.215   2.463 -0.0322 -0.2355  0.0198
  508MOL0     C66969   9.660  11.138   2.939  0.4447  0.7405 -0.1087
  508MOL0     C66970   9.543  11.142   3.023  0.0002 -0.2786 -0.0273
  508MOL0     O66971   9.376  10.942   3.224  0.0523  0.5803 -0.7376
  508MOL0     C66972   9.103  11.175   3.220  0.2216 -0.8422 -0.9684
  508MOL0     C66973   8.986  11.199   3.298 -0.2720  0.1912 -1.4927
  508MOL0     N66974   8.568  11.505   3.773 -0.5828  0.0800 -0.3643
  508MOL0     N66975   8.624  11.615   3.801 -0.0982  1.0813  0.2500
  508MOL0     C66976   8.862  11.271   4.646 -0.5989 -0.6730 -0.2568
  508MOL0     C66977   8.916  11.180   4.734  0.0193  0.1098 -0.0971
  508MOL0     C66978   9.035  10.957   5.123 -0.1810  0.4556  0.8235
  508MOL0     C66979   8.967  10.899   5.234  0.1754  0.2923  0.1882
  508MOL0     C66980   9.022  10.789   5.299 -0.4964  0.4705 -0.5914
  508MOL0     C66981   9.144  10.734   5.255  0.0347 -0.3652 -0.3357
  508MOL0     O66982   9.187  10.622   5.323 -0.2696 -0.0028 -0.3317
  508MOL0     C66983   9.321  10.567   5.311 -0.5064  0.3626  0.2813
  508MOL0     C66984   9.403  10.647   5.411  0.0434 -0.2393  0.0353
  508MOL0     C66985   9.349  10.657   5.557 -0.9155 -0.6116 -1.4025
  508MOL0     C66986   9.360  10.519   5.628 -0.8454  0.6340  0.0807
  508MOL0     C66987   9.235  10.495   5.692  0.6093  0.4102  0.4031
  508MOL0     C66988   9.125  10.495   5.746 -0.2412  0.5691 -0.3700
  508MOL0     C66989   9.213  10.787   5.136  1.0136  0.1171 -1.1282
  508MOL0     C66990   9.160  10.898   5.080  0.4164 -0.8103 -0.5405
  508MOL0     H66991   8.950  11.376   5.016 -3.0993  1.5318 -0.3129
  508MOL0     H66992   8.832  11.514   4.882 -3.1783 -0.2150 -0.2046
  508MOL0     H66993   8.807  11.685   4.673  0.6198  0.2990  3.0977
  508MOL0     H66994   8.679  11.615   4.757  2.5782 -1.9036 -0.2058
  508MOL0     H66995   8.560  11.747   4.595 -0.1641  2.5926 -4.5889
  508MOL0     H66996   8.569  11.593   4.516 -0.8502 -1.1420  2.8420
  508MOL0     H66997   8.776  11.832   4.499 -0.8552  0.0278  1.3574
  508MOL0     H66998   8.648  11.802   4.387 -0.2045 -2.3504 -0.5568
  508MOL0     H66999   8.874  11.603   4.426  3.7416  0.5450 -2.1416
  508MOL0     H67000   8.730  11.586   4.318 -0.0387  1.1050 -0.7289
  508MOL0     H67001   8.947  11.647   4.206 -1.0294 -1.7504  1.4395
  508MOL0     H67002   8.955  11.782   4.327  0.4945 -2.4463  1.2872
  508MOL0     H67003   8.895  11.867   4.115 -0.7544  1.7542  1.6795
  508MOL0     H67004   8.760  11.895   4.225 -1.0199  0.7494 -0.2237
  508MOL0     H67005   8.691  11.641   4.108  2.0544 -0.9519  0.2095
  508MOL0     H67006   8.648  11.804   4.052 -0.5059  1.8778  3.9706
  508MOL0     H67007   8.917  11.676   3.969 -0.4115 -0.9435 -1.5658
  508MOL0     H67008   8.824  11.778   3.880  3.0433  2.5644  2.3729
  508MOL0     H67009   8.810  11.407   3.968  0.4591 -1.3299 -2.2239
  508MOL0     H67010   8.474  11.267   3.805 -0.1461  1.2926  2.3723
  508MOL0     H67011   8.595  11.217   3.929  1.4220 -2.0253 -0.1724
  508MOL0     H67012   8.646  11.076   3.764 -1.0184 -0.3180 -2.4565
  508MOL0     H67013   8.779  11.187   3.763  0.9307 -1.0007  0.9193
  508MOL0     H67014   8.544  11.171   3.572  0.4926 -1.9588 -0.1911
  508MOL0     H67015   8.654  11.312   3.572 -1.5703  1.4458  2.4459
  508MOL0     H67016   8.730  11.124   3.399  1.0378  0.7767 -0.2082
  508MOL0     H67017   8.757  11.020   3.536 -1.7001 -0.9009 -1.3216
  508MOL0     H67018   9.088  11.039   3.583 -0.8329  2.6615  1.6041
  508MOL0     H67019   9.282  11.007   3.461 -0.1424 -1.8247 -1.9755
  508MOL0     H67020   9.347  10.918   2.837 -0.1322  0.6811  0.3081
  508MOL0     H67021   9.539  10.888   2.729  1.8853 -0.2229 -0.1918
  508MOL0     H67022   9.761  11.128   2.589  2.3699  0.9189  3.5821
  508MOL0     H67023   9.693  10.969   2.582  1.4462 -3.7324 -1.0446
  508MOL0     H67024   9.989  11.046   2.614  0.7412  0.4148 -1.7506
  508MOL0     H67025   9.898  10.970   2.479 -3.1703  0.9135  0.0423
  508MOL0     H67026   9.968  10.855   2.743  0.0058 -0.3536 -0.9461
  508MOL0     H67027  10.047  10.823   2.581  2.6972 -0.2030  1.6821
  508MOL0     H67028   9.787  10.712   2.694  0.0417 -0.6967 -0.4493
  508MOL0     H67029   9.788  10.750   2.522  0.1576 -0.0992  0.1165
  508MOL0     H67030   9.959  10.573   2.709  1.9322 -2.6545 -0.4356
  508MOL0     H67031  10.016  10.582   2.543  1.7327 -1.7812  2.5534
  508MOL0     H67032   9.799  10.541   2.433  1.8874 -0.5388 -0.8810
  508MOL0     H67033   9.730  10.491   2.598 -0.1069  1.3192  0.0266
  508MOL0     H67034   9.988  10.375   2.466  1.1934 -0.5729  1.5267
  508MOL0     H67035   9.889  10.310   2.595 -2.2095  0.6815 -0.0989
  508MOL0     H67036   9.851  10.193   2.381  0.3184  0.4532  2.8965
  508MOL0     H67037   9.773  10.339   2.309 -0.3807 -0.0682 -0.8995
  508MOL0     H67038   9.753  11.191   2.950  1.6287 -1.3360  0.4496
  508MOL0     H67039   9.540  11.213   3.106  0.8699  1.4895 -1.4343
  508MOL0     H67040   9.090  11.211   3.118  1.5527  2.9733  0.0039
  508MOL0     H67041   8.897  11.252   3.265  1.7123  3.2751 -2.3775
  508MOL0     H67042   8.854  11.243   4.541 -2.3324 -1.5869  0.0826
  508MOL0     H67043   8.940  11.080   4.697 -2.4287 -0.5162 -0.1846
  508MOL0     H67044   8.869  10.930   5.267 -1.6503  1.3078 -5.2149
  508MOL0     H67045   8.959  10.742   5.374  0.2982 -2.7279 -1.7598
  508MOL0     H67046   9.365  10.590   5.214 -0.6205  0.2589  0.2042
  508MOL0     H67047   9.319  10.458   5.323 -2.2476  0.3894  0.4780
  508MOL0     H67048   9.497  10.591   5.416  1.2549  1.5191 -1.7619
  508MOL0     H67049   9.422  10.749   5.378 -3.2039  1.3159  2.3866
  508MOL0     H67050   9.251  10.704   5.558 -0.3295  0.7050 -2.2787
  508MOL0     H67051   9.411  10.732   5.608  0.0364 -1.0244 -1.9283
  508MOL0     H67052   9.406  10.445   5.562  1.8028  0.6230  1.7920
  508MOL0     H67053   9.430  10.526   5.712 -3.0182 -0.6904  2.1177
  508MOL0     H67054   9.037  10.473   5.802  1.0738  0.5973  1.8194
  508MOL0     H67055   9.306  10.746   5.099  1.7141 -0.9370  1.5886
  508MOL0     H67056   9.223  10.929   4.997  2.2742 -0.5587  0.9035
  509MOL0     O67057   2.666   1.267   8.761  0.8914  0.2579 -0.4310
  509MOL0     C67058   2.576   1.270   8.849 -0.3622 -0.2297 -0.4412
  509MOL0     O67059   2.581   1.356   8.955 -0.3706 -0.8384 -0.4818
  509MOL0     C67060   2.690   1.417   9.013  0.0225 -0.2266  0.2323
  509MOL0     C67061   2.673   1.515   9.114 -0.8074 -0.5394 -0.4124
  509MOL0     C67062   2.788   1.582   9.157  0.5711 -0.0494 -1.0866
  509MOL0     C67063   2.917   1.554   9.122  0.3752 -0.2309  0.1034
  509MOL0     O67064   3.017   1.594   9.195  0.0010 -0.2499  0.0501
  509MOL0     C67065   3.108   1.495   9.239  0.0139  0.7160  0.2888
  509MOL0     C67066   3.155   1.529   9.377 -0.0200  0.3980 -0.3367
  509MOL0     C67067   3.034   1.504   9.475 -0.4142  0.0462  0.8671
  509MOL0     C67068   3.073   1.547   9.616 -0.2259  0.1133 -0.0077
  509MOL0     C67069   2.958   1.547   9.726  0.7328 -0.8031  0.4097
  509MOL0     C67070   2.876   1.419   9.742 -0.3220 -0.5970 -0.2015
  509MOL0     C67071   2.975   1.318   9.797  0.2674  0.3273 -0.8048
  509MOL0     C67072   2.968   1.323   9.951  0.6044 -0.7493  0.0940
  509MOL0     N67073   3.055   1.222  10.015  0.1552 -0.7284 -0.1007
  509MOL0     C67074   3.059   1.086   9.990  0.2074 -0.2392  0.5138
  509MOL0     C67075   3.118   1.028  10.096 -0.3794  0.5710  1.0744
  509MOL0     C67076   3.158   0.884  10.109 -0.0764 -0.3780  0.1340
  509MOL0     C67077   3.050   0.776  10.131  0.1207 -0.2756  0.5272
  509MOL0     C67078   2.944   0.820  10.236 -0.2384  0.1921  0.2926
  509MOL0     C67079   2.833   0.713  10.248  0.2570 -0.0704  0.1264
  509MOL0     O67080   2.774   0.702  10.118 -0.0401  0.2534  0.2554
  509MOL0     C67081   2.688   0.597  10.097  0.4294 -0.5803  0.1032
  509MOL0     C67082   2.650   0.568   9.963 -1.8976 -0.6069 -0.0122
  509MOL0     C67083   2.554   0.483   9.934  0.2030 -0.0026 -0.4217
  509MOL0     C67084   2.490   0.398  10.035  0.0567 -0.1266  0.0488
  509MOL0     C67085   2.374   0.307  10.006  0.4107  0.5161  0.8349
  509MOL0     O67086   2.341   0.205  10.100 -0.3296 -0.0294 -0.5812
  509MOL0     C67087   2.225   0.134  10.074 -0.3106 -0.2195  0.1874
  509MOL0     C67088   2.196   0.061   9.957 -0.1193 -0.3281  0.4867
  509MOL0     C67089   2.074  -0.012   9.935  0.3715  0.6254 -0.3256
  509MOL0     C67090   1.975  -0.009  10.031  1.3642  0.5432  0.0847
  509MOL0     O67091   1.833  -0.058  10.025  0.6302 -0.0873  0.7797
  509MOL0     C67092   1.820  -0.155   9.914  0.3049 -1.0889  0.9556
  509MOL0     C67093   1.674  -0.202   9.895  0.1127  0.4637  0.4037
  509MOL0     C67094   1.672  -0.328   9.813  1.5561 -1.3465 -0.9605
  509MOL0     C67095   1.525  -0.382   9.799 -0.5474 -0.9932  1.1045
  509MOL0     C67096   1.455  -0.322   9.680 -0.8334 -0.5553  0.2177
  509MOL0     C67097   1.326  -0.370   9.641  0.9013 -0.7464 -0.0576
  509MOL0     C67098   1.327  -0.508   9.581  0.5513 -1.0045  0.4277
  509MOL0     C67099   1.189  -0.537   9.505  1.1883 -0.8216 -1.2907
  509MOL0    Cl67100   1.177  -0.700   9.432  0.0172  0.7593  0.3264
  509MOL0     C67101   2.000   0.063  10.147  0.2374  0.0909  0.4728
  509MOL0     C67102   2.129   0.118  10.175 -0.0772 -0.7290  0.5265
  509MOL0     O67103   2.299   0.340   9.915 -0.8805 -0.3302  0.3552
  509MOL0     C67104   2.535   0.416  10.166 -0.7256 -0.3922  0.3665
  509MOL0     C67105   2.633   0.516  10.195  0.3930 -1.4812 -0.6266
  509MOL0     N67106   3.149   1.126  10.187 -0.4922 -0.0616 -0.0033
  509MOL0     N67107   3.101   1.231  10.141  0.1819  0.2243 -0.3459
  509MOL0     C67108   2.936   1.461   9.024  0.5035  0.2100  0.5269
  509MOL0     C67109   2.819   1.385   8.971 -1.0798  0.1866  0.5987
  509MOL0     C67110   2.463   1.179   8.838  0.1123 -0.7620 -0.4715
  509MOL0     C67111   2.440   1.091   8.730  0.7065  0.5050 -0.1650
  509MOL0     C67112   2.327   1.009   8.713 -0.4589 -0.4509 -0.2274
  509MOL0     C67113   2.223   1.019   8.814  0.2683 -0.6356 -0.0227
  509MOL0     O67114   2.111   0.939   8.786 -0.2538 -0.7862  0.0425
  509MOL0     C67115   1.984   0.976   8.852  0.6688 -0.2006  0.1071
  509MOL0     C67116   1.989   0.903   8.991 -0.1242 -1.2073 -0.5989
  509MOL0     C67117   1.852   0.883   9.056  0.3190 -0.6489  0.0589
  509MOL0     C67118   1.861   0.810   9.192 -0.0203 -0.8283 -0.0998
  509MOL0     C67119   1.923   0.908   9.279 -0.2874 -0.1643 -0.0848
  509MOL0     C67120   1.998   0.980   9.342  0.1789 -0.2235  0.1821
  509MOL0     C67121   2.241   1.105   8.917 -0.7177 -0.1086  0.5083
  509MOL0     C67122   2.370   1.175   8.938 -0.0310  0.2274 -0.1059
  509MOL0     H67123   2.579   1.542   9.161  0.1747  0.6028  0.9870
  509MOL0     H67124   2.785   1.648   9.243 -3.2144 -1.0353 -0.2648
  509MOL0     H67125   3.192   1.499   9.169 -2.0961  0.3511 -2.4490
  509MOL0     H67126   3.061   1.396   9.245  1.6772 -0.1035  0.1395
  509MOL0     H67127   3.210   1.623   9.383  0.9094 -0.2032  1.2757
  509MOL0     H67128   3.235   1.457   9.396  0.9100  0.0098 -4.6885
  509MOL0     H67129   2.998   1.402   9.465  1.7940 -0.6116 -1.6555
  509MOL0     H67130   2.955   1.576   9.451  0.0148  1.1898  2.6650
  509MOL0     H67131   3.157   1.492   9.660 -0.0292 -0.5181 -1.1302
  509MOL0     H67132   3.112   1.648   9.601 -1.1338  0.0428 -4.1963
  509MOL0     H67133   2.895   1.635   9.711  0.8649 -0.7759 -0.0030
  509MOL0     H67134   3.007   1.585   9.816  2.2750  1.9030 -1.4361
  509MOL0     H67135   2.846   1.396   9.640  2.2392  0.9405 -1.3792
  509MOL0     H67136   2.786   1.420   9.804  0.5246 -1.4236  1.0922
  509MOL0     H67137   2.947   1.213   9.786  3.1778 -0.4879 -1.2447
  509MOL0     H67138   3.074   1.336   9.752  0.6369  1.8507  0.5198
  509MOL0     H67139   2.868   1.320   9.995  2.0637 -1.0794  3.7257
  509MOL0     H67140   3.003   1.419   9.991 -1.7760 -0.6068  2.0855
  509MOL0     H67141   3.026   1.035   9.900 -0.6783 -0.2261  0.8200
  509MOL0     H67142   3.232   0.868  10.189 -0.4803 -0.1767  0.5548
  509MOL0     H67143   3.220   0.857  10.023  1.5439 -0.6255  1.3242
  509MOL0     H67144   3.099   0.683  10.159  2.1934  0.6789  0.2672
  509MOL0     H67145   3.001   0.760  10.035  2.4719 -3.5842 -0.2556
  509MOL0     H67146   2.994   0.839  10.331 -0.0724  0.7805  0.0960
  509MOL0     H67147   2.895   0.907  10.191  0.1858 -1.6696 -4.2764
  509MOL0     H67148   2.757   0.740  10.321 -0.3653 -1.2209 -0.0716
  509MOL0     H67149   2.867   0.620  10.295 -2.8832 -0.1111  2.6425
  509MOL0     H67150   2.696   0.619   9.880  1.7383 -4.2447 -0.5427
  509MOL0     H67151   2.516   0.470   9.833 -1.9557  0.5853  0.2612
  509MOL0     H67152   2.274   0.067   9.882  0.9972 -3.0970  1.3026
  509MOL0     H67153   2.069  -0.078   9.849  5.2851 -3.5587  2.0056
  509MOL0     H67154   1.884  -0.241   9.935  2.4216 -0.4403 -2.1250
  509MOL0     H67155   1.855  -0.115   9.818 -1.4265 -3.7831 -0.9564
  509MOL0     H67156   1.619  -0.124   9.842 -1.8247 -2.1237 -1.6759
  509MOL0     H67157   1.618  -0.228   9.985 -2.4487 -2.6943 -1.8559
  509MOL0     H67158   1.733  -0.403   9.865  0.8818 -2.5655 -1.8605
  509MOL0     H67159   1.710  -0.317   9.711 -0.1641 -0.3205 -1.5392
  509MOL0     H67160   1.527  -0.490   9.789  0.2403 -1.1603  2.8323
  509MOL0     H67161   1.468  -0.355   9.888 -0.2903  1.6730  0.5725
  509MOL0     H67162   1.526  -0.341   9.599 -0.2742 -0.0734  0.5963
  509MOL0     H67163   1.458  -0.215   9.701  3.3425 -0.0155 -2.0396
  509MOL0     H67164   1.293  -0.300   9.564 -1.3830 -0.5215  1.0549
  509MOL0     H67165   1.256  -0.367   9.725 -0.8407 -0.0062 -1.4710
  509MOL0     H67166   1.403  -0.523   9.503  1.5234 -0.6681  1.2873
  509MOL0     H67167   1.344  -0.582   9.660 -2.5787 -1.6947  0.5925
  509MOL0     H67168   1.184  -0.465   9.423  0.3317 -0.9760 -1.3840
  509MOL0     H67169   1.097  -0.522   9.562 -0.2541  1.2704 -3.9114
  509MOL0     H67170   1.928   0.059  10.228 -2.4208 -1.8286 -1.8077
  509MOL0     H67171   2.147   0.149  10.277  0.1058 -0.6162  0.4614
  509MOL0     H67172   2.479   0.370  10.246 -0.3638 -3.1302 -0.8173
  509MOL0     H67173   2.628   0.555  10.296 -1.8721 -0.3174 -1.1105
  509MOL0     H67174   3.037   1.434   8.995  0.0931 -1.2740  0.3898
  509MOL0     H67175   2.861   1.306   8.909  1.5123  2.0371 -0.1451
  509MOL0     H67176   2.505   1.086   8.643 -1.6789 -2.0190 -1.9601
  509MOL0     H67177   2.307   0.939   8.632  0.3785 -1.7347  0.6370
  509MOL0     H67178   1.900   0.922   8.807  0.1637 -0.3061  1.1460
  509MOL0     H67179   1.961   1.083   8.850  0.0524 -0.3400 -0.8380
  509MOL0     H67180   2.039   0.808   8.969  4.2181  0.6263  0.2459
  509MOL0     H67181   2.051   0.958   9.063 -0.4717 -0.2702 -1.0092
  509MOL0     H67182   1.786   0.823   8.992  3.3024 -2.4553 -1.5764
  509MOL0     H67183   1.813   0.983   9.075 -2.1608 -1.6682  0.6109
  509MOL0     H67184   1.760   0.781   9.224 -0.4489  0.4053 -0.3081
  509MOL0     H67185   1.925   0.721   9.197  0.7658 -0.2500  0.2130
  509MOL0     H67186   2.072   1.038   9.394  0.2200 -0.8188  0.7958
  509MOL0     H67187   2.167   1.110   8.997 -1.8321  1.2864 -0.5489
  509MOL0     H67188   2.384   1.226   9.033  1.2067  0.5332 -0.4331
  510MOL0     O67189   9.099  11.013   9.480  0.2924  0.3848 -0.1937
  510MOL0     C67190   9.172  11.009   9.584  0.1816  0.0120  0.0667
  510MOL0     O67191   9.234  10.900   9.642 -0.2876  0.8283 -0.2400
  510MOL0     C67192   9.219  10.784   9.575 -1.2519 -0.0000 -0.0844
  510MOL0     C67193   9.139  10.682   9.630 -0.1488 -0.1861  0.8196
  510MOL0     C67194   9.107  10.568   9.551  0.2516 -0.3724  0.3561
  510MOL0     C67195   9.176  10.553   9.422  0.0989 -0.7165 -0.0722
  510MOL0     O67196   9.161  10.438   9.350  0.7177  0.5865  0.3267
  510MOL0     C67197   9.211  10.425   9.209  0.1442 -1.0141  0.2795
  510MOL0     C67198   9.196  10.285   9.149  0.2115  0.0012 -0.1006
  510MOL0     C67199   9.227  10.167   9.232 -0.3381  0.0156 -0.1266
  510MOL0     C67200   9.262  10.028   9.153  0.3184 -0.4076  0.5050
  510MOL0     C67201   9.274   9.901   9.244  1.2059  0.4825  0.1963
  510MOL0     C67202   9.408   9.898   9.304  0.2367  0.2201 -0.2380
  510MOL0     C67203   9.429   9.787   9.403 -0.8680  1.1183 -0.5981
  510MOL0     C67204   9.353   9.802   9.531  0.5415 -0.4138  0.6432
  510MOL0     N67205   9.419   9.720   9.633 -0.1914 -0.2555  0.0776
  510MOL0     C67206   9.394   9.591   9.662 -1.0491 -0.4231 -0.3387
  510MOL0     C67207   9.478   9.567   9.759  0.4373  0.1461 -0.0338
  510MOL0     C67208   9.483   9.441   9.847 -0.4329 -0.9764 -0.3257
  510MOL0     C67209   9.371   9.462   9.964  0.1770 -0.7601  0.5655
  510MOL0     C67210   9.391   9.567  10.074 -0.3184  0.9052  0.7454
  510MOL0     C67211   9.527   9.581  10.146 -0.2867 -1.0660  0.1830
  510MOL0     O67212   9.529   9.705  10.226 -0.0690 -0.1286 -0.3690
  510MOL0     C67213   9.631   9.718  10.319 -0.1974  0.2908 -0.5781
  510MOL0     C67214   9.718   9.611  10.355 -0.3987  0.3667 -0.3537
  510MOL0     C67215   9.813   9.619  10.457  0.1233  0.0010 -0.3700
  510MOL0     C67216   9.821   9.740  10.531  0.5206 -0.4883 -0.6700
  510MOL0     C67217   9.908   9.751  10.648 -0.0269  0.1065  0.2357
  510MOL0     O67218   9.920   9.877  10.703 -0.0549  0.4362 -0.3893
  510MOL0     C67219  10.041   9.891  10.771  0.5852 -0.0319  0.2057
  510MOL0     C67220  10.171   9.901  10.714 -0.7526  0.4764 -0.1775
  510MOL0     C67221  10.284   9.906  10.793 -0.0935  0.2913  0.4251
  510MOL0     C67222  10.271   9.909  10.932 -0.2916 -0.2802  0.5980
  510MOL0     O67223  10.376   9.927  11.022 -0.1577  0.1935 -0.2492
  510MOL0     C67224  10.512   9.876  10.982  0.2280  1.0146  0.1418
  510MOL0     C67225  10.615   9.852  11.090 -0.3344  0.2726  0.4580
  510MOL0     C67226  10.640   9.967  11.195 -0.1263 -0.0807  0.2035
  510MOL0     C67227  10.760   9.948  11.280  0.1187 -0.1363 -0.0957
  510MOL0     C67228  10.746   9.854  11.406 -0.3335  0.8270 -0.6620
  510MOL0     C67229  10.645   9.908  11.492  0.1612  0.5989  0.0077
  510MOL0     C67230  10.633   9.838  11.631  0.3012  0.0514  0.9422
  510MOL0     C67231  10.611   9.691  11.636  1.2664 -0.6454 -0.3756
  510MOL0    Cl67232  10.480   9.649  11.533  0.2399  0.8439  0.6346
  510MOL0     C67233  10.140   9.902  10.986 -0.1729 -0.7007 -0.6766
  510MOL0     C67234  10.026   9.886  10.911  0.4645  0.1576 -0.5529
  510MOL0     O67235   9.956   9.650  10.696 -0.3497  0.6449 -0.4547
  510MOL0     C67236   9.742   9.848  10.497  0.3949 -1.2180  0.1289
  510MOL0     C67237   9.638   9.830  10.399  0.6437  0.7357  0.4965
  510MOL0     N67238   9.543   9.681   9.799  0.1073 -0.1560  0.6702
  510MOL0     N67239   9.513   9.768   9.713  1.1186 -0.3478  0.2851
  510MOL0     C67240   9.265  10.651   9.385 -0.2394  0.1536 -0.0877
  510MOL0     C67241   9.278  10.769   9.455 -0.4279  0.7290 -0.4663
  510MOL0     C67242   9.182  11.133   9.654 -0.4015  0.8859  0.5097
  510MOL0     C67243   9.102  11.241   9.621 -0.2972 -0.5219  0.1621
  510MOL0     C67244   9.112  11.362   9.699  0.4267 -0.7749  0.1955
  510MOL0     C67245   9.199  11.381   9.810 -0.0907  1.2790  0.5791
  510MOL0     O67246   9.210  11.503   9.864 -0.1584 -0.3712 -0.4538
  510MOL0     C67247   9.300  11.507   9.975 -0.9453  1.2624  0.6266
  510MOL0     C67248   9.238  11.490  10.104  0.5052 -0.1059 -0.1453
  510MOL0     C67249   9.316  11.509  10.234  0.3367  0.1372 -0.6371
  510MOL0     C67250   9.219  11.510  10.345  0.3964  0.0953  0.2525
  510MOL0     C67251   9.286  11.537  10.470 -0.5087  0.7907 -0.0415
  510MOL0     C67252   9.333  11.578  10.572 -0.1516 -0.3523  0.2772
  510MOL0     C67253   9.269  11.258   9.851 -0.6112  1.0762 -0.5113
  510MOL0     C67254   9.265  11.144   9.772  0.7786 -0.3505 -0.1380
  510MOL0     H67255   9.100  10.692   9.731  1.8104 -0.2556  1.6353
  510MOL0     H67256   9.031  10.493   9.567 -0.9002  0.8441  0.7562
  510MOL0     H67257   9.318  10.447   9.208 -0.0488  0.0658  0.6903
  510MOL0     H67258   9.156  10.498   9.149  3.4343 -1.5953 -3.8203
  510MOL0     H67259   9.274  10.281   9.072  2.8667 -0.0343  2.4341
  510MOL0     H67260   9.102  10.269   9.095 -1.2085 -1.9355  2.7549
  510MOL0     H67261   9.154  10.137   9.308  1.0975 -2.9396  0.2532
  510MOL0     H67262   9.322  10.182   9.284 -2.1852  0.2156  3.5459
  510MOL0     H67263   9.180  10.009   9.083  0.4244  0.4166  0.1474
  510MOL0     H67264   9.355  10.039   9.097 -0.9781 -0.5849 -1.7927
  510MOL0     H67265   9.261   9.813   9.180  0.6096 -0.3697  1.4681
  510MOL0     H67266   9.200   9.897   9.324 -1.7933  0.7572 -2.3431
  510MOL0     H67267   9.423   9.992   9.359 -4.0489  0.7410  0.3706
  510MOL0     H67268   9.479   9.877   9.224  0.7058 -1.7705  0.6527
  510MOL0     H67269   9.394   9.689   9.368 -2.7014  0.9770  1.4035
  510MOL0     H67270   9.535   9.782   9.429 -0.4486 -3.0154 -2.3021
  510MOL0     H67271   9.246   9.784   9.518  1.2153 -2.6088 -3.2313
  510MOL0     H67272   9.368   9.905   9.564 -0.0293  0.4144 -1.5115
  510MOL0     H67273   9.315   9.527   9.624  0.3635 -1.6981 -1.2462
  510MOL0     H67274   9.586   9.429   9.882 -0.3902  1.8995  0.8093
  510MOL0     H67275   9.456   9.353   9.787 -1.3422 -0.2030 -1.0935
  510MOL0     H67276   9.356   9.374  10.027  0.2123 -0.5449  0.8722
  510MOL0     H67277   9.278   9.480   9.909  1.1257 -1.4729 -1.3613
  510MOL0     H67278   9.370   9.669  10.041 -3.2644  0.7146  1.7310
  510MOL0     H67279   9.312   9.545  10.147 -0.5843  0.4587  0.3305
  510MOL0     H67280   9.608   9.589  10.073  0.2625 -2.1913  0.6415
  510MOL0     H67281   9.539   9.487  10.201 -1.5171 -0.2621  1.9285
  510MOL0     H67282   9.729   9.515  10.305  1.5146  1.4752 -2.2488
  510MOL0     H67283   9.862   9.524  10.473 -1.0176 -0.8836 -1.8189
  510MOL0     H67284  10.188   9.907  10.607  1.6894 -0.2882  0.0952
  510MOL0     H67285  10.383   9.902  10.748  0.3632 -0.7272  1.4667
  510MOL0     H67286  10.555   9.950  10.914 -2.7176  0.7466 -2.2244
  510MOL0     H67287  10.510   9.783  10.924  2.6466  1.1870 -0.3163
  510MOL0     H67288  10.705   9.836  11.030 -0.2637 -0.9281  0.8586
  510MOL0     H67289  10.587   9.761  11.144 -0.1547 -0.4801 -0.6959
  510MOL0     H67290  10.552   9.971  11.260 -1.1101  2.6546 -1.1460
  510MOL0     H67291  10.656  10.061  11.140  0.2978  2.2572  3.9226
  510MOL0     H67292  10.853   9.913  11.233  1.8098 -0.8526  3.4376
  510MOL0     H67293  10.786  10.050  11.309 -2.7559  0.6135  0.1405
  510MOL0     H67294  10.844   9.844  11.454  0.2791 -1.9758 -2.2995
  510MOL0     H67295  10.719   9.751  11.382 -0.6945 -0.1062  3.0540
  510MOL0     H67296  10.549   9.891  11.443  1.5063 -0.1981 -2.5422
  510MOL0     H67297  10.670  10.012  11.515  3.1559 -0.4958  2.3857
  510MOL0     H67298  10.726   9.869  11.681  3.7383 -4.5594 -1.7891
  510MOL0     H67299  10.551   9.889  11.683  0.8900 -0.3532  2.3063
  510MOL0     H67300  10.586   9.662  11.738  0.3316  1.1797 -0.0512
  510MOL0     H67301  10.700   9.633  11.611  1.2817 -0.1040 -1.6750
  510MOL0     H67302  10.130   9.908  11.094 -0.5505  1.4356 -0.7904
  510MOL0     H67303   9.932   9.871  10.963  1.2446 -2.6427  0.2024
  510MOL0     H67304   9.748   9.946  10.543 -2.0271 -2.2364  2.9631
  510MOL0     H67305   9.566   9.910  10.384 -0.2593 -0.0774  0.4377
  510MOL0     H67306   9.317  10.643   9.291 -2.8087  1.1451 -1.6988
  510MOL0     H67307   9.336  10.846   9.406  0.8980  0.1589  0.1565
  510MOL0     H67308   9.036  11.241   9.534  0.0400 -0.1925 -0.1012
  510MOL0     H67309   9.054  11.450   9.675  0.8513 -0.9373 -1.5525
  510MOL0     H67310   9.357  11.600   9.988 -0.0342  0.2859  5.3515
  510MOL0     H67311   9.386  11.442   9.961 -0.9679  0.6557  2.9376
  510MOL0     H67312   9.162  11.568  10.112 -0.1171 -0.7785  0.7092
  510MOL0     H67313   9.188  11.393  10.107 -1.7210  0.9963  1.4451
  510MOL0     H67314   9.367  11.606  10.237  1.2449 -0.3347  1.0325
  510MOL0     H67315   9.400  11.440  10.246  0.8876  1.1012  1.7046
  510MOL0     H67316   9.157  11.599  10.331  1.2538  0.6758  0.1100
  510MOL0     H67317   9.161  11.418  10.356 -1.0461  0.9911  0.3478
  510MOL0     H67318   9.367  11.603  10.671 -2.0050 -4.3507  2.1393
  510MOL0     H67319   9.333  11.264   9.938  0.7633 -4.8692 -0.6272
  510MOL0     H67320   9.334  11.065   9.798 -0.0213 -1.2762 -0.7779
  511MOL0     O67321   6.286   9.485   6.443 -0.1728 -0.0135 -0.3920
  511MOL0     C67322   6.262   9.393   6.361 -1.3421 -0.5189  0.4383
  511MOL0     O67323   6.201   9.278   6.392 -0.1444 -0.4254 -0.0552
  511MOL0     C67324   6.189   9.249   6.528  0.1007  1.0695 -1.4442
  511MOL0     C67325   6.058   9.227   6.581 -0.1722 -0.1091  0.3445
  511MOL0     C67326   6.034   9.195   6.712  0.1385  0.7400  0.7174
  511MOL0     C67327   6.147   9.175   6.800  0.3053 -0.2244 -0.5611
  511MOL0     O67328   6.132   9.143   6.925  0.4567  0.2574  0.5879
  511MOL0     C67329   6.003   9.107   6.962  0.1703 -0.1343 -0.3329
  511MOL0     C67330   6.016   9.078   7.118  0.5374 -0.4210  0.5458
  511MOL0     C67331   6.095   8.960   7.155 -0.1597  0.0835  0.0884
  511MOL0     C67332   6.251   8.966   7.167 -0.2057  0.0859 -0.4499
  511MOL0     C67333   6.284   9.035   7.301 -1.3832 -0.3223  0.5903
  511MOL0     C67334   6.433   9.091   7.290 -0.7543  0.4085  1.4205
  511MOL0     C67335   6.536   8.985   7.256 -0.4484  0.6559  0.2722
  511MOL0     C67336   6.679   9.042   7.284 -0.1950 -0.9474  0.7648
  511MOL0     N67337   6.790   8.951   7.270 -0.1627 -0.3088 -0.0855
  511MOL0     C67338   6.920   8.980   7.306 -0.5591  0.7210  0.0644
  511MOL0     C67339   6.984   8.870   7.264 -0.0156 -0.9732  0.1379
  511MOL0     C67340   7.123   8.832   7.317 -1.1384 -0.1921  0.4828
  511MOL0     C67341   7.220   8.797   7.205 -1.0037  0.6298 -0.7584
  511MOL0     C67342   7.227   8.895   7.090  0.1807  0.7358 -0.2300
  511MOL0     C67343   7.249   9.036   7.145 -0.2057  0.0696 -0.0816
  511MOL0     O67344   7.372   9.030   7.215  0.2855 -0.0709  0.1839
  511MOL0     C67345   7.445   9.151   7.228 -0.6045 -0.8158 -0.6438
  511MOL0     C67346   7.407   9.279   7.186 -0.3455  0.1556 -0.2290
  511MOL0     C67347   7.488   9.387   7.196  0.3786  0.4678  0.0288
  511MOL0     C67348   7.614   9.368   7.263  0.2202 -0.4233  0.0837
  511MOL0     C67349   7.714   9.475   7.290 -0.7426 -0.0648  0.0070
  511MOL0     O67350   7.845   9.442   7.316  0.1860  0.2096 -0.5413
  511MOL0     C67351   7.957   9.528   7.330  0.0532 -0.4846 -0.6115
  511MOL0     C67352   8.022   9.522   7.460 -0.3090 -0.6080  0.3621
  511MOL0     C67353   8.121   9.613   7.480  0.2159 -0.6891  0.4644
  511MOL0     C67354   8.158   9.703   7.379 -0.0438 -0.2806 -0.1766
  511MOL0     O67355   8.261   9.787   7.417 -0.3846  1.0786  0.0900
  511MOL0     C67356   8.385   9.786   7.334  0.4952 -0.1670 -0.4200
  511MOL0     C67357   8.506   9.867   7.385  0.1792  0.4542 -0.2179
  511MOL0     C67358   8.507  10.022   7.379 -0.8021  0.4365  0.3876
  511MOL0     C67359   8.647  10.077   7.387 -0.5199  0.0538 -0.3490
  511MOL0     C67360   8.643  10.225   7.428 -0.2448 -0.8280  0.2702
  511MOL0     C67361   8.775  10.300   7.399 -1.1357 -0.2234  0.6851
  511MOL0     C67362   8.887  10.251   7.496  0.0086  0.4365 -0.0354
  511MOL0     C67363   8.892  10.320   7.630  0.0568  0.0378 -1.2178
  511MOL0    Cl67364   8.916  10.492   7.605 -0.0731 -0.1738 -0.2638
  511MOL0     C67365   8.096   9.716   7.258 -0.3268  0.0356  0.1697
  511MOL0     C67366   7.992   9.630   7.239  0.5869 -0.0059 -0.1487
  511MOL0     O67367   7.676   9.592   7.272  0.0895 -0.8779 -0.6224
  511MOL0     C67368   7.658   9.238   7.296  0.3773 -0.3772 -1.6187
  511MOL0     C67369   7.573   9.131   7.282  0.5129  0.1309 -0.3076
  511MOL0     N67370   6.897   8.776   7.210 -0.4346  0.3809  0.3068
  511MOL0     N67371   6.778   8.829   7.218  0.5250 -0.2830 -0.7185
  511MOL0     C67372   6.274   9.197   6.754  0.4823 -0.9399  0.0775
  511MOL0     C67373   6.291   9.230   6.615 -0.3183  0.1431 -0.5996
  511MOL0     C67374   6.280   9.428   6.213  0.2995 -0.9640 -0.1171
  511MOL0     C67375   6.249   9.345   6.108  0.1144 -0.0888 -0.2796
  511MOL0     C67376   6.266   9.379   5.978 -0.7088 -0.5723  0.6585
  511MOL0     C67377   6.320   9.505   5.945  0.2902 -0.1606 -0.7301
  511MOL0     O67378   6.359   9.528   5.817  0.0490 -0.1040 -0.3486
  511MOL0     C67379   6.378   9.660   5.773 -0.8963 -0.5582 -0.8727
  511MOL0     C67380   6.382   9.671   5.627 -0.7268 -0.5608  0.4200
  511MOL0     C67381   6.508   9.626   5.558  0.0245  0.1876 -0.2021
  511MOL0     C67382   6.498   9.607   5.409 -0.3937 -0.3926 -0.7859
  511MOL0     C67383   6.629   9.584   5.356  0.1212  0.9570  0.6346
  511MOL0     C67384   6.737   9.544   5.311 -0.5424 -0.0427  0.3622
  511MOL0     C67385   6.348   9.591   6.044 -0.1122 -0.5906 -0.1014
  511MOL0     C67386   6.326   9.557   6.181  0.0213 -0.4894  0.5609
  511MOL0     H67387   5.974   9.240   6.513 -0.2276 -0.4031  0.3563
  511MOL0     H67388   5.934   9.180   6.752  0.2597  0.8770  1.0772
  511MOL0     H67389   5.965   9.016   6.914 -0.9379  0.8296 -1.3152
  511MOL0     H67390   5.925   9.182   6.948  2.6024  2.6541  0.0680
  511MOL0     H67391   5.913   9.067   7.152  0.5596 -3.1702 -0.0363
  511MOL0     H67392   6.060   9.162   7.172 -0.9077 -0.2652  1.5289
  511MOL0     H67393   6.071   8.873   7.094  2.1409 -1.4883  1.2906
  511MOL0     H67394   6.051   8.931   7.251  2.9289 -0.5563  1.4308
  511MOL0     H67395   6.297   8.868   7.156  0.6146  0.5229 -0.9862
  511MOL0     H67396   6.286   9.029   7.085  0.7705  1.9513  1.2894
  511MOL0     H67397   6.264   8.960   7.378  2.6381 -3.9186 -1.4372
  511MOL0     H67398   6.219   9.121   7.318 -4.1644 -1.7702 -1.7238
  511MOL0     H67399   6.467   9.147   7.378  5.4763  2.0934 -1.4615
  511MOL0     H67400   6.448   9.161   7.208 -1.8420  0.8379  1.5804
  511MOL0     H67401   6.534   8.897   7.320  1.8928  1.5939  1.7918
  511MOL0     H67402   6.525   8.960   7.150  2.9679 -1.9143  0.3388
  511MOL0     H67403   6.674   9.066   7.391 -0.0278  0.5988  0.4533
  511MOL0     H67404   6.697   9.129   7.220 -1.9700  0.8272  2.5344
  511MOL0     H67405   6.951   9.065   7.365 -1.7816  0.6961  0.7753
  511MOL0     H67406   7.111   8.752   7.391 -1.0863  0.6641  1.4514
  511MOL0     H67407   7.163   8.918   7.373  0.4660 -1.0730  0.7409
  511MOL0     H67408   7.191   8.697   7.171 -1.2180 -0.1790  1.5908
  511MOL0     H67409   7.317   8.786   7.254 -0.4247 -0.2136 -2.0199
  511MOL0     H67410   7.302   8.860   7.018 -3.3539 -4.1578 -2.1119
  511MOL0     H67411   7.137   8.898   7.028 -1.2519  0.6995  1.7426
  511MOL0     H67412   7.160   9.072   7.196  0.4772  1.1143  0.3834
  511MOL0     H67413   7.260   9.100   7.057  0.4446 -0.5050 -0.4308
  511MOL0     H67414   7.319   9.295   7.125  1.3134  0.9366 -2.5810
  511MOL0     H67415   7.459   9.485   7.160  1.6989  0.5514 -0.8970
  511MOL0     H67416   7.995   9.467   7.550 -1.1020  0.4317  0.7851
  511MOL0     H67417   8.177   9.616   7.572  1.9210  2.8131 -0.5302
  511MOL0     H67418   8.365   9.833   7.236  2.3517  2.5616  0.3859
  511MOL0     H67419   8.423   9.686   7.313  0.2982  0.1637 -2.6651
  511MOL0     H67420   8.593   9.834   7.327 -0.5620  0.1067 -1.1521
  511MOL0     H67421   8.522   9.839   7.490  0.4327  1.2164 -0.0483
  511MOL0     H67422   8.441  10.070   7.451 -1.8983 -0.3134 -0.0985
  511MOL0     H67423   8.476  10.045   7.277  1.9215 -3.0131 -1.4362
  511MOL0     H67424   8.713  10.020   7.454 -2.1735  0.5850  1.8356
  511MOL0     H67425   8.679  10.067   7.283  2.2695  1.1422  0.3147
  511MOL0     H67426   8.622  10.226   7.535  2.6849  1.3498  0.9584
  511MOL0     H67427   8.565  10.287   7.382  0.3964 -0.5485 -0.4625
  511MOL0     H67428   8.770  10.408   7.379  0.3542 -0.5099 -1.6402
  511MOL0     H67429   8.814  10.264   7.303 -0.0408  3.6617 -0.5324
  511MOL0     H67430   8.863  10.147   7.515 -0.8788 -0.2058 -3.9058
  511MOL0     H67431   8.988  10.249   7.452  0.0862 -0.8344  0.1612
  511MOL0     H67432   8.971  10.264   7.682  0.8390  1.1267 -1.1843
  511MOL0     H67433   8.803  10.291   7.687  1.9083 -1.6713  1.0380
  511MOL0     H67434   8.120   9.788   7.181  0.0638 -0.1889  0.0777
  511MOL0     H67435   7.935   9.629   7.146 -3.7747 -1.8886  2.2424
  511MOL0     H67436   7.760   9.213   7.324 -0.9263 -0.4437  4.4905
  511MOL0     H67437   7.602   9.038   7.329  2.6754 -0.6454 -2.9446
  511MOL0     H67438   6.365   9.196   6.812 -0.4975  2.0802  1.8916
  511MOL0     H67439   6.393   9.232   6.578 -0.4365  0.5517 -0.9171
  511MOL0     H67440   6.201   9.251   6.132  3.2096 -1.7113  0.0631
  511MOL0     H67441   6.256   9.307   5.897  2.7778  0.1476 -0.5601
  511MOL0     H67442   6.462   9.707   5.825 -1.3974 -1.2653  0.6610
  511MOL0     H67443   6.287   9.715   5.800 -0.2249 -0.5115  1.5303
  511MOL0     H67444   6.298   9.622   5.577 -1.1893  1.0551 -0.4605
  511MOL0     H67445   6.376   9.776   5.596 -2.1740 -0.9911 -0.8092
  511MOL0     H67446   6.523   9.526   5.600 -0.6465  1.0155  2.1504
  511MOL0     H67447   6.580   9.705   5.581 -2.1550  2.0912  0.4956
  511MOL0     H67448   6.437   9.519   5.389 -0.8102 -0.1410 -0.6554
  511MOL0     H67449   6.461   9.702   5.368  0.3212  0.3973  0.3182
  511MOL0     H67450   6.830   9.512   5.269 -1.0733 -2.3554  0.7817
  511MOL0     H67451   6.382   9.690   6.020 -3.7580  0.3773 -2.0729
  511MOL0     H67452   6.344   9.634   6.255  0.7709 -2.9309  3.0787
  512MOL0     O67453   9.686   2.951   5.155 -0.7731 -0.0746 -0.7694
  512MOL0     C67454   9.641   2.844   5.134  0.2797  0.9035 -0.1927
  512MOL0     O67455   9.501   2.802   5.128 -0.1631 -0.7191  0.0575
  512MOL0     C67456   9.395   2.887   5.140 -0.2676 -0.5611  0.5200
  512MOL0     C67457   9.391   3.011   5.069  0.5905  0.7120  0.6388
  512MOL0     C67458   9.278   3.096   5.082 -0.9807  0.1958  0.0004
  512MOL0     C67459   9.181   3.070   5.176 -0.3703 -0.7348 -0.2892
  512MOL0     O67460   9.077   3.166   5.184 -0.7774  0.7338  0.4019
  512MOL0     C67461   8.987   3.172   5.307 -0.7749  0.3855  0.6393
  512MOL0     C67462   8.854   3.245   5.281 -0.1933 -0.0372 -1.1137
  512MOL0     C67463   8.785   3.199   5.155  0.7227  0.2813  0.1030
  512MOL0     C67464   8.641   3.244   5.143  0.5257 -0.1024  0.1562
  512MOL0     C67465   8.569   3.187   5.031  0.2044 -0.3384 -0.0056
  512MOL0     C67466   8.457   3.277   4.988  0.3340  0.0588 -0.2220
  512MOL0     C67467   8.377   3.217   4.864 -0.8111 -0.0090  0.1220
  512MOL0     C67468   8.318   3.083   4.894  1.2499  0.0083  0.1872
  512MOL0     N67469   8.248   3.033   4.776 -0.6492 -0.0589  0.2570
  512MOL0     C67470   8.122   3.059   4.736 -0.1465 -0.4230  0.3913
  512MOL0     C67471   8.102   2.969   4.637  0.3290  0.6665  0.5994
  512MOL0     C67472   7.969   2.951   4.560 -0.7745 -0.3863  1.0058
  512MOL0     C67473   7.891   3.082   4.539 -0.0162  0.6689 -0.2444
  512MOL0     C67474   7.809   3.124   4.664  1.2055  0.6524 -0.3088
  512MOL0     C67475   7.662   3.166   4.617 -1.0671  0.6307 -0.1249
  512MOL0     O67476   7.582   3.192   4.734 -0.3947  0.4138 -0.3898
  512MOL0     C67477   7.600   3.301   4.807  0.3783  0.2272 -0.5683
  512MOL0     C67478   7.521   3.307   4.922  0.3596  0.7338 -0.5705
  512MOL0     C67479   7.505   3.424   4.998  0.9667 -0.6082 -1.3999
  512MOL0     C67480   7.585   3.536   4.971  0.2396  0.4798 -0.4787
  512MOL0     C67481   7.566   3.670   5.034  0.7166 -0.7565 -0.5951
  512MOL0     O67482   7.666   3.770   5.011  0.7950  0.5129  0.0937
  512MOL0     C67483   7.649   3.894   5.033 -0.1686 -1.1946 -1.1801
  512MOL0     C67484   7.637   3.980   4.932 -0.0880 -0.8766  0.2117
  512MOL0     C67485   7.607   4.113   4.970  0.5843 -0.3257  1.3237
  512MOL0     C67486   7.591   4.170   5.098  0.6903  0.5396  0.0940
  512MOL0     O67487   7.574   4.300   5.116 -0.3671 -0.7185  0.6854
  512MOL0     C67488   7.652   4.391   5.026 -0.0703  0.4368  0.2958
  512MOL0     C67489   7.634   4.537   5.088  0.4567  0.4021 -0.4063
  512MOL0     C67490   7.666   4.552   5.233  0.2316 -0.6624 -0.0038
  512MOL0     C67491   7.758   4.460   5.300 -0.9698  0.2686 -0.2895
  512MOL0     C67492   7.832   4.513   5.427  0.1276 -0.0795 -0.2933
  512MOL0     C67493   7.912   4.415   5.521  0.6163 -0.4603  0.2528
  512MOL0     C67494   7.833   4.282   5.537  0.2631 -0.6732  0.3421
  512MOL0     C67495   7.885   4.197   5.644 -0.4859 -0.1425 -0.3485
  512MOL0    Cl67496   8.007   4.077   5.582 -0.0659 -0.2448  0.3043
  512MOL0     C67497   7.611   4.077   5.206 -0.5579  0.2736 -0.6889
  512MOL0     C67498   7.643   3.934   5.172 -0.1807 -0.9688 -0.1553
  512MOL0     O67499   7.469   3.675   5.110 -0.1673 -0.1559 -0.1460
  512MOL0     C67500   7.676   3.528   4.860  0.6400  0.0801 -0.6922
  512MOL0     C67501   7.678   3.414   4.787 -0.0865  0.6829  0.0576
  512MOL0     N67502   8.217   2.893   4.626 -0.2950 -0.6015  0.6346
  512MOL0     N67503   8.302   2.930   4.706 -0.9214  0.1655 -0.2659
  512MOL0     C67504   9.186   2.942   5.244  0.1724 -0.6926  0.1799
  512MOL0     C67505   9.291   2.861   5.229 -0.0647  0.3628 -0.6421
  512MOL0     C67506   9.734   2.731   5.097 -0.6275 -0.3947 -0.3825
  512MOL0     C67507   9.871   2.767   5.078 -0.2740  0.1438  0.2858
  512MOL0     C67508   9.960   2.663   5.041  0.5750  0.6456  0.3175
  512MOL0     C67509   9.913   2.534   5.001 -0.1281  0.3375  0.5762
  512MOL0     O67510   9.986   2.423   4.961 -0.2114  0.3476  0.2819
  512MOL0     C67511  10.124   2.413   4.994 -0.4811 -1.0441  0.1881
  512MOL0     C67512  10.178   2.274   4.980  0.0007  0.4953 -0.3406
  512MOL0     C67513  10.213   2.253   4.829  0.3869  1.2319 -0.9427
  512MOL0     C67514  10.269   2.116   4.784 -0.2144  0.3685 -0.2914
  512MOL0     C67515  10.395   2.076   4.854  0.7236 -0.0062  1.0373
  512MOL0     C67516  10.486   2.040   4.926  0.3624  0.7473 -0.3074
  512MOL0     C67517   9.785   2.503   5.016  0.7441 -0.4176  0.8917
  512MOL0     C67518   9.691   2.602   5.070  0.2042  0.5090  0.8531
  512MOL0     H67519   9.480   3.030   5.010  1.0768  0.8398  1.4050
  512MOL0     H67520   9.263   3.187   5.024  1.0079  0.6644  0.1486
  512MOL0     H67521   9.044   3.212   5.392  2.2520  0.2027 -1.1694
  512MOL0     H67522   8.951   3.072   5.332 -2.7356  0.2454 -2.3439
  512MOL0     H67523   8.880   3.348   5.255 -0.5352 -0.3551 -2.8408
  512MOL0     H67524   8.780   3.251   5.361 -3.4376 -1.7507 -3.7118
  512MOL0     H67525   8.798   3.091   5.144  3.2651  0.3148  1.8326
  512MOL0     H67526   8.843   3.242   5.073  1.7631  1.9864  1.6650
  512MOL0     H67527   8.593   3.218   5.238  0.0542  3.5727  1.0814
  512MOL0     H67528   8.643   3.354   5.140 -4.7859  0.1997 -1.6881
  512MOL0     H67529   8.539   3.083   5.046 -1.3723  0.1876  0.7013
  512MOL0     H67530   8.643   3.195   4.950 -1.7393  1.8345 -1.7188
  512MOL0     H67531   8.491   3.381   4.978  1.7316  0.0936  3.4886
  512MOL0     H67532   8.388   3.276   5.072  1.3843 -3.0324  0.7434
  512MOL0     H67533   8.303   3.296   4.850 -0.0282  0.8224  0.5913
  512MOL0     H67534   8.443   3.216   4.777 -1.4983 -1.5795 -0.4255
  512MOL0     H67535   8.252   3.093   4.981 -0.6952  0.9211 -1.2990
  512MOL0     H67536   8.397   3.011   4.915 -2.0460 -3.6474  1.0948
  512MOL0     H67537   8.049   3.127   4.778 -1.3056 -2.3323  1.5987
  512MOL0     H67538   7.916   2.872   4.613  1.8299 -3.8050 -1.0634
  512MOL0     H67539   7.985   2.906   4.462 -1.2269 -1.5160  1.4444
  512MOL0     H67540   7.828   3.067   4.451  2.1381 -2.7620 -1.4072
  512MOL0     H67541   7.963   3.164   4.527 -2.1193  2.4051 -1.7174
  512MOL0     H67542   7.797   3.043   4.736  1.0064  0.5979 -0.4005
  512MOL0     H67543   7.859   3.208   4.714  3.0522 -0.9757  0.7425
  512MOL0     H67544   7.628   3.085   4.552  0.8489  0.1786 -0.6338
  512MOL0     H67545   7.672   3.254   4.554  1.1379  1.9088  1.8429
  512MOL0     H67546   7.468   3.216   4.949  0.8741  0.3403 -0.8716
  512MOL0     H67547   7.425   3.420   5.072  0.6567 -0.5162 -1.7251
  512MOL0     H67548   7.663   3.953   4.830 -0.6997  1.1027 -0.5194
  512MOL0     H67549   7.600   4.170   4.878 -0.2440 -4.4900 -1.4800
  512MOL0     H67550   7.624   4.385   4.920 -1.6848 -1.6445  0.7602
  512MOL0     H67551   7.757   4.361   5.036  0.6353  3.0789  1.6844
  512MOL0     H67552   7.528   4.556   5.065  0.4184 -1.5520 -2.1517
  512MOL0     H67553   7.698   4.607   5.033 -0.2589 -0.3009 -2.2357
  512MOL0     H67554   7.576   4.529   5.290 -1.8485  2.2410 -1.8837
  512MOL0     H67555   7.684   4.659   5.243 -1.9783  0.1475 -3.1050
  512MOL0     H67556   7.699   4.372   5.329 -2.4517  1.4249  0.2954
  512MOL0     H67557   7.835   4.432   5.226 -2.1593 -1.7277 -0.8602
  512MOL0     H67558   7.755   4.535   5.502  1.4621  0.9120  0.8272
  512MOL0     H67559   7.895   4.598   5.400  0.4661 -0.0966  0.4252
  512MOL0     H67560   7.916   4.476   5.612  0.1423 -0.6911  0.4358
  512MOL0     H67561   8.010   4.382   5.485  0.4914  0.6214 -1.1840
  512MOL0     H67562   7.733   4.306   5.575  0.2161 -0.1204 -0.1190
  512MOL0     H67563   7.822   4.233   5.439 -2.0446  1.9343 -0.8451
  512MOL0     H67564   7.808   4.131   5.685  0.7992 -0.1270  2.2408
  512MOL0     H67565   7.930   4.246   5.730  1.6578 -0.5652 -1.1788
  512MOL0     H67566   7.587   4.115   5.305 -2.9430  1.6502 -1.6900
  512MOL0     H67567   7.641   3.864   5.256  1.8261 -1.5894 -0.5626
  512MOL0     H67568   7.731   3.618   4.835 -0.5331  1.3099  0.9473
  512MOL0     H67569   7.749   3.410   4.705  0.7016  1.0450  0.7089
  512MOL0     H67570   9.108   2.927   5.318 -0.4350  1.4539  0.0599
  512MOL0     H67571   9.291   2.767   5.284 -1.3160 -1.1773 -3.0828
  512MOL0     H67572   9.906   2.867   5.100 -1.3113 -0.0130  3.1638
  512MOL0     H67573  10.060   2.688   5.007 -0.1900  0.7917 -2.0218
  512MOL0     H67574  10.125   2.431   5.102  1.5391 -0.7159  0.1623
  512MOL0     H67575  10.183   2.492   4.946  1.5260 -3.2048 -1.1091
  512MOL0     H67576  10.265   2.275   5.046 -0.3892  2.0520  0.2052
  512MOL0     H67577  10.117   2.192   5.020  0.6858 -0.5139 -1.3391
  512MOL0     H67578  10.291   2.327   4.810  2.6743 -0.8134  0.0371
  512MOL0     H67579  10.125   2.276   4.768 -0.6639 -0.3730 -0.0891
  512MOL0     H67580  10.187   2.045   4.795 -0.8517  0.6660 -2.6147
  512MOL0     H67581  10.307   2.124   4.682  2.2570  0.2998  0.5520
  512MOL0     H67582  10.561   1.996   4.989  2.5022  0.6113 -2.7682
  512MOL0     H67583   9.749   2.402   4.999 -0.0832  0.3022 -2.5106
  512MOL0     H67584   9.588   2.570   5.079  0.6391 -1.8515 -1.3627
  513MOL0     O67585   1.549   8.929   4.541 -0.4004 -0.5554  0.0694
  513MOL0     C67586   1.509   9.034   4.597 -0.3423  0.9224  0.4982
  513MOL0     O67587   1.584   9.141   4.618 -0.9135 -0.2315  0.3928
  513MOL0     C67588   1.715   9.133   4.592 -0.7579  1.1435  0.8370
  513MOL0     C67589   1.773   9.232   4.509  0.1595  0.9888 -0.4165
  513MOL0     C67590   1.904   9.251   4.483 -0.5135  0.2421  0.5530
  513MOL0     C67591   2.001   9.170   4.556 -0.2818  0.4647  0.8932
  513MOL0     O67592   2.134   9.209   4.540  0.5302  0.4362  0.4326
  513MOL0     C67593   2.239   9.111   4.571 -0.4503 -0.4329  0.5313
  513MOL0     C67594   2.317   9.144   4.696  0.2977  0.1954  0.0530
  513MOL0     C67595   2.385   9.273   4.688 -0.1249 -1.2063 -0.2460
  513MOL0     C67596   2.452   9.310   4.829  0.5662  0.6060  0.4835
  513MOL0     C67597   2.578   9.389   4.799  0.5879  0.2245 -0.0034
  513MOL0     C67598   2.663   9.409   4.928  0.0356  0.6444 -0.8799
  513MOL0     C67599   2.597   9.492   5.041  0.1324  0.7818  0.2305
  513MOL0     C67600   2.693   9.547   5.138  0.3738 -0.3091 -0.3028
  513MOL0     N67601   2.624   9.615   5.247  0.2097  0.5630 -0.6266
  513MOL0     C67602   2.567   9.556   5.356 -0.2296 -0.3518  0.3459
  513MOL0     C67603   2.566   9.644   5.456 -0.3393 -0.7952  0.6778
  513MOL0     C67604   2.534   9.620   5.600 -0.0295 -0.4927  0.7068
  513MOL0     C67605   2.401   9.696   5.626 -0.0972  0.3936 -0.1771
  513MOL0     C67606   2.355   9.703   5.776 -0.3219  0.2256  0.7590
  513MOL0     C67607   2.439   9.813   5.850  1.3348  0.2890 -0.2973
  513MOL0     O67608   2.371   9.836   5.979 -0.5171 -0.1411 -0.4511
  513MOL0     C67609   2.415   9.751   6.074 -0.7620  0.6475  0.4182
  513MOL0     C67610   2.347   9.636   6.123  0.6824 -0.3515  0.4230
  513MOL0     C67611   2.417   9.544   6.201  0.4367 -0.0013 -0.0328
  513MOL0     C67612   2.538   9.571   6.258 -0.0404 -0.7352  1.0494
  513MOL0     C67613   2.593   9.468   6.353  0.3159 -0.0449  0.2826
  513MOL0     O67614   2.496   9.415   6.442  0.8719  0.4519  1.3216
  513MOL0     C67615   2.524   9.306   6.517  0.5965 -0.3024 -1.0868
  513MOL0     C67616   2.576   9.185   6.457  0.9709 -0.0843 -0.9645
  513MOL0     C67617   2.581   9.073   6.545 -0.6968  1.0116  0.8712
  513MOL0     C67618   2.557   9.082   6.681  0.8122 -0.8728  0.2758
  513MOL0     O67619   2.560   8.975   6.771 -0.0409 -0.5682  0.0443
  513MOL0     C67620   2.604   8.847   6.731  0.2711  0.3035 -0.5326
  513MOL0     C67621   2.480   8.772   6.665 -0.8105 -0.2834  0.4657
  513MOL0     C67622   2.366   8.781   6.765 -0.2703 -0.8912  0.0734
  513MOL0     C67623   2.235   8.711   6.723 -0.8916 -0.2135 -0.0878
  513MOL0     C67624   2.105   8.751   6.804 -0.1561  0.2932  0.1508
  513MOL0     C67625   2.119   8.733   6.954  0.3156 -0.3148  0.4679
  513MOL0     C67626   2.003   8.808   7.019  1.2182 -0.5548 -0.3337
  513MOL0     C67627   2.010   8.770   7.166  0.1519  0.3477  0.3167
  513MOL0    Cl67628   2.162   8.816   7.249  0.4977 -0.5399  0.1091
  513MOL0     C67629   2.515   9.201   6.736  0.6548  0.4896 -0.3608
  513MOL0     C67630   2.488   9.309   6.656  0.2315  0.3411 -0.5122
  513MOL0     O67631   2.715   9.458   6.355 -0.5569 -0.1395 -0.0023
  513MOL0     C67632   2.606   9.686   6.220  0.2219 -0.1831  1.0335
  513MOL0     C67633   2.548   9.771   6.126  0.0563  0.1211  0.1254
  513MOL0     N67634   2.615   9.763   5.400  0.1906 -0.9089 -0.1328
  513MOL0     N67635   2.656   9.743   5.274 -0.0691 -0.1336 -0.9503
  513MOL0     C67636   1.953   9.062   4.638  0.5558 -0.7522 -1.0262
  513MOL0     C67637   1.810   9.045   4.654 -0.0724 -0.4977  0.2583
  513MOL0     C67638   1.365   9.049   4.620  0.6721  0.8657 -0.0169
  513MOL0     C67639   1.311   9.167   4.683  0.2726  0.2082  0.5029
  513MOL0     C67640   1.180   9.189   4.696  0.2254  0.5037  0.7069
  513MOL0     C67641   1.087   9.085   4.662  0.0911  0.7506 -0.4991
  513MOL0     O67642   0.951   9.097   4.696  0.4587 -0.0589  0.0440
  513MOL0     C67643   0.886   9.227   4.673  0.0742 -1.2155 -0.8088
  513MOL0     C67644   0.754   9.209   4.596 -0.7204  0.8531  0.7379
  513MOL0     C67645   0.778   9.172   4.447 -0.3886 -0.3733 -0.0367
  513MOL0     C67646   0.801   9.025   4.417  0.0179  0.2185 -0.8831
  513MOL0     C67647   0.673   8.960   4.408 -0.0775  0.5523 -0.2247
  513MOL0     C67648   0.562   8.908   4.401 -0.7514  0.1935 -0.5607
  513MOL0     C67649   1.135   8.962   4.607  0.2154 -0.1296  0.0775
  513MOL0     C67650   1.265   8.945   4.586 -0.5487 -0.7457 -0.3842
  513MOL0     H67651   1.703   9.298   4.458 -1.6294 -1.0851 -0.8049
  513MOL0     H67652   1.956   9.327   4.425 -0.2075 -0.2042  0.2318
  513MOL0     H67653   2.306   9.108   4.485 -0.7640 -2.8777  0.3170
  513MOL0     H67654   2.218   9.004   4.574  1.3798 -0.8566 -0.3238
  513MOL0     H67655   2.392   9.065   4.708  1.0871  0.4505 -2.6298
  513MOL0     H67656   2.249   9.150   4.781  0.2240  2.7136 -0.0823
  513MOL0     H67657   2.322   9.352   4.648  0.8385 -0.7713 -0.9469
  513MOL0     H67658   2.461   9.262   4.610 -0.0473 -1.1371 -0.1794
  513MOL0     H67659   2.381   9.382   4.871 -0.0204  2.9428 -3.8350
  513MOL0     H67660   2.481   9.218   4.881  2.4550  0.9665  0.1477
  513MOL0     H67661   2.540   9.486   4.765 -0.5499 -0.6793 -1.4073
  513MOL0     H67662   2.635   9.348   4.716 -0.0128  0.8540 -0.7491
  513MOL0     H67663   2.768   9.437   4.913  1.5342 -3.0367  1.3530
  513MOL0     H67664   2.672   9.307   4.966  1.2994  0.1768 -2.3148
  513MOL0     H67665   2.539   9.575   4.999 -1.5765  0.6995  2.2709
  513MOL0     H67666   2.525   9.435   5.101  0.4911 -1.8243 -1.6401
  513MOL0     H67667   2.760   9.621   5.092  1.2554 -1.0751 -0.2723
  513MOL0     H67668   2.751   9.463   5.177  2.8917  1.3431 -0.2201
  513MOL0     H67669   2.517   9.461   5.337  3.8774 -2.4727 -1.1853
  513MOL0     H67670   2.615   9.663   5.660 -1.3270 -0.7551  2.7534
  513MOL0     H67671   2.527   9.513   5.621 -1.2626 -0.3092  1.3299
  513MOL0     H67672   2.323   9.645   5.569 -1.7551 -0.5185  2.6895
  513MOL0     H67673   2.407   9.799   5.592  0.4775  1.7750  3.5898
  513MOL0     H67674   2.248   9.722   5.787 -0.4526 -1.0784  2.0723
  513MOL0     H67675   2.370   9.603   5.818  0.8784  0.0960  0.0692
  513MOL0     H67676   2.428   9.902   5.788 -1.9440 -0.1364 -0.5144
  513MOL0     H67677   2.541   9.779   5.872  0.8406  0.6089  3.0025
  513MOL0     H67678   2.239   9.630   6.118  0.6761 -1.5172  1.5118
  513MOL0     H67679   2.356   9.461   6.234  1.7938 -0.9628  0.1082
  513MOL0     H67680   2.619   9.182   6.358  0.3276  2.4636 -1.3955
  513MOL0     H67681   2.631   8.988   6.498 -3.8556 -1.7545  2.1066
  513MOL0     H67682   2.644   8.789   6.815  0.2058  3.2748  1.6718
  513MOL0     H67683   2.682   8.859   6.655  1.1804 -0.1607  0.3110
  513MOL0     H67684   2.512   8.671   6.638  1.8462  1.0545 -1.9320
  513MOL0     H67685   2.455   8.821   6.571 -0.9834  2.7934  1.9819
  513MOL0     H67686   2.328   8.881   6.786  0.4263 -0.8624  1.2403
  513MOL0     H67687   2.391   8.726   6.856 -1.0399 -0.0156  0.8277
  513MOL0     H67688   2.226   8.728   6.615 -0.9155  2.4866  0.2789
  513MOL0     H67689   2.243   8.603   6.736  0.0209 -0.3728 -1.6191
  513MOL0     H67690   2.034   8.677   6.767  1.5090  0.0460 -2.8896
  513MOL0     H67691   2.081   8.848   6.760  3.1574  1.6237  0.9690
  513MOL0     H67692   2.219   8.761   6.989  2.2053 -2.6493 -2.5649
  513MOL0     H67693   2.092   8.631   6.984 -0.7590 -0.2736 -0.3028
  513MOL0     H67694   2.025   8.914   7.001 -0.7122 -0.2525 -1.2201
  513MOL0     H67695   1.912   8.780   6.964 -1.4128  2.4524  2.0524
  513MOL0     H67696   1.996   8.665   7.190 -2.3077 -0.0731 -2.4815
  513MOL0     H67697   1.932   8.831   7.212 -0.0579  1.5804 -1.5631
  513MOL0     H67698   2.502   9.203   6.843  0.4020 -1.3014 -0.3220
  513MOL0     H67699   2.462   9.405   6.698 -1.6078  1.0707 -3.0334
  513MOL0     H67700   2.700   9.704   6.271  0.7617 -1.4613  0.5337
  513MOL0     H67701   2.609   9.855   6.094  3.9441 -2.4527  0.1103
  513MOL0     H67702   2.018   8.998   4.695  0.9527  1.2191  0.8518
  513MOL0     H67703   1.769   8.979   4.730 -0.3095  0.3632  0.8814
  513MOL0     H67704   1.384   9.243   4.712  0.7520  0.8135 -2.0946
  513MOL0     H67705   1.137   9.278   4.740  1.0459  1.1336  0.2798
  513MOL0     H67706   0.944   9.302   4.619 -1.6361  2.6005  2.1767
  513MOL0     H67707   0.868   9.261   4.775 -1.2625 -3.6746 -0.1327
  513MOL0     H67708   0.688   9.137   4.646  0.6280 -1.7091 -0.9392
  513MOL0     H67709   0.696   9.301   4.610  0.3261  1.6456  0.0169
  513MOL0     H67710   0.870   9.225   4.423  0.0699 -0.4421  1.5071
  513MOL0     H67711   0.693   9.210   4.388  0.8591 -0.7602 -2.2054
  513MOL0     H67712   0.866   9.006   4.331  0.7433  0.6908 -0.4436
  513MOL0     H67713   0.857   8.969   4.492 -1.3506  1.0799  0.8638
  513MOL0     H67714   0.475   8.848   4.413 -0.0171 -0.9286 -0.7125
  513MOL0     H67715   1.062   8.882   4.594  0.4613 -0.8863  2.8342
  513MOL0     H67716   1.315   8.864   4.533  1.8213  0.0141  0.5683
  514MOL0     O67717   7.284   1.353   8.914 -0.1001  0.8981  0.4740
  514MOL0     C67718   7.213   1.258   8.946 -1.0838  0.6845 -0.7947
  514MOL0     O67719   7.079   1.257   8.932 -0.4904  0.2727  1.0493
  514MOL0     C67720   7.017   1.362   8.868 -0.4273 -0.1180  0.7917
  514MOL0     C67721   6.967   1.334   8.741  0.3417 -0.2358 -0.0274
  514MOL0     C67722   6.899   1.431   8.663 -0.4564  0.4331  0.3173
  514MOL0     C67723   6.896   1.567   8.708 -0.4901  0.0987  0.9251
  514MOL0     O67724   6.823   1.671   8.647  0.5545 -0.2213 -0.6668
  514MOL0     C67725   6.803   1.666   8.510 -1.4966 -0.8104 -0.3887
  514MOL0     C67726   6.726   1.782   8.447 -0.3507  1.6022 -0.8721
  514MOL0     C67727   6.673   1.751   8.311 -0.1933  0.2453  0.7652
  514MOL0     C67728   6.583   1.858   8.265  0.0923 -1.0133 -0.0042
  514MOL0     C67729   6.569   1.877   8.115 -0.0833  0.3269 -0.4603
  514MOL0     C67730   6.479   2.004   8.096  0.1622 -0.2331  0.8007
  514MOL0     C67731   6.434   2.005   7.950  0.9831  0.3196  0.4599
  514MOL0     C67732   6.346   2.125   7.918 -0.5115  1.4279  0.2984
  514MOL0     N67733   6.217   2.087   7.862  0.6763  0.0343 -1.2308
  514MOL0     C67734   6.097   2.110   7.924  0.5892 -0.6372  0.2935
  514MOL0     C67735   6.008   2.060   7.829  0.2668  1.2783  0.7026
  514MOL0     C67736   5.858   2.045   7.829 -0.0884  0.3185 -0.9263
  514MOL0     C67737   5.804   2.073   7.975 -0.7770  0.7666  0.2532
  514MOL0     C67738   5.838   1.944   8.067  0.4732  0.7319 -0.4980
  514MOL0     C67739   5.741   1.834   8.022 -0.4698 -0.0935  0.0091
  514MOL0     O67740   5.709   1.755   8.141 -0.2843  0.7168 -0.2796
  514MOL0     C67741   5.616   1.810   8.221 -1.0759 -0.2457  0.0912
  514MOL0     C67742   5.483   1.828   8.185 -0.0376 -0.0823  0.2098
  514MOL0     C67743   5.393   1.881   8.266  0.6827 -0.3829 -0.4959
  514MOL0     C67744   5.423   1.913   8.402  0.2942 -0.1541 -0.6749
  514MOL0     C67745   5.303   1.954   8.496 -0.6531  0.4203  0.8470
  514MOL0     O67746   5.179   1.963   8.446 -0.0329  0.1959  0.1269
  514MOL0     C67747   5.081   1.977   8.533  0.3043  0.3597  0.7737
  514MOL0     C67748   5.010   1.869   8.582  0.0478 -0.8570  0.3333
  514MOL0     C67749   4.908   1.887   8.664  0.2661  0.3363 -0.5826
  514MOL0     C67750   4.877   2.011   8.719 -0.7513  0.1081  0.9714
  514MOL0     O67751   4.787   2.006   8.819 -0.1170 -0.0601 -0.3012
  514MOL0     C67752   4.790   2.092   8.936 -0.2048  0.1741 -0.0433
  514MOL0     C67753   4.716   2.023   9.060  1.0156 -0.4255  0.1723
  514MOL0     C67754   4.806   1.920   9.120 -0.0236 -0.1864 -1.0075
  514MOL0     C67755   4.741   1.864   9.249 -0.2179 -0.5131 -0.5515
  514MOL0     C67756   4.850   1.846   9.354  0.9023 -1.0365  0.7004
  514MOL0     C67757   4.875   1.975   9.432  0.0178 -1.2723  1.1765
  514MOL0     C67758   4.958   1.970   9.552  0.3378 -0.3621  0.1813
  514MOL0     C67759   5.102   1.923   9.533  0.3249  0.1782 -0.2567
  514MOL0    Cl67760   5.173   2.033   9.407  0.2594 -0.4947 -0.0211
  514MOL0     C67761   4.949   2.122   8.675  0.4258  0.8145  0.7746
  514MOL0     C67762   5.051   2.105   8.584 -0.0999 -0.1835  0.3478
  514MOL0     O67763   5.345   1.972   8.612 -0.2208  0.1479 -0.5012
  514MOL0     C67764   5.560   1.892   8.442  0.2936  0.4737  0.0999
  514MOL0     C67765   5.660   1.842   8.352 -0.3613 -0.5061  0.4579
  514MOL0     N67766   6.083   2.002   7.724  0.1863 -1.0941  1.0092
  514MOL0     N67767   6.204   2.022   7.745  0.3931  0.1750 -0.3988
  514MOL0     C67768   6.961   1.597   8.834  0.3708 -0.0903  0.2102
  514MOL0     C67769   7.023   1.496   8.915  0.2903 -0.7293 -0.1780
  514MOL0     C67770   7.282   1.131   9.007  0.2575  0.3900 -0.2602
  514MOL0     C67771   7.215   1.014   9.015 -0.2002  0.1960 -0.4564
  514MOL0     C67772   7.278   0.896   9.046  0.3629 -0.8313 -0.1442
  514MOL0     C67773   7.400   0.907   9.119 -0.4046  0.7236  0.5003
  514MOL0     O67774   7.449   0.792   9.182 -0.6426  1.2570  0.4574
  514MOL0     C67775   7.427   0.796   9.328  1.1359  0.4033  0.7096
  514MOL0     C67776   7.289   0.733   9.365 -0.2004 -0.3294 -0.5450
  514MOL0     C67777   7.308   0.628   9.477 -0.6491  0.6137 -0.7128
  514MOL0     C67778   7.359   0.689   9.604  0.5932 -0.0835  0.5545
  514MOL0     C67779   7.446   0.585   9.663  0.3711  0.0860  0.5031
  514MOL0     C67780   7.507   0.500   9.721  0.0112  1.1504  0.7215
  514MOL0     C67781   7.469   1.036   9.121  0.2449 -0.0363  0.5101
  514MOL0     C67782   7.413   1.143   9.059 -0.7177  0.2941 -0.0039
  514MOL0     H67783   6.999   1.235   8.710  1.0011 -0.1187  0.2507
  514MOL0     H67784   6.845   1.401   8.575 -0.7279  3.6743 -0.7556
  514MOL0     H67785   6.760   1.570   8.479 -1.7471 -0.9783  0.4475
  514MOL0     H67786   6.907   1.675   8.476 -0.9543  1.2065  1.5754
  514MOL0     H67787   6.787   1.873   8.452  0.5857  0.9215  1.5251
  514MOL0     H67788   6.647   1.809   8.518  1.9135  1.4278  1.9171
  514MOL0     H67789   6.613   1.661   8.323 -0.7883  0.7242  1.4092
  514MOL0     H67790   6.753   1.733   8.238  0.2294  0.8324  1.0687
  514MOL0     H67791   6.479   1.842   8.295 -1.4105 -0.5311 -4.3133
  514MOL0     H67792   6.608   1.957   8.304 -0.0858 -1.3855  1.1065
  514MOL0     H67793   6.525   1.787   8.070  1.5157  0.6007 -2.7426
  514MOL0     H67794   6.664   1.892   8.064 -0.2101 -0.9259 -1.0974
  514MOL0     H67795   6.541   2.093   8.113  0.6332 -0.5027  0.5175
  514MOL0     H67796   6.394   1.991   8.163 -0.0619 -0.1064  0.5417
  514MOL0     H67797   6.518   1.994   7.879  1.5290  1.3928  0.9258
  514MOL0     H67798   6.385   1.911   7.922 -0.4451  1.0868  0.3067
  514MOL0     H67799   6.395   2.186   7.843  0.6867 -0.6893 -0.7274
  514MOL0     H67800   6.325   2.185   8.007 -1.6588 -1.2080  1.9645
  514MOL0     H67801   6.070   2.174   8.008  0.7402  2.6745 -1.9882
  514MOL0     H67802   5.819   1.953   7.785 -2.3128  0.3874  0.6779
  514MOL0     H67803   5.823   2.124   7.762 -0.4770 -1.6712 -3.1645
  514MOL0     H67804   5.699   2.100   7.985 -1.2304  0.0815 -2.0926
  514MOL0     H67805   5.859   2.159   8.016  0.8197  0.2137 -0.6361
  514MOL0     H67806   5.939   1.902   8.075 -0.3022 -0.9292  4.5092
  514MOL0     H67807   5.809   1.987   8.164 -1.6086  0.4926 -0.9679
  514MOL0     H67808   5.779   1.773   7.939 -0.4786  0.5524 -0.4805
  514MOL0     H67809   5.656   1.893   7.987 -0.6542  1.9647  3.4632
  514MOL0     H67810   5.439   1.776   8.100  1.3642  0.2899 -0.7844
  514MOL0     H67811   5.295   1.906   8.226  0.5254  1.0575  0.6674
  514MOL0     H67812   5.030   1.770   8.543 -2.5626 -0.7052 -1.6641
  514MOL0     H67813   4.854   1.800   8.699 -0.1215  0.6610 -0.3699
  514MOL0     H67814   4.743   2.183   8.897 -0.5793 -1.2983 -3.4202
  514MOL0     H67815   4.896   2.106   8.956  0.6555  0.0728 -3.7969
  514MOL0     H67816   4.618   1.979   9.041  0.9653 -0.9738  1.6527
  514MOL0     H67817   4.700   2.101   9.135  0.0875 -0.6376  0.1984
  514MOL0     H67818   4.905   1.963   9.135 -0.1574 -0.1526 -0.1424
  514MOL0     H67819   4.815   1.842   9.044  0.3683  0.5712 -1.7522
  514MOL0     H67820   4.659   1.920   9.294 -0.3856 -0.5306 -0.8388
  514MOL0     H67821   4.696   1.766   9.228 -0.8420  0.0361 -1.8561
  514MOL0     H67822   4.945   1.810   9.313  0.4486 -0.5692 -0.8059
  514MOL0     H67823   4.816   1.775   9.430 -0.3185 -0.1636  1.0121
  514MOL0     H67824   4.774   2.009   9.457  0.6258 -0.3125  2.4620
  514MOL0     H67825   4.911   2.048   9.359 -0.9004  0.2805  2.2234
  514MOL0     H67826   4.960   2.073   9.588 -2.4759 -0.3286  0.4789
  514MOL0     H67827   4.894   1.911   9.618  0.2405  1.0834  1.4098
  514MOL0     H67828   5.090   1.821   9.496  0.1117  0.1218 -0.0338
  514MOL0     H67829   5.157   1.923   9.627 -0.8191 -1.4445  0.4667
  514MOL0     H67830   4.910   2.218   8.707 -2.4220  0.7054 -1.8499
  514MOL0     H67831   5.114   2.186   8.548 -0.7675  0.2804  0.2000
  514MOL0     H67832   5.595   1.911   8.543 -1.4107 -1.2580  1.0879
  514MOL0     H67833   5.767   1.828   8.360 -0.2272 -0.2044 -0.6645
  514MOL0     H67834   6.974   1.693   8.881  2.3777 -0.4173  0.4271
  514MOL0     H67835   7.076   1.513   9.008 -0.0313 -1.5741  0.1736
  514MOL0     H67836   7.117   1.011   8.970 -0.2404 -1.6577 -0.3428
  514MOL0     H67837   7.230   0.799   9.049 -1.8515  0.2288  1.9350
  514MOL0     H67838   7.443   0.898   9.367  0.7047 -0.9819  5.0339
  514MOL0     H67839   7.508   0.746   9.382  2.5094 -0.3421 -1.9071
  514MOL0     H67840   7.217   0.809   9.395  2.4375  2.7766 -1.5625
  514MOL0     H67841   7.241   0.686   9.279  0.0076 -0.4078 -0.6193
  514MOL0     H67842   7.371   0.547   9.439 -0.9124 -1.7845  3.3764
  514MOL0     H67843   7.210   0.585   9.498 -0.8633  0.4835 -1.9267
  514MOL0     H67844   7.402   0.789   9.600  1.8431 -0.6629 -1.1435
  514MOL0     H67845   7.272   0.694   9.671 -0.2649  0.2860 -0.5639
  514MOL0     H67846   7.551   0.422   9.780  1.6477  1.7449  0.3554
  514MOL0     H67847   7.572   1.036   9.155  0.5165  0.9871 -0.2883
  514MOL0     H67848   7.476   1.231   9.052 -1.2048  0.6649  0.2483
  515MOL0     O67849   9.602   5.514   0.999  0.5828  0.9915 -0.0444
  515MOL0     C67850   9.683   5.507   1.088 -0.4128  1.1704  0.8170
  515MOL0     O67851   9.814   5.486   1.072 -0.7111  0.4415  0.0751
  515MOL0     C67852   9.876   5.524   0.955  0.1871 -0.0704 -0.5941
  515MOL0     C67853   9.846   5.627   0.874  1.1076 -0.0498  0.0159
  515MOL0     C67854   9.917   5.661   0.762 -0.2414  0.4875  0.5298
  515MOL0     C67855  10.033   5.583   0.724 -0.2956  0.2779 -0.0622
  515MOL0     O67856  10.107   5.598   0.605  0.7342  0.0207  0.0741
  515MOL0     C67857  10.083   5.709   0.513 -0.4256 -0.3037  0.2806
  515MOL0     C67858  10.177   5.831   0.551  0.2583 -0.4651 -0.3246
  515MOL0     C67859  10.324   5.788   0.529  0.7866  0.0879  0.0285
  515MOL0     C67860  10.397   5.909   0.567 -0.5600 -0.1195 -0.0276
  515MOL0     C67861  10.547   5.880   0.573 -1.3592  0.1010  0.6676
  515MOL0     C67862  10.603   5.764   0.657  0.0342  0.3055  0.4210
  515MOL0     C67863  10.757   5.756   0.650  0.0999  0.0753 -0.4444
  515MOL0     C67864  10.829   5.647   0.742  0.1687  0.1747  0.2853
  515MOL0     N67865  10.795   5.657   0.881  0.5675  0.2080 -0.1655
  515MOL0     C67866  10.860   5.742   0.964 -0.3122 -0.0991  1.1997
  515MOL0     C67867  10.818   5.717   1.089  0.6349  0.0450 -1.3470
  515MOL0     C67868  10.865   5.787   1.214  0.6487 -0.1998 -1.3409
  515MOL0     C67869  10.743   5.830   1.305  1.1046  0.2674 -0.0805
  515MOL0     C67870  10.649   5.724   1.350 -0.4380 -0.0498  0.1969
  515MOL0     C67871  10.722   5.615   1.437 -0.0024 -0.1217 -0.5371
  515MOL0     O67872  10.823   5.665   1.525 -0.4825  0.1832 -0.5470
  515MOL0     C67873  10.797   5.736   1.650  0.0459  0.4830  0.4621
  515MOL0     C67874  10.898   5.801   1.722  0.1442 -0.7938  0.6750
  515MOL0     C67875  10.873   5.881   1.838  0.1550  0.4661  1.2948
  515MOL0     C67876  10.741   5.882   1.888 -0.6709  0.2604  0.0489
  515MOL0     C67877  10.711   5.963   2.010  0.2097  0.2445  0.1371
  515MOL0     O67878  10.803   6.056   2.038 -0.5640 -0.5537  0.3595
  515MOL0     C67879  10.797   6.132   2.158  1.1577  0.2423  0.2757
  515MOL0     C67880  10.917   6.145   2.232  0.1263 -0.2229  0.1194
  515MOL0     C67881  10.909   6.211   2.364 -0.5997  1.0309  0.6790
  515MOL0     C67882  10.780   6.241   2.417 -0.6450 -0.0922 -0.6683
  515MOL0     O67883  10.755   6.289   2.544  0.6717 -0.1966  0.5654
  515MOL0     C67884  10.859   6.325   2.623 -0.6353  0.2757 -0.5383
  515MOL0     C67885  10.804   6.339   2.766  0.5159 -0.1632 -0.4877
  515MOL0     C67886  10.922   6.327   2.861 -1.1504 -0.2839  0.9473
  515MOL0     C67887  10.876   6.353   3.005 -0.2424  1.0540  0.6433
  515MOL0     C67888  10.973   6.307   3.107 -0.8575  0.7256  0.2418
  515MOL0     C67889  11.113   6.380   3.107 -0.4487 -0.0223 -0.3380
  515MOL0     C67890  11.201   6.335   3.229  0.1874 -0.5939  0.1184
  515MOL0     C67891  11.340   6.398   3.238 -0.1309  0.0824  0.4641
  515MOL0    Cl67892  11.413   6.336   3.383  0.1180  0.4299  0.3570
  515MOL0     C67893  10.666   6.220   2.344  0.8490 -0.0957 -0.1196
  515MOL0     C67894  10.674   6.162   2.224  0.4023 -0.1148 -0.2128
  515MOL0     O67895  10.615   5.919   2.075 -0.7930 -0.7416  0.0245
  515MOL0     C67896  10.648   5.800   1.830 -0.6966 -0.3297 -0.6031
  515MOL0     C67897  10.678   5.720   1.716 -1.2702  0.6201  0.4647
  515MOL0     N67898  10.721   5.609   1.080 -0.7754 -0.2178 -0.2225
  515MOL0     N67899  10.711   5.578   0.961 -0.4730 -0.3811  0.1808
  515MOL0     C67900  10.081   5.485   0.816  0.4495  0.0600 -0.0146
  515MOL0     C67901  10.002   5.460   0.931  0.4436  0.4017  0.5012
  515MOL0     C67902   9.634   5.499   1.225  0.0039  0.3134  0.1006
  515MOL0     C67903   9.491   5.491   1.250 -1.7177  0.4442  1.3884
  515MOL0     C67904   9.440   5.484   1.377 -0.1229  0.0642 -0.9789
  515MOL0     C67905   9.523   5.493   1.491  0.0231 -0.2578 -0.0394
  515MOL0     O67906   9.455   5.503   1.606  0.0708 -0.0991  0.5238
  515MOL0     C67907   9.524   5.535   1.730  0.5557  0.7023  0.5726
  515MOL0     C67908   9.575   5.409   1.795  0.5961  0.5378  0.2467
  515MOL0     C67909   9.524   5.378   1.935 -0.4687  0.2872  0.3017
  515MOL0     C67910   9.566   5.476   2.049  1.5018  0.0359 -0.2359
  515MOL0     C67911   9.499   5.435   2.179  0.8122  0.3009  0.0059
  515MOL0     C67912   9.473   5.420   2.296 -0.2900 -0.8806 -1.0535
  515MOL0     C67913   9.658   5.508   1.469  0.7897  0.2013  0.2886
  515MOL0     C67914   9.716   5.501   1.339  0.5951  0.6888 -0.2888
  515MOL0     H67915   9.758   5.683   0.902  0.7385 -1.6494  2.3322
  515MOL0     H67916   9.888   5.742   0.696 -2.2042 -0.4691  0.1401
  515MOL0     H67917   9.977   5.735   0.508 -1.2562 -2.6456  2.9899
  515MOL0     H67918  10.103   5.686   0.409 -1.3329 -1.3312  0.3131
  515MOL0     H67919  10.149   5.872   0.649  1.1250 -1.1405  0.2293
  515MOL0     H67920  10.157   5.922   0.494  1.1112  0.8720  1.4073
  515MOL0     H67921  10.347   5.764   0.425  1.1038  2.9495 -0.6423
  515MOL0     H67922  10.344   5.697   0.587 -0.0449  1.1132  2.0262
  515MOL0     H67923  10.371   5.993   0.503 -2.5509  0.8964  1.9882
  515MOL0     H67924  10.362   5.934   0.667  0.9723  2.3126 -0.0038
  515MOL0     H67925  10.595   5.969   0.614 -0.1058 -0.5071  0.5684
  515MOL0     H67926  10.589   5.864   0.473 -0.7526  2.5737  0.4723
  515MOL0     H67927  10.568   5.665   0.627  1.5111  0.4371 -2.0226
  515MOL0     H67928  10.571   5.787   0.759 -0.2807 -2.4107  1.0105
  515MOL0     H67929  10.773   5.737   0.544 -0.6596 -0.5630 -0.4525
  515MOL0     H67930  10.804   5.849   0.683  1.0934 -0.8067  0.7254
  515MOL0     H67931  10.937   5.655   0.729  0.1032 -1.3484 -1.5247
  515MOL0     H67932  10.783   5.553   0.711  1.8156  0.1372 -2.3731
  515MOL0     H67933  10.928   5.821   0.935  0.6687 -1.3653 -0.1405
  515MOL0     H67934  10.933   5.873   1.208  3.3398 -1.9171  1.5011
  515MOL0     H67935  10.932   5.717   1.264  1.6725  0.6381 -1.4976
  515MOL0     H67936  10.684   5.886   1.232 -0.4453 -2.5833 -1.1357
  515MOL0     H67937  10.786   5.889   1.387  1.1700 -1.1178  0.9226
  515MOL0     H67938  10.570   5.769   1.411 -0.0216  1.2054 -0.1598
  515MOL0     H67939  10.590   5.689   1.265 -0.8696 -1.5990  1.1040
  515MOL0     H67940  10.769   5.544   1.368  0.1569 -0.2550 -0.2897
  515MOL0     H67941  10.651   5.552   1.491  0.6452 -0.6416 -0.2830
  515MOL0     H67942  10.997   5.772   1.688 -0.2195 -1.1989 -0.0565
  515MOL0     H67943  10.961   5.934   1.873 -0.4905  2.3337  0.2295
  515MOL0     H67944  11.013   6.122   2.186  0.3730 -2.8722  1.7578
  515MOL0     H67945  11.001   6.230   2.418  0.2231  2.1159 -1.0351
  515MOL0     H67946  10.901   6.423   2.600 -0.8525  0.3120 -0.7809
  515MOL0     H67947  10.945   6.257   2.618 -2.3152 -1.9782 -0.6689
  515MOL0     H67948  10.725   6.265   2.782  0.6548 -0.1564  0.2331
  515MOL0     H67949  10.758   6.437   2.777 -0.9960 -0.8834 -0.1842
  515MOL0     H67950  11.006   6.388   2.826  0.2529 -1.5150  2.0276
  515MOL0     H67951  10.962   6.226   2.856 -0.2448  0.0420  1.4001
  515MOL0     H67952  10.857   6.457   3.032  0.8685  1.5674 -0.4568
  515MOL0     H67953  10.790   6.287   3.020 -0.9185  0.9478 -2.8069
  515MOL0     H67954  10.983   6.201   3.082 -2.3748  0.3613  1.1000
  515MOL0     H67955  10.929   6.313   3.206 -0.1854  1.5607  0.5035
  515MOL0     H67956  11.087   6.486   3.118  1.6619  0.6842 -1.5484
  515MOL0     H67957  11.158   6.361   3.009  0.7805 -2.0518  0.5505
  515MOL0     H67958  11.145   6.345   3.323 -0.4066 -1.4711 -0.1307
  515MOL0     H67959  11.211   6.227   3.217 -0.9509 -0.5671 -1.5159
  515MOL0     H67960  11.330   6.507   3.229  0.1750  0.0113 -1.0414
  515MOL0     H67961  11.394   6.357   3.152  2.7562  0.5566  1.9472
  515MOL0     H67962  10.567   6.240   2.384  1.4074 -0.4607  1.4795
  515MOL0     H67963  10.581   6.130   2.177 -1.3208  3.6602  0.2173
  515MOL0     H67964  10.549   5.802   1.874  0.0704 -0.1926  1.1808
  515MOL0     H67965  10.595   5.667   1.671 -1.8803  0.8658  1.2757
  515MOL0     H67966  10.181   5.443   0.804  1.0846  1.7268 -0.8575
  515MOL0     H67967  10.040   5.385   1.000  0.1316  0.2643  0.5261
  515MOL0     H67968   9.422   5.487   1.167 -1.5583 -0.5578  1.2918
  515MOL0     H67969   9.334   5.470   1.391 -0.0364  0.3196 -0.0006
  515MOL0     H67970   9.457   5.581   1.803 -0.7847 -1.6063  0.9046
  515MOL0     H67971   9.614   5.596   1.712  3.3179 -3.1614  0.0005
  515MOL0     H67972   9.546   5.330   1.725  2.3008  0.7961 -0.7990
  515MOL0     H67973   9.684   5.405   1.799  0.6085  1.3694  2.5709
  515MOL0     H67974   9.540   5.276   1.969 -3.1845 -0.2454  0.2225
  515MOL0     H67975   9.415   5.378   1.925 -0.6187  0.2348  1.7339
  515MOL0     H67976   9.674   5.479   2.061  1.3422 -2.0945  2.9578
  515MOL0     H67977   9.532   5.574   2.015  1.8519 -0.8081 -3.2872
  515MOL0     H67978   9.435   5.381   2.389  0.3227 -1.7365 -1.1475
  515MOL0     H67979   9.717   5.509   1.560 -1.3661 -0.5634  1.7710
  515MOL0     H67980   9.821   5.520   1.325  0.4595  0.5256 -1.6517
  516MOL0     O67981   6.100   6.808   5.448  0.0048  0.0784  0.2188
  516MOL0     C67982   5.999   6.796   5.382  0.7779  0.4856  0.4814
  516MOL0     O67983   5.873   6.778   5.421  0.1682  0.1150  0.0510
  516MOL0     C67984   5.841   6.804   5.551  0.0644  0.4739 -0.3627
  516MOL0     C67985   5.754   6.719   5.615  0.4388  0.1865  0.7641
  516MOL0     C67986   5.708   6.738   5.746  0.3128 -0.9569 -0.8161
  516MOL0     C67987   5.751   6.850   5.815 -0.0843 -0.6592 -0.0693
  516MOL0     O67988   5.693   6.859   5.941 -0.1248 -0.7127 -0.6239
  516MOL0     C67989   5.728   6.968   6.020 -0.2024 -0.3897  0.6183
  516MOL0     C67990   5.610   7.000   6.107 -0.2899 -0.4193  0.0292
  516MOL0     C67991   5.634   6.951   6.250 -0.0523 -0.6265 -0.6490
  516MOL0     C67992   5.513   6.974   6.345  0.1363 -0.2484 -1.3277
  516MOL0     C67993   5.540   6.920   6.499  0.2426  0.0465 -0.3262
  516MOL0     C67994   5.565   6.770   6.507  0.5327  0.7042 -0.2872
  516MOL0     C67995   5.567   6.709   6.643  0.2792 -0.1439 -0.0455
  516MOL0     C67996   5.598   6.562   6.650 -0.7501  0.0219 -0.1817
  516MOL0     N67997   5.547   6.504   6.782 -0.7457 -0.6783  1.3874
  516MOL0     C67998   5.423   6.466   6.821 -0.5921  0.1408 -0.8834
  516MOL0     C67999   5.437   6.430   6.954 -0.3044 -0.8168  0.3041
  516MOL0     C68000   5.325   6.381   7.045 -0.8642  0.1679  0.3868
  516MOL0     C68001   5.247   6.487   7.113  0.6587  0.1957  0.1002
  516MOL0     C68002   5.143   6.439   7.211 -0.6418  1.3477 -0.0856
  516MOL0     C68003   5.038   6.545   7.255  0.0862  0.1819 -0.0599
  516MOL0     O68004   4.946   6.580   7.153  0.2268  0.3291 -0.0268
  516MOL0     C68005   4.835   6.508   7.131  0.1869 -0.3274 -0.2038
  516MOL0     C68006   4.797   6.388   7.195  0.0861  0.0397  0.1156
  516MOL0     C68007   4.677   6.329   7.174 -0.6535 -0.2380 -1.0893
  516MOL0     C68008   4.586   6.393   7.087 -0.0641  0.0467 -1.0784
  516MOL0     C68009   4.453   6.328   7.059 -0.7643  0.2183 -0.2855
  516MOL0     O68010   4.442   6.203   7.115 -0.5519  0.3020 -0.0998
  516MOL0     C68011   4.327   6.131   7.097 -0.3084 -0.4851  0.3892
  516MOL0     C68012   4.293   6.033   7.191  0.0217  0.1310 -0.2090
  516MOL0     C68013   4.184   5.949   7.163 -0.7144  0.0225 -0.8570
  516MOL0     C68014   4.111   5.960   7.047 -0.0322 -0.3448  0.0299
  516MOL0     O68015   4.008   5.875   7.031  0.4155  0.3926 -0.9804
  516MOL0     C68016   3.917   5.839   7.139 -1.2945  0.2401  0.2005
  516MOL0     C68017   3.947   5.692   7.169 -0.0600 -0.4789  0.4113
  516MOL0     C68018   3.872   5.650   7.294 -1.5673  0.3530 -0.0972
  516MOL0     C68019   3.791   5.515   7.281 -0.7972 -0.0214  0.1763
  516MOL0     C68020   3.725   5.494   7.412  0.2310 -0.4538 -0.5345
  516MOL0     C68021   3.649   5.358   7.405  0.2757  0.1585  0.2962
  516MOL0     C68022   3.748   5.241   7.386 -0.5973  1.8066  0.1206
  516MOL0     C68023   3.681   5.102   7.394 -0.4940 -0.0781 -0.1456
  516MOL0    Cl68024   3.704   5.021   7.554 -0.0352  0.1808 -0.0931
  516MOL0     C68025   4.146   6.046   6.944 -1.1017  0.3807  0.5869
  516MOL0     C68026   4.254   6.126   6.970 -0.0520  0.0614 -0.3768
  516MOL0     O68027   4.381   6.386   6.987  0.1951  0.1023  0.1011
  516MOL0     C68028   4.625   6.511   7.021  0.4661 -0.0205  0.2291
  516MOL0     C68029   4.752   6.562   7.040 -0.5418 -0.5865 -0.1925
  516MOL0     N68030   5.571   6.447   6.990 -0.8683 -0.7136  0.2596
  516MOL0     N68031   5.632   6.483   6.881 -1.0092 -0.7851 -0.9911
  516MOL0     C68032   5.829   6.939   5.741 -0.5447 -0.1365  0.2041
  516MOL0     C68033   5.865   6.925   5.607  0.3379  0.6232  0.5576
  516MOL0     C68034   6.003   6.839   5.234  0.3650  0.0089 -0.7001
  516MOL0     C68035   6.127   6.874   5.174 -0.3499 -0.2705 -1.6501
  516MOL0     C68036   6.135   6.915   5.046 -1.2842  0.7996 -0.7232
  516MOL0     C68037   6.026   6.917   4.958  0.0332 -0.8007 -0.1030
  516MOL0     O68038   6.054   6.956   4.835  0.2291  0.0947 -0.1811
  516MOL0     C68039   5.960   6.948   4.724  0.1833 -0.3151 -0.0640
  516MOL0     C68040   6.014   7.027   4.603  0.4452  0.1673  0.0670
  516MOL0     C68041   6.008   7.172   4.627  0.3446 -0.4795  0.4555
  516MOL0     C68042   6.037   7.247   4.491  0.0301 -0.0402  0.4038
  516MOL0     C68043   6.154   7.193   4.422 -0.4754 -0.9830  0.2945
  516MOL0     C68044   6.245   7.148   4.361  0.7322  0.1999  0.3300
  516MOL0     C68045   5.907   6.876   5.009  0.6132  1.0062  0.4850
  516MOL0     C68046   5.891   6.832   5.149  0.3774 -0.8320  0.8912
  516MOL0     H68047   5.736   6.626   5.561  0.0967  0.1388  0.9543
  516MOL0     H68048   5.651   6.664   5.801 -0.1638  0.9577  1.4309
  516MOL0     H68049   5.747   7.059   5.964 -0.8635  0.3164  1.5175
  516MOL0     H68050   5.819   6.955   6.080 -1.3641 -1.2944  2.2768
  516MOL0     H68051   5.522   6.957   6.058  0.0960 -2.9053  1.3297
  516MOL0     H68052   5.606   7.109   6.105 -1.7743 -0.4691 -0.2621
  516MOL0     H68053   5.722   7.005   6.287  2.3764 -2.3892 -3.3979
  516MOL0     H68054   5.664   6.845   6.256 -0.2644 -0.6313  0.8921
  516MOL0     H68055   5.494   7.081   6.354  0.1633 -0.3190 -0.3323
  516MOL0     H68056   5.423   6.926   6.305 -1.0161  1.2200 -0.5545
  516MOL0     H68057   5.441   6.942   6.541 -1.5113 -3.5370 -2.1757
  516MOL0     H68058   5.601   6.973   6.573 -2.3949 -1.2346  3.0356
  516MOL0     H68059   5.668   6.756   6.471  1.4522 -0.1827  2.4393
  516MOL0     H68060   5.500   6.715   6.439  0.0456 -0.0448  0.7695
  516MOL0     H68061   5.638   6.755   6.712 -0.1637 -2.5165  2.1213
  516MOL0     H68062   5.464   6.710   6.677  0.1434  0.0735 -0.4583
  516MOL0     H68063   5.705   6.546   6.636 -0.4456  0.8013  1.0916
  516MOL0     H68064   5.550   6.511   6.566  1.3978  2.5295 -3.1676
  516MOL0     H68065   5.325   6.481   6.776 -1.0985  2.7932  0.8939
  516MOL0     H68066   5.383   6.322   7.117  1.6688  0.2499 -1.4237
  516MOL0     H68067   5.258   6.319   6.985 -1.0016 -0.7719  1.4883
  516MOL0     H68068   5.207   6.540   7.026 -0.8549  0.2029  0.7677
  516MOL0     H68069   5.323   6.544   7.167  3.5523 -3.4189  0.2554
  516MOL0     H68070   5.087   6.360   7.160  0.8983 -0.2729  0.6177
  516MOL0     H68071   5.188   6.393   7.299 -0.0631 -1.8757 -1.8996
  516MOL0     H68072   5.088   6.636   7.289 -2.1214  0.9880  1.2520
  516MOL0     H68073   4.992   6.500   7.343 -1.0174  0.0187 -0.7043
  516MOL0     H68074   4.871   6.340   7.258  0.4297  0.4056 -0.0082
  516MOL0     H68075   4.650   6.239   7.227  1.2123 -0.0930  0.1995
  516MOL0     H68076   4.348   6.045   7.284  0.9112  0.2235 -0.7419
  516MOL0     H68077   4.151   5.887   7.245 -3.4799  0.5405 -1.4944
  516MOL0     H68078   3.814   5.854   7.105 -1.1000 -1.5029 -1.2903
  516MOL0     H68079   3.935   5.900   7.228  0.5427 -0.7143  0.5326
  516MOL0     H68080   4.056   5.687   7.181  0.0996  0.4229 -0.5208
  516MOL0     H68081   3.909   5.630   7.088  2.0439 -1.3738  0.0613
  516MOL0     H68082   3.794   5.723   7.318 -1.1180  0.5657  0.7453
  516MOL0     H68083   3.935   5.649   7.383 -5.3196 -1.9817  2.8221
  516MOL0     H68084   3.715   5.545   7.209  0.5711 -1.7727 -2.1177
  516MOL0     H68085   3.854   5.439   7.234  0.5328  0.0274  1.7882
  516MOL0     H68086   3.660   5.580   7.430  0.1038  0.1906 -3.6010
  516MOL0     H68087   3.802   5.482   7.490  1.7681 -1.6355 -2.1459
  516MOL0     H68088   3.580   5.351   7.320 -2.3118 -3.3646  2.4552
  516MOL0     H68089   3.586   5.349   7.494 -0.0429  1.1399  0.1845
  516MOL0     H68090   3.782   5.255   7.283  0.9029 -3.6956 -0.4237
  516MOL0     H68091   3.841   5.252   7.443  1.8958 -1.0829 -2.9485
  516MOL0     H68092   3.725   5.030   7.324  0.4855  2.3555 -2.1994
  516MOL0     H68093   3.575   5.106   7.367 -0.0041  3.5248 -2.2059
  516MOL0     H68094   4.094   6.053   6.849  0.7571 -3.1389 -0.8733
  516MOL0     H68095   4.291   6.193   6.893 -1.0360 -0.1294 -1.0416
  516MOL0     H68096   4.565   6.566   6.950 -0.6801 -0.2161  1.0232
  516MOL0     H68097   4.788   6.644   6.978 -2.0816  0.0903 -0.2353
  516MOL0     H68098   5.878   7.018   5.797 -0.6696  1.2397 -1.5247
  516MOL0     H68099   5.920   7.001   5.552  0.3647  0.8953  0.9589
  516MOL0     H68100   6.220   6.873   5.229 -0.2608 -1.8257 -1.7792
  516MOL0     H68101   6.233   6.938   5.005 -1.2610 -0.1054 -1.2091
  516MOL0     H68102   5.862   6.989   4.749  1.5681  2.5747  1.0915
  516MOL0     H68103   5.937   6.847   4.687 -2.0189  0.0960  0.0845
  516MOL0     H68104   6.122   7.008   4.599  1.2618  3.7156  1.4310
  516MOL0     H68105   5.957   7.018   4.510  2.1066  2.5535 -1.2887
  516MOL0     H68106   6.081   7.208   4.701 -0.9726  0.8958  1.1352
  516MOL0     H68107   5.908   7.200   4.659  0.8561  3.2690 -0.7697
  516MOL0     H68108   5.955   7.245   4.418  2.1806  1.4277 -2.2198
  516MOL0     H68109   6.042   7.355   4.505 -0.5640  0.5882 -3.1535
  516MOL0     H68110   6.328   7.130   4.296  0.4281  2.1655 -0.6643
  516MOL0     H68111   5.827   6.868   4.936  1.5837  0.3233 -0.5294
  516MOL0     H68112   5.797   6.784   5.177  1.8662 -2.9243  2.5760
  517MOL0     O68113   2.659   8.602   8.401  0.2803 -0.9812  0.0845
  517MOL0     C68114   2.748   8.580   8.321  0.3310 -0.0592  0.1279
  517MOL0     O68115   2.745   8.606   8.190 -0.2936  0.2610 -0.1230
  517MOL0     C68116   2.651   8.673   8.119 -0.0669 -1.1253 -0.3255
  517MOL0     C68117   2.696   8.708   7.993  0.1953  0.5740  0.0308
  517MOL0     C68118   2.614   8.786   7.909  0.1761 -1.0468  0.0527
  517MOL0     C68119   2.480   8.818   7.948 -0.4022  0.4238 -0.4614
  517MOL0     O68120   2.390   8.882   7.867 -0.1288  0.0945 -0.6902
  517MOL0     C68121   2.338   8.792   7.765  0.0403  0.7330 -0.1224
  517MOL0     C68122   2.255   8.870   7.657  0.9854  0.1580 -0.9639
  517MOL0     C68123   2.127   8.940   7.718  0.4926 -0.1188 -0.2184
  517MOL0     C68124   2.022   8.989   7.622  0.6301  0.2809 -0.1858
  517MOL0     C68125   1.909   9.073   7.683  0.2044 -0.2557  0.7309
  517MOL0     C68126   1.944   9.224   7.671  0.0429  0.4506  0.2292
  517MOL0     C68127   1.884   9.281   7.536 -0.1647 -0.5027 -0.2210
  517MOL0     C68128   1.898   9.424   7.511 -0.5168 -0.6429  0.0643
  517MOL0     N68129   1.816   9.464   7.400 -0.2868  0.1571  0.3658
  517MOL0     C68130   1.851   9.446   7.266  0.3503 -0.1038 -0.2851
  517MOL0     C68131   1.742   9.496   7.205 -0.6014 -0.3620 -0.5013
  517MOL0     C68132   1.713   9.502   7.054  0.4042  0.3304  0.4948
  517MOL0     C68133   1.580   9.554   7.025 -0.0457  0.0165 -0.8089
  517MOL0     C68134   1.567   9.571   6.871 -0.9116 -0.0014  0.1257
  517MOL0     C68135   1.570   9.437   6.784  0.2246 -0.3473 -1.0196
  517MOL0     O68136   1.471   9.436   6.683 -0.0578 -1.0533  0.2127
  517MOL0     C68137   1.478   9.540   6.593 -0.2529  0.6617  0.5055
  517MOL0     C68138   1.592   9.612   6.553 -1.0144  0.1531  0.0466
  517MOL0     C68139   1.599   9.693   6.447  0.2968  0.7457  1.4079
  517MOL0     C68140   1.488   9.717   6.375  0.0177  0.0956  0.0320
  517MOL0     C68141   1.489   9.824   6.274  0.1575 -0.2224 -0.7355
  517MOL0     O68142   1.372   9.868   6.235  0.7812 -0.1880 -0.3355
  517MOL0     C68143   1.366   9.940   6.122  0.1922  0.0870 -0.3070
  517MOL0     C68144   1.380  10.082   6.115  0.3188 -0.9826  0.6624
  517MOL0     C68145   1.387  10.149   5.995 -0.4556 -0.7496 -0.5082
  517MOL0     C68146   1.373  10.091   5.877 -0.2828  0.3362 -0.0281
  517MOL0     O68147   1.383  10.174   5.756 -0.2519  0.1824 -0.0050
  517MOL0     C68148   1.423  10.315   5.769 -0.5357  0.9065  0.5726
  517MOL0     C68149   1.456  10.368   5.630 -1.2475 -1.0127  0.7400
  517MOL0     C68150   1.335  10.430   5.554 -0.2523 -0.5895 -0.8874
  517MOL0     C68151   1.379  10.498   5.416 -0.3745  0.0673  0.1218
  517MOL0     C68152   1.267  10.569   5.328 -0.5779  0.6716 -0.0398
  517MOL0     C68153   1.120  10.531   5.349  0.5230 -0.0949 -0.4049
  517MOL0     C68154   1.023  10.625   5.279  0.0261 -0.2430  0.2253
  517MOL0     C68155   0.873  10.576   5.312 -0.1673  0.4790  0.0372
  517MOL0    Cl68156   0.764  10.700   5.233  0.4626  0.3006  0.4474
  517MOL0     C68157   1.348   9.952   5.883 -0.5636 -0.9469  0.0486
  517MOL0     C68158   1.330   9.882   6.006 -0.6338 -0.3109 -0.1396
  517MOL0     O68159   1.598   9.852   6.228  0.5889  0.9976  0.6627
  517MOL0     C68160   1.375   9.645   6.412  0.2192  0.2992  0.2166
  517MOL0     C68161   1.372   9.555   6.510  0.5263  1.0078 -0.8413
  517MOL0     N68162   1.665   9.562   7.296 -0.3797  0.4098  0.2420
  517MOL0     N68163   1.704   9.536   7.417 -0.0459  0.3217  0.8627
  517MOL0     C68164   2.435   8.765   8.069 -0.2527  0.2488  0.4242
  517MOL0     C68165   2.516   8.695   8.162 -0.5045 -0.0266  0.3285
  517MOL0     C68166   2.873   8.535   8.375  0.2001 -0.4161  0.9443
  517MOL0     C68167   2.963   8.478   8.284  0.8077  0.1930 -0.3935
  517MOL0     C68168   3.091   8.440   8.333 -0.1573  0.6780  0.0389
  517MOL0     C68169   3.108   8.437   8.474  0.3261 -1.1081 -0.5629
  517MOL0     O68170   3.211   8.395   8.555 -0.6916 -0.3639  0.5074
  517MOL0     C68171   3.290   8.288   8.501 -0.3624 -0.9996  0.2454
  517MOL0     C68172   3.223   8.152   8.489 -0.1777 -0.0926  0.0352
  517MOL0     C68173   3.112   8.123   8.601 -0.7303  0.2207  0.7826
  517MOL0     C68174   3.179   8.030   8.708  0.3942 -0.8527 -0.8075
  517MOL0     C68175   3.098   8.018   8.825 -0.4414 -0.3394  0.2150
  517MOL0     C68176   3.026   8.007   8.916  0.9455 -0.6206  0.1483
  517MOL0     C68177   3.012   8.481   8.566 -0.6189 -0.1915  0.5879
  517MOL0     C68178   2.897   8.547   8.513  0.3681 -0.4133 -0.0063
  517MOL0     H68179   2.792   8.674   7.955  0.6693 -2.6022  3.5393
  517MOL0     H68180   2.648   8.805   7.807 -0.8965  0.4687 -0.0518
  517MOL0     H68181   2.270   8.715   7.800 -0.5146  0.3721 -1.8720
  517MOL0     H68182   2.420   8.737   7.718 -1.3633 -2.1313  0.6178
  517MOL0     H68183   2.217   8.798   7.585 -0.5241  1.4680 -1.5063
  517MOL0     H68184   2.316   8.948   7.611 -3.3465  2.8630 -2.6530
  517MOL0     H68185   2.169   9.027   7.771  0.6328 -0.2442 -0.1237
  517MOL0     H68186   2.087   8.869   7.790  1.9667  0.4420  1.2361
  517MOL0     H68187   2.069   9.045   7.541  0.0600  1.8045  0.5144
  517MOL0     H68188   1.981   8.899   7.574 -3.2727  0.7124  1.9333
  517MOL0     H68189   1.895   9.038   7.786 -2.3145  1.7779  1.1976
  517MOL0     H68190   1.818   9.043   7.630  0.9013 -1.1070 -0.0196
  517MOL0     H68191   2.052   9.231   7.681  0.1598 -1.4046  0.5282
  517MOL0     H68192   1.894   9.280   7.751 -0.2743  4.4678 -2.4862
  517MOL0     H68193   1.934   9.224   7.458  1.5188 -2.0295  1.8770
  517MOL0     H68194   1.776   9.265   7.543 -0.3869  1.4378  2.5747
  517MOL0     H68195   2.004   9.445   7.490  0.0987 -3.7774 -0.5685
  517MOL0     H68196   1.861   9.485   7.594 -0.0874  0.6970 -0.7015
  517MOL0     H68197   1.938   9.396   7.225 -0.8682 -1.3744 -1.4123
  517MOL0     H68198   1.724   9.405   7.004 -1.8680  0.3642 -0.1575
  517MOL0     H68199   1.784   9.569   7.004  0.2363  0.7539  0.8173
  517MOL0     H68200   1.560   9.653   7.066 -0.2541 -0.0794 -0.6757
  517MOL0     H68201   1.513   9.479   7.068  0.7995  1.0810  2.6580
  517MOL0     H68202   1.464   9.606   6.859 -0.3038  1.4236 -1.2757
  517MOL0     H68203   1.641   9.641   6.831 -1.6022 -0.0232 -1.2294
  517MOL0     H68204   1.543   9.354   6.850 -2.3128  0.5127 -0.8467
  517MOL0     H68205   1.666   9.414   6.738 -0.3272 -0.6649 -2.0491
  517MOL0     H68206   1.686   9.593   6.604 -2.1046 -0.0281  2.0503
  517MOL0     H68207   1.690   9.749   6.428  0.5512 -0.1500 -0.2106
  517MOL0     H68208   1.386  10.132   6.212 -2.3123 -4.0602  2.5962
  517MOL0     H68209   1.388  10.257   5.995 -4.3272 -0.5489 -0.3307
  517MOL0     H68210   1.506  10.348   5.833 -1.6035  2.0287  1.4425
  517MOL0     H68211   1.338  10.376   5.803 -0.8548  0.7177  0.1177
  517MOL0     H68212   1.498  10.281   5.579 -0.1477 -0.3877  0.5598
  517MOL0     H68213   1.528  10.450   5.629 -0.6475 -1.4878 -1.3558
  517MOL0     H68214   1.314  10.522   5.609 -1.8915 -2.0015  1.0288
  517MOL0     H68215   1.250  10.363   5.538 -1.7554  1.5357 -2.4896
  517MOL0     H68216   1.447  10.577   5.450 -1.2110  0.1134  1.7936
  517MOL0     H68217   1.431  10.423   5.357 -2.2895  0.5431 -2.3218
  517MOL0     H68218   1.298  10.537   5.228 -1.2933  1.3431 -0.4784
  517MOL0     H68219   1.286  10.677   5.332 -2.4583  1.0097  2.9600
  517MOL0     H68220   1.090  10.533   5.454  0.6422 -0.0981 -0.3714
  517MOL0     H68221   1.107  10.430   5.307 -1.3659  0.3360 -0.9821
  517MOL0     H68222   1.032  10.728   5.315  1.5572  0.2254 -1.3988
  517MOL0     H68223   1.046  10.631   5.173  2.3095  2.7198  0.7625
  517MOL0     H68224   0.863  10.581   5.420 -0.8374  0.7826 -0.0351
  517MOL0     H68225   0.851  10.473   5.285  0.8715  1.2858 -4.9158
  517MOL0     H68226   1.334   9.901   5.788 -0.5336 -1.5431  0.3663
  517MOL0     H68227   1.335   9.774   6.018  0.8933 -0.7437 -3.4426
  517MOL0     H68228   1.290   9.659   6.347 -1.3384  2.4204  2.5359
  517MOL0     H68229   1.274   9.513   6.533  1.2537 -1.5665 -2.0241
  517MOL0     H68230   2.332   8.781   8.101 -0.0171  0.1848  1.2418
  517MOL0     H68231   2.479   8.658   8.258 -1.0290  2.1939  1.0392
  517MOL0     H68232   2.955   8.469   8.176  1.3410 -1.1758 -0.3381
  517MOL0     H68233   3.172   8.411   8.266  0.1806  1.6741  0.0083
  517MOL0     H68234   3.374   8.272   8.570 -0.1340  0.6282  0.3827
  517MOL0     H68235   3.335   8.323   8.408 -0.9401  0.8421  0.6213
  517MOL0     H68236   3.181   8.146   8.388 -0.6591 -3.5994  0.3317
  517MOL0     H68237   3.303   8.078   8.496 -0.1226  0.0481  0.9855
  517MOL0     H68238   3.039   8.067   8.541 -0.7531  1.4647 -0.4276
  517MOL0     H68239   3.077   8.211   8.654  0.8002  1.2772  0.1195
  517MOL0     H68240   3.197   7.929   8.672  0.4713 -2.0942  2.3985
  517MOL0     H68241   3.281   8.062   8.732 -0.0790  0.6366 -0.6239
  517MOL0     H68242   2.954   7.988   8.992 -0.5908  0.9485 -0.8510
  517MOL0     H68243   3.033   8.479   8.672 -0.0819 -0.9908  0.4745
  517MOL0     H68244   2.838   8.596   8.589  0.9516 -2.8005  2.1203
  518MOL0     O68245   1.734   3.030   8.639  0.5709 -0.1474  0.6821
  518MOL0     C68246   1.764   2.964   8.540 -0.2718  0.5470 -0.6348
  518MOL0     O68247   1.895   2.950   8.496  0.8226  0.6329  0.1187
  518MOL0     C68248   1.988   3.025   8.560  0.2194 -0.4817  0.2688
  518MOL0     C68249   1.998   3.164   8.548  0.5966 -1.1726  0.3313
  518MOL0     C68250   2.110   3.235   8.590  0.7848  0.6136 -0.0250
  518MOL0     C68251   2.210   3.158   8.650  0.0959 -0.0450 -0.6734
  518MOL0     O68252   2.326   3.229   8.678 -0.1199  0.6581  0.2957
  518MOL0     C68253   2.363   3.213   8.819 -0.1737 -1.1115 -0.3838
  518MOL0     C68254   2.469   3.318   8.860 -0.2128 -0.9810  0.0582
  518MOL0     C68255   2.591   3.305   8.764 -0.1517  0.4304 -0.4746
  518MOL0     C68256   2.705   3.399   8.804 -0.7931 -0.1030 -0.8075
  518MOL0     C68257   2.824   3.380   8.701 -0.0079 -0.5672 -0.2639
  518MOL0     C68258   2.779   3.421   8.560 -0.9593  0.5293 -1.1931
  518MOL0     C68259   2.911   3.434   8.480  0.9501  1.0174 -0.0825
  518MOL0     C68260   2.970   3.293   8.445  0.4025 -1.1589  0.3903
  518MOL0     N68261   2.880   3.197   8.384 -0.2456 -1.7162 -0.4308
  518MOL0     C68262   2.800   3.214   8.272 -0.6550 -0.4973  0.8221
  518MOL0     C68263   2.772   3.087   8.226  1.5477 -0.2269  0.5912
  518MOL0     C68264   2.688   3.055   8.097 -1.5030 -0.7047 -0.2539
  518MOL0     C68265   2.728   2.939   8.008 -0.2579  0.1624  0.2038
  518MOL0     C68266   2.651   2.814   8.046  0.2596 -0.1361 -0.4960
  518MOL0     C68267   2.727   2.695   7.984 -0.6578  0.2187  0.9182
  518MOL0     O68268   2.750   2.704   7.845 -0.5830 -0.0215  0.9020
  518MOL0     C68269   2.648   2.689   7.756  0.4363 -0.4701  0.3173
  518MOL0     C68270   2.593   2.802   7.688 -1.0092  0.0925 -0.6625
  518MOL0     C68271   2.488   2.791   7.600 -0.0363  0.6072 -1.7135
  518MOL0     C68272   2.443   2.664   7.572  0.2729 -0.1801  0.3460
  518MOL0     C68273   2.356   2.647   7.453  0.8124  0.3027 -0.7590
  518MOL0     O68274   2.293   2.524   7.444 -0.4059 -0.0832 -0.2662
  518MOL0     C68275   2.225   2.492   7.332 -0.0664  0.7614  0.3935
  518MOL0     C68276   2.120   2.571   7.283  0.8166 -0.0454 -0.9939
  518MOL0     C68277   2.054   2.542   7.161  0.0305  0.4481 -0.3754
  518MOL0     C68278   2.098   2.431   7.093  0.2945  0.1770 -0.2757
  518MOL0     O68279   2.045   2.386   6.972  0.4927  0.1892 -0.2086
  518MOL0     C68280   1.928   2.449   6.910  0.4307 -0.9060 -0.4266
  518MOL0     C68281   1.886   2.403   6.767 -0.0873 -0.6175 -1.1210
  518MOL0     C68282   1.981   2.460   6.662 -0.3243 -0.3057 -0.5781
  518MOL0     C68283   1.925   2.427   6.519  0.3037 -0.2227  0.1674
  518MOL0     C68284   2.030   2.427   6.400 -0.4506 -0.2025 -0.4651
  518MOL0     C68285   1.961   2.461   6.263 -0.6393 -0.2457 -0.2018
  518MOL0     C68286   2.068   2.452   6.150  0.8999 -0.0124  0.9326
  518MOL0     C68287   2.022   2.486   6.006  0.1420  0.3452  0.0981
  518MOL0    Cl68288   1.850   2.465   5.958  0.1775  0.1262  0.1837
  518MOL0     C68289   2.204   2.352   7.143 -0.0120  0.7028  1.1866
  518MOL0     C68290   2.265   2.384   7.267 -0.9878  0.4470  1.2143
  518MOL0     O68291   2.333   2.737   7.374 -0.1585  0.4510  0.3354
  518MOL0     C68292   2.510   2.551   7.628  1.3461  0.3741 -0.7225
  518MOL0     C68293   2.605   2.563   7.722 -0.4572  0.1880 -1.0057
  518MOL0     N68294   2.831   2.995   8.306 -0.9150  0.0403  0.3459
  518MOL0     N68295   2.887   3.060   8.403  0.1719  0.2245  0.7518
  518MOL0     C68296   2.204   3.021   8.661  0.6394 -0.9025 -0.8034
  518MOL0     C68297   2.092   2.950   8.617  0.1292 -1.0392  0.4751
  518MOL0     C68298   1.652   2.878   8.482 -0.1179 -0.7831 -0.1485
  518MOL0     C68299   1.673   2.751   8.432 -0.4370  0.0795 -1.2103
  518MOL0     C68300   1.569   2.670   8.384  0.2208 -0.4064 -0.0440
  518MOL0     C68301   1.436   2.724   8.370 -0.4491  0.5473  1.0703
  518MOL0     O68302   1.331   2.660   8.317  0.3290  0.5140  0.5966
  518MOL0     C68303   1.328   2.520   8.300 -0.2160  0.4175  0.6068
  518MOL0     C68304   1.356   2.474   8.159  0.5738 -1.3743  0.4507
  518MOL0     C68305   1.428   2.352   8.155 -1.5410 -0.3240 -0.5151
  518MOL0     C68306   1.386   2.258   8.033 -0.1447  0.0277 -0.0284
  518MOL0     C68307   1.496   2.184   7.969 -0.5878  0.0132 -0.5463
  518MOL0     C68308   1.574   2.115   7.909 -0.0223  0.2980  0.0084
  518MOL0     C68309   1.410   2.857   8.403 -0.6861 -0.4989 -0.5746
  518MOL0     C68310   1.523   2.930   8.460 -0.1267 -0.1299  0.8190
  518MOL0     H68311   1.913   3.215   8.503  1.0001 -0.8380 -0.0462
  518MOL0     H68312   2.118   3.342   8.570  0.8820  1.0777  2.2025
  518MOL0     H68313   2.394   3.112   8.847  1.3770 -0.2643  1.1572
  518MOL0     H68314   2.276   3.228   8.883 -0.7230  2.3855 -1.7173
  518MOL0     H68315   2.494   3.300   8.965  1.2702  0.4094 -0.0218
  518MOL0     H68316   2.434   3.421   8.851  0.8080 -0.7150 -1.2827
  518MOL0     H68317   2.543   3.326   8.668  1.8370 -2.6738 -2.3357
  518MOL0     H68318   2.634   3.204   8.759 -2.2227 -0.5578  0.5605
  518MOL0     H68319   2.672   3.504   8.805 -2.0482 -0.4622  0.7017
  518MOL0     H68320   2.758   3.382   8.899 -2.5876  3.0109  0.9344
  518MOL0     H68321   2.856   3.276   8.690  0.6280 -0.3189 -0.8747
  518MOL0     H68322   2.904   3.441   8.742 -1.1427  1.5667 -1.0745
  518MOL0     H68323   2.720   3.513   8.562 -0.7515  0.7197  2.1668
  518MOL0     H68324   2.732   3.334   8.513  0.1463 -0.2148 -0.9656
  518MOL0     H68325   2.897   3.484   8.384  1.2895 -0.4772 -0.9447
  518MOL0     H68326   2.991   3.494   8.525  2.7121 -0.5521 -1.0064
  518MOL0     H68327   3.019   3.248   8.532  0.2673 -1.5269  0.2775
  518MOL0     H68328   3.033   3.319   8.360 -0.8677 -1.7277 -0.7728
  518MOL0     H68329   2.756   3.301   8.223  0.3147 -1.0407 -1.1260
  518MOL0     H68330   2.678   3.145   8.037 -0.5018 -1.6482 -1.9119
  518MOL0     H68331   2.587   3.033   8.132 -1.8001 -0.6125 -1.0537
  518MOL0     H68332   2.836   2.926   8.001 -0.2501  0.9549 -2.1748
  518MOL0     H68333   2.701   2.970   7.906 -1.0320  1.8183  0.8815
  518MOL0     H68334   2.661   2.799   8.154  1.5338 -0.5069 -0.6495
  518MOL0     H68335   2.543   2.811   8.028  0.2146 -2.0001 -0.1054
  518MOL0     H68336   2.691   2.595   8.008 -0.2309  0.0114  0.7057
  518MOL0     H68337   2.830   2.697   8.021 -0.8423  1.4005  1.4012
  518MOL0     H68338   2.648   2.895   7.699 -1.6397  0.3455  0.4581
  518MOL0     H68339   2.462   2.879   7.542 -1.0685 -0.4281 -2.8454
  518MOL0     H68340   2.099   2.655   7.348 -1.1576  0.8771 -2.7282
  518MOL0     H68341   1.974   2.605   7.124 -1.5768 -1.5723 -0.5701
  518MOL0     H68342   1.932   2.558   6.919 -1.3792 -0.8076 -0.4449
  518MOL0     H68343   1.842   2.419   6.972 -1.4723 -1.5122 -3.1898
  518MOL0     H68344   1.794   2.456   6.742 -1.7576 -2.3972  0.9206
  518MOL0     H68345   1.869   2.295   6.763  2.0347 -1.0106 -1.0246
  518MOL0     H68346   2.080   2.414   6.666  1.3437  2.9293 -1.3133
  518MOL0     H68347   1.981   2.566   6.687  2.6871 -0.7968  2.1325
  518MOL0     H68348   1.892   2.324   6.530  2.4085 -1.3108 -2.5213
  518MOL0     H68349   1.847   2.494   6.481  0.8651  0.2133 -0.2376
  518MOL0     H68350   2.079   2.330   6.386 -0.7061 -0.5029  0.6556
  518MOL0     H68351   2.105   2.503   6.428 -0.7559 -0.1984  0.3707
  518MOL0     H68352   1.926   2.564   6.266  2.1730  0.7559  0.1060
  518MOL0     H68353   1.882   2.395   6.225 -2.5252  1.1911  1.0325
  518MOL0     H68354   2.142   2.530   6.171  2.1744 -1.2664  1.2348
  518MOL0     H68355   2.114   2.353   6.151  1.8411  0.4042  0.5530
  518MOL0     H68356   2.096   2.433   5.946  1.0813 -2.1986  3.2937
  518MOL0     H68357   2.032   2.595   6.003 -2.5476  0.7448 -4.2295
  518MOL0     H68358   2.247   2.269   7.087 -0.9925  2.2408 -2.0805
  518MOL0     H68359   2.339   2.321   7.316  0.6511  2.1483  1.0206
  518MOL0     H68360   2.483   2.446   7.622 -0.1332  0.6911  0.0160
  518MOL0     H68361   2.661   2.488   7.777  0.5944  0.7606 -1.2545
  518MOL0     H68362   2.270   2.957   8.718 -2.6344 -2.3091  1.7333
  518MOL0     H68363   2.092   2.842   8.607 -0.4724 -1.1159  1.2086
  518MOL0     H68364   1.771   2.709   8.452 -0.6756  0.8166  2.0815
  518MOL0     H68365   1.593   2.577   8.332  2.3518  1.5326 -2.8421
  518MOL0     H68366   1.225   2.490   8.318 -0.4050  1.3963  1.2709
  518MOL0     H68367   1.402   2.477   8.369  0.7796  2.2201  0.7312
  518MOL0     H68368   1.270   2.483   8.093  1.6477  2.0316 -0.7253
  518MOL0     H68369   1.424   2.549   8.116 -1.4840  1.7578  2.2423
  518MOL0     H68370   1.418   2.297   8.249 -0.7670  0.6811  0.1708
  518MOL0     H68371   1.531   2.382   8.138 -2.6452  3.1010 -2.0450
  518MOL0     H68372   1.317   2.186   8.079  0.8052 -0.8139  0.1498
  518MOL0     H68373   1.323   2.301   7.956 -0.5257 -1.2641 -0.4659
  518MOL0     H68374   1.643   2.052   7.858  0.1485  0.2246  0.3310
  518MOL0     H68375   1.325   2.915   8.370  1.4248  1.8145 -2.3607
  518MOL0     H68376   1.506   3.035   8.485 -0.3278  0.4535 -1.4551
  519MOL0     O68377   8.059  10.569  10.738  0.3456 -0.2331 -0.4885
  519MOL0     C68378   8.129  10.609  10.842  1.0251  0.2907 -0.2171
  519MOL0     O68379   8.262  10.637  10.851 -0.5338 -0.3998 -0.4478
  519MOL0     C68380   8.314  10.646  10.726  0.2518 -0.1742  0.1870
  519MOL0     C68381   8.327  10.544  10.635 -0.0089  0.6251 -0.2961
  519MOL0     C68382   8.383  10.557  10.507 -0.3682  0.2519  0.1988
  519MOL0     C68383   8.454  10.685  10.484  0.9727  0.0804  1.0735
  519MOL0     O68384   8.511  10.709  10.358 -0.5269  0.1396 -0.1565
  519MOL0     C68385   8.515  10.848  10.319 -0.0795  0.0429  0.2281
  519MOL0     C68386   8.549  10.843  10.171  0.7829  0.3320  0.5442
  519MOL0     C68387   8.424  10.817  10.085 -0.7564  0.5501 -0.1194
  519MOL0     C68388   8.434  10.849   9.938  0.5378  0.0668  0.0194
  519MOL0     C68389   8.481  10.996   9.900 -0.4541 -0.9018 -0.1433
  519MOL0     C68390   8.454  11.028   9.747 -0.5514 -0.5122  0.2182
  519MOL0     C68391   8.545  11.142   9.686  0.1339 -0.3552  0.5775
  519MOL0     C68392   8.489  11.279   9.734  0.7100  0.8157  0.6902
  519MOL0     N68393   8.352  11.315   9.675 -0.4887  0.3839  0.8247
  519MOL0     C68394   8.285  11.264   9.569  0.0245 -0.4582  0.2700
  519MOL0     C68395   8.169  11.329   9.572  0.2343  0.1976  1.1492
  519MOL0     C68396   8.071  11.300   9.462 -1.3764 -0.4092 -0.5476
  519MOL0     C68397   8.076  11.402   9.344  0.4318  0.0706 -0.0221
  519MOL0     C68398   8.018  11.534   9.400  0.1293 -0.5204  0.0083
  519MOL0     C68399   8.027  11.647   9.298  0.5775  0.2522  0.3480
  519MOL0     O68400   8.169  11.684   9.284  0.1992 -0.0830 -1.4703
  519MOL0     C68401   8.198  11.772   9.194  0.9580 -0.6944 -0.6732
  519MOL0     C68402   8.333  11.795   9.179  0.4845  0.0034 -0.7232
  519MOL0     C68403   8.390  11.905   9.103  0.3291  0.0345 -1.0431
  519MOL0     C68404   8.298  11.979   9.033 -0.1177 -0.8266  0.1363
  519MOL0     C68405   8.347  12.076   8.937  0.1382 -0.3306 -0.1304
  519MOL0     O68406   8.475  12.119   8.958  0.9621  0.1564  0.0393
  519MOL0     C68407   8.517  12.227   8.881  0.6940  0.7012  1.1163
  519MOL0     C68408   8.542  12.215   8.738  0.4316  0.5142 -0.3080
  519MOL0     C68409   8.590  12.323   8.660 -0.3227  0.4866  0.3399
  519MOL0     C68410   8.623  12.436   8.723  0.5078 -1.2500  0.3308
  519MOL0     O68411   8.677  12.546   8.661  0.0973 -0.2922  0.0489
  519MOL0     C68412   8.685  12.546   8.520 -1.2465 -0.4686  1.5052
  519MOL0     C68413   8.771  12.663   8.472  0.0888  0.1111 -0.3235
  519MOL0     C68414   8.793  12.668   8.321 -0.1679 -0.3184 -0.0366
  519MOL0     C68415   8.896  12.564   8.264  0.1728  0.1517  0.0221
  519MOL0     C68416   8.967  12.608   8.139  1.3366 -0.7322  0.4840
  519MOL0     C68417   9.055  12.498   8.083 -0.1908 -0.9125  0.5025
  519MOL0     C68418   9.124  12.537   7.946 -0.1968 -0.9628  0.0598
  519MOL0     C68419   9.247  12.628   7.960  0.2425  0.5818  0.5344
  519MOL0    Cl68420   9.310  12.673   7.804 -0.4631 -0.0317 -0.4212
  519MOL0     C68421   8.620  12.442   8.865 -0.2247 -0.3689 -0.3186
  519MOL0     C68422   8.564  12.337   8.943  0.9550 -0.6144  0.9825
  519MOL0     O68423   8.272  12.124   8.850 -0.0522  0.9057 -0.5340
  519MOL0     C68424   8.163  11.942   9.032 -0.4673  0.3117 -0.0172
  519MOL0     C68425   8.111  11.833   9.104 -0.2170  0.3294  2.0631
  519MOL0     N68426   8.162  11.417   9.678 -0.3336 -0.6993 -0.7745
  519MOL0     N68427   8.278  11.417   9.736 -0.0587 -0.3429  0.3633
  519MOL0     C68428   8.442  10.788  10.581 -0.5864  0.0232  0.3173
  519MOL0     C68429   8.370  10.766  10.694 -0.1561 -0.0383 -0.6483
  519MOL0     C68430   8.046  10.639  10.965  0.2684  0.6707  0.0065
  519MOL0     C68431   8.118  10.695  11.075 -0.2354 -0.0510 -0.4118
  519MOL0     C68432   8.037  10.712  11.188 -0.0687  0.2029 -0.6129
  519MOL0     C68433   7.902  10.683  11.192 -0.2951 -0.2745 -0.0982
  519MOL0     O68434   7.848  10.681  11.316 -0.0848 -0.2162 -0.1620
  519MOL0     C68435   7.852  10.553  11.374 -1.0022 -0.7824  0.2539
  519MOL0     C68436   7.705  10.512  11.403  0.1690 -0.3534  0.4392
  519MOL0     C68437   7.668  10.374  11.334 -0.1676  0.0711 -0.5935
  519MOL0     C68438   7.694  10.255  11.427  0.3949 -0.3460  0.3893
  519MOL0     C68439   7.697  10.124  11.367 -0.4098 -1.0885 -0.7537
  519MOL0     C68440   7.709  10.015  11.330 -0.6148  0.5351  0.0078
  519MOL0     C68441   7.834  10.631  11.085  0.0244  0.1799 -0.5011
  519MOL0     C68442   7.908  10.611  10.965 -0.3532 -0.2709  0.1035
  519MOL0     H68443   8.285  10.445  10.653 -2.2424  1.7422  1.0462
  519MOL0     H68444   8.379  10.473  10.438 -1.0071  0.2525  0.2308
  519MOL0     H68445   8.582  10.918  10.370 -2.0746  1.3267  1.2055
  519MOL0     H68446   8.418  10.899  10.320  0.9643  2.1895 -0.4203
  519MOL0     H68447   8.621  10.762  10.153 -0.7468 -1.9268  3.6931
  519MOL0     H68448   8.590  10.937  10.134  1.3955  0.1737  0.7992
  519MOL0     H68449   8.342  10.875  10.128  2.2411  3.9301  1.6225
  519MOL0     H68450   8.414  10.710  10.101  5.2373 -0.3893 -0.2654
  519MOL0     H68451   8.513  10.791   9.890  1.6060  2.4071 -1.2557
  519MOL0     H68452   8.340  10.826   9.887  1.2881  0.3316 -1.5607
  519MOL0     H68453   8.590  10.999   9.905 -0.4608 -0.6027 -0.2044
  519MOL0     H68454   8.443  11.076   9.963  1.2486  0.1033 -0.3271
  519MOL0     H68455   8.347  11.030   9.728 -0.3645 -0.7590 -0.9016
  519MOL0     H68456   8.479  10.941   9.686 -4.5455 -1.8034  0.1941
  519MOL0     H68457   8.652  11.137   9.707  0.5573  0.7416 -1.1170
  519MOL0     H68458   8.540  11.127   9.578 -0.9882 -1.3762  0.7478
  519MOL0     H68459   8.552  11.368   9.733 -0.5646  1.7326  0.5717
  519MOL0     H68460   8.481  11.263   9.842  0.0076  0.1788  0.5528
  519MOL0     H68461   8.306  11.190   9.492 -0.1679  0.5778 -0.7927
  519MOL0     H68462   7.973  11.284   9.507 -1.2557  0.5968  0.1128
  519MOL0     H68463   8.102  11.203   9.421 -1.3443 -0.5656 -0.1530
  519MOL0     H68464   8.010  11.387   9.258  0.8526  0.8307 -0.4881
  519MOL0     H68465   8.180  11.420   9.315  1.5994 -2.0050  2.4133
  519MOL0     H68466   7.917  11.516   9.438  0.1586 -3.9338 -1.2215
  519MOL0     H68467   8.085  11.565   9.480 -1.3033  1.3797  0.5583
  519MOL0     H68468   7.975  11.736   9.335  3.5759  2.6151 -0.6678
  519MOL0     H68469   7.977  11.602   9.212 -0.3500 -2.0534  1.9933
  519MOL0     H68470   8.397  11.735   9.242  1.6103  2.0611  0.1709
  519MOL0     H68471   8.495  11.926   9.081 -0.4634  1.9734 -3.3814
  519MOL0     H68472   8.527  12.121   8.687  3.5508 -1.8138  2.5808
  519MOL0     H68473   8.594  12.320   8.551 -1.8033 -3.0849  0.2340
  519MOL0     H68474   8.588  12.555   8.470 -0.6117 -2.5676 -0.2459
  519MOL0     H68475   8.730  12.458   8.474 -0.5654  0.5252  0.1894
  519MOL0     H68476   8.859  12.674   8.536 -0.0811  1.8052 -0.3432
  519MOL0     H68477   8.711  12.752   8.494 -2.1939 -0.8588 -2.2415
  519MOL0     H68478   8.845  12.762   8.298 -0.5251  0.0991  0.8343
  519MOL0     H68479   8.702  12.661   8.261 -1.0028  1.9630  0.8418
  519MOL0     H68480   8.964  12.548   8.347 -1.0381  1.2387  1.2768
  519MOL0     H68481   8.850  12.466   8.248  1.4464 -0.6358  1.0417
  519MOL0     H68482   9.015  12.703   8.166 -3.5115  2.3166 -0.2810
  519MOL0     H68483   8.893  12.636   8.063 -1.7906 -2.6721  2.5780
  519MOL0     H68484   8.990  12.411   8.068 -2.2243  0.8813 -2.1638
  519MOL0     H68485   9.136  12.489   8.156 -0.0204  1.2027  0.6157
  519MOL0     H68486   9.163  12.449   7.895  0.2336 -0.8867  0.2505
  519MOL0     H68487   9.061  12.587   7.872 -0.8071 -0.7458  0.7200
  519MOL0     H68488   9.330  12.571   8.001 -0.6016 -0.2174  1.1708
  519MOL0     H68489   9.232  12.717   8.022 -0.0566  0.7227  0.2668
  519MOL0     H68490   8.669  12.522   8.919  0.5698 -2.1099  1.6677
  519MOL0     H68491   8.585  12.341   9.049 -0.7704  1.4166  1.3135
  519MOL0     H68492   8.093  11.993   8.967  1.0261  1.4087 -0.8286
  519MOL0     H68493   8.007  11.801   9.102  0.1341 -1.7931 -3.8721
  519MOL0     H68494   8.479  10.888  10.558 -0.7470 -0.2692 -1.3774
  519MOL0     H68495   8.363  10.844  10.768 -2.0689 -1.9930  1.4006
  519MOL0     H68496   8.225  10.707  11.086 -0.0531 -2.7398  1.7350
  519MOL0     H68497   8.079  10.722  11.287 -1.3465 -0.4530  0.0261
  519MOL0     H68498   7.906  10.548  11.469  1.1955 -1.3200 -0.9524
  519MOL0     H68499   7.901  10.481  11.308  0.3159  1.7176 -1.6806
  519MOL0     H68500   7.698  10.503  11.512 -0.2408  0.8921  0.5345
  519MOL0     H68501   7.632  10.583  11.363  2.8356  1.6891 -1.1053
  519MOL0     H68502   7.725  10.371  11.241  4.2705  2.4727  1.7232
  519MOL0     H68503   7.565  10.367  11.296 -1.0078  0.4691  1.4771
  519MOL0     H68504   7.790  10.270  11.478  1.4187  0.3101 -1.6304
  519MOL0     H68505   7.619  10.245  11.507  0.5460  0.8619  0.7081
  519MOL0     H68506   7.716   9.923  11.276 -1.2185  2.2876 -3.3312
  519MOL0     H68507   7.738  10.583  11.101  1.6443 -4.1390 -2.1626
  519MOL0     H68508   7.861  10.564  10.880 -2.0106 -0.1766  0.9402
  520MOL0     O68509   0.478   6.295   9.072 -0.5703 -0.4236 -0.3780
  520MOL0     C68510   0.430   6.269   8.963  0.6826 -0.4840 -1.1948
  520MOL0     O68511   0.319   6.338   8.914 -0.0268 -0.2526  0.3104
  520MOL0     C68512   0.243   6.423   8.984  0.2940  0.3539 -0.0712
  520MOL0     C68513   0.101   6.419   8.961 -0.9226  0.4195  0.2709
  520MOL0     C68514   0.017   6.504   9.029 -0.6101  0.1698  0.3894
  520MOL0     C68515   0.065   6.606   9.119  0.4400  0.9229 -0.5163
  520MOL0     O68516  -0.021   6.690   9.192  0.3011 -0.1964  0.8677
  520MOL0     C68517  -0.169   6.682   9.175  0.8036 -0.3567 -0.9526
  520MOL0     C68518  -0.240   6.789   9.275 -0.7960 -0.3207 -0.2482
  520MOL0     C68519  -0.262   6.917   9.198  0.3354 -0.3473 -0.1744
  520MOL0     C68520  -0.318   7.034   9.290 -0.9952 -0.6317 -0.2461
  520MOL0     C68521  -0.439   6.991   9.367  0.4163 -0.6055  1.1630
  520MOL0     C68522  -0.508   7.103   9.440  1.5601 -0.4044 -0.8214
  520MOL0     C68523  -0.628   7.039   9.517  0.0845  0.2592  0.2357
  520MOL0     C68524  -0.737   7.146   9.565  0.0657 -0.1457  0.4033
  520MOL0     N68525  -0.789   7.105   9.700 -0.1430 -0.5920 -0.7118
  520MOL0     C68526  -0.749   7.168   9.818 -0.3375  0.2866  0.4805
  520MOL0     C68527  -0.809   7.091   9.910  0.1570  0.5762  0.3291
  520MOL0     C68528  -0.789   7.100  10.061  0.3632 -0.4809 -0.3711
  520MOL0     C68529  -0.830   6.961  10.110  0.0500 -0.3917 -1.0330
  520MOL0     C68530  -0.814   6.958  10.265  0.1813  1.3339 -0.3942
  520MOL0     C68531  -0.917   7.019  10.349  0.2424  0.9776  0.1122
  520MOL0     O68532  -0.893   6.980  10.481  0.2202 -0.3025 -0.0595
  520MOL0     C68533  -0.892   7.070  10.582  0.0725 -1.5144  0.3023
  520MOL0     C68534  -0.940   7.201  10.566 -0.2362 -0.2679 -0.1100
  520MOL0     C68535  -0.930   7.286  10.682 -0.0833  0.5992  0.4528
  520MOL0     C68536  -0.884   7.243  10.806  0.4560 -0.5616 -0.3857
  520MOL0     C68537  -0.868   7.329  10.928  0.0603  0.4083  0.6398
  520MOL0     O68538  -0.784   7.295  11.031  0.2394  1.4305  0.0178
  520MOL0     C68539  -0.750   7.370  11.142 -0.0030 -0.4405 -0.8393
  520MOL0     C68540  -0.670   7.297  11.232 -0.4485  0.0498  0.6951
  520MOL0     C68541  -0.624   7.350  11.350 -0.0481 -0.3283  0.7534
  520MOL0     C68542  -0.653   7.484  11.381  0.5081  0.0725  0.3776
  520MOL0     O68543  -0.613   7.542  11.498  0.0966 -0.0794  0.0682
  520MOL0     C68544  -0.631   7.677  11.522 -0.1763 -0.4863 -0.9882
  520MOL0     C68545  -0.541   7.782  11.442 -0.2722  0.5977  0.1353
  520MOL0     C68546  -0.564   7.923  11.492 -0.2031  0.0373  0.6285
  520MOL0     C68547  -0.463   8.030  11.441  0.0227  0.1974 -1.3562
  520MOL0     C68548  -0.332   8.023  11.524  0.4740  0.3071  0.7905
  520MOL0     C68549  -0.293   8.143  11.615 -0.2046  0.0594  0.1008
  520MOL0     C68550  -0.144   8.138  11.635  0.0031 -1.1765  0.5087
  520MOL0     C68551  -0.101   8.230  11.746 -0.3602 -0.4387  1.9304
  520MOL0    Cl68552  -0.138   8.162  11.906 -0.1232  0.2081 -0.1658
  520MOL0     C68553  -0.739   7.556  11.301 -0.4232  0.2294  0.7800
  520MOL0     C68554  -0.782   7.503  11.183  1.0154  0.5299 -0.4881
  520MOL0     O68555  -0.927   7.438  10.920 -1.1338  0.0198 -0.0573
  520MOL0     C68556  -0.846   7.105  10.813 -0.5596  0.3454 -0.1306
  520MOL0     C68557  -0.842   7.020  10.706  0.5709  0.5289  0.2664
  520MOL0     N68558  -0.888   6.992   9.846  0.6672  0.5327 -0.4062
  520MOL0     N68559  -0.875   7.006   9.726  0.0963 -0.4853  0.1961
  520MOL0     C68560   0.201   6.614   9.122  0.3629 -0.1666 -0.9682
  520MOL0     C68561   0.281   6.524   9.056  0.5112  0.4178 -0.1824
  520MOL0     C68562   0.502   6.178   8.871 -0.3902  0.1229 -0.4577
  520MOL0     C68563   0.612   6.103   8.911  0.4819  0.9200 -0.3687
  520MOL0     C68564   0.686   6.025   8.821  0.2410 -0.1700  0.3816
  520MOL0     C68565   0.658   6.020   8.681 -0.2256  0.1793 -0.4751
  520MOL0     O68566   0.750   5.961   8.593  0.2118  0.6453  0.1167
  520MOL0     C68567   0.714   5.960   8.457  0.5560 -0.7180 -0.3007
  520MOL0     C68568   0.806   5.855   8.393  0.4417 -0.3894 -0.2878
  520MOL0     C68569   0.782   5.711   8.463 -0.3539 -0.1348  0.2948
  520MOL0     C68570   0.859   5.604   8.400 -0.3643  0.2672 -0.5723
  520MOL0     C68571   0.991   5.592   8.464 -0.2264 -0.5708 -0.4738
  520MOL0     C68572   1.104   5.595   8.510 -1.1386  0.6456 -0.6241
  520MOL0     C68573   0.539   6.087   8.643  0.8895  0.4467  0.5993
  520MOL0     C68574   0.460   6.163   8.734 -1.2686  0.6393  1.1287
  520MOL0     H68575   0.066   6.334   8.901  0.1007  1.1039 -1.3743
  520MOL0     H68576  -0.084   6.463   9.019 -0.0428 -0.8682 -1.8260
  520MOL0     H68577  -0.200   6.578   9.189 -0.1378 -0.3748 -2.8250
  520MOL0     H68578  -0.199   6.705   9.073  1.7185  1.2524 -0.8836
  520MOL0     H68579  -0.177   6.819   9.359 -1.7799  1.2514 -0.0354
  520MOL0     H68580  -0.331   6.760   9.328 -0.8405  3.4967  2.1851
  520MOL0     H68581  -0.328   6.910   9.111  0.2573  2.1901 -0.3810
  520MOL0     H68582  -0.163   6.948   9.164 -0.4410  2.7919  0.1798
  520MOL0     H68583  -0.250   7.073   9.366 -2.1171 -0.5633  0.7489
  520MOL0     H68584  -0.344   7.119   9.226  2.5374  0.9454  0.1384
  520MOL0     H68585  -0.415   6.925   9.451 -1.2176  1.6024  3.5523
  520MOL0     H68586  -0.515   6.960   9.296 -0.0160  5.4006 -1.6159
  520MOL0     H68587  -0.552   7.179   9.375 -3.6667  1.2671  3.8739
  520MOL0     H68588  -0.445   7.137   9.523 -0.7442 -1.4977  1.5231
  520MOL0     H68589  -0.663   6.956   9.456 -3.1953  0.5877  1.4887
  520MOL0     H68590  -0.590   7.001   9.612  0.4167  3.6474  1.5919
  520MOL0     H68591  -0.817   7.152   9.490  1.5316 -0.9518 -1.3050
  520MOL0     H68592  -0.695   7.246   9.574  0.7974 -0.3329 -0.7433
  520MOL0     H68593  -0.663   7.232   9.837  1.5610 -2.8933  4.1258
  520MOL0     H68594  -0.850   7.182  10.102  0.3377  0.7283 -2.6480
  520MOL0     H68595  -0.684   7.125  10.080  0.0310  0.2042  0.6550
  520MOL0     H68596  -0.771   6.879  10.066 -3.5507 -3.5605 -0.5237
  520MOL0     H68597  -0.933   6.928  10.089  1.1809 -2.7989 -3.4862
  520MOL0     H68598  -0.809   6.851  10.287 -1.6405  1.6446  1.9200
  520MOL0     H68599  -0.716   6.990  10.302 -0.5626  1.1236  1.9339
  520MOL0     H68600  -1.012   6.984  10.307  0.0755  3.6543 -2.0458
  520MOL0     H68601  -0.928   7.127  10.332  1.7224  0.9591 -1.2305
  520MOL0     H68602  -0.990   7.253  10.485 -0.2853  3.4382  2.0457
  520MOL0     H68603  -0.980   7.382  10.685 -0.1591  0.5335  2.7230
  520MOL0     H68604  -0.632   7.197  11.210  0.7172 -0.2743  3.6598
  520MOL0     H68605  -0.558   7.297  11.419  1.7987  0.6824 -0.1423
  520MOL0     H68606  -0.589   7.681  11.623  0.0193  2.0425 -1.1012
  520MOL0     H68607  -0.734   7.711  11.512 -0.4839 -0.7980  0.8537
  520MOL0     H68608  -0.565   7.776  11.335 -2.1743 -2.1428  0.6080
  520MOL0     H68609  -0.440   7.745  11.461 -0.4584 -1.1446 -1.9021
  520MOL0     H68610  -0.554   7.915  11.601 -0.1716  2.7350  0.8733
  520MOL0     H68611  -0.669   7.948  11.475 -0.9533 -0.9766  3.2374
  520MOL0     H68612  -0.428   8.017  11.338  1.7529  0.3828 -0.8188
  520MOL0     H68613  -0.500   8.131  11.458 -0.5973 -0.3231  0.6881
  520MOL0     H68614  -0.252   8.005  11.452 -1.5249 -2.0400 -1.0309
  520MOL0     H68615  -0.333   7.932  11.584 -2.5680  0.0487  0.5189
  520MOL0     H68616  -0.337   8.134  11.715  2.0939 -0.6396  1.1344
  520MOL0     H68617  -0.321   8.239  11.573 -0.7211  0.5278  1.4630
  520MOL0     H68618  -0.101   8.039  11.652  0.0926 -0.9989  1.3618
  520MOL0     H68619  -0.091   8.184  11.551 -2.4205  2.9233  0.9785
  520MOL0     H68620  -0.152   8.327  11.742  0.8428  0.3141  3.5219
  520MOL0     H68621   0.004   8.254  11.733 -1.1419  1.6858 -2.0595
  520MOL0     H68622  -0.772   7.658  11.320 -1.2116  0.2121 -0.4386
  520MOL0     H68623  -0.837   7.564  11.112  0.0071 -4.7878 -4.9236
  520MOL0     H68624  -0.828   7.050  10.905 -0.0731 -0.7108 -0.8409
  520MOL0     H68625  -0.825   6.915  10.725 -4.7244 -0.5112  0.8779
  520MOL0     H68626   0.233   6.687   9.195 -1.6828 -2.5579  2.6399
  520MOL0     H68627   0.388   6.524   9.075  0.2732 -1.0845  1.4063
  520MOL0     H68628   0.641   6.097   9.016 -0.7641 -0.5396 -0.0695
  520MOL0     H68629   0.776   5.975   8.854  0.5330  0.4662  0.5603
  520MOL0     H68630   0.743   6.051   8.402 -2.7864 -0.0077 -1.0994
  520MOL0     H68631   0.610   5.933   8.437  1.1215 -1.5603 -2.5340
  520MOL0     H68632   0.797   5.842   8.285  5.1644 -3.0588 -0.6643
  520MOL0     H68633   0.912   5.878   8.407 -0.0217  3.2504 -1.7268
  520MOL0     H68634   0.677   5.679   8.462 -0.9568  1.5207 -2.5608
  520MOL0     H68635   0.803   5.704   8.570 -0.3699  1.7762  0.4660
  520MOL0     H68636   0.803   5.517   8.436 -0.5047 -0.1492 -1.7188
  520MOL0     H68637   0.858   5.589   8.291 -0.3130  0.5774 -0.6149
  520MOL0     H68638   1.198   5.604   8.559 -1.4872 -1.9566  0.6491
  520MOL0     H68639   0.519   6.079   8.537  0.6944 -4.1500  0.7582
  520MOL0     H68640   0.380   6.221   8.690  0.5002 -0.2126 -3.8603
  521MOL0     O68641   0.167   3.917   0.781  0.6696  0.1704  0.0387
  521MOL0     C68642   0.206   4.030   0.800 -0.0827 -0.3579 -0.5207
  521MOL0     O68643   0.132   4.143   0.784 -0.0083 -0.6542 -0.8637
  521MOL0     C68644  -0.001   4.117   0.750 -0.5661  0.6090  0.3424
  521MOL0     C68645  -0.086   4.080   0.856 -0.5009 -0.1647  0.0230
  521MOL0     C68646  -0.217   4.031   0.828 -0.1760  0.3764  0.0662
  521MOL0     C68647  -0.269   4.038   0.700  0.0729  0.5388 -0.7909
  521MOL0     O68648  -0.406   4.010   0.683 -0.3517  0.1864  0.3246
  521MOL0     C68649  -0.419   3.894   0.599 -0.4167 -0.9795 -0.8674
  521MOL0     C68650  -0.558   3.832   0.621  0.1345  0.3469 -0.1475
  521MOL0     C68651  -0.568   3.701   0.555 -0.0747 -0.3070 -0.0502
  521MOL0     C68652  -0.700   3.636   0.593  0.6126 -0.0082 -0.5828
  521MOL0     C68653  -0.695   3.575   0.732  0.0861 -0.3228 -0.5907
  521MOL0     C68654  -0.804   3.488   0.770 -0.5642  0.0073 -0.4483
  521MOL0     C68655  -0.943   3.527   0.726  0.1378  0.0697 -0.8152
  521MOL0     C68656  -1.049   3.443   0.785  0.2404  0.3713 -0.6614
  521MOL0     N68657  -1.101   3.485   0.920 -0.7865  0.7890  0.7477
  521MOL0     C68658  -1.042   3.447   1.037  0.0825  0.1881 -2.2766
  521MOL0     C68659  -1.123   3.514   1.132 -1.0721 -0.2968  0.2676
  521MOL0     C68660  -1.124   3.490   1.283 -0.1884 -1.3380  0.5483
  521MOL0     C68661  -1.128   3.345   1.329 -0.6106 -0.5019  0.6148
  521MOL0     C68662  -0.990   3.295   1.366 -0.7059 -0.0876 -0.4403
  521MOL0     C68663  -1.000   3.159   1.422 -0.2665 -1.4205  0.1861
  521MOL0     O68664  -0.876   3.092   1.408 -0.6325  0.1078  0.3360
  521MOL0     C68665  -0.764   3.111   1.497 -0.6213  0.5557 -0.4560
  521MOL0     C68666  -0.760   3.198   1.610  0.0562 -0.6310  0.2420
  521MOL0     C68667  -0.656   3.190   1.699  0.9717  0.0592 -0.5047
  521MOL0     C68668  -0.541   3.109   1.671  0.3442 -0.7180  0.0051
  521MOL0     C68669  -0.425   3.100   1.751 -1.0772  0.0641 -0.6197
  521MOL0     O68670  -0.402   3.209   1.836 -1.1628  0.3099  0.2411
  521MOL0     C68671  -0.289   3.213   1.907 -0.3527 -0.3735 -0.6455
  521MOL0     C68672  -0.237   3.342   1.924  0.3197  0.1989  0.5882
  521MOL0     C68673  -0.130   3.365   2.015  0.0861 -0.4684 -0.2148
  521MOL0     C68674  -0.082   3.266   2.096  0.0375  1.6475 -0.5298
  521MOL0     O68675  -0.001   3.300   2.207  0.5205  0.0332  0.2486
  521MOL0     C68676   0.003   3.219   2.329 -0.6158  0.0471 -0.0278
  521MOL0     C68677   0.071   3.301   2.437 -0.8226  0.5688  0.1189
  521MOL0     C68678   0.214   3.278   2.442 -0.3113 -0.3712 -0.4003
  521MOL0     C68679   0.281   3.348   2.551 -0.9344  0.0270 -0.0751
  521MOL0     C68680   0.302   3.237   2.668 -0.4162 -0.3155 -0.3214
  521MOL0     C68681   0.398   3.289   2.781  0.5194  0.6541 -0.2976
  521MOL0     C68682   0.355   3.423   2.845 -0.2941 -0.0874 -0.4670
  521MOL0     C68683   0.446   3.471   2.958 -0.9159 -0.3278  0.1311
  521MOL0    Cl68684   0.621   3.446   2.919 -0.6682  0.4760  0.0368
  521MOL0     C68685  -0.120   3.127   2.066 -0.8448 -0.0327 -0.0820
  521MOL0     C68686  -0.216   3.102   1.972  0.1627  0.3496 -0.2740
  521MOL0     O68687  -0.364   2.989   1.760 -0.1381 -0.2461 -0.0010
  521MOL0     C68688  -0.544   3.033   1.556 -0.6263 -0.2965  0.1037
  521MOL0     C68689  -0.648   3.032   1.468  0.6238  0.0881 -0.0663
  521MOL0     N68690  -1.212   3.605   1.068 -0.1766 -0.5640 -0.0140
  521MOL0     N68691  -1.204   3.578   0.937 -0.0207 -0.2155  0.0246
  521MOL0     C68692  -0.185   4.078   0.591  0.2231  0.0355 -0.5674
  521MOL0     C68693  -0.051   4.104   0.615 -0.3225 -0.5872 -0.0802
  521MOL0     C68694   0.345   4.047   0.839 -0.4830 -0.1157  0.3504
  521MOL0     C68695   0.382   4.160   0.907 -0.1343  0.7425 -0.2995
  521MOL0     C68696   0.522   4.193   0.921  0.0983  0.4163  0.1687
  521MOL0     C68697   0.624   4.106   0.877  0.0568  0.8147  0.2404
  521MOL0     O68698   0.748   4.160   0.889 -0.0402  0.2047 -0.7149
  521MOL0     C68699   0.867   4.081   0.885 -0.1331  0.0334  0.4066
  521MOL0     C68700   0.965   4.107   0.998  0.7100  0.1319  0.2548
  521MOL0     C68701   0.996   4.254   1.033  0.7705  0.6597  0.1561
  521MOL0     C68702   1.123   4.240   1.126 -0.5773  0.0279  0.8761
  521MOL0     C68703   1.197   4.363   1.145 -0.3528 -0.4207  0.1842
  521MOL0     C68704   1.258   4.471   1.157  0.0552  0.0012  0.8951
  521MOL0     C68705   0.575   3.985   0.819 -0.6046  0.7095  0.3057
  521MOL0     C68706   0.444   3.956   0.803  0.4316 -0.5743  0.4846
  521MOL0     H68707  -0.053   4.100   0.958 -0.6726  0.7957 -0.1055
  521MOL0     H68708  -0.277   3.998   0.912  2.7059 -1.5106  1.5329
  521MOL0     H68709  -0.336   3.824   0.616  1.5430  1.5950  1.0069
  521MOL0     H68710  -0.404   3.923   0.495  0.5746 -0.5001 -0.6014
  521MOL0     H68711  -0.643   3.886   0.580 -3.5167 -5.3118 -1.1356
  521MOL0     H68712  -0.569   3.843   0.730 -0.0206  1.4734 -0.2662
  521MOL0     H68713  -0.480   3.652   0.597  0.5612  1.8035  1.2320
  521MOL0     H68714  -0.561   3.701   0.446  0.1415 -0.9389 -0.0393
  521MOL0     H68715  -0.779   3.711   0.597  0.1570 -0.5073 -0.1365
  521MOL0     H68716  -0.725   3.554   0.524  1.8411 -0.4621 -0.5190
  521MOL0     H68717  -0.695   3.659   0.803  3.2585 -1.4411  0.9425
  521MOL0     H68718  -0.595   3.531   0.732 -0.1454 -0.9114 -2.3459
  521MOL0     H68719  -0.800   3.478   0.879 -0.5401  0.5208 -0.4035
  521MOL0     H68720  -0.787   3.395   0.715  3.5173 -0.1147  0.6746
  521MOL0     H68721  -0.950   3.633   0.752  0.5251  1.7423 -6.3493
  521MOL0     H68722  -0.959   3.525   0.618 -2.1287  0.1304 -0.5278
  521MOL0     H68723  -1.017   3.339   0.789 -2.0993 -0.3851  0.3683
  521MOL0     H68724  -1.132   3.434   0.714 -0.0460 -0.0379 -0.2800
  521MOL0     H68725  -0.971   3.370   1.068 -2.3806 -0.5756  2.2230
  521MOL0     H68726  -1.209   3.546   1.324 -0.1633 -0.6900 -0.2635
  521MOL0     H68727  -1.035   3.546   1.313 -0.2646 -0.0189 -1.4781
  521MOL0     H68728  -1.172   3.276   1.256  0.4415 -1.2762  0.6870
  521MOL0     H68729  -1.198   3.345   1.413  0.5992 -2.4588  1.7104
  521MOL0     H68730  -0.936   3.293   1.271 -0.0675 -2.3767 -0.0927
  521MOL0     H68731  -0.934   3.361   1.433 -2.1556  0.9317 -0.1766
  521MOL0     H68732  -1.083   3.098   1.387 -2.5804 -0.4439  3.5036
  521MOL0     H68733  -1.015   3.175   1.529  1.0869  0.9542  0.0866
  521MOL0     H68734  -0.850   3.258   1.618  1.4184  2.1421 -2.7660
  521MOL0     H68735  -0.663   3.245   1.792 -1.8971 -1.5641  0.3456
  521MOL0     H68736  -0.294   3.425   1.883  1.6038  1.4436  1.2240
  521MOL0     H68737  -0.096   3.466   2.037  2.2288 -1.2323  0.1865
  521MOL0     H68738   0.062   3.127   2.317  2.6494  2.0521 -0.5199
  521MOL0     H68739  -0.101   3.203   2.357 -0.4132 -2.6513 -0.5045
  521MOL0     H68740   0.022   3.273   2.530 -3.0804  1.3023 -0.7806
  521MOL0     H68741   0.050   3.408   2.437  0.3604  0.8909  2.9607
  521MOL0     H68742   0.250   3.323   2.349 -0.1901 -3.5949 -2.0653
  521MOL0     H68743   0.232   3.170   2.452  2.7626  0.1295  0.2679
  521MOL0     H68744   0.382   3.383   2.526 -0.2163 -3.1652 -2.1935
  521MOL0     H68745   0.216   3.430   2.582 -0.6744  0.3472 -0.3755
  521MOL0     H68746   0.353   3.147   2.634 -0.6815 -0.0196 -1.5529
  521MOL0     H68747   0.205   3.202   2.705 -0.6418  0.2706 -0.3523
  521MOL0     H68748   0.501   3.296   2.744 -0.1619 -2.2791 -3.0698
  521MOL0     H68749   0.383   3.207   2.852 -0.8037  2.0887  1.1710
  521MOL0     H68750   0.348   3.499   2.766  4.4757  1.3602  0.1987
  521MOL0     H68751   0.256   3.408   2.889  0.2681  1.4584  1.4596
  521MOL0     H68752   0.435   3.411   3.049  2.5040  1.2866  1.7735
  521MOL0     H68753   0.421   3.575   2.980 -0.0294  0.7441 -3.2916
  521MOL0     H68754  -0.094   3.050   2.138  1.2087  0.6520 -0.0385
  521MOL0     H68755  -0.232   2.997   1.954  2.2372  0.4894 -3.8796
  521MOL0     H68756  -0.456   2.971   1.540 -0.3510  0.3331 -0.8936
  521MOL0     H68757  -0.647   2.967   1.381  1.7024  2.3458 -1.8474
  521MOL0     H68758  -0.231   4.053   0.496  1.6877 -0.1303 -1.2543
  521MOL0     H68759   0.022   4.121   0.537  2.0281 -0.0377  2.1115
  521MOL0     H68760   0.304   4.225   0.943  0.9681  2.5700 -1.0888
  521MOL0     H68761   0.539   4.292   0.961 -0.5455  0.9107 -0.7503
  521MOL0     H68762   0.931   4.104   0.799  1.7958 -0.6888  1.5861
  521MOL0     H68763   0.840   3.975   0.878  1.7275 -0.3475 -2.5222
  521MOL0     H68764   0.924   4.047   1.080 -2.5134  1.6857 -0.0724
  521MOL0     H68765   1.053   4.053   0.962  1.6548  2.2961 -0.8625
  521MOL0     H68766   0.915   4.296   1.094 -1.7815  0.5092 -2.8693
  521MOL0     H68767   1.025   4.303   0.940  4.8478 -1.4786  0.0672
  521MOL0     H68768   1.087   4.221   1.228 -1.1324  0.2802  0.7312
  521MOL0     H68769   1.194   4.167   1.088 -0.7272  1.0412 -1.5008
  521MOL0     H68770   1.318   4.560   1.157 -0.4001  0.3143  0.9176
  521MOL0     H68771   0.650   3.910   0.796 -0.9840 -0.4877  2.7376
  521MOL0     H68772   0.418   3.856   0.770  0.5678 -0.8012  1.0499
  522MOL0     O68773   6.680  10.761   9.636 -0.5054  0.4211 -0.3246
  522MOL0     C68774   6.804  10.739   9.646 -1.0969  0.7563  0.0883
  522MOL0     O68775   6.876  10.629   9.588  0.1464 -0.3968 -0.1961
  522MOL0     C68776   6.820  10.504   9.586 -0.4482  0.5552 -1.2383
  522MOL0     C68777   6.901  10.417   9.509 -0.4166  0.3399 -0.6063
  522MOL0     C68778   6.864  10.276   9.512  0.5842  0.1678  0.8205
  522MOL0     C68779   6.751  10.233   9.593 -1.0737 -0.4690  0.8809
  522MOL0     O68780   6.719  10.105   9.581  0.1415  0.2704 -0.7814
  522MOL0     C68781   6.573  10.082   9.571 -0.2183 -0.7976 -0.0361
  522MOL0     C68782   6.572   9.933   9.578  0.2027  1.6218  0.8446
  522MOL0     C68783   6.437   9.874   9.531  0.5011  0.9636 -0.2897
  522MOL0     C68784   6.440   9.717   9.536  0.6662  0.6722 -0.7513
  522MOL0     C68785   6.339   9.643   9.444  0.0412  0.1125 -0.0316
  522MOL0     C68786   6.318   9.505   9.503  0.1877  0.1996 -0.5682
  522MOL0     C68787   6.199   9.439   9.431  0.1418  0.1376  0.6694
  522MOL0     C68788   6.188   9.287   9.462  0.6858 -0.7736 -0.4013
  522MOL0     N68789   6.090   9.222   9.387 -0.1172  0.8142  0.2957
  522MOL0     C68790   6.109   9.179   9.261  0.0378 -0.4675  0.0104
  522MOL0     C68791   5.982   9.151   9.217  0.4932  1.1897 -0.3208
  522MOL0     C68792   5.945   9.075   9.087 -0.7361 -0.0703  0.3907
  522MOL0     C68793   6.050   9.109   8.980  0.2575  0.0119  0.0611
  522MOL0     C68794   6.034   9.036   8.840  0.4745  0.1216  0.0721
  522MOL0     C68795   6.123   9.102   8.736  0.4477 -0.7032  0.2253
  522MOL0     O68796   6.153   9.029   8.622 -0.4425  0.3508  0.0614
  522MOL0     C68797   6.233   9.091   8.532 -0.1555 -0.5765  0.5027
  522MOL0     C68798   6.218   9.222   8.497 -0.3586  0.9346 -0.4574
  522MOL0     C68799   6.291   9.288   8.406 -0.5385 -0.6202  0.8256
  522MOL0     C68800   6.399   9.223   8.331 -0.8098  0.2570 -0.2033
  522MOL0     C68801   6.480   9.289   8.220  0.4342 -0.3508  0.0064
  522MOL0     O68802   6.422   9.382   8.158  0.6024 -0.2042  0.2220
  522MOL0     C68803   6.452   9.399   8.025 -0.2589  0.0292 -0.6726
  522MOL0     C68804   6.534   9.306   7.951  1.3190 -0.5069 -0.3827
  522MOL0     C68805   6.556   9.339   7.816  0.5399  0.6172  0.6001
  522MOL0     C68806   6.481   9.441   7.746 -0.1958  0.0352 -0.9228
  522MOL0     O68807   6.480   9.451   7.604  0.2075  0.5736 -0.5551
  522MOL0     C68808   6.355   9.471   7.538 -0.5113 -0.5405  0.3288
  522MOL0     C68809   6.344   9.418   7.390  0.2402  0.0791 -0.1308
  522MOL0     C68810   6.247   9.495   7.310 -0.7232  0.2636  0.1148
  522MOL0     C68811   6.278   9.456   7.163  0.0400  0.3151 -0.6544
  522MOL0     C68812   6.192   9.528   7.061 -0.5032 -0.2227  0.5710
  522MOL0     C68813   6.236   9.672   7.028 -0.6427 -0.4582 -0.3535
  522MOL0     C68814   6.172   9.733   6.898  0.3960 -0.0002 -0.4323
  522MOL0     C68815   6.172   9.891   6.889 -0.0168 -0.1684 -0.4953
  522MOL0    Cl68816   6.075   9.972   7.016  0.1734  0.5112 -0.1481
  522MOL0     C68817   6.411   9.524   7.823  0.0320 -0.3055  1.3253
  522MOL0     C68818   6.396   9.508   7.965 -0.2899 -1.1369  0.3287
  522MOL0     O68819   6.594   9.252   8.208  0.3595 -0.2292 -0.1056
  522MOL0     C68820   6.421   9.089   8.364  0.2528 -0.1264  0.1206
  522MOL0     C68821   6.350   9.032   8.473  0.2254  0.1166 -0.7341
  522MOL0     N68822   5.891   9.180   9.318  0.0640 -0.2666 -0.2791
  522MOL0     N68823   5.952   9.228   9.417 -0.8003  0.0238  0.6259
  522MOL0     C68824   6.701  10.322   9.680 -0.4935  0.0163 -0.2594
  522MOL0     C68825   6.724  10.457   9.661  0.7725  1.0529  0.1017
  522MOL0     C68826   6.876  10.853   9.707  0.9457 -0.6711 -0.1350
  522MOL0     C68827   6.803  10.960   9.762  0.2707 -0.0077  0.0244
  522MOL0     C68828   6.866  11.071   9.812 -0.7883  0.0850  0.8515
  522MOL0     C68829   7.012  11.082   9.804  0.4118  0.0119  0.9529
  522MOL0     O68830   7.092  11.181   9.850 -0.1900 -0.2514  1.0559
  522MOL0     C68831   7.075  11.238   9.980  0.0856 -0.3512 -0.0620
  522MOL0     C68832   7.004  11.372   9.967  0.2860  0.9411 -0.0900
  522MOL0     C68833   7.081  11.467   9.870  1.0445  0.4600 -0.7542
  522MOL0     C68834   7.021  11.609   9.880 -1.0242 -0.4800  0.0380
  522MOL0     C68835   7.121  11.694   9.820 -0.0296  0.4460  0.6178
  522MOL0     C68836   7.193  11.759   9.749 -0.4165 -0.6384 -0.5248
  522MOL0     C68837   7.078  10.976   9.741 -1.6055 -0.4540  1.7344
  522MOL0     C68838   7.015  10.862   9.699  0.1639  0.2735  0.6926
  522MOL0     H68839   6.993  10.445   9.458  0.1381 -0.4693 -0.0910
  522MOL0     H68840   6.928  10.212   9.453 -1.2940  0.6922 -1.9570
  522MOL0     H68841   6.533  10.134   9.483  2.4193  3.4724  0.9869
  522MOL0     H68842   6.526  10.116   9.664 -0.4311  0.5545 -0.6189
  522MOL0     H68843   6.585   9.890   9.678 -2.9157 -1.0844  0.2364
  522MOL0     H68844   6.650   9.894   9.513 -1.9143  1.6213 -1.8660
  522MOL0     H68845   6.416   9.899   9.426 -0.6238  2.8439  0.3400
  522MOL0     H68846   6.359   9.916   9.594  1.6315  0.3169  1.6328
  522MOL0     H68847   6.540   9.683   9.507  0.2424 -2.8967  1.3310
  522MOL0     H68848   6.428   9.697   9.643  0.4280  0.0951 -0.8803
  522MOL0     H68849   6.381   9.649   9.343 -0.1156  0.5682 -0.0710
  522MOL0     H68850   6.240   9.689   9.432  1.5658  3.3539 -0.9971
  522MOL0     H68851   6.293   9.506   9.610  2.8718  2.3918  0.1498
  522MOL0     H68852   6.409   9.450   9.477 -0.5935 -0.7227 -1.4120
  522MOL0     H68853   6.108   9.488   9.466 -0.1539  0.4344 -0.4790
  522MOL0     H68854   6.220   9.446   9.324  3.5211 -0.1134  1.1990
  522MOL0     H68855   6.163   9.280   9.568 -0.3011 -1.9736 -0.6994
  522MOL0     H68856   6.285   9.243   9.437  0.8229  0.5430 -2.5283
  522MOL0     H68857   6.207   9.155   9.223 -0.0755  0.7036 -1.0849
  522MOL0     H68858   5.849   9.111   9.049  0.2779 -0.0139 -2.3909
  522MOL0     H68859   5.918   8.969   9.097  1.6979 -1.1489 -2.6475
  522MOL0     H68860   6.146   9.078   9.023 -1.1836 -2.7017  1.5711
  522MOL0     H68861   6.038   9.215   8.959 -0.3878 -0.5817 -3.0757
  522MOL0     H68862   6.055   8.929   8.853 -3.1934 -0.8161 -0.3919
  522MOL0     H68863   5.931   9.043   8.804  1.3811 -1.0005 -3.0642
  522MOL0     H68864   6.220   9.126   8.780  0.7940 -2.0293  0.2440
  522MOL0     H68865   6.073   9.197   8.719 -0.5488 -1.2903 -0.2235
  522MOL0     H68866   6.142   9.286   8.541 -0.8996  0.3867 -0.5724
  522MOL0     H68867   6.265   9.392   8.386 -4.9449 -1.7302 -0.2855
  522MOL0     H68868   6.577   9.212   7.985  1.8287  0.2584  1.1550
  522MOL0     H68869   6.616   9.264   7.767 -2.1425 -2.2263  1.3506
  522MOL0     H68870   6.316   9.572   7.556  2.1144  0.4775  0.7566
  522MOL0     H68871   6.272   9.419   7.587 -1.4115  0.4131 -0.1443
  522MOL0     H68872   6.316   9.314   7.371 -3.7741  0.7805  1.0140
  522MOL0     H68873   6.442   9.427   7.343 -0.4882 -2.3237 -2.3475
  522MOL0     H68874   6.257   9.601   7.334 -2.0552 -0.1393  2.8483
  522MOL0     H68875   6.146   9.465   7.342 -0.2941 -0.4462  0.8338
  522MOL0     H68876   6.383   9.466   7.133  0.3342  2.9599  0.8924
  522MOL0     H68877   6.250   9.351   7.153 -0.5896  0.1355  2.2747
  522MOL0     H68878   6.085   9.536   7.083 -0.5423  0.8610  0.0634
  522MOL0     H68879   6.199   9.467   6.971 -1.2813  1.7118 -0.8652
  522MOL0     H68880   6.344   9.658   7.018 -0.9639 -5.8468  0.6433
  522MOL0     H68881   6.210   9.737   7.111 -1.1725  3.0182 -3.0277
  522MOL0     H68882   6.219   9.697   6.806 -0.8080 -2.2214 -0.2347
  522MOL0     H68883   6.069   9.699   6.896  0.9063 -1.7002  0.5064
  522MOL0     H68884   6.135   9.911   6.788  2.5958 -0.3355 -1.5611
  522MOL0     H68885   6.274   9.928   6.899 -0.9114  1.7558  2.5146
  522MOL0     H68886   6.363   9.614   7.788 -2.0158 -1.0955  1.9017
  522MOL0     H68887   6.345   9.580   8.029  0.5832  0.2224 -0.4769
  522MOL0     H68888   6.491   9.029   8.306 -0.1236 -2.4642  1.9102
  522MOL0     H68889   6.368   8.932   8.510  0.4426  0.6488  0.6869
  522MOL0     H68890   6.648  10.297   9.771 -0.2926 -3.0378 -0.8851
  522MOL0     H68891   6.681  10.528   9.732  0.7570  0.6022  0.5483
  522MOL0     H68892   6.694  10.958   9.768  0.1710  1.2474 -0.9430
  522MOL0     H68893   6.801  11.150   9.849  1.7778  2.5723  0.3478
  522MOL0     H68894   7.177  11.250  10.017 -0.6864 -1.6818  2.8712
  522MOL0     H68895   7.016  11.179  10.052 -0.7857  0.2018 -0.3025
  522MOL0     H68896   6.905  11.356   9.923  0.8503  0.0704 -1.0780
  522MOL0     H68897   6.985  11.412  10.067  0.8618  2.1456 -0.4471
  522MOL0     H68898   7.077  11.437   9.765  4.5983 -0.2955 -0.7983
  522MOL0     H68899   7.186  11.470   9.902  0.1041  0.7367  2.7532
  522MOL0     H68900   6.925  11.602   9.829 -0.3198 -3.1818 -1.1299
  522MOL0     H68901   7.026  11.645   9.983  2.8823 -0.9872  0.1983
  522MOL0     H68902   7.258  11.824   9.695 -3.3463  3.9221  0.7965
  522MOL0     H68903   7.186  10.985   9.738 -1.3832 -2.5994 -0.2017
  522MOL0     H68904   7.062  10.778   9.649 -0.8825 -0.2461  0.5333
  523MOL0     O68905   6.750   4.686   6.846  0.0980 -0.2988 -0.0328
  523MOL0     C68906   6.711   4.806   6.861 -0.8931  0.3796  0.4213
  523MOL0     O68907   6.754   4.913   6.784 -0.8312 -0.6753 -0.3056
  523MOL0     C68908   6.830   4.895   6.674 -0.2591  0.6023  0.5498
  523MOL0     C68909   6.815   4.791   6.583  0.3783 -0.1653  0.8980
  523MOL0     C68910   6.902   4.791   6.474 -0.2923  0.0329  0.6454
  523MOL0     C68911   7.000   4.890   6.451  0.2771  0.9793 -0.2229
  523MOL0     O68912   7.085   4.867   6.348 -0.2891 -0.0917 -0.0730
  523MOL0     C68913   7.180   4.965   6.302 -0.1426  1.6116 -0.4024
  523MOL0     C68914   7.311   4.949   6.385 -0.0681 -0.3752 -0.0245
  523MOL0     C68915   7.378   4.821   6.341 -0.1155 -0.7488  0.2204
  523MOL0     C68916   7.494   4.785   6.440 -0.2400  0.7686 -0.6126
  523MOL0     C68917   7.548   4.643   6.422 -0.4067  0.2179 -0.2887
  523MOL0     C68918   7.629   4.651   6.295 -0.1139  0.0689 -0.6078
  523MOL0     C68919   7.721   4.535   6.268 -0.5875  0.3266  0.4084
  523MOL0     C68920   7.652   4.393   6.230 -0.3488  0.0762 -0.2690
  523MOL0     N68921   7.741   4.298   6.168  0.5013 -0.2962  0.8493
  523MOL0     C68922   7.821   4.206   6.229  0.1894  0.3375  0.2567
  523MOL0     C68923   7.882   4.140   6.133 -0.7658 -0.7711  0.0883
  523MOL0     C68924   7.953   4.008   6.146 -0.8909 -0.6750 -0.2622
  523MOL0     C68925   8.062   3.972   6.045 -0.9843 -1.5846  0.5731
  523MOL0     C68926   7.991   3.904   5.912 -0.0446  0.3870 -0.0123
  523MOL0     C68927   7.968   3.761   5.946 -0.8192  1.5026 -0.6749
  523MOL0     O68928   7.902   3.705   5.842 -0.2370 -0.9396 -0.3157
  523MOL0     C68929   7.911   3.568   5.818  0.1774 -0.0308 -0.0518
  523MOL0     C68930   7.819   3.515   5.721  0.1799 -0.2301 -0.0879
  523MOL0     C68931   7.842   3.386   5.670 -0.2130  0.5972  0.1795
  523MOL0     C68932   7.928   3.297   5.729  0.3358  0.8488  0.8058
  523MOL0     C68933   7.946   3.151   5.704 -0.0770  0.6193  0.4673
  523MOL0     O68934   8.074   3.100   5.733 -0.6286 -0.4363  0.4639
  523MOL0     C68935   8.086   2.964   5.733 -0.3176  0.2182  0.0504
  523MOL0     C68936   8.138   2.893   5.841 -0.7342 -0.1763 -0.1149
  523MOL0     C68937   8.165   2.754   5.823 -1.3349  0.1647 -0.1921
  523MOL0     C68938   8.149   2.689   5.700  0.4111  0.8139  0.2145
  523MOL0     O68939   8.174   2.557   5.693  0.2968  0.6560  0.0873
  523MOL0     C68940   8.064   2.466   5.676  0.0749  0.1209 -0.0451
  523MOL0     C68941   8.126   2.338   5.615 -0.0544  0.2742  0.7487
  523MOL0     C68942   8.174   2.350   5.474  0.3424 -0.0720 -0.0215
  523MOL0     C68943   8.211   2.210   5.429 -0.9494  0.3403 -0.8261
  523MOL0     C68944   8.095   2.104   5.438  0.5728 -0.4222 -0.1090
  523MOL0     C68945   8.142   1.967   5.378  0.4047  0.9287  0.2426
  523MOL0     C68946   8.047   1.837   5.396  0.3786 -0.6886 -0.4692
  523MOL0     C68947   8.091   1.725   5.303 -0.0565 -0.8019  0.2066
  523MOL0    Cl68948   8.248   1.674   5.359  0.5172  0.0790 -0.1899
  523MOL0     C68949   8.107   2.768   5.587  1.0215  0.7399 -0.4191
  523MOL0     C68950   8.072   2.897   5.609 -0.5708 -0.0559  0.0775
  523MOL0     O68951   7.853   3.089   5.652  0.2644 -0.2277 -0.6655
  523MOL0     C68952   8.018   3.348   5.824 -0.1177  0.3986  0.9931
  523MOL0     C68953   8.006   3.478   5.871  0.2602  0.1553 -0.0018
  523MOL0     N68954   7.852   4.204   6.017 -0.3454 -0.2078  0.2080
  523MOL0     N68955   7.758   4.288   6.027  0.4589 -0.3790 -0.5887
  523MOL0     C68956   7.015   4.989   6.554 -0.7836 -0.2351  0.9127
  523MOL0     C68957   6.935   4.985   6.658 -0.6214  0.2005  0.2163
  523MOL0     C68958   6.621   4.826   6.976 -0.7246 -0.9047 -0.8344
  523MOL0     C68959   6.605   4.724   7.073 -0.3712 -0.0264 -0.0077
  523MOL0     C68960   6.518   4.742   7.179  0.7529  0.8207  0.3757
  523MOL0     C68961   6.454   4.867   7.197  0.3121 -0.3682 -0.1408
  523MOL0     O68962   6.364   4.873   7.304  0.2773  0.3816  0.0586
  523MOL0     C68963   6.221   4.879   7.262  1.0139 -0.6894 -0.2774
  523MOL0     C68964   6.136   4.838   7.393 -0.0199 -0.6080  0.0810
  523MOL0     C68965   5.976   4.848   7.374  0.4481 -0.2565 -0.2159
  523MOL0     C68966   5.911   4.751   7.269 -0.5564  0.5136 -0.2078
  523MOL0     C68967   5.935   4.614   7.322  0.2569 -0.1309  0.1340
  523MOL0     C68968   5.959   4.513   7.384 -0.0492  0.1830  0.3186
  523MOL0     C68969   6.480   4.969   7.099 -0.1224 -0.2007  0.1243
  523MOL0     C68970   6.568   4.958   6.993  0.4117  0.8026 -0.4525
  523MOL0     H68971   6.736   4.717   6.574  0.4111 -0.1682  0.6251
  523MOL0     H68972   6.899   4.705   6.407 -1.4540  2.2976 -2.4232
  523MOL0     H68973   7.132   5.063   6.306  0.3664  1.8592 -0.2745
  523MOL0     H68974   7.206   4.939   6.199  0.7844 -1.1769  0.4195
  523MOL0     H68975   7.287   4.958   6.491  3.5131  0.7772  0.8041
  523MOL0     H68976   7.383   5.024   6.351 -0.8359 -1.4090 -4.6651
  523MOL0     H68977   7.420   4.843   6.242 -3.1863  3.4750 -0.4125
  523MOL0     H68978   7.313   4.733   6.337  0.1613 -0.9107 -1.1479
  523MOL0     H68979   7.572   4.861   6.430  0.1496  0.9027  2.5138
  523MOL0     H68980   7.445   4.793   6.538  0.1115 -3.8687  0.1394
  523MOL0     H68981   7.472   4.565   6.421  1.6910 -1.9848  0.5774
  523MOL0     H68982   7.622   4.613   6.497  2.8073 -1.2062 -3.7279
  523MOL0     H68983   7.680   4.747   6.295  0.7103 -0.3539  0.2574
  523MOL0     H68984   7.555   4.643   6.214  0.1490  0.9880 -0.9427
  523MOL0     H68985   7.795   4.562   6.192 -1.0728 -0.6066 -0.4212
  523MOL0     H68986   7.777   4.521   6.361 -1.0157  1.5519  0.8555
  523MOL0     H68987   7.556   4.417   6.183 -1.5464 -0.5957  1.7145
  523MOL0     H68988   7.628   4.350   6.327 -1.2854  0.3985 -0.3475
  523MOL0     H68989   7.826   4.181   6.335  1.5823  1.5939  0.5156
  523MOL0     H68990   7.870   3.937   6.157 -1.7188  0.1522 -0.9577
  523MOL0     H68991   8.008   4.001   6.240  1.1081 -1.5827 -1.4314
  523MOL0     H68992   8.138   3.909   6.092 -0.4363 -0.6415  0.9608
  523MOL0     H68993   8.113   4.067   6.033 -1.7589 -1.0209  1.6296
  523MOL0     H68994   7.899   3.963   5.908  0.8312  1.7879 -0.2745
  523MOL0     H68995   8.050   3.911   5.820 -1.6096  1.7939 -0.9706
  523MOL0     H68996   7.930   3.748   6.048  4.5379 -1.6069  1.3564
  523MOL0     H68997   8.071   3.723   5.952 -1.0843 -0.1307 -4.2084
  523MOL0     H68998   7.742   3.572   5.670  1.1334  1.8288  0.6532
  523MOL0     H68999   7.776   3.352   5.591  1.7976 -0.7007 -1.0563
  523MOL0     H69000   8.179   2.953   5.922  1.8073  0.7040 -1.9019
  523MOL0     H69001   8.203   2.700   5.910 -0.2476  0.8841 -0.2070
  523MOL0     H69002   8.004   2.523   5.604 -0.1862  3.1382  2.3700
  523MOL0     H69003   8.007   2.454   5.768 -2.0834 -0.7990 -1.4122
  523MOL0     H69004   8.050   2.260   5.632  0.3175  0.2064  2.2851
  523MOL0     H69005   8.207   2.297   5.676 -0.2332 -2.7527 -0.8400
  523MOL0     H69006   8.259   2.418   5.462  1.1854 -0.9349  0.8858
  523MOL0     H69007   8.094   2.387   5.410 -0.4681 -0.4860  0.7411
  523MOL0     H69008   8.278   2.201   5.343 -1.1896 -2.3859 -0.8241
  523MOL0     H69009   8.277   2.175   5.509 -0.1959 -0.8129 -1.9035
  523MOL0     H69010   8.004   2.127   5.382 -0.8377 -2.6627  1.0955
  523MOL0     H69011   8.080   2.073   5.542  1.7393 -0.0708  0.1735
  523MOL0     H69012   8.236   1.950   5.431 -0.2713 -0.7754  0.9645
  523MOL0     H69013   8.171   1.973   5.272 -0.4945 -1.9492 -0.2355
  523MOL0     H69014   8.043   1.799   5.498 -2.7209  1.6939  0.4188
  523MOL0     H69015   7.945   1.872   5.376 -1.1485 -3.2507  2.1250
  523MOL0     H69016   8.083   1.768   5.202 -1.7784 -0.2615  0.5401
  523MOL0     H69017   8.017   1.644   5.299 -1.0036  0.0515 -0.4251
  523MOL0     H69018   8.093   2.713   5.494  0.8123 -3.0490  1.6313
  523MOL0     H69019   8.044   2.948   5.517  0.0418  2.3546  1.1497
  523MOL0     H69020   8.093   3.282   5.867 -0.3614 -0.5974 -0.0669
  523MOL0     H69021   8.079   3.510   5.945 -2.4983  1.7848  2.1737
  523MOL0     H69022   7.082   5.074   6.543 -1.6650  0.2467 -1.5782
  523MOL0     H69023   6.939   5.071   6.724 -0.2057  0.9415 -0.7417
  523MOL0     H69024   6.651   4.630   7.044  1.8017  0.2395  2.3091
  523MOL0     H69025   6.495   4.660   7.246  4.2327 -2.6865 -2.2267
  523MOL0     H69026   6.184   4.820   7.179 -2.0781  1.3005 -0.5065
  523MOL0     H69027   6.185   4.977   7.229  1.8267 -0.0341  0.6998
  523MOL0     H69028   6.153   4.731   7.407  2.0231 -0.3016  0.2092
  523MOL0     H69029   6.168   4.895   7.481 -4.2432  2.9185 -0.3084
  523MOL0     H69030   5.953   4.949   7.339 -0.8053  0.1044  1.4895
  523MOL0     H69031   5.951   4.833   7.480  1.2972  1.2142  0.2273
  523MOL0     H69032   5.804   4.772   7.262 -0.0715  3.7705  0.6067
  523MOL0     H69033   5.957   4.746   7.170 -1.1949  1.4426 -0.5699
  523MOL0     H69034   5.998   4.441   7.453 -0.4676  1.3430  1.8221
  523MOL0     H69035   6.427   5.064   7.092  0.8759  0.2522 -2.2247
  523MOL0     H69036   6.580   5.046   6.931 -0.1149  0.3769 -1.1770
  524MOL0     O69037   9.740   2.990   6.802  0.0335  0.0137  0.7029
  524MOL0     C69038   9.799   3.040   6.899 -0.1947 -0.2976  1.2197
  524MOL0     O69039   9.920   2.987   6.946 -0.3155 -0.1492  1.1048
  524MOL0     C69040   9.984   2.898   6.861 -0.3998 -0.8050  0.4832
  524MOL0     C69041  10.008   2.924   6.722 -0.0556 -0.4805  0.2821
  524MOL0     C69042  10.053   2.815   6.641 -0.6133 -0.4815  0.1811
  524MOL0     C69043  10.095   2.694   6.712 -1.3164  0.3957  0.1615
  524MOL0     O69044  10.159   2.597   6.646  0.1587 -0.0425  0.3437
  524MOL0     C69045  10.219   2.627   6.519  0.2722  0.4163 -0.2833
  524MOL0     C69046  10.338   2.532   6.506  0.1599 -0.3101  0.1815
  524MOL0     C69047  10.423   2.541   6.382  0.0436  0.8125 -0.2218
  524MOL0     C69048  10.340   2.547   6.243 -0.4356  0.9056 -0.1000
  524MOL0     C69049  10.445   2.560   6.137 -0.3760 -0.9461  0.2397
  524MOL0     C69050  10.388   2.546   6.006 -0.4476  0.3407  0.0352
  524MOL0     C69051  10.288   2.651   5.953  0.9692 -0.4039  0.1831
  524MOL0     C69052  10.142   2.597   5.919 -0.1423 -0.4299  0.6543
  524MOL0     N69053  10.062   2.697   5.863  0.3165 -0.9080  0.4108
  524MOL0     C69054  10.093   2.777   5.749 -0.6896 -0.4689  0.9643
  524MOL0     C69055  10.001   2.876   5.744 -1.3684  0.7437 -0.2813
  524MOL0     C69056  10.002   2.973   5.626 -0.1393 -0.0083 -0.2151
  524MOL0     C69057  10.036   3.116   5.659 -1.3214  0.3490  0.0425
  524MOL0     C69058  10.025   3.200   5.531 -0.0112 -0.5152 -0.4182
  524MOL0     C69059  10.061   3.349   5.544  0.4906  0.4773  0.3788
  524MOL0     O69060  10.202   3.370   5.565  0.7051 -0.1265 -0.0483
  524MOL0     C69061  10.297   3.295   5.501  1.0268  0.2416 -0.4773
  524MOL0     C69062  10.306   3.277   5.362 -0.8497  0.9690 -0.0937
  524MOL0     C69063  10.408   3.208   5.297  0.1113 -0.4445 -0.0692
  524MOL0     C69064  10.503   3.139   5.367 -0.6353 -0.4428  0.7488
  524MOL0     C69065  10.617   3.054   5.307 -0.0235 -0.2329  0.0604
  524MOL0     O69066  10.674   2.970   5.403 -0.4915  0.1809  0.3131
  524MOL0     C69067  10.780   2.897   5.371  0.7558  1.1500  1.7138
  524MOL0     C69068  10.911   2.911   5.415  0.3623 -0.3032  0.6508
  524MOL0     C69069  11.000   2.809   5.396 -0.4073 -0.4406  0.1477
  524MOL0     C69070  10.975   2.686   5.328 -0.4150  0.4044  0.4441
  524MOL0     O69071  11.065   2.586   5.292  0.3640 -0.8036 -0.1151
  524MOL0     C69072  11.206   2.621   5.279 -0.0233  0.6920 -0.2557
  524MOL0     C69073  11.277   2.507   5.203  0.1011 -0.0204  0.1051
  524MOL0     C69074  11.425   2.514   5.219 -0.0248  0.0908  0.1107
  524MOL0     C69075  11.491   2.645   5.150 -0.0067  1.1215  0.2535
  524MOL0     C69076  11.446   2.652   4.999  0.4928  1.0656  0.1825
  524MOL0     C69077  11.548   2.736   4.917 -0.2112 -0.8229  0.2554
  524MOL0     C69078  11.543   2.682   4.772  0.2261 -0.2028  0.4838
  524MOL0     C69079  11.583   2.792   4.668 -0.6573 -0.3902 -0.2153
  524MOL0    Cl69080  11.467   2.928   4.691 -0.6874 -0.1552  0.5823
  524MOL0     C69081  10.847   2.674   5.281  0.1923  0.2251  0.0910
  524MOL0     C69082  10.751   2.774   5.299  0.5891 -1.2337 -0.6322
  524MOL0     O69083  10.648   3.058   5.194  0.1158 -0.4080  0.2006
  524MOL0     C69084  10.481   3.135   5.502  0.1933 -0.1258 -0.0811
  524MOL0     C69085  10.383   3.208   5.568  0.1191 -0.4104 -0.0363
  524MOL0     N69086   9.909   2.855   5.844  0.6459 -0.2219 -0.4090
  524MOL0     N69087   9.953   2.757   5.911 -0.2858 -0.1487 -0.5078
  524MOL0     C69088  10.088   2.684   6.850 -0.5539  0.7171  0.9567
  524MOL0     C69089  10.039   2.789   6.926  0.1887  0.3023 -0.3059
  524MOL0     C69090   9.730   3.138   6.986 -0.2886 -0.4052  0.8737
  524MOL0     C69091   9.787   3.178   7.114 -0.6579  0.6633  0.0259
  524MOL0     C69092   9.706   3.252   7.199 -0.2798 -0.1855 -0.1678
  524MOL0     C69093   9.590   3.316   7.152 -0.7258  0.1280  0.6686
  524MOL0     O69094   9.506   3.391   7.229 -0.1560  0.4621 -1.0621
  524MOL0     C69095   9.570   3.516   7.275 -0.4513  0.7123  0.4257
  524MOL0     C69096   9.557   3.625   7.164  0.5584  0.4278 -0.8696
  524MOL0     C69097   9.445   3.729   7.195  0.7382  0.3233 -0.0270
  524MOL0     C69098   9.410   3.802   7.067 -0.1223  0.0080  0.3041
  524MOL0     C69099   9.337   3.928   7.078  0.4165  0.2395  1.0542
  524MOL0     C69100   9.269   4.033   7.094 -1.3824 -0.0379 -0.8327
  524MOL0     C69101   9.549   3.304   7.018  0.0301  0.3979 -0.4284
  524MOL0     C69102   9.614   3.211   6.937 -0.2911 -0.6508 -0.0751
  524MOL0     H69103   9.990   3.022   6.679  2.0139 -0.4257 -0.6257
  524MOL0     H69104  10.055   2.830   6.534  1.2578  2.5507  0.5240
  524MOL0     H69105  10.257   2.730   6.518 -1.1449  0.9846  0.4293
  524MOL0     H69106  10.145   2.602   6.442  2.3718 -2.9880 -1.4144
  524MOL0     H69107  10.315   2.428   6.528 -1.1913 -0.9335 -3.4634
  524MOL0     H69108  10.401   2.561   6.591 -0.5290  1.7278  0.0547
  524MOL0     H69109  10.503   2.468   6.387  1.8661  2.5787 -1.6771
  524MOL0     H69110  10.472   2.638   6.393 -0.0176  0.9011 -0.7101
  524MOL0     H69111  10.281   2.455   6.244  2.8661 -1.3754 -0.1589
  524MOL0     H69112  10.271   2.632   6.244  0.9250  2.0540 -0.4753
  524MOL0     H69113  10.529   2.491   6.146 -2.2668 -3.6980 -1.7770
  524MOL0     H69114  10.485   2.662   6.133 -1.3519 -0.4019  2.5909
  524MOL0     H69115  10.339   2.448   6.001  3.7534 -2.0500  0.5638
  524MOL0     H69116  10.481   2.547   5.948 -0.9338  2.0840 -0.7584
  524MOL0     H69117  10.284   2.738   6.019 -1.1080 -1.8438  2.1427
  524MOL0     H69118  10.318   2.682   5.853 -1.0022 -2.0331 -1.0159
  524MOL0     H69119  10.105   2.566   6.017 -1.6601 -1.6232 -0.2454
  524MOL0     H69120  10.135   2.509   5.854 -1.2657 -1.5169  2.1629
  524MOL0     H69121  10.176   2.773   5.679  0.4562 -0.0882  2.2544
  524MOL0     H69122   9.900   2.972   5.587 -0.5592 -0.7353  0.8564
  524MOL0     H69123  10.082   2.943   5.558  1.0156 -1.7168  1.7628
  524MOL0     H69124  10.136   3.137   5.697 -1.1612 -0.9492  0.4078
  524MOL0     H69125   9.966   3.154   5.733 -0.4845  1.6635  0.1784
  524MOL0     H69126  10.074   3.164   5.441 -0.3171  2.2846 -1.8190
  524MOL0     H69127   9.917   3.209   5.516 -0.2580 -2.9221 -0.5383
  524MOL0     H69128  10.024   3.401   5.633  0.2476 -1.8701  1.7231
  524MOL0     H69129  10.031   3.402   5.453  0.7427  0.7238  0.4358
  524MOL0     H69130  10.236   3.322   5.292 -0.0994 -1.1067 -2.3290
  524MOL0     H69131  10.418   3.209   5.189 -2.0914  1.1043 -0.3168
  524MOL0     H69132  10.939   2.995   5.478  0.6004  1.4742 -1.6729
  524MOL0     H69133  11.099   2.810   5.440  0.8183 -2.5947 -2.3277
  524MOL0     H69134  11.250   2.638   5.378  0.2829 -0.8468 -0.0998
  524MOL0     H69135  11.211   2.719   5.232 -0.3962  0.6477 -0.3892
  524MOL0     H69136  11.260   2.510   5.095 -1.1974  1.1872  0.3072
  524MOL0     H69137  11.233   2.416   5.245 -0.4337 -1.6375 -3.5452
  524MOL0     H69138  11.459   2.428   5.161  1.1373  1.9798 -2.1891
  524MOL0     H69139  11.458   2.503   5.322  0.5904 -5.5259 -0.3936
  524MOL0     H69140  11.463   2.737   5.201 -0.4265  0.2394  1.6661
  524MOL0     H69141  11.600   2.636   5.158 -0.1981 -1.8141  0.4425
  524MOL0     H69142  11.349   2.704   4.997  0.6408  1.3294 -0.8564
  524MOL0     H69143  11.432   2.554   4.953 -2.7753  1.1356  0.7824
  524MOL0     H69144  11.653   2.726   4.944 -0.1035 -1.3606 -0.3340
  524MOL0     H69145  11.511   2.839   4.921 -0.1344 -0.7810 -0.0720
  524MOL0     H69146  11.610   2.596   4.763  2.3867  1.1874  2.3088
  524MOL0     H69147  11.440   2.659   4.744  0.6123 -1.8949  0.2982
  524MOL0     H69148  11.594   2.767   4.562 -0.8015  0.8388 -0.5282
  524MOL0     H69149  11.681   2.832   4.695 -0.7476  1.1373 -1.9791
  524MOL0     H69150  10.825   2.586   5.222 -2.6232 -0.8819  2.5396
  524MOL0     H69151  10.659   2.765   5.242  0.2729 -1.4854 -0.0964
  524MOL0     H69152  10.537   3.071   5.569 -2.4731 -0.1875  2.3181
  524MOL0     H69153  10.381   3.199   5.676  0.1754 -1.5397 -0.1246
  524MOL0     H69154  10.107   2.588   6.897 -0.1577 -0.3406 -1.2421
  524MOL0     H69155  10.050   2.779   7.034  1.8873 -4.4629 -0.6689
  524MOL0     H69156   9.872   3.121   7.151 -0.8584  1.1451  1.2726
  524MOL0     H69157   9.742   3.270   7.300  3.2393 -2.2380 -0.8710
  524MOL0     H69158   9.671   3.485   7.299 -0.6576 -0.1758  0.1939
  524MOL0     H69159   9.535   3.549   7.373 -1.7556 -0.0208  0.2296
  524MOL0     H69160   9.654   3.675   7.151  0.8239  1.0928  2.6153
  524MOL0     H69161   9.515   3.575   7.076  0.2713 -1.2042  0.1530
  524MOL0     H69162   9.471   3.806   7.268 -0.3513  1.2924 -0.6449
  524MOL0     H69163   9.348   3.688   7.225 -0.1037  1.2542 -1.3994
  524MOL0     H69164   9.497   3.819   7.003 -1.1302 -0.7977 -1.3599
  524MOL0     H69165   9.348   3.735   7.007  2.4572 -4.5535  2.2093
  524MOL0     H69166   9.225   4.131   7.093  0.0700  0.6934  1.1034
  524MOL0     H69167   9.463   3.360   6.983 -0.8927 -1.3580 -1.0835
  524MOL0     H69168   9.562   3.194   6.843  0.8017 -0.9573 -0.6365
  525MOL0     O69169   4.729   8.665   6.013  0.1059  0.3735 -0.2528
  525MOL0     C69170   4.763   8.576   6.091 -0.2379 -0.5829 -0.4294
  525MOL0     O69171   4.882   8.499   6.082  0.9674 -0.0705  1.2838
  525MOL0     C69172   4.949   8.517   5.964  0.4142 -0.0796  0.5092
  525MOL0     C69173   5.072   8.587   5.970  0.0022 -0.4582 -0.1677
  525MOL0     C69174   5.154   8.569   5.856 -0.1073 -0.1662 -0.6395
  525MOL0     C69175   5.106   8.490   5.749 -0.9022 -0.6641  0.2904
  525MOL0     O69176   5.195   8.487   5.648 -0.4250 -0.3558  0.1628
  525MOL0     C69177   5.133   8.512   5.517  0.1273 -0.1554 -0.8348
  525MOL0     C69178   5.149   8.391   5.418 -0.2949  0.2310  0.0002
  525MOL0     C69179   5.289   8.332   5.416 -0.6238  0.1767  0.4665
  525MOL0     C69180   5.307   8.221   5.315  0.4309  0.0054 -0.8193
  525MOL0     C69181   5.342   8.284   5.173 -0.2274 -0.1435  1.1100
  525MOL0     C69182   5.498   8.312   5.174  0.0070  0.7754 -0.0373
  525MOL0     C69183   5.553   8.391   5.061  1.0120  0.3998  0.1905
  525MOL0     C69184   5.664   8.318   4.999  0.1701  0.3964 -0.3536
  525MOL0     N69185   5.736   8.410   4.909  0.2043  0.9750  0.8127
  525MOL0     C69186   5.858   8.477   4.943  1.0214 -0.1228 -0.0106
  525MOL0     C69187   5.874   8.553   4.827  0.3112 -0.8606 -0.5917
  525MOL0     C69188   5.981   8.647   4.789 -0.5675 -0.3425 -0.1927
  525MOL0     C69189   6.103   8.566   4.775  0.3774 -0.6243 -0.2719
  525MOL0     C69190   6.113   8.436   4.690 -0.2874  0.4979 -0.5945
  525MOL0     C69191   6.079   8.467   4.552 -0.8797 -0.9563 -0.0146
  525MOL0     O69192   6.138   8.379   4.457  0.1709 -0.3461 -0.6033
  525MOL0     C69193   6.097   8.391   4.334 -0.4478 -0.9773  1.0854
  525MOL0     C69194   6.151   8.306   4.244 -0.2126  0.3742 -0.4901
  525MOL0     C69195   6.112   8.292   4.111 -0.1717 -0.7763  0.4956
  525MOL0     C69196   6.007   8.379   4.064 -0.2326 -0.2184 -0.2149
  525MOL0     C69197   5.957   8.372   3.923  1.1042 -0.5866 -0.4431
  525MOL0     O69198   6.021   8.286   3.848 -0.4556  0.6416 -0.1375
  525MOL0     C69199   5.968   8.223   3.731 -0.3723  0.4310 -0.2056
  525MOL0     C69200   6.040   8.212   3.610  0.0129 -0.3587  0.1588
  525MOL0     C69201   6.000   8.142   3.493 -0.7460 -0.4526 -0.7491
  525MOL0     C69202   5.866   8.095   3.495 -0.0232 -0.1007  0.4056
  525MOL0     O69203   5.825   8.021   3.393 -0.0655 -0.6985  0.7881
  525MOL0     C69204   5.739   8.092   3.299 -0.6303  0.7313  0.4651
  525MOL0     C69205   5.590   8.115   3.352 -0.0731  0.7229 -0.3525
  525MOL0     C69206   5.487   8.159   3.247  0.1921  0.1766 -0.5165
  525MOL0     C69207   5.493   8.073   3.119  0.5732 -0.2762  0.1432
  525MOL0     C69208   5.366   8.083   3.035 -0.3765  1.2705  0.1381
  525MOL0     C69209   5.353   7.996   2.910  0.0854 -0.2917  1.0024
  525MOL0     C69210   5.219   8.039   2.841 -0.3723 -1.0388 -0.5827
  525MOL0     C69211   5.183   7.958   2.719  0.5136 -0.1816 -0.1513
  525MOL0    Cl69212   5.292   7.990   2.575 -0.1940  0.0992  0.2185
  525MOL0     C69213   5.783   8.115   3.608  0.8899  0.9197 -0.0084
  525MOL0     C69214   5.833   8.171   3.732 -0.4076  0.3908  0.6982
  525MOL0     O69215   5.847   8.421   3.890 -0.2296  0.0588  0.1133
  525MOL0     C69216   5.950   8.472   4.149 -0.2423  0.5243 -0.9010
  525MOL0     C69217   5.988   8.478   4.283  0.7025 -0.7451  0.0242
  525MOL0     N69218   5.763   8.533   4.735  0.1180 -0.0376  0.2077
  525MOL0     N69219   5.692   8.437   4.786  0.6453  0.2182 -0.5044
  525MOL0     C69220   4.990   8.426   5.749 -0.3994 -0.0475  0.4270
  525MOL0     C69221   4.911   8.443   5.863 -0.6634 -0.3052  0.5398
  525MOL0     C69222   4.668   8.543   6.201  0.5804 -0.5085  0.3239
  525MOL0     C69223   4.568   8.631   6.252 -1.6294 -0.3052  0.1868
  525MOL0     C69224   4.464   8.593   6.341  0.7005  0.6481  0.4706
  525MOL0     C69225   4.464   8.458   6.381 -0.1241  0.6989 -0.4764
  525MOL0     O69226   4.352   8.417   6.455  0.6408 -0.4512 -0.7050
  525MOL0     C69227   4.272   8.325   6.393  0.7919 -0.3623 -0.1113
  525MOL0     C69228   4.242   8.220   6.497 -0.2653  0.0120  0.0293
  525MOL0     C69229   4.176   8.271   6.619 -0.7339 -0.0914 -0.7215
  525MOL0     C69230   4.021   8.283   6.605 -0.6956 -0.7726 -0.2855
  525MOL0     C69231   3.968   8.374   6.710 -0.5479 -0.4169  0.5968
  525MOL0     C69232   3.907   8.436   6.795 -0.8156 -0.5935 -0.5869
  525MOL0     C69233   4.567   8.368   6.333 -0.2711 -0.7062 -0.1195
  525MOL0     C69234   4.666   8.419   6.253 -0.5265  0.4974  0.3998
  525MOL0     H69235   5.114   8.639   6.055 -0.9579 -2.6291  1.7382
  525MOL0     H69236   5.258   8.596   5.847  1.4505 -3.3760  4.0156
  525MOL0     H69237   5.187   8.599   5.480  0.3588  1.1532  2.3107
  525MOL0     H69238   5.031   8.550   5.531  0.5856  0.9371 -0.3733
  525MOL0     H69239   5.112   8.420   5.320  1.0812  3.5465  0.3579
  525MOL0     H69240   5.082   8.312   5.456 -2.2597  1.3677 -0.9652
  525MOL0     H69241   5.319   8.304   5.517  0.5878 -1.5394 -0.3230
  525MOL0     H69242   5.359   8.410   5.386  0.2781 -1.1023 -0.8297
  525MOL0     H69243   5.385   8.156   5.357 -0.4517 -0.9391 -0.6105
  525MOL0     H69244   5.214   8.166   5.299  1.2691 -1.2247 -1.7538
  525MOL0     H69245   5.290   8.379   5.158  0.8554  0.3511  0.3989
  525MOL0     H69246   5.316   8.220   5.088 -1.3279  0.4968  0.9453
  525MOL0     H69247   5.558   8.222   5.195  0.5236  1.7587  3.3083
  525MOL0     H69248   5.524   8.371   5.262  0.3176 -2.6686  2.4207
  525MOL0     H69249   5.475   8.424   4.990  1.0729 -0.3339 -0.2242
  525MOL0     H69250   5.590   8.483   5.107 -0.1996  0.1904  1.6445
  525MOL0     H69251   5.625   8.227   4.953 -0.6405  1.7208 -2.4851
  525MOL0     H69252   5.728   8.303   5.086  0.1418  1.3646 -0.1517
  525MOL0     H69253   5.915   8.479   5.035  1.3595  0.1834 -0.2232
  525MOL0     H69254   5.988   8.715   4.874 -3.4762 -0.4421  0.2367
  525MOL0     H69255   5.952   8.708   4.703 -2.0213 -0.4800  0.1715
  525MOL0     H69256   6.118   8.520   4.873 -3.1210 -1.7292 -0.1359
  525MOL0     H69257   6.192   8.629   4.762  0.0326  0.4088  1.9863
  525MOL0     H69258   6.217   8.403   4.698  0.0421  1.4582 -0.7473
  525MOL0     H69259   6.044   8.362   4.730 -0.8533  0.4989 -1.5375
  525MOL0     H69260   6.086   8.575   4.531  2.0746 -0.8630  1.0658
  525MOL0     H69261   5.973   8.446   4.536 -0.5023 -0.4272 -4.2228
  525MOL0     H69262   6.230   8.244   4.287  0.3370  0.3719 -1.4637
  525MOL0     H69263   6.160   8.215   4.051 -0.7482 -2.0323  1.5802
  525MOL0     H69264   6.139   8.255   3.612 -0.0099 -0.1843 -1.1915
  525MOL0     H69265   6.072   8.128   3.413  2.2319 -1.7706  1.9625
  525MOL0     H69266   5.740   8.039   3.203  1.0119  1.7632 -0.1225
  525MOL0     H69267   5.799   8.177   3.267  3.7521 -2.6380 -1.3209
  525MOL0     H69268   5.587   8.197   3.424  0.1553 -0.9981  1.7380
  525MOL0     H69269   5.551   8.030   3.409 -0.0640  0.3310 -0.9247
  525MOL0     H69270   5.512   8.264   3.233  3.3884 -0.3942  0.1079
  525MOL0     H69271   5.392   8.140   3.297  0.6617 -0.2749  0.2224
  525MOL0     H69272   5.575   8.121   3.064 -0.3687  1.3709  0.1060
  525MOL0     H69273   5.514   7.967   3.138  1.3671 -0.5833 -2.1625
  525MOL0     H69274   5.349   8.186   3.002  2.1517  1.1671 -1.8673
  525MOL0     H69275   5.283   8.045   3.095  1.5620  1.1453  2.9494
  525MOL0     H69276   5.361   7.892   2.941  1.6498 -0.6157 -0.3359
  525MOL0     H69277   5.442   8.020   2.851 -0.9364  1.1927 -0.0154
  525MOL0     H69278   5.137   8.036   2.913 -0.5244  0.4519 -0.6530
  525MOL0     H69279   5.245   8.143   2.817  1.6331 -1.0962  1.0515
  525MOL0     H69280   5.083   7.993   2.692  0.8087 -1.5707 -3.5723
  525MOL0     H69281   5.175   7.849   2.725  0.3551 -0.1705 -0.1521
  525MOL0     H69282   5.684   8.072   3.600  1.8332 -1.0727 -2.3467
  525MOL0     H69283   5.775   8.160   3.823 -0.6777 -2.3683  0.2890
  525MOL0     H69284   5.873   8.538   4.111  0.6550 -0.3732 -4.7815
  525MOL0     H69285   5.931   8.543   4.349 -0.8165 -2.7170  0.7726
  525MOL0     H69286   4.950   8.367   5.668 -0.4114 -0.0713  0.4510
  525MOL0     H69287   4.821   8.382   5.859 -3.0503  2.9912 -2.1465
  525MOL0     H69288   4.573   8.732   6.211 -0.2996 -1.0345 -1.5944
  525MOL0     H69289   4.390   8.666   6.374  1.2642  0.8892  1.2279
  525MOL0     H69290   4.310   8.283   6.299 -2.5967 -1.9469 -0.9335
  525MOL0     H69291   4.179   8.377   6.366  2.6901  2.1902 -2.2439
  525MOL0     H69292   4.171   8.144   6.463  0.4613 -0.0205 -1.5365
  525MOL0     H69293   4.340   8.183   6.527  0.6261 -0.1598 -2.7540
  525MOL0     H69294   4.206   8.374   6.638 -1.5289 -0.2736  1.9656
  525MOL0     H69295   4.202   8.210   6.706  3.7530 -1.5292 -2.7414
  525MOL0     H69296   3.989   8.329   6.511  0.3205 -2.4648 -1.5032
  525MOL0     H69297   3.986   8.180   6.614  1.2674 -1.5607 -1.2639
  525MOL0     H69298   3.852   8.489   6.870  2.0778 -0.6117  1.7266
  525MOL0     H69299   4.558   8.266   6.368 -1.7710 -0.5047  0.1233
  525MOL0     H69300   4.745   8.358   6.211 -1.1720  1.1693 -1.8832
  526MOL0     O69301  10.270  10.679  11.147  0.0861  0.3925 -0.6050
  526MOL0     C69302  10.356  10.756  11.118 -0.7059  0.2189  0.1771
  526MOL0     O69303  10.356  10.858  11.023  0.3420 -0.5492 -0.1383
  526MOL0     C69304  10.248  10.851  10.942  1.0379 -0.0974  0.2158
  526MOL0     C69305  10.154  10.958  10.929 -1.2939  0.3708 -0.4342
  526MOL0     C69306  10.042  10.944  10.853 -0.4391 -0.2143  0.0754
  526MOL0     C69307  10.027  10.827  10.776  0.1006  0.3339 -0.6900
  526MOL0     O69308   9.915  10.801  10.695  0.7297  0.1829  0.0076
  526MOL0     C69309   9.843  10.922  10.650  0.1249  0.4919  0.5996
  526MOL0     C69310   9.757  10.897  10.523 -0.2330  0.6875 -0.5722
  526MOL0     C69311   9.838  10.861  10.400 -1.1359  0.9274  0.0037
  526MOL0     C69312   9.750  10.786  10.294  1.1836  0.9226  0.0703
  526MOL0     C69313   9.819  10.664  10.224  0.1374 -0.5037  0.4317
  526MOL0     C69314   9.904  10.707  10.107  0.6212 -0.6082 -0.2809
  526MOL0     C69315   9.954  10.581  10.049 -0.9786 -0.2738  0.0064
  526MOL0     C69316  10.021  10.591   9.906  1.1030 -0.1695 -0.3359
  526MOL0     N69317  10.061  10.453   9.859 -0.5625  0.5004  0.3787
  526MOL0     C69318   9.987  10.336   9.855 -0.3961  0.6709  0.7957
  526MOL0     C69319  10.059  10.253   9.773  0.0023 -0.2424  0.6273
  526MOL0     C69320  10.011  10.116   9.738  0.8502  0.2999  0.4941
  526MOL0     C69321  10.023  10.075   9.591 -0.5169 -0.7832 -0.2416
  526MOL0     C69322   9.964   9.932   9.564  0.7139 -0.8430  0.4056
  526MOL0     C69323  10.062   9.817   9.552  0.6464  0.4746  0.4382
  526MOL0     O69324  10.135   9.822   9.677  0.4014  0.2997 -0.6195
  526MOL0     C69325  10.202   9.706   9.703 -0.7117  0.2260 -0.3007
  526MOL0     C69326  10.297   9.708   9.809 -0.5922 -0.9922  0.7824
  526MOL0     C69327  10.405   9.622   9.825  0.5512  0.3778 -0.5015
  526MOL0     C69328  10.413   9.515   9.731  0.3132  0.3800  0.2054
  526MOL0     C69329  10.521   9.409   9.748 -0.4643 -0.7448 -1.0681
  526MOL0     O69330  10.592   9.417   9.863  0.5026 -0.8814  0.5866
  526MOL0     C69331  10.687   9.325   9.886 -0.4875 -0.0203  0.4685
  526MOL0     C69332  10.816   9.358   9.884 -0.5451 -0.2094 -0.0513
  526MOL0     C69333  10.914   9.270   9.928  0.2632 -0.3216 -0.0056
  526MOL0     C69334  10.881   9.139   9.961 -0.8441  0.0855 -0.0452
  526MOL0     O69335  10.981   9.060  10.000 -0.4070 -0.4900 -0.8647
  526MOL0     C69336  10.981   9.028  10.152 -0.6973  0.0464  0.7406
  526MOL0     C69337  10.985   9.159  10.244  0.4390  1.1347 -0.0716
  526MOL0     C69338  11.112   9.231  10.228 -0.3678  0.0602 -0.2561
  526MOL0     C69339  11.111   9.356  10.324  0.6265 -0.1542  0.5793
  526MOL0     C69340  11.084   9.489  10.235 -0.8875 -0.7346 -0.2714
  526MOL0     C69341  10.938   9.503  10.206  0.0637  0.8213  0.7699
  526MOL0     C69342  10.890   9.634  10.137  0.5533  0.2363  0.6817
  526MOL0     C69343  10.741   9.609  10.118  0.4050  0.8982 -0.2840
  526MOL0    Cl69344  10.670   9.747  10.001  0.0442 -0.3500  0.0525
  526MOL0     C69345  10.750   9.099   9.961 -0.3473  0.2228 -0.5406
  526MOL0     C69346  10.650   9.190   9.920  1.1640 -1.3513  0.3667
  526MOL0     O69347  10.545   9.334   9.650 -0.2470 -0.1171 -0.0634
  526MOL0     C69348  10.319   9.505   9.632  0.3948 -0.6333 -0.3688
  526MOL0     C69349  10.220   9.600   9.608 -0.7687 -0.5590 -0.3694
  526MOL0     N69350  10.181  10.311   9.726  0.5537 -0.4776 -0.4149
  526MOL0     N69351  10.182  10.428   9.795  0.1478 -0.1817  0.5820
  526MOL0     C69352  10.117  10.720  10.786 -1.3194  0.3686 -0.3832
  526MOL0     C69353  10.228  10.729  10.868  0.0623 -0.0515  1.2874
  526MOL0     C69354  10.458  10.754  11.217 -0.7363  1.1431 -0.7178
  526MOL0     C69355  10.562  10.843  11.214  0.4716  0.1372  0.2013
  526MOL0     C69356  10.658  10.851  11.316 -0.1960 -0.6511  0.6688
  526MOL0     C69357  10.661  10.769  11.426  0.1310  0.6824 -0.2803
  526MOL0     O69358  10.753  10.803  11.521  0.1261  0.6262 -0.2080
  526MOL0     C69359  10.769  10.729  11.647  1.1120  0.0567  0.4210
  526MOL0     C69360  10.846  10.603  11.640 -0.6113  0.6628  1.3545
  526MOL0     C69361  10.994  10.637  11.617 -0.4209 -0.1428  0.1221
  526MOL0     C69362  11.087  10.515  11.596 -0.4162  0.4922  0.8893
  526MOL0     C69363  11.053  10.434  11.475  0.1914 -0.7372 -0.8393
  526MOL0     C69364  11.050  10.372  11.369  0.1582  0.2168 -0.0286
  526MOL0     C69365  10.574  10.657  11.416  0.9992  0.1733  0.1360
  526MOL0     C69366  10.469  10.651  11.311  0.5331 -0.1147  0.4648
  526MOL0     H69367  10.169  11.057  10.972  3.7397 -0.2429 -0.1608
  526MOL0     H69368   9.969  11.024  10.854 -1.2124 -0.8779 -1.1018
  526MOL0     H69369   9.918  10.998  10.627  0.9529 -1.6152 -5.2840
  526MOL0     H69370   9.775  10.956  10.729  0.6188 -0.9979  1.7264
  526MOL0     H69371   9.694  10.981  10.490 -0.9979 -0.5656 -2.4813
  526MOL0     H69372   9.678  10.828  10.554  0.8322 -0.0236  0.6080
  526MOL0     H69373   9.918  10.789  10.417 -1.4351  0.1263 -1.7451
  526MOL0     H69374   9.877  10.955  10.360  1.1197  1.0567  2.3084
  526MOL0     H69375   9.672  10.724  10.340  0.0478  1.0579 -1.5554
  526MOL0     H69376   9.692  10.853  10.229 -0.4739  0.6684  1.2353
  526MOL0     H69377   9.740  10.601  10.182 -1.4720  0.6290  1.6477
  526MOL0     H69378   9.875  10.594  10.288 -0.3188 -0.6027  0.7279
  526MOL0     H69379   9.984  10.776  10.136  1.4918 -1.2846 -1.0125
  526MOL0     H69380   9.838  10.758  10.037  1.5306  1.6686  0.4217
  526MOL0     H69381  10.038  10.551  10.112  1.8569  3.4150 -1.6293
  526MOL0     H69382   9.881  10.500  10.045  0.3871 -1.5774  0.3700
  526MOL0     H69383  10.106  10.659   9.898  3.0949 -2.0207  2.8590
  526MOL0     H69384   9.943  10.619   9.834  0.6217  5.2758  1.8149
  526MOL0     H69385   9.883  10.322   9.883 -0.0214 -0.1239  1.8330
  526MOL0     H69386   9.903  10.116   9.759  0.4055 -0.0721 -1.5748
  526MOL0     H69387  10.060  10.043   9.802 -2.4748  0.4051  3.4443
  526MOL0     H69388  10.129  10.080   9.563  0.3730 -0.1864  2.8784
  526MOL0     H69389   9.963  10.148   9.536 -1.5667 -1.3378  0.1372
  526MOL0     H69390   9.891   9.900   9.639 -1.6590 -0.7003 -1.7224
  526MOL0     H69391   9.914   9.930   9.467  0.4583  0.4758  0.4848
  526MOL0     H69392  10.129   9.818   9.465  1.3149  0.1491  0.9393
  526MOL0     H69393  10.008   9.723   9.539  1.8888  0.0451 -2.2940
  526MOL0     H69394  10.284   9.800   9.865 -4.9668 -0.0036 -1.4526
  526MOL0     H69395  10.474   9.641   9.906  1.0216 -1.5222 -0.4204
  526MOL0     H69396  10.837   9.458   9.849 -3.1002  0.9277  1.3987
  526MOL0     H69397  11.019   9.294   9.934  0.2419 -0.2023 -0.1110
  526MOL0     H69398  11.064   8.957  10.165 -3.2339 -3.5062 -0.7861
  526MOL0     H69399  10.894   8.968  10.180 -0.1364 -1.6597 -0.9237
  526MOL0     H69400  10.980   9.132  10.350 -1.2963  0.6002 -0.2607
  526MOL0     H69401  10.900   9.224  10.219 -0.5471  0.2307  0.8402
  526MOL0     H69402  11.136   9.255  10.124 -0.4899  1.0725 -0.0603
  526MOL0     H69403  11.195   9.169  10.263 -0.5092 -1.1718 -1.9544
  526MOL0     H69404  11.043   9.338  10.407  0.5521 -4.6404 -0.2075
  526MOL0     H69405  11.212   9.364  10.366  2.0210 -1.5145 -2.2452
  526MOL0     H69406  11.125   9.491  10.134  1.1648 -2.4312  0.4608
  526MOL0     H69407  11.119   9.574  10.296  0.8038 -2.5863  1.4907
  526MOL0     H69408  10.881   9.483  10.297  0.1664 -1.5894  0.3499
  526MOL0     H69409  10.922   9.423  10.134  3.9430  1.0501 -0.5792
  526MOL0     H69410  10.912   9.727  10.190 -1.0606  1.0170  0.0362
  526MOL0     H69411  10.938   9.638  10.039 -2.1792 -0.3908 -0.7962
  526MOL0     H69412  10.679   9.602  10.208  1.1221 -0.6943  0.1229
  526MOL0     H69413  10.723   9.511  10.072 -1.4078  0.9880  0.1557
  526MOL0     H69414  10.726   9.001  10.002 -0.7156 -0.3452 -2.0524
  526MOL0     H69415  10.546   9.173   9.943  0.9264 -2.4226 -1.3601
  526MOL0     H69416  10.335   9.415   9.574 -0.0564 -1.6450  1.0275
  526MOL0     H69417  10.158   9.597   9.519 -2.2816  1.1604  0.5618
  526MOL0     H69418  10.109  10.637  10.717  3.0513 -1.3599  0.8579
  526MOL0     H69419  10.301  10.649  10.872  0.2661  0.1126  0.9520
  526MOL0     H69420  10.572  10.904  11.125  1.5592 -1.0902 -0.5516
  526MOL0     H69421  10.739  10.922  11.299 -1.3801 -0.2781 -5.7756
  526MOL0     H69422  10.669  10.703  11.684 -0.7998  1.9325 -2.8885
  526MOL0     H69423  10.822  10.796  11.716  1.7143 -2.2847  2.3385
  526MOL0     H69424  10.831  10.548  11.733 -1.1156  1.2330  1.6218
  526MOL0     H69425  10.803  10.537  11.564 -1.0628  2.2297  0.1825
  526MOL0     H69426  11.037  10.711  11.685 -3.5250  2.8404 -0.8926
  526MOL0     H69427  11.001  10.693  11.524 -0.4458 -1.6893 -0.8431
  526MOL0     H69428  11.194  10.539  11.607 -0.9953  2.7172  2.4627
  526MOL0     H69429  11.062  10.445  11.676  1.4163 -1.6115 -0.2491
  526MOL0     H69430  11.047  10.288  11.304 -2.6368 -0.2275  0.5196
  526MOL0     H69431  10.587  10.577  11.488 -0.5776  2.1012  2.7648
  526MOL0     H69432  10.402  10.565  11.315 -1.0442  0.9325 -1.5084
  527MOL0     O69433   3.635   9.487  11.032  0.0770  0.0747  0.4162
  527MOL0     C69434   3.685   9.596  11.047  0.3534 -0.3646  1.1039
  527MOL0     O69435   3.786   9.644  10.965  0.3047  0.4226 -0.1191
  527MOL0     C69436   3.856   9.571  10.869  0.2699  0.5866 -0.4775
  527MOL0     C69437   3.826   9.446  10.810 -0.5852  0.5418 -0.2403
  527MOL0     C69438   3.916   9.398  10.703  0.0645  0.8621 -0.5442
  527MOL0     C69439   4.030   9.461  10.675 -0.1821 -0.7596  0.3662
  527MOL0     O69440   4.119   9.403  10.589  0.2798 -0.4854  0.1034
  527MOL0     C69441   4.070   9.427  10.457  1.0298 -1.0808  0.9608
  527MOL0     C69442   4.091   9.310  10.365  0.0940  0.0934 -0.9659
  527MOL0     C69443   4.240   9.296  10.328 -0.0020  0.0850  0.4590
  527MOL0     C69444   4.269   9.177  10.227 -1.4477  0.3886  0.2594
  527MOL0     C69445   4.412   9.171  10.197  1.0823 -0.0670 -0.0379
  527MOL0     C69446   4.495   9.115  10.310 -1.0330  0.2770 -0.0387
  527MOL0     C69447   4.605   9.035  10.237  0.0771 -0.3876  0.8214
  527MOL0     C69448   4.682   8.972  10.354  0.4068  0.3653  0.8708
  527MOL0     N69449   4.790   8.890  10.312  0.3540  0.6330  1.1240
  527MOL0     C69450   4.895   8.855  10.386 -0.2272 -0.4419  0.0327
  527MOL0     C69451   4.981   8.781  10.309  0.6084 -0.1101  0.2947
  527MOL0     C69452   5.117   8.732  10.352 -0.1126  1.0226 -0.6657
  527MOL0     C69453   5.230   8.832  10.347  0.2072 -0.8850  0.8566
  527MOL0     C69454   5.266   8.865  10.204 -0.1969 -0.6918  0.5935
  527MOL0     C69455   5.385   8.972  10.205  0.0095  1.0329  0.8397
  527MOL0     O69456   5.490   8.918  10.284 -1.4737 -0.7094  0.1682
  527MOL0     C69457   5.557   9.002  10.362 -0.3398 -0.0699  0.3559
  527MOL0     C69458   5.577   9.141  10.339  0.7586  0.5635 -0.0890
  527MOL0     C69459   5.645   9.221  10.428 -0.5253 -0.5018  0.2384
  527MOL0     C69460   5.695   9.157  10.547 -0.3013  0.2917  0.1394
  527MOL0     C69461   5.762   9.249  10.640  0.0984  0.4925 -1.1249
  527MOL0     O69462   5.794   9.185  10.755 -0.3639  0.3367 -0.2414
  527MOL0     C69463   5.871   9.260  10.844  0.3674  0.5598  0.0286
  527MOL0     C69464   5.990   9.312  10.811 -1.1791 -0.4696 -0.2346
  527MOL0     C69465   6.067   9.382  10.901 -0.0217  0.7902 -0.9937
  527MOL0     C69466   6.028   9.394  11.035  0.0829  0.0951 -0.6933
  527MOL0     O69467   6.089   9.458  11.136 -0.6629 -0.2272  0.3374
  527MOL0     C69468   6.222   9.511  11.123 -0.1705 -0.2419 -0.1953
  527MOL0     C69469   6.326   9.398  11.131  0.5847 -0.4157  0.1193
  527MOL0     C69470   6.342   9.345  11.278  0.6850 -0.4903  1.0906
  527MOL0     C69471   6.442   9.232  11.289  0.9325  0.1031  0.2766
  527MOL0     C69472   6.487   9.197  11.428  0.9665  0.4796  0.0508
  527MOL0     C69473   6.590   9.294  11.471 -0.0608  0.0309  0.3194
  527MOL0     C69474   6.639   9.293  11.626  0.6799 -0.0735  0.5812
  527MOL0     C69475   6.547   9.372  11.708 -0.2357 -0.4067 -0.7709
  527MOL0    Cl69476   6.627   9.372  11.880  0.7163  0.6506  0.3367
  527MOL0     C69477   5.912   9.325  11.069  0.4418 -0.1460 -0.0147
  527MOL0     C69478   5.833   9.260  10.980  1.4549 -0.1177  0.1394
  527MOL0     O69479   5.774   9.370  10.624  0.0848  0.1774 -0.4731
  527MOL0     C69480   5.668   9.017  10.573 -0.3950 -0.4476  0.3833
  527MOL0     C69481   5.606   8.940  10.474 -0.7195 -0.6324  0.2638
  527MOL0     N69482   4.923   8.769  10.183  0.1360 -1.1678 -0.3284
  527MOL0     N69483   4.804   8.830  10.188 -0.4657  0.3736 -0.2457
  527MOL0     C69484   4.043   9.592  10.714 -0.0197 -0.5751  0.1579
  527MOL0     C69485   3.973   9.632  10.827 -1.0992  0.1561  0.2431
  527MOL0     C69486   3.649   9.678  11.162  1.0932  0.0354 -0.0059
  527MOL0     C69487   3.714   9.800  11.189  0.2888  1.1953 -0.6608
  527MOL0     C69488   3.669   9.876  11.300 -0.0893 -0.6803 -0.3575
  527MOL0     C69489   3.544   9.845  11.365 -0.0628  0.2682  0.5332
  527MOL0     O69490   3.485   9.933  11.454  0.1270 -0.0612  0.0202
  527MOL0     C69491   3.542  10.060  11.488  0.7215 -0.2516 -0.1322
  527MOL0     C69492   3.525  10.178  11.388  0.4641 -0.3249  0.0182
  527MOL0     C69493   3.379  10.216  11.344 -0.1763  0.4165 -1.0442
  527MOL0     C69494   3.285  10.250  11.465 -0.6181  0.1378 -0.2231
  527MOL0     C69495   3.344  10.319  11.577 -0.4328 -0.5940 -1.3462
  527MOL0     C69496   3.387  10.382  11.669 -0.3190 -0.3172 -0.0454
  527MOL0     C69497   3.489   9.717  11.341 -0.3744 -0.2017  0.1578
  527MOL0     C69498   3.546   9.630  11.243 -0.0873 -0.9585  0.4789
  527MOL0     H69499   3.746   9.385  10.851 -1.6942  1.8676 -0.3622
  527MOL0     H69500   3.904   9.306  10.647  1.2645 -0.5506  1.4109
  527MOL0     H69501   4.104   9.518  10.407 -1.9782 -0.3292  0.1003
  527MOL0     H69502   3.963   9.445  10.455  1.0721 -0.8876  0.4120
  527MOL0     H69503   4.018   9.322  10.285 -2.4252 -0.9622  1.0171
  527MOL0     H69504   4.069   9.214  10.413  0.3186 -0.6162 -2.2457
  527MOL0     H69505   4.302   9.286  10.417  1.4202  1.6802 -0.2779
  527MOL0     H69506   4.268   9.391  10.281  0.5242 -1.8442 -3.4818
  527MOL0     H69507   4.234   9.082  10.269 -1.2697 -0.5061 -1.5255
  527MOL0     H69508   4.205   9.197  10.140 -0.1757 -1.0573 -1.0850
  527MOL0     H69509   4.440   9.273  10.169  1.4082 -0.0167  0.4695
  527MOL0     H69510   4.420   9.111  10.105 -0.9889  0.4227 -0.5976
  527MOL0     H69511   4.433   9.044  10.365  1.4660 -1.9042  0.1363
  527MOL0     H69512   4.534   9.191  10.379  0.9342 -0.1884 -0.5606
  527MOL0     H69513   4.567   8.946  10.185 -0.1139 -0.4172  1.0115
  527MOL0     H69514   4.655   9.091  10.158 -1.0765  1.6042  1.4361
  527MOL0     H69515   4.615   8.910  10.414 -0.0850  0.2916  0.2595
  527MOL0     H69516   4.720   9.049  10.421 -0.2169  1.8838 -0.4472
  527MOL0     H69517   4.915   8.881  10.490  1.2659 -0.8684 -0.1244
  527MOL0     H69518   5.150   8.652  10.285 -0.0035  2.0823 -1.9232
  527MOL0     H69519   5.107   8.705  10.457 -0.1017  2.1369 -0.3610
  527MOL0     H69520   5.316   8.783  10.393  0.9947 -2.0157 -1.6256
  527MOL0     H69521   5.206   8.917  10.412  3.8643  1.7862 -0.9382
  527MOL0     H69522   5.285   8.781  10.136  1.9441  0.3910 -0.2323
  527MOL0     H69523   5.195   8.930  10.152 -1.1732 -0.9099  1.6064
  527MOL0     H69524   5.344   9.067  10.242  1.5484  1.5245  1.3316
  527MOL0     H69525   5.416   8.983  10.101  2.8985 -3.9337  0.8471
  527MOL0     H69526   5.539   9.190  10.250 -1.3582  0.2528  0.5890
  527MOL0     H69527   5.677   9.318  10.392  0.9601 -0.2183  2.1305
  527MOL0     H69528   6.019   9.310  10.706  2.9952 -0.7300  0.7339
  527MOL0     H69529   6.161   9.428  10.872  0.1751  1.5607  0.7265
  527MOL0     H69530   6.246   9.577  11.206 -2.4196  1.4423 -0.7981
  527MOL0     H69531   6.231   9.564  11.028 -3.7158 -1.6405 -1.5049
  527MOL0     H69532   6.420   9.436  11.090  0.0982 -0.7798 -1.4277
  527MOL0     H69533   6.291   9.312  11.073  1.6269  0.0001 -1.1874
  527MOL0     H69534   6.244   9.335  11.324 -1.4537  2.9202 -2.1212
  527MOL0     H69535   6.381   9.429  11.335  2.3145  0.4020 -1.1978
  527MOL0     H69536   6.398   9.135  11.262  1.1929 -0.0368  0.3410
  527MOL0     H69537   6.532   9.250  11.230 -0.0903  1.9774 -0.8039
  527MOL0     H69538   6.541   9.102  11.430  2.9585  1.4628 -2.1156
  527MOL0     H69539   6.407   9.201  11.502 -0.3838 -0.1103 -1.3078
  527MOL0     H69540   6.563   9.398  11.452  0.9970  0.4909  1.1787
  527MOL0     H69541   6.665   9.256  11.401 -2.0244  0.0074 -1.8894
  527MOL0     H69542   6.650   9.193  11.670 -0.6896 -1.1072 -1.2659
  527MOL0     H69543   6.742   9.329  11.632  0.9964 -1.0557  1.2943
  527MOL0     H69544   6.439   9.355  11.706 -0.3256 -0.1490  0.4986
  527MOL0     H69545   6.565   9.478  11.687 -3.2877  0.7408  1.6193
  527MOL0     H69546   5.897   9.332  11.177  0.7051  0.2398 -0.0000
  527MOL0     H69547   5.754   9.194  11.013  0.1490  1.5989  0.5582
  527MOL0     H69548   5.715   8.963  10.654  0.5128  1.1824  1.0041
  527MOL0     H69549   5.603   8.831  10.481  3.3647 -0.8094  2.3864
  527MOL0     H69550   4.131   9.642  10.676  0.9318 -2.6341 -0.5267
  527MOL0     H69551   4.006   9.729  10.864  1.3810 -0.2215 -0.7297
  527MOL0     H69552   3.799   9.837  11.131  1.1990  1.0713  0.5604
  527MOL0     H69553   3.723   9.970  11.299  1.6998 -1.6490 -1.6416
  527MOL0     H69554   3.649  10.044  11.504  0.1244 -4.4386  0.8407
  527MOL0     H69555   3.511  10.093  11.587 -0.0154 -1.1363 -0.0524
  527MOL0     H69556   3.581  10.265  11.425  0.2376 -0.4323  0.6217
  527MOL0     H69557   3.580  10.151  11.297 -0.3492  1.8989 -1.2107
  527MOL0     H69558   3.327  10.134  11.294 -1.3764 -0.0228  0.8390
  527MOL0     H69559   3.388  10.299  11.273 -1.1579  0.3629 -1.2432
  527MOL0     H69560   3.206  10.313  11.424  0.8199  2.5723  0.5701
  527MOL0     H69561   3.245  10.156  11.503  2.4891 -0.2824  2.3743
  527MOL0     H69562   3.433  10.445  11.741 -2.5866  2.3369 -0.7563
  527MOL0     H69563   3.396   9.689  11.388 -0.3976 -0.0070  0.2282
  527MOL0     H69564   3.507   9.529  11.234 -0.4758 -0.9876  2.0437
  528MOL0     O69565   6.310   3.594   9.573  0.4273 -0.4487 -0.0749
  528MOL0     C69566   6.388   3.566   9.663 -0.0015  0.7576 -0.0794
  528MOL0     O69567   6.420   3.434   9.708  0.0447  0.2757 -0.1936
  528MOL0     C69568   6.378   3.321   9.641  0.1376 -0.0486 -0.1397
  528MOL0     C69569   6.437   3.290   9.513  1.1506 -0.4541 -0.5107
  528MOL0     C69570   6.395   3.176   9.459  0.5996 -0.0118  0.2541
  528MOL0     C69571   6.294   3.096   9.519 -0.0468 -0.4978  0.3092
  528MOL0     O69572   6.239   2.989   9.455 -0.3482  0.3409 -0.1320
  528MOL0     C69573   6.313   2.908   9.358  0.0181  1.1323 -1.3154
  528MOL0     C69574   6.453   2.865   9.403  0.4250 -0.2119 -0.3451
  528MOL0     C69575   6.506   2.736   9.324  0.4890  0.2465  0.3030
  528MOL0     C69576   6.548   2.775   9.181  0.4598 -0.5585 -0.2549
  528MOL0     C69577   6.617   2.660   9.112 -0.0027  0.6449 -0.1235
  528MOL0     C69578   6.532   2.525   9.092  1.3361 -0.1264  0.8021
  528MOL0     C69579   6.567   2.459   8.953  0.0873 -0.0228  0.6803
  528MOL0     C69580   6.516   2.313   8.945 -0.5181  0.5930  0.1166
  528MOL0     N69581   6.536   2.246   8.816 -0.6785  0.3163 -0.0487
  528MOL0     C69582   6.437   2.175   8.756 -0.1651  0.3449 -0.0195
  528MOL0     C69583   6.472   2.169   8.626 -0.4217  0.9124  0.3097
  528MOL0     C69584   6.389   2.106   8.517  0.2847 -0.1306 -0.5140
  528MOL0     C69585   6.275   2.200   8.480 -0.1392 -0.0348  1.1558
  528MOL0     C69586   6.203   2.161   8.349 -0.2527  0.3244 -0.1578
  528MOL0     C69587   6.075   2.241   8.331 -0.4286 -0.1268 -0.7989
  528MOL0     O69588   5.977   2.214   8.441  0.2709 -0.1275  0.2174
  528MOL0     C69589   5.858   2.272   8.401  0.2115  0.7280  0.6031
  528MOL0     C69590   5.830   2.387   8.326 -0.1398  0.6253  0.3611
  528MOL0     C69591   5.704   2.438   8.308 -0.3681 -0.6219 -1.0521
  528MOL0     C69592   5.595   2.357   8.359 -0.3926  0.4787 -0.5663
  528MOL0     C69593   5.454   2.387   8.340  0.6479  0.4661  1.0840
  528MOL0     O69594   5.425   2.460   8.230  0.4084 -0.3444 -0.1890
  528MOL0     C69595   5.292   2.467   8.189 -0.0739 -0.9202 -0.0977
  528MOL0     C69596   5.202   2.368   8.203  0.1547  0.4960  0.2876
  528MOL0     C69597   5.068   2.393   8.177  0.1224  0.0126 -0.1428
  528MOL0     C69598   5.020   2.521   8.145  0.0875  0.7509 -0.7837
  528MOL0     O69599   4.881   2.536   8.126  0.1054 -0.3930 -0.6247
  528MOL0     C69600   4.825   2.668   8.150  0.2715  0.6978  0.3874
  528MOL0     C69601   4.678   2.648   8.188  0.9929 -0.2792  0.3190
  528MOL0     C69602   4.609   2.783   8.163 -0.5388  0.4534 -0.5205
  528MOL0     C69603   4.475   2.799   8.230  0.5220 -0.0698 -0.7570
  528MOL0     C69604   4.391   2.910   8.189 -1.0324  0.1166  0.4714
  528MOL0     C69605   4.263   2.921   8.263 -0.0494 -0.3875 -0.2814
  528MOL0     C69606   4.173   2.800   8.278  0.0129  0.3425 -0.2683
  528MOL0     C69607   4.023   2.833   8.306  0.3736  0.6975 -0.3661
  528MOL0    Cl69608   3.987   2.906   8.450 -0.5328  0.0574  0.5365
  528MOL0     C69609   5.111   2.627   8.133 -0.2851 -0.3308 -0.5511
  528MOL0     C69610   5.250   2.588   8.160  0.2947 -0.5113 -0.4585
  528MOL0     O69611   5.372   2.339   8.415 -0.8079  0.8219  0.7410
  528MOL0     C69612   5.625   2.238   8.428  0.0478 -0.2563 -0.2354
  528MOL0     C69613   5.756   2.198   8.446  0.2104 -0.6022 -0.5856
  528MOL0     N69614   6.595   2.231   8.598  0.3026  0.4805 -0.0493
  528MOL0     N69615   6.627   2.279   8.716 -0.5652 -0.4605  0.4686
  528MOL0     C69616   6.232   3.134   9.626 -1.3199 -0.5099 -0.4372
  528MOL0     C69617   6.286   3.236   9.701  0.4362 -0.8847 -0.3274
  528MOL0     C69618   6.448   3.675   9.742  0.8239 -0.3256  0.0538
  528MOL0     C69619   6.442   3.804   9.679 -0.7309  0.6145  0.5957
  528MOL0     C69620   6.477   3.920   9.765  0.2261  0.5529 -0.5600
  528MOL0     C69621   6.553   3.898   9.879  0.4802 -0.5888  0.2694
  528MOL0     O69622   6.602   4.008   9.958  0.3596 -0.2918 -0.3593
  528MOL0     C69623   6.618   4.129   9.894 -0.0799 -0.5136  1.0118
  528MOL0     C69624   6.492   4.211   9.903 -0.0234 -0.3451  0.2639
  528MOL0     C69625   6.481   4.312   9.800 -0.4477 -0.7557  0.9003
  528MOL0     C69626   6.338   4.363   9.773  0.4331  0.2408 -0.2692
  528MOL0     C69627   6.334   4.453   9.660 -0.3807  0.3736 -0.5528
  528MOL0     C69628   6.339   4.540   9.575  0.1688  1.0855 -0.8969
  528MOL0     C69629   6.571   3.773   9.931 -0.0971 -0.3515 -0.2112
  528MOL0     C69630   6.510   3.667   9.869 -0.1223 -0.1836 -0.6409
  528MOL0     H69631   6.502   3.355   9.456 -0.3088 -0.2773 -2.0513
  528MOL0     H69632   6.424   3.154   9.357 -1.2764  0.1042 -0.3591
  528MOL0     H69633   6.341   2.969   9.271  2.2049  1.9518 -0.1139
  528MOL0     H69634   6.252   2.825   9.321 -0.8783  1.1843 -0.0198
  528MOL0     H69635   6.440   2.838   9.508 -1.1174  1.9850  0.0972
  528MOL0     H69636   6.530   2.942   9.411  0.6436 -0.5352  0.8011
  528MOL0     H69637   6.435   2.654   9.322  0.0989  0.5845 -1.1125
  528MOL0     H69638   6.588   2.702   9.388  0.8776 -1.2098 -0.9102
  528MOL0     H69639   6.451   2.797   9.137 -0.1081  1.6974  1.8918
  528MOL0     H69640   6.610   2.865   9.181 -1.0198  0.4949 -1.2440
  528MOL0     H69641   6.709   2.645   9.169 -1.8768 -0.1249  2.9195
  528MOL0     H69642   6.644   2.696   9.012 -0.2719  1.4776  0.0992
  528MOL0     H69643   6.429   2.561   9.088  0.7487 -1.8365 -0.1301
  528MOL0     H69644   6.553   2.460   9.177 -0.6233  0.9718  2.2185
  528MOL0     H69645   6.510   2.505   8.872 -0.2668 -0.1160  0.8714
  528MOL0     H69646   6.675   2.463   8.934 -0.1387 -0.4871 -0.7909
  528MOL0     H69647   6.413   2.313   8.981 -0.5280  0.9795  0.0981
  528MOL0     H69648   6.578   2.260   9.018 -0.2350 -2.3028 -2.0585
  528MOL0     H69649   6.338   2.151   8.792  0.7361 -1.7128  1.3167
  528MOL0     H69650   6.337   2.019   8.557 -2.4339  2.2989  1.7942
  528MOL0     H69651   6.452   2.087   8.431  5.3330  1.2602  2.4427
  528MOL0     H69652   6.313   2.302   8.467 -0.2223 -0.1910 -0.4618
  528MOL0     H69653   6.203   2.209   8.562  2.1169  0.5887  3.2023
  528MOL0     H69654   6.258   2.185   8.258 -0.7243 -2.1111 -1.1586
  528MOL0     H69655   6.197   2.052   8.341 -0.0248  0.4590 -3.0560
  528MOL0     H69656   6.025   2.218   8.236 -0.5895  2.0048 -1.3002
  528MOL0     H69657   6.115   2.343   8.334 -0.2587 -0.2106  0.0240
  528MOL0     H69658   5.908   2.445   8.277  0.4238 -2.2973 -2.5436
  528MOL0     H69659   5.695   2.531   8.252  3.8014 -1.0220 -2.7633
  528MOL0     H69660   5.229   2.265   8.224 -0.0890  0.4955  0.5978
  528MOL0     H69661   5.007   2.306   8.199  2.1711 -1.1921  1.0744
  528MOL0     H69662   4.824   2.729   8.059  0.7601 -2.8476 -2.1837
  528MOL0     H69663   4.872   2.730   8.227 -0.7144 -1.5214  2.9250
  528MOL0     H69664   4.669   2.621   8.294  0.9541 -1.1434  0.1093
  528MOL0     H69665   4.632   2.568   8.129 -0.3027  0.3255  0.4845
  528MOL0     H69666   4.612   2.791   8.054  2.3959  1.0880 -0.4769
  528MOL0     H69667   4.679   2.863   8.190  1.6281 -1.0111 -1.5244
  528MOL0     H69668   4.414   2.709   8.218  1.1822 -0.8366  1.2250
  528MOL0     H69669   4.498   2.811   8.336  2.0410  2.5635 -1.2844
  528MOL0     H69670   4.387   2.902   8.080  3.7104  1.4596 -0.0297
  528MOL0     H69671   4.453   2.998   8.208  2.1697 -1.4993 -1.6675
  528MOL0     H69672   4.207   2.994   8.203  0.4930 -0.1465 -0.5055
  528MOL0     H69673   4.290   2.948   8.365  0.0293 -2.1973  0.1958
  528MOL0     H69674   4.163   2.752   8.181 -1.1057  1.4681 -0.7357
  528MOL0     H69675   4.202   2.723   8.350 -0.8317 -0.2598 -0.5549
  528MOL0     H69676   3.969   2.738   8.296 -1.0985  1.1191  2.6279
  528MOL0     H69677   3.983   2.906   8.235 -1.6304 -0.7124 -0.7710
  528MOL0     H69678   5.081   2.728   8.106 -0.5950  0.1037  1.2927
  528MOL0     H69679   5.326   2.666   8.155  0.4268 -0.6797 -1.3882
  528MOL0     H69680   5.554   2.167   8.469 -0.5228 -0.3411 -1.3313
  528MOL0     H69681   5.780   2.100   8.486  1.2309 -0.4779 -0.8502
  528MOL0     H69682   6.144   3.086   9.668 -1.5206 -2.4682 -2.8743
  528MOL0     H69683   6.251   3.256   9.802 -2.5924  0.8772 -1.5846
  528MOL0     H69684   6.404   3.814   9.578  0.9874  1.7714  0.0213
  528MOL0     H69685   6.468   4.018   9.719 -2.3729  0.5320 -0.2814
  528MOL0     H69686   6.664   4.110   9.797  1.7122 -0.3741  1.7893
  528MOL0     H69687   6.694   4.166   9.963  1.5968 -1.9624  0.0220
  528MOL0     H69688   6.407   4.143   9.911 -1.2251  1.2887  3.2299
  528MOL0     H69689   6.496   4.262  10.000  0.9020  2.5818 -1.2184
  528MOL0     H69690   6.526   4.269   9.711 -0.0309  1.5108 -0.0406
  528MOL0     H69691   6.546   4.399   9.813 -0.9322 -0.5112  1.7761
  528MOL0     H69692   6.264   4.286   9.751  1.6152 -0.2695 -2.8171
  528MOL0     H69693   6.294   4.412   9.860 -2.4526 -3.3863  0.5353
  528MOL0     H69694   6.331   4.612   9.496  0.6265 -0.6870 -2.6587
  528MOL0     H69695   6.623   3.772  10.027 -0.1019  1.6611 -0.1362
  528MOL0     H69696   6.507   3.579   9.932  3.1744  2.1351  3.2934
  529MOL0     O69697   4.797   7.094   7.313 -0.3418 -0.9995  0.4948
  529MOL0     C69698   4.914   7.105   7.364  0.7379 -0.2113  0.3431
  529MOL0     O69699   4.955   7.050   7.469 -0.3191 -0.6264  0.3083
  529MOL0     C69700   4.892   6.934   7.507 -0.1961  0.6507 -0.0467
  529MOL0     C69701   4.857   6.829   7.414 -0.3826 -0.3368  0.3107
  529MOL0     C69702   4.794   6.709   7.450 -0.0610  0.5687 -0.9199
  529MOL0     C69703   4.755   6.696   7.585 -0.1524  0.2771 -0.0162
  529MOL0     O69704   4.686   6.584   7.631  0.0041 -0.8077 -0.4381
  529MOL0     C69705   4.553   6.574   7.589  0.5503  0.0453  0.7729
  529MOL0     C69706   4.563   6.442   7.516 -0.6726  0.0293  0.9044
  529MOL0     C69707   4.426   6.379   7.481 -0.1712 -0.7560  0.3434
  529MOL0     C69708   4.327   6.470   7.409 -0.4799  0.5784  0.6371
  529MOL0     C69709   4.206   6.389   7.363 -1.3243  0.6213 -0.1932
  529MOL0     C69710   4.145   6.297   7.468  0.2965  0.7884 -0.6658
  529MOL0     C69711   4.022   6.223   7.420 -0.1287  0.0312  0.0555
  529MOL0     C69712   3.982   6.123   7.523 -0.0165 -0.3061 -0.4026
  529MOL0     N69713   3.958   6.165   7.664  0.0838 -0.6883  0.4238
  529MOL0     C69714   3.835   6.195   7.719 -0.1837  0.5222 -0.4867
  529MOL0     C69715   3.848   6.209   7.851 -0.3097 -0.6192 -0.6506
  529MOL0     C69716   3.753   6.249   7.954 -0.2961  0.5369 -0.0568
  529MOL0     C69717   3.707   6.396   7.953  0.5188  0.2002  0.4458
  529MOL0     C69718   3.577   6.412   7.870  0.7468  0.1385  0.3435
  529MOL0     C69719   3.555   6.568   7.842 -0.8568  0.4394  0.2258
  529MOL0     O69720   3.507   6.630   7.956 -0.2088  0.9302  0.0630
  529MOL0     C69721   3.385   6.693   7.956  0.0677 -0.6819  1.1766
  529MOL0     C69722   3.286   6.683   7.859 -0.3537  1.0028  0.1486
  529MOL0     C69723   3.172   6.767   7.845 -0.0521  0.0565  0.3051
  529MOL0     C69724   3.166   6.871   7.934 -0.8139  1.0146  0.0253
  529MOL0     C69725   3.067   6.968   7.926  0.2955 -0.2285  0.3785
  529MOL0     O69726   3.064   7.064   8.024  0.3815  0.7195 -0.0202
  529MOL0     C69727   2.959   7.148   8.020  0.3749  0.6310 -0.7381
  529MOL0     C69728   2.930   7.237   7.913  0.2555  0.5982  0.9553
  529MOL0     C69729   2.832   7.332   7.938  0.1085  1.0615 -0.4791
  529MOL0     C69730   2.771   7.350   8.067 -0.6397 -0.2958 -0.0699
  529MOL0     O69731   2.684   7.456   8.081  0.8473  0.4303  0.9497
  529MOL0     C69732   2.585   7.454   8.183  0.9032  0.9844 -0.0542
  529MOL0     C69733   2.603   7.585   8.262  0.4896 -0.0719 -0.0020
  529MOL0     C69734   2.498   7.685   8.215  0.2537  0.4189  0.4975
  529MOL0     C69735   2.501   7.806   8.305  0.1286 -0.1933 -0.7071
  529MOL0     C69736   2.472   7.938   8.239 -0.3083  0.0462  0.9995
  529MOL0     C69737   2.574   7.968   8.125  0.0457  0.3992 -0.0309
  529MOL0     C69738   2.576   8.119   8.089 -0.2676 -0.5684  0.1027
  529MOL0     C69739   2.602   8.221   8.197  0.8542 -0.4359  0.4566
  529MOL0    Cl69740   2.774   8.211   8.240 -0.4117 -0.2610  0.0888
  529MOL0     C69741   2.802   7.260   8.167  0.0873 -1.4216  0.0571
  529MOL0     C69742   2.889   7.156   8.141 -0.5417  0.0741 -1.4781
  529MOL0     O69743   2.989   6.963   7.834  0.1571  0.5375  0.3211
  529MOL0     C69744   3.257   6.877   8.043 -0.2624 -0.0739  0.3321
  529MOL0     C69745   3.352   6.780   8.056  0.5026  0.0960 -0.4771
  529MOL0     N69746   3.977   6.163   7.880  0.8169 -0.6933 -0.1356
  529MOL0     N69747   4.037   6.129   7.770 -0.6655  1.1537  0.4410
  529MOL0     C69748   4.784   6.798   7.683 -0.6219  0.0940  0.3002
  529MOL0     C69749   4.850   6.916   7.642  0.8475  0.1312 -0.5746
  529MOL0     C69750   5.006   7.186   7.286 -0.2055  0.4150  0.2333
  529MOL0     C69751   5.150   7.168   7.306  0.3108  1.7670 -0.1617
  529MOL0     C69752   5.241   7.233   7.223  0.9843 -0.0272  0.0899
  529MOL0     C69753   5.200   7.308   7.108 -0.4337 -1.3520  0.1458
  529MOL0     O69754   5.279   7.385   7.022  0.6388 -0.3525 -0.0345
  529MOL0     C69755   5.426   7.366   7.021  0.8503  0.6694  0.2538
  529MOL0     C69756   5.476   7.253   6.939 -0.7339 -0.0221  0.1295
  529MOL0     C69757   5.488   7.125   7.019  1.4630  0.4415  1.0666
  529MOL0     C69758   5.555   7.004   6.934 -0.2301 -1.0940 -0.6853
  529MOL0     C69759   5.524   6.873   7.000  0.3326  0.6608  0.4295
  529MOL0     C69760   5.514   6.774   7.068  0.8472 -0.1457  0.2764
  529MOL0     C69761   5.063   7.332   7.091 -0.7170  0.4202  0.4090
  529MOL0     C69762   4.966   7.270   7.179 -0.8899 -0.4535 -1.3211
  529MOL0     H69763   4.885   6.822   7.310 -3.1471 -4.6353 -0.4155
  529MOL0     H69764   4.779   6.638   7.370  0.0889 -0.7965  0.2169
  529MOL0     H69765   4.507   6.647   7.522 -1.7388 -2.2039 -0.2681
  529MOL0     H69766   4.487   6.555   7.674 -1.4183 -2.5560 -1.2078
  529MOL0     H69767   4.631   6.374   7.568 -0.5379 -0.2494  0.3619
  529MOL0     H69768   4.619   6.461   7.424 -0.8892 -1.9715  0.3196
  529MOL0     H69769   4.385   6.347   7.577  0.9065 -2.1373  0.3791
  529MOL0     H69770   4.443   6.289   7.420  1.1584 -1.0978  1.1766
  529MOL0     H69771   4.300   6.549   7.479  3.6037  2.9036 -0.0709
  529MOL0     H69772   4.378   6.513   7.322 -0.1171  0.7942  0.9536
  529MOL0     H69773   4.237   6.320   7.284 -1.8778 -0.0747  0.1877
  529MOL0     H69774   4.126   6.446   7.314 -1.4225  1.4874  0.9416
  529MOL0     H69775   4.127   6.349   7.563  1.5556 -2.2792  1.4115
  529MOL0     H69776   4.211   6.214   7.492 -1.4398 -0.1207  1.2584
  529MOL0     H69777   3.941   6.294   7.400 -2.7348 -2.2388  1.7811
  529MOL0     H69778   4.038   6.165   7.329 -2.4550 -0.1600 -0.2950
  529MOL0     H69779   4.058   6.045   7.517  0.6021  0.2522  0.0494
  529MOL0     H69780   3.888   6.070   7.501  1.1603 -2.8667  0.3563
  529MOL0     H69781   3.748   6.226   7.661  0.2639  0.4222 -1.2180
  529MOL0     H69782   3.799   6.231   8.051  1.0664  0.2657 -0.7205
  529MOL0     H69783   3.662   6.190   7.945  0.9413 -1.2256 -2.0237
  529MOL0     H69784   3.782   6.464   7.912 -0.6012 -1.1412 -4.4753
  529MOL0     H69785   3.676   6.427   8.054 -2.8810 -1.6143  0.1032
  529MOL0     H69786   3.583   6.364   7.771  2.9316 -0.2151  0.5923
  529MOL0     H69787   3.492   6.378   7.930 -0.5553  2.0164 -0.3371
  529MOL0     H69788   3.485   6.588   7.760 -3.4776 -1.0143  1.9402
  529MOL0     H69789   3.648   6.620   7.822 -0.8186 -0.1569 -1.2715
  529MOL0     H69790   3.289   6.600   7.789 -2.6466  0.6517  0.3785
  529MOL0     H69791   3.101   6.749   7.765 -0.9892 -0.4265  1.2190
  529MOL0     H69792   2.978   7.238   7.816  2.2400 -0.5321  1.8433
  529MOL0     H69793   2.793   7.392   7.857 -1.5875 -0.8343 -1.1411
  529MOL0     H69794   2.586   7.372   8.254 -0.9051  2.9082  2.3820
  529MOL0     H69795   2.482   7.444   8.147  0.4649  1.2275  1.0854
  529MOL0     H69796   2.701   7.633   8.261  1.2998 -1.6375  0.1615
  529MOL0     H69797   2.579   7.561   8.366  0.3556 -3.0317 -0.6116
  529MOL0     H69798   2.396   7.645   8.219  0.5561 -0.3985  0.2106
  529MOL0     H69799   2.513   7.711   8.109 -0.6332  4.5581  1.1973
  529MOL0     H69800   2.426   7.782   8.381  2.0396 -3.0639  0.4480
  529MOL0     H69801   2.594   7.809   8.363 -1.5533  3.9274  2.2991
  529MOL0     H69802   2.482   8.019   8.311 -1.5982  1.2843 -0.1485
  529MOL0     H69803   2.371   7.938   8.197  0.0679  1.4272  0.0048
  529MOL0     H69804   2.562   7.909   8.033  1.5896 -0.2001  0.1331
  529MOL0     H69805   2.673   7.936   8.157 -0.7235 -0.2806  1.7668
  529MOL0     H69806   2.648   8.131   8.008 -0.1657 -3.0484 -0.2593
  529MOL0     H69807   2.483   8.144   8.036  0.1944  1.0441  0.0003
  529MOL0     H69808   2.530   8.199   8.276  0.8343 -1.2163  0.2246
  529MOL0     H69809   2.580   8.319   8.154  2.7969 -0.4936 -0.7425
  529MOL0     H69810   2.779   7.284   8.270  0.7856  0.7165 -0.2269
  529MOL0     H69811   2.927   7.098   8.224 -3.8567  2.0559  1.6886
  529MOL0     H69812   3.251   6.953   8.120 -2.1009 -0.3224  0.4711
  529MOL0     H69813   3.426   6.786   8.135  3.5394  1.0320 -3.1503
  529MOL0     H69814   4.750   6.775   7.783 -0.8921  0.2313  0.2393
  529MOL0     H69815   4.871   6.993   7.715  1.3583 -1.1519  0.6737
  529MOL0     H69816   5.185   7.102   7.385 -2.9494  0.0105 -0.0102
  529MOL0     H69817   5.346   7.227   7.251  1.0418  0.3694 -0.0406
  529MOL0     H69818   5.466   7.352   7.121 -0.8724  2.6653  1.3127
  529MOL0     H69819   5.469   7.462   6.988  0.2484  1.5706  1.9832
  529MOL0     H69820   5.400   7.229   6.865 -0.1539 -3.4243  0.5037
  529MOL0     H69821   5.571   7.289   6.897 -0.6517  0.2480  0.5413
  529MOL0     H69822   5.390   7.081   7.040  2.4207 -1.6930  1.3588
  529MOL0     H69823   5.535   7.138   7.117 -0.9599  3.4071  1.9739
  529MOL0     H69824   5.530   6.993   6.828 -2.0110 -1.6414 -0.2439
  529MOL0     H69825   5.664   7.012   6.944 -0.0827  0.0245 -2.7180
  529MOL0     H69826   5.493   6.693   7.134 -0.1693  1.0019  1.4262
  529MOL0     H69827   5.035   7.414   7.024 -1.9553  0.5634  1.0675
  529MOL0     H69828   4.860   7.293   7.183 -1.2531 -1.7696  3.8645
  530MOL0     O69829   2.342   9.010   5.109 -0.1337  0.2240 -1.0121
  530MOL0     C69830   2.273   9.064   5.188  0.9099 -0.0737 -0.0784
  530MOL0     O69831   2.307   9.146   5.289  0.6847  0.1181  0.2181
  530MOL0     C69832   2.446   9.170   5.317 -0.4574 -0.9083  0.2659
  530MOL0     C69833   2.541   9.192   5.216 -0.2396  0.0957  0.5796
  530MOL0     C69834   2.681   9.225   5.243  0.3705  0.2576 -0.1634
  530MOL0     C69835   2.716   9.261   5.373 -0.0470  0.3789  0.5895
  530MOL0     O69836   2.844   9.291   5.397 -0.7969  0.2834  0.2038
  530MOL0     C69837   2.886   9.398   5.484 -0.7850  0.3555 -0.8100
  530MOL0     C69838   2.996   9.458   5.401 -0.0373  0.3714  0.0174
  530MOL0     C69839   3.024   9.606   5.435 -0.2863  0.1446  0.5767
  530MOL0     C69840   3.151   9.660   5.370 -0.5015  0.2406  0.7645
  530MOL0     C69841   3.183   9.803   5.414 -0.4342 -0.9134 -0.5300
  530MOL0     C69842   3.102   9.927   5.356 -0.3924  0.4616 -0.3391
  530MOL0     C69843   3.103   9.952   5.204 -0.6427  0.0680  0.1459
  530MOL0     C69844   3.247  10.001   5.157 -0.5443  0.7433  0.6811
  530MOL0     N69845   3.285  10.140   5.176 -0.1882 -0.9557  0.1639
  530MOL0     C69846   3.373  10.205   5.088  0.9844 -0.1806  0.2172
  530MOL0     C69847   3.403  10.325   5.140 -0.1209 -0.6788 -1.0448
  530MOL0     C69848   3.485  10.434   5.080  0.7120  0.8086 -0.4240
  530MOL0     C69849   3.561  10.404   4.954 -0.2585 -0.4486 -0.5950
  530MOL0     C69850   3.461  10.379   4.843 -0.2420 -0.5504  1.0641
  530MOL0     C69851   3.540  10.341   4.715  0.4057  0.8854 -0.2917
  530MOL0     O69852   3.449  10.281   4.625  0.0117  0.0241 -0.5920
  530MOL0     C69853   3.494  10.222   4.519 -0.8220 -0.2990 -0.5615
  530MOL0     C69854   3.409  10.221   4.404  0.2504 -1.0031  0.3568
  530MOL0     C69855   3.459  10.169   4.279 -0.2872  0.5216  0.3910
  530MOL0     C69856   3.577  10.096   4.272 -0.3757 -1.0614  0.2316
  530MOL0     C69857   3.611  10.029   4.144  0.0876  1.3185 -0.1456
  530MOL0     O69858   3.729   9.961   4.137  0.9069 -0.0224 -0.1332
  530MOL0     C69859   3.754   9.900   4.015 -0.7015 -0.1296 -0.8836
  530MOL0     C69860   3.729   9.761   3.991  0.7008 -1.8259 -0.7491
  530MOL0     C69861   3.764   9.708   3.871  0.3077 -0.0312 -0.4258
  530MOL0     C69862   3.847   9.774   3.778  0.7440  0.2367 -0.4035
  530MOL0     O69863   3.899   9.703   3.671  2.1986  0.5355 -0.2640
  530MOL0     C69864   3.853   9.736   3.541  0.3849 -0.5393  0.5302
  530MOL0     C69865   3.958   9.673   3.454  0.1899  0.0222 -0.1596
  530MOL0     C69866   3.939   9.705   3.310  0.1658 -0.9022  0.1738
  530MOL0     C69867   4.035   9.617   3.225 -0.3716  0.6083 -0.2422
  530MOL0     C69868   4.010   9.651   3.077  0.8000 -0.2542  0.1751
  530MOL0     C69869   4.071   9.554   2.973  0.0601 -0.8605  0.1044
  530MOL0     C69870   4.009   9.573   2.824 -0.9839 -0.1334  0.4265
  530MOL0     C69871   4.128   9.566   2.715  0.1226 -0.4054  0.2133
  530MOL0    Cl69872   4.216   9.725   2.716  0.1383  0.1975  0.4383
  530MOL0     C69873   3.876   9.903   3.811 -0.3606 -0.4662 -0.0420
  530MOL0     C69874   3.838   9.970   3.923 -0.3907  0.6975  0.0969
  530MOL0     O69875   3.529  10.029   4.057 -0.5030 -0.3882  0.0776
  530MOL0     C69876   3.653  10.093   4.383  0.1025 -0.6088 -0.2690
  530MOL0     C69877   3.616  10.153   4.507  0.1481  0.2580  0.6759
  530MOL0     N69878   3.325  10.341   5.257 -0.3757  0.1098  0.7051
  530MOL0     N69879   3.243  10.241   5.263  0.3627 -0.2152  0.2003
  530MOL0     C69880   2.620   9.250   5.469 -0.0401  0.9827 -0.5369
  530MOL0     C69881   2.498   9.190   5.447  0.1537 -0.7236  0.1615
  530MOL0     C69882   2.124   9.030   5.177  0.9113  0.9461 -0.2755
  530MOL0     C69883   2.033   9.012   5.289 -0.1784  1.2716  0.0805
  530MOL0     C69884   1.903   8.961   5.260 -0.1062  1.1516 -0.1191
  530MOL0     C69885   1.853   8.953   5.125  0.1178  0.2145 -0.2648
  530MOL0     O69886   1.719   8.920   5.101  0.6345  0.6320  0.7104
  530MOL0     C69887   1.625   8.896   5.215 -0.4687 -0.2337  0.1657
  530MOL0     C69888   1.647   8.762   5.292  1.1532  0.6602  0.7003
  530MOL0     C69889   1.548   8.729   5.404 -1.0804  0.9527  0.2830
  530MOL0     C69890   1.532   8.839   5.509 -0.5219  0.0758  0.2824
  530MOL0     C69891   1.419   8.926   5.476 -0.1732 -0.5763  0.6966
  530MOL0     C69892   1.327   9.000   5.451  0.5337  0.7278 -0.6681
  530MOL0     C69893   1.944   8.980   5.016  0.0965  0.1189  0.1920
  530MOL0     C69894   2.073   9.010   5.043  0.3366 -1.2357 -0.2440
  530MOL0     H69895   2.510   9.187   5.113  1.1849  1.2293  0.0628
  530MOL0     H69896   2.761   9.227   5.170 -0.0670  0.9912 -0.6323
  530MOL0     H69897   2.929   9.380   5.583  0.3748  1.7548 -1.0204
  530MOL0     H69898   2.808   9.475   5.484 -0.7720  0.4148 -2.6703
  530MOL0     H69899   2.964   9.451   5.297 -0.1597 -0.2243  0.0894
  530MOL0     H69900   3.087   9.397   5.404  2.7225  3.8401 -3.4853
  530MOL0     H69901   3.040   9.627   5.541  0.3924  4.3052 -0.1680
  530MOL0     H69902   2.933   9.667   5.428 -2.2563 -2.4783  1.7514
  530MOL0     H69903   3.231   9.600   5.414 -0.0845 -0.4002 -0.7811
  530MOL0     H69904   3.150   9.637   5.263 -1.7013 -4.5127  1.5785
  530MOL0     H69905   3.288   9.822   5.393 -1.2079  3.2885 -1.6240
  530MOL0     H69906   3.178   9.809   5.524 -1.8545 -0.0623 -0.6144
  530MOL0     H69907   3.131  10.016   5.412 -1.4235  0.5863  0.0115
  530MOL0     H69908   2.998   9.928   5.389 -0.3377  0.8495 -0.1742
  530MOL0     H69909   3.066   9.861   5.157 -3.3364  1.6503 -1.0663
  530MOL0     H69910   3.024  10.026   5.186  0.8454  2.1417  1.5441
  530MOL0     H69911   3.248   9.984   5.049  2.4524  1.2844  0.5348
  530MOL0     H69912   3.327   9.936   5.193 -0.8982  1.1382  2.2996
  530MOL0     H69913   3.414  10.148   5.004 -0.7300 -1.4489  0.1784
  530MOL0     H69914   3.564  10.460   5.151 -0.5233  0.5410  1.1217
  530MOL0     H69915   3.424  10.525   5.077 -1.3244 -0.4936 -1.4013
  530MOL0     H69916   3.635  10.325   4.969  0.1202 -0.0429 -0.3026
  530MOL0     H69917   3.618  10.493   4.924 -2.0983 -0.3409 -4.3442
  530MOL0     H69918   3.383  10.307   4.869 -1.4552  0.6047  0.7263
  530MOL0     H69919   3.407  10.474   4.831 -0.5624 -0.8764 -0.1947
  530MOL0     H69920   3.630  10.283   4.734 -0.3291  0.1255  0.9845
  530MOL0     H69921   3.575  10.437   4.675 -1.0935  2.3849  1.7996
  530MOL0     H69922   3.316  10.277   4.405  0.5085 -0.5820  0.5179
  530MOL0     H69923   3.404  10.175   4.186  3.9717 -2.6062 -2.7031
  530MOL0     H69924   3.678   9.695   4.061  1.1250 -1.5922 -0.2114
  530MOL0     H69925   3.753   9.601   3.864  1.6862 -0.2651  0.5363
  530MOL0     H69926   3.871   9.844   3.537 -0.2123 -0.4526 -0.1597
  530MOL0     H69927   3.749   9.708   3.521 -0.0050  0.0854  1.6125
  530MOL0     H69928   3.934   9.566   3.459  0.2213  0.0303  0.2262
  530MOL0     H69929   4.062   9.670   3.486  1.0179  0.7225 -2.6249
  530MOL0     H69930   3.966   9.808   3.284 -0.1563 -1.3216 -1.9940
  530MOL0     H69931   3.838   9.682   3.275 -1.1697  1.1002  2.4270
  530MOL0     H69932   4.137   9.647   3.252  0.7169 -1.4424 -1.8308
  530MOL0     H69933   4.031   9.510   3.245  0.6065  1.2092  4.1279
  530MOL0     H69934   4.042   9.755   3.060  3.7093 -0.4116  3.4831
  530MOL0     H69935   3.902   9.639   3.066  0.9857 -1.3502 -0.5668
  530MOL0     H69936   4.049   9.454   3.010  1.5855 -0.9218  0.8840
  530MOL0     H69937   4.179   9.554   2.958 -0.2533 -3.2371 -3.7206
  530MOL0     H69938   3.938   9.492   2.805 -2.4862  1.6712 -2.5092
  530MOL0     H69939   3.953   9.668   2.822 -2.6521 -1.0244  1.7504
  530MOL0     H69940   4.088   9.542   2.617  4.2761 -2.1081 -1.3064
  530MOL0     H69941   4.196   9.482   2.738 -1.1746 -1.5075  0.1404
  530MOL0     H69942   3.930   9.948   3.727 -0.9543 -1.5161 -1.0139
  530MOL0     H69943   3.870  10.073   3.923  2.0201  0.0661  2.4682
  530MOL0     H69944   3.747  10.039   4.371 -1.2621 -2.6143 -3.1761
  530MOL0     H69945   3.682  10.149   4.593 -0.4745  0.9764  1.1959
  530MOL0     H69946   2.638   9.277   5.572 -0.4330 -0.4686 -0.0705
  530MOL0     H69947   2.441   9.162   5.535  0.0934  1.4666  0.8868
  530MOL0     H69948   2.056   9.028   5.394 -0.0439  1.0319  0.0888
  530MOL0     H69949   1.843   8.947   5.349  0.4407  0.4082  0.1421
  530MOL0     H69950   1.535   8.895   5.152  2.3017 -0.8770 -4.1396
  530MOL0     H69951   1.631   8.984   5.280 -1.2252 -0.8285  1.0737
  530MOL0     H69952   1.628   8.680   5.222 -0.1123 -1.3433  3.2048
  530MOL0     H69953   1.751   8.769   5.326  1.3087  0.1527  0.3427
  530MOL0     H69954   1.589   8.642   5.457 -1.6791 -0.1555 -1.0048
  530MOL0     H69955   1.453   8.703   5.355 -2.2054  2.6797  1.4450
  530MOL0     H69956   1.515   8.806   5.612  2.3295  0.8134  1.1017
  530MOL0     H69957   1.617   8.907   5.526 -1.0329  0.6848  0.4338
  530MOL0     H69958   1.232   9.042   5.422 -1.2503 -1.5401  1.4811
  530MOL0     H69959   1.914   8.979   4.912 -0.2286 -0.1696  0.2842
  530MOL0     H69960   2.132   9.042   4.958 -2.1965 -0.3726 -1.7727
  531MOL0     O69961   8.001   5.788   7.679 -0.1513 -0.0149  0.3130
  531MOL0     C69962   8.029   5.850   7.787 -0.0394  0.2820  0.0933
  531MOL0     O69963   8.024   5.794   7.911 -0.8330  0.0599  0.5156
  531MOL0     C69964   8.036   5.652   7.921  0.0422  0.9045 -0.5892
  531MOL0     C69965   7.965   5.554   7.849 -0.1059 -0.7733  0.8379
  531MOL0     C69966   7.975   5.421   7.862 -1.8534  0.5347  0.5455
  531MOL0     C69967   8.066   5.361   7.955  0.2997  0.1544  0.8522
  531MOL0     O69968   8.078   5.227   7.983  0.9492 -0.3286  0.6589
  531MOL0     C69969   8.005   5.136   7.901 -0.0411 -0.0606 -0.2657
  531MOL0     C69970   8.024   4.990   7.929  0.3712  0.6432  0.2868
  531MOL0     C69971   7.948   4.930   8.040  0.2194  0.4243 -0.5533
  531MOL0     C69972   7.997   4.978   8.182 -1.7794  1.1520 -0.3862
  531MOL0     C69973   8.137   4.912   8.226 -0.4106 -0.3824  0.2062
  531MOL0     C69974   8.174   4.975   8.361  0.7967  0.7292 -0.1406
  531MOL0     C69975   8.297   4.901   8.413  0.5575  0.8466  0.4706
  531MOL0     C69976   8.308   4.880   8.562  0.6755  0.7432 -0.0932
  531MOL0     N69977   8.413   4.789   8.593 -0.2359  0.1774 -0.7058
  531MOL0     C69978   8.451   4.771   8.728 -0.1383 -0.7092 -0.3008
  531MOL0     C69979   8.575   4.728   8.734 -0.0679 -0.3637  0.5690
  531MOL0     C69980   8.632   4.657   8.858  0.4155  0.9563  0.0153
  531MOL0     C69981   8.750   4.740   8.911 -1.0087 -0.4227 -0.3265
  531MOL0     C69982   8.710   4.881   8.966 -0.6023 -0.5973  0.3360
  531MOL0     C69983   8.817   4.946   9.057  0.9506  0.2568 -0.2703
  531MOL0     O69984   8.930   5.003   8.992 -0.4199 -0.5750 -0.2770
  531MOL0     C69985   9.051   5.036   9.057  0.0432 -0.5870 -0.2954
  531MOL0     C69986   9.066   5.045   9.200 -0.0546  0.0707  0.0520
  531MOL0     C69987   9.198   5.066   9.251  0.5960  0.5730 -1.0976
  531MOL0     C69988   9.316   5.060   9.177 -0.6477 -0.5131  0.3903
  531MOL0     C69989   9.450   5.055   9.242 -0.9589  0.2746 -0.1601
  531MOL0     O69990   9.553   5.033   9.158  0.1843  0.0957 -0.4969
  531MOL0     C69991   9.678   5.012   9.200  0.3842 -1.3271  0.0273
  531MOL0     C69992   9.779   5.110   9.171 -0.6927  0.1265  0.5713
  531MOL0     C69993   9.914   5.085   9.208  0.0013 -0.6192 -0.8839
  531MOL0     C69994   9.950   4.980   9.291 -0.3891  0.0749 -0.6008
  531MOL0     O69995  10.071   4.953   9.349  0.1256 -0.4136 -0.4408
  531MOL0     C69996  10.182   5.032   9.302 -0.0845  0.0008 -1.2780
  531MOL0     C69997  10.306   4.952   9.325  0.3385 -0.1543 -0.5817
  531MOL0     C69998  10.429   5.035   9.316 -0.1959  0.3540  0.0558
  531MOL0     C69999  10.472   5.057   9.167 -1.2364  0.2834 -0.0970
  531MOL0     C70000  10.612   5.118   9.158 -0.4160 -0.3307 -0.4388
  531MOL0     C70001  10.632   5.257   9.227 -0.1525 -0.2750  0.9089
  531MOL0     C70002  10.766   5.322   9.182 -0.2967  0.9825  0.8470
  531MOL0     C70003  10.897   5.276   9.245 -0.1331  0.4369  0.2362
  531MOL0    Cl70004  10.879   5.298   9.427  0.2051  0.3805  0.3357
  531MOL0     C70005   9.851   4.888   9.316  0.8926  0.1167 -0.4772
  531MOL0     C70006   9.713   4.901   9.277 -0.5052  0.0786 -0.7543
  531MOL0     O70007   9.467   5.052   9.362 -0.7736 -0.4930  0.4459
  531MOL0     C70008   9.298   5.050   9.041 -0.2863  0.0841  0.1678
  531MOL0     C70009   9.166   5.029   8.978  0.0427 -0.8349  0.0974
  531MOL0     N70010   8.633   4.735   8.605  0.2279 -0.0970  0.0410
  531MOL0     N70011   8.532   4.775   8.523 -0.0605 -0.4275  0.3651
  531MOL0     C70012   8.142   5.450   8.027 -0.3570 -0.3648  0.1721
  531MOL0     C70013   8.119   5.593   8.023  0.0595 -0.2613 -0.5547
  531MOL0     C70014   8.036   6.003   7.769  0.7135 -0.4665  0.4539
  531MOL0     C70015   8.018   6.065   7.646 -0.7565  1.1181 -0.3124
  531MOL0     C70016   8.017   6.205   7.630 -0.4809  0.9403  0.2401
  531MOL0     C70017   8.047   6.287   7.734  0.6829 -0.2263 -0.3005
  531MOL0     O70018   8.045   6.426   7.709 -1.1312  0.4965  0.4334
  531MOL0     C70019   8.107   6.508   7.811 -0.0992 -0.0348 -0.5136
  531MOL0     C70020   8.098   6.658   7.794  0.0534 -0.6466  0.2250
  531MOL0     C70021   7.956   6.711   7.757 -0.0302  0.1287 -0.0783
  531MOL0     C70022   7.839   6.671   7.857 -0.6541  0.2761 -0.9516
  531MOL0     C70023   7.872   6.716   7.993 -0.3030 -0.6601 -0.6595
  531MOL0     C70024   7.891   6.750   8.105 -0.1759  0.4828  0.4264
  531MOL0     C70025   8.075   6.220   7.862  0.1470  0.8489 -0.4367
  531MOL0     C70026   8.065   6.086   7.878 -0.1229  0.8006 -0.2659
  531MOL0     H70027   7.884   5.591   7.786  1.1483 -0.9786 -0.9557
  531MOL0     H70028   7.904   5.354   7.816 -0.3739 -1.6090  1.2425
  531MOL0     H70029   8.043   5.157   7.800  0.6871 -1.1898 -0.2395
  531MOL0     H70030   7.898   5.160   7.911 -0.5759 -1.5495 -1.8785
  531MOL0     H70031   8.130   4.962   7.936 -1.1171 -5.9510  3.1406
  531MOL0     H70032   7.993   4.940   7.837 -0.2885  0.8180  0.4106
  531MOL0     H70033   7.961   4.822   8.036 -4.3278 -0.5041  1.8904
  531MOL0     H70034   7.840   4.938   8.024 -0.0621 -1.1375  0.3917
  531MOL0     H70035   8.001   5.088   8.181  2.0554  1.1708 -1.4535
  531MOL0     H70036   7.926   4.947   8.259  0.3421  2.3992  2.2723
  531MOL0     H70037   8.223   4.929   8.160 -0.1395  0.8902  0.8591
  531MOL0     H70038   8.113   4.807   8.249 -4.5938  0.2618 -0.3180
  531MOL0     H70039   8.082   4.968   8.418  0.8489  3.4828  0.4204
  531MOL0     H70040   8.190   5.082   8.344  1.0421  1.0315  1.8232
  531MOL0     H70041   8.314   4.806   8.362  2.8569  2.2182 -1.5281
  531MOL0     H70042   8.387   4.956   8.384  0.7004 -0.9675 -2.9608
  531MOL0     H70043   8.211   4.835   8.588  1.4409  0.0031  1.6396
  531MOL0     H70044   8.324   4.974   8.616  0.2331  1.8058 -1.7489
  531MOL0     H70045   8.384   4.757   8.812  1.1892  0.2794  0.9722
  531MOL0     H70046   8.658   4.555   8.832  2.0522  1.3391  0.0424
  531MOL0     H70047   8.562   4.640   8.941  2.6014 -0.0212  1.7473
  531MOL0     H70048   8.830   4.741   8.836 -1.7524 -0.4775 -1.1306
  531MOL0     H70049   8.790   4.683   8.995 -1.8758  1.1941  1.2387
  531MOL0     H70050   8.670   4.952   8.894 -1.1229  1.3401  2.4043
  531MOL0     H70051   8.625   4.864   9.033 -0.2040 -0.3937  0.9036
  531MOL0     H70052   8.855   4.872   9.128 -2.7748 -1.0181  0.5773
  531MOL0     H70053   8.764   5.021   9.116 -3.0168 -2.2660 -0.2630
  531MOL0     H70054   8.983   5.047   9.269 -0.0196  0.3529  0.0888
  531MOL0     H70055   9.212   5.058   9.359  2.2467  0.9628 -1.2572
  531MOL0     H70056   9.757   5.205   9.123  1.4148 -1.0507 -3.0829
  531MOL0     H70057   9.980   5.169   9.189 -0.3542  0.1203  0.8947
  531MOL0     H70058  10.190   5.133   9.345 -1.4312  0.2635 -1.6113
  531MOL0     H70059  10.177   5.056   9.196  0.2810  1.5797 -0.9734
  531MOL0     H70060  10.314   4.875   9.248  1.0514 -0.1429 -0.5271
  531MOL0     H70061  10.294   4.903   9.423 -0.3865  0.0635 -0.5596
  531MOL0     H70062  10.507   4.988   9.377  1.7133  1.6424 -1.2569
  531MOL0     H70063  10.413   5.132   9.364 -0.1955  1.1050 -1.4170
  531MOL0     H70064  10.486   4.958   9.123 -1.3543  0.3994 -0.3929
  531MOL0     H70065  10.403   5.115   9.106  0.3803  0.4699 -1.8379
  531MOL0     H70066  10.653   5.106   9.057  0.4489 -4.0584  0.1858
  531MOL0     H70067  10.681   5.057   9.218  1.3842  1.9318 -0.0562
  531MOL0     H70068  10.631   5.247   9.336 -0.5402 -0.8699  0.8543
  531MOL0     H70069  10.550   5.324   9.202 -0.6214 -0.8354  0.9211
  531MOL0     H70070  10.767   5.306   9.073 -2.4247  0.7178  0.8226
  531MOL0     H70071  10.768   5.428   9.211  2.0794  0.6668  2.0913
  531MOL0     H70072  10.988   5.320   9.203 -0.3577 -0.3414 -1.1452
  531MOL0     H70073  10.901   5.168   9.259  0.2353  0.8319  3.9136
  531MOL0     H70074   9.866   4.791   9.362 -1.7464  0.4626  1.3226
  531MOL0     H70075   9.642   4.823   9.301  0.4735 -0.6309 -0.0780
  531MOL0     H70076   9.386   5.060   8.979  1.1594  0.0469  2.1418
  531MOL0     H70077   9.144   5.021   8.872 -0.8990  1.0854  0.1110
  531MOL0     H70078   8.217   5.408   8.094 -1.5890 -0.5277  1.5076
  531MOL0     H70079   8.156   5.650   8.108 -3.8808  1.4244  0.2785
  531MOL0     H70080   8.017   5.998   7.560  4.0661 -1.2873  1.1360
  531MOL0     H70081   7.999   6.242   7.530 -1.1852 -0.7578 -0.2957
  531MOL0     H70082   8.207   6.467   7.823  0.5198  1.2167 -1.1666
  531MOL0     H70083   8.059   6.493   7.909  0.0358  1.0444 -0.2661
  531MOL0     H70084   8.138   6.701   7.886 -1.5429 -2.9112  2.0770
  531MOL0     H70085   8.159   6.675   7.704 -1.7907 -3.5755 -1.7483
  531MOL0     H70086   7.929   6.674   7.658 -0.1633  1.6738 -0.6416
  531MOL0     H70087   7.960   6.820   7.754 -3.2902  0.3372 -0.6897
  531MOL0     H70088   7.752   6.726   7.823 -0.8544 -1.5914 -3.7999
  531MOL0     H70089   7.812   6.565   7.852  0.5644 -0.0418 -1.4129
  531MOL0     H70090   7.910   6.789   8.203 -0.6696 -0.5602  0.9518
  531MOL0     H70091   8.110   6.282   7.944  1.5117 -1.0610  0.5051
  531MOL0     H70092   8.103   6.053   7.974 -0.7916  4.2175  1.3440
  532MOL0     O70093   7.938   2.155  11.268 -0.4103 -0.6994 -0.2340
  532MOL0     C70094   7.834   2.162  11.330  0.0602  0.2582 -0.0093
  532MOL0     O70095   7.815   2.221  11.451 -0.1475  0.2856  0.2869
  532MOL0     C70096   7.926   2.265  11.512  0.0698  0.2183  1.0327
  532MOL0     C70097   7.924   2.396  11.551 -0.4069 -0.6262  0.1564
  532MOL0     C70098   8.041   2.460  11.606  0.9071 -0.2675 -0.5081
  532MOL0     C70099   8.154   2.383  11.633  0.3995 -0.0987 -0.0959
  532MOL0     O70100   8.266   2.417  11.702 -0.2273 -0.5613  0.7507
  532MOL0     C70101   8.238   2.448  11.842  0.3886  0.2267 -0.0922
  532MOL0     C70102   8.361   2.482  11.925  0.1586  0.1779 -0.7551
  532MOL0     C70103   8.462   2.375  11.930 -0.3176 -0.3240 -0.0186
  532MOL0     C70104   8.588   2.439  11.994  0.1532  0.2629 -1.0689
  532MOL0     C70105   8.690   2.329  11.993 -0.2089  0.0844 -0.3887
  532MOL0     C70106   8.812   2.388  12.063  0.5422  0.1032 -0.2074
  532MOL0     C70107   8.919   2.272  12.095  0.2776  0.4800  0.3612
  532MOL0     C70108   9.008   2.313  12.216 -0.7301  0.1300  0.7523
  532MOL0     N70109   9.079   2.190  12.268  0.3485 -0.4421 -0.3153
  532MOL0     C70110   9.190   2.125  12.214  0.4007  0.8389  0.3743
  532MOL0     C70111   9.217   2.031  12.309  0.0351  0.9712  0.6750
  532MOL0     C70112   9.336   1.937  12.301 -0.0226 -0.7846  0.2064
  532MOL0     C70113   9.305   1.808  12.216  0.3722 -0.3795  0.9470
  532MOL0     C70114   9.425   1.727  12.168 -0.1233 -0.3980  0.0962
  532MOL0     C70115   9.461   1.612  12.261 -0.3755  0.1137  0.0536
  532MOL0     O70116   9.509   1.665  12.382 -0.2184 -0.8058 -0.1586
  532MOL0     C70117   9.625   1.727  12.390  0.5877  1.4474  0.5004
  532MOL0     C70118   9.727   1.729  12.290 -0.3125 -0.6661  0.9843
  532MOL0     C70119   9.849   1.791  12.324 -0.4733 -0.2040 -0.4915
  532MOL0     C70120   9.871   1.845  12.450 -0.2430  0.0575  0.1599
  532MOL0     C70121  10.006   1.908  12.479 -0.4725  0.5520  0.7145
  532MOL0     O70122  10.084   1.929  12.369  0.2860 -0.8054  0.0076
  532MOL0     C70123  10.186   2.020  12.388  0.1948  0.6295  0.4394
  532MOL0     C70124  10.306   1.988  12.331  0.1649 -0.1450  0.5349
  532MOL0     C70125  10.406   2.079  12.312  0.9201  0.8018  0.3002
  532MOL0     C70126  10.399   2.201  12.358  0.4148 -1.1216 -0.8222
  532MOL0     O70127  10.513   2.274  12.333 -0.2082 -0.1238  0.0238
  532MOL0     C70128  10.502   2.418  12.323 -0.2329 -0.4515 -0.1343
  532MOL0     C70129  10.423   2.474  12.204  0.1170 -0.0804  0.3038
  532MOL0     C70130  10.408   2.620  12.202 -0.2232  0.0223  0.0559
  532MOL0     C70131  10.548   2.692  12.199 -0.0800  1.2324 -0.0681
  532MOL0     C70132  10.557   2.835  12.155  0.5904 -0.2870  0.2562
  532MOL0     C70133  10.441   2.899  12.083  0.2094  0.0916  0.0969
  532MOL0     C70134  10.324   2.957  12.175  1.1589  0.0572  0.3110
  532MOL0     C70135  10.327   3.103  12.163  0.7225 -1.9503  0.5486
  532MOL0    Cl70136  10.250   3.163  12.009 -0.2728 -0.1213  0.2022
  532MOL0     C70137  10.280   2.243  12.426 -0.3682 -0.0259  0.1507
  532MOL0     C70138  10.166   2.153  12.433 -0.3072  0.7672  0.5677
  532MOL0     O70139  10.011   1.973  12.585  0.1454  0.1412  0.2205
  532MOL0     C70140   9.772   1.838  12.550 -0.7176 -0.6442 -0.6914
  532MOL0     C70141   9.656   1.770  12.516  0.5563 -0.5413 -0.6624
  532MOL0     N70142   9.131   2.049  12.416 -0.0459  0.1834  0.9800
  532MOL0     N70143   9.042   2.138  12.383 -0.1599 -0.1097  0.0807
  532MOL0     C70144   8.152   2.241  11.610  0.3160 -0.3765 -0.3706
  532MOL0     C70145   8.038   2.189  11.536 -0.9571  0.2510 -0.2406
  532MOL0     C70146   7.731   2.080  11.273  1.9160 -0.3086  0.3698
  532MOL0     C70147   7.593   2.106  11.319  0.6460 -0.4863 -0.8442
  532MOL0     C70148   7.482   2.033  11.280  0.3932  1.7141  0.3240
  532MOL0     C70149   7.504   1.921  11.194 -0.3407 -0.1255 -0.3394
  532MOL0     O70150   7.406   1.826  11.164  0.4612  0.3402 -0.6909
  532MOL0     C70151   7.288   1.831  11.251 -0.2740 -0.0071 -0.0473
  532MOL0     C70152   7.186   1.932  11.197 -0.6837 -0.1176 -0.8230
  532MOL0     C70153   7.059   1.951  11.290 -0.2465 -0.0426  0.3963
  532MOL0     C70154   6.963   2.052  11.231 -0.0899 -0.6381  0.2554
  532MOL0     C70155   7.021   2.188  11.238  0.6373  0.4219  0.2148
  532MOL0     C70156   7.075   2.293  11.256 -0.7574  0.4786 -0.6044
  532MOL0     C70157   7.632   1.886  11.150 -0.1054  0.8358 -0.3101
  532MOL0     C70158   7.742   1.966  11.185  1.2088 -0.2285 -0.0835
  532MOL0     H70159   7.833   2.452  11.527  0.3339 -0.1303 -1.7342
  532MOL0     H70160   8.046   2.566  11.625  0.7742 -0.5419  1.1357
  532MOL0     H70161   8.180   2.367  11.888 -3.3735  1.1553 -2.7221
  532MOL0     H70162   8.157   2.521  11.845  0.1529  0.0184 -1.0639
  532MOL0     H70163   8.334   2.514  12.026  1.0203  1.2743 -0.8495
  532MOL0     H70164   8.397   2.575  11.880  0.1385  2.3308  3.2050
  532MOL0     H70165   8.483   2.335  11.830  1.6459  2.6757 -0.9529
  532MOL0     H70166   8.433   2.288  11.990  3.0422 -1.6865 -0.1450
  532MOL0     H70167   8.628   2.518  11.930  2.1656  0.5525  0.4747
  532MOL0     H70168   8.566   2.479  12.093  2.9009 -0.7957  0.0444
  532MOL0     H70169   8.725   2.287  11.898  4.7770  1.1968  0.6460
  532MOL0     H70170   8.659   2.247  12.059  5.0739 -2.0004 -0.0079
  532MOL0     H70171   8.783   2.440  12.155  0.0004  0.3264 -0.4959
  532MOL0     H70172   8.870   2.459  12.003  0.2794 -0.6392 -1.3638
  532MOL0     H70173   8.863   2.181  12.119  1.6048 -0.2682  0.7485
  532MOL0     H70174   8.978   2.254  12.004  0.0878  0.2452  0.2827
  532MOL0     H70175   8.951   2.355  12.299  0.0951 -0.1071  1.4595
  532MOL0     H70176   9.093   2.378  12.193  0.3750 -0.3498  3.1034
  532MOL0     H70177   9.221   2.138  12.111 -0.6044  1.4915  0.1382
  532MOL0     H70178   9.377   1.915  12.400  2.4208  3.0275  0.2747
  532MOL0     H70179   9.422   1.985  12.253  1.2108 -2.2020  0.9275
  532MOL0     H70180   9.271   1.841  12.117 -0.3955 -2.4673  0.4611
  532MOL0     H70181   9.225   1.749  12.261 -0.2217 -1.0024 -0.8474
  532MOL0     H70182   9.406   1.687  12.068 -1.0842  0.2910 -0.0012
  532MOL0     H70183   9.508   1.796  12.150 -1.1624  0.5378 -1.3166
  532MOL0     H70184   9.548   1.553  12.229  1.3731  2.5453 -0.0167
  532MOL0     H70185   9.382   1.540  12.285  0.1456 -0.7763 -0.7960
  532MOL0     H70186   9.726   1.683  12.192  3.1473  0.5812  0.2118
  532MOL0     H70187   9.923   1.791  12.245 -2.3980  1.4676 -2.4207
  532MOL0     H70188  10.311   1.894  12.277 -0.2696  1.2668 -2.1362
  532MOL0     H70189  10.498   2.045  12.265 -0.0735 -0.1276 -1.0636
  532MOL0     H70190  10.604   2.459  12.326 -1.5101  2.9988  0.8788
  532MOL0     H70191  10.453   2.454  12.414  3.2448 -1.3892  2.3569
  532MOL0     H70192  10.316   2.454  12.208 -0.6261  3.1558 -0.9043
  532MOL0     H70193  10.462   2.436  12.109 -1.9674 -0.9589 -0.2545
  532MOL0     H70194  10.358   2.667  12.286  2.2173  2.6831  0.1921
  532MOL0     H70195  10.352   2.640  12.110  0.8575  1.0438 -0.3989
  532MOL0     H70196  10.591   2.673  12.298 -1.8773 -0.6846  0.4121
  532MOL0     H70197  10.597   2.626  12.127 -2.3547 -0.8640  0.1700
  532MOL0     H70198  10.645   2.840  12.091  0.9700  2.7971  0.8676
  532MOL0     H70199  10.583   2.907  12.234 -1.8977  2.5522 -1.3288
  532MOL0     H70200  10.398   2.827  12.012 -0.3811 -0.2217  0.7565
  532MOL0     H70201  10.488   2.981  12.027 -1.2713  0.2284 -1.0088
  532MOL0     H70202  10.223   2.922  12.151 -0.7442  2.9401  3.2216
  532MOL0     H70203  10.347   2.944  12.281  2.1181  3.4940  0.6735
  532MOL0     H70204  10.429   3.142  12.163 -0.4088  1.5875  2.8325
  532MOL0     H70205  10.275   3.140  12.252 -0.0442 -1.8075  0.0493
  532MOL0     H70206  10.252   2.343  12.458 -2.5151  0.1825 -2.0229
  532MOL0     H70207  10.071   2.186  12.472  0.3032  0.6342  2.2263
  532MOL0     H70208   9.780   1.880  12.649 -1.4770  0.8435 -1.2218
  532MOL0     H70209   9.587   1.743  12.595  0.4163  1.3168 -0.1026
  532MOL0     H70210   8.248   2.195  11.628 -0.5834 -2.0486  0.3287
  532MOL0     H70211   8.045   2.087  11.499  4.0086  0.8920 -1.7382
  532MOL0     H70212   7.579   2.189  11.388  0.4879 -0.9502 -0.3020
  532MOL0     H70213   7.387   2.051  11.328 -0.3865 -1.9245  0.4373
  532MOL0     H70214   7.327   1.859  11.349  1.6910 -0.1780 -0.7244
  532MOL0     H70215   7.248   1.730  11.265 -0.2789 -0.5419 -3.2442
  532MOL0     H70216   7.231   2.030  11.182 -0.8476 -0.1530 -1.5867
  532MOL0     H70217   7.161   1.908  11.093 -2.6114  0.6774 -0.5913
  532MOL0     H70218   7.090   1.980  11.390  0.7834  2.7544 -0.6476
  532MOL0     H70219   7.017   1.850  11.294  0.6550 -0.4948 -0.8585
  532MOL0     H70220   6.941   2.020  11.128 -0.6341 -1.2461  0.5471
  532MOL0     H70221   6.869   2.041  11.286 -0.5554  0.6791 -0.2469
  532MOL0     H70222   7.137   2.374  11.289  3.1717 -2.6443  0.4575
  532MOL0     H70223   7.640   1.790  11.100  1.9857 -1.3614  3.7676
  532MOL0     H70224   7.841   1.927  11.168  1.0582 -0.4782 -0.3994
  533MOL0     O70225   5.864   9.398   8.615 -0.5114  1.0308 -0.4147
  533MOL0     C70226   5.903   9.514   8.625 -0.0250 -0.2370 -0.4876
  533MOL0     O70227   5.882   9.585   8.729 -0.1726 -0.5125 -0.1611
  533MOL0     C70228   5.783   9.552   8.809 -0.3065  1.1994  0.3281
  533MOL0     C70229   5.781   9.429   8.869 -0.3309  1.2884  0.1525
  533MOL0     C70230   5.674   9.385   8.945  1.1304  1.2196 -0.4047
  533MOL0     C70231   5.556   9.463   8.952 -0.2597 -1.2827  0.1450
  533MOL0     O70232   5.438   9.406   9.001  0.5834 -0.3115  0.3984
  533MOL0     C70233   5.335   9.503   9.029 -0.3344  0.8198 -0.4166
  533MOL0     C70234   5.238   9.448   9.136 -0.2295  0.4295  0.0576
  533MOL0     C70235   5.196   9.303   9.115 -0.0164 -0.3812  0.3450
  533MOL0     C70236   5.098   9.253   9.216  0.1070  1.0547 -0.9432
  533MOL0     C70237   5.033   9.121   9.185  0.9049  0.3814 -0.3326
  533MOL0     C70238   5.141   9.014   9.186 -0.0613  0.5972  0.3754
  533MOL0     C70239   5.060   8.887   9.138  0.1822  0.2804 -0.1923
  533MOL0     C70240   5.167   8.768   9.108  0.8048  0.1699  0.2470
  533MOL0     N70241   5.097   8.642   9.059  0.2849 -0.0798  0.7527
  533MOL0     C70242   5.006   8.557   9.133  0.2344 -0.2216  1.5294
  533MOL0     C70243   4.946   8.495   9.039 -0.0699 -0.1334  0.4707
  533MOL0     C70244   4.814   8.414   9.065 -0.0229 -0.1295 -0.1898
  533MOL0     C70245   4.688   8.465   8.989  1.0206  0.8404 -1.4643
  533MOL0     C70246   4.562   8.379   9.003  0.5619  0.5510  0.4062
  533MOL0     C70247   4.571   8.240   8.937 -0.4436  0.1761  0.0527
  533MOL0     O70248   4.511   8.217   8.810  0.0185  0.1708  0.4099
  533MOL0     C70249   4.572   8.247   8.694  0.1916  1.4350 -0.2654
  533MOL0     C70250   4.700   8.294   8.693 -0.3380 -0.4058 -0.9593
  533MOL0     C70251   4.753   8.336   8.573 -1.2449  1.3352  0.0434
  533MOL0     C70252   4.696   8.320   8.446  0.3993  0.2204  0.0919
  533MOL0     C70253   4.751   8.360   8.320 -0.9129 -0.5021  0.0365
  533MOL0     O70254   4.685   8.331   8.195  0.2257 -0.2385  0.8406
  533MOL0     C70255   4.743   8.344   8.073  0.1414  0.3968  0.3220
  533MOL0     C70256   4.659   8.356   7.969  0.6678  0.5595  0.3249
  533MOL0     C70257   4.706   8.345   7.838  0.5689 -0.3972  0.5263
  533MOL0     C70258   4.843   8.330   7.812 -1.0641 -1.1314 -0.3381
  533MOL0     O70259   4.900   8.341   7.684 -0.0846 -0.5577  0.2216
  533MOL0     C70260   4.821   8.429   7.604  1.3406 -0.1677 -0.3191
  533MOL0     C70261   4.904   8.467   7.487  0.5394 -0.3274 -0.7076
  533MOL0     C70262   5.038   8.525   7.527 -0.6613  0.4453 -0.4822
  533MOL0     C70263   5.098   8.611   7.415 -0.6280 -0.0392  1.0526
  533MOL0     C70264   5.138   8.538   7.283 -0.2601  0.8686 -0.2030
  533MOL0     C70265   5.173   8.625   7.177 -0.4696  0.0322 -0.4233
  533MOL0     C70266   5.213   8.568   7.045 -0.1410  0.3621  0.6527
  533MOL0     C70267   5.225   8.672   6.929 -0.2900 -0.3882 -0.3130
  533MOL0    Cl70268   5.087   8.793   6.900  0.0713 -0.2165 -0.2239
  533MOL0     C70269   4.934   8.322   7.918 -0.9488  0.0644  1.1716
  533MOL0     C70270   4.884   8.330   8.046  0.4012 -0.6322 -0.4593
  533MOL0     O70271   4.859   8.410   8.333 -0.5783 -0.3986  0.4542
  533MOL0     C70272   4.564   8.266   8.457 -0.3209  0.2462  0.5251
  533MOL0     C70273   4.501   8.241   8.578  0.2790  0.6989  0.5108
  533MOL0     N70274   5.016   8.513   8.915  0.4327  1.2954  0.1672
  533MOL0     N70275   5.109   8.603   8.924  0.2966  0.6137 -0.0580
  533MOL0     C70276   5.563   9.591   8.890  0.2377 -0.1252  0.3159
  533MOL0     C70277   5.679   9.639   8.831 -0.3486 -0.6637  0.3127
  533MOL0     C70278   5.998   9.564   8.533 -0.6119 -0.2676 -0.4473
  533MOL0     C70279   6.019   9.515   8.399  0.1543  0.1284 -0.6538
  533MOL0     C70280   6.088   9.584   8.312  0.0331 -0.4849  0.5607
  533MOL0     C70281   6.160   9.701   8.346 -0.2089 -1.5491  0.5870
  533MOL0     O70282   6.258   9.745   8.259  0.4671  0.2316  0.3371
  533MOL0     C70283   6.363   9.838   8.291 -0.2828 -0.5063  0.0288
  533MOL0     C70284   6.496   9.750   8.308  0.1426  0.7582 -0.2245
  533MOL0     C70285   6.622   9.834   8.334  0.2252 -0.0018 -0.5714
  533MOL0     C70286   6.702   9.847   8.194 -0.1584 -0.3268 -0.2205
  533MOL0     C70287   6.843   9.878   8.234  0.9817 -0.4335  0.6783
  533MOL0     C70288   6.941   9.928   8.283  0.4931 -0.1845  0.0965
  533MOL0     C70289   6.151   9.751   8.483  0.0543 -0.3087 -0.2684
  533MOL0     C70290   6.071   9.676   8.570 -0.9044  0.3737 -0.8279
  533MOL0     H70291   5.865   9.361   8.858 -0.0504  1.3638  1.6415
  533MOL0     H70292   5.673   9.281   8.976 -0.9068  0.7383 -1.9202
  533MOL0     H70293   5.283   9.531   8.937 -0.3607 -1.4097 -1.1261
  533MOL0     H70294   5.379   9.592   9.076  0.3295  1.7627 -2.6930
  533MOL0     H70295   5.147   9.508   9.148  0.8655  2.6408 -1.8729
  533MOL0     H70296   5.286   9.460   9.234  0.0225 -0.5795  0.0620
  533MOL0     H70297   5.284   9.242   9.139 -1.7710 -2.2359  2.6343
  533MOL0     H70298   5.153   9.293   9.015 -0.5711  1.0950  0.4250
  533MOL0     H70299   5.151   9.251   9.312  0.1221  0.4508 -0.9598
  533MOL0     H70300   5.011   9.318   9.221  1.5292  2.9589  0.8086
  533MOL0     H70301   4.983   9.128   9.089 -0.8809  1.5720  0.6296
  533MOL0     H70302   4.959   9.104   9.264 -1.8976  0.2540 -2.8438
  533MOL0     H70303   5.177   8.992   9.286  2.1521  1.9726 -0.0503
  533MOL0     H70304   5.231   9.039   9.128  1.3404 -3.0054  0.7905
  533MOL0     H70305   4.985   8.857   9.211 -1.4430  1.9035 -1.1159
  533MOL0     H70306   4.995   8.907   9.053  0.1896  0.4350 -0.1636
  533MOL0     H70307   5.228   8.754   9.197 -1.1139  2.8660  2.1362
  533MOL0     H70308   5.223   8.806   9.022  0.7845  0.2898  0.2866
  533MOL0     H70309   4.993   8.565   9.241 -0.2075 -1.0468  1.5425
  533MOL0     H70310   4.790   8.413   9.172 -3.7989 -1.7754 -0.8853
  533MOL0     H70311   4.842   8.316   9.028  0.3675 -0.4058  0.7942
  533MOL0     H70312   4.721   8.476   8.885 -0.3259 -1.1455 -2.1453
  533MOL0     H70313   4.676   8.567   9.029  1.5324  1.9508 -3.9705
  533MOL0     H70314   4.533   8.365   9.108 -0.2109 -1.6130 -0.0430
  533MOL0     H70315   4.496   8.449   8.951 -1.5352 -0.4405  1.6183
  533MOL0     H70316   4.510   8.174   8.999  1.3845 -0.6811  1.0353
  533MOL0     H70317   4.671   8.195   8.947 -1.3753 -1.7149  1.7415
  533MOL0     H70318   4.766   8.294   8.780 -1.0660  0.6816 -0.3948
  533MOL0     H70319   4.856   8.370   8.584 -1.3837  1.6612  0.3531
  533MOL0     H70320   4.550   8.364   7.975  0.6341  2.8795 -1.4932
  533MOL0     H70321   4.634   8.352   7.757 -0.7980 -0.2962  1.7172
  533MOL0     H70322   4.789   8.524   7.648  2.1700  0.7934 -1.7126
  533MOL0     H70323   4.738   8.365   7.572  1.5024 -0.2916 -0.4892
  533MOL0     H70324   4.849   8.547   7.437 -0.7668  0.9329  2.4266
  533MOL0     H70325   4.924   8.377   7.428  3.8725  1.3193 -2.2999
  533MOL0     H70326   5.103   8.443   7.560  1.2965  0.5897 -3.5606
  533MOL0     H70327   5.026   8.588   7.616 -3.4034 -2.0946  1.1428
  533MOL0     H70328   5.040   8.698   7.383  2.1130  1.1383 -1.1323
  533MOL0     H70329   5.195   8.650   7.444  2.5721 -3.5035 -3.4033
  533MOL0     H70330   5.057   8.474   7.248  1.1263 -3.3768  3.4629
  533MOL0     H70331   5.223   8.473   7.308 -2.1323 -1.0922  1.4394
  533MOL0     H70332   5.263   8.678   7.208 -1.7066  2.4769 -0.7229
  533MOL0     H70333   5.090   8.695   7.163 -0.5533  0.1066  0.4328
  533MOL0     H70334   5.310   8.518   7.050  1.1485  2.6402 -0.0027
  533MOL0     H70335   5.136   8.500   7.005  0.1568  2.2217 -3.6350
  533MOL0     H70336   5.242   8.635   6.828 -1.5533  1.6953 -1.3447
  533MOL0     H70337   5.310   8.735   6.957  0.2083 -1.5767  0.9940
  533MOL0     H70338   5.035   8.302   7.884 -1.8771  0.1517 -1.9552
  533MOL0     H70339   4.962   8.331   8.121  2.6980  3.3584 -2.5802
  533MOL0     H70340   4.497   8.259   8.371 -1.0801  1.5440  0.9898
  533MOL0     H70341   4.398   8.211   8.593  0.4957 -0.1174  0.3982
  533MOL0     H70342   5.484   9.666   8.896 -0.0870 -0.3049 -1.2060
  533MOL0     H70343   5.681   9.744   8.802  2.5261 -0.4698  0.9076
  533MOL0     H70344   5.966   9.426   8.368 -1.4981  2.3209 -5.0489
  533MOL0     H70345   6.100   9.540   8.213 -1.4409  0.0215  0.1299
  533MOL0     H70346   6.355   9.910   8.373 -0.1548 -0.7249  0.2382
  533MOL0     H70347   6.360   9.896   8.199 -0.1315 -2.2068 -1.0973
  533MOL0     H70348   6.480   9.686   8.395 -1.1820 -1.9776 -2.3378
  533MOL0     H70349   6.519   9.691   8.219  0.2100  0.3973  0.0348
  533MOL0     H70350   6.687   9.786   8.407 -0.9607  0.4330  0.8383
  533MOL0     H70351   6.589   9.934   8.367 -2.9866 -1.0944 -0.1142
  533MOL0     H70352   6.711   9.747   8.150  1.0406  0.6608 -2.4174
  533MOL0     H70353   6.651   9.911   8.121  0.9799  0.9029  0.0329
  533MOL0     H70354   7.028   9.988   8.301 -1.2163  2.3566  0.4347
  533MOL0     H70355   6.196   9.844   8.519  0.7720 -0.1117 -1.6326
  533MOL0     H70356   6.062   9.711   8.673  0.7225 -0.1068 -0.4931
  534MOL0     O70357   6.707   5.112   2.610 -0.3013 -0.5618  0.1273
  534MOL0     C70358   6.807   5.186   2.593  0.4784 -0.5874  0.9870
  534MOL0     O70359   6.846   5.239   2.474  1.4434 -0.2115  0.4846
  534MOL0     C70360   6.791   5.187   2.357 -0.9845  0.8553  0.7125
  534MOL0     C70361   6.654   5.214   2.325  0.7671  0.4031 -1.0233
  534MOL0     C70362   6.587   5.172   2.207  0.0089  0.9753 -0.2310
  534MOL0     C70363   6.660   5.089   2.117  0.4506 -0.9314  0.8379
  534MOL0     O70364   6.599   5.042   1.998 -0.1888  0.2037  0.0330
  534MOL0     C70365   6.687   5.017   1.888  0.3356 -0.6463  0.0969
  534MOL0     C70366   6.618   4.985   1.753  0.3416  0.8880 -0.4339
  534MOL0     C70367   6.491   4.916   1.775 -0.1347 -0.0525 -1.3985
  534MOL0     C70368   6.455   4.824   1.647 -0.6613  0.1764 -0.2638
  534MOL0     C70369   6.461   4.905   1.515  0.7081 -0.1799  0.6054
  534MOL0     C70370   6.367   4.844   1.412  0.3568 -0.2612  0.0161
  534MOL0     C70371   6.386   4.908   1.274  0.5319 -0.7355 -0.0607
  534MOL0     C70372   6.509   4.886   1.186 -0.5390  0.3992  0.1579
  534MOL0     N70373   6.492   4.766   1.102 -0.2927  0.3339  0.0234
  534MOL0     C70374   6.397   4.757   1.005 -0.1617 -0.1041 -0.5247
  534MOL0     C70375   6.361   4.626   0.999 -0.7810 -0.5780 -0.1539
  534MOL0     C70376   6.255   4.575   0.906 -0.1681  0.1349 -0.0317
  534MOL0     C70377   6.112   4.571   0.965 -0.0975  0.4010  0.0883
  534MOL0     C70378   6.000   4.559   0.869 -0.0039  0.0097 -1.1127
  534MOL0     C70379   5.864   4.572   0.937  0.0533 -0.2038  0.3842
  534MOL0     O70380   5.859   4.698   1.011 -0.3659 -0.2742  0.0068
  534MOL0     C70381   5.758   4.709   1.102  0.3334  0.2178  0.8380
  534MOL0     C70382   5.629   4.678   1.067  0.1880 -0.1911  1.2383
  534MOL0     C70383   5.518   4.720   1.136  0.8663 -0.3268 -0.5191
  534MOL0     C70384   5.541   4.792   1.254 -0.5309  0.7494 -0.2898
  534MOL0     C70385   5.425   4.842   1.328 -0.8718 -0.0617 -1.0928
  534MOL0     O70386   5.458   4.928   1.423 -0.1444 -1.0137 -0.2362
  534MOL0     C70387   5.371   4.981   1.517 -1.3363 -0.6401  0.3347
  534MOL0     C70388   5.246   4.939   1.543 -0.5051 -0.4823 -0.4999
  534MOL0     C70389   5.186   4.967   1.662  0.4504 -0.3763  0.5126
  534MOL0     C70390   5.230   5.066   1.741 -0.1705  0.1531 -0.4419
  534MOL0     O70391   5.151   5.107   1.854  0.1145  1.1724 -0.5730
  534MOL0     C70392   5.014   5.099   1.855  0.0340  0.8744 -0.4313
  534MOL0     C70393   4.960   5.196   1.963 -0.2450  0.2595 -0.2999
  534MOL0     C70394   4.805   5.185   1.980  0.4831 -0.1340  0.2166
  534MOL0     C70395   4.747   5.259   2.107 -0.0270 -0.3113 -0.2453
  534MOL0     C70396   4.835   5.358   2.166 -0.2482  0.2319  0.8703
  534MOL0     C70397   4.767   5.426   2.275 -0.4052  0.2013 -0.4024
  534MOL0     C70398   4.682   5.346   2.375 -0.1831 -0.5593 -0.7444
  534MOL0     C70399   4.631   5.432   2.489 -0.3208  0.3340 -0.1913
  534MOL0    Cl70400   4.746   5.494   2.603 -0.1104 -0.0619 -0.0288
  534MOL0     C70401   5.360   5.118   1.711  0.8872 -0.0955  1.0102
  534MOL0     C70402   5.440   5.066   1.602  0.3695 -0.5419 -0.3720
  534MOL0     O70403   5.312   4.824   1.284  0.4401 -0.4585  0.7911
  534MOL0     C70404   5.673   4.822   1.297 -0.1092  0.1014  0.3637
  534MOL0     C70405   5.780   4.776   1.221 -0.2543 -0.9863 -0.8313
  534MOL0     N70406   6.446   4.558   1.081  0.0273  0.2128  0.3830
  534MOL0     N70407   6.532   4.642   1.137  0.9268 -0.0262  0.4934
  534MOL0     C70408   6.792   5.062   2.154 -1.2031 -0.1377 -0.7875
  534MOL0     C70409   6.862   5.104   2.276  0.4203  0.2520  0.0370
  534MOL0     C70410   6.878   5.226   2.716  1.0976 -0.7478 -0.4475
  534MOL0     C70411   6.985   5.317   2.720 -0.1294 -0.0369 -1.1742
  534MOL0     C70412   7.040   5.356   2.841 -0.6639  0.1535  0.6311
  534MOL0     C70413   7.004   5.307   2.964 -0.6636 -0.0075  1.0300
  534MOL0     O70414   7.065   5.365   3.068  0.9809  0.0203 -0.7114
  534MOL0     C70415   7.090   5.279   3.179 -0.1310 -0.2537 -0.2822
  534MOL0     C70416   7.227   5.304   3.242  0.4696 -0.5585 -0.8010
  534MOL0     C70417   7.239   5.454   3.282 -0.7526  0.2520 -0.5464
  534MOL0     C70418   7.343   5.527   3.187  0.4485 -0.9854 -0.2530
  534MOL0     C70419   7.313   5.673   3.175  0.7973  0.8420 -0.1965
  534MOL0     C70420   7.281   5.786   3.162 -0.1514  0.0247  0.3104
  534MOL0     C70421   6.912   5.210   2.962 -0.4110 -0.4459  0.3332
  534MOL0     C70422   6.845   5.172   2.845  0.3076  0.6562  0.3607
  534MOL0     H70423   6.600   5.282   2.390  0.9478 -0.7486  0.3808
  534MOL0     H70424   6.483   5.189   2.180  0.4017 -0.0584 -2.5911
  534MOL0     H70425   6.745   4.927   1.911  1.2843 -0.7003 -2.2072
  534MOL0     H70426   6.757   5.099   1.870  1.9447 -1.6653  1.3892
  534MOL0     H70427   6.684   4.933   1.683  0.8829 -1.3131  1.5782
  534MOL0     H70428   6.598   5.083   1.711 -2.2464  1.3968  1.7074
  534MOL0     H70429   6.403   4.976   1.798 -1.4726 -2.7929  1.4342
  534MOL0     H70430   6.499   4.844   1.857  0.2667 -0.2896 -1.6374
  534MOL0     H70431   6.511   4.731   1.652  0.8152  1.0545  0.1915
  534MOL0     H70432   6.351   4.793   1.660 -0.4934 -0.4922 -0.4977
  534MOL0     H70433   6.560   4.916   1.471  0.2550 -3.1258 -1.4727
  534MOL0     H70434   6.426   5.007   1.527  3.5652  0.8478  1.0250
  534MOL0     H70435   6.269   4.880   1.445  0.2535  0.1590 -0.7454
  534MOL0     H70436   6.355   4.735   1.404 -1.4330  0.0180 -1.8396
  534MOL0     H70437   6.294   4.895   1.217  0.5315  0.8797 -0.4797
  534MOL0     H70438   6.389   5.015   1.298  1.9950 -0.7949  0.1274
  534MOL0     H70439   6.591   4.861   1.254 -1.3796  0.0893  1.0926
  534MOL0     H70440   6.522   4.967   1.114 -2.1757 -0.9403 -1.7715
  534MOL0     H70441   6.343   4.835   0.952  2.0907  1.8880 -0.0915
  534MOL0     H70442   6.286   4.475   0.871  2.2818  0.4913  0.9003
  534MOL0     H70443   6.255   4.636   0.815 -1.8646  2.3166  1.3511
  534MOL0     H70444   6.105   4.660   1.027 -2.6912  0.8316 -0.6952
  534MOL0     H70445   6.093   4.478   1.020 -1.0594 -0.6806 -1.9591
  534MOL0     H70446   6.006   4.633   0.788  2.0472 -0.5507 -1.5461
  534MOL0     H70447   6.009   4.466   0.813  1.9380 -1.2207  1.0405
  534MOL0     H70448   5.849   4.484   1.002  3.5665 -2.9599 -2.1369
  534MOL0     H70449   5.794   4.572   0.854 -1.3660  2.8565  1.4607
  534MOL0     H70450   5.605   4.631   0.972  0.0399  1.2937  0.5103
  534MOL0     H70451   5.417   4.696   1.105  0.2485  3.1022 -1.5426
  534MOL0     H70452   5.205   4.855   1.488 -1.6649 -0.2260 -0.0509
  534MOL0     H70453   5.089   4.925   1.687  0.0911 -0.3633 -0.7553
  534MOL0     H70454   4.981   4.996   1.868 -1.8191  1.7475  3.0905
  534MOL0     H70455   4.972   5.140   1.763 -2.4388  0.8533  0.6187
  534MOL0     H70456   4.993   5.300   1.951 -4.2237  1.7827  0.4295
  534MOL0     H70457   5.023   5.174   2.049  0.9807  3.1289 -0.3426
  534MOL0     H70458   4.767   5.083   1.983 -0.5662  0.2690  3.1894
  534MOL0     H70459   4.770   5.240   1.892  2.5048  0.4910 -0.2711
  534MOL0     H70460   4.647   5.301   2.089  0.4108  1.9077  1.8679
  534MOL0     H70461   4.721   5.183   2.180  0.3864  0.9978  1.3369
  534MOL0     H70462   4.874   5.425   2.088  0.2801 -1.1015 -0.0467
  534MOL0     H70463   4.920   5.304   2.209 -0.1544  1.1763  1.9263
  534MOL0     H70464   4.692   5.487   2.225 -2.0112 -1.6441 -0.3334
  534MOL0     H70465   4.846   5.482   2.327  2.9658 -2.2531 -2.3945
  534MOL0     H70466   4.592   5.302   2.332 -1.4157 -1.2557  2.2315
  534MOL0     H70467   4.722   5.259   2.429  2.1230  2.4964  2.9915
  534MOL0     H70468   4.559   5.369   2.543  1.2306  0.7142  2.4628
  534MOL0     H70469   4.567   5.511   2.449  0.1192  1.7777  1.8192
  534MOL0     H70470   5.400   5.200   1.770 -1.8083  1.7015  0.5420
  534MOL0     H70471   5.546   5.085   1.589  0.5659  0.3085  2.0333
  534MOL0     H70472   5.684   4.904   1.366 -0.7201  2.7393 -2.4353
  534MOL0     H70473   5.884   4.802   1.241  0.1549 -1.5104 -2.1212
  534MOL0     H70474   6.851   4.996   2.091 -0.4340 -1.7244  1.4721
  534MOL0     H70475   6.955   5.066   2.317 -0.0513 -1.2390 -0.2194
  534MOL0     H70476   7.019   5.357   2.625 -0.8391  2.9081 -0.2857
  534MOL0     H70477   7.115   5.433   2.825 -3.0776  2.3726 -1.1135
  534MOL0     H70478   7.083   5.171   3.164  1.2865 -0.8748  2.6921
  534MOL0     H70479   7.018   5.291   3.260  0.0885 -1.4148  0.1038
  534MOL0     H70480   7.243   5.236   3.327 -1.6793 -0.9683 -0.6785
  534MOL0     H70481   7.302   5.277   3.167  0.5577 -2.3007 -0.1381
  534MOL0     H70482   7.271   5.458   3.387  0.3988  3.4757 -0.9208
  534MOL0     H70483   7.140   5.498   3.292 -1.2951 -0.8930 -0.7826
  534MOL0     H70484   7.446   5.514   3.221  1.3205  2.7332 -0.9905
  534MOL0     H70485   7.357   5.485   3.086  0.2003 -0.3616 -0.5521
  534MOL0     H70486   7.258   5.891   3.154 -1.1068 -0.3291 -3.2237
  534MOL0     H70487   6.875   5.169   3.056 -0.1790 -1.0117  0.1825
  534MOL0     H70488   6.761   5.105   2.861  1.3289 -0.5232  0.9872
  535MOL0     O70489   4.813   3.583   5.861  0.6043  0.9284  0.2692
  535MOL0     C70490   4.897   3.666   5.846  1.0551 -0.0006  1.0826
  535MOL0     O70491   4.930   3.714   5.729 -0.4492 -0.2150 -0.2314
  535MOL0     C70492   4.858   3.713   5.618 -0.3178 -0.2405  0.3499
  535MOL0     C70493   4.939   3.755   5.505 -0.9326  0.6067  0.1268
  535MOL0     C70494   4.882   3.751   5.375 -0.3021 -0.2265 -0.6035
  535MOL0     C70495   4.748   3.732   5.358 -0.5677  0.7263 -0.0322
  535MOL0     O70496   4.688   3.732   5.235 -0.0769  0.1325  0.2930
  535MOL0     C70497   4.728   3.825   5.132  0.2195  1.3128 -0.0104
  535MOL0     C70498   4.610   3.874   5.061 -0.0444  0.2165  0.6975
  535MOL0     C70499   4.525   3.961   5.148  0.5460  0.6814 -0.6877
  535MOL0     C70500   4.403   3.891   5.219  0.3504  0.4117 -0.3470
  535MOL0     C70501   4.288   3.975   5.266 -0.5278 -0.3003  0.7237
  535MOL0     C70502   4.326   4.083   5.369  0.1688 -0.7827 -0.2036
  535MOL0     C70503   4.207   4.138   5.441  1.1699 -0.4667 -0.4813
  535MOL0     C70504   4.127   4.247   5.362 -0.2398  0.7730  0.0410
  535MOL0     N70505   4.035   4.332   5.431 -0.3146 -0.4964  0.5632
  535MOL0     C70506   4.067   4.445   5.501 -0.1894 -0.4617  0.2886
  535MOL0     C70507   3.945   4.497   5.534  0.1428  0.0176 -0.1790
  535MOL0     C70508   3.908   4.625   5.605  0.3513 -0.2755 -0.8929
  535MOL0     C70509   3.832   4.591   5.736 -0.8346 -0.0125 -0.2282
  535MOL0     C70510   3.765   4.713   5.797  0.8496 -0.0416  0.0991
  535MOL0     C70511   3.876   4.798   5.885  0.9693  0.9903  0.6064
  535MOL0     O70512   3.820   4.902   5.966  0.4421  0.2823 -0.2077
  535MOL0     C70513   3.754   5.004   5.897  1.0410  0.0803  1.3597
  535MOL0     C70514   3.700   5.097   5.978 -0.2897  0.5088 -0.0870
  535MOL0     C70515   3.635   5.205   5.921  0.5138  0.1230  0.4072
  535MOL0     C70516   3.645   5.237   5.782 -0.7931 -0.2809 -0.0294
  535MOL0     C70517   3.594   5.366   5.730 -1.2824 -0.4041 -0.4709
  535MOL0     O70518   3.586   5.374   5.605  0.6675  0.1276 -0.3566
  535MOL0     C70519   3.566   5.492   5.551  1.0904  0.1922 -0.1596
  535MOL0     C70520   3.443   5.556   5.571  0.6779  0.7876 -1.0411
  535MOL0     C70521   3.437   5.689   5.531 -0.7045 -0.2217  0.1307
  535MOL0     C70522   3.538   5.754   5.459 -0.8710  0.1195 -0.1032
  535MOL0     O70523   3.535   5.885   5.416  0.1670 -0.2130  0.0177
  535MOL0     C70524   3.547   5.904   5.276  0.5973  0.0353  0.2878
  535MOL0     C70525   3.452   5.834   5.182  0.0254  1.1875  0.4330
  535MOL0     C70526   3.443   5.902   5.034  0.1411  0.8607 -0.2046
  535MOL0     C70527   3.587   5.905   4.972  0.2404 -0.7140  0.7712
  535MOL0     C70528   3.590   5.959   4.835  0.6885  0.0424  0.7995
  535MOL0     C70529   3.730   5.999   4.786 -0.0793  1.5503  1.0301
  535MOL0     C70530   3.845   5.881   4.780  0.1991 -0.1534  0.1493
  535MOL0     C70531   3.963   5.926   4.691 -0.7522  0.6335  0.4897
  535MOL0    Cl70532   4.091   5.821   4.736  0.0796 -0.5305 -0.0050
  535MOL0     C70533   3.648   5.676   5.422 -0.0170  0.1300  0.3160
  535MOL0     C70534   3.659   5.549   5.470 -0.2070  0.1765  0.6940
  535MOL0     O70535   3.579   5.457   5.812  0.3011 -0.4160  0.2029
  535MOL0     C70536   3.698   5.141   5.699  0.1475 -0.2511  0.1700
  535MOL0     C70537   3.754   5.031   5.760 -0.2204  0.8557  0.2829
  535MOL0     N70538   3.846   4.416   5.479 -0.0212  0.0237 -0.0252
  535MOL0     N70539   3.899   4.315   5.423  0.4529  0.0034  0.0585
  535MOL0     C70540   4.664   3.710   5.467 -0.1737 -0.7440  0.3065
  535MOL0     C70541   4.720   3.695   5.596  0.5168  0.9183 -0.6712
  535MOL0     C70542   4.977   3.705   5.961 -0.4713 -0.6006  0.9112
  535MOL0     C70543   5.075   3.798   5.956 -0.0202 -0.3268 -0.2503
  535MOL0     C70544   5.157   3.818   6.062 -0.3618  0.6756 -0.2903
  535MOL0     C70545   5.137   3.747   6.178 -1.0013 -0.3054  0.2524
  535MOL0     O70546   5.222   3.770   6.281 -0.5718  0.9013  0.2798
  535MOL0     C70547   5.327   3.680   6.310  0.3084  0.1407  0.5972
  535MOL0     C70548   5.458   3.743   6.255 -0.3125  0.5634  0.3703
  535MOL0     C70549   5.491   3.727   6.103 -0.4143 -0.3423 -1.3894
  535MOL0     C70550   5.533   3.591   6.061 -0.2361 -0.6235 -0.3976
  535MOL0     C70551   5.541   3.574   5.913 -0.7925 -0.5620  0.0700
  535MOL0     C70552   5.566   3.548   5.796 -0.0625  0.6803  0.9878
  535MOL0     C70553   5.033   3.661   6.179  0.1669 -0.1864 -0.8515
  535MOL0     C70554   4.945   3.634   6.078 -0.6484  0.6837 -0.7248
  535MOL0     H70555   5.046   3.770   5.515 -1.2187  5.0640 -1.5070
  535MOL0     H70556   4.944   3.767   5.287 -1.6443  1.2977 -1.3143
  535MOL0     H70557   4.799   3.781   5.063  1.1488  2.4277  0.1956
  535MOL0     H70558   4.776   3.915   5.173 -4.1690  2.8240  2.5434
  535MOL0     H70559   4.549   3.795   5.015 -1.0452  2.3983 -1.9846
  535MOL0     H70560   4.654   3.934   4.981  4.3141 -1.1473  1.7902
  535MOL0     H70561   4.475   4.022   5.073  0.6321 -3.0191 -4.0759
  535MOL0     H70562   4.570   4.021   5.228  1.2286 -0.2835 -0.3218
  535MOL0     H70563   4.363   3.807   5.160 -0.3092  2.0240 -2.3118
  535MOL0     H70564   4.442   3.845   5.310 -3.0280 -1.5965  0.2568
  535MOL0     H70565   4.204   3.916   5.303 -0.8554  0.3904  1.0945
  535MOL0     H70566   4.245   4.027   5.180  1.9633  0.3457 -0.2245
  535MOL0     H70567   4.389   4.166   5.333  0.9118 -0.8697  0.8406
  535MOL0     H70568   4.397   4.039   5.440  1.6686  0.8286 -0.6231
  535MOL0     H70569   4.141   4.054   5.463  1.1610 -0.1216  0.8695
  535MOL0     H70570   4.239   4.177   5.538 -1.9097  0.3373  0.2966
  535MOL0     H70571   4.075   4.192   5.283  0.7077  0.3558 -0.3030
  535MOL0     H70572   4.200   4.321   5.329 -0.8758  2.0577  1.3932
  535MOL0     H70573   4.166   4.489   5.512 -0.9007  1.3846 -0.3280
  535MOL0     H70574   3.839   4.682   5.543 -3.3950  1.5076  4.2261
  535MOL0     H70575   3.994   4.692   5.617  1.3311 -1.7952  1.2369
  535MOL0     H70576   3.903   4.554   5.811  0.2007  2.6989  0.2298
  535MOL0     H70577   3.751   4.521   5.711 -0.1308 -0.6999 -0.6139
  535MOL0     H70578   3.711   4.773   5.723 -2.5381 -2.1225  0.6862
  535MOL0     H70579   3.680   4.687   5.861 -0.8509  3.2734 -0.5613
  535MOL0     H70580   3.962   4.841   5.832  1.3627 -0.8715 -0.3598
  535MOL0     H70581   3.927   4.735   5.958 -0.3931  3.5757  4.0623
  535MOL0     H70582   3.722   5.082   6.083 -1.1522  1.8955  0.3229
  535MOL0     H70583   3.582   5.284   5.975  0.1754 -1.3525  2.3369
  535MOL0     H70584   3.365   5.505   5.627 -0.3643  0.6758 -2.5279
  535MOL0     H70585   3.348   5.748   5.552  0.4105  1.0469  1.5020
  535MOL0     H70586   3.650   5.887   5.244  0.6561 -0.1646  0.5878
  535MOL0     H70587   3.525   6.010   5.257  0.4779  0.2722  1.6292
  535MOL0     H70588   3.356   5.834   5.233  0.0169  1.2722  0.4168
  535MOL0     H70589   3.477   5.730   5.158 -4.2088  0.0619  0.2482
  535MOL0     H70590   3.393   5.999   5.030 -1.7862  0.1001  2.4680
  535MOL0     H70591   3.385   5.830   4.976 -1.1979  3.0291 -1.6494
  535MOL0     H70592   3.652   5.968   5.034 -0.7744  1.3096 -0.1140
  535MOL0     H70593   3.627   5.804   4.963  2.4024  0.0334  1.3920
  535MOL0     H70594   3.534   6.052   4.834 -0.9503 -0.9187  0.4222
  535MOL0     H70595   3.547   5.892   4.760  0.3418 -2.5865  3.1867
  535MOL0     H70596   3.768   6.082   4.846 -1.8263  1.6621  2.0438
  535MOL0     H70597   3.728   6.037   4.683  1.0844 -3.1446 -0.9944
  535MOL0     H70598   3.881   5.870   4.883  2.2377  1.6921 -0.2828
  535MOL0     H70599   3.797   5.790   4.743 -2.0663  0.8870  0.3936
  535MOL0     H70600   4.000   6.028   4.698 -0.4066  0.5867 -0.5033
  535MOL0     H70601   3.941   5.903   4.587 -0.8186  0.6639  0.4969
  535MOL0     H70602   3.730   5.720   5.366 -1.0954  0.9335 -0.6880
  535MOL0     H70603   3.755   5.502   5.449  0.0170 -0.5091  3.0274
  535MOL0     H70604   3.713   5.154   5.593 -2.8145  1.2561 -0.1891
  535MOL0     H70605   3.809   4.963   5.696 -3.8056 -0.8639 -1.2614
  535MOL0     H70606   4.556   3.704   5.456 -0.3178 -1.7767  1.9239
  535MOL0     H70607   4.657   3.677   5.683  2.9622  0.0983  1.0537
  535MOL0     H70608   5.080   3.859   5.866 -2.3577 -0.6950 -0.6735
  535MOL0     H70609   5.234   3.894   6.054  0.2130  0.0178 -1.2426
  535MOL0     H70610   5.301   3.581   6.271 -1.1146 -0.1394  2.1211
  535MOL0     H70611   5.340   3.668   6.418 -1.9368  0.7612  0.9881
  535MOL0     H70612   5.457   3.850   6.279  2.0641  0.2115  2.3878
  535MOL0     H70613   5.547   3.708   6.308  0.9596  0.6792 -1.6113
  535MOL0     H70614   5.575   3.792   6.078 -0.3439 -0.7709 -2.3194
  535MOL0     H70615   5.406   3.770   6.048 -2.4364  0.2839  1.9362
  535MOL0     H70616   5.616   3.563   6.127 -2.5464 -4.4392  1.2093
  535MOL0     H70617   5.454   3.522   6.093  1.8402 -3.1271 -0.3211
  535MOL0     H70618   5.584   3.511   5.697 -1.1451 -0.0455  1.0436
  535MOL0     H70619   5.021   3.601   6.269  2.2908 -0.4712 -0.7035
  535MOL0     H70620   4.867   3.559   6.084 -1.4141  1.2637 -2.5668
  536MOL0     O70621   2.751   9.670   7.522  0.7910 -0.6669 -0.3810
  536MOL0     C70622   2.739   9.548   7.506  0.2311  0.5101  0.3564
  536MOL0     O70623   2.622   9.470   7.515  0.0860  0.2998 -0.5411
  536MOL0     C70624   2.518   9.521   7.577  0.4776 -0.1069 -0.2583
  536MOL0     C70625   2.475   9.650   7.539 -0.6078  0.4087 -0.9040
  536MOL0     C70626   2.364   9.699   7.607 -0.2099  0.4470  0.5571
  536MOL0     C70627   2.293   9.633   7.704 -0.0663 -0.2125 -0.3136
  536MOL0     O70628   2.182   9.689   7.761 -0.0918 -0.2838 -0.6850
  536MOL0     C70629   2.197   9.715   7.896  0.0254  0.0520 -0.5130
  536MOL0     C70630   2.051   9.737   7.945  0.3779  0.1761  0.1092
  536MOL0     C70631   1.973   9.607   7.957 -0.7241  0.2509 -0.3261
  536MOL0     C70632   2.050   9.510   8.049 -0.0895  0.0595 -0.0527
  536MOL0     C70633   1.959   9.391   8.076 -0.8403 -0.6876  0.0527
  536MOL0     C70634   2.046   9.272   8.139  0.9086 -0.2742 -0.1038
  536MOL0     C70635   2.062   9.154   8.036  0.8244 -0.5031 -0.3978
  536MOL0     C70636   2.160   9.056   8.111  0.7814 -0.2383 -0.0838
  536MOL0     N70637   2.089   8.936   8.129 -0.6354  0.1167 -0.2353
  536MOL0     C70638   1.992   8.919   8.224  0.3275  0.6263  0.3208
  536MOL0     C70639   1.928   8.807   8.188 -0.1274 -0.0751 -0.1462
  536MOL0     C70640   1.830   8.731   8.271  0.5834  0.1366  0.3908
  536MOL0     C70641   1.879   8.591   8.319 -0.1826 -0.8989 -0.6344
  536MOL0     C70642   2.024   8.587   8.368  0.2542 -0.0842  0.8041
  536MOL0     C70643   2.066   8.453   8.416 -0.4081 -0.4499 -0.7103
  536MOL0     O70644   2.208   8.440   8.428 -0.6862  0.2092  0.5782
  536MOL0     C70645   2.253   8.327   8.493 -0.5951 -0.2618  0.2620
  536MOL0     C70646   2.179   8.217   8.537 -1.6026  0.3252  0.3284
  536MOL0     C70647   2.237   8.102   8.599 -0.7279  0.3865  0.2732
  536MOL0     C70648   2.383   8.092   8.603  0.3883 -0.2930  0.1351
  536MOL0     C70649   2.449   7.971   8.651 -0.4388  0.9663 -0.1903
  536MOL0     O70650   2.582   7.965   8.623  0.4506  1.0272  0.6734
  536MOL0     C70651   2.658   7.860   8.656  1.2353  0.2965 -0.3146
  536MOL0     C70652   2.797   7.879   8.614  0.7908 -0.0413  0.4145
  536MOL0     C70653   2.891   7.772   8.627 -0.6926  0.1663 -0.3568
  536MOL0     C70654   2.855   7.650   8.671  0.0415  0.1203  0.6124
  536MOL0     O70655   2.954   7.558   8.691  0.0107 -0.5224  0.4079
  536MOL0     C70656   2.922   7.423   8.729  0.2496  0.6323 -0.6803
  536MOL0     C70657   3.050   7.340   8.761  0.5578 -0.3879 -0.5210
  536MOL0     C70658   3.016   7.189   8.820  0.7837  0.1922 -0.5176
  536MOL0     C70659   3.136   7.093   8.810  0.2092  1.1347  1.0405
  536MOL0     C70660   3.098   6.942   8.850 -0.5751  0.3153 -1.0743
  536MOL0     C70661   3.212   6.853   8.812 -0.2670  0.6084 -0.1796
  536MOL0     C70662   3.176   6.704   8.838  0.3733 -0.0351  0.1851
  536MOL0     C70663   3.285   6.602   8.801  0.1685 -0.9307 -0.3801
  536MOL0    Cl70664   3.336   6.630   8.634 -0.1823 -0.0982 -0.2255
  536MOL0     C70665   2.724   7.625   8.705 -0.2770 -0.2967 -0.4893
  536MOL0     C70666   2.622   7.727   8.708  1.2731 -0.4328  0.4496
  536MOL0     O70667   2.384   7.902   8.726  0.3184  1.2138 -0.5982
  536MOL0     C70668   2.459   8.207   8.549  0.9187  0.7816 -0.7174
  536MOL0     C70669   2.391   8.320   8.495  0.8338 -0.0374 -0.5454
  536MOL0     N70670   1.990   8.753   8.078 -0.1915 -0.4182 -0.1721
  536MOL0     N70671   2.082   8.830   8.037 -0.1806 -0.4510 -0.8469
  536MOL0     C70672   2.333   9.499   7.732 -0.1249 -0.1598  0.7547
  536MOL0     C70673   2.436   9.448   7.660 -0.2502 -0.9913 -0.6287
  536MOL0     C70674   2.857   9.466   7.479 -0.3092  0.9487 -0.1277
  536MOL0     C70675   2.866   9.325   7.476 -0.5957 -0.1802 -0.3758
  536MOL0     C70676   2.986   9.253   7.469 -0.2397 -0.3990  0.2434
  536MOL0     C70677   3.111   9.315   7.459  0.5456  0.3415  0.8330
  536MOL0     O70678   3.221   9.242   7.436 -0.9300  0.7118 -0.2206
  536MOL0     C70679   3.323   9.280   7.349  0.4860  0.3495 -0.1424
  536MOL0     C70680   3.423   9.168   7.324  0.5871  0.8483  0.5818
  536MOL0     C70681   3.349   9.054   7.248 -0.3658  0.1162 -0.0428
  536MOL0     C70682   3.441   8.955   7.181 -0.1294 -0.7335 -0.3529
  536MOL0     C70683   3.530   9.003   7.079 -0.1241  0.2683 -0.1459
  536MOL0     C70684   3.619   9.041   6.998  0.0083  1.3199  0.5426
  536MOL0     C70685   3.112   9.454   7.443  0.3225 -0.9779  0.2520
  536MOL0     C70686   2.986   9.530   7.458  0.0981 -0.4171 -0.5012
  536MOL0     H70687   2.504   9.707   7.451  2.6239  0.3678  0.0191
  536MOL0     H70688   2.330   9.796   7.574 -1.7721 -0.8591 -2.0015
  536MOL0     H70689   2.255   9.807   7.910  2.9485 -1.9854  2.3495
  536MOL0     H70690   2.255   9.642   7.954 -0.9782  0.1598  0.6865
  536MOL0     H70691   1.989   9.795   7.877 -0.2260  1.0289  1.3442
  536MOL0     H70692   2.062   9.784   8.044 -0.3639 -1.2962  0.9240
  536MOL0     H70693   1.962   9.549   7.864 -1.8511 -3.1522  1.7460
  536MOL0     H70694   1.870   9.630   7.983 -0.5057  2.4467 -1.1854
  536MOL0     H70695   2.142   9.481   7.998  1.8256  3.8331  0.8980
  536MOL0     H70696   2.066   9.562   8.144 -1.1775 -0.7504  0.5952
  536MOL0     H70697   1.913   9.358   7.982  1.3037  0.6989 -1.5455
  536MOL0     H70698   1.883   9.428   8.146 -0.1037 -1.4309  1.2841
  536MOL0     H70699   1.985   9.243   8.225  0.6609 -1.3769 -0.6383
  536MOL0     H70700   2.144   9.313   8.166  0.4493  1.2300 -0.5884
  536MOL0     H70701   1.958   9.128   8.016 -0.2109  2.3113  0.8677
  536MOL0     H70702   2.100   9.188   7.938  2.8286  4.3478  1.7318
  536MOL0     H70703   2.197   9.089   8.208 -0.4682  1.9561 -0.3111
  536MOL0     H70704   2.243   9.038   8.042 -1.5146 -2.6228 -2.5010
  536MOL0     H70705   1.972   8.970   8.318  0.3479  0.1834  0.5675
  536MOL0     H70706   1.744   8.706   8.208  1.2730  0.5363 -0.7459
  536MOL0     H70707   1.800   8.791   8.357  2.1350  1.5018  0.0282
  536MOL0     H70708   1.860   8.523   8.236 -1.2263 -0.6380 -0.6346
  536MOL0     H70709   1.813   8.562   8.402 -2.6885 -0.0772 -2.1970
  536MOL0     H70710   2.097   8.630   8.299 -0.5110 -1.6546 -1.0527
  536MOL0     H70711   2.031   8.655   8.453 -0.7527  2.9215 -1.3279
  536MOL0     H70712   2.014   8.376   8.358  0.1344 -1.1383 -0.3043
  536MOL0     H70713   2.019   8.451   8.514 -0.8837  4.2747 -0.5917
  536MOL0     H70714   2.070   8.218   8.533 -1.6566  1.7643  1.4603
  536MOL0     H70715   2.164   8.037   8.647 -0.7802  0.6529  0.5595
  536MOL0     H70716   2.829   7.981   8.600 -0.7301  0.7487  2.1735
  536MOL0     H70717   2.994   7.792   8.598 -0.5833  0.8935  0.5159
  536MOL0     H70718   2.854   7.378   8.656 -2.2795 -0.2025  1.9482
  536MOL0     H70719   2.856   7.417   8.816 -0.5034  0.1493 -1.2716
  536MOL0     H70720   3.101   7.396   8.840  0.5928 -0.0971 -0.7512
  536MOL0     H70721   3.110   7.331   8.670 -2.0602 -1.2389 -2.2739
  536MOL0     H70722   2.937   7.145   8.758  1.9220 -2.7202 -0.0733
  536MOL0     H70723   2.969   7.193   8.918 -0.5529 -1.7312 -1.0079
  536MOL0     H70724   3.172   7.095   8.707  0.6890  1.1961  1.2031
  536MOL0     H70725   3.220   7.125   8.874  0.9865 -2.0246  1.8014
  536MOL0     H70726   3.002   6.908   8.810 -1.2342 -1.0862  1.4962
  536MOL0     H70727   3.075   6.942   8.956 -0.6228  0.9782 -1.0777
  536MOL0     H70728   3.293   6.880   8.880  2.2481 -1.2019 -2.2615
  536MOL0     H70729   3.233   6.862   8.705 -3.1411 -1.8338 -1.1237
  536MOL0     H70730   3.134   6.685   8.937 -2.2674 -1.7442 -1.1660
  536MOL0     H70731   3.090   6.670   8.781  0.7080 -0.7421  0.0941
  536MOL0     H70732   3.242   6.505   8.829 -3.1112  1.0415  2.2663
  536MOL0     H70733   3.368   6.615   8.872 -0.8977  2.7254  0.4204
  536MOL0     H70734   2.691   7.524   8.728  0.5938 -0.1769  1.5378
  536MOL0     H70735   2.517   7.702   8.721  0.2084  1.5041 -2.9704
  536MOL0     H70736   2.567   8.217   8.538  1.1012  0.3278  0.5304
  536MOL0     H70737   2.441   8.410   8.462  0.4437  1.0177  1.5772
  536MOL0     H70738   2.290   9.439   7.812 -0.3763 -0.7666  0.1710
  536MOL0     H70739   2.457   9.342   7.673 -1.7956 -1.1010  1.6491
  536MOL0     H70740   2.778   9.267   7.504  0.1448 -0.8483  0.6518
  536MOL0     H70741   2.983   9.145   7.474  1.0147 -0.4874 -0.4346
  536MOL0     H70742   3.374   9.362   7.402  3.2361 -1.1723 -0.2345
  536MOL0     H70743   3.282   9.322   7.257  1.2636  1.0260 -0.2021
  536MOL0     H70744   3.505   9.215   7.269  1.5501  0.9914  2.0765
  536MOL0     H70745   3.476   9.132   7.413  1.9134  0.1833 -0.4315
  536MOL0     H70746   3.277   9.088   7.173 -0.3840  1.1850  0.4397
  536MOL0     H70747   3.298   8.998   7.326  0.4986 -1.4369 -0.5425
  536MOL0     H70748   3.505   8.907   7.256 -0.6508  0.5866  0.9921
  536MOL0     H70749   3.372   8.881   7.140 -2.2981 -0.5304  2.6594
  536MOL0     H70750   3.702   9.074   6.938  0.5723  1.7430  1.5364
  536MOL0     H70751   3.198   9.517   7.423 -1.9821  1.3582 -3.5267
  536MOL0     H70752   2.986   9.639   7.463 -0.7553 -0.3925  4.8857
  537MOL0     O70753   8.223  11.045   6.574 -0.1848  0.4037 -0.3140
  537MOL0     C70754   8.189  11.162   6.549  0.5039 -0.3189  1.0968
  537MOL0     O70755   8.231  11.270   6.616  0.7137  0.5568  0.2392
  537MOL0     C70756   8.359  11.268   6.667  0.3234 -0.2043  0.1361
  537MOL0     C70757   8.370  11.342   6.786 -0.4724 -0.6068  0.1908
  537MOL0     C70758   8.497  11.377   6.829  0.4360 -0.8596  0.2483
  537MOL0     C70759   8.612  11.346   6.765 -0.7197  0.6318 -0.2320
  537MOL0     O70760   8.735  11.397   6.792 -0.6920 -1.0782 -0.1053
  537MOL0     C70761   8.757  11.488   6.899  0.0324 -0.9101 -1.2492
  537MOL0     C70762   8.765  11.416   7.042  0.2841  0.5611 -0.7556
  537MOL0     C70763   8.862  11.302   7.046  0.6599  1.1442  0.3127
  537MOL0     C70764   8.822  11.197   7.156  0.0706  0.9544  0.2199
  537MOL0     C70765   8.923  11.069   7.159  0.5162  0.3439 -0.2175
  537MOL0     C70766   8.874  10.978   7.268  0.9838 -0.4443 -0.6215
  537MOL0     C70767   8.959  10.855   7.281 -0.4837  0.5206  0.1340
  537MOL0     C70768   8.935  10.757   7.170  0.2058  0.4883 -0.0859
  537MOL0     N70769   9.006  10.634   7.189 -0.3255 -0.1998 -1.4923
  537MOL0     C70770   8.973  10.533   7.115  0.2729 -0.5337 -0.9299
  537MOL0     C70771   9.053  10.432   7.154 -0.8007 -0.2546  0.2059
  537MOL0     C70772   9.048  10.294   7.094  0.0818 -0.9466  0.4217
  537MOL0     C70773   9.081  10.293   6.953  0.2714  0.6520 -0.4826
  537MOL0     C70774   9.224  10.329   6.923  0.2651 -0.7859 -0.5387
  537MOL0     C70775   9.274  10.290   6.783  1.3621  0.8270  0.3671
  537MOL0     O70776   9.273  10.149   6.775 -1.0821 -0.1990 -0.3179
  537MOL0     C70777   9.383  10.080   6.812  0.2066  0.4932 -0.2960
  537MOL0     C70778   9.499  10.122   6.880 -0.4125 -0.8867 -0.0197
  537MOL0     C70779   9.614  10.050   6.906 -0.3374 -0.2355  0.1718
  537MOL0     C70780   9.615   9.917   6.868  0.8645  0.2010  0.0546
  537MOL0     C70781   9.725   9.819   6.895  0.3707  0.5623  0.6056
  537MOL0     O70782   9.789   9.833   7.014  0.4105  0.6242  0.3969
  537MOL0     C70783   9.877   9.730   7.048 -0.5273  0.0169  0.3304
  537MOL0     C70784   9.841   9.594   7.092 -0.0644 -0.2244  1.0946
  537MOL0     C70785   9.934   9.503   7.130  0.2481  0.2799  0.1950
  537MOL0     C70786  10.069   9.534   7.135 -0.5014 -0.4112  0.0992
  537MOL0     O70787  10.178   9.460   7.181  0.1981 -0.0499  0.1125
  537MOL0     C70788  10.167   9.320   7.174 -0.0509  0.9696 -0.3903
  537MOL0     C70789  10.295   9.246   7.159 -0.2509 -0.8041 -0.4556
  537MOL0     C70790  10.352   9.248   7.020  0.1725 -0.9186  0.4775
  537MOL0     C70791  10.495   9.252   7.014  0.2963  0.1748  0.1485
  537MOL0     C70792  10.558   9.281   6.882  0.2729 -0.5569  0.9405
  537MOL0     C70793  10.714   9.265   6.895  0.0371 -0.2165  0.9096
  537MOL0     C70794  10.794   9.314   6.773  0.1094  0.9008  0.4489
  537MOL0     C70795  10.936   9.344   6.808 -1.0791 -0.1661  0.6268
  537MOL0    Cl70796  10.936   9.505   6.879 -0.5734  0.4659 -0.0660
  537MOL0     C70797  10.115   9.658   7.086 -0.7444  0.6114 -0.0176
  537MOL0     C70798  10.017   9.760   7.044 -0.2698  0.6581  1.0208
  537MOL0     O70799   9.741   9.728   6.811  1.3535  0.2668 -0.1165
  537MOL0     C70800   9.496   9.865   6.802 -0.5163  0.9134 -0.4527
  537MOL0     C70801   9.385   9.946   6.778  0.0289  0.2429 -0.8610
  537MOL0     N70802   9.128  10.477   7.262 -0.6814 -0.4429  0.8470
  537MOL0     N70803   9.093  10.599   7.283  0.0222 -0.1057 -0.7112
  537MOL0     C70804   8.607  11.269   6.649  0.0931 -0.9706  0.3185
  537MOL0     C70805   8.481  11.221   6.604 -0.8803 -0.1915 -0.3532
  537MOL0     C70806   8.097  11.176   6.440  0.0442 -0.7838 -0.3663
  537MOL0     C70807   8.008  11.276   6.440 -0.1699  0.6862  1.5873
  537MOL0     C70808   7.900  11.282   6.337  0.4542  0.2624  0.3446
  537MOL0     C70809   7.896  11.187   6.239  0.5447  0.2549 -0.0489
  537MOL0     O70810   7.801  11.186   6.138 -0.3341  0.4333 -0.5816
  537MOL0     C70811   7.725  11.296   6.097 -0.7219 -0.0901 -0.5265
  537MOL0     C70812   7.634  11.250   5.983 -0.0337 -1.1212 -0.3915
  537MOL0     C70813   7.686  11.138   5.888 -0.8914 -0.1953 -0.5342
  537MOL0     C70814   7.586  11.125   5.776 -0.8425 -1.2488  1.4885
  537MOL0     C70815   7.607  11.003   5.693  0.0735 -0.7127 -0.3700
  537MOL0     C70816   7.608  10.900   5.630  0.1083 -0.3162 -0.7895
  537MOL0     C70817   7.982  11.078   6.240  0.1950 -0.2789 -0.9328
  537MOL0     C70818   8.082  11.073   6.343  0.8622 -0.4042 -0.4399
  537MOL0     H70819   8.287  11.392   6.836 -0.9070  0.4801 -1.5314
  537MOL0     H70820   8.498  11.439   6.918 -1.5866  1.5013 -1.2706
  537MOL0     H70821   8.686  11.572   6.905  0.6680 -0.4413  0.2546
  537MOL0     H70822   8.853  11.538   6.882 -0.0092  0.3526  1.6212
  537MOL0     H70823   8.664  11.380   7.064  0.6620  0.3131  0.6713
  537MOL0     H70824   8.795  11.489   7.118  1.0147 -0.3559 -0.1318
  537MOL0     H70825   8.963  11.342   7.058  0.3826  2.3307 -1.0268
  537MOL0     H70826   8.873  11.248   6.951 -0.7450  2.0379 -0.3927
  537MOL0     H70827   8.818  11.241   7.257  1.2682  0.3485  0.5527
  537MOL0     H70828   8.716  11.173   7.149  0.1159  0.7196  0.3276
  537MOL0     H70829   9.024  11.103   7.181  1.1123 -1.4919  0.0326
  537MOL0     H70830   8.919  11.024   7.059 -1.1926 -2.7692  1.0831
  537MOL0     H70831   8.768  10.950   7.269  1.0798 -0.8019  0.0687
  537MOL0     H70832   8.870  11.031   7.363 -3.3344  0.9825 -1.3590
  537MOL0     H70833   9.064  10.887   7.283 -1.2259  3.3633 -1.0097
  537MOL0     H70834   8.942  10.805   7.377  0.4300  1.8080  1.0054
  537MOL0     H70835   8.973  10.807   7.080 -0.4832 -0.1566 -0.7550
  537MOL0     H70836   8.831  10.728   7.150  1.2476 -4.0303 -0.0561
  537MOL0     H70837   8.897  10.517   7.039  1.2810 -2.0219 -1.6587
  537MOL0     H70838   8.945  10.258   7.085  0.7680 -2.6975 -0.8105
  537MOL0     H70839   9.117  10.223   7.140  2.6979  0.8366 -0.5335
  537MOL0     H70840   9.016  10.365   6.902 -0.2542  0.9897  0.6345
  537MOL0     H70841   9.055  10.195   6.912  0.1627 -0.2002  1.4959
  537MOL0     H70842   9.224  10.437   6.937 -3.4884 -0.5171 -1.4798
  537MOL0     H70843   9.295  10.279   6.990  4.1446  2.1347 -2.0484
  537MOL0     H70844   9.377  10.324   6.767  1.7586 -0.0239  1.0831
  537MOL0     H70845   9.214  10.337   6.704  1.6338 -2.0632 -1.7163
  537MOL0     H70846   9.515  10.224   6.912 -0.1162 -0.8489 -0.2816
  537MOL0     H70847   9.697  10.074   6.972  0.4753 -1.2518 -0.4408
  537MOL0     H70848   9.734   9.576   7.093 -0.0194 -0.6753  3.7728
  537MOL0     H70849   9.897   9.404   7.154 -0.1508 -1.3278 -5.5932
  537MOL0     H70850  10.103   9.302   7.087 -0.8576  1.7489  0.0376
  537MOL0     H70851  10.113   9.289   7.264 -0.0470  3.4361  0.5129
  537MOL0     H70852  10.273   9.150   7.206 -1.9936  0.1338  0.7386
  537MOL0     H70853  10.357   9.298   7.232 -2.3569  0.2185  0.6935
  537MOL0     H70854  10.319   9.329   6.954 -0.4295 -1.5345  0.0042
  537MOL0     H70855  10.326   9.157   6.966 -0.7776  0.8306 -2.2811
  537MOL0     H70856  10.529   9.326   7.087  1.8831  0.6748 -1.0297
  537MOL0     H70857  10.529   9.164   7.069  0.9032  1.0145  1.1544
  537MOL0     H70858  10.534   9.385   6.860 -2.4549 -1.6120 -1.6051
  537MOL0     H70859  10.514   9.222   6.801 -1.6318  2.4502 -0.3923
  537MOL0     H70860  10.741   9.160   6.908  0.7724 -0.0224  1.0076
  537MOL0     H70861  10.741   9.327   6.981  4.4487 -0.1998 -0.2390
  537MOL0     H70862  10.794   9.239   6.692 -2.5829  1.8212 -0.5295
  537MOL0     H70863  10.747   9.405   6.735  0.5316  2.0890  2.6584
  537MOL0     H70864  10.999   9.349   6.719 -1.4889 -1.2948  0.2573
  537MOL0     H70865  10.979   9.268   6.874  1.5964  0.8846  0.1970
  537MOL0     H70866  10.221   9.682   7.084 -0.8161  0.9009 -0.5980
  537MOL0     H70867  10.052   9.854   7.001  0.3108  0.3942  0.9028
  537MOL0     H70868   9.480   9.759   6.786 -0.8372  0.8345  0.3505
  537MOL0     H70869   9.299   9.912   6.723 -0.7396 -0.4421  0.7057
  537MOL0     H70870   8.696  11.239   6.594 -1.7170 -1.1647 -2.7509
  537MOL0     H70871   8.472  11.151   6.521 -0.7141 -1.0444  0.3294
  537MOL0     H70872   8.029  11.363   6.501  2.4989  2.0944 -1.0650
  537MOL0     H70873   7.823  11.357   6.353 -2.0910 -2.2294  0.4464
  537MOL0     H70874   7.799  11.371   6.065 -1.2737 -0.4464 -2.8268
  537MOL0     H70875   7.679  11.343   6.184 -4.2665  1.4960 -3.0267
  537MOL0     H70876   7.539  11.215   6.024  0.0846 -1.5278 -0.4568
  537MOL0     H70877   7.617  11.344   5.930  1.3454  0.1069  1.2354
  537MOL0     H70878   7.682  11.050   5.954 -1.6080  1.3152  1.5358
  537MOL0     H70879   7.790  11.144   5.853  0.0558  0.2143  2.1582
  537MOL0     H70880   7.481  11.136   5.807 -1.8489  1.5812 -2.1888
  537MOL0     H70881   7.616  11.215   5.722 -0.4408 -2.4666 -0.4362
  537MOL0     H70882   7.618  10.806   5.580 -2.9045 -2.4976  2.2840
  537MOL0     H70883   7.967  11.000   6.166  0.1939 -0.0745 -1.1464
  537MOL0     H70884   8.153  10.992   6.358  1.6748 -0.0938 -2.3762
  538MOL0     O70885   3.184   0.403  11.238  1.0376 -0.1674  0.4894
  538MOL0     C70886   3.129   0.382  11.124 -0.4758  0.2542 -1.1504
  538MOL0     O70887   3.168   0.438  11.008  0.2879  0.4006 -0.6681
  538MOL0     C70888   3.249   0.545  11.015 -0.3379  0.5269 -0.0497
  538MOL0     C70889   3.384   0.538  10.981  0.4352 -0.1295 -0.0712
  538MOL0     C70890   3.463   0.648  11.002  0.5903  0.8334  0.2741
  538MOL0     C70891   3.405   0.773  11.020  0.0299  0.4121 -0.5355
  538MOL0     O70892   3.476   0.886  11.036 -0.0114 -0.0528  0.3186
  538MOL0     C70893   3.573   0.933  10.940 -0.4854 -0.5924  1.1244
  538MOL0     C70894   3.661   1.047  10.995  1.0725 -0.4793  0.7666
  538MOL0     C70895   3.576   1.175  10.993  0.2866 -0.2704 -0.1614
  538MOL0     C70896   3.659   1.296  11.026 -0.0170 -0.6032  0.1651
  538MOL0     C70897   3.574   1.415  11.073  1.2669  0.3469 -0.6021
  538MOL0     C70898   3.472   1.479  10.968  0.3616  0.1779 -0.1746
  538MOL0     C70899   3.419   1.619  11.011 -0.6174  1.4037 -0.8713
  538MOL0     C70900   3.315   1.615  11.121  1.1402 -0.3733 -0.1910
  538MOL0     N70901   3.184   1.557  11.072 -0.0027 -0.4098  0.0812
  538MOL0     C70902   3.124   1.442  11.116  0.6776 -1.1199  0.1989
  538MOL0     C70903   3.008   1.439  11.046 -0.5081  1.0144  0.0880
  538MOL0     C70904   2.907   1.314  11.053 -0.2380 -0.6269  0.0064
  538MOL0     C70905   2.924   1.230  10.927 -0.0052  0.6424 -0.4264
  538MOL0     C70906   3.063   1.155  10.918  0.4198  0.5688  0.5947
  538MOL0     C70907   3.062   1.031  10.833  0.0014 -0.2781 -0.2461
  538MOL0     O70908   3.018   0.927  10.922 -0.0145 -0.2052  0.0132
  538MOL0     C70909   2.918   0.842  10.875  0.8223  0.4260 -0.1971
  538MOL0     C70910   2.869   0.769  10.984 -0.1242  0.1701  0.4134
  538MOL0     C70911   2.782   0.674  10.959  0.6557  0.4331  1.2950
  538MOL0     C70912   2.743   0.646  10.828  0.8524  0.4192  0.4307
  538MOL0     C70913   2.645   0.533  10.800  0.1540  0.6339  0.1985
  538MOL0     O70914   2.572   0.536  10.676 -0.7457 -0.1067  0.5787
  538MOL0     C70915   2.458   0.465  10.663 -0.5793  0.3858  0.4034
  538MOL0     C70916   2.337   0.506  10.716 -0.8502 -0.0423 -0.6767
  538MOL0     C70917   2.218   0.441  10.691  0.0502  0.4512  0.0698
  538MOL0     C70918   2.232   0.319  10.617  0.6106  0.1124 -0.0839
  538MOL0     O70919   2.124   0.236  10.587 -0.0713 -0.7764 -0.3064
  538MOL0     C70920   2.036   0.190  10.687  0.0468  0.1262  0.8636
  538MOL0     C70921   1.896   0.227  10.639  0.0669  0.4649  0.5982
  538MOL0     C70922   1.871   0.148  10.507  0.2001  0.0386 -0.4563
  538MOL0     C70923   1.733   0.197  10.449  0.2404 -0.1446 -0.0680
  538MOL0     C70924   1.654   0.088  10.385  0.1485 -0.1702 -0.4701
  538MOL0     C70925   1.534   0.152  10.312  0.2422  0.3141  0.7665
  538MOL0     C70926   1.416   0.063  10.273  1.7097  0.0978  1.2832
  538MOL0     C70927   1.419   0.022  10.124 -0.2058 -0.2809 -0.0113
  538MOL0    Cl70928   1.303  -0.100  10.090 -0.0644  0.2315 -0.1705
  538MOL0     C70929   2.355   0.265  10.582  1.4133  0.4414 -0.3096
  538MOL0     C70930   2.468   0.339  10.604  0.5165  1.1799 -0.4191
  538MOL0     O70931   2.615   0.453  10.896  0.2727  0.4073 -0.2774
  538MOL0     C70932   2.805   0.713  10.721 -0.2831 -0.3800 -0.4013
  538MOL0     C70933   2.880   0.818  10.745  0.0045  0.5035  0.8211
  538MOL0     N70934   3.004   1.552  10.969 -0.2118  0.1087 -0.0952
  538MOL0     N70935   3.108   1.625  10.983 -0.9656  0.9282 -0.5959
  538MOL0     C70936   3.273   0.793  11.045 -0.5299 -0.1293  1.1784
  538MOL0     C70937   3.198   0.675  11.043  0.2339  0.7399  0.3751
  538MOL0     C70938   3.019   0.285  11.107 -0.8640  0.8850 -0.6751
  538MOL0     C70939   2.982   0.206  11.212  0.4643  0.0264 -0.3284
  538MOL0     C70940   2.874   0.110  11.201 -0.4407 -0.1160  0.1496
  538MOL0     C70941   2.817   0.085  11.070  0.4520 -0.5235  0.6329
  538MOL0     O70942   2.753  -0.031  11.050 -0.1140  0.2202  0.6886
  538MOL0     C70943   2.629  -0.017  10.979 -0.6142 -1.1599  0.6534
  538MOL0     C70944   2.537  -0.140  11.024  0.2419 -0.3430 -0.1716
  538MOL0     C70945   2.433  -0.189  10.919 -1.0217 -0.2411  0.8136
  538MOL0     C70946   2.384  -0.328  10.962 -0.1852  0.3606  0.0799
  538MOL0     C70947   2.289  -0.362  10.846 -0.3123  0.0642  0.1854
  538MOL0     C70948   2.191  -0.384  10.769  0.2168 -0.6754 -0.5775
  538MOL0     C70949   2.855   0.164  10.959  0.0497 -0.4877 -0.5025
  538MOL0     C70950   2.952   0.263  10.980  0.0457 -0.5424 -1.0545
  538MOL0     H70951   3.428   0.440  10.964 -0.2996 -0.4218 -0.3118
  538MOL0     H70952   3.571   0.636  10.994  0.5832  0.9817 -0.0940
  538MOL0     H70953   3.520   0.951  10.845  2.0411 -2.3963 -0.7648
  538MOL0     H70954   3.630   0.846  10.905  0.3235 -0.7493  2.7575
  538MOL0     H70955   3.749   1.056  10.932  4.0402  0.0660  4.6128
  538MOL0     H70956   3.700   1.032  11.096  1.3770  1.1502  0.9130
  538MOL0     H70957   3.495   1.160  11.065  1.3876  2.1586  1.7242
  538MOL0     H70958   3.527   1.186  10.896  1.6887  1.8671 -0.6819
  538MOL0     H70959   3.732   1.274  11.105  0.1446  2.5812  1.0139
  538MOL0     H70960   3.709   1.324  10.933 -3.5133 -1.7428 -2.2344
  538MOL0     H70961   3.637   1.499  11.102 -0.2043  0.2649  3.5922
  538MOL0     H70962   3.535   1.403  11.175  0.5885  2.2206 -0.6084
  538MOL0     H70963   3.391   1.410  10.942  0.0484  0.9972 -1.4586
  538MOL0     H70964   3.524   1.511  10.877  1.3352  3.3118  1.3288
  538MOL0     H70965   3.503   1.679  11.047  0.4319  0.2406 -1.3037
  538MOL0     H70966   3.390   1.671  10.919  2.1636  1.0296 -2.0822
  538MOL0     H70967   3.295   1.721  11.143  2.7930  0.0938 -0.7692
  538MOL0     H70968   3.346   1.558  11.208 -2.6241 -2.0938  0.2161
  538MOL0     H70969   3.171   1.371  11.183 -0.4004 -2.2283 -0.1726
  538MOL0     H70970   2.804   1.350  11.060  0.6837  2.3634 -0.4107
  538MOL0     H70971   2.938   1.260  11.143  0.3636 -0.5798 -0.1656
  538MOL0     H70972   2.917   1.299  10.843 -2.1686 -1.6791 -2.2900
  538MOL0     H70973   2.846   1.153  10.933  2.3755 -1.8016  2.4292
  538MOL0     H70974   3.144   1.220  10.884 -1.2210  1.6348 -1.5311
  538MOL0     H70975   3.093   1.127  11.019 -1.8997  0.1356  1.2322
  538MOL0     H70976   3.170   1.015  10.819 -0.0348 -1.6889  0.8222
  538MOL0     H70977   3.008   1.046  10.739 -0.3488  0.8710  0.1274
  538MOL0     H70978   2.901   0.794  11.085  0.5640  2.1896 -0.2446
  538MOL0     H70979   2.749   0.607  11.037 -4.0160 -0.0936 -0.7813
  538MOL0     H70980   2.353   0.604  10.759 -0.8430  0.7521 -2.3965
  538MOL0     H70981   2.124   0.484  10.723 -1.2969 -2.5813  0.5537
  538MOL0     H70982   2.060   0.230  10.786  0.4508 -2.2386  1.7907
  538MOL0     H70983   2.049   0.081  10.689  0.8683  0.1950  3.3705
  538MOL0     H70984   1.883   0.335  10.627  0.3048  0.4344  0.0256
  538MOL0     H70985   1.813   0.214  10.709  1.0996  3.4380  2.5895
  538MOL0     H70986   1.880   0.042  10.531 -0.4315  0.1030  0.0960
  538MOL0     H70987   1.938   0.173  10.424  0.7706 -4.1272 -1.4768
  538MOL0     H70988   1.677   0.244  10.530  2.5602 -0.6502  1.9315
  538MOL0     H70989   1.745   0.279  10.378 -0.7944 -0.7239 -0.9369
  538MOL0     H70990   1.622   0.010  10.455  0.8558  0.8265  1.0066
  538MOL0     H70991   1.716   0.040  10.308  1.2173 -1.1327  0.9358
  538MOL0     H70992   1.576   0.199  10.222  0.9225 -1.5772  0.0377
  538MOL0     H70993   1.489   0.232  10.371 -1.6782 -0.4943  0.4781
  538MOL0     H70994   1.409  -0.026  10.335  0.6514 -0.5048  0.3399
  538MOL0     H70995   1.320   0.112  10.290 -0.8828 -2.3775 -3.8135
  538MOL0     H70996   1.515  -0.028  10.104 -0.3569 -0.2722 -0.8169
  538MOL0     H70997   1.415   0.111  10.061 -0.4704  0.2145  0.7072
  538MOL0     H70998   2.365   0.166  10.539 -1.5723  0.3869 -1.1482
  538MOL0     H70999   2.561   0.288  10.579 -1.1963 -1.3027 -2.1146
  538MOL0     H71000   2.786   0.678  10.620  2.9923 -2.2438 -0.4975
  538MOL0     H71001   2.925   0.870  10.661 -1.2802  0.4902  0.0968
  538MOL0     H71002   3.240   0.894  11.065 -1.3319 -0.4200  1.3954
  538MOL0     H71003   3.091   0.683  11.062  0.5558 -0.4836  3.2443
  538MOL0     H71004   3.038   0.216  11.305  1.9416  0.3472 -1.2287
  538MOL0     H71005   2.855   0.038  11.279  0.1273  0.2913  0.6704
  538MOL0     H71006   2.647  -0.015  10.871  0.1338  1.8807  0.7587
  538MOL0     H71007   2.591   0.079  11.016 -0.1358 -0.5786 -0.3281
  538MOL0     H71008   2.608  -0.221  11.045 -0.1737 -0.7069 -0.1785
  538MOL0     H71009   2.485  -0.110  11.115  1.7083  2.9930 -0.2968
  538MOL0     H71010   2.483  -0.180  10.822  2.0202  0.2120  2.3021
  538MOL0     H71011   2.344  -0.125  10.920 -1.4762 -0.7808 -1.3032
  538MOL0     H71012   2.462  -0.405  10.966  3.7064  3.8436 -1.1632
  538MOL0     H71013   2.319  -0.319  11.049 -2.1647  0.2318 -1.3184
  538MOL0     H71014   2.095  -0.401  10.725  0.6300 -3.1850 -0.6738
  538MOL0     H71015   2.799   0.155  10.867  1.2911  0.7606 -1.4372
  538MOL0     H71016   2.987   0.317  10.892  2.1404  1.5685  0.9283
  539MOL0     O71017   2.214   3.137   2.675 -0.3723  0.8518 -0.0406
  539MOL0     C71018   2.103   3.170   2.625 -0.6031  0.3416 -0.0694
  539MOL0     O71019   2.092   3.255   2.522 -0.1121 -1.3372 -0.9404
  539MOL0     C71020   2.202   3.312   2.459  0.0831 -0.1674 -0.0428
  539MOL0     C71021   2.304   3.231   2.407  0.2747  0.0219  0.3161
  539MOL0     C71022   2.401   3.287   2.317 -0.0521 -0.6461 -0.0061
  539MOL0     C71023   2.412   3.433   2.295  0.7029 -0.2066  0.8925
  539MOL0     O71024   2.506   3.485   2.213  0.0991  0.1156  0.1179
  539MOL0     C71025   2.583   3.591   2.264  0.0944 -0.0843  0.1511
  539MOL0     C71026   2.730   3.579   2.204  0.2888 -0.3775 -0.3975
  539MOL0     C71027   2.814   3.459   2.258 -0.4949  0.2716  0.4831
  539MOL0     C71028   2.951   3.466   2.175  0.2845 -0.2002 -0.2576
  539MOL0     C71029   3.029   3.328   2.192  1.0205  0.2208  0.5317
  539MOL0     C71030   3.152   3.336   2.105 -0.3006  0.1599 -0.2404
  539MOL0     C71031   3.248   3.228   2.118 -0.1393 -0.4127 -0.5105
  539MOL0     C71032   3.346   3.240   2.006  0.5600 -1.0210  0.6543
  539MOL0     N71033   3.463   3.160   2.004 -0.0769  0.3679 -0.0026
  539MOL0     C71034   3.468   3.025   1.987  0.3213 -0.5088  0.5689
  539MOL0     C71035   3.601   2.995   1.979  0.3482 -0.1652  0.2561
  539MOL0     C71036   3.648   2.855   1.950 -0.3373 -0.3832  0.2147
  539MOL0     C71037   3.543   2.743   1.949  0.1901 -0.9459  0.3405
  539MOL0     C71038   3.614   2.625   1.892  0.0844 -0.7399 -0.4786
  539MOL0     C71039   3.523   2.513   1.837  0.2428 -0.1172 -0.0355
  539MOL0     O71040   3.439   2.551   1.726 -1.2863  0.1699  1.0624
  539MOL0     C71041   3.486   2.538   1.593 -0.1003 -0.0111 -0.0824
  539MOL0     C71042   3.608   2.480   1.540 -0.8540 -0.4638  0.1798
  539MOL0     C71043   3.647   2.506   1.405  0.1166  0.6478  0.6469
  539MOL0     C71044   3.560   2.562   1.323 -0.7296 -0.9551 -0.8710
  539MOL0     C71045   3.599   2.581   1.186 -0.2155 -0.8864  1.0244
  539MOL0     O71046   3.711   2.512   1.142  0.3129  0.2579 -0.1362
  539MOL0     C71047   3.806   2.557   1.057  1.3343  0.7814  0.0351
  539MOL0     C71048   3.876   2.458   1.000 -0.0716 -0.4565 -1.0039
  539MOL0     C71049   3.983   2.495   0.919 -0.2041  0.1079 -0.3129
  539MOL0     C71050   4.013   2.630   0.880 -0.0920  0.2760 -0.7648
  539MOL0     O71051   4.114   2.672   0.793 -0.3648  0.8206 -0.4006
  539MOL0     C71052   4.245   2.611   0.790 -0.5747 -0.4629  0.0497
  539MOL0     C71053   4.310   2.570   0.655 -0.4132 -0.6206  0.3210
  539MOL0     C71054   4.237   2.454   0.605 -0.0738  0.6137  1.1172
  539MOL0     C71055   4.283   2.411   0.469  0.2670 -0.5409 -0.9450
  539MOL0     C71056   4.182   2.323   0.393 -0.1236  0.4549 -0.4249
  539MOL0     C71057   4.178   2.185   0.451 -0.1158  0.4001  0.4778
  539MOL0     C71058   4.132   2.075   0.346 -0.1231 -0.2135  0.6021
  539MOL0     C71059   4.154   1.935   0.406  0.6732  0.1214 -0.3024
  539MOL0    Cl71060   4.316   1.878   0.385 -0.6629  0.0805 -0.0046
  539MOL0     C71061   3.923   2.725   0.935  0.7755  0.2649  0.5523
  539MOL0     C71062   3.814   2.690   1.010 -0.1994 -0.0832 -0.5845
  539MOL0     O71063   3.534   2.663   1.116  0.8015 -0.3224 -0.1076
  539MOL0     C71064   3.428   2.600   1.371 -0.1382 -0.0864 -0.4712
  539MOL0     C71065   3.390   2.585   1.503 -1.1789  0.3396  0.3587
  539MOL0     N71066   3.668   3.113   1.999  0.0332  0.1287  0.3003
  539MOL0     N71067   3.587   3.207   2.015  0.1245  0.9513 -0.3003
  539MOL0     C71068   2.304   3.506   2.354 -0.4142 -0.9417  1.1190
  539MOL0     C71069   2.202   3.454   2.434 -0.5424  0.2542 -0.2950
  539MOL0     C71070   1.986   3.113   2.674  0.2165  0.1831 -0.2399
  539MOL0     C71071   1.855   3.179   2.665 -0.4891 -0.7176  0.2879
  539MOL0     C71072   1.738   3.115   2.709  0.4841 -0.6778  0.8693
  539MOL0     C71073   1.744   2.987   2.763 -0.5348  0.4008  0.1931
  539MOL0     O71074   1.644   2.916   2.825 -0.0879  0.5856 -0.2849
  539MOL0     C71075   1.532   2.994   2.876  0.2513  0.3705 -0.0020
  539MOL0     C71076   1.432   2.912   2.954  0.6480  0.9810 -0.1630
  539MOL0     C71077   1.489   2.850   3.083 -0.1256 -0.0867  0.2861
  539MOL0     C71078   1.397   2.831   3.203  1.3999 -0.1042 -0.5735
  539MOL0     C71079   1.296   2.722   3.193 -0.9522 -0.2927  0.7857
  539MOL0     C71080   1.220   2.627   3.188  0.4314  0.8393  0.4522
  539MOL0     C71081   1.870   2.919   2.752 -0.1645  0.0894 -0.3479
  539MOL0     C71082   1.984   2.981   2.715  0.1472  0.2955  0.0450
  539MOL0     H71083   2.309   3.131   2.451 -1.9765 -0.8612 -1.2274
  539MOL0     H71084   2.479   3.224   2.275 -0.9262 -0.4995 -1.9583
  539MOL0     H71085   2.590   3.582   2.372 -1.0401 -0.5686  0.1980
  539MOL0     H71086   2.531   3.686   2.244 -1.4480 -0.3540  2.5366
  539MOL0     H71087   2.786   3.669   2.234  0.2738 -0.7856  0.9074
  539MOL0     H71088   2.720   3.577   2.095 -1.8052  0.8861 -0.2874
  539MOL0     H71089   2.762   3.364   2.247 -4.4523  2.1661  1.2149
  539MOL0     H71090   2.805   3.457   2.367 -0.2846 -1.8454  0.5056
  539MOL0     H71091   2.931   3.498   2.072  0.0593  4.0488  0.9394
  539MOL0     H71092   3.007   3.549   2.218  0.0746  0.0370 -0.4330
  539MOL0     H71093   2.960   3.248   2.161  0.3910  0.8917  0.1393
  539MOL0     H71094   3.062   3.306   2.294 -3.8182  1.0554  2.5812
  539MOL0     H71095   3.203   3.429   2.133 -1.8269  0.9685 -0.0235
  539MOL0     H71096   3.113   3.342   2.003 -1.7147  0.6078  0.2991
  539MOL0     H71097   3.302   3.223   2.213 -0.0549  0.1956 -0.5244
  539MOL0     H71098   3.187   3.137   2.109 -1.0871  0.0331  1.1073
  539MOL0     H71099   3.371   3.346   1.998 -3.8365  0.3732  2.5688
  539MOL0     H71100   3.288   3.206   1.919 -1.8898 -2.6509  2.7588
  539MOL0     H71101   3.383   2.958   1.995 -1.4037  1.8258  4.3347
  539MOL0     H71102   3.703   2.830   2.041 -2.2719 -3.3084  0.7357
  539MOL0     H71103   3.717   2.858   1.864  1.7477  2.5920  1.8152
  539MOL0     H71104   3.451   2.768   1.895  0.4845 -0.1562  0.1834
  539MOL0     H71105   3.523   2.736   2.057  0.3758 -1.8262  0.3251
  539MOL0     H71106   3.685   2.648   1.812  1.4666 -1.5291  0.4766
  539MOL0     H71107   3.687   2.589   1.965  1.1341  0.5952 -0.8305
  539MOL0     H71108   3.459   2.471   1.915 -0.4353 -0.2350 -0.6419
  539MOL0     H71109   3.595   2.434   1.813  1.7722  1.7681 -2.1527
  539MOL0     H71110   3.684   2.434   1.602 -0.8726 -0.2914  0.3327
  539MOL0     H71111   3.750   2.487   1.377  0.9196 -0.7633  3.9999
  539MOL0     H71112   3.860   2.357   1.036 -2.3266 -0.4244 -1.7829
  539MOL0     H71113   4.055   2.421   0.885  2.0545  0.7439  2.6523
  539MOL0     H71114   4.235   2.528   0.861 -3.3771 -0.5302 -0.3225
  539MOL0     H71115   4.302   2.691   0.839 -1.2596  2.7646 -3.8962
  539MOL0     H71116   4.415   2.546   0.671  1.1170  3.8938 -1.4210
  539MOL0     H71117   4.318   2.650   0.580 -2.7826  0.3098  0.9609
  539MOL0     H71118   4.130   2.472   0.593 -0.0647 -0.0437 -0.1109
  539MOL0     H71119   4.240   2.371   0.676  1.7760  0.4737  0.9328
  539MOL0     H71120   4.301   2.503   0.412 -0.6067 -0.1843 -0.6589
  539MOL0     H71121   4.380   2.361   0.472 -0.1497 -1.4325  2.9306
  539MOL0     H71122   4.219   2.314   0.291  0.4562  2.3712 -0.4141
  539MOL0     H71123   4.081   2.366   0.395 -0.3651 -0.0795 -0.8995
  539MOL0     H71124   4.117   2.180   0.541 -2.2042 -2.9582 -0.9564
  539MOL0     H71125   4.285   2.165   0.465  0.1892  0.9762 -0.8999
  539MOL0     H71126   4.025   2.087   0.329 -0.3573 -1.5728  0.9813
  539MOL0     H71127   4.179   2.091   0.249 -4.0001  1.0377 -1.2644
  539MOL0     H71128   4.091   1.861   0.356 -2.0341  0.2116  2.6163
  539MOL0     H71129   4.123   1.931   0.511 -3.0897 -0.6756 -1.2835
  539MOL0     H71130   3.928   2.832   0.914 -2.5650  0.4166 -0.0675
  539MOL0     H71131   3.751   2.764   1.057  0.9374  0.1803  0.5720
  539MOL0     H71132   3.351   2.641   1.307 -3.8875 -3.4524  1.4318
  539MOL0     H71133   3.301   2.633   1.542 -0.8005  2.2985 -1.0578
  539MOL0     H71134   2.298   3.614   2.347  0.9239 -0.9247  0.0204
  539MOL0     H71135   2.123   3.518   2.471  1.0652  2.8333 -1.0615
  539MOL0     H71136   1.857   3.283   2.633  2.9045  0.4297  3.4965
  539MOL0     H71137   1.648   3.174   2.719  1.0997  0.0028  2.6811
  539MOL0     H71138   1.474   3.040   2.795 -1.6138  2.2440  2.2664
  539MOL0     H71139   1.568   3.079   2.933 -1.0018  0.6559  0.4029
  539MOL0     H71140   1.363   2.990   2.989  1.8626  2.7484 -1.5124
  539MOL0     H71141   1.404   2.835   2.881  0.3155  2.6000 -1.8195
  539MOL0     H71142   1.551   2.930   3.123 -1.0398  0.0756  1.4172
  539MOL0     H71143   1.549   2.761   3.060 -0.6454 -0.6219  0.9759
  539MOL0     H71144   1.462   2.821   3.291  0.0094 -4.8303  0.2043
  539MOL0     H71145   1.337   2.921   3.220  1.6203 -0.2679  1.2859
  539MOL0     H71146   1.153   2.545   3.203  1.4592 -0.3480 -1.0576
  539MOL0     H71147   1.884   2.817   2.786  3.8343 -0.1937 -2.2644
  539MOL0     H71148   2.075   2.921   2.717 -0.9724 -1.6312 -1.8043
  540MOL0     O71149   8.855   6.286   4.064  0.2220 -1.2542 -0.1230
  540MOL0     C71150   8.981   6.297   4.069 -0.1432 -0.6355  0.2546
  540MOL0     O71151   9.066   6.285   3.962 -0.6444  0.5228  0.6721
  540MOL0     C71152   9.027   6.227   3.849  0.1576 -0.0239  0.4360
  540MOL0     C71153   9.097   6.281   3.742  0.7550  0.4054  0.4388
  540MOL0     C71154   9.053   6.249   3.611 -0.4800 -0.2636 -0.6262
  540MOL0     C71155   8.955   6.160   3.586 -0.7155  0.4428 -0.4060
  540MOL0     O71156   8.921   6.122   3.455 -0.5914  0.8200 -0.0141
  540MOL0     C71157   8.955   6.203   3.345  0.9622  0.3659 -0.4215
  540MOL0     C71158   8.894   6.156   3.215  0.0245  0.7969  0.9419
  540MOL0     C71159   8.960   6.023   3.183  0.3468  1.0940 -0.2382
  540MOL0     C71160   8.961   5.994   3.029 -0.7787 -0.8244  0.5835
  540MOL0     C71161   8.955   5.847   2.996 -0.2337  0.0088  0.5047
  540MOL0     C71162   8.913   5.825   2.852  0.8229  0.4163 -0.3978
  540MOL0     C71163   8.876   5.677   2.804  0.0111 -0.7416 -0.5504
  540MOL0     C71164   8.999   5.609   2.740  0.2891 -0.4436  0.6965
  540MOL0     N71165   9.061   5.516   2.839  0.6830 -0.1727  0.0056
  540MOL0     C71166   9.144   5.552   2.944 -0.5966 -0.6659 -0.6319
  540MOL0     C71167   9.178   5.433   3.000 -0.2580 -0.2758 -0.6231
  540MOL0     C71168   9.271   5.397   3.104 -0.3165  0.0504 -0.8051
  540MOL0     C71169   9.409   5.458   3.091  0.8262 -0.1808 -0.5163
  540MOL0     C71170   9.529   5.404   3.177  0.0529 -0.5475  0.4313
  540MOL0     C71171   9.538   5.473   3.311 -0.1030  0.3687 -0.5328
  540MOL0     O71172   9.665   5.434   3.364  0.5662  0.8274 -0.0574
  540MOL0     C71173   9.663   5.393   3.494  0.9055 -0.3631  0.3355
  540MOL0     C71174   9.694   5.498   3.588 -0.5627  0.0624 -0.8733
  540MOL0     C71175   9.685   5.472   3.720 -0.4487 -0.1298  0.8164
  540MOL0     C71176   9.618   5.357   3.758 -0.0546 -0.3838  0.0536
  540MOL0     C71177   9.588   5.346   3.910  0.8081 -0.0263  0.4588
  540MOL0     O71178   9.613   5.457   3.982 -0.5143 -0.8943  0.1938
  540MOL0     C71179   9.594   5.450   4.119 -0.5588 -0.0311  0.4277
  540MOL0     C71180   9.513   5.545   4.183 -0.3862 -0.4327  0.0753
  540MOL0     C71181   9.504   5.545   4.328  0.2570  0.2549  1.2002
  540MOL0     C71182   9.574   5.444   4.397  0.1409  0.0143  0.4440
  540MOL0     O71183   9.550   5.454   4.531 -0.2074  0.0182 -0.1605
  540MOL0     C71184   9.621   5.367   4.613 -0.1725 -0.2557  0.1094
  540MOL0     C71185   9.767   5.391   4.613  0.7407 -0.2234  0.2490
  540MOL0     C71186   9.831   5.408   4.752  0.4010  0.4336 -0.9606
  540MOL0     C71187   9.799   5.541   4.829 -0.1249 -0.1747 -0.0544
  540MOL0     C71188   9.822   5.677   4.753  0.0987  0.7614 -0.1688
  540MOL0     C71189   9.961   5.691   4.679 -0.4593 -0.5207 -0.4232
  540MOL0     C71190  10.088   5.696   4.765 -0.3734 -1.1173 -0.2177
  540MOL0     C71191  10.051   5.764   4.904 -1.0033 -0.3148  0.2117
  540MOL0    Cl71192  10.057   5.959   4.883 -0.1065 -0.2752  0.2944
  540MOL0     C71193   9.655   5.348   4.336 -0.2001 -0.3026 -0.1170
  540MOL0     C71194   9.669   5.365   4.202 -0.9257  0.3364 -0.0248
  540MOL0     O71195   9.522   5.253   3.940  0.0558  0.2486 -0.1959
  540MOL0     C71196   9.583   5.249   3.670  0.3381  0.2373 -1.4315
  540MOL0     C71197   9.609   5.271   3.537 -0.2074 -0.1829  0.3093
  540MOL0     N71198   9.114   5.334   2.934  0.1472  0.4405  0.6567
  540MOL0     N71199   9.030   5.384   2.855  0.3166 -0.0579  0.5863
  540MOL0     C71200   8.891   6.102   3.695 -0.7541 -0.0832 -0.0106
  540MOL0     C71201   8.932   6.129   3.828  0.2629 -0.1354  0.5842
  540MOL0     C71202   9.036   6.360   4.192  0.6657  0.4517 -0.1639
  540MOL0     C71203   9.164   6.422   4.185 -0.8664  0.1886  0.1687
  540MOL0     C71204   9.228   6.481   4.302 -0.0509  0.8719 -0.5384
  540MOL0     C71205   9.152   6.476   4.422 -0.5895  0.4920 -0.4489
  540MOL0     O71206   9.196   6.546   4.536  0.3455 -0.4159  0.3910
  540MOL0     C71207   9.145   6.532   4.669 -0.0058  0.3981 -0.7399
  540MOL0     C71208   9.266   6.578   4.764  0.5747  0.3988  1.0905
  540MOL0     C71209   9.384   6.488   4.747 -0.1051 -0.2083  0.6201
  540MOL0     C71210   9.417   6.376   4.855 -0.0488  0.0844  0.0182
  540MOL0     C71211   9.569   6.380   4.883  1.1047 -0.2776  0.5357
  540MOL0     C71212   9.685   6.395   4.875 -0.1964  0.1021 -0.4896
  540MOL0     C71213   9.032   6.410   4.423  0.2045 -0.5053 -0.3482
  540MOL0     C71214   8.967   6.354   4.318  0.0997  0.0579 -0.4382
  540MOL0     H71215   9.167   6.358   3.771  2.0369 -1.0813  1.5170
  540MOL0     H71216   9.106   6.295   3.527 -3.4259 -0.0341 -2.5262
  540MOL0     H71217   9.061   6.220   3.322  1.1047  0.0697  0.0103
  540MOL0     H71218   8.910   6.301   3.363 -1.1149 -0.2970 -1.6594
  540MOL0     H71219   8.928   6.223   3.136 -0.2962  0.5501  0.5889
  540MOL0     H71220   8.785   6.152   3.204 -0.0287  2.0048  0.9783
  540MOL0     H71221   8.908   5.945   3.239 -0.7216  2.6813  1.0776
  540MOL0     H71222   9.060   6.027   3.225 -1.1490  1.9747  3.6318
  540MOL0     H71223   8.874   6.038   2.979  1.4314  1.0105 -2.0188
  540MOL0     H71224   9.046   6.045   2.981 -1.1607 -2.3244 -1.8955
  540MOL0     H71225   8.887   5.796   3.066 -1.2617  1.3936  0.5306
  540MOL0     H71226   9.054   5.802   3.009  0.9116  2.0528 -0.7067
  540MOL0     H71227   8.990   5.857   2.782 -0.7025  0.7701 -1.9979
  540MOL0     H71228   8.816   5.870   2.827 -0.4348 -1.3941  0.9608
  540MOL0     H71229   8.821   5.621   2.880 -3.3822  3.0560  0.1271
  540MOL0     H71230   8.806   5.700   2.723 -1.0221  2.3091  1.0741
  540MOL0     H71231   9.082   5.675   2.713 -1.5110  1.6479  0.0079
  540MOL0     H71232   8.959   5.560   2.651 -1.3316  2.1890 -0.1268
  540MOL0     H71233   9.177   5.649   2.979  0.8477 -1.6473  0.8315
  540MOL0     H71234   9.285   5.289   3.109 -0.5769  0.0653  0.9306
  540MOL0     H71235   9.230   5.426   3.201  0.9041  2.6533 -0.9815
  540MOL0     H71236   9.411   5.561   3.127  0.6377 -1.5587  4.0773
  540MOL0     H71237   9.437   5.456   2.985 -1.4785 -3.5872 -1.2490
  540MOL0     H71238   9.523   5.295   3.188 -0.7441 -0.5391  0.1901
  540MOL0     H71239   9.622   5.435   3.130  0.0172  0.9951  1.3469
  540MOL0     H71240   9.451   5.431   3.363  0.2203  0.8721  0.4283
  540MOL0     H71241   9.510   5.578   3.313 -5.0462 -0.6961  1.5706
  540MOL0     H71242   9.716   5.595   3.545 -0.7496  0.8196  0.6586
  540MOL0     H71243   9.713   5.547   3.792  1.1827  1.0774 -0.9678
  540MOL0     H71244   9.462   5.622   4.125  2.4390  2.8642  1.6217
  540MOL0     H71245   9.432   5.608   4.378  0.2608  0.4932  0.9074
  540MOL0     H71246   9.608   5.261   4.590  1.0341 -0.1160 -1.3871
  540MOL0     H71247   9.575   5.383   4.711 -1.7060 -1.3546 -0.3926
  540MOL0     H71248   9.796   5.474   4.548  1.3459  0.7178  1.6572
  540MOL0     H71249   9.809   5.303   4.562  1.9166  0.3721  0.1482
  540MOL0     H71250   9.940   5.400   4.748  0.4472  0.9152 -0.7690
  540MOL0     H71251   9.789   5.332   4.818  0.8641  0.7756 -0.2548
  540MOL0     H71252   9.695   5.550   4.862 -0.0728  0.2545  0.0036
  540MOL0     H71253   9.872   5.540   4.910  0.3460 -0.6401 -0.4812
  540MOL0     H71254   9.806   5.762   4.820 -2.5557  1.1807 -1.2133
  540MOL0     H71255   9.744   5.686   4.677  0.6026  2.1817 -0.5446
  540MOL0     H71256   9.959   5.793   4.639 -2.7026  0.1913  1.2899
  540MOL0     H71257   9.969   5.614   4.602 -0.5560  0.3114 -1.2906
  540MOL0     H71258  10.136   5.600   4.782 -1.0678 -1.5183 -0.5000
  540MOL0     H71259  10.159   5.753   4.704 -2.3242  0.7493 -0.9110
  540MOL0     H71260  10.142   5.758   4.964  0.1283  3.2473 -0.8710
  540MOL0     H71261   9.971   5.726   4.968 -3.1581  2.0765 -0.8740
  540MOL0     H71262   9.715   5.271   4.383  1.4447  0.6657 -0.5470
  540MOL0     H71263   9.733   5.295   4.148  0.3048  1.5692 -0.2361
  540MOL0     H71264   9.523   5.167   3.707  2.5852 -0.5359  0.7131
  540MOL0     H71265   9.563   5.205   3.465 -0.8364  1.0045 -0.4172
  540MOL0     H71266   8.830   6.016   3.671  1.5397 -1.9832  0.5745
  540MOL0     H71267   8.879   6.084   3.911  1.1634  1.2700  1.9596
  540MOL0     H71268   9.224   6.434   4.095 -0.6871  2.3319  0.5222
  540MOL0     H71269   9.328   6.524   4.292  1.2561 -2.0334 -1.0138
  540MOL0     H71270   9.128   6.425   4.685  0.0072  0.5547  0.4177
  540MOL0     H71271   9.062   6.598   4.694  1.7546  2.0072  1.1931
  540MOL0     H71272   9.299   6.680   4.741 -1.2638  0.7801 -0.0813
  540MOL0     H71273   9.234   6.577   4.868 -2.9267 -1.5834  0.1531
  540MOL0     H71274   9.469   6.556   4.742 -0.9858  1.0476  1.8545
  540MOL0     H71275   9.383   6.438   4.649  0.8485  2.1818 -0.6913
  540MOL0     H71276   9.374   6.409   4.950 -0.6835 -2.8044  0.8353
  540MOL0     H71277   9.375   6.283   4.817  0.2090  0.6357 -1.7228
  540MOL0     H71278   9.791   6.406   4.870 -0.0688 -1.3086 -1.6667
  540MOL0     H71279   8.975   6.418   4.515 -4.2256  0.6270 -2.9047
  540MOL0     H71280   8.868   6.308   4.320  0.1729 -0.0762  0.6603
  541MOL0     O71281   5.404   8.427   8.509 -0.3576 -0.4146 -0.0121
  541MOL0     C71282   5.516   8.462   8.547  0.3759  0.6441 -0.2898
  541MOL0     O71283   5.627   8.385   8.558  0.3604  0.1666  0.5211
  541MOL0     C71284   5.618   8.251   8.561  0.5841  0.1813 -0.3005
  541MOL0     C71285   5.725   8.179   8.625  0.7498 -0.1653 -0.3464
  541MOL0     C71286   5.742   8.042   8.587  0.2140 -0.0765  0.6991
  541MOL0     C71287   5.671   7.968   8.499 -0.2455  0.3553 -0.2880
  541MOL0     O71288   5.697   7.834   8.484 -0.3981  0.5006  0.2715
  541MOL0     C71289   5.676   7.761   8.367  0.7495 -0.0520 -0.5255
  541MOL0     C71290   5.790   7.661   8.343 -0.5017 -0.2847 -0.4742
  541MOL0     C71291   5.757   7.563   8.230  0.3579 -0.0045  0.1956
  541MOL0     C71292   5.864   7.456   8.216  0.4439  0.4371  0.8575
  541MOL0     C71293   5.806   7.325   8.144 -0.9222  0.1575  0.7287
  541MOL0     C71294   5.750   7.343   8.003  0.3817 -0.1510 -0.3572
  541MOL0     C71295   5.858   7.371   7.904 -0.1906  0.5749 -0.0865
  541MOL0     C71296   5.800   7.312   7.770 -0.0548  0.2685 -0.4714
  541MOL0     N71297   5.888   7.356   7.653 -0.2861 -0.3472  0.4990
  541MOL0     C71298   5.974   7.278   7.570 -0.0810  0.1908 -0.6523
  541MOL0     C71299   6.014   7.359   7.471 -0.0041 -0.1309  1.0127
  541MOL0     C71300   6.083   7.322   7.338 -0.2768 -0.1839 -0.2204
  541MOL0     C71301   6.014   7.193   7.280 -0.4606 -0.5579 -0.3365
  541MOL0     C71302   6.013   7.175   7.130  0.0416  0.0572 -0.5337
  541MOL0     C71303   5.940   7.286   7.054  0.0538 -1.0378 -1.5874
  541MOL0     O71304   5.904   7.240   6.924 -0.4125 -0.2385 -0.1393
  541MOL0     C71305   5.829   7.323   6.847 -0.2688  0.5760 -0.1821
  541MOL0     C71306   5.776   7.270   6.728  0.2319  0.1345  0.3346
  541MOL0     C71307   5.680   7.331   6.652  0.9544  0.1357  0.2629
  541MOL0     C71308   5.637   7.458   6.683 -0.4646 -0.1657 -0.8451
  541MOL0     C71309   5.539   7.524   6.587 -0.1741 -0.8593 -0.5354
  541MOL0     O71310   5.489   7.432   6.502  0.1973 -0.1399 -0.1479
  541MOL0     C71311   5.422   7.481   6.395 -0.3854 -0.4515 -0.4110
  541MOL0     C71312   5.291   7.442   6.378 -0.6795  1.3375 -0.6757
  541MOL0     C71313   5.217   7.492   6.265  0.5393 -0.2143  0.9815
  541MOL0     C71314   5.275   7.574   6.168  0.3552  0.2105 -0.2975
  541MOL0     O71315   5.200   7.623   6.067 -0.5348  0.1435 -0.7251
  541MOL0     C71316   5.097   7.536   6.004  0.1162 -0.3118  0.0405
  541MOL0     C71317   4.966   7.616   5.987  0.1295 -0.8177 -0.8246
  541MOL0     C71318   4.872   7.593   6.109  0.5374  0.4256 -0.8959
  541MOL0     C71319   4.901   7.682   6.226 -0.5909 -0.9697 -0.2689
  541MOL0     C71320   4.796   7.673   6.336  0.1753  0.1713  0.8432
  541MOL0     C71321   4.823   7.542   6.422  0.6274 -1.0578  0.5069
  541MOL0     C71322   4.911   7.565   6.547 -0.2094 -0.6537  1.1190
  541MOL0     C71323   4.833   7.506   6.665  0.1798  0.1567 -0.5299
  541MOL0    Cl71324   4.835   7.322   6.624 -0.0579  0.5779 -0.1961
  541MOL0     C71325   5.410   7.610   6.187  0.2676 -0.0011 -1.4166
  541MOL0     C71326   5.489   7.566   6.294 -0.5829  0.2890 -0.1614
  541MOL0     O71327   5.505   7.646   6.589  0.0649 -0.0562  0.1668
  541MOL0     C71328   5.689   7.520   6.797 -0.7195  0.1412 -0.2339
  541MOL0     C71329   5.792   7.459   6.875  0.4807 -0.1659  0.1513
  541MOL0     N71330   5.966   7.494   7.488  1.0031  0.3975  0.0162
  541MOL0     N71331   5.891   7.483   7.592 -0.3808  0.1052 -0.1624
  541MOL0     C71332   5.564   8.035   8.443 -0.1022 -1.2945  0.1026
  541MOL0     C71333   5.541   8.178   8.468 -0.3913 -0.0075  0.9616
  541MOL0     C71334   5.528   8.594   8.602 -0.2870 -0.5110 -0.0904
  541MOL0     C71335   5.651   8.673   8.601  0.5013 -0.4485 -0.5201
  541MOL0     C71336   5.663   8.792   8.686  0.6091  0.0832  0.6071
  541MOL0     C71337   5.545   8.845   8.743  0.0835  0.3753 -0.9235
  541MOL0     O71338   5.561   8.959   8.815 -0.4861  0.1555  0.0455
  541MOL0     C71339   5.518   8.952   8.942  0.0520 -1.0149  0.0604
  541MOL0     C71340   5.611   8.872   9.029 -0.5290  0.6141 -0.3314
  541MOL0     C71341   5.572   8.895   9.171  0.7799  0.3401 -0.0047
  541MOL0     C71342   5.625   9.017   9.246  0.4864  0.4036 -0.2238
  541MOL0     C71343   5.535   9.061   9.349  0.2407 -0.4586 -0.4940
  541MOL0     C71344   5.459   9.094   9.444 -0.2641  0.5138  0.6290
  541MOL0     C71345   5.424   8.776   8.730  0.8342 -0.1558  0.4400
  541MOL0     C71346   5.420   8.656   8.660 -0.4017 -0.3138  0.5507
  541MOL0     H71347   5.785   8.236   8.695  1.5593  0.4822 -1.5143
  541MOL0     H71348   5.827   7.986   8.627  0.1604 -1.7540 -1.3708
  541MOL0     H71349   5.665   7.826   8.280  1.2264 -0.2388 -0.7295
  541MOL0     H71350   5.584   7.702   8.376  0.9327 -0.3310 -0.4498
  541MOL0     H71351   5.826   7.606   8.431 -1.4777 -0.1970 -0.0014
  541MOL0     H71352   5.869   7.721   8.298 -1.1431  0.5882 -0.4517
  541MOL0     H71353   5.734   7.606   8.132 -0.0429  1.2998  0.8315
  541MOL0     H71354   5.663   7.519   8.266 -0.1181  2.3036  2.0062
  541MOL0     H71355   5.940   7.500   8.150 -1.4439  0.8006 -1.2164
  541MOL0     H71356   5.908   7.429   8.312  4.2849 -0.4504 -0.9629
  541MOL0     H71357   5.737   7.277   8.213 -1.8840  0.4646  0.0021
  541MOL0     H71358   5.884   7.248   8.130  0.1655  1.2317  0.6893
  541MOL0     H71359   5.684   7.429   8.014  1.0070  0.1814  0.9728
  541MOL0     H71360   5.699   7.247   7.992 -2.3706  1.3633 -1.8117
  541MOL0     H71361   5.871   7.479   7.897  1.4621  0.3931 -0.1755
  541MOL0     H71362   5.956   7.330   7.929 -1.1533 -3.6046 -2.2122
  541MOL0     H71363   5.709   7.370   7.752 -0.6157 -0.5112 -0.1808
  541MOL0     H71364   5.782   7.204   7.776 -2.1370  0.6271  0.8191
  541MOL0     H71365   5.993   7.172   7.581 -1.8209  0.0362  1.5926
  541MOL0     H71366   6.192   7.324   7.339 -0.2707  1.5240 -0.9300
  541MOL0     H71367   6.049   7.406   7.277 -1.8390 -1.6001 -1.4120
  541MOL0     H71368   5.913   7.190   7.323  1.3197  0.6589  4.6514
  541MOL0     H71369   6.075   7.110   7.317  0.4182 -0.7580 -2.1623
  541MOL0     H71370   6.116   7.179   7.093  1.2352 -1.1031  2.3827
  541MOL0     H71371   5.968   7.077   7.114  0.3927  0.1924 -2.6763
  541MOL0     H71372   6.010   7.369   7.042  1.8753 -1.2163  4.7318
  541MOL0     H71373   5.857   7.322   7.115  2.7605  0.4317  1.5103
  541MOL0     H71374   5.815   7.172   6.703 -0.2560 -1.2172  4.2055
  541MOL0     H71375   5.637   7.265   6.578 -0.8305  0.4282  0.9877
  541MOL0     H71376   5.264   7.357   6.441  0.5885  1.9316  0.7171
  541MOL0     H71377   5.114   7.459   6.260 -0.4962  2.8845 -0.5211
  541MOL0     H71378   5.090   7.432   6.038  0.2225 -1.1294 -2.2569
  541MOL0     H71379   5.130   7.521   5.901 -1.5687 -4.1488 -0.1152
  541MOL0     H71380   4.908   7.582   5.901 -0.9826 -2.8588  0.6319
  541MOL0     H71381   4.985   7.722   5.969 -1.4585 -0.1639  0.9772
  541MOL0     H71382   4.866   7.487   6.133 -0.1281  1.0018  1.8344
  541MOL0     H71383   4.777   7.617   6.062 -0.2733 -0.3321  0.3186
  541MOL0     H71384   4.999   7.647   6.259 -1.4383 -1.5769  1.7276
  541MOL0     H71385   4.921   7.788   6.203 -3.6577 -0.3566 -0.5100
  541MOL0     H71386   4.694   7.681   6.299  0.2199 -2.4474 -0.0281
  541MOL0     H71387   4.806   7.768   6.389  4.9430  1.3185 -1.5041
  541MOL0     H71388   4.887   7.475   6.363  1.9669  0.5478  0.0658
  541MOL0     H71389   4.727   7.494   6.441  0.3387 -1.3022 -1.3476
  541MOL0     H71390   5.010   7.519   6.540  0.2017  0.3103  0.2820
  541MOL0     H71391   4.927   7.673   6.555 -1.6378 -0.1476 -1.5253
  541MOL0     H71392   4.736   7.556   6.666 -0.3917 -0.9187  0.0751
  541MOL0     H71393   4.885   7.529   6.759  0.1724  1.5654 -0.8503
  541MOL0     H71394   5.457   7.687   6.127 -0.3984  1.1555 -0.4987
  541MOL0     H71395   5.597   7.566   6.304 -0.5418 -0.4547 -0.5624
  541MOL0     H71396   5.651   7.620   6.813  1.5135  0.9274  0.5778
  541MOL0     H71397   5.829   7.505   6.966  2.6218 -2.5698  0.5854
  541MOL0     H71398   5.503   7.991   8.365 -1.2726  0.7981 -0.2630
  541MOL0     H71399   5.464   8.233   8.415  0.7212  2.9891  2.2593
  541MOL0     H71400   5.738   8.625   8.555  0.6491  0.8436 -1.6752
  541MOL0     H71401   5.761   8.837   8.697  1.7051 -1.8219 -0.6298
  541MOL0     H71402   5.411   8.930   8.947 -0.1979 -0.0920 -0.8619
  541MOL0     H71403   5.529   9.056   8.973  2.9312 -1.8611  2.2665
  541MOL0     H71404   5.600   8.765   9.010  2.1183 -0.1268  1.6161
  541MOL0     H71405   5.715   8.891   9.002  0.4373 -0.8313  2.0615
  541MOL0     H71406   5.604   8.807   9.227 -0.2537  1.3149  2.2399
  541MOL0     H71407   5.464   8.904   9.161  0.8645  2.4620  0.4635
  541MOL0     H71408   5.721   8.992   9.290 -1.0854 -1.5252  2.4277
  541MOL0     H71409   5.642   9.102   9.179  0.1994  0.6959  0.0663
  541MOL0     H71410   5.387   9.116   9.520  1.2493 -2.0987  3.0081
  541MOL0     H71411   5.340   8.831   8.772  2.0422  3.5440 -1.4849
  541MOL0     H71412   5.331   8.593   8.657  1.7464 -3.5678 -0.2866
  542MOL0     O71413   8.673   5.798   7.949  0.0264 -0.0205  0.5561
  542MOL0     C71414   8.697   5.821   7.828 -0.2133 -0.0370 -0.3441
  542MOL0     O71415   8.701   5.721   7.728 -0.2058 -0.4379 -0.0953
  542MOL0     C71416   8.686   5.586   7.744 -0.0435 -0.5187 -0.2745
  542MOL0     C71417   8.618   5.515   7.838  0.9928 -0.3173  0.3605
  542MOL0     C71418   8.606   5.379   7.814  0.7369 -0.3630 -0.0652
  542MOL0     C71419   8.659   5.315   7.701  0.1111 -0.0481  0.1184
  542MOL0     O71420   8.644   5.179   7.665 -0.2051  0.0195  0.3554
  542MOL0     C71421   8.650   5.094   7.788  0.0927 -0.0850 -0.6850
  542MOL0     C71422   8.506   5.058   7.818  0.3341 -0.5597  0.5929
  542MOL0     C71423   8.431   4.953   7.734  0.3508 -0.0303  0.2779
  542MOL0     C71424   8.511   4.828   7.683 -0.1660  0.0048 -0.6422
  542MOL0     C71425   8.442   4.773   7.564 -0.3622 -0.1564  0.5528
  542MOL0     C71426   8.301   4.739   7.579  0.7267  0.1712  0.4462
  542MOL0     C71427   8.266   4.626   7.679  0.2475  0.3704 -0.1670
  542MOL0     C71428   8.212   4.670   7.818 -0.6497 -0.9692 -0.2432
  542MOL0     N71429   8.172   4.569   7.916 -0.1057 -0.7265  0.4294
  542MOL0     C71430   8.048   4.517   7.939 -0.2640  0.7613 -0.6035
  542MOL0     C71431   8.060   4.419   8.025 -0.8245 -0.1402  0.5548
  542MOL0     C71432   7.960   4.343   8.103  0.1200 -0.2995 -0.9737
  542MOL0     C71433   7.912   4.211   8.049 -0.0278 -0.2479 -0.2754
  542MOL0     C71434   7.812   4.135   8.136 -0.2243  0.3276  0.0375
  542MOL0     C71435   7.773   4.006   8.064  0.0134 -0.4033  0.1469
  542MOL0     O71436   7.888   3.921   8.076  0.7378 -0.4644 -0.1766
  542MOL0     C71437   7.904   3.812   7.998  1.4396  0.2315  0.6260
  542MOL0     C71438   7.809   3.770   7.897  0.6132  0.8105 -0.9868
  542MOL0     C71439   7.841   3.675   7.795  0.4506 -0.2230 -0.3965
  542MOL0     C71440   7.965   3.613   7.803 -0.4209  0.3578  1.2496
  542MOL0     C71441   8.005   3.528   7.690 -0.1428  0.1750 -0.2353
  542MOL0     O71442   8.133   3.467   7.696 -1.2280 -0.4169 -0.6540
  542MOL0     C71443   8.171   3.392   7.584  1.0641 -0.0835 -0.8726
  542MOL0     C71444   8.293   3.431   7.525  0.3494  0.3301 -0.3533
  542MOL0     C71445   8.333   3.374   7.408 -0.3366  0.4370 -0.1398
  542MOL0     C71446   8.272   3.257   7.353 -0.2086  0.2653  0.1648
  542MOL0     O71447   8.334   3.196   7.247  0.1886  1.0505  0.9530
  542MOL0     C71448   8.337   3.047   7.228  0.4741 -0.1707  1.5837
  542MOL0     C71449   8.329   3.004   7.082  0.2841  0.8354  0.1819
  542MOL0     C71450   8.364   2.853   7.060  0.0841  0.2177 -0.7976
  542MOL0     C71451   8.404   2.795   6.922 -1.1877 -0.3882  0.6450
  542MOL0     C71452   8.432   2.638   6.939  0.1345 -0.1280 -0.1659
  542MOL0     C71453   8.413   2.562   6.811  0.2580  0.0425 -0.9181
  542MOL0     C71454   8.487   2.419   6.811 -0.7304  0.0099  0.3256
  542MOL0     C71455   8.412   2.292   6.843 -0.1683  0.3586 -0.3011
  542MOL0    Cl71456   8.306   2.247   6.710  0.3931 -0.6436  0.4674
  542MOL0     C71457   8.162   3.209   7.425 -0.7119  0.8638  0.1298
  542MOL0     C71458   8.110   3.280   7.538  0.9939 -0.2826  0.8218
  542MOL0     O71459   7.918   3.501   7.610  0.0854  0.2232 -0.2104
  542MOL0     C71460   8.040   3.627   7.919  0.3537  0.1254  0.9239
  542MOL0     C71461   8.014   3.729   8.015 -0.6270  0.8434 -0.7325
  542MOL0     N71462   8.197   4.412   8.059 -1.4533 -0.2019  0.4419
  542MOL0     N71463   8.264   4.503   7.992  1.1567  0.8000 -0.7623
  542MOL0     C71464   8.715   5.384   7.603 -0.6066  0.0138  0.6117
  542MOL0     C71465   8.745   5.517   7.631 -0.6205  0.1719  0.5941
  542MOL0     C71466   8.727   5.961   7.786  0.0202 -0.5041  0.4171
  542MOL0     C71467   8.734   6.061   7.889  0.0184  0.2336  0.3194
  542MOL0     C71468   8.739   6.193   7.857  0.2254  0.6036 -0.4879
  542MOL0     C71469   8.731   6.239   7.723  0.5824  0.1116  0.4549
  542MOL0     O71470   8.713   6.377   7.693 -0.4761 -0.0507  0.3780
  542MOL0     C71471   8.664   6.428   7.570  0.6745 -0.3348 -0.6964
  542MOL0     C71472   8.643   6.587   7.588  1.0830 -1.1131  0.4738
  542MOL0     C71473   8.511   6.614   7.662  0.2504 -0.3390  0.7640
  542MOL0     C71474   8.487   6.770   7.666 -0.3614 -0.3204 -0.7602
  542MOL0     C71475   8.446   6.805   7.532  0.2437  0.2962  0.1613
  542MOL0     C71476   8.409   6.819   7.411 -0.3821 -0.8300 -1.6018
  542MOL0     C71477   8.737   6.137   7.616  0.1779 -1.2389 -0.5858
  542MOL0     C71478   8.731   6.005   7.652 -0.5877  0.8085 -0.1472
  542MOL0     H71479   8.591   5.566   7.930  1.3756 -2.5650  1.7828
  542MOL0     H71480   8.549   5.320   7.885 -3.7244  3.8562  0.3576
  542MOL0     H71481   8.703   5.139   7.873  0.1224 -0.2899 -0.5923
  542MOL0     H71482   8.702   4.998   7.780 -2.0266 -1.3553 -0.0026
  542MOL0     H71483   8.444   5.149   7.826 -1.0594 -1.2855 -1.2507
  542MOL0     H71484   8.492   5.015   7.918  1.0283 -0.0048  0.9396
  542MOL0     H71485   8.397   5.006   7.645 -2.0857 -0.7403  0.7214
  542MOL0     H71486   8.345   4.918   7.792  1.9419 -2.7856  1.1818
  542MOL0     H71487   8.617   4.840   7.659 -0.2399 -0.1815 -1.0757
  542MOL0     H71488   8.517   4.758   7.767  1.2778  1.0949  0.2118
  542MOL0     H71489   8.495   4.682   7.533 -0.5224 -0.1127  0.1438
  542MOL0     H71490   8.439   4.845   7.483  3.7805 -0.6689 -0.2293
  542MOL0     H71491   8.268   4.710   7.479  0.5896  1.9627 -0.0662
  542MOL0     H71492   8.241   4.829   7.595 -0.9618 -0.7202 -0.6247
  542MOL0     H71493   8.194   4.555   7.638 -0.3872  0.2423  1.1258
  542MOL0     H71494   8.352   4.561   7.691 -2.3421 -3.2518  0.3150
  542MOL0     H71495   8.122   4.729   7.797  0.9078  1.4287 -0.5670
  542MOL0     H71496   8.284   4.735   7.869 -0.5383 -2.3722  1.4933
  542MOL0     H71497   7.956   4.531   7.881 -1.3237 -3.5018 -0.3367
  542MOL0     H71498   7.877   4.412   8.120 -0.0456 -0.7198 -0.0061
  542MOL0     H71499   8.005   4.331   8.202 -4.7306  1.3187  1.7849
  542MOL0     H71500   8.005   4.158   8.028  0.8013  0.2409  1.9127
  542MOL0     H71501   7.864   4.231   7.953  0.3902  0.4576 -0.3508
  542MOL0     H71502   7.869   4.116   8.228 -1.7032  2.5842  1.5206
  542MOL0     H71503   7.713   4.180   8.145 -0.5638 -0.5342  0.7761
  542MOL0     H71504   7.744   4.033   7.962 -0.6273 -0.0638  0.4117
  542MOL0     H71505   7.679   3.972   8.107 -0.2372 -0.4425 -0.4146
  542MOL0     H71506   7.713   3.821   7.900  1.2408  2.3210  4.8911
  542MOL0     H71507   7.766   3.632   7.729 -0.5091 -2.5582  2.0303
  542MOL0     H71508   8.344   3.515   7.572  1.8365 -0.2322 -0.9086
  542MOL0     H71509   8.428   3.400   7.364  0.7540 -1.0586  1.2056
  542MOL0     H71510   8.257   3.001   7.286  0.0191 -0.6363  0.6061
  542MOL0     H71511   8.426   3.002   7.273  0.4633 -1.3265  0.4875
  542MOL0     H71512   8.389   3.063   7.012 -1.5806  0.2398 -2.0420
  542MOL0     H71513   8.223   3.011   7.058  0.0015 -1.3907  0.5558
  542MOL0     H71514   8.287   2.785   7.098 -0.7411  1.2226 -0.6422
  542MOL0     H71515   8.443   2.826   7.132 -0.4600  0.1786 -0.2015
  542MOL0     H71516   8.326   2.799   6.845 -0.5064  2.7082 -0.0380
  542MOL0     H71517   8.497   2.843   6.890 -1.2524 -0.5623  0.2004
  542MOL0     H71518   8.357   2.601   7.010  1.7280  0.2967  1.8495
  542MOL0     H71519   8.531   2.615   6.979 -0.4712 -3.1238 -0.1182
  542MOL0     H71520   8.455   2.619   6.728 -1.5855 -1.6505 -3.1393
  542MOL0     H71521   8.308   2.546   6.785 -0.2514  1.1082  0.3328
  542MOL0     H71522   8.514   2.415   6.704 -2.9391 -0.2965 -0.2720
  542MOL0     H71523   8.576   2.426   6.874 -1.1304  0.1403  0.8773
  542MOL0     H71524   8.348   2.295   6.931 -0.1027  2.3636 -0.2716
  542MOL0     H71525   8.488   2.215   6.861  0.5318  1.3729  1.2822
  542MOL0     H71526   8.108   3.118   7.401  0.8898 -0.6050  1.7849
  542MOL0     H71527   8.018   3.244   7.584 -1.7471  3.2125 -1.3907
  542MOL0     H71528   8.133   3.576   7.938  0.7685  0.6259  0.2525
  542MOL0     H71529   8.088   3.749   8.092 -0.8712  0.8557 -0.4969
  542MOL0     H71530   8.754   5.357   7.505 -1.6076 -0.7558  0.4052
  542MOL0     H71531   8.806   5.572   7.559  0.7278 -1.8606  0.1011
  542MOL0     H71532   8.734   6.036   7.995  2.4459 -1.1668  0.0827
  542MOL0     H71533   8.741   6.263   7.941  1.5230  0.2662 -0.2243
  542MOL0     H71534   8.560   6.399   7.556 -0.4477  3.5377 -1.3913
  542MOL0     H71535   8.729   6.423   7.482 -1.1771 -0.5617 -2.1256
  542MOL0     H71536   8.726   6.634   7.641  3.1995 -0.6729 -2.9986
  542MOL0     H71537   8.641   6.636   7.491  0.4820  1.6209  1.7693
  542MOL0     H71538   8.525   6.584   7.766 -0.8907  0.1778  1.0815
  542MOL0     H71539   8.414   6.582   7.620 -1.0415  4.3937 -0.4734
  542MOL0     H71540   8.407   6.801   7.734  0.3193  1.7362 -0.8282
  542MOL0     H71541   8.581   6.821   7.689  1.1758 -2.1444 -2.6497
  542MOL0     H71542   8.385   6.829   7.307  2.0363 -4.3159 -2.6806
  542MOL0     H71543   8.733   6.177   7.514  0.3656  0.4496  0.0341
  542MOL0     H71544   8.737   5.940   7.565 -0.8227  0.4298  0.1119
  543MOL0     O71545   5.685   3.059   0.475 -0.3500  0.2436  0.0875
  543MOL0     C71546   5.736   3.164   0.425  0.7213 -0.5442  0.6097
  543MOL0     O71547   5.870   3.183   0.391 -0.1244 -0.2982  0.0916
  543MOL0     C71548   5.959   3.073   0.402  0.0601 -0.6086  1.0114
  543MOL0     C71549   6.049   3.089   0.301 -0.3470 -0.6242  0.2094
  543MOL0     C71550   6.144   2.989   0.287  0.1151 -0.7573 -0.2824
  543MOL0     C71551   6.159   2.878   0.365  0.3470  0.0801 -0.0877
  543MOL0     O71552   6.272   2.794   0.342  0.0234  0.3981 -0.3852
  543MOL0     C71553   6.323   2.733   0.457  0.7232  0.9835 -0.4356
  543MOL0     C71554   6.416   2.633   0.398 -0.3571 -0.3607  0.6321
  543MOL0     C71555   6.520   2.593   0.505  0.9130 -1.2070 -0.0387
  543MOL0     C71556   6.616   2.492   0.453 -0.4613  0.0245 -0.0935
  543MOL0     C71557   6.731   2.548   0.361 -0.1291  0.1268 -0.5000
  543MOL0     C71558   6.821   2.641   0.441  0.9268 -0.2166  0.5569
  543MOL0     C71559   6.924   2.716   0.351 -0.1834 -0.1247  0.5862
  543MOL0     C71560   7.014   2.623   0.280 -0.1535  0.7499  0.1194
  543MOL0     N71561   7.107   2.686   0.191  0.3758 -0.0500  0.0421
  543MOL0     C71562   7.113   2.663   0.054 -0.3923 -0.0416 -0.1980
  543MOL0     C71563   7.220   2.733   0.015  0.2371  0.3025  0.8112
  543MOL0     C71564   7.255   2.738  -0.133 -0.1282 -0.5477 -0.3895
  543MOL0     C71565   7.215   2.873  -0.193  0.5338 -0.9343 -0.3047
  543MOL0     C71566   7.304   2.995  -0.141  0.3672  0.0504 -0.0738
  543MOL0     C71567   7.455   2.973  -0.117 -0.1127  0.1948  0.0878
  543MOL0     O71568   7.541   3.088  -0.117  0.3927 -0.5982  0.8267
  543MOL0     C71569   7.529   3.186  -0.019 -0.4540 -0.3344 -0.2595
  543MOL0     C71570   7.634   3.276  -0.022 -0.1640 -0.1480  0.2750
  543MOL0     C71571   7.627   3.383   0.070 -0.7152 -0.1201 -1.6591
  543MOL0     C71572   7.534   3.392   0.172 -0.6281  0.5304 -0.3258
  543MOL0     C71573   7.534   3.502   0.269  0.1848  0.5194  0.2795
  543MOL0     O71574   7.654   3.554   0.323 -0.0166  0.2141  0.2632
  543MOL0     C71575   7.644   3.634   0.439 -0.9440 -0.4232 -0.3952
  543MOL0     C71576   7.570   3.601   0.554  0.3862 -0.6323  0.6944
  543MOL0     C71577   7.579   3.668   0.680  0.3241  0.4322 -0.2558
  543MOL0     C71578   7.667   3.777   0.694  1.0303 -0.1751  0.9415
  543MOL0     O71579   7.672   3.835   0.812  0.0078  0.2611  0.4308
  543MOL0     C71580   7.790   3.917   0.844  1.1203 -0.1439  1.0636
  543MOL0     C71581   7.791   3.969   0.986 -0.3235 -1.0841 -0.5264
  543MOL0     C71582   7.814   3.860   1.087  0.7778  0.1928  0.3635
  543MOL0     C71583   7.689   3.826   1.161 -0.0634  0.3176 -0.3830
  543MOL0     C71584   7.710   3.704   1.259  0.6044 -0.0362 -0.1963
  543MOL0     C71585   7.791   3.741   1.388  0.4458  0.0939  0.8548
  543MOL0     C71586   7.823   3.612   1.462 -0.6875  0.0822  1.1322
  543MOL0     C71587   7.940   3.620   1.553  0.0843 -0.7102 -0.4591
  543MOL0    Cl71588   7.943   3.472   1.656 -0.4063  0.0932 -0.2142
  543MOL0     C71589   7.731   3.822   0.577 -0.1030  0.7343  0.4528
  543MOL0     C71590   7.727   3.752   0.447  0.2554  0.2209  0.1613
  543MOL0     O71591   7.420   3.534   0.306  0.8950  1.2824  0.7527
  543MOL0     C71592   7.436   3.289   0.184  0.4268 -0.3192  0.1254
  543MOL0     C71593   7.437   3.181   0.092 -0.1788 -0.6384 -0.7931
  543MOL0     N71594   7.286   2.792   0.116 -1.2540  0.3598 -0.4993
  543MOL0     N71595   7.216   2.763   0.219  0.0975  0.2868  0.5321
  543MOL0     C71596   6.067   2.869   0.474 -0.6055 -0.6968 -0.6735
  543MOL0     C71597   5.961   2.959   0.486 -0.2939  0.6110  0.9354
  543MOL0     C71598   5.633   3.279   0.400 -1.5644 -0.1643 -0.0455
  543MOL0     C71599   5.681   3.411   0.393  0.0956  0.4437  0.7749
  543MOL0     C71600   5.588   3.519   0.363 -0.9280 -0.0108 -0.0846
  543MOL0     C71601   5.451   3.493   0.349 -0.4837 -0.4531 -0.2243
  543MOL0     O71602   5.370   3.604   0.339 -0.1738 -0.5859 -0.5721
  543MOL0     C71603   5.232   3.595   0.383  0.4423  0.2997  0.7582
  543MOL0     C71604   5.190   3.728   0.443 -0.5061 -0.4273  1.0120
  543MOL0     C71605   5.100   3.715   0.570  0.7725 -0.3336 -0.3812
  543MOL0     C71606   5.040   3.858   0.609 -0.2025  0.4117 -0.1912
  543MOL0     C71607   5.155   3.947   0.649  0.1127  0.6552  0.8012
  543MOL0     C71608   5.256   3.987   0.687 -1.2897 -0.6695  0.3030
  543MOL0     C71609   5.402   3.361   0.354 -0.6721 -0.1955 -0.8268
  543MOL0     C71610   5.497   3.257   0.380 -0.0866  0.1270  0.4614
  543MOL0     H71611   6.046   3.179   0.241  3.1612  1.7259  3.1340
  543MOL0     H71612   6.217   3.008   0.209  0.0859  2.1489  0.2890
  543MOL0     H71613   6.248   2.677   0.513  1.0659  0.6675 -0.2828
  543MOL0     H71614   6.371   2.806   0.523  0.6278  0.1871  0.5410
  543MOL0     H71615   6.464   2.669   0.306 -0.1818 -1.1839  0.3924
  543MOL0     H71616   6.363   2.541   0.373  2.0567 -1.3051 -1.4286
  543MOL0     H71617   6.464   2.552   0.589 -1.1970 -1.7471 -1.6273
  543MOL0     H71618   6.573   2.678   0.549  1.5427 -1.2131 -0.7584
  543MOL0     H71619   6.675   2.458   0.539 -2.0019 -0.1336  0.9433
  543MOL0     H71620   6.564   2.403   0.415  0.5654 -1.1768  1.1994
  543MOL0     H71621   6.677   2.601   0.282 -2.4203 -0.3369  0.6669
  543MOL0     H71622   6.791   2.463   0.326 -0.6233 -1.5154  2.3067
  543MOL0     H71623   6.874   2.581   0.516  0.9117  0.7868  1.3967
  543MOL0     H71624   6.761   2.714   0.495  0.7597 -0.6108  0.9139
  543MOL0     H71625   6.879   2.778   0.274 -0.1356 -0.2912  0.4234
  543MOL0     H71626   6.974   2.781   0.423  2.1393  0.5423 -1.5174
  543MOL0     H71627   6.961   2.545   0.225  0.5475 -2.0030  3.0648
  543MOL0     H71628   7.084   2.580   0.352  0.2866 -2.2377 -1.9195
  543MOL0     H71629   7.039   2.623  -0.015 -0.5922  1.7908 -1.1089
  543MOL0     H71630   7.220   2.654  -0.195  0.7201  0.2183 -1.9553
  543MOL0     H71631   7.360   2.716  -0.152 -0.2622 -1.3351 -0.2816
  543MOL0     H71632   7.111   2.894  -0.168  1.1955 -0.3197  2.3134
  543MOL0     H71633   7.224   2.858  -0.301  1.0158 -2.5118 -0.0781
  543MOL0     H71634   7.284   3.089  -0.193  3.3445 -0.1829 -1.8671
  543MOL0     H71635   7.270   3.000  -0.037  0.5781 -0.6207  0.0386
  543MOL0     H71636   7.493   2.901  -0.189 -2.5092  0.6275 -1.7429
  543MOL0     H71637   7.460   2.923  -0.019 -2.1854 -3.6939 -1.5602
  543MOL0     H71638   7.699   3.270  -0.108 -2.2129 -2.6283 -1.2340
  543MOL0     H71639   7.698   3.463   0.049  0.8048  0.0132  2.8804
  543MOL0     H71640   7.486   3.531   0.549 -0.3978  0.3170  0.0876
  543MOL0     H71641   7.520   3.636   0.765  1.8585  1.2890  1.1975
  543MOL0     H71642   7.788   4.002   0.775 -3.8691  0.1413  1.2385
  543MOL0     H71643   7.879   3.853   0.845 -0.1342 -1.9431  0.9288
  543MOL0     H71644   7.693   4.011   1.007  0.9993  0.1638  4.4680
  543MOL0     H71645   7.843   4.061   1.014 -0.5669 -0.6851 -1.3450
  543MOL0     H71646   7.884   3.896   1.163 -0.1420  0.1805  1.2359
  543MOL0     H71647   7.856   3.772   1.036  0.4104  1.6623 -2.7201
  543MOL0     H71648   7.662   3.904   1.232  3.3961 -1.5681  3.4279
  543MOL0     H71649   7.600   3.814   1.098 -0.5226 -1.3964  0.5339
  543MOL0     H71650   7.746   3.620   1.199  0.4091  2.5155 -4.2210
  543MOL0     H71651   7.606   3.679   1.283  0.0709  1.2622 -1.0108
  543MOL0     H71652   7.717   3.798   1.444 -2.8024 -0.2252 -2.6635
  543MOL0     H71653   7.877   3.805   1.368 -0.6228  1.5529  0.7588
  543MOL0     H71654   7.738   3.588   1.526 -0.7757 -1.2849  0.5515
  543MOL0     H71655   7.848   3.532   1.391  0.4973  0.2937  1.2985
  543MOL0     H71656   7.925   3.705   1.620  1.5166  0.2126 -1.2689
  543MOL0     H71657   8.038   3.632   1.506  0.7874  2.0766  1.4526
  543MOL0     H71658   7.805   3.901   0.579  1.2766 -0.2948 -2.9005
  543MOL0     H71659   7.787   3.777   0.360 -2.3464  0.5939 -1.6152
  543MOL0     H71660   7.372   3.286   0.272 -1.1905  1.1361 -0.9388
  543MOL0     H71661   7.363   3.104   0.114 -0.0208 -1.4898 -2.9576
  543MOL0     H71662   6.069   2.790   0.549 -1.1283 -1.2775 -1.2635
  543MOL0     H71663   5.894   2.950   0.572 -2.4103 -2.8908 -0.8715
  543MOL0     H71664   5.789   3.418   0.395  0.1799  0.1972 -1.1682
  543MOL0     H71665   5.617   3.621   0.343  1.9366 -0.6066  0.5298
  543MOL0     H71666   5.217   3.513   0.454 -0.3679 -0.6262 -0.4529
  543MOL0     H71667   5.171   3.572   0.296  0.0626  2.4207  0.4114
  543MOL0     H71668   5.285   3.768   0.480 -0.9380 -0.2824  1.9936
  543MOL0     H71669   5.163   3.801   0.366  2.0894 -0.3468  0.0842
  543MOL0     H71670   5.172   3.670   0.640  2.2125  0.0543 -1.5649
  543MOL0     H71671   5.024   3.637   0.561 -2.6074  2.0196  3.8729
  543MOL0     H71672   4.988   3.901   0.523 -3.5926 -2.0460  0.4265
  543MOL0     H71673   4.970   3.838   0.690 -0.9475 -0.6634 -1.0654
  543MOL0     H71674   5.346   4.031   0.727 -2.3667  3.6753 -1.4443
  543MOL0     H71675   5.296   3.351   0.334 -1.3041  0.1058  1.9246
  543MOL0     H71676   5.469   3.153   0.395  0.6645  0.0815  1.5846
  544MOL0     O71677   7.965   2.933   5.021  0.2919 -0.6716  0.3969
  544MOL0     C71678   8.029   2.968   5.120  0.1049  0.4147 -0.8716
  544MOL0     O71679   8.123   2.886   5.191  0.1036 -0.0057 -0.0931
  544MOL0     C71680   8.193   2.790   5.135  0.5687  0.0792 -0.0318
  544MOL0     C71681   8.213   2.769   4.996  0.2489 -0.5244 -1.3330
  544MOL0     C71682   8.304   2.669   4.949  0.0776  0.5377 -0.4017
  544MOL0     C71683   8.375   2.591   5.038 -0.1297  0.6431  0.1838
  544MOL0     O71684   8.457   2.483   4.996  0.5420  0.0820  0.6898
  544MOL0     C71685   8.559   2.448   5.089 -0.0665 -1.5002  0.8370
  544MOL0     C71686   8.516   2.324   5.163 -0.0196 -0.2088 -0.4343
  544MOL0     C71687   8.551   2.201   5.080 -0.3723 -0.3299  0.4156
  544MOL0     C71688   8.515   2.071   5.165  0.0756 -0.9088  0.3626
  544MOL0     C71689   8.548   1.941   5.081  0.1876  0.3205 -0.5209
  544MOL0     C71690   8.501   1.812   5.163  0.6174  0.4214  0.3477
  544MOL0     C71691   8.531   1.682   5.074  0.0423 -0.3298  0.6104
  544MOL0     C71692   8.524   1.562   5.170 -0.0368 -0.0269 -0.0962
  544MOL0     N71693   8.503   1.436   5.094 -0.2538  0.0771  0.4060
  544MOL0     C71694   8.594   1.327   5.104 -0.3348  1.0526  1.0265
  544MOL0     C71695   8.519   1.221   5.079 -0.0270 -0.6273  0.8141
  544MOL0     C71696   8.580   1.091   5.054 -0.5848 -0.0619 -0.8497
  544MOL0     C71697   8.491   1.002   4.963  0.2518  1.3872  0.3867
  544MOL0     C71698   8.568   0.890   4.895  0.4455 -0.3963  1.1045
  544MOL0     C71699   8.629   0.789   4.986 -0.0188 -0.2240  0.8790
  544MOL0     O71700   8.656   0.665   4.907 -0.5110 -0.6294 -0.4486
  544MOL0     C71701   8.722   0.573   4.979  0.2215 -0.4320  0.2095
  544MOL0     C71702   8.698   0.540   5.109  1.0833 -0.3321 -0.4065
  544MOL0     C71703   8.767   0.440   5.169 -0.5986 -0.3057  1.0088
  544MOL0     C71704   8.862   0.366   5.100  0.1359  0.1630  0.4034
  544MOL0     C71705   8.937   0.257   5.160  0.4124 -0.1696 -0.5572
  544MOL0     O71706   8.883   0.199   5.273 -0.7869 -0.8572 -0.3883
  544MOL0     C71707   8.965   0.103   5.331 -0.2187 -0.5341  0.0326
  544MOL0     C71708   8.920  -0.029   5.340 -0.4839  1.1392 -0.8047
  544MOL0     C71709   8.994  -0.126   5.411  0.1589 -1.3569 -0.8338
  544MOL0     C71710   9.119  -0.089   5.475  0.3284  0.6665  0.1798
  544MOL0     O71711   9.193  -0.188   5.539  0.0297 -1.1158  0.2061
  544MOL0     C71712   9.178  -0.320   5.482 -0.5374  1.0186 -1.0854
  544MOL0     C71713   9.245  -0.437   5.569  0.1905  0.5851  0.1593
  544MOL0     C71714   9.146  -0.491   5.675  0.2486 -0.2235  0.7308
  544MOL0     C71715   9.208  -0.540   5.809  0.4651 -0.0557  0.4562
  544MOL0     C71716   9.097  -0.561   5.925 -0.5123  0.2426  0.9002
  544MOL0     C71717   9.178  -0.567   6.056  0.6642 -1.1939 -0.2703
  544MOL0     C71718   9.097  -0.529   6.180 -0.4027 -0.2009 -0.1022
  544MOL0     C71719   9.041  -0.391   6.193  0.0670  0.1207  0.4883
  544MOL0    Cl71720   8.998  -0.382   6.359 -0.0260  0.0225 -0.3912
  544MOL0     C71721   9.162   0.039   5.462 -0.5781 -0.4486 -0.6382
  544MOL0     C71722   9.082   0.138   5.397 -0.2167  0.2553 -0.2104
  544MOL0     O71723   9.037   0.209   5.107 -0.1562 -0.1456 -0.0622
  544MOL0     C71724   8.886   0.398   4.962  0.2678 -0.1218  0.3488
  544MOL0     C71725   8.815   0.500   4.908  0.2805  0.8193  0.2175
  544MOL0     N71726   8.386   1.256   5.064  1.0580 -0.4641  0.3378
  544MOL0     N71727   8.376   1.386   5.077 -0.5076  0.1844  0.9421
  544MOL0     C71728   8.360   2.615   5.176  0.2295  0.2570  0.0080
  544MOL0     C71729   8.261   2.706   5.225 -0.2445  0.2707  0.5378
  544MOL0     C71730   7.984   3.096   5.180  0.8050  0.0673 -0.1436
  544MOL0     C71731   8.056   3.153   5.285  0.2140  0.3443  0.5372
  544MOL0     C71732   8.006   3.273   5.341 -0.4733 -0.2301 -0.9088
  544MOL0     C71733   7.897   3.338   5.291 -0.8431 -0.2831 -0.4762
  544MOL0     O71734   7.886   3.472   5.331  0.4425 -0.0871 -0.7131
  544MOL0     C71735   7.895   3.576   5.232  0.2621 -0.1487 -0.3026
  544MOL0     C71736   7.888   3.715   5.297 -0.1995  0.4713  0.7354
  544MOL0     C71737   7.997   3.743   5.398 -0.3028  0.6728  0.0559
  544MOL0     C71738   8.136   3.750   5.330 -1.4442 -0.6095  0.0800
  544MOL0     C71739   8.198   3.625   5.281 -0.3369  0.3354  0.9740
  544MOL0     C71740   8.250   3.522   5.227 -0.5292 -0.1305 -0.1362
  544MOL0     C71741   7.827   3.287   5.183 -0.1534  0.0060  0.2773
  544MOL0     C71742   7.870   3.157   5.127 -0.0139 -0.1521 -0.1207
  544MOL0     H71743   8.160   2.828   4.921  1.0573  1.6909 -0.2421
  544MOL0     H71744   8.324   2.655   4.843  0.1422 -0.5410 -0.2613
  544MOL0     H71745   8.590   2.534   5.149 -2.0306 -0.2081  0.0961
  544MOL0     H71746   8.645   2.436   5.022  1.8895  2.3289  2.3146
  544MOL0     H71747   8.409   2.324   5.185  0.0038 -0.1107 -0.3156
  544MOL0     H71748   8.567   2.314   5.260 -0.4480  0.9992 -0.0706
  544MOL0     H71749   8.658   2.188   5.058 -0.6530 -0.1142 -1.2363
  544MOL0     H71750   8.484   2.209   4.994  0.8380 -1.5674 -0.6754
  544MOL0     H71751   8.577   2.087   5.253  0.7707  0.2590 -0.3190
  544MOL0     H71752   8.414   2.081   5.207  0.1656  0.2965  0.3346
  544MOL0     H71753   8.654   1.923   5.057  0.5653  0.7604  0.7141
  544MOL0     H71754   8.481   1.929   4.996 -1.4121  1.5943  0.5083
  544MOL0     H71755   8.395   1.816   5.188  0.8342 -0.7983  1.5808
  544MOL0     H71756   8.557   1.814   5.256  2.5384  2.3546 -0.7643
  544MOL0     H71757   8.455   1.680   4.995  2.0725  2.5046 -1.6375
  544MOL0     H71758   8.629   1.692   5.026  0.5948  0.9322  1.9057
  544MOL0     H71759   8.433   1.580   5.227 -0.0273  0.5137 -0.2416
  544MOL0     H71760   8.604   1.559   5.245 -0.2691 -0.5064  0.1341
  544MOL0     H71761   8.703   1.328   5.106 -0.3143  3.7118  2.3520
  544MOL0     H71762   8.619   1.040   5.142  0.8859 -0.3555 -1.6500
  544MOL0     H71763   8.674   1.108   5.001  1.8468 -1.0858  2.7747
  544MOL0     H71764   8.444   1.055   4.880  0.0769  2.4724  1.1597
  544MOL0     H71765   8.415   0.952   5.024  1.7790 -1.7001 -0.0856
  544MOL0     H71766   8.492   0.860   4.822 -0.0182  3.1583 -0.0945
  544MOL0     H71767   8.650   0.927   4.833  1.8005 -0.9795  2.4753
  544MOL0     H71768   8.556   0.771   5.065 -1.8553 -0.4557 -0.7967
  544MOL0     H71769   8.728   0.828   5.013  0.7876 -1.6748  0.1397
  544MOL0     H71770   8.638   0.597   5.179  0.3670 -3.2999  1.5670
  544MOL0     H71771   8.754   0.424   5.275  0.1387  0.4520  1.2275
  544MOL0     H71772   8.830  -0.066   5.293 -0.2672 -1.5149  0.6629
  544MOL0     H71773   8.951  -0.225   5.420 -1.1747 -0.6146  3.0535
  544MOL0     H71774   9.199  -0.330   5.375  1.1538  0.2495 -0.7140
  544MOL0     H71775   9.077  -0.361   5.482 -0.9268  1.9369 -1.7662
  544MOL0     H71776   9.336  -0.407   5.621 -0.2939  0.4313  1.1212
  544MOL0     H71777   9.282  -0.518   5.506  0.6460  1.2217 -0.4091
  544MOL0     H71778   9.079  -0.561   5.625  1.0456  1.1871 -2.6395
  544MOL0     H71779   9.093  -0.399   5.700  1.0345  0.7213 -0.8987
  544MOL0     H71780   9.255  -0.635   5.782  1.3980  0.2629  0.9215
  544MOL0     H71781   9.282  -0.467   5.841  2.9550 -1.8568 -0.7990
  544MOL0     H71782   9.024  -0.639   5.903  2.5580 -2.4890 -0.6248
  544MOL0     H71783   9.038  -0.469   5.927 -0.4464  0.4692 -2.3537
  544MOL0     H71784   9.270  -0.509   6.050  0.9129 -0.9915  3.1947
  544MOL0     H71785   9.201  -0.674   6.065  3.3221 -0.9080 -2.4443
  544MOL0     H71786   9.016  -0.602   6.188  0.1101 -0.8653 -0.8763
  544MOL0     H71787   9.170  -0.540   6.261  0.1726  0.7438 -0.4717
  544MOL0     H71788   8.953  -0.385   6.128 -2.0436  0.6259  3.1989
  544MOL0     H71789   9.116  -0.317   6.165 -0.1107 -0.7660 -2.7624
  544MOL0     H71790   9.260   0.062   5.500 -0.0739 -1.0906 -1.5096
  544MOL0     H71791   9.122   0.239   5.397 -0.4819  0.3622 -0.0019
  544MOL0     H71792   8.944   0.328   4.902 -2.6061 -1.9961 -0.4312
  544MOL0     H71793   8.828   0.528   4.804 -3.2569 -1.3620 -1.0105
  544MOL0     H71794   8.418   2.570   5.256 -2.1830  0.8455  2.2064
  544MOL0     H71795   8.260   2.727   5.331  0.2264  0.0224  0.5938
  544MOL0     H71796   8.148   3.113   5.326 -1.4511 -1.5651  2.7183
  544MOL0     H71797   8.075   3.314   5.413  0.9816  0.3458 -2.5534
  544MOL0     H71798   7.810   3.560   5.165  1.5079  0.1031 -2.0060
  544MOL0     H71799   7.982   3.567   5.166  0.5110 -1.6878  0.1899
  544MOL0     H71800   7.881   3.798   5.226 -1.1987 -1.6447 -1.8077
  544MOL0     H71801   7.794   3.718   5.352 -1.9869 -1.0770 -1.9616
  544MOL0     H71802   7.993   3.670   5.479 -1.2721  0.4730 -0.1513
  544MOL0     H71803   7.970   3.845   5.428 -1.2759  2.1973 -4.9704
  544MOL0     H71804   8.137   3.835   5.261 -2.2254  2.7647  3.8060
  544MOL0     H71805   8.198   3.783   5.414 -3.1705 -0.2223  1.2602
  544MOL0     H71806   8.298   3.435   5.189  0.8964  1.2119 -1.5326
  544MOL0     H71807   7.745   3.349   5.151 -0.2930 -0.1231  0.3839
  544MOL0     H71808   7.807   3.127   5.043 -2.9491 -1.4223  2.3123
  545MOL0     O71809   4.985   2.761   6.103  0.6582  0.1979 -0.4576
  545MOL0     C71810   4.940   2.657   6.150 -0.4510 -0.2320  0.2945
  545MOL0     O71811   4.916   2.545   6.072  1.0778 -0.2278 -0.5549
  545MOL0     C71812   4.912   2.545   5.938  1.9457 -0.3092  0.5570
  545MOL0     C71813   4.951   2.416   5.883 -1.1213  0.1372 -0.1094
  545MOL0     C71814   4.943   2.385   5.749 -0.6969 -0.7184  0.0366
  545MOL0     C71815   4.892   2.477   5.656  0.6110 -0.5512  0.1781
  545MOL0     O71816   4.881   2.466   5.518 -0.3168 -0.1802  0.0519
  545MOL0     C71817   4.920   2.342   5.464 -0.3047  0.3063 -0.9546
  545MOL0     C71818   4.836   2.309   5.336  0.2086 -0.3635 -0.7178
  545MOL0     C71819   4.801   2.158   5.328  0.2773 -0.2258  0.3919
  545MOL0     C71820   4.929   2.070   5.305  0.5644 -0.1229 -0.0219
  545MOL0     C71821   5.009   2.122   5.182  0.8912 -0.7336 -0.9776
  545MOL0     C71822   5.095   2.011   5.114  0.3989 -0.6853  0.0258
  545MOL0     C71823   5.119   2.041   4.966  0.4943 -0.0455 -0.1614
  545MOL0     C71824   5.200   1.928   4.906  0.0139  0.5780  0.4980
  545MOL0     N71825   5.202   1.948   4.760 -0.4803 -0.3369  0.4832
  545MOL0     C71826   5.089   1.932   4.676 -0.5935  0.6182 -0.3893
  545MOL0     C71827   5.137   1.944   4.545 -0.1485  0.6090  0.5177
  545MOL0     C71828   5.063   1.933   4.409 -0.0294  0.0600  0.2360
  545MOL0     C71829   4.913   1.899   4.424  0.4122  0.0374 -0.0668
  545MOL0     C71830   4.832   1.954   4.310  0.6088  0.4880  0.2465
  545MOL0     C71831   4.822   1.876   4.177 -0.1089 -0.2501 -0.3887
  545MOL0     O71832   4.904   1.940   4.082 -0.4224 -0.2117  0.1315
  545MOL0     C71833   4.923   1.889   3.960  0.0129 -0.0327 -0.6894
  545MOL0     C71834   4.839   1.788   3.911 -0.9983  0.0578  0.1644
  545MOL0     C71835   4.843   1.743   3.781 -0.0418  0.5928  0.7117
  545MOL0     C71836   4.939   1.799   3.692 -0.3568 -0.3325 -0.1886
  545MOL0     C71837   4.947   1.737   3.559  0.6307 -0.2904 -0.2968
  545MOL0     O71838   4.843   1.649   3.518  0.3023  0.8142 -0.3689
  545MOL0     C71839   4.834   1.580   3.396 -0.8777 -0.5200  0.4000
  545MOL0     C71840   4.935   1.495   3.362 -0.0569 -0.0074  0.0164
  545MOL0     C71841   4.916   1.427   3.244 -0.0177 -0.6994 -0.3013
  545MOL0     C71842   4.811   1.450   3.155 -0.2299  0.3053  0.1470
  545MOL0     O71843   4.805   1.367   3.045  0.6033  0.4598 -0.1284
  545MOL0     C71844   4.732   1.397   2.923  0.3407 -0.6675  0.3356
  545MOL0     C71845   4.747   1.281   2.827  0.7892 -1.3661  0.8184
  545MOL0     C71846   4.648   1.306   2.708  0.1532  0.6342 -0.9025
  545MOL0     C71847   4.658   1.190   2.603  0.0527 -0.0086 -1.3529
  545MOL0     C71848   4.559   1.196   2.502 -0.5565  0.2520  0.0666
  545MOL0     C71849   4.514   1.333   2.452  0.2389 -0.7912 -0.7878
  545MOL0     C71850   4.415   1.325   2.326 -0.1956  0.3748 -0.2391
  545MOL0     C71851   4.460   1.229   2.207  0.3367 -0.1872 -0.3632
  545MOL0    Cl71852   4.594   1.305   2.123 -0.1815  0.6502 -0.2843
  545MOL0     C71853   4.721   1.556   3.182 -0.6905 -0.4798  0.0745
  545MOL0     C71854   4.726   1.605   3.313 -0.7491 -0.1625 -0.7066
  545MOL0     O71855   5.052   1.762   3.496 -0.1365 -0.3961  0.3798
  545MOL0     C71856   5.012   1.913   3.729 -1.3062  0.1056 -0.3368
  545MOL0     C71857   5.008   1.951   3.868  0.2241  0.0999  0.0674
  545MOL0     N71858   5.263   2.002   4.543 -0.0569  0.2664 -0.1187
  545MOL0     N71859   5.299   2.002   4.671 -0.3565  0.7429  0.5732
  545MOL0     C71860   4.855   2.608   5.709 -0.2040 -0.8802 -0.2381
  545MOL0     C71861   4.867   2.641   5.845 -0.4492 -0.1068 -0.0775
  545MOL0     C71862   4.917   2.668   6.298  0.0840 -0.7326  0.0279
  545MOL0     C71863   4.931   2.796   6.363  0.2434 -0.3497 -0.1580
  545MOL0     C71864   4.895   2.807   6.496 -0.0217 -0.3602 -0.1615
  545MOL0     C71865   4.867   2.696   6.572 -0.0126  0.1172  0.5560
  545MOL0     O71866   4.849   2.697   6.706  0.4414 -0.5954 -0.3607
  545MOL0     C71867   4.970   2.718   6.783 -0.1990 -0.8289  0.0191
  545MOL0     C71868   4.952   2.697   6.923 -0.2800 -0.8022  0.3485
  545MOL0     C71869   5.059   2.602   6.988 -0.7124 -0.7746  0.2598
  545MOL0     C71870   5.048   2.589   7.141 -0.8561 -0.3051  0.1992
  545MOL0     C71871   5.149   2.491   7.180  0.1318  0.0891  0.7958
  545MOL0     C71872   5.229   2.403   7.209 -0.1943  0.0106 -0.7474
  545MOL0     C71873   4.863   2.573   6.517 -0.2346  0.3845 -0.5165
  545MOL0     C71874   4.877   2.562   6.379 -0.3825 -0.2665  1.1600
  545MOL0     H71875   4.999   2.354   5.958  0.1837  3.1655  1.7381
  545MOL0     H71876   4.970   2.283   5.727 -0.3553 -0.6436  0.0991
  545MOL0     H71877   4.907   2.262   5.536  1.7966  1.1044  0.3941
  545MOL0     H71878   5.023   2.365   5.433 -0.4020  3.1512  0.4795
  545MOL0     H71879   4.890   2.351   5.251 -0.8511  1.8334 -0.3891
  545MOL0     H71880   4.743   2.363   5.354  0.3047 -0.7316  1.0582
  545MOL0     H71881   4.732   2.143   5.245  2.2277 -0.6070 -1.2463
  545MOL0     H71882   4.757   2.112   5.417 -0.6590 -0.8968 -0.3965
  545MOL0     H71883   5.003   2.084   5.384  0.1128  0.9396  0.2169
  545MOL0     H71884   4.899   1.967   5.283 -0.2426  0.4100 -1.5720
  545MOL0     H71885   5.057   2.219   5.198  2.4662 -1.8953  2.1764
  545MOL0     H71886   4.930   2.136   5.108 -1.0243  1.0950  1.2476
  545MOL0     H71887   5.045   1.917   5.140  0.4214 -0.6177  0.3086
  545MOL0     H71888   5.186   2.005   5.174 -1.3069  1.0656  3.0043
  545MOL0     H71889   5.022   2.051   4.916  0.4322  0.2228  0.0092
  545MOL0     H71890   5.175   2.134   4.959  3.5525 -1.7020  0.6740
  545MOL0     H71891   5.150   1.832   4.921 -1.0881  0.6063 -2.3236
  545MOL0     H71892   5.298   1.924   4.954 -0.0956 -2.8659  0.7302
  545MOL0     H71893   4.983   1.915   4.692 -0.8395  2.1907 -0.2056
  545MOL0     H71894   5.117   1.851   4.361 -2.1316 -1.7765  0.8232
  545MOL0     H71895   5.076   2.025   4.352 -1.0800 -0.5229 -0.9968
  545MOL0     H71896   4.878   1.941   4.518  0.3077  3.3724 -1.4754
  545MOL0     H71897   4.923   1.790   4.425  4.0413  0.1738 -2.1105
  545MOL0     H71898   4.729   1.968   4.345  0.2302  2.2121 -1.3549
  545MOL0     H71899   4.869   2.056   4.300  0.2691  0.4391 -1.9180
  545MOL0     H71900   4.721   1.870   4.137  0.5715 -1.8328 -1.9942
  545MOL0     H71901   4.867   1.777   4.195  0.8465 -0.0078 -1.3377
  545MOL0     H71902   4.790   1.733   3.991 -0.8947 -0.1228  0.1059
  545MOL0     H71903   4.778   1.662   3.749  0.2234 -0.3769  2.4912
  545MOL0     H71904   5.022   1.475   3.423  0.3171  1.3568 -0.0324
  545MOL0     H71905   4.995   1.357   3.219  3.0417  1.9366  1.1248
  545MOL0     H71906   4.770   1.496   2.895  3.3898 -1.3072  1.7785
  545MOL0     H71907   4.627   1.412   2.950  0.1260  0.7201 -1.1300
  545MOL0     H71908   4.734   1.184   2.875 -1.7939 -1.3130  0.3728
  545MOL0     H71909   4.850   1.289   2.790  0.8171  2.2285  1.3228
  545MOL0     H71910   4.668   1.405   2.666  0.7158  0.2368 -1.5833
  545MOL0     H71911   4.551   1.299   2.759  0.2120 -0.6680 -0.9351
  545MOL0     H71912   4.752   1.198   2.548  0.7855  2.9475  0.1327
  545MOL0     H71913   4.655   1.096   2.659  0.5073  0.8602  0.1684
  545MOL0     H71914   4.470   1.148   2.545 -0.6210  1.2651  1.1190
  545MOL0     H71915   4.597   1.143   2.415 -1.6788  1.1816 -1.0282
  545MOL0     H71916   4.594   1.404   2.428 -0.4341  0.7681  1.3708
  545MOL0     H71917   4.451   1.378   2.528 -0.3687 -0.1109 -1.6708
  545MOL0     H71918   4.318   1.289   2.362 -0.0522 -1.3817 -1.4932
  545MOL0     H71919   4.389   1.422   2.281 -2.6602  0.0027  0.2418
  545MOL0     H71920   4.379   1.223   2.134  2.0572 -0.5091 -2.3508
  545MOL0     H71921   4.484   1.133   2.256  3.4143  0.6768  0.0622
  545MOL0     H71922   4.658   1.609   3.110  0.1759  0.0909 -0.2782
  545MOL0     H71923   4.640   1.654   3.355  0.2552 -0.8173  2.3503
  545MOL0     H71924   5.094   1.947   3.666  0.9241 -1.7965  1.3398
  545MOL0     H71925   5.063   2.039   3.897  0.9038 -0.2763 -0.0642
  545MOL0     H71926   4.801   2.681   5.649  3.9784  4.6673  1.9263
  545MOL0     H71927   4.830   2.734   5.886 -0.0318 -0.2735  0.7093
  545MOL0     H71928   4.953   2.889   6.311 -0.1312 -1.1490 -1.8147
  545MOL0     H71929   4.880   2.911   6.523  1.0236  0.5921 -2.9630
  545MOL0     H71930   4.997   2.823   6.795 -2.8697 -0.1600  0.9334
  545MOL0     H71931   5.055   2.654   6.758  1.1554  0.8715  0.1121
  545MOL0     H71932   4.949   2.787   6.984 -1.8639  0.3500 -1.3293
  545MOL0     H71933   4.858   2.643   6.942 -0.5870 -0.6452 -0.6702
  545MOL0     H71934   5.158   2.646   6.971 -0.4377 -1.0506  1.0950
  545MOL0     H71935   5.053   2.505   6.937 -2.1470 -0.4854 -0.1718
  545MOL0     H71936   5.076   2.684   7.186  2.2436 -1.3219  0.6266
  545MOL0     H71937   4.952   2.555   7.182  0.1260 -1.7043  1.4223
  545MOL0     H71938   5.291   2.317   7.224 -2.4701 -2.2305 -3.0836
  545MOL0     H71939   4.819   2.498   6.582 -4.2163  1.9830 -1.0989
  545MOL0     H71940   4.868   2.464   6.334 -0.4911 -1.0222  2.7613
  546MOL0     O71941   1.203   3.965   4.051  0.0766  0.4137  0.4562
  546MOL0     C71942   1.138   3.889   3.973 -0.3415 -0.1592  0.9274
  546MOL0     O71943   1.025   3.811   4.008  0.4982  0.3521 -0.2399
  546MOL0     C71944   0.954   3.846   4.114 -0.4665  0.0213 -0.2188
  546MOL0     C71945   0.904   3.977   4.141 -0.9088  0.8862  0.4225
  546MOL0     C71946   0.828   4.005   4.251  1.0620  0.8980  0.3984
  546MOL0     C71947   0.811   3.905   4.345  0.4406  0.1464 -0.7318
  546MOL0     O71948   0.737   3.930   4.462 -0.2679 -0.0799 -0.2973
  546MOL0     C71949   0.613   3.997   4.446  0.1418 -0.5063  0.4057
  546MOL0     C71950   0.527   3.988   4.569  1.0018  0.7911 -0.0919
  546MOL0     C71951   0.585   4.035   4.698  0.2099  1.4014  0.0201
  546MOL0     C71952   0.589   4.187   4.694 -0.7020 -0.1360 -0.6490
  546MOL0     C71953   0.587   4.254   4.836  0.2623 -1.6615  0.2760
  546MOL0     C71954   0.584   4.410   4.823 -0.7863 -0.3053 -0.7740
  546MOL0     C71955   0.461   4.467   4.736  0.4187  0.4086 -0.0694
  546MOL0     C71956   0.400   4.606   4.784 -0.4169  0.3007 -0.3842
  546MOL0     N71957   0.328   4.675   4.681  0.0371  0.1821  0.6108
  546MOL0     C71958   0.371   4.711   4.555  0.5381  0.4481 -0.0283
  546MOL0     C71959   0.269   4.780   4.500 -0.2385 -0.1588 -0.8113
  546MOL0     C71960   0.255   4.860   4.371 -0.8363 -0.0268 -0.5112
  546MOL0     C71961   0.119   4.868   4.304  0.5363  0.2060  0.5879
  546MOL0     C71962   0.082   4.763   4.190  0.6680 -0.6812  0.2193
  546MOL0     C71963  -0.062   4.768   4.137  0.4113 -0.6458  0.6909
  546MOL0     O71964  -0.088   4.902   4.101 -0.0112  0.0449 -0.1056
  546MOL0     C71965  -0.150   4.930   3.984 -0.1541  0.2200 -0.1639
  546MOL0     C71966  -0.269   4.860   3.949 -1.2234  0.5071 -0.4480
  546MOL0     C71967  -0.339   4.891   3.832  0.8991  0.2018 -0.5030
  546MOL0     C71968  -0.271   4.968   3.736 -0.3534 -0.2445  1.1748
  546MOL0     C71969  -0.330   4.988   3.600 -0.1227  0.4252 -0.8475
  546MOL0     O71970  -0.239   5.009   3.499 -0.1940  0.0166  0.1451
  546MOL0     C71971  -0.277   5.014   3.372  0.4505  0.3363 -0.0308
  546MOL0     C71972  -0.231   4.913   3.274 -0.4017  0.4305 -0.4034
  546MOL0     C71973  -0.263   4.926   3.147  0.7128  0.7095  0.0751
  546MOL0     C71974  -0.359   5.023   3.099 -0.2081 -0.7788 -0.7125
  546MOL0     O71975  -0.405   5.054   2.973 -0.1734  0.3168  0.6913
  546MOL0     C71976  -0.320   5.000   2.866  0.4376 -0.1133 -1.0153
  546MOL0     C71977  -0.402   5.034   2.735  0.3384  0.2679 -0.5908
  546MOL0     C71978  -0.403   4.930   2.622 -0.2785 -0.1248  0.3522
  546MOL0     C71979  -0.257   4.935   2.566 -0.1662  1.3043  0.3571
  546MOL0     C71980  -0.239   4.855   2.435 -0.1169  0.3188  0.0741
  546MOL0     C71981  -0.265   4.710   2.439  0.3681 -0.2765  0.6204
  546MOL0     C71982  -0.222   4.658   2.297  0.4244 -1.2123 -0.4831
  546MOL0     C71983  -0.177   4.509   2.295  0.0470 -0.3420  0.1660
  546MOL0    Cl71984  -0.329   4.399   2.324 -0.5596 -0.0922 -0.1955
  546MOL0     C71985  -0.404   5.117   3.190  0.9197  0.8581  0.1209
  546MOL0     C71986  -0.371   5.116   3.328 -0.1657 -0.4915 -0.5905
  546MOL0     O71987  -0.451   4.962   3.586 -0.4498 -0.0790  0.5042
  546MOL0     C71988  -0.142   5.026   3.764  0.1113  0.3388 -0.1488
  546MOL0     C71989  -0.081   5.008   3.891  0.5951  0.3419 -1.0465
  546MOL0     N71990   0.172   4.757   4.592  1.2495 -0.4656 -0.6437
  546MOL0     N71991   0.206   4.710   4.703  0.3714 -0.2662  0.2639
  546MOL0     C71992   0.864   3.776   4.332  0.3500 -0.0118 -0.5745
  546MOL0     C71993   0.933   3.746   4.210 -0.8905 -0.1948  0.7696
  546MOL0     C71994   1.186   3.866   3.832  1.6894 -0.0495 -0.0839
  546MOL0     C71995   1.125   3.764   3.760  0.6971  0.1719 -0.9123
  546MOL0     C71996   1.152   3.747   3.625  0.3819 -1.2271 -0.2029
  546MOL0     C71997   1.238   3.838   3.556  0.0876  0.5859  0.7598
  546MOL0     O71998   1.272   3.817   3.420 -0.0016  0.0734 -0.8999
  546MOL0     C71999   1.315   3.929   3.339  0.4481 -0.0988 -0.3474
  546MOL0     C72000   1.291   3.908   3.189  0.2191  0.5802 -0.7203
  546MOL0     C72001   1.141   3.885   3.143 -0.2074 -0.2885  1.0347
  546MOL0     C72002   1.144   3.842   2.994  0.4998 -0.6667 -0.0631
  546MOL0     C72003   1.017   3.793   2.952  0.1397  0.0428 -0.0656
  546MOL0     C72004   0.904   3.762   2.936 -0.4763  0.5203  1.0726
  546MOL0     C72005   1.299   3.935   3.627  0.1138 -0.9896 -0.0101
  546MOL0     C72006   1.275   3.951   3.766  0.0187 -0.5243  0.4504
  546MOL0     H72007   0.929   4.050   4.064 -0.4371  0.1943 -0.0864
  546MOL0     H72008   0.795   4.106   4.270 -0.1517  0.7932 -0.9101
  546MOL0     H72009   0.562   3.961   4.356  3.0228 -2.6897 -0.5241
  546MOL0     H72010   0.629   4.105   4.437 -0.0404 -0.5849 -1.2138
  546MOL0     H72011   0.496   3.884   4.583  1.7491  0.2599 -2.0343
  546MOL0     H72012   0.439   4.050   4.549  0.5355 -0.0561 -0.7689
  546MOL0     H72013   0.688   4.005   4.721  0.9433  2.2786 -1.9466
  546MOL0     H72014   0.527   3.992   4.780  1.4730 -2.9566 -1.1392
  546MOL0     H72015   0.664   4.227   4.625  1.4719 -1.3424  0.9198
  546MOL0     H72016   0.492   4.223   4.658 -1.4442  0.7532  2.0654
  546MOL0     H72017   0.678   4.229   4.892  1.8539  3.6622  0.6080
  546MOL0     H72018   0.500   4.220   4.893  0.1227  1.0774  1.8788
  546MOL0     H72019   0.678   4.445   4.779 -0.4284 -2.5581 -1.9611
  546MOL0     H72020   0.573   4.464   4.918 -2.4403 -0.5217 -0.8098
  546MOL0     H72021   0.482   4.473   4.629 -1.7184 -3.5147 -0.9238
  546MOL0     H72022   0.378   4.396   4.747  3.0009 -2.6439  1.1821
  546MOL0     H72023   0.483   4.672   4.810  1.3224 -1.7573 -0.4064
  546MOL0     H72024   0.334   4.588   4.868 -4.2424  1.1454 -2.9500
  546MOL0     H72025   0.472   4.691   4.520  1.0993  2.4556  0.3234
  546MOL0     H72026   0.327   4.814   4.303 -0.1032 -4.0488  2.6260
  546MOL0     H72027   0.280   4.963   4.399 -2.1983 -0.3744  2.3753
  546MOL0     H72028   0.113   4.969   4.262 -2.0201 -0.0886  0.0846
  546MOL0     H72029   0.040   4.862   4.380 -0.1948  0.8047 -0.1052
  546MOL0     H72030   0.138   4.795   4.102  0.0261 -1.2556 -0.4043
  546MOL0     H72031   0.126   4.663   4.205  4.2405  0.1671 -2.9880
  546MOL0     H72032  -0.129   4.742   4.219 -1.1997 -1.8763 -0.9269
  546MOL0     H72033  -0.077   4.694   4.057 -1.0873  0.1284  0.2183
  546MOL0     H72034  -0.320   4.795   4.019 -0.0651  0.5084  0.4199
  546MOL0     H72035  -0.441   4.854   3.823  0.5176  1.0417  0.2416
  546MOL0     H72036  -0.170   4.832   3.314  1.1947  2.7799  2.3780
  546MOL0     H72037  -0.224   4.848   3.082 -3.4967 -3.4202  1.9128
  546MOL0     H72038  -0.311   4.893   2.883  2.1754 -0.2470 -2.4675
  546MOL0     H72039  -0.220   5.043   2.856  0.5303 -0.1272 -0.1578
  546MOL0     H72040  -0.374   5.133   2.697 -0.1431 -0.7025 -3.7608
  546MOL0     H72041  -0.505   5.054   2.765  0.4122  0.3257 -0.3729
  546MOL0     H72042  -0.479   4.957   2.548 -0.7105 -2.2382 -0.0396
  546MOL0     H72043  -0.423   4.829   2.660 -1.2606 -1.4171 -3.2048
  546MOL0     H72044  -0.216   5.035   2.547  1.1425  0.6520 -0.3107
  546MOL0     H72045  -0.198   4.878   2.638 -1.0330 -0.5457 -0.3325
  546MOL0     H72046  -0.135   4.873   2.406  0.2337  0.4587  1.3698
  546MOL0     H72047  -0.293   4.909   2.357 -0.8357  2.0907  1.7110
  546MOL0     H72048  -0.372   4.690   2.447  0.4426 -0.4144  1.2990
  546MOL0     H72049  -0.215   4.646   2.512  0.5372 -2.9065 -1.6014
  546MOL0     H72050  -0.296   4.685   2.222  0.3533  0.6704  0.2016
  546MOL0     H72051  -0.140   4.720   2.260  0.0215 -0.0120  0.5092
  546MOL0     H72052  -0.117   4.474   2.379  1.2449 -0.9038 -0.8826
  546MOL0     H72053  -0.122   4.492   2.202 -1.1207 -2.4404 -0.2138
  546MOL0     H72054  -0.464   5.202   3.160  0.9564  0.7067 -0.3835
  546MOL0     H72055  -0.404   5.187   3.403 -0.9833 -0.8604 -0.5794
  546MOL0     H72056  -0.101   5.090   3.687  1.9536  3.7735  3.3623
  546MOL0     H72057   0.020   5.045   3.908  0.6541 -0.2918  0.0638
  546MOL0     H72058   0.869   3.714   4.420  1.6059  0.1674 -0.5054
  546MOL0     H72059   0.971   3.647   4.189  1.6542  0.7737  0.4293
  546MOL0     H72060   1.046   3.702   3.801 -0.4831  1.6425 -0.8742
  546MOL0     H72061   1.103   3.667   3.569 -1.0089 -1.2730  1.0227
  546MOL0     H72062   1.419   3.961   3.347  0.0893  1.9700 -2.7930
  546MOL0     H72063   1.254   4.017   3.361  2.0866  0.7175  1.1484
  546MOL0     H72064   1.333   3.988   3.128  2.9679  1.2581  1.8158
  546MOL0     H72065   1.344   3.818   3.155  2.7847  1.3634  0.8655
  546MOL0     H72066   1.099   3.986   3.140  3.0084  1.1987  1.9814
  546MOL0     H72067   1.093   3.810   3.208 -3.7683  2.3183  1.7050
  546MOL0     H72068   1.176   3.920   2.925 -1.6044  1.1166  0.8544
  546MOL0     H72069   1.202   3.750   2.978 -0.5394 -1.7847  2.1745
  546MOL0     H72070   0.810   3.714   2.917  0.9623 -2.5107  0.9980
  546MOL0     H72071   1.373   4.003   3.586 -1.4298  0.5097 -0.4331
  546MOL0     H72072   1.311   4.030   3.832 -2.1243  0.9833 -0.0647
  547MOL0     O72073   9.044   6.957  10.454 -0.2619 -0.4112 -0.2095
  547MOL0     C72074   9.031   6.833  10.433  0.9637 -0.7599  0.2979
  547MOL0     O72075   8.989   6.779  10.315  0.4593 -0.5299  1.0210
  547MOL0     C72076   8.979   6.859  10.201 -0.5743  1.0011  0.5335
  547MOL0     C72077   9.090   6.915  10.149  0.2545 -0.2356 -0.5829
  547MOL0     C72078   9.080   6.983  10.018 -0.3342  0.5418  0.1072
  547MOL0     C72079   8.951   7.000   9.957 -0.3260  0.3266  0.3622
  547MOL0     O72080   8.944   7.062   9.836  0.1595 -0.1924 -0.3322
  547MOL0     C72081   8.848   7.171   9.817 -0.2955  0.5334 -0.4381
  547MOL0     C72082   8.899   7.291   9.741 -0.5159 -0.1489  0.3967
  547MOL0     C72083   9.011   7.366   9.813  0.5071 -0.7126 -0.6909
  547MOL0     C72084   9.013   7.505   9.749 -0.4509 -0.1325  0.5371
  547MOL0     C72085   9.110   7.602   9.823  0.5748  0.5426 -0.5023
  547MOL0     C72086   9.130   7.734   9.753 -0.1420 -0.1450  0.9460
  547MOL0     C72087   9.067   7.853   9.824 -0.5805  0.4890 -0.0085
  547MOL0     C72088   9.139   7.986   9.779 -0.6172  0.9380  0.6929
  547MOL0     N72089   9.084   8.110   9.836  0.6275 -0.1690  0.1354
  547MOL0     C72090   9.129   8.233   9.798  0.3598  0.3506 -1.1301
  547MOL0     C72091   9.066   8.307   9.892 -0.0236 -0.2416 -0.3107
  547MOL0     C72092   9.077   8.462   9.896  0.2009 -0.3868 -0.3918
  547MOL0     C72093   9.048   8.540  10.022 -0.9327 -0.4580 -0.9555
  547MOL0     C72094   9.177   8.582  10.099 -0.5992  0.1146  0.0338
  547MOL0     C72095   9.175   8.729  10.161  0.2098 -0.4483  0.3024
  547MOL0     O72096   9.308   8.754  10.175  0.5439 -0.6166  0.9109
  547MOL0     C72097   9.318   8.868  10.252  0.0341  0.4710  0.5101
  547MOL0     C72098   9.333   8.853  10.385  0.1019  0.7248 -1.1616
  547MOL0     C72099   9.354   8.971  10.466 -0.7897  1.0943 -0.3989
  547MOL0     C72100   9.360   9.102  10.407 -0.2287  0.6590 -0.0258
  547MOL0     C72101   9.412   9.215  10.493  0.3993 -0.2007 -0.0873
  547MOL0     O72102   9.404   9.199  10.624 -1.0381 -1.2698  0.1562
  547MOL0     C72103   9.491   9.266  10.709  0.3071  0.9989 -0.8656
  547MOL0     C72104   9.541   9.395  10.703  0.5015  0.3775 -0.4865
  547MOL0     C72105   9.625   9.448  10.797 -0.1911  0.4458  0.3708
  547MOL0     C72106   9.643   9.385  10.920  0.3766 -0.3938 -0.9462
  547MOL0     O72107   9.718   9.451  11.012 -1.3125 -0.5977 -1.1898
  547MOL0     C72108   9.841   9.522  10.981  0.8463 -0.3047 -0.2094
  547MOL0     C72109   9.934   9.538  11.106 -0.3170  0.4770  0.3330
  547MOL0     C72110   9.880   9.655  11.190 -0.7439 -0.9053 -0.4744
  547MOL0     C72111   9.952   9.674  11.322 -0.2611  0.3647 -0.2565
  547MOL0     C72112   9.878   9.769  11.413 -1.1056  0.9002  0.0733
  547MOL0     C72113   9.738   9.717  11.470 -0.2079  0.0743  0.6205
  547MOL0     C72114   9.707   9.784  11.604  0.7706 -0.2884  0.0085
  547MOL0     C72115   9.566   9.758  11.659  0.5976  0.0676  0.2227
  547MOL0    Cl72116   9.574   9.608  11.757  0.3470  0.5064  0.4057
  547MOL0     C72117   9.580   9.255  10.940  0.1769  0.7032  1.4818
  547MOL0     C72118   9.506   9.199  10.836  0.0846 -0.2099  0.1945
  547MOL0     O72119   9.453   9.312  10.433  1.0055  0.0858  0.5877
  547MOL0     C72120   9.338   9.113  10.265  0.6948  0.1395 -0.0747
  547MOL0     C72121   9.317   8.994  10.186  0.2514  0.2148 -0.1417
  547MOL0     N72122   8.991   8.228   9.975 -0.5876  1.1103 -0.3713
  547MOL0     N72123   9.000   8.111   9.938  0.4757 -0.1104 -0.4679
  547MOL0     C72124   8.839   6.933  10.015 -0.0078  1.1520 -0.2054
  547MOL0     C72125   8.856   6.877  10.138  0.4125  0.0256  0.9102
  547MOL0     C72126   9.057   6.744  10.533 -0.6881 -0.1846 -0.2841
  547MOL0     C72127   9.133   6.780  10.650 -0.5257 -0.5407  0.4867
  547MOL0     C72128   9.162   6.689  10.745  0.9534 -0.8689 -0.3646
  547MOL0     C72129   9.120   6.559  10.731 -1.0048  0.7795 -0.5303
  547MOL0     O72130   9.149   6.463  10.818 -0.2255  0.2105 -0.0503
  547MOL0     C72131   9.069   6.416  10.929  0.2706 -0.3063  0.3339
  547MOL0     C72132   9.119   6.459  11.065 -0.4240 -0.3493  0.2116
  547MOL0     C72133   9.268   6.475  11.079 -0.1221 -0.4195 -0.1967
  547MOL0     C72134   9.309   6.490  11.235 -0.5906 -0.0386  0.6019
  547MOL0     C72135   9.260   6.612  11.302  0.0111  0.0334  0.5173
  547MOL0     C72136   9.207   6.703  11.366  0.9044  0.4675  0.7006
  547MOL0     C72137   9.062   6.517  10.612 -0.1686 -0.4739 -0.1871
  547MOL0     C72138   9.029   6.608  10.519  0.1852  0.6162  0.1410
  547MOL0     H72139   9.188   6.889  10.187  0.5148  2.3396  0.7222
  547MOL0     H72140   9.177   7.022   9.989 -0.5331  3.3861  2.7547
  547MOL0     H72141   8.795   7.197   9.909 -1.3218 -2.3344 -0.1156
  547MOL0     H72142   8.781   7.111   9.754  1.1871 -0.1589 -1.3946
  547MOL0     H72143   8.820   7.365   9.721 -0.5611  0.7027  3.2483
  547MOL0     H72144   8.930   7.266   9.639  0.0264  2.0821 -0.0620
  547MOL0     H72145   9.107   7.316   9.830 -1.0464 -3.9844 -0.6751
  547MOL0     H72146   8.965   7.376   9.911 -1.9871  3.7102 -2.0231
  547MOL0     H72147   9.063   7.494   9.652 -0.3288 -1.9339  0.7724
  547MOL0     H72148   8.914   7.549   9.753  0.3835  1.7542  3.2717
  547MOL0     H72149   9.207   7.552   9.813  1.7027  2.7713 -1.3548
  547MOL0     H72150   9.081   7.616   9.927  0.3827  2.9069 -0.8235
  547MOL0     H72151   9.086   7.720   9.654  0.0379  1.6357  0.5859
  547MOL0     H72152   9.238   7.751   9.746 -0.3700  0.9303 -0.3232
  547MOL0     H72153   8.964   7.863   9.789 -0.6428  0.7792  0.2542
  547MOL0     H72154   9.077   7.838   9.932  3.1331  0.1911 -0.2585
  547MOL0     H72155   9.144   7.987   9.669 -0.9059  0.2133  0.6626
  547MOL0     H72156   9.241   7.985   9.817  0.4829  2.7686 -1.9017
  547MOL0     H72157   9.205   8.265   9.728  1.2861 -1.6192 -1.1025
  547MOL0     H72158   9.005   8.507   9.827 -0.0804 -1.9628 -1.1994
  547MOL0     H72159   9.175   8.492   9.857  0.6758  1.8504  2.2449
  547MOL0     H72160   8.976   8.477  10.075  0.0959 -3.1654 -2.5793
  547MOL0     H72161   8.984   8.623   9.991 -2.5123 -0.5916  1.6839
  547MOL0     H72162   9.197   8.518  10.185  2.3058  1.1307  0.2195
  547MOL0     H72163   9.254   8.585  10.021 -1.9895  0.3242 -1.3984
  547MOL0     H72164   9.116   8.723  10.252 -2.4685 -1.2568 -1.3596
  547MOL0     H72165   9.115   8.800  10.103 -0.8609 -1.7848 -0.3052
  547MOL0     H72166   9.315   8.756  10.430  0.0149 -1.4215 -5.3294
  547MOL0     H72167   9.366   8.961  10.573 -2.0499  0.5552 -0.2857
  547MOL0     H72168   9.502   9.443  10.614 -0.8452  0.4164  0.0962
  547MOL0     H72169   9.674   9.544  10.785  4.5102 -0.8875  4.9925
  547MOL0     H72170   9.817   9.620  10.939  0.6253 -0.1883  0.1805
  547MOL0     H72171   9.898   9.469  10.905  1.4204 -0.9110  0.6161
  547MOL0     H72172  10.033   9.580  11.084  0.1360  0.6885  2.4879
  547MOL0     H72173   9.941   9.445  11.163  2.1606 -0.3692 -1.1898
  547MOL0     H72174   9.774   9.632  11.205 -1.4386  0.6990 -2.4341
  547MOL0     H72175   9.888   9.753  11.140 -0.8557 -0.3569  0.5501
  547MOL0     H72176   9.968   9.575  11.365  0.9293  0.6383 -0.0311
  547MOL0     H72177  10.056   9.703  11.304  1.3276 -3.6845  1.1166
  547MOL0     H72178   9.860   9.867  11.368 -2.2709  0.5252 -0.3220
  547MOL0     H72179   9.942   9.797  11.497 -0.4663  3.2013 -1.1207
  547MOL0     H72180   9.753   9.609  11.475 -0.0969  0.0499 -0.1642
  547MOL0     H72181   9.654   9.747  11.406  0.1646 -0.9240 -0.3631
  547MOL0     H72182   9.767   9.757  11.692 -0.4636 -2.7812  0.1921
  547MOL0     H72183   9.719   9.892  11.603 -1.7881  0.1186  2.0319
  547MOL0     H72184   9.485   9.755  11.585  1.1805  1.7996 -0.5257
  547MOL0     H72185   9.524   9.838  11.721  2.6228  0.4698  1.1237
  547MOL0     H72186   9.582   9.208  11.038 -0.3865  1.3522  1.8144
  547MOL0     H72187   9.456   9.104  10.851 -1.0534  0.2898 -0.3260
  547MOL0     H72188   9.343   9.211  10.220  3.6624  0.7064  1.2621
  547MOL0     H72189   9.285   9.007  10.083 -2.8431 -1.3847  0.4911
  547MOL0     H72190   8.746   6.911   9.963  0.2195 -2.6889  0.7538
  547MOL0     H72191   8.771   6.835  10.192 -0.7701  0.6962 -0.3765
  547MOL0     H72192   9.154   6.883  10.674 -3.7820  0.2417  0.5012
  547MOL0     H72193   9.192   6.742  10.835 -0.2547  4.3499 -2.7192
  547MOL0     H72194   9.052   6.308  10.936 -0.4472 -0.2830 -0.8805
  547MOL0     H72195   8.972   6.462  10.911  1.0408  1.2041 -0.1398
  547MOL0     H72196   9.068   6.546  11.107 -0.6347 -1.1938  1.7887
  547MOL0     H72197   9.079   6.375  11.122  0.3431 -0.2881  0.8507
  547MOL0     H72198   9.312   6.560  11.027  1.4402 -0.2694  1.2763
  547MOL0     H72199   9.322   6.399  11.023  2.8498  0.9358  0.6200
  547MOL0     H72200   9.270   6.404  11.290 -2.0951 -0.4359 -1.0093
  547MOL0     H72201   9.418   6.485  11.229 -0.6930 -1.3421 -0.6374
  547MOL0     H72202   9.165   6.793  11.404  0.0434 -0.2246  1.4355
  547MOL0     H72203   9.032   6.414  10.595 -2.6553  0.2436 -0.5697
  547MOL0     H72204   8.976   6.578  10.429 -2.4573 -0.6373  1.9831
  548MOL0     O72205   5.454   0.530   9.097  0.6473  0.1531 -0.0847
  548MOL0     C72206   5.463   0.477   8.990  0.5446 -0.0148 -0.3633
  548MOL0     O72207   5.425   0.341   8.969 -0.3294  0.3565 -0.1473
  548MOL0     C72208   5.463   0.245   9.064  0.7491 -0.3782 -0.3759
  548MOL0     C72209   5.526   0.258   9.195 -0.0937  0.0841  0.2881
  548MOL0     C72210   5.529   0.155   9.283 -1.1741 -0.0270  0.2773
  548MOL0     C72211   5.498   0.029   9.240 -0.4460  1.2329 -0.6561
  548MOL0     O72212   5.543  -0.071   9.321 -0.4990 -0.6767 -0.0881
  548MOL0     C72213   5.509  -0.206   9.296  0.1415  0.6417 -0.7293
  548MOL0     C72214   5.577  -0.296   9.388 -0.2476 -0.0920  0.4992
  548MOL0     C72215   5.734  -0.273   9.383  0.4575 -0.0284 -0.3468
  548MOL0     C72216   5.798  -0.237   9.251 -0.7865 -0.2601 -0.4996
  548MOL0     C72217   5.951  -0.278   9.236 -0.4831  0.6618 -0.2528
  548MOL0     C72218   5.979  -0.273   9.085 -1.0991  0.8293 -0.4949
  548MOL0     C72219   6.130  -0.273   9.064 -0.1182  0.2284  0.2955
  548MOL0     C72220   6.200  -0.409   9.096  0.0773 -0.5799  0.0223
  548MOL0     N72221   6.334  -0.426   9.028 -0.2049  0.0793  0.4099
  548MOL0     C72222   6.357  -0.522   8.931  0.8672  0.2408 -0.1611
  548MOL0     C72223   6.478  -0.563   8.921 -0.2836 -0.6962  0.4499
  548MOL0     C72224   6.534  -0.657   8.816  0.1971 -0.2331  0.3893
  548MOL0     C72225   6.604  -0.778   8.877 -0.2758  0.5993 -0.5431
  548MOL0     C72226   6.517  -0.897   8.889  0.8035 -0.3822 -0.2132
  548MOL0     C72227   6.601  -1.011   8.950  0.0326  0.6453  0.7394
  548MOL0     O72228   6.500  -1.116   8.971  1.1870  0.3473  0.3229
  548MOL0     C72229   6.535  -1.235   9.037  0.9650 -0.8873  0.6517
  548MOL0     C72230   6.660  -1.254   9.102 -0.3351 -0.3118  0.9074
  548MOL0     C72231   6.687  -1.379   9.165  0.5225  1.1282  0.1595
  548MOL0     C72232   6.602  -1.493   9.147  0.9442  0.0394  0.3820
  548MOL0     C72233   6.645  -1.629   9.184  0.4129 -0.8041  0.6579
  548MOL0     O72234   6.779  -1.657   9.149  0.9913  0.1068  0.0617
  548MOL0     C72235   6.844  -1.769   9.188 -0.2353  0.9103 -0.3954
  548MOL0     C72236   6.837  -1.795   9.332  0.1538 -0.0349  0.5094
  548MOL0     C72237   6.881  -1.916   9.377 -0.0334  0.3034  0.7462
  548MOL0     C72238   6.936  -2.016   9.283 -0.0729 -0.0595 -0.1749
  548MOL0     O72239   7.008  -2.124   9.335 -0.0190  0.4811  0.8144
  548MOL0     C72240   7.020  -2.248   9.261  0.7292 -1.0499 -0.7292
  548MOL0     C72241   7.123  -2.327   9.342 -0.8361  0.3661  0.0672
  548MOL0     C72242   7.188  -2.432   9.246  0.1756  0.0334 -0.6151
  548MOL0     C72243   7.307  -2.372   9.179 -0.3507  0.3894 -0.1034
  548MOL0     C72244   7.387  -2.476   9.082 -0.4899 -0.5236 -0.3425
  548MOL0     C72245   7.420  -2.611   9.144  0.0887 -0.1043  0.4861
  548MOL0     C72246   7.484  -2.718   9.057 -0.0513  0.5186  0.2954
  548MOL0     C72247   7.414  -2.858   9.046 -0.7705 -0.2833  0.4553
  548MOL0    Cl72248   7.244  -2.839   9.001 -0.7473  0.1451  0.5320
  548MOL0     C72249   6.954  -1.986   9.150  0.5311  0.8717  0.4836
  548MOL0     C72250   6.901  -1.859   9.105  0.1035 -0.7600 -0.2934
  548MOL0     O72251   6.566  -1.703   9.243 -0.1474  0.0216  0.4644
  548MOL0     C72252   6.469  -1.468   9.097 -0.3041 -0.3446  0.3791
  548MOL0     C72253   6.439  -1.341   9.038 -0.3674  0.0859 -0.7171
  548MOL0     N72254   6.543  -0.470   9.000 -0.4789  0.2079  0.0673
  548MOL0     N72255   6.462  -0.387   9.062  0.4976  0.7938  1.0895
  548MOL0     C72256   5.441   0.012   9.110  0.2804 -0.4201 -0.1113
  548MOL0     C72257   5.427   0.117   9.022 -0.7023 -0.0114 -0.2321
  548MOL0     C72258   5.489   0.562   8.879  0.3270  0.6578  0.0074
  548MOL0     C72259   5.448   0.518   8.750  0.1053  0.5427 -0.8928
  548MOL0     C72260   5.436   0.604   8.651  0.6579 -0.9603  0.1048
  548MOL0     C72261   5.468   0.739   8.663 -0.1841  0.5820 -0.2120
  548MOL0     O72262   5.459   0.819   8.557  0.6698  0.5217  0.7475
  548MOL0     C72263   5.570   0.903   8.517 -0.4504 -0.8736  0.3342
  548MOL0     C72264   5.510   1.033   8.477 -0.6329 -0.2756  0.3455
  548MOL0     C72265   5.406   1.047   8.360  0.4653 -0.4435 -0.5496
  548MOL0     C72266   5.355   1.194   8.341  0.6662 -0.0666 -0.5280
  548MOL0     C72267   5.465   1.284   8.351  1.1064 -0.2315 -0.7316
  548MOL0     C72268   5.545   1.370   8.360 -0.2152  0.1767 -0.0863
  548MOL0     C72269   5.530   0.780   8.782 -0.0683  0.1720 -0.1701
  548MOL0     C72270   5.539   0.688   8.889  0.4542  0.3853 -0.9470
  548MOL0     H72271   5.558   0.358   9.224 -0.9638  0.2217  0.8226
  548MOL0     H72272   5.559   0.159   9.387 -1.2516  2.2567  0.2737
  548MOL0     H72273   5.534  -0.230   9.192 -0.0360  0.4331 -0.7262
  548MOL0     H72274   5.400  -0.214   9.309  0.3690  1.7906  2.9772
  548MOL0     H72275   5.558  -0.401   9.364  0.6352 -0.3015  0.7094
  548MOL0     H72276   5.546  -0.277   9.491 -2.7037 -4.0552  0.7105
  548MOL0     H72277   5.784  -0.360   9.427 -0.6177 -0.2380  0.5026
  548MOL0     H72278   5.770  -0.195   9.450  1.9697  0.5539 -1.7511
  548MOL0     H72279   5.745  -0.305   9.183 -1.3108  0.1756 -0.5336
  548MOL0     H72280   5.777  -0.136   9.217 -1.0012  0.0325  0.4560
  548MOL0     H72281   5.961  -0.380   9.274 -1.0363  1.2429  1.5591
  548MOL0     H72282   6.022  -0.215   9.289 -1.3738  0.3795  1.3277
  548MOL0     H72283   5.937  -0.186   9.034 -1.6776  0.6511 -0.3396
  548MOL0     H72284   5.929  -0.362   9.046 -2.2306  1.2523 -0.0632
  548MOL0     H72285   6.156  -0.235   8.964 -2.2077  0.4553 -0.2089
  548MOL0     H72286   6.175  -0.201   9.133 -1.3090  0.4141  0.8953
  548MOL0     H72287   6.125  -0.488   9.085 -1.2495  0.7540 -0.8737
  548MOL0     H72288   6.224  -0.412   9.202  1.8251 -1.5763 -0.3526
  548MOL0     H72289   6.281  -0.566   8.867 -2.7530  2.2998  2.3517
  548MOL0     H72290   6.601  -0.592   8.759 -1.3994  0.4301 -0.8208
  548MOL0     H72291   6.446  -0.689   8.760 -0.5647  1.7505  0.3605
  548MOL0     H72292   6.647  -0.739   8.970  1.0554  0.5289 -1.1096
  548MOL0     H72293   6.690  -0.799   8.814 -2.4047 -5.3269 -2.1396
  548MOL0     H72294   6.429  -0.870   8.948  2.3260 -0.2830  2.1704
  548MOL0     H72295   6.486  -0.942   8.794 -0.3698 -1.3863  0.6107
  548MOL0     H72296   6.646  -0.988   9.047  0.5439  0.2564  0.5968
  548MOL0     H72297   6.682  -1.035   8.881 -0.2936  4.0859 -1.0542
  548MOL0     H72298   6.746  -1.190   9.083 -1.1001  0.7101  0.7761
  548MOL0     H72299   6.783  -1.393   9.214  1.0868 -2.5641 -1.6388
  548MOL0     H72300   6.785  -1.727   9.399  0.4433  0.6238  0.0805
  548MOL0     H72301   6.844  -1.947   9.475 -0.7703 -0.1628  0.3257
  548MOL0     H72302   7.052  -2.239   9.157  3.2968  3.2864  0.1501
  548MOL0     H72303   6.925  -2.302   9.266 -0.6014  1.2484  0.8221
  548MOL0     H72304   7.089  -2.368   9.437 -1.3429  2.3201  0.7759
  548MOL0     H72305   7.207  -2.263   9.370 -0.3617 -0.3688  0.3799
  548MOL0     H72306   7.119  -2.472   9.171 -1.1118 -1.9131  1.4713
  548MOL0     H72307   7.223  -2.502   9.322 -1.2761 -0.8333 -0.7047
  548MOL0     H72308   7.260  -2.300   9.111 -2.0142 -0.6794 -0.1390
  548MOL0     H72309   7.377  -2.327   9.250  0.3099  0.5761 -0.8569
  548MOL0     H72310   7.478  -2.433   9.040 -2.2664  2.3121 -1.5546
  548MOL0     H72311   7.348  -2.495   8.982  1.5826  1.3293 -1.5794
  548MOL0     H72312   7.337  -2.671   9.182  1.8473 -3.6288 -0.8199
  548MOL0     H72313   7.489  -2.580   9.223  2.3406  2.7825 -2.3372
  548MOL0     H72314   7.503  -2.671   8.960  2.4189 -2.5026 -0.8344
  548MOL0     H72315   7.587  -2.739   9.087 -0.4871 -0.4186  1.1817
  548MOL0     H72316   7.408  -2.909   9.143  2.6270  2.9882  2.6965
  548MOL0     H72317   7.467  -2.916   8.970 -0.0539  2.4559 -1.2787
  548MOL0     H72318   6.983  -2.050   9.068 -0.7344  0.3575  0.4071
  548MOL0     H72319   6.897  -1.834   8.999 -0.1960 -0.1250 -0.1367
  548MOL0     H72320   6.415  -1.562   9.092  2.6220 -2.2717  2.3455
  548MOL0     H72321   6.343  -1.310   8.998 -0.2387  0.6834 -0.5791
  548MOL0     H72322   5.414  -0.087   9.077 -1.9915 -0.0351  0.4709
  548MOL0     H72323   5.398   0.092   8.920 -0.2734 -4.6480  0.5502
  548MOL0     H72324   5.403   0.422   8.728  0.5925  0.3637 -1.1164
  548MOL0     H72325   5.401   0.570   8.554 -1.0760 -1.1811  0.7732
  548MOL0     H72326   5.623   0.844   8.441  1.3609 -2.6208  2.7907
  548MOL0     H72327   5.646   0.930   8.591 -1.0294  3.5765 -0.3879
  548MOL0     H72328   5.465   1.070   8.571  0.3284  0.7428  0.4273
  548MOL0     H72329   5.596   1.097   8.459 -2.2383  1.4854 -1.5319
  548MOL0     H72330   5.308   0.998   8.367 -1.0271  2.1265 -1.9171
  548MOL0     H72331   5.461   1.026   8.268 -0.3455  2.2265 -1.7397
  548MOL0     H72332   5.308   1.201   8.242 -2.3788 -1.0770  0.7106
  548MOL0     H72333   5.283   1.220   8.418  2.4715  1.2463  0.7944
  548MOL0     H72334   5.587   1.469   8.363  2.7349 -0.8447 -2.3277
  548MOL0     H72335   5.575   0.878   8.793  2.5008 -0.8317 -0.9606
  548MOL0     H72336   5.599   0.706   8.978 -0.9602 -2.9405  0.8847
  549MOL0     O72337   0.108  10.074   3.857  0.5809  0.0742  0.2151
  549MOL0     C72338   0.190  10.132   3.793  0.1169  0.3430 -0.1934
  549MOL0     O72339   0.317  10.096   3.772  0.0238 -0.3397 -0.1147
  549MOL0     C72340   0.367   9.969   3.789 -0.2644  1.1009 -0.1967
  549MOL0     C72341   0.292   9.852   3.781  0.6031  0.5151 -0.4603
  549MOL0     C72342   0.345   9.723   3.821 -0.0258 -0.3883 -0.0214
  549MOL0     C72343   0.479   9.710   3.849  1.1472 -0.3116  0.0570
  549MOL0     O72344   0.530   9.583   3.872  0.0884  0.4946  0.5405
  549MOL0     C72345   0.533   9.526   4.008  0.3065  0.5609  0.0873
  549MOL0     C72346   0.563   9.372   3.994  0.6551  0.3181 -0.2351
  549MOL0     C72347   0.435   9.283   3.958 -0.5239 -0.0521  0.0489
  549MOL0     C72348   0.441   9.145   4.040  0.0391  0.2393  1.3134
  549MOL0     C72349   0.310   9.063   4.037  0.1732 -0.3034 -1.5383
  549MOL0     C72350   0.271   8.989   3.906 -0.8942  0.4678  0.5526
  549MOL0     C72351   0.298   8.836   3.902  0.7707 -0.5297 -0.3976
  549MOL0     C72352   0.294   8.768   3.766  0.4177 -1.2479  0.3225
  549MOL0     N72353   0.162   8.798   3.702  0.4523 -0.4810  0.1333
  549MOL0     C72354   0.039   8.761   3.747 -0.5734  0.0945 -0.3863
  549MOL0     C72355  -0.051   8.851   3.701  0.0713 -0.7661 -0.6280
  549MOL0     C72356  -0.204   8.826   3.716  0.2865 -0.5100 -1.0714
  549MOL0     C72357  -0.262   8.877   3.580  0.4227 -0.0720 -0.4814
  549MOL0     C72358  -0.402   8.839   3.540  0.5444  1.0737  0.2983
  549MOL0     C72359  -0.411   8.690   3.493  0.3591 -0.8946  0.6804
  549MOL0     O72360  -0.543   8.677   3.437 -0.3810 -0.4465 -0.5009
  549MOL0     C72361  -0.597   8.554   3.468 -0.1669  0.2239 -0.0711
  549MOL0     C72362  -0.526   8.434   3.440 -0.9972  0.2787 -0.5253
  549MOL0     C72363  -0.584   8.306   3.471 -0.4159 -0.0664  0.0718
  549MOL0     C72364  -0.715   8.304   3.510 -0.1441 -0.3896 -0.1307
  549MOL0     C72365  -0.783   8.175   3.543 -0.5597 -0.8926 -0.1446
  549MOL0     O72366  -0.737   8.055   3.479 -0.3913  0.1167 -0.3380
  549MOL0     C72367  -0.800   7.945   3.514 -0.1837 -0.3274  0.7442
  549MOL0     C72368  -0.751   7.856   3.615 -0.7268  0.0442 -0.5645
  549MOL0     C72369  -0.815   7.730   3.644  0.0931 -0.0459 -0.6233
  549MOL0     C72370  -0.930   7.706   3.572  0.1439  0.2696 -0.9679
  549MOL0     O72371  -0.991   7.591   3.607  0.2479  0.1413 -0.4649
  549MOL0     C72372  -1.091   7.626   3.716 -0.1692 -0.0454  0.2918
  549MOL0     C72373  -1.206   7.553   3.649 -0.6913  0.5188 -0.2255
  549MOL0     C72374  -1.209   7.405   3.686  0.8270 -0.8521  0.7019
  549MOL0     C72375  -1.314   7.309   3.619  0.5554  0.7348 -0.0098
  549MOL0     C72376  -1.299   7.159   3.682 -0.4814 -0.3681  0.6766
  549MOL0     C72377  -1.348   7.042   3.592  0.2162 -1.2077 -0.2321
  549MOL0     C72378  -1.495   7.050   3.567  0.2598 -0.2024 -0.2315
  549MOL0     C72379  -1.550   6.958   3.455 -0.6517 -0.7715  0.2770
  549MOL0    Cl72380  -1.478   6.988   3.292  0.3901  0.6332 -0.1199
  549MOL0     C72381  -0.972   7.780   3.463 -0.1591  0.5310 -0.1055
  549MOL0     C72382  -0.904   7.901   3.433  0.6096  0.4141  0.1742
  549MOL0     O72383  -0.881   8.179   3.612  0.1542 -0.3124 -0.2974
  549MOL0     C72384  -0.786   8.423   3.536  0.6724  0.3109 -0.5366
  549MOL0     C72385  -0.726   8.546   3.511 -0.2239 -0.1358 -0.2073
  549MOL0     N72386   0.016   8.954   3.635  0.5141 -0.0858  0.2120
  549MOL0     N72387   0.145   8.920   3.636  0.2034 -0.7276 -0.5783
  549MOL0     C72388   0.557   9.825   3.853 -0.3416  0.2018  0.2151
  549MOL0     C72389   0.502   9.952   3.825  0.0730 -0.7612 -0.9623
  549MOL0     C72390   0.156  10.273   3.765 -0.5573 -0.2664  0.0767
  549MOL0     C72391   0.240  10.368   3.701 -0.1855  0.1326  0.5484
  549MOL0     C72392   0.199  10.500   3.681  0.8681  0.8902  0.1987
  549MOL0     C72393   0.073  10.559   3.729  0.7128  0.4999 -0.8275
  549MOL0     O72394   0.019  10.686   3.708 -0.3397  0.0899  0.4201
  549MOL0     C72395   0.108  10.798   3.718 -0.2324 -0.0377 -0.4656
  549MOL0     C72396   0.227  10.785   3.817  0.0434  0.3875  0.2533
  549MOL0     C72397   0.170  10.785   3.963 -1.0865 -0.0912 -0.4138
  549MOL0     C72398   0.284  10.789   4.070 -0.0982  1.2474  0.6404
  549MOL0     C72399   0.343  10.658   4.083  0.2449  0.0828 -0.1091
  549MOL0     C72400   0.376  10.542   4.071 -0.7353 -0.0775 -0.9432
  549MOL0     C72401   0.001  10.466   3.809 -0.3089 -0.4362  0.5222
  549MOL0     C72402   0.041  10.334   3.818  0.1220  0.7323 -0.2750
  549MOL0     H72403   0.186   9.858   3.759  0.8103  1.4343 -1.2896
  549MOL0     H72404   0.278   9.638   3.821 -0.2938 -0.2835 -2.9792
  549MOL0     H72405   0.438   9.540   4.059  0.7832 -0.3063  1.2705
  549MOL0     H72406   0.617   9.575   4.059  0.5471  0.1357  0.1068
  549MOL0     H72407   0.605   9.335   4.088 -0.3226 -4.9012 -1.5132
  549MOL0     H72408   0.637   9.353   3.916 -0.1047 -1.4511 -0.5601
  549MOL0     H72409   0.448   9.270   3.850 -0.7921 -2.4474  0.2610
  549MOL0     H72410   0.343   9.337   3.984  0.1787  2.4091 -2.1476
  549MOL0     H72411   0.510   9.080   3.985 -4.8446 -0.8924 -4.5588
  549MOL0     H72412   0.479   9.174   4.138  3.9030  4.0585 -0.9872
  549MOL0     H72413   0.231   9.133   4.064 -0.2708 -1.8433  1.6926
  549MOL0     H72414   0.322   8.995   4.122  3.7288  3.2946  1.2238
  549MOL0     H72415   0.335   9.036   3.831 -1.1189 -2.1250 -1.4060
  549MOL0     H72416   0.165   9.014   3.896 -0.6212  1.1827 -0.7478
  549MOL0     H72417   0.398   8.827   3.945  0.3690  0.7380  0.8828
  549MOL0     H72418   0.227   8.782   3.965  2.3831 -0.1074  1.9076
  549MOL0     H72419   0.314   8.660   3.764  1.4074 -1.0845  0.5833
  549MOL0     H72420   0.368   8.821   3.705  0.2462  0.3473  1.4363
  549MOL0     H72421   0.017   8.697   3.832 -0.8446  2.5227  1.4522
  549MOL0     H72422  -0.249   8.886   3.795  0.1064  0.3538 -1.8151
  549MOL0     H72423  -0.228   8.722   3.740 -0.9700 -0.0831 -0.4094
  549MOL0     H72424  -0.194   8.848   3.499  3.4526 -0.3677  1.9917
  549MOL0     H72425  -0.256   8.986   3.584 -0.3588 -0.0521  0.9387
  549MOL0     H72426  -0.476   8.858   3.618 -1.4373  1.0770 -1.5170
  549MOL0     H72427  -0.429   8.907   3.458 -1.9254  3.2116  2.6684
  549MOL0     H72428  -0.385   8.626   3.578  0.1299 -2.0151 -0.0632
  549MOL0     H72429  -0.342   8.674   3.410 -0.9887  0.3219 -0.7444
  549MOL0     H72430  -0.421   8.437   3.413 -1.0487  1.8553 -0.6782
  549MOL0     H72431  -0.519   8.223   3.447 -0.0339  0.9317 -2.7424
  549MOL0     H72432  -0.669   7.890   3.677 -2.5777  0.3577  1.8872
  549MOL0     H72433  -0.758   7.668   3.713  1.1653  0.3080 -1.1598
  549MOL0     H72434  -1.134   7.724   3.736 -0.5320 -0.5221  1.9277
  549MOL0     H72435  -1.057   7.584   3.811  1.2131 -2.8478 -1.3066
  549MOL0     H72436  -1.203   7.557   3.540  0.5881  0.9765 -0.1989
  549MOL0     H72437  -1.303   7.590   3.682 -1.3181 -0.0052 -1.4376
  549MOL0     H72438  -1.198   7.384   3.793  4.4752 -0.0344  0.6145
  549MOL0     H72439  -1.114   7.368   3.646  1.6860  0.9423  0.9804
  549MOL0     H72440  -1.419   7.333   3.638  1.0140  2.2856  0.7120
  549MOL0     H72441  -1.292   7.301   3.512 -1.8390 -1.3332 -0.4399
  549MOL0     H72442  -1.338   7.152   3.784 -0.0243 -0.0113  0.8792
  549MOL0     H72443  -1.197   7.124   3.702 -0.2948  0.8882  2.0408
  549MOL0     H72444  -1.316   6.947   3.637  0.6561  0.1274  2.5536
  549MOL0     H72445  -1.287   7.047   3.502 -2.3598 -4.4633 -2.3729
  549MOL0     H72446  -1.540   7.017   3.661  0.1365 -0.5915 -0.4258
  549MOL0     H72447  -1.521   7.155   3.547 -0.6528 -0.3139  0.2908
  549MOL0     H72448  -1.659   6.964   3.459 -0.5464  1.6038  0.5764
  549MOL0     H72449  -1.532   6.852   3.477 -2.3117 -1.1737 -0.1566
  549MOL0     H72450  -1.062   7.742   3.416  0.3465 -0.1925 -0.5087
  549MOL0     H72451  -0.944   7.969   3.358  0.1133 -0.1806 -0.1185
  549MOL0     H72452  -0.888   8.422   3.574  1.6085 -0.0052  2.2299
  549MOL0     H72453  -0.776   8.640   3.531  0.8253  0.2237  0.8027
  549MOL0     H72454   0.664   9.813   3.867 -0.3189 -0.2307 -0.3186
  549MOL0     H72455   0.561  10.043   3.823 -2.1734  0.7776 -0.3520
  549MOL0     H72456   0.340  10.337   3.673  0.0593  1.3217  0.0152
  549MOL0     H72457   0.273  10.555   3.623  1.9519 -2.3233 -1.7133
  549MOL0     H72458   0.043  10.886   3.728  1.8666  1.2939  3.6584
  549MOL0     H72459   0.153  10.815   3.619  1.5797  0.8910  0.4657
  549MOL0     H72460   0.284  10.693   3.800 -0.5270  0.2391 -0.9774
  549MOL0     H72461   0.284  10.877   3.798  0.5743 -0.1056 -0.6339
  549MOL0     H72462   0.114  10.691   3.974  3.7193 -3.3223 -0.3425
  549MOL0     H72463   0.106  10.873   3.968 -0.8486  0.0564  0.1064
  549MOL0     H72464   0.357  10.869   4.054 -0.3845  1.1877 -1.1355
  549MOL0     H72465   0.231  10.801   4.165 -0.3401 -2.8452  1.1937
  549MOL0     H72466   0.415  10.442   4.065  0.4790  0.4745 -3.0419
  549MOL0     H72467  -0.096  10.483   3.854 -0.8447 -0.2339 -0.6650
  549MOL0     H72468  -0.040  10.276   3.861  2.8365 -2.2717  1.2855
  550MOL0     O72469   2.947   7.422   1.696 -0.0432 -0.2413  0.7822
  550MOL0     C72470   2.945   7.475   1.802 -1.0068 -0.2225  0.3236
  550MOL0     O72471   3.045   7.465   1.902 -0.6055  0.7741 -0.1334
  550MOL0     C72472   3.179   7.452   1.888  0.3161  0.8058  0.1555
  550MOL0     C72473   3.246   7.497   1.765 -0.9769 -0.6442 -0.1512
  550MOL0     C72474   3.383   7.501   1.764 -0.2507 -0.7950  0.3750
  550MOL0     C72475   3.455   7.441   1.868 -0.0997  0.5973  0.4922
  550MOL0     O72476   3.586   7.408   1.874 -0.0702 -0.0348  0.3785
  550MOL0     C72477   3.663   7.380   1.762 -0.7357 -0.3429 -0.6884
  550MOL0     C72478   3.814   7.396   1.789  0.3872  0.4051 -0.6154
  550MOL0     C72479   3.842   7.536   1.828  0.1874 -0.5009 -0.7198
  550MOL0     C72480   3.820   7.626   1.707 -0.3142  0.1283 -0.5739
  550MOL0     C72481   3.870   7.763   1.741 -0.3412 -0.2091 -0.5971
  550MOL0     C72482   3.894   7.861   1.617 -1.5808 -0.6281 -0.9030
  550MOL0     C72483   3.801   7.831   1.500  1.1605 -0.2661  0.4503
  550MOL0     C72484   3.797   7.951   1.407 -0.3516  0.1551  0.1317
  550MOL0     N72485   3.788   7.888   1.266  0.4665 -0.7195 -0.7898
  550MOL0     C72486   3.683   7.812   1.231  0.0422  0.1010 -0.5128
  550MOL0     C72487   3.690   7.778   1.103 -0.6799  0.9799  0.4302
  550MOL0     C72488   3.584   7.698   1.027 -0.1321 -0.1842  0.6499
  550MOL0     C72489   3.459   7.786   1.029  1.0941  0.5421 -0.6490
  550MOL0     C72490   3.345   7.734   0.944  0.1139  0.2499 -0.9731
  550MOL0     C72491   3.212   7.742   1.018  0.1056  0.7452  0.7155
  550MOL0     O72492   3.127   7.657   0.947  1.4400 -0.2148  0.8446
  550MOL0     C72493   2.994   7.701   0.921 -0.1956 -0.0730 -0.9338
  550MOL0     C72494   2.946   7.678   0.793  0.4508 -0.2896  0.0394
  550MOL0     C72495   2.817   7.725   0.749  0.3352 -0.4869 -0.6891
  550MOL0     C72496   2.737   7.795   0.838  0.7464  0.5581  0.5786
  550MOL0     C72497   2.593   7.838   0.802 -1.0753 -0.5690  0.6283
  550MOL0     O72498   2.533   7.762   0.710  0.2893 -0.1812 -0.0801
  550MOL0     C72499   2.404   7.795   0.690  1.3975 -0.5515 -0.2167
  550MOL0     C72500   2.363   7.857   0.568  0.4798 -0.2178  0.0183
  550MOL0     C72501   2.225   7.870   0.538 -0.1234 -0.2163  0.5298
  550MOL0     C72502   2.129   7.834   0.632 -0.2111  0.2188  0.5926
  550MOL0     O72503   1.990   7.852   0.618 -0.0562  0.2641 -0.6969
  550MOL0     C72504   1.964   7.901   0.482  1.0071 -0.6658  0.3475
  550MOL0     C72505   1.814   7.902   0.471  0.2924 -0.5999  0.4952
  550MOL0     C72506   1.760   8.034   0.456 -1.0754  0.4440 -0.9264
  550MOL0     C72507   1.799   8.096   0.318 -0.1161  0.2478 -0.8194
  550MOL0     C72508   1.792   8.240   0.317  0.5077 -0.8798 -0.0004
  550MOL0     C72509   1.651   8.278   0.284  0.4200 -0.0282 -0.5246
  550MOL0     C72510   1.613   8.420   0.326  0.3634  0.9281 -0.2998
  550MOL0     C72511   1.477   8.471   0.287  0.2899 -0.0719  0.1919
  550MOL0    Cl72512   1.450   8.618   0.382  0.2802 -0.0703 -0.4277
  550MOL0     C72513   2.171   7.781   0.760  0.2926 -0.0746 -0.4290
  550MOL0     C72514   2.307   7.756   0.791  0.3859  0.6275  0.0464
  550MOL0     O72515   2.542   7.927   0.861 -0.2835 -0.7759 -0.9502
  550MOL0     C72516   2.796   7.829   0.960 -0.0985  0.5291  0.2976
  550MOL0     C72517   2.924   7.784   1.002  0.2887 -0.2560  0.1857
  550MOL0     N72518   3.812   7.831   1.057  0.2746 -0.3883 -0.0976
  550MOL0     N72519   3.863   7.899   1.157 -0.7460 -0.8277  0.4661
  550MOL0     C72520   3.391   7.399   1.990  0.0782  0.5252  0.5172
  550MOL0     C72521   3.255   7.417   1.998 -0.5065  0.5262 -0.0318
  550MOL0     C72522   2.819   7.536   1.846  0.2094 -0.6582  0.2750
  550MOL0     C72523   2.689   7.511   1.793  0.0934  0.1698 -0.0433
  550MOL0     C72524   2.571   7.577   1.833 -0.0312 -0.6674 -0.2752
  550MOL0     C72525   2.582   7.686   1.928 -0.1405 -1.0045  0.4947
  550MOL0     O72526   2.479   7.764   1.974  0.1821 -0.0238  0.0149
  550MOL0     C72527   2.361   7.699   2.021 -0.3691 -0.2891 -0.5731
  550MOL0     C72528   2.249   7.798   2.059 -0.7280  0.0357 -0.0027
  550MOL0     C72529   2.129   7.725   2.102  0.2693  1.5048 -0.1537
  550MOL0     C72530   2.016   7.801   2.161  0.3970 -1.1630 -0.7391
  550MOL0     C72531   2.063   7.902   2.262 -0.3456  0.9127 -0.0608
  550MOL0     C72532   2.107   7.989   2.327  0.8868 -0.3503 -0.9292
  550MOL0     C72533   2.712   7.720   1.974 -0.2282 -0.2607  0.6773
  550MOL0     C72534   2.825   7.644   1.936  0.4306  0.1235 -0.2653
  550MOL0     H72535   3.198   7.549   1.683 -0.5542 -0.7195 -0.4514
  550MOL0     H72536   3.421   7.536   1.669 -3.0431 -1.0958 -0.9455
  550MOL0     H72537   3.634   7.445   1.679 -2.3398  0.3595  0.3738
  550MOL0     H72538   3.650   7.280   1.718  2.7947 -0.7640 -1.0825
  550MOL0     H72539   3.867   7.360   1.701 -0.3729 -5.1235  0.8203
  550MOL0     H72540   3.834   7.333   1.875 -0.0933  1.6538  0.4547
  550MOL0     H72541   3.949   7.542   1.850  0.1345  4.3045 -0.6302
  550MOL0     H72542   3.788   7.573   1.915  1.3607 -0.6632  0.0965
  550MOL0     H72543   3.870   7.599   1.613  2.7212 -0.1529  0.9897
  550MOL0     H72544   3.712   7.634   1.693 -0.3419  0.6471 -0.1192
  550MOL0     H72545   3.967   7.762   1.791 -0.8737 -0.3358  0.4635
  550MOL0     H72546   3.798   7.807   1.810 -0.7135 -2.2546  0.4118
  550MOL0     H72547   3.999   7.834   1.605 -0.0715  3.5676  0.9580
  550MOL0     H72548   3.892   7.964   1.652  0.4187 -0.7391 -0.3270
  550MOL0     H72549   3.842   7.750   1.439  0.9975 -0.0078 -0.0048
  550MOL0     H72550   3.699   7.799   1.525  0.8479  2.1539  2.8468
  550MOL0     H72551   3.881   8.019   1.418 -0.2947  0.2022 -0.5467
  550MOL0     H72552   3.711   8.016   1.423  0.1587  2.1705 -3.9228
  550MOL0     H72553   3.603   7.791   1.301  0.2384 -1.2005 -0.6563
  550MOL0     H72554   3.578   7.593   1.058  0.1851  0.2060  2.1097
  550MOL0     H72555   3.621   7.696   0.924 -0.9152 -0.0264  0.3554
  550MOL0     H72556   3.461   7.886   0.984 -0.8787  1.1890  0.5787
  550MOL0     H72557   3.425   7.798   1.132 -1.7838 -0.8722 -1.3522
  550MOL0     H72558   3.351   7.767   0.840 -1.7641  1.3313 -0.7718
  550MOL0     H72559   3.356   7.626   0.942 -2.9801 -0.1378 -1.5771
  550MOL0     H72560   3.182   7.847   1.028 -3.1382  0.4137 -3.1304
  550MOL0     H72561   3.204   7.691   1.114 -0.0805 -0.7710 -0.0768
  550MOL0     H72562   3.011   7.612   0.736 -0.0026  0.2381 -1.1239
  550MOL0     H72563   2.780   7.699   0.650  0.0779 -0.1377 -0.6843
  550MOL0     H72564   2.441   7.883   0.497  2.8473 -3.3220  1.2582
  550MOL0     H72565   2.200   7.893   0.435  0.5909 -1.9553 -0.0764
  550MOL0     H72566   2.006   7.843   0.400  3.0968  3.5211 -1.8294
  550MOL0     H72567   1.997   8.004   0.467 -0.5697 -0.2021 -0.0843
  550MOL0     H72568   1.763   7.856   0.557 -2.3148 -3.0116 -2.1111
  550MOL0     H72569   1.772   7.836   0.395 -2.1883 -1.1809  2.2313
  550MOL0     H72570   1.790   8.093   0.543  1.3956 -1.1532 -0.5964
  550MOL0     H72571   1.653   8.024   0.477 -0.2492 -3.1102  2.8930
  550MOL0     H72572   1.902   8.075   0.287  0.9415 -0.5437  2.7269
  550MOL0     H72573   1.721   8.052   0.256 -1.0708 -1.6960  1.5847
  550MOL0     H72574   1.855   8.281   0.238  0.4159 -1.3985 -0.3498
  550MOL0     H72575   1.808   8.290   0.413 -1.4078 -0.4426  0.1389
  550MOL0     H72576   1.575   8.226   0.342  1.8289 -0.8071  0.7026
  550MOL0     H72577   1.641   8.254   0.177  2.1694 -2.2478 -0.2804
  550MOL0     H72578   1.606   8.418   0.435  0.9756  0.8587 -0.2609
  550MOL0     H72579   1.674   8.500   0.283 -2.2473  1.8132 -2.6932
  550MOL0     H72580   1.409   8.387   0.304 -0.2452  0.2684 -0.2334
  550MOL0     H72581   1.458   8.491   0.181 -1.3945  1.4549  0.7321
  550MOL0     H72582   2.099   7.738   0.828 -0.0060  0.4686 -0.4014
  550MOL0     H72583   2.335   7.723   0.890 -0.1303  2.2942  0.7803
  550MOL0     H72584   2.735   7.893   1.022 -0.6046  1.4376 -1.0893
  550MOL0     H72585   2.970   7.810   1.097  2.3820 -4.8649  0.7009
  550MOL0     H72586   3.458   7.360   2.067  0.0802  1.0338  0.7790
  550MOL0     H72587   3.209   7.370   2.085 -1.5331  2.2597  0.3988
  550MOL0     H72588   2.677   7.415   1.742  2.7862 -1.1487  1.5957
  550MOL0     H72589   2.475   7.545   1.795 -1.0825  0.9814  0.8304
  550MOL0     H72590   2.398   7.651   2.113  0.9761  0.9637 -0.4143
  550MOL0     H72591   2.318   7.622   1.956 -1.5720 -0.0237 -0.1105
  550MOL0     H72592   2.289   7.870   2.131  0.7810 -1.6584  0.9201
  550MOL0     H72593   2.220   7.863   1.976 -2.4143 -1.1232 -0.3918
  550MOL0     H72594   2.164   7.666   2.187 -2.2703  1.3036  0.8613
  550MOL0     H72595   2.089   7.654   2.029 -0.5498  1.0948  0.6703
  550MOL0     H72596   1.954   7.860   2.093 -0.6890 -0.2736  0.9522
  550MOL0     H72597   1.963   7.722   2.215  2.6285 -1.5269  1.0624
  550MOL0     H72598   2.152   8.070   2.381  2.3146 -0.2172 -2.2684
  550MOL0     H72599   2.737   7.805   2.036  3.2340 -1.4853  1.1802
  550MOL0     H72600   2.922   7.681   1.968  1.2331  1.7395 -3.9983
  551MOL0     O72601   8.139   0.515   6.386  0.1066  0.7517  0.0384
  551MOL0     C72602   8.179   0.426   6.465 -0.5994  0.0970  0.5885
  551MOL0     O72603   8.141   0.294   6.463 -0.1040 -0.4282 -0.1265
  551MOL0     C72604   8.042   0.262   6.378 -0.5609  0.6217  0.0424
  551MOL0     C72605   8.068   0.191   6.256 -0.3379  0.2966 -0.0704
  551MOL0     C72606   7.957   0.144   6.179  0.1381  1.3207  0.1006
  551MOL0     C72607   7.829   0.198   6.208  0.1608 -0.5958  1.0800
  551MOL0     O72608   7.722   0.183   6.123  0.4190  0.1551 -0.0077
  551MOL0     C72609   7.684   0.294   6.042  0.3335  0.6971 -0.2369
  551MOL0     C72610   7.741   0.260   5.902  0.3018 -0.5903 -0.0242
  551MOL0     C72611   7.732   0.374   5.795 -0.1993  0.1560  0.4124
  551MOL0     C72612   7.601   0.430   5.747 -0.2779  0.4804 -0.3094
  551MOL0     C72613   7.496   0.325   5.731 -0.1861 -0.4342  0.4817
  551MOL0     C72614   7.529   0.232   5.615 -0.5440 -0.2439 -0.0315
  551MOL0     C72615   7.541   0.278   5.465  0.5221 -0.1039 -0.0149
  551MOL0     C72616   7.400   0.304   5.412  0.8306  0.0078 -0.3056
  551MOL0     N72617   7.395   0.427   5.333  0.4863 -0.4028  0.3053
  551MOL0     C72618   7.400   0.552   5.385 -0.5348  0.8976 -0.4927
  551MOL0     C72619   7.396   0.627   5.272  0.0334 -0.8970  0.0135
  551MOL0     C72620   7.430   0.779   5.254 -0.3779 -0.4466 -0.1230
  551MOL0     C72621   7.310   0.873   5.257 -0.1136 -0.2162  0.2679
  551MOL0     C72622   7.235   0.886   5.393 -1.2852  0.5067 -0.5823
  551MOL0     C72623   7.107   0.967   5.382  0.9316  0.3303  0.7806
  551MOL0     O72624   7.144   1.104   5.360 -0.2440 -0.4374  0.2098
  551MOL0     C72625   7.044   1.196   5.394  0.1147 -0.2760 -0.1687
  551MOL0     C72626   7.009   1.217   5.527 -0.3201 -0.6951 -0.0562
  551MOL0     C72627   6.925   1.317   5.559  0.6646 -0.1854  0.6169
  551MOL0     C72628   6.867   1.403   5.457 -0.3048  0.0353  0.1978
  551MOL0     C72629   6.789   1.519   5.499 -0.8192 -0.0672 -0.0268
  551MOL0     O72630   6.733   1.508   5.619  0.5389  0.9127  0.7074
  551MOL0     C72631   6.625   1.585   5.651 -0.2366  0.7974 -0.2686
  551MOL0     C72632   6.641   1.645   5.773  0.2841  0.7953 -0.8297
  551MOL0     C72633   6.521   1.680   5.842 -0.4635  0.0331  0.5621
  551MOL0     C72634   6.400   1.673   5.776 -0.4839 -0.1547 -0.0648
  551MOL0     O72635   6.293   1.725   5.840  0.5059  0.4297 -0.7162
  551MOL0     C72636   6.185   1.632   5.869 -0.3704 -0.0870  1.0740
  551MOL0     C72637   6.074   1.713   5.939 -0.7155  0.0461  0.6454
  551MOL0     C72638   5.948   1.636   5.968 -0.7973 -0.1826  0.4183
  551MOL0     C72639   5.948   1.552   6.100 -0.5719  0.4522  0.6248
  551MOL0     C72640   5.808   1.517   6.149  0.3823 -0.0151 -0.6672
  551MOL0     C72641   5.807   1.439   6.278 -0.0336  0.9876 -0.5760
  551MOL0     C72642   5.685   1.351   6.297 -0.8104  0.9289 -0.6888
  551MOL0     C72643   5.665   1.294   6.436  0.4408  0.2513 -0.2076
  551MOL0    Cl72644   5.793   1.312   6.547  0.6058  0.1874 -0.0667
  551MOL0     C72645   6.390   1.612   5.649  0.2950  1.2655 -0.0221
  551MOL0     C72646   6.501   1.560   5.586  1.0370  0.0337 -0.4658
  551MOL0     O72647   6.790   1.621   5.424  0.5343  0.2315 -0.5931
  551MOL0     C72648   6.894   1.378   5.324 -0.9935  0.3140 -0.2309
  551MOL0     C72649   6.990   1.273   5.291 -0.1643 -0.6567 -0.0900
  551MOL0     N72650   7.391   0.547   5.165  0.1269  0.0391  0.1314
  551MOL0     N72651   7.402   0.425   5.196 -0.9826  0.3577  0.1131
  551MOL0     C72652   7.813   0.273   6.320  0.6046  0.6215  0.4593
  551MOL0     C72653   7.915   0.305   6.408  0.5434 -0.2350  0.1078
  551MOL0     C72654   8.271   0.466   6.569  0.8502 -0.8481  0.0722
  551MOL0     C72655   8.354   0.375   6.639  1.1028  0.2841  1.6397
  551MOL0     C72656   8.430   0.422   6.741 -0.4188  1.1090 -0.5961
  551MOL0     C72657   8.459   0.546   6.770 -0.2728 -0.0265  0.4880
  551MOL0     O72658   8.566   0.595   6.846  0.3348  0.4626 -0.3872
  551MOL0     C72659   8.640   0.496   6.927 -0.0169  0.1609 -0.3052
  551MOL0     C72660   8.750   0.569   6.999 -0.1824 -0.1109 -0.1538
  551MOL0     C72661   8.858   0.640   6.911 -0.4313 -0.4168 -0.4666
  551MOL0     C72662   8.993   0.640   6.983 -0.6510  0.4223  0.1819
  551MOL0     C72663   8.996   0.724   7.100 -0.5193 -0.3675  0.2578
  551MOL0     C72664   9.003   0.788   7.201 -0.1771  0.4275 -0.0477
  551MOL0     C72665   8.386   0.638   6.688 -0.4398 -0.7593 -0.0698
  551MOL0     C72666   8.288   0.599   6.601 -0.0798  0.6885 -0.1054
  551MOL0     H72667   8.174   0.174   6.240 -0.1669  0.9921  0.2621
  551MOL0     H72668   7.972   0.066   6.106  1.3252  4.1949 -2.9592
  551MOL0     H72669   7.722   0.385   6.089 -0.6397 -0.7906  3.8686
  551MOL0     H72670   7.575   0.299   6.037  0.2319 -0.8583 -0.1572
  551MOL0     H72671   7.689   0.172   5.863  0.7242 -0.5673 -0.6495
  551MOL0     H72672   7.846   0.230   5.903  0.9603  1.3110 -2.3174
  551MOL0     H72673   7.791   0.334   5.712  0.9872  0.9603  0.8407
  551MOL0     H72674   7.775   0.463   5.843 -1.8962  0.5038  1.3517
  551MOL0     H72675   7.561   0.495   5.825 -2.8488 -1.5885  0.2328
  551MOL0     H72676   7.621   0.475   5.649  2.6203  0.0407 -0.0263
  551MOL0     H72677   7.408   0.382   5.698  1.0121  1.3222  0.2180
  551MOL0     H72678   7.480   0.269   5.824 -0.9784 -3.0859 -1.1348
  551MOL0     H72679   7.460   0.148   5.628 -2.5260  1.3445  0.1747
  551MOL0     H72680   7.630   0.192   5.629  0.3895  1.7213 -0.7869
  551MOL0     H72681   7.610   0.355   5.431 -0.0351 -0.0137 -0.9720
  551MOL0     H72682   7.581   0.190   5.414  1.9262 -0.3151  1.3712
  551MOL0     H72683   7.332   0.321   5.496 -0.2247 -0.2628 -1.0717
  551MOL0     H72684   7.358   0.219   5.356 -2.4078  0.1813  1.6132
  551MOL0     H72685   7.415   0.575   5.490 -3.1243 -1.9104  0.6451
  551MOL0     H72686   7.483   0.783   5.158  1.4052 -0.2512  0.8415
  551MOL0     H72687   7.495   0.811   5.335  0.9524  0.0052 -1.3256
  551MOL0     H72688   7.238   0.835   5.184 -0.7528  0.5720  0.4637
  551MOL0     H72689   7.356   0.971   5.240 -1.1229 -0.1795 -3.0843
  551MOL0     H72690   7.210   0.785   5.426  0.3174  0.2681 -0.0183
  551MOL0     H72691   7.291   0.940   5.470 -1.1183  0.1410 -0.4472
  551MOL0     H72692   7.031   0.960   5.459 -2.5460  1.7178 -2.2418
  551MOL0     H72693   7.041   0.942   5.298  0.6710 -0.8991  1.3337
  551MOL0     H72694   7.065   1.156   5.597  0.0653  0.3115  0.5333
  551MOL0     H72695   6.913   1.358   5.659 -1.8337  0.8540 -0.0229
  551MOL0     H72696   6.740   1.647   5.818  1.1606  0.0073 -2.5907
  551MOL0     H72697   6.524   1.714   5.945  0.2418 -0.8484  0.8443
  551MOL0     H72698   6.218   1.541   5.920  3.5866  0.5526  0.0359
  551MOL0     H72699   6.140   1.590   5.779  1.0379  2.4422 -0.9641
  551MOL0     H72700   6.041   1.803   5.885  2.7369  1.4887  0.6563
  551MOL0     H72701   6.122   1.761   6.025  0.8195  2.6161 -1.4665
  551MOL0     H72702   5.914   1.581   5.880 -1.6356  3.0808 -1.4661
  551MOL0     H72703   5.876   1.718   5.970 -0.7264 -0.0452 -1.2897
  551MOL0     H72704   6.001   1.457   6.092 -0.7412  0.5297 -2.2757
  551MOL0     H72705   6.001   1.618   6.169 -1.0997  4.4910 -2.4372
  551MOL0     H72706   5.751   1.469   6.069 -1.9545  1.6747 -0.1445
  551MOL0     H72707   5.761   1.616   6.153  0.8301  0.1976 -0.5531
  551MOL0     H72708   5.825   1.500   6.367 -2.0769 -2.0806  2.2063
  551MOL0     H72709   5.893   1.372   6.271  0.6006  1.1967  3.1464
  551MOL0     H72710   5.597   1.408   6.263 -0.1490  2.8894  0.7361
  551MOL0     H72711   5.686   1.265   6.230 -0.1739  1.1972 -1.0330
  551MOL0     H72712   5.647   1.186   6.435 -0.6249  0.4193 -1.4246
  551MOL0     H72713   5.574   1.318   6.492  1.4501  1.3325  1.0457
  551MOL0     H72714   6.287   1.602   5.616  0.1530 -1.9160  1.0260
  551MOL0     H72715   6.488   1.497   5.499  2.3299  0.8005 -1.2656
  551MOL0     H72716   6.868   1.466   5.266 -2.9182  0.9198  1.4145
  551MOL0     H72717   7.022   1.245   5.191 -1.6210 -1.8009 -0.2629
  551MOL0     H72718   7.716   0.319   6.334  1.2778  2.3964 -0.4863
  551MOL0     H72719   7.888   0.384   6.477 -0.2431  2.0439 -2.6062
  551MOL0     H72720   8.347   0.268   6.623  1.1962  0.8112 -3.7275
  551MOL0     H72721   8.484   0.357   6.808  0.4534  1.0647 -1.3170
  551MOL0     H72722   8.693   0.425   6.863  0.6227  2.1682 -2.1408
  551MOL0     H72723   8.565   0.448   6.991  0.6930  0.3306  0.6856
  551MOL0     H72724   8.711   0.650   7.061 -1.6543  0.6628 -2.0079
  551MOL0     H72725   8.806   0.494   7.055  1.1567 -0.9905 -2.4971
  551MOL0     H72726   8.827   0.742   6.889 -0.7771  0.0812  2.0091
  551MOL0     H72727   8.867   0.577   6.822  3.1656  2.7365 -2.5844
  551MOL0     H72728   9.032   0.541   7.007  1.9796  1.1115 -0.9382
  551MOL0     H72729   9.070   0.671   6.912  3.6319 -2.5962  3.0417
  551MOL0     H72730   8.999   0.850   7.288  0.9035  0.1976  0.1808
  551MOL0     H72731   8.415   0.739   6.715  3.2229 -1.5500 -0.5306
  551MOL0     H72732   8.218   0.672   6.561 -0.0447  0.4499 -0.6091
  552MOL0     O72733   5.885   4.927   9.925  0.5623  1.1448  1.1197
  552MOL0     C72734   5.779   4.893   9.977  0.8359  0.4719  0.3636
  552MOL0     O72735   5.659   4.875   9.914 -0.1612  0.4046  0.5883
  552MOL0     C72736   5.669   4.866   9.773 -0.1504 -0.3095  1.2201
  552MOL0     C72737   5.704   4.752   9.707  0.3665  0.5917 -0.0293
  552MOL0     C72738   5.696   4.748   9.569  0.5379  0.0726 -0.2012
  552MOL0     C72739   5.657   4.849   9.489  0.2184  0.2503 -0.0323
  552MOL0     O72740   5.634   4.843   9.356  0.1721  0.4913  0.0613
  552MOL0     C72741   5.563   4.728   9.303  0.2425 -0.0161 -0.0671
  552MOL0     C72742   5.564   4.715   9.153 -0.1352 -0.2655 -0.2825
  552MOL0     C72743   5.687   4.666   9.075  0.4921 -1.5761 -0.9941
  552MOL0     C72744   5.718   4.516   9.107  0.0297 -0.1228  0.2161
  552MOL0     C72745   5.842   4.471   9.027  0.0651 -0.2736  0.6866
  552MOL0     C72746   5.804   4.456   8.875  0.0785  0.2587  0.6910
  552MOL0     C72747   5.866   4.323   8.809  0.5854 -0.6177 -0.3867
  552MOL0     C72748   6.015   4.332   8.791 -0.2788 -0.3540 -0.3767
  552MOL0     N72749   6.056   4.232   8.696 -0.2610  0.5366 -1.1289
  552MOL0     C72750   6.160   4.250   8.612 -0.3932  0.4518 -0.4139
  552MOL0     C72751   6.180   4.133   8.537 -1.2103 -0.1218  1.2635
  552MOL0     C72752   6.281   4.123   8.418 -0.1466  0.1445  0.4632
  552MOL0     C72753   6.210   4.194   8.298 -1.0555  0.2243 -0.3738
  552MOL0     C72754   6.217   4.099   8.163  0.1164 -0.0852 -0.3530
  552MOL0     C72755   6.134   4.157   8.049  0.4441 -0.6721  0.3376
  552MOL0     O72756   6.203   4.273   8.008 -0.2872  0.9110  0.6071
  552MOL0     C72757   6.218   4.297   7.875  0.2924  0.2584  0.1492
  552MOL0     C72758   6.154   4.228   7.771 -0.9804 -1.0958 -0.6494
  552MOL0     C72759   6.173   4.272   7.638  0.1411 -0.1149  0.1342
  552MOL0     C72760   6.256   4.387   7.600  0.1235  0.3640  0.7046
  552MOL0     C72761   6.287   4.431   7.468 -0.3104 -0.7721  0.8813
  552MOL0     O72762   6.233   4.357   7.366 -0.7844  0.1584  0.9900
  552MOL0     C72763   6.283   4.386   7.238  0.0906 -0.0135  0.0070
  552MOL0     C72764   6.375   4.289   7.185  0.5062  0.0292  0.3647
  552MOL0     C72765   6.427   4.307   7.050  0.0753  0.0980  0.0682
  552MOL0     C72766   6.398   4.427   6.982  0.2152  0.3080 -0.6792
  552MOL0     O72767   6.448   4.427   6.860  0.7192 -0.4039  0.8722
  552MOL0     C72768   6.405   4.517   6.757  0.1676 -0.5204 -0.1807
  552MOL0     C72769   6.490   4.508   6.630 -1.0214  0.1133  0.5606
  552MOL0     C72770   6.470   4.370   6.561  0.6874  0.1127 -1.1504
  552MOL0     C72771   6.561   4.341   6.441 -0.1586  0.6168 -1.6246
  552MOL0     C72772   6.706   4.400   6.452  0.2516 -0.6337 -0.0358
  552MOL0     C72773   6.781   4.339   6.328 -0.2807  0.7349  0.6307
  552MOL0     C72774   6.913   4.405   6.317 -0.2393  0.2746 -0.2011
  552MOL0     C72775   7.000   4.375   6.439 -0.1570  0.6821 -1.3196
  552MOL0    Cl72776   7.174   4.397   6.391  0.0033 -0.3524 -0.3736
  552MOL0     C72777   6.312   4.521   7.035 -0.3507  0.8229 -0.0216
  552MOL0     C72778   6.257   4.502   7.158 -0.4321  0.5712  0.3141
  552MOL0     O72779   6.352   4.537   7.455  0.2059 -1.2411  0.2374
  552MOL0     C72780   6.307   4.455   7.713 -0.1857  0.0929 -0.1100
  552MOL0     C72781   6.304   4.404   7.839  0.3052  0.2286  0.3633
  552MOL0     N72782   6.077   4.055   8.572  0.1962  0.6822  0.4966
  552MOL0     N72783   6.011   4.111   8.673  0.0858  0.2823 -0.1327
  552MOL0     C72784   5.629   4.962   9.552  1.1148 -0.1970 -0.8195
  552MOL0     C72785   5.638   4.972   9.697  0.2777 -0.4182 -0.0696
  552MOL0     C72786   5.777   4.901  10.119 -0.3034  0.8584  1.1425
  552MOL0     C72787   5.659   4.907  10.190  0.3531  0.4161 -0.8774
  552MOL0     C72788   5.670   4.899  10.331  0.1483 -0.6914 -0.1840
  552MOL0     C72789   5.794   4.908  10.395  0.0789 -0.1133  0.4987
  552MOL0     O72790   5.784   4.908  10.527 -0.2075 -0.5512 -0.2157
  552MOL0     C72791   5.894   4.935  10.616  0.1761 -0.3518  0.5251
  552MOL0     C72792   5.847   4.937  10.759 -0.1489 -0.5334  0.6708
  552MOL0     C72793   5.765   4.823  10.822 -0.5814  0.2969  1.2042
  552MOL0     C72794   5.622   4.860  10.820  0.8784  0.8360 -0.4772
  552MOL0     C72795   5.522   4.738  10.829 -0.9316 -0.4001 -0.2179
  552MOL0     C72796   5.448   4.638  10.834 -0.1397 -0.2546 -0.8576
  552MOL0     C72797   5.910   4.911  10.318 -0.2472 -0.1074 -0.4052
  552MOL0     C72798   5.900   4.900  10.180  0.4112  0.0525 -0.9643
  552MOL0     H72799   5.734   4.664   9.762  0.5187  0.8931  0.3808
  552MOL0     H72800   5.722   4.650   9.531 -2.4137 -0.5389 -0.8547
  552MOL0     H72801   5.459   4.739   9.336  1.5713  1.7192  4.3238
  552MOL0     H72802   5.591   4.636   9.355  1.0207  0.2042 -0.0813
  552MOL0     H72803   5.530   4.808   9.107 -1.1824 -1.4081 -1.9383
  552MOL0     H72804   5.491   4.639   9.124  0.4924 -1.9801  2.2541
  552MOL0     H72805   5.756   4.735   9.125 -4.0618  2.0490  1.0710
  552MOL0     H72806   5.688   4.690   8.968  3.8051 -1.8403 -1.1530
  552MOL0     H72807   5.744   4.505   9.212  1.8913  0.5091 -0.1353
  552MOL0     H72808   5.645   4.437   9.094  0.8074 -1.0676  1.3823
  552MOL0     H72809   5.875   4.381   9.079 -1.7942  0.2253  2.8837
  552MOL0     H72810   5.922   4.542   9.047  0.6762 -1.2962  2.0309
  552MOL0     H72811   5.827   4.544   8.815  1.3907 -1.2881 -1.2205
  552MOL0     H72812   5.697   4.444   8.862 -0.1929  0.4623  2.4359
  552MOL0     H72813   5.833   4.237   8.868 -3.4408  1.4134  0.6414
  552MOL0     H72814   5.822   4.299   8.712  0.4962 -0.5301 -0.3689
  552MOL0     H72815   6.066   4.329   8.888 -3.1255  0.4642  1.2596
  552MOL0     H72816   6.032   4.425   8.736 -2.0668  0.5633  0.5309
  552MOL0     H72817   6.213   4.344   8.598 -2.7240  2.4586  2.8084
  552MOL0     H72818   6.310   4.023   8.386 -0.3746  1.3632 -4.4483
  552MOL0     H72819   6.373   4.177   8.440 -0.5043  0.9998 -0.0890
  552MOL0     H72820   6.265   4.288   8.285  0.5771 -0.5747  0.4367
  552MOL0     H72821   6.102   4.206   8.312 -0.9058 -0.6300  2.0774
  552MOL0     H72822   6.324   4.101   8.137 -0.4572 -0.2521 -3.0137
  552MOL0     H72823   6.183   3.995   8.171 -0.2125  0.0509  0.0419
  552MOL0     H72824   6.034   4.187   8.082  0.0084 -0.6037 -1.0033
  552MOL0     H72825   6.127   4.077   7.975  0.5591 -1.0599  0.7354
  552MOL0     H72826   6.091   4.142   7.793 -0.8100 -0.6873  1.6464
  552MOL0     H72827   6.116   4.218   7.563  1.9397  1.0184 -2.1847
  552MOL0     H72828   6.397   4.200   7.243 -1.4239  0.1419  1.3773
  552MOL0     H72829   6.487   4.230   7.003  1.1257  0.1518  1.2665
  552MOL0     H72830   6.427   4.617   6.797 -4.0868  0.0333  1.2293
  552MOL0     H72831   6.298   4.521   6.737  0.0869 -1.0866  0.1352
  552MOL0     H72832   6.594   4.526   6.658 -0.0522  2.8113 -3.8170
  552MOL0     H72833   6.452   4.585   6.561 -0.4832  0.4693  0.6559
  552MOL0     H72834   6.362   4.366   6.542  0.4997 -1.2412 -0.0054
  552MOL0     H72835   6.487   4.293   6.637  0.6291 -0.2314 -1.4846
  552MOL0     H72836   6.565   4.233   6.424  2.5796  0.7371 -2.0846
  552MOL0     H72837   6.515   4.395   6.358 -1.8882  2.3611  0.3701
  552MOL0     H72838   6.736   4.369   6.553 -0.4377 -1.5032 -0.0931
  552MOL0     H72839   6.718   4.509   6.450 -2.2214 -0.3194 -0.2718
  552MOL0     H72840   6.723   4.349   6.236  0.8766  0.3240 -0.1676
  552MOL0     H72841   6.799   4.232   6.339 -3.1125  0.3135  2.0913
  552MOL0     H72842   6.968   4.354   6.238 -1.2648  0.8595 -1.3342
  552MOL0     H72843   6.891   4.511   6.299 -1.4615 -0.3814 -3.2784
  552MOL0     H72844   6.980   4.275   6.479  2.4190 -0.8101 -3.4303
  552MOL0     H72845   6.979   4.443   6.521 -3.7909 -0.7320 -0.9168
  552MOL0     H72846   6.275   4.609   6.982 -0.5428  0.0274 -1.2433
  552MOL0     H72847   6.190   4.581   7.193 -1.6118 -0.1313 -0.3214
  552MOL0     H72848   6.344   4.556   7.697 -0.7161  0.2103 -0.6518
  552MOL0     H72849   6.368   4.438   7.921  3.0935 -1.7127 -0.8516
  552MOL0     H72850   5.617   5.055   9.497 -1.8684 -1.2122 -2.1102
  552MOL0     H72851   5.612   5.064   9.750 -0.9521 -2.3258  2.9089
  552MOL0     H72852   5.559   4.907  10.147 -0.6835 -0.0630  1.3809
  552MOL0     H72853   5.582   4.908  10.395  0.3834 -0.5252  0.1167
  552MOL0     H72854   5.934   5.034  10.592 -0.6739 -0.0863  0.1984
  552MOL0     H72855   5.975   4.861  10.605 -0.1813 -0.8265  1.0416
  552MOL0     H72856   5.934   4.959  10.822  3.2028  1.2644 -4.0124
  552MOL0     H72857   5.785   5.027  10.769  0.8340  0.4669 -1.5440
  552MOL0     H72858   5.801   4.812  10.925  1.8965 -0.5769  0.3296
  552MOL0     H72859   5.790   4.729  10.771 -1.9215  0.1941  0.7134
  552MOL0     H72860   5.605   4.929  10.903  2.5507  1.4392 -0.5991
  552MOL0     H72861   5.588   4.897  10.723  2.5402 -2.3035 -2.4385
  552MOL0     H72862   5.370   4.566  10.837 -2.0776  1.6721 -2.1482
  552MOL0     H72863   6.004   4.914  10.371 -0.4229 -0.8671 -0.0299
  552MOL0     H72864   5.987   4.885  10.117 -0.7938 -0.4312 -2.5710
  553MOL0     O72865  10.629   2.496   6.717 -0.5574  0.3706  0.2684
  553MOL0     C72866  10.671   2.531   6.828  0.6511  0.1933 -0.7245
  553MOL0     O72867  10.692   2.663   6.870  0.9345 -0.3821 -0.1317
  553MOL0     C72868  10.646   2.760   6.784 -0.2965 -0.0038  0.3691
  553MOL0     C72869  10.747   2.826   6.716  0.4420 -0.8514 -0.5115
  553MOL0     C72870  10.711   2.934   6.637  0.2053  0.5925  0.1410
  553MOL0     C72871  10.580   2.962   6.594 -0.2860  0.9865 -0.7543
  553MOL0     O72872  10.566   3.070   6.514 -0.2249 -0.2326  1.1645
  553MOL0     C72873  10.450   3.157   6.516  0.0310 -0.1152  0.7738
  553MOL0     C72874  10.480   3.282   6.442  0.3551 -0.2651  0.9577
  553MOL0     C72875  10.360   3.357   6.415  0.6133 -0.1012 -0.0385
  553MOL0     C72876  10.275   3.285   6.311 -0.2638 -1.5582 -0.1536
  553MOL0     C72877  10.145   3.220   6.366  0.5017  0.0274 -1.0352
  553MOL0     C72878  10.082   3.130   6.257 -0.0754  0.5933  0.6724
  553MOL0     C72879   9.958   3.060   6.298 -0.6270 -0.4615 -0.2923
  553MOL0     C72880   9.903   2.972   6.181 -0.4978 -0.2565  1.5245
  553MOL0     N72881   9.819   2.874   6.238  0.2396  0.6125 -0.1492
  553MOL0     C72882   9.689   2.898   6.286 -0.1408 -0.3481  0.1318
  553MOL0     C72883   9.648   2.781   6.344 -0.6944  0.6639 -0.0482
  553MOL0     C72884   9.518   2.761   6.423  0.4331  0.0828 -1.1344
  553MOL0     C72885   9.530   2.752   6.571  0.3854  0.2665 -0.2506
  553MOL0     C72886   9.396   2.793   6.639 -0.0775 -0.3848 -1.3647
  553MOL0     C72887   9.431   2.790   6.784  1.6186  0.9021  0.3580
  553MOL0     O72888   9.341   2.880   6.843  0.0313 -0.1009 -0.4061
  553MOL0     C72889   9.362   2.902   6.976 -0.9910  0.2098  0.1070
  553MOL0     C72890   9.266   2.971   7.049  0.6506 -0.2865 -0.4739
  553MOL0     C72891   9.271   3.000   7.184 -1.0897  0.1070 -0.0161
  553MOL0     C72892   9.378   2.963   7.261 -0.0439  0.2854 -0.3051
  553MOL0     C72893   9.384   2.993   7.406  0.4538  0.5448  0.1012
  553MOL0     O72894   9.514   3.006   7.453 -0.2106  0.3992  0.6081
  553MOL0     C72895   9.537   3.055   7.574  0.0016 -0.0210  0.8207
  553MOL0     C72896   9.521   3.187   7.584  0.1533  0.0615  0.6147
  553MOL0     C72897   9.543   3.237   7.718 -0.2507 -1.1251 -0.4830
  553MOL0     C72898   9.577   3.161   7.827 -0.9930 -0.4074  0.1697
  553MOL0     O72899   9.590   3.227   7.940 -0.1221 -0.0161  0.5584
  553MOL0     C72900   9.634   3.169   8.056  0.5991 -0.3819  0.3363
  553MOL0     C72901   9.607   3.275   8.175  0.0133 -0.3037  0.4155
  553MOL0     C72902   9.727   3.363   8.205 -0.3998 -0.7488 -0.3861
  553MOL0     C72903   9.755   3.479   8.111 -1.8488  0.8033  0.5331
  553MOL0     C72904   9.644   3.568   8.063 -0.6813  0.3023  0.2822
  553MOL0     C72905   9.568   3.627   8.193 -0.4123 -0.5383  0.1597
  553MOL0     C72906   9.507   3.758   8.164 -0.2724  0.6693 -1.5112
  553MOL0     C72907   9.406   3.760   8.055  0.1112  0.0005  0.4450
  553MOL0    Cl72908   9.242   3.748   8.110  0.2062  0.3142  0.2640
  553MOL0     C72909   9.590   3.024   7.811  0.0225 -0.2025  0.5870
  553MOL0     C72910   9.556   2.974   7.689 -0.0846  0.6482  0.6998
  553MOL0     O72911   9.277   3.011   7.469  0.2181 -0.1850 -0.5466
  553MOL0     C72912   9.483   2.894   7.195 -0.2759 -0.7175 -0.0114
  553MOL0     C72913   9.477   2.864   7.052 -0.4680  0.6792 -0.5455
  553MOL0     N72914   9.749   2.688   6.322  0.1693  0.0897 -0.4150
  553MOL0     N72915   9.844   2.743   6.269 -0.0648  0.3855  0.3795
  553MOL0     C72916  10.479   2.881   6.649 -0.0890  0.4430 -0.3534
  553MOL0     C72917  10.513   2.783   6.748 -0.0187 -0.4748  0.5477
  553MOL0     C72918  10.701   2.426   6.928  0.3395  0.5367  0.2585
  553MOL0     C72919  10.749   2.298   6.891 -0.6275  1.0884 -0.1747
  553MOL0     C72920  10.782   2.192   6.981  0.4311 -0.5685  0.3443
  553MOL0     C72921  10.784   2.229   7.116  0.1450  0.1938 -0.4500
  553MOL0     O72922  10.821   2.136   7.208  0.0235  0.7948  0.3349
  553MOL0     C72923  10.961   2.129   7.229 -0.5206  0.3001  0.9601
  553MOL0     C72924  10.997   2.037   7.346 -0.1042 -0.3392 -0.1041
  553MOL0     C72925  11.146   2.061   7.385  0.1301  0.5786 -0.2541
  553MOL0     C72926  11.195   2.001   7.517 -0.2675 -0.9356  0.4191
  553MOL0     C72927  11.214   1.859   7.516  0.1523  0.2221  0.1592
  553MOL0     C72928  11.222   1.739   7.520 -0.4919 -0.5333 -1.2794
  553MOL0     C72929  10.736   2.357   7.156  0.7745  0.9366  0.0584
  553MOL0     C72930  10.691   2.453   7.061  0.5239 -0.2624 -0.0084
  553MOL0     H72931  10.852   2.817   6.744  0.0018 -1.9520  0.8828
  553MOL0     H72932  10.787   2.993   6.586  1.0894  1.7809  2.7122
  553MOL0     H72933  10.431   3.173   6.623 -0.9629  1.3499  0.4028
  553MOL0     H72934  10.364   3.104   6.475  0.1300  1.2612 -1.3422
  553MOL0     H72935  10.530   3.256   6.348  0.2170  0.9307  0.5409
  553MOL0     H72936  10.549   3.332   6.510 -0.2267  0.0621  1.3224
  553MOL0     H72937  10.410   3.449   6.384 -0.6769  0.6399  0.0277
  553MOL0     H72938  10.295   3.377   6.501 -1.0766  2.3945 -1.7662
  553MOL0     H72939  10.244   3.360   6.238  3.3817 -0.0006 -0.3153
  553MOL0     H72940  10.332   3.214   6.249  1.5144  0.0529 -0.4589
  553MOL0     H72941  10.074   3.299   6.392 -0.5054 -1.1317 -0.1706
  553MOL0     H72942  10.155   3.148   6.448  0.9954  0.7050 -0.4816
  553MOL0     H72943  10.156   3.055   6.228 -0.7581 -1.1748  3.1977
  553MOL0     H72944  10.050   3.190   6.171  2.7816  2.4390  0.7652
  553MOL0     H72945   9.992   2.985   6.370 -0.8017 -0.8014 -0.5589
  553MOL0     H72946   9.885   3.128   6.343  0.0445 -0.1025  0.2821
  553MOL0     H72947   9.992   2.918   6.147 -0.6248  0.6713 -0.3994
  553MOL0     H72948   9.869   3.033   6.097 -0.3722 -1.5057  0.5280
  553MOL0     H72949   9.648   2.999   6.283 -0.1224 -0.3455 -3.1573
  553MOL0     H72950   9.471   2.669   6.387 -0.8037  0.4056 -0.4031
  553MOL0     H72951   9.459   2.850   6.399  1.1557  1.2579  1.1603
  553MOL0     H72952   9.622   2.802   6.603  0.4988  2.6951 -3.8985
  553MOL0     H72953   9.541   2.644   6.590 -3.3146 -0.6279 -2.1821
  553MOL0     H72954   9.371   2.894   6.606 -1.8285 -1.6790 -4.4471
  553MOL0     H72955   9.316   2.728   6.602 -3.2105  0.7133  2.7532
  553MOL0     H72956   9.533   2.822   6.805  0.9018  1.4613  3.5505
  553MOL0     H72957   9.415   2.696   6.837 -0.8273  1.0416  0.0008
  553MOL0     H72958   9.175   3.015   7.008  1.8591  1.0038 -1.9098
  553MOL0     H72959   9.198   3.066   7.229  0.4352  1.1354  1.0315
  553MOL0     H72960   9.495   3.250   7.499  1.0437 -0.4805 -0.0770
  553MOL0     H72961   9.529   3.342   7.737 -1.6972 -1.5584  1.1443
  553MOL0     H72962   9.743   3.162   8.057  1.1875  4.2459  3.7854
  553MOL0     H72963   9.594   3.070   8.079 -0.4525  0.3721  1.9577
  553MOL0     H72964   9.584   3.217   8.265  3.4952 -1.1667  0.9010
  553MOL0     H72965   9.518   3.335   8.158  0.3762  0.3401  0.7257
  553MOL0     H72966   9.815   3.298   8.210 -1.6878 -2.5355  1.0371
  553MOL0     H72967   9.709   3.408   8.303 -0.1400 -3.6115  1.0969
  553MOL0     H72968   9.825   3.552   8.155  0.7375  0.3070 -2.4519
  553MOL0     H72969   9.806   3.441   8.023  0.3530  1.3605  1.4892
  553MOL0     H72970   9.584   3.511   7.992  0.8405 -2.2454  0.8867
  553MOL0     H72971   9.683   3.643   7.993  2.2327 -1.7185 -0.4480
  553MOL0     H72972   9.638   3.641   8.276  1.5540 -0.0578 -1.4981
  553MOL0     H72973   9.487   3.559   8.223 -1.3442  0.2389 -0.5342
  553MOL0     H72974   9.461   3.797   8.255  1.7407  0.0804 -0.1730
  553MOL0     H72975   9.580   3.831   8.129  0.9425 -2.1461 -5.4912
  553MOL0     H72976   9.424   3.684   7.978 -2.8955  0.6283 -0.9950
  553MOL0     H72977   9.413   3.854   8.000  0.4347 -0.4389 -0.2890
  553MOL0     H72978   9.609   2.964   7.899 -2.0930  1.0390  1.9920
  553MOL0     H72979   9.555   2.866   7.676  0.5513  0.7108  0.0588
  553MOL0     H72980   9.555   2.852   7.263  1.4040  0.3944 -1.0403
  553MOL0     H72981   9.568   2.810   7.025 -1.5851 -2.6518  1.6880
  553MOL0     H72982  10.379   2.906   6.616  0.4799  0.5552 -2.0455
  553MOL0     H72983  10.429   2.728   6.790  1.2242 -0.4682  3.2529
  553MOL0     H72984  10.762   2.262   6.789 -0.3658 -0.0191  0.2409
  553MOL0     H72985  10.819   2.094   6.955 -0.9294 -0.2723 -3.2359
  553MOL0     H72986  11.004   2.228   7.248  0.6261 -0.3141  1.6956
  553MOL0     H72987  11.008   2.085   7.140 -1.0076 -0.0803  0.8864
  553MOL0     H72988  10.929   2.054   7.430  0.2036 -1.2324  0.3345
  553MOL0     H72989  10.988   1.935   7.308 -1.2483 -0.6328  0.8913
  553MOL0     H72990  11.185   2.164   7.386  1.5589  0.0635  0.1496
  553MOL0     H72991  11.204   2.014   7.305  1.5276  0.7839  0.5995
  553MOL0     H72992  11.288   2.057   7.527 -0.0500 -1.3014  0.4747
  553MOL0     H72993  11.130   2.020   7.602  0.1405 -1.0120  0.7504
  553MOL0     H72994  11.222   1.632   7.526  0.7154 -0.5032 -0.0181
  553MOL0     H72995  10.730   2.372   7.263  2.2318  2.5346 -0.0394
  553MOL0     H72996  10.644   2.548   7.087 -0.3513 -0.5967 -0.3205
  554MOL0     O72997   2.726   4.492  10.063 -0.4985 -0.4120 -0.1912
  554MOL0     C72998   2.763   4.492  10.181  0.6476  0.3829  0.2016
  554MOL0     O72999   2.679   4.456  10.287 -0.9121 -0.2967  0.6980
  554MOL0     C73000   2.558   4.402  10.254  0.5683 -0.0949  1.0549
  554MOL0     C73001   2.530   4.265  10.275 -0.4711  0.1778 -0.8858
  554MOL0     C73002   2.400   4.213  10.248 -0.8854  0.7454  0.3639
  554MOL0     C73003   2.289   4.305  10.215 -0.5492  0.5905 -0.6404
  554MOL0     O73004   2.158   4.275  10.176  0.7445  0.3533 -0.3165
  554MOL0     C73005   2.105   4.142  10.194 -0.7430 -0.5890 -0.3541
  554MOL0     C73006   1.975   4.146  10.272  0.1377 -0.1763  0.3372
  554MOL0     C73007   1.858   4.188  10.189  0.4697  0.1581 -0.3318
  554MOL0     C73008   1.850   4.345  10.193 -1.5626  0.2133  0.6012
  554MOL0     C73009   1.703   4.387  10.195 -0.6707  0.4772 -0.5932
  554MOL0     C73010   1.608   4.347  10.091 -0.0142 -1.0551  0.0585
  554MOL0     C73011   1.455   4.356  10.132  0.2875  0.1137  0.3035
  554MOL0     C73012   1.339   4.323  10.024  0.2425 -0.3369  0.9727
  554MOL0     N73013   1.227   4.247  10.084  0.2607 -0.1698  0.0409
  554MOL0     C73014   1.189   4.117  10.051  0.8203 -0.4868 -0.1657
  554MOL0     C73015   1.080   4.079  10.126  0.9389  0.4121  0.2231
  554MOL0     C73016   1.011   3.940  10.120 -0.7683  0.4795  0.2704
  554MOL0     C73017   1.085   3.834  10.200 -0.3461  0.1106  0.6783
  554MOL0     C73018   1.021   3.688  10.212 -0.1570 -0.4419 -0.0274
  554MOL0     C73019   0.892   3.699  10.295 -1.0560 -0.0651 -0.5839
  554MOL0     O73020   0.939   3.733  10.430 -0.3514  0.1038  0.4419
  554MOL0     C73021   0.850   3.748  10.537  0.4876 -0.6095  1.0535
  554MOL0     C73022   0.719   3.799  10.518 -0.3362 -0.5742  0.3996
  554MOL0     C73023   0.639   3.843  10.628  0.0783 -0.2482 -0.2182
  554MOL0     C73024   0.680   3.813  10.760 -0.6322  0.6733 -0.4877
  554MOL0     C73025   0.603   3.843  10.880  0.3535  0.6324  0.4982
  554MOL0     O73026   0.485   3.901  10.847 -0.6332 -0.0707 -0.3152
  554MOL0     C73027   0.404   3.944  10.955 -0.4044  0.8056  0.3951
  554MOL0     C73028   0.377   4.081  10.972  0.8265  0.3407 -0.4647
  554MOL0     C73029   0.288   4.128  11.066 -0.0046  0.5432 -0.4021
  554MOL0     C73030   0.238   4.037  11.162  0.4637 -0.1224  0.7937
  554MOL0     O73031   0.180   4.095  11.275  0.3296 -1.1033  0.2623
  554MOL0     C73032   0.054   4.040  11.319 -1.0275  0.9426  0.2353
  554MOL0     C73033   0.003   4.121  11.441  0.0122 -1.0062  0.5767
  554MOL0     C73034   0.099   4.112  11.562  0.1294 -0.4028 -0.1221
  554MOL0     C73035   0.034   4.202  11.675  0.6384  0.4838 -0.5408
  554MOL0     C73036   0.058   4.356  11.674 -0.3174 -0.0143  0.2963
  554MOL0     C73037  -0.006   4.434  11.791  0.3535  0.4614 -0.2747
  554MOL0     C73038  -0.162   4.400  11.813 -0.0841  0.1689 -0.2315
  554MOL0     C73039  -0.253   4.428  11.691  0.2920 -0.5258  0.0072
  554MOL0    Cl73040  -0.232   4.594  11.614  0.0167 -0.1260 -0.0326
  554MOL0     C73041   0.271   3.895  11.150 -0.9001  1.4414  0.1898
  554MOL0     C73042   0.346   3.845  11.035  0.1404 -0.9425  0.8521
  554MOL0     O73043   0.661   3.838  10.991  0.2859  0.6709  0.2253
  554MOL0     C73044   0.799   3.742  10.776 -0.0169  0.1018  0.3168
  554MOL0     C73045   0.888   3.728  10.668 -0.3604 -0.0460  0.7508
  554MOL0     N73046   1.047   4.194  10.198  0.4427 -0.5590  0.8603
  554MOL0     N73047   1.128   4.292  10.170  0.5055 -0.7215  0.0165
  554MOL0     C73048   2.325   4.444  10.201 -0.6942 -0.4433 -0.2904
  554MOL0     C73049   2.452   4.497  10.220  1.2174 -1.0286  0.7929
  554MOL0     C73050   2.902   4.531  10.209  0.6480  0.7150 -0.4072
  554MOL0     C73051   3.002   4.545  10.113 -0.9295 -0.4958  0.4008
  554MOL0     C73052   3.136   4.572  10.154 -0.8424 -0.4123 -0.3266
  554MOL0     C73053   3.173   4.575  10.293  0.9124 -1.3494 -0.0180
  554MOL0     O73054   3.310   4.596  10.308  0.5120 -0.6392 -0.4540
  554MOL0     C73055   3.353   4.616  10.445  0.0552  0.1935 -0.1764
  554MOL0     C73056   3.509   4.610  10.466 -0.0999 -0.1174 -0.4270
  554MOL0     C73057   3.564   4.468  10.423 -0.3238  0.2697  0.2894
  554MOL0     C73058   3.556   4.365  10.543  0.7774  0.1945  0.0399
  554MOL0     C73059   3.415   4.320  10.573 -0.0366 -0.0112  0.9252
  554MOL0     C73060   3.311   4.272  10.614  0.8189  0.2771 -0.2365
  554MOL0     C73061   3.074   4.559  10.389  0.6392 -0.0675  1.1598
  554MOL0     C73062   2.940   4.545  10.344 -0.2266  0.0620 -0.6504
  554MOL0     H73063   2.603   4.202  10.325 -0.9552 -0.3645 -0.8399
  554MOL0     H73064   2.382   4.109  10.271 -1.1788  1.1443  2.0907
  554MOL0     H73065   2.174   4.086  10.258  0.0414  1.1265  0.3615
  554MOL0     H73066   2.095   4.086  10.101  1.5721 -0.6481 -0.6217
  554MOL0     H73067   1.980   4.203  10.365  3.9229  1.9400 -0.9469
  554MOL0     H73068   1.951   4.042  10.295  1.9484 -0.7958 -0.3739
  554MOL0     H73069   1.771   4.142  10.236  0.3938 -2.1900 -2.5123
  554MOL0     H73070   1.858   4.136  10.093 -0.4728  0.0922 -0.3025
  554MOL0     H73071   1.888   4.370  10.292  3.0538 -1.8075 -0.4143
  554MOL0     H73072   1.916   4.401  10.126 -2.6625  0.7623 -0.0673
  554MOL0     H73073   1.708   4.495  10.213 -1.2506  0.4219 -0.0652
  554MOL0     H73074   1.669   4.335  10.285  0.3322  1.1367  0.1936
  554MOL0     H73075   1.647   4.248  10.063  1.1211 -0.4682 -0.5399
  554MOL0     H73076   1.635   4.409  10.005 -1.5196  1.0309  1.0130
  554MOL0     H73077   1.451   4.282  10.213  1.2122  1.6454  1.8158
  554MOL0     H73078   1.434   4.453  10.178 -0.4935 -0.5483  1.4021
  554MOL0     H73079   1.379   4.259   9.945  0.4243  2.6024 -1.5080
  554MOL0     H73080   1.307   4.409   9.965 -0.0607 -1.8355 -1.1785
  554MOL0     H73081   1.228   4.059   9.968 -0.2169 -0.8107 -0.4341
  554MOL0     H73082   1.003   3.910  10.016 -0.6152 -1.6637  0.8217
  554MOL0     H73083   0.912   3.944  10.167 -1.8265 -4.4849 -0.9564
  554MOL0     H73084   1.101   3.872  10.301  0.9307  0.7870  0.2558
  554MOL0     H73085   1.186   3.822  10.159  0.5233  2.5370  1.9311
  554MOL0     H73086   0.999   3.646  10.113  1.8029 -1.7307  0.0420
  554MOL0     H73087   1.089   3.624  10.268 -0.9887 -1.2841  0.0289
  554MOL0     H73088   0.853   3.598  10.309 -1.8320  0.4862  1.7722
  554MOL0     H73089   0.814   3.767  10.259 -1.7032  0.0595  0.9741
  554MOL0     H73090   0.685   3.797  10.415 -1.4379 -3.2381  0.7425
  554MOL0     H73091   0.550   3.900  10.600  0.9601  1.1412 -0.2927
  554MOL0     H73092   0.414   4.150  10.897  0.7356  0.8691 -0.0313
  554MOL0     H73093   0.268   4.234  11.078  0.6495  0.4036  2.7986
  554MOL0     H73094   0.072   3.935  11.340 -0.0165  1.5715  2.8660
  554MOL0     H73095  -0.017   4.054  11.237 -0.2999  1.1417 -0.3711
  554MOL0     H73096  -0.101   4.099  11.467  0.0243 -1.3621  0.3409
  554MOL0     H73097   0.016   4.226  11.410  2.7408 -1.6123 -0.5977
  554MOL0     H73098   0.202   4.142  11.541 -0.8948  1.6128 -2.7841
  554MOL0     H73099   0.097   4.006  11.590 -0.4463 -0.0775  1.1124
  554MOL0     H73100  -0.073   4.181  11.689  1.0102  0.1418  2.1215
  554MOL0     H73101   0.074   4.159  11.766 -0.3201  2.2681  0.7907
  554MOL0     H73102   0.024   4.410  11.585  0.1291  0.8785  0.6602
  554MOL0     H73103   0.165   4.373  11.663 -0.3032 -1.3638 -2.8124
  554MOL0     H73104   0.003   4.542  11.781  0.5704  0.5056  0.3294
  554MOL0     H73105   0.045   4.411  11.885 -0.5754 -3.7807 -0.5975
  554MOL0     H73106  -0.165   4.293  11.835  1.6983 -0.6352 -3.3027
  554MOL0     H73107  -0.207   4.454  11.896 -4.5977 -0.0311 -2.2432
  554MOL0     H73108  -0.360   4.424  11.716  0.4591  0.0045  0.8571
  554MOL0     H73109  -0.222   4.355  11.616  4.1961  0.9280  0.0014
  554MOL0     H73110   0.240   3.824  11.225 -0.8747  1.2626  0.0299
  554MOL0     H73111   0.362   3.743  11.002 -1.2940 -0.4836 -1.4996
  554MOL0     H73112   0.838   3.711  10.872  1.9508 -0.5719 -0.6433
  554MOL0     H73113   0.990   3.696  10.688  0.4674  2.8334  1.6815
  554MOL0     H73114   2.251   4.520  10.178 -0.9674 -1.0404 -1.4364
  554MOL0     H73115   2.482   4.601  10.223  0.8487 -0.8605 -0.5694
  554MOL0     H73116   2.975   4.532  10.009  2.0342  0.1670 -0.5457
  554MOL0     H73117   3.219   4.587  10.085  0.8204  3.8956  2.1621
  554MOL0     H73118   3.314   4.548  10.521 -0.0373  1.4583  0.9597
  554MOL0     H73119   3.324   4.718  10.473 -1.3038 -0.6702  1.7947
  554MOL0     H73120   3.547   4.684  10.395  0.8476  0.5078  0.7123
  554MOL0     H73121   3.536   4.634  10.569  2.4294 -1.9025 -0.6016
  554MOL0     H73122   3.672   4.473  10.403 -0.2039 -0.8796  0.5668
  554MOL0     H73123   3.522   4.430  10.330  1.9013  3.5513 -2.2892
  554MOL0     H73124   3.613   4.272  10.530  0.2135 -0.9441  4.0768
  554MOL0     H73125   3.590   4.398  10.642  0.2317  0.9232 -0.0092
  554MOL0     H73126   3.240   4.201  10.654  1.4483 -0.8776 -1.0977
  554MOL0     H73127   3.080   4.566  10.498  0.9774 -3.0467  1.4248
  554MOL0     H73128   2.868   4.537  10.425  1.1714 -0.7894  0.5777
  555MOL0     O73129   3.355   3.124   4.194  0.5270 -0.0150 -0.6329
  555MOL0     C73130   3.396   3.106   4.311 -0.9328  0.1468 -0.7654
  555MOL0     O73131   3.450   3.201   4.393 -0.4168 -0.3179  0.5163
  555MOL0     C73132   3.505   3.306   4.326 -0.7502  0.2419 -0.1415
  555MOL0     C73133   3.421   3.414   4.295  0.3942 -0.3341 -0.3060
  555MOL0     C73134   3.477   3.522   4.225 -0.1277  0.5020 -0.3004
  555MOL0     C73135   3.615   3.539   4.210 -0.7687 -0.0510  0.8243
  555MOL0     O73136   3.668   3.644   4.136  0.0196  0.2714 -0.1231
  555MOL0     C73137   3.574   3.749   4.107 -0.2387 -0.7688 -0.5008
  555MOL0     C73138   3.655   3.843   4.022  0.2629 -0.8172  1.0494
  555MOL0     C73139   3.561   3.935   3.955  0.6501  0.5574  0.2123
  555MOL0     C73140   3.636   4.036   3.858  0.3438  0.1046 -0.4368
  555MOL0     C73141   3.549   4.167   3.837  0.2956  0.8262 -0.2573
  555MOL0     C73142   3.415   4.133   3.784 -1.0155 -0.6499 -0.1551
  555MOL0     C73143   3.315   4.221   3.870  0.0298  0.3468  0.0157
  555MOL0     C73144   3.175   4.174   3.856 -0.3175  0.1178 -0.4097
  555MOL0     N73145   3.171   4.051   3.943 -0.3586  0.9591  0.3210
  555MOL0     C73146   3.200   4.027   4.076 -0.0468 -0.0557 -0.2539
  555MOL0     C73147   3.156   3.900   4.098 -0.6342 -0.0805 -0.2514
  555MOL0     C73148   3.181   3.812   4.218  0.3779  0.9636  0.3190
  555MOL0     C73149   3.066   3.709   4.232  0.0094  0.4591  0.6153
  555MOL0     C73150   3.053   3.664   4.374 -0.2548 -0.7922 -1.7709
  555MOL0     C73151   2.948   3.550   4.398 -1.1951 -0.8597  0.5477
  555MOL0     O73152   2.812   3.585   4.370 -1.1051 -0.3003 -0.2739
  555MOL0     C73153   2.715   3.498   4.420  0.1880 -0.4306 -0.0860
  555MOL0     C73154   2.736   3.363   4.426 -0.8070  0.1713  0.1570
  555MOL0     C73155   2.627   3.284   4.481 -0.1223 -0.7531  0.1258
  555MOL0     C73156   2.502   3.344   4.517 -0.5444  0.0969  0.4771
  555MOL0     C73157   2.381   3.264   4.552 -0.9984 -1.0683  0.5615
  555MOL0     O73158   2.263   3.330   4.565  0.1224 -0.3551  0.6247
  555MOL0     C73159   2.143   3.259   4.595 -0.4392 -0.4030  0.2043
  555MOL0     C73160   2.120   3.183   4.706 -1.6915 -0.7292 -0.5142
  555MOL0     C73161   2.004   3.104   4.716  0.0117 -0.9770  0.3266
  555MOL0     C73162   1.908   3.107   4.623 -0.4391  0.2883  0.1292
  555MOL0     O73163   1.805   3.014   4.617  0.0197 -0.4230 -0.3887
  555MOL0     C73164   1.738   2.987   4.491 -0.0373  0.9809  1.2821
  555MOL0     C73165   1.677   2.848   4.496  0.4650 -0.3783  0.1298
  555MOL0     C73166   1.546   2.855   4.576 -0.4263  0.5097 -0.2541
  555MOL0     C73167   1.493   2.707   4.615  0.1480  0.6535 -0.2361
  555MOL0     C73168   1.423   2.712   4.750  0.5343  0.4492 -0.1451
  555MOL0     C73169   1.328   2.594   4.761  0.1462 -0.8661  0.4999
  555MOL0     C73170   1.399   2.457   4.768  0.3338 -0.0858 -0.0306
  555MOL0     C73171   1.307   2.354   4.692  0.0694 -0.7880 -0.3236
  555MOL0    Cl73172   1.194   2.285   4.817 -0.1193 -0.4370 -0.0354
  555MOL0     C73173   1.921   3.202   4.519 -0.5416 -0.2999 -0.2128
  555MOL0     C73174   2.036   3.274   4.508  1.3552 -0.8090  0.8162
  555MOL0     O73175   2.400   3.143   4.573  0.3543  0.2313 -0.0793
  555MOL0     C73176   2.494   3.483   4.518  0.8380 -0.3713 -0.1868
  555MOL0     C73177   2.599   3.558   4.453 -0.0728 -0.3220 -0.6048
  555MOL0     N73178   3.108   3.847   3.977 -0.4349  0.7379 -0.2721
  555MOL0     N73179   3.123   3.930   3.884 -0.0361 -0.1660  0.1335
  555MOL0     C73180   3.696   3.436   4.259  0.5395  0.4788  0.0567
  555MOL0     C73181   3.640   3.311   4.304  0.8334 -0.0080  0.6921
  555MOL0     C73182   3.388   2.968   4.368 -0.7566 -0.8138  0.4118
  555MOL0     C73183   3.479   2.926   4.466  0.4692 -0.8179 -0.6144
  555MOL0     C73184   3.459   2.804   4.532 -0.2951 -0.0166  0.4336
  555MOL0     C73185   3.340   2.726   4.511  0.4044 -0.2138  0.3533
  555MOL0     O73186   3.331   2.612   4.574  0.6189 -0.5349 -0.1580
  555MOL0     C73187   3.213   2.544   4.604 -0.4741 -0.7426 -0.5801
  555MOL0     C73188   3.186   2.434   4.506  0.6416  0.3638  0.5924
  555MOL0     C73189   3.289   2.325   4.511  0.1125  0.2403  0.5353
  555MOL0     C73190   3.259   2.209   4.407 -0.2590  0.4904  0.0399
  555MOL0     C73191   3.129   2.134   4.428  0.8727 -0.0297 -0.1878
  555MOL0     C73192   3.039   2.053   4.447  0.1222 -0.0717  0.4616
  555MOL0     C73193   3.249   2.780   4.425  1.3939 -0.2058  0.0058
  555MOL0     C73194   3.276   2.885   4.351 -1.2290 -0.9632  0.2561
  555MOL0     H73195   3.314   3.409   4.310  0.9699 -1.7039  5.5874
  555MOL0     H73196   3.405   3.592   4.184  0.6162  1.4731  0.0101
  555MOL0     H73197   3.545   3.810   4.192  2.9768 -1.6585  1.3790
  555MOL0     H73198   3.492   3.719   4.041 -2.2561  1.4129  0.8912
  555MOL0     H73199   3.696   3.777   3.945  0.0005 -2.2294  2.0730
  555MOL0     H73200   3.726   3.901   4.082 -0.1727  2.3327 -1.2361
  555MOL0     H73201   3.513   3.993   4.034 -0.1298 -0.1554  0.2760
  555MOL0     H73202   3.488   3.882   3.893  3.1198 -1.5455 -1.1601
  555MOL0     H73203   3.730   4.054   3.911 -1.5141  2.4271  2.3711
  555MOL0     H73204   3.659   4.002   3.756  2.2472  3.3277 -1.2172
  555MOL0     H73205   3.604   4.240   3.777 -1.2194  3.3766  1.2674
  555MOL0     H73206   3.552   4.211   3.937  3.1184 -4.4530  2.3901
  555MOL0     H73207   3.391   4.027   3.787  0.2380 -1.1565 -3.6589
  555MOL0     H73208   3.408   4.156   3.677  1.9768 -2.5413 -0.8889
  555MOL0     H73209   3.343   4.214   3.976  1.2876  0.2655 -0.3146
  555MOL0     H73210   3.324   4.322   3.829 -0.7591 -0.4137 -2.1650
  555MOL0     H73211   3.148   4.154   3.753  0.1424  3.0715 -1.2046
  555MOL0     H73212   3.104   4.248   3.895  1.4961  2.3324 -1.0707
  555MOL0     H73213   3.241   4.090   4.154 -0.2783  1.7445 -1.5146
  555MOL0     H73214   3.192   3.875   4.307  3.4145 -0.0727  0.7822
  555MOL0     H73215   3.275   3.758   4.219 -2.2038 -4.1053  0.5614
  555MOL0     H73216   3.083   3.622   4.168  0.5058  0.3328  0.9201
  555MOL0     H73217   2.965   3.746   4.211 -1.8868 -2.1866  3.9957
  555MOL0     H73218   3.155   3.633   4.397  0.3252  2.8224  1.5095
  555MOL0     H73219   3.041   3.756   4.431  1.6892 -1.1771 -0.6491
  555MOL0     H73220   2.954   3.527   4.505  1.4264 -0.8635  0.4642
  555MOL0     H73221   2.983   3.471   4.332  1.6608 -1.1856  2.3067
  555MOL0     H73222   2.824   3.317   4.382 -1.1620  0.8429 -1.3059
  555MOL0     H73223   2.641   3.177   4.487  2.4460 -0.5377 -0.9271
  555MOL0     H73224   2.207   3.163   4.767 -0.3698  1.8081 -1.4229
  555MOL0     H73225   2.018   3.047   4.808  0.5648 -0.9847  0.2414
  555MOL0     H73226   1.804   2.979   4.404 -0.2478  0.4942  1.1637
  555MOL0     H73227   1.659   3.060   4.469  0.4217  1.1456  0.1040
  555MOL0     H73228   1.750   2.775   4.532 -0.2557 -2.6927 -2.7609
  555MOL0     H73229   1.658   2.814   4.394  2.1456  1.2243 -0.7600
  555MOL0     H73230   1.470   2.902   4.512 -0.1755  2.4461  0.7779
  555MOL0     H73231   1.551   2.929   4.656 -1.6512  1.2401 -0.8157
  555MOL0     H73232   1.412   2.688   4.543 -3.1512  1.7020  2.9057
  555MOL0     H73233   1.574   2.634   4.618  1.8881  2.5388  1.4311
  555MOL0     H73234   1.369   2.807   4.750 -2.2707 -0.7375 -5.8326
  555MOL0     H73235   1.493   2.706   4.833 -1.1318  2.1627  1.4935
  555MOL0     H73236   1.252   2.603   4.683  1.3598  1.0808 -0.5505
  555MOL0     H73237   1.282   2.601   4.860  1.0706 -1.7153  1.0112
  555MOL0     H73238   1.492   2.445   4.712  0.3751  0.5049 -0.0973
  555MOL0     H73239   1.417   2.425   4.871  2.7885 -2.2039 -0.9993
  555MOL0     H73240   1.362   2.278   4.636  1.6222  0.0400 -0.0107
  555MOL0     H73241   1.249   2.403   4.614  0.1098 -0.6080 -0.2429
  555MOL0     H73242   1.838   3.214   4.449 -0.1788 -2.8244 -1.1894
  555MOL0     H73243   2.049   3.324   4.412 -1.2218  0.1237  0.8918
  555MOL0     H73244   2.406   3.541   4.543  1.8282  1.8321 -1.5019
  555MOL0     H73245   2.599   3.661   4.421  1.7701  0.2729  1.1003
  555MOL0     H73246   3.800   3.451   4.233  0.4641 -0.8006 -1.1063
  555MOL0     H73247   3.699   3.223   4.326 -1.3336 -2.0888 -1.3148
  555MOL0     H73248   3.548   2.993   4.516 -2.1385  1.6678 -0.0830
  555MOL0     H73249   3.536   2.765   4.598  1.2960  3.1150  0.5950
  555MOL0     H73250   3.138   2.623   4.605  1.6753  1.3886  0.5352
  555MOL0     H73251   3.222   2.503   4.705 -1.1432  1.0930  0.2524
  555MOL0     H73252   3.088   2.395   4.534  0.5852 -0.5394 -0.7904
  555MOL0     H73253   3.180   2.477   4.406  0.2774 -0.9570  0.0353
  555MOL0     H73254   3.297   2.272   4.606 -0.5108 -0.9036 -0.0242
  555MOL0     H73255   3.388   2.360   4.480  0.1901  0.0330  0.5466
  555MOL0     H73256   3.248   2.255   4.309  2.2691  0.3615 -0.3530
  555MOL0     H73257   3.340   2.137   4.397  0.1417  0.8315  0.7321
  555MOL0     H73258   2.964   1.978   4.466 -0.0803 -0.1393 -0.5805
  555MOL0     H73259   3.159   2.727   4.394 -0.6662  1.0495  3.2968
  555MOL0     H73260   3.204   2.939   4.291  0.4362  2.4737  1.1245
  556MOL0     O73261   7.114   6.064   3.773 -0.1385 -0.7582  0.4050
  556MOL0     C73262   7.050   6.043   3.872 -1.0397 -0.8238  0.1078
  556MOL0     O73263   7.098   5.985   3.980  0.7927  0.0491  0.0120
  556MOL0     C73264   7.218   5.909   3.996  0.4500 -0.2997  0.0401
  556MOL0     C73265   7.294   5.846   3.893 -0.2581 -0.6241  0.6150
  556MOL0     C73266   7.417   5.789   3.918 -0.2085  0.1985 -0.3995
  556MOL0     C73267   7.462   5.765   4.050 -0.4554  1.6093  0.6831
  556MOL0     O73268   7.574   5.689   4.088  0.1012 -0.0108 -0.6781
  556MOL0     C73269   7.592   5.561   4.029  0.1598  0.9269 -0.4410
  556MOL0     C73270   7.711   5.575   3.937  0.0102  0.0820 -0.2930
  556MOL0     C73271   7.850   5.616   3.994 -0.0479 -0.2901 -0.2628
  556MOL0     C73272   7.877   5.763   3.998 -0.2244  0.2446  0.8663
  556MOL0     C73273   8.023   5.802   4.039  0.2915 -0.2300 -0.6018
  556MOL0     C73274   8.067   5.946   4.044 -0.5527 -0.8465 -0.3789
  556MOL0     C73275   8.062   6.022   3.905 -0.5680 -0.0792  0.0795
  556MOL0     C73276   8.108   6.169   3.901 -0.0824  1.3046  0.2752
  556MOL0     N73277   8.046   6.249   4.007 -0.0895 -0.8014  1.4211
  556MOL0     C73278   7.913   6.283   3.997  0.2098  0.0542  0.9505
  556MOL0     C73279   7.874   6.288   4.121 -0.1658  0.5944 -0.0107
  556MOL0     C73280   7.727   6.295   4.154 -0.5676  0.4890  0.2701
  556MOL0     C73281   7.659   6.161   4.186  0.0368 -0.9459  0.5690
  556MOL0     C73282   7.731   6.083   4.294  0.1232  0.3174 -0.5741
  556MOL0     C73283   7.657   5.949   4.317 -1.3487 -0.5939  0.1554
  556MOL0     O73284   7.708   5.889   4.436 -0.2147 -0.2995 -0.2952
  556MOL0     C73285   7.782   5.783   4.422  0.2724  0.3203 -0.0941
  556MOL0     C73286   7.923   5.790   4.409  0.7955 -0.3825  0.2125
  556MOL0     C73287   7.995   5.669   4.390  0.3088 -0.1714  0.2862
  556MOL0     C73288   7.924   5.543   4.393  0.6003 -0.0199 -1.1601
  556MOL0     C73289   7.985   5.415   4.406 -0.8362  1.0603 -0.0043
  556MOL0     O73290   7.912   5.297   4.402 -0.3079  0.0408 -0.4497
  556MOL0     C73291   7.983   5.178   4.379  0.1692  0.0215  0.6608
  556MOL0     C73292   8.055   5.121   4.481  1.3947 -0.2185 -0.4400
  556MOL0     C73293   8.087   4.980   4.479 -0.4366  0.1789  0.6013
  556MOL0     C73294   8.075   4.912   4.358 -0.6374 -0.3615 -0.3156
  556MOL0     O73295   8.135   4.785   4.355 -0.6645  0.0634 -0.0641
  556MOL0     C73296   8.117   4.703   4.237  0.2981  0.8006 -0.6939
  556MOL0     C73297   7.984   4.627   4.226  0.9452  0.0183 -0.2668
  556MOL0     C73298   7.988   4.528   4.114  0.3226 -0.3740  0.8007
  556MOL0     C73299   8.015   4.596   3.981 -0.8088 -0.0504 -1.1060
  556MOL0     C73300   8.007   4.492   3.866  0.6440  0.5721 -0.6974
  556MOL0     C73301   7.970   4.548   3.726  0.5352  0.0409 -0.4974
  556MOL0     C73302   7.978   4.426   3.623  0.2325 -0.5963 -0.8927
  556MOL0     C73303   7.907   4.452   3.494 -0.2275 -0.8434  0.9117
  556MOL0    Cl73304   7.740   4.390   3.466 -0.2035  0.2742  0.6876
  556MOL0     C73305   8.016   4.975   4.253 -0.0397 -0.1244  0.2446
  556MOL0     C73306   7.960   5.107   4.256 -0.6084 -0.1909 -0.3864
  556MOL0     O73307   8.108   5.422   4.399 -0.6012 -0.1622  0.4310
  556MOL0     C73308   7.790   5.549   4.403  0.7759 -0.1527  0.3526
  556MOL0     C73309   7.720   5.667   4.403 -0.4398  0.2167 -0.7343
  556MOL0     N73310   7.973   6.256   4.203  0.4984 -0.6259 -0.8380
  556MOL0     N73311   8.077   6.239   4.134 -0.2623  0.0177  0.3111
  556MOL0     C73312   7.388   5.823   4.149 -0.6644 -0.2590 -0.5158
  556MOL0     C73313   7.267   5.895   4.127  0.0270 -0.4671 -0.3113
  556MOL0     C73314   6.927   6.119   3.882 -0.5294  0.1267  0.7938
  556MOL0     C73315   6.846   6.092   3.989  0.8000 -0.3783 -0.7075
  556MOL0     C73316   6.721   6.158   3.996  0.2219 -1.0802  0.1432
  556MOL0     C73317   6.671   6.245   3.895 -0.2257 -0.4554  0.8119
  556MOL0     O73318   6.540   6.285   3.908  0.1312  0.9629  0.4257
  556MOL0     C73319   6.480   6.371   3.801  0.5464  0.8537 -0.0029
  556MOL0     C73320   6.333   6.405   3.842  0.2121  0.2125  0.0015
  556MOL0     C73321   6.260   6.488   3.732  0.9074 -0.4571  0.6680
  556MOL0     C73322   6.114   6.514   3.751  0.1593  0.4081 -0.0201
  556MOL0     C73323   6.040   6.394   3.743  1.2142  0.3727  0.0788
  556MOL0     C73324   5.981   6.286   3.730  0.3257 -0.4708  0.7135
  556MOL0     C73325   6.770   6.275   3.795  0.2953 -0.8682 -0.5843
  556MOL0     C73326   6.897   6.219   3.781 -0.6162  0.2851 -1.3345
  556MOL0     H73327   7.266   5.859   3.788  1.7420 -0.0891  0.1113
  556MOL0     H73328   7.467   5.763   3.825  3.1140 -0.0220  1.3261
  556MOL0     H73329   7.506   5.515   3.978  0.9381  1.6194 -2.4732
  556MOL0     H73330   7.614   5.491   4.110 -0.7594  0.4621 -0.5711
  556MOL0     H73331   7.693   5.655   3.864  1.6136  2.3622  1.6760
  556MOL0     H73332   7.731   5.473   3.903  0.1275 -0.2496  0.7403
  556MOL0     H73333   7.931   5.571   3.936 -1.4987 -1.1285 -1.7140
  556MOL0     H73334   7.857   5.574   4.095  3.6991 -0.4385 -0.4271
  556MOL0     H73335   7.853   5.799   3.897  2.1722  1.2501  0.5671
  556MOL0     H73336   7.809   5.822   4.059  1.0765  1.8688  0.8280
  556MOL0     H73337   8.088   5.762   3.960 -0.8366 -4.5707  0.3919
  556MOL0     H73338   8.045   5.759   4.136  1.2441  0.5192 -0.4790
  556MOL0     H73339   8.174   5.941   4.070 -0.8568 -2.3489  0.6875
  556MOL0     H73340   8.016   5.999   4.125  0.5498  2.6689 -1.7598
  556MOL0     H73341   8.112   5.969   3.823  2.2348 -0.7139  2.0333
  556MOL0     H73342   7.956   6.033   3.883 -1.3035 -1.3843  2.5743
  556MOL0     H73343   8.083   6.220   3.808 -4.8368  0.5008  0.8855
  556MOL0     H73344   8.215   6.162   3.920 -0.0836  1.6386  0.4080
  556MOL0     H73345   7.856   6.289   3.904  0.9766  1.7560  0.5484
  556MOL0     H73346   7.679   6.348   4.071 -2.2231 -0.3835  0.6418
  556MOL0     H73347   7.709   6.369   4.233  2.0574  3.2611 -1.5012
  556MOL0     H73348   7.653   6.111   4.089  1.4186  0.6964 -0.4349
  556MOL0     H73349   7.557   6.186   4.218 -1.1591 -2.9429 -1.4164
  556MOL0     H73350   7.837   6.058   4.281  0.4124  2.0246 -1.7640
  556MOL0     H73351   7.736   6.141   4.387  2.4272  0.4128 -0.6886
  556MOL0     H73352   7.676   5.897   4.222 -0.8306  0.6759 -0.4562
  556MOL0     H73353   7.549   5.969   4.322 -1.0359  1.2993  0.1003
  556MOL0     H73354   7.972   5.886   4.420 -1.8008  1.1228 -0.5492
  556MOL0     H73355   8.101   5.674   4.370  0.2384  2.9859  0.2317
  556MOL0     H73356   8.065   5.189   4.564  0.2298 -1.4766  0.7873
  556MOL0     H73357   8.137   4.949   4.570  3.5066  2.7790 -0.4221
  556MOL0     H73358   8.201   4.633   4.232  1.5217  2.0648  0.8373
  556MOL0     H73359   8.148   4.773   4.159  0.3073  3.5304  1.5732
  556MOL0     H73360   7.903   4.699   4.211  0.4846 -0.5927 -0.7571
  556MOL0     H73361   7.967   4.575   4.320  0.5066  0.8712  0.1410
  556MOL0     H73362   7.894   4.473   4.108  1.0716 -1.5947 -0.2913
  556MOL0     H73363   8.061   4.452   4.143  0.1562  0.4561  3.7166
  556MOL0     H73364   7.952   4.683   3.962  0.8441  1.2514 -0.8710
  556MOL0     H73365   8.119   4.630   3.976 -0.7084  0.4089  1.9692
  556MOL0     H73366   7.928   4.422   3.893 -1.1753  1.8491 -2.4356
  556MOL0     H73367   8.098   4.432   3.851  0.5496  0.7109 -1.9810
  556MOL0     H73368   8.015   4.645   3.706 -0.6722  0.8523  0.5671
  556MOL0     H73369   7.862   4.562   3.740  0.8664  1.2171  1.1080
  556MOL0     H73370   8.083   4.408   3.599 -0.6238 -2.9126 -3.2656
  556MOL0     H73371   7.939   4.332   3.664  0.9743 -1.7040 -2.6321
  556MOL0     H73372   7.975   4.437   3.411 -1.2222  0.6323 -0.2241
  556MOL0     H73373   7.898   4.559   3.476  0.0412 -0.6636  1.7830
  556MOL0     H73374   8.014   4.926   4.156 -1.5656 -0.3411  0.3728
  556MOL0     H73375   7.896   5.152   4.180  0.2705  3.6701  0.9074
  556MOL0     H73376   7.737   5.454   4.406 -1.4349  0.8022 -2.8112
  556MOL0     H73377   7.612   5.669   4.400 -0.5314 -2.2537 -0.7258
  556MOL0     H73378   7.399   5.789   4.251 -0.4552 -0.4848 -0.6107
  556MOL0     H73379   7.214   5.941   4.210 -0.0088  0.6677 -0.9424
  556MOL0     H73380   6.875   6.026   4.069 -0.1234  0.1576  0.0912
  556MOL0     H73381   6.657   6.153   4.084  0.6470  1.1042  0.6374
  556MOL0     H73382   6.482   6.314   3.707 -0.9687 -0.8986  0.9512
  556MOL0     H73383   6.524   6.469   3.779 -0.1094  0.4221 -4.0381
  556MOL0     H73384   6.275   6.317   3.874 -0.7931  0.5124 -0.9287
  556MOL0     H73385   6.336   6.474   3.927 -1.2262  1.9061 -1.2371
  556MOL0     H73386   6.273   6.434   3.638  1.1218 -1.3122  1.1851
  556MOL0     H73387   6.312   6.585   3.732  0.1831 -0.0587  0.9194
  556MOL0     H73388   6.097   6.558   3.850  2.5107  1.4467 -0.0056
  556MOL0     H73389   6.085   6.581   3.670  3.2130  0.3249 -1.3176
  556MOL0     H73390   5.919   6.199   3.726  0.5299 -0.5800 -0.4679
  556MOL0     H73391   6.740   6.348   3.721 -1.3593 -2.5631 -1.6624
  556MOL0     H73392   6.970   6.262   3.714  2.5380  0.6482  1.9774
  557MOL0     O73393   6.434   3.602   6.268 -0.3128 -0.7286 -0.8688
  557MOL0     C73394   6.370   3.698   6.224  0.0109 -0.0237 -0.1214
  557MOL0     O73395   6.306   3.707   6.103 -0.0092  0.1945  0.2972
  557MOL0     C73396   6.337   3.620   6.005 -1.3890 -0.3256  0.9263
  557MOL0     C73397   6.282   3.482   5.990 -0.9623  0.3775 -0.1990
  557MOL0     C73398   6.340   3.404   5.882 -0.3669  0.0881  0.4875
  557MOL0     C73399   6.431   3.455   5.787 -0.0811 -0.5953 -0.9147
  557MOL0     O73400   6.495   3.368   5.700 -0.3908 -0.0721  0.1013
  557MOL0     C73401   6.601   3.422   5.631 -0.8187  0.4421  1.0069
  557MOL0     C73402   6.673   3.297   5.578  0.1458  0.3483  0.6259
  557MOL0     C73403   6.722   3.207   5.692  1.2483 -0.0314  0.1039
  557MOL0     C73404   6.800   3.088   5.643 -0.0099 -0.2892 -0.2363
  557MOL0     C73405   6.903   3.025   5.743  0.3967  0.0405  0.5947
  557MOL0     C73406   6.837   2.957   5.858 -0.7204 -0.1773 -0.5331
  557MOL0     C73407   6.928   2.930   5.984  0.4742 -0.0426  0.0588
  557MOL0     C73408   6.849   2.848   6.084  0.2614 -0.2793 -0.5366
  557MOL0     N73409   6.896   2.859   6.226  1.3452 -0.8376 -0.0541
  557MOL0     C73410   7.022   2.811   6.249  0.7591 -0.4523  0.0891
  557MOL0     C73411   7.054   2.863   6.370  0.1004  0.2513 -0.3159
  557MOL0     C73412   7.185   2.846   6.436 -0.5743 -0.3037  0.3739
  557MOL0     C73413   7.238   2.977   6.490 -0.1126  0.0577  0.0722
  557MOL0     C73414   7.200   3.012   6.639  0.6317  0.3265 -0.1465
  557MOL0     C73415   7.178   2.891   6.737  0.2637  0.0780 -0.2226
  557MOL0     O73416   7.125   2.945   6.859  0.1606 -0.0186 -0.9613
  557MOL0     C73417   6.988   2.975   6.869 -1.9589 -0.2974 -0.4979
  557MOL0     C73418   6.888   2.957   6.770 -0.2854  0.1070 -0.1111
  557MOL0     C73419   6.751   2.981   6.792 -0.4551 -0.6484  0.0220
  557MOL0     C73420   6.714   3.021   6.931 -0.2694  0.0997  1.0340
  557MOL0     C73421   6.576   3.059   6.966  0.0129  0.5134 -0.7278
  557MOL0     O73422   6.539   3.064   7.092 -0.5769  0.9968  0.4604
  557MOL0     C73423   6.417   3.090   7.134  0.4045  0.3942 -1.0028
  557MOL0     C73424   6.358   3.028   7.242  0.7876  0.2784 -0.7466
  557MOL0     C73425   6.239   3.071   7.297  0.7209  0.2694  0.4561
  557MOL0     C73426   6.167   3.175   7.233 -0.6153 -1.1436  0.6327
  557MOL0     O73427   6.050   3.225   7.292 -0.2185 -0.2644  0.4085
  557MOL0     C73428   5.943   3.280   7.214 -0.3868 -0.5378  0.9272
  557MOL0     C73429   5.832   3.305   7.304  0.8064 -0.1259 -0.1521
  557MOL0     C73430   5.696   3.336   7.246  0.4485 -0.4226  0.5504
  557MOL0     C73431   5.640   3.235   7.143 -0.5287  0.5223 -0.1106
  557MOL0     C73432   5.500   3.266   7.102  0.6479  1.0766 -0.3984
  557MOL0     C73433   5.432   3.153   7.031  0.2887  0.6404  0.9395
  557MOL0     C73434   5.372   3.029   7.112 -0.4064  0.2590  0.2060
  557MOL0     C73435   5.231   2.978   7.053 -0.3313  0.5507 -0.8753
  557MOL0    Cl73436   5.259   2.916   6.882  0.3479  0.2202 -0.1501
  557MOL0     C73437   6.227   3.241   7.122  1.7226 -0.1560 -0.6565
  557MOL0     C73438   6.357   3.203   7.090 -0.2134 -0.4607  0.3927
  557MOL0     O73439   6.491   3.064   6.875  0.9760  0.5136 -0.3805
  557MOL0     C73440   6.814   3.022   7.030  0.1434  0.4744  0.2553
  557MOL0     C73441   6.945   3.005   6.995 -0.0557 -0.1933  0.0694
  557MOL0     N73442   6.951   2.937   6.414 -0.6674  0.0789  0.8540
  557MOL0     N73443   6.854   2.938   6.321 -0.2340 -0.3143 -0.9757
  557MOL0     C73444   6.458   3.589   5.794  0.5601  0.4096  0.1997
  557MOL0     C73445   6.416   3.666   5.903  0.2811 -0.5484  0.5770
  557MOL0     C73446   6.341   3.801   6.327  0.6407  0.2333 -0.3855
  557MOL0     C73447   6.255   3.910   6.295  0.5692  0.3186  0.1078
  557MOL0     C73448   6.218   4.009   6.389  0.0090  0.6612 -0.5880
  557MOL0     C73449   6.256   3.993   6.531 -0.4730  0.0717 -0.9940
  557MOL0     O73450   6.233   4.094   6.616  0.0752 -0.3502 -0.4256
  557MOL0     C73451   6.233   4.061   6.758  0.7380 -1.5176 -0.5203
  557MOL0     C73452   6.124   4.144   6.843 -0.1909  0.3901  0.3455
  557MOL0     C73453   6.086   4.278   6.770 -0.1428 -0.2189  0.5765
  557MOL0     C73454   6.003   4.370   6.850  0.0402 -0.4408 -0.1802
  557MOL0     C73455   5.999   4.500   6.779 -0.8951  0.0637 -0.1563
  557MOL0     C73456   6.005   4.611   6.734  0.2611 -0.5955  0.0554
  557MOL0     C73457   6.331   3.886   6.564 -0.0675  0.6680  0.4280
  557MOL0     C73458   6.380   3.788   6.469  0.0383 -0.6742  0.0012
  557MOL0     H73459   6.207   3.433   6.050  1.0460 -1.3898  0.9700
  557MOL0     H73460   6.315   3.298   5.878 -0.9737  0.1882  1.1939
  557MOL0     H73461   6.659   3.494   5.688 -0.1673  1.9802 -1.4533
  557MOL0     H73462   6.576   3.487   5.546 -0.9981 -0.8314  0.0553
  557MOL0     H73463   6.764   3.319   5.522 -0.6153  1.5323 -0.1900
  557MOL0     H73464   6.605   3.238   5.516  0.6725  0.1198  0.2616
  557MOL0     H73465   6.635   3.176   5.750  1.0025 -2.2573 -1.3431
  557MOL0     H73466   6.781   3.273   5.756 -0.7720  1.9081  0.1054
  557MOL0     H73467   6.729   3.010   5.612  1.5343 -2.0753  0.5024
  557MOL0     H73468   6.858   3.114   5.555  1.2571 -2.5438 -0.1518
  557MOL0     H73469   6.971   3.105   5.773  1.9601 -0.6726 -0.8908
  557MOL0     H73470   6.968   2.949   5.698 -0.0637  0.3113 -0.5516
  557MOL0     H73471   6.789   2.861   5.839  0.9463 -1.2980  0.5957
  557MOL0     H73472   6.756   3.022   5.891 -1.7720 -1.5254 -0.3620
  557MOL0     H73473   7.021   2.876   5.963  3.6298  2.2174  5.6571
  557MOL0     H73474   6.961   3.028   6.022  0.3232  0.0977 -0.1665
  557MOL0     H73475   6.870   2.744   6.057 -0.2074 -1.3309  2.7516
  557MOL0     H73476   6.742   2.866   6.073  0.3535  1.3832  0.9016
  557MOL0     H73477   7.089   2.755   6.185  2.4925 -1.8240  2.9039
  557MOL0     H73478   7.258   2.808   6.364  2.9137  4.0926  1.1374
  557MOL0     H73479   7.174   2.772   6.516 -0.3545 -2.4019 -1.4210
  557MOL0     H73480   7.220   3.062   6.423  2.0328  0.4900 -0.0305
  557MOL0     H73481   7.347   2.969   6.494  0.1286  2.6159  0.5195
  557MOL0     H73482   7.288   3.062   6.678  4.0399 -3.9401 -1.5914
  557MOL0     H73483   7.116   3.082   6.648  2.5933  2.6100  1.6510
  557MOL0     H73484   7.281   2.864   6.760  0.2367  0.6514  0.6335
  557MOL0     H73485   7.110   2.809   6.713  1.7513 -1.4183  0.5394
  557MOL0     H73486   6.906   2.918   6.671  0.0793  2.8558 -1.2313
  557MOL0     H73487   6.688   2.967   6.705  3.1465 -3.4273 -2.4163
  557MOL0     H73488   6.407   2.938   7.280  1.3402  0.6199 -0.6356
  557MOL0     H73489   6.195   3.009   7.374  1.6990 -2.0178 -0.7447
  557MOL0     H73490   5.935   3.199   7.142 -0.6845 -0.0901  0.4508
  557MOL0     H73491   5.963   3.375   7.164  0.6242  0.1608  2.5631
  557MOL0     H73492   5.855   3.383   7.377 -2.1786  2.5525 -1.8100
  557MOL0     H73493   5.825   3.213   7.363 -1.0768  0.5637  0.8107
  557MOL0     H73494   5.708   3.431   7.192 -1.6252 -0.1040  0.5781
  557MOL0     H73495   5.628   3.345   7.331 -0.0482  0.3721  0.0827
  557MOL0     H73496   5.703   3.216   7.055 -2.3538 -4.0823 -0.7053
  557MOL0     H73497   5.634   3.147   7.206  2.4262  1.5023  1.7705
  557MOL0     H73498   5.500   3.360   7.046 -1.7176  2.8129  2.2167
  557MOL0     H73499   5.434   3.267   7.189  1.3954 -0.6217  0.2185
  557MOL0     H73500   5.506   3.113   6.960 -0.1717  1.0635  0.2097
  557MOL0     H73501   5.356   3.198   6.968  1.9662  1.3091 -0.7073
  557MOL0     H73502   5.448   2.950   7.111  2.1411  2.5344  1.3351
  557MOL0     H73503   5.362   3.049   7.219 -1.8097  1.2021 -0.0832
  557MOL0     H73504   5.166   3.066   7.053 -1.2951 -0.1269 -2.3758
  557MOL0     H73505   5.194   2.898   7.119  2.8729 -0.2475  0.1544
  557MOL0     H73506   6.179   3.328   7.079  0.3084 -0.2576  0.6201
  557MOL0     H73507   6.408   3.262   7.015  1.9762 -0.3568  1.8605
  557MOL0     H73508   6.789   3.046   7.133  0.9773  0.7675  0.3978
  557MOL0     H73509   7.024   2.995   7.069 -0.5210 -0.0721  0.5835
  557MOL0     H73510   6.518   3.640   5.720  2.4970  0.4851  1.7202
  557MOL0     H73511   6.424   3.774   5.895 -2.9309 -0.3316 -1.2141
  557MOL0     H73512   6.231   3.918   6.190  2.1083  1.1909 -0.2090
  557MOL0     H73513   6.158   4.090   6.349 -1.5940 -0.9642 -1.6730
  557MOL0     H73514   6.325   4.075   6.815  0.5743  0.2048 -0.6343
  557MOL0     H73515   6.208   3.955   6.772  1.9378 -1.6981  0.4562
  557MOL0     H73516   6.037   4.080   6.856 -1.6317  1.9037 -1.2630
  557MOL0     H73517   6.176   4.162   6.938  0.6271 -2.6270  0.5499
  557MOL0     H73518   6.046   4.261   6.669  2.9415  3.8793 -1.6423
  557MOL0     H73519   6.184   4.318   6.744  0.7344 -3.2421 -1.3029
  557MOL0     H73520   5.906   4.320   6.862  1.1466 -2.7211 -0.1195
  557MOL0     H73521   6.037   4.382   6.953 -1.1770 -1.8358  0.4232
  557MOL0     H73522   6.011   4.711   6.698 -0.6890 -1.2739 -2.2198
  557MOL0     H73523   6.341   3.856   6.668 -0.5971  2.9094  1.1723
  557MOL0     H73524   6.449   3.710   6.501  0.6614  0.3682  1.3180
  558MOL0     O73525  10.459  10.190   8.338 -0.4021  0.4951 -0.3483
  558MOL0     C73526  10.482  10.207   8.461 -0.2554  0.8518 -0.4967
  558MOL0     O73527  10.384  10.234   8.560  0.2010  0.9341 -0.1383
  558MOL0     C73528  10.258  10.275   8.540  0.6483  0.4895 -1.4915
  558MOL0     C73529  10.194  10.293   8.414 -0.4709  0.5120 -0.8313
  558MOL0     C73530  10.079  10.360   8.407 -0.4313  0.0037  0.1842
  558MOL0     C73531  10.002  10.399   8.518 -0.8951  1.1317 -0.0127
  558MOL0     O73532   9.893  10.468   8.508  0.1477  0.0811 -0.1325
  558MOL0     C73533   9.806  10.449   8.394  0.2054  0.1719 -0.2268
  558MOL0     C73534   9.660  10.467   8.424  1.6872 -0.5321 -0.3952
  558MOL0     C73535   9.587  10.556   8.324  0.0688  0.1068  0.4387
  558MOL0     C73536   9.559  10.485   8.198 -0.2652  0.4558  0.4256
  558MOL0     C73537   9.447  10.548   8.116  0.6599 -0.2970 -1.1890
  558MOL0     C73538   9.440  10.470   7.990 -0.0940 -0.8386  0.8278
  558MOL0     C73539   9.306  10.512   7.912 -0.2963  0.3383 -0.2452
  558MOL0     C73540   9.313  10.469   7.759 -0.4938  0.2393  0.3821
  558MOL0     N73541   9.316  10.325   7.754  0.5228 -0.0036  0.2633
  558MOL0     C73542   9.223  10.227   7.785  1.1217 -0.5092  0.4755
  558MOL0     C73543   9.273  10.110   7.733 -0.5696 -0.1576 -1.1543
  558MOL0     C73544   9.221   9.969   7.749 -0.0618 -0.4564  0.2619
  558MOL0     C73545   9.139   9.957   7.875 -0.5776 -0.4382 -0.7218
  558MOL0     C73546   9.070   9.825   7.867 -0.7288  0.3876 -0.1919
  558MOL0     C73547   8.942   9.842   7.782  0.0762  0.1379  0.0196
  558MOL0     O73548   8.919   9.737   7.680  0.0105 -0.2245  0.4050
  558MOL0     C73549   8.919   9.602   7.725  0.5900 -0.0338  0.4230
  558MOL0     C73550   8.837   9.547   7.824 -0.3228 -0.0015  0.4451
  558MOL0     C73551   8.849   9.411   7.871 -0.0455  0.3956  0.1937
  558MOL0     C73552   8.950   9.335   7.814  0.4652  0.0561 -0.9851
  558MOL0     C73553   8.961   9.198   7.860 -0.0869  0.0749  0.5452
  558MOL0     O73554   8.876   9.148   7.957 -0.8464 -0.5306  0.4944
  558MOL0     C73555   8.912   9.020   8.002  0.4277 -0.4185  0.0413
  558MOL0     C73556   9.031   8.975   8.057 -0.0186  0.3836 -0.2568
  558MOL0     C73557   9.048   8.849   8.121  0.2871 -0.0299  0.2499
  558MOL0     C73558   8.939   8.758   8.123  0.5543 -0.0972 -0.2419
  558MOL0     O73559   8.959   8.637   8.183 -0.2317  0.0108  0.4408
  558MOL0     C73560   9.078   8.608   8.252 -0.3713  0.3280 -0.0265
  558MOL0     C73561   9.103   8.666   8.391  0.5188  0.2017  0.2448
  558MOL0     C73562   9.179   8.565   8.481 -0.7454  0.4204  0.8390
  558MOL0     C73563   9.225   8.637   8.605 -0.6283 -0.1217  0.1942
  558MOL0     C73564   9.306   8.541   8.687 -0.1031  0.3994 -0.1304
  558MOL0     C73565   9.336   8.586   8.829 -0.7464 -0.2344  0.3744
  558MOL0     C73566   9.390   8.487   8.926  0.3672  0.4591  0.9119
  558MOL0     C73567   9.396   8.528   9.076  0.3187 -0.2235 -1.0876
  558MOL0    Cl73568   9.488   8.396   9.159 -0.2239 -0.1198  0.0793
  558MOL0     C73569   8.818   8.796   8.065 -0.1087 -0.4725 -0.1925
  558MOL0     C73570   8.809   8.924   8.012  0.0910 -0.8607  0.5814
  558MOL0     O73571   9.043   9.125   7.803 -0.4531 -0.1633 -0.6525
  558MOL0     C73572   9.023   9.394   7.717  0.6606  0.7120  0.0989
  558MOL0     C73573   9.010   9.523   7.674  0.1742  0.0656  1.1584
  558MOL0     N73574   9.397  10.135   7.672  0.5442  0.2610  0.0073
  558MOL0     N73575   9.418  10.254   7.696  0.9023 -0.2761 -0.3299
  558MOL0     C73576  10.065  10.377   8.645 -0.7097  0.5659  0.5195
  558MOL0     C73577  10.186  10.316   8.656  0.9671  0.4130 -0.2669
  558MOL0     C73578  10.623  10.230   8.484  0.6939  0.3081 -0.5602
  558MOL0     C73579  10.664  10.278   8.606 -1.0963 -0.2123 -1.1636
  558MOL0     C73580  10.805  10.292   8.628 -0.1321 -0.0405  0.0895
  558MOL0     C73581  10.903  10.250   8.536  0.7866  0.3105  0.3293
  558MOL0     O73582  11.037  10.238   8.563 -0.0429  0.7605 -0.0713
  558MOL0     C73583  11.090  10.285   8.680 -0.1053  0.0823 -0.4527
  558MOL0     C73584  11.240  10.270   8.661  0.3627  0.3170 -0.1831
  558MOL0     C73585  11.306  10.315   8.800 -0.5052 -0.8237 -0.2165
  558MOL0     C73586  11.291  10.232   8.926  0.3499 -0.7745 -0.6463
  558MOL0     C73587  11.308  10.091   8.895 -1.0730 -0.1268  0.4780
  558MOL0     C73588  11.306   9.972   8.871  0.1882  0.4169 -0.7001
  558MOL0     C73589  10.857  10.210   8.411 -0.3662  0.2709 -1.0442
  558MOL0     C73590  10.721  10.196   8.392 -0.6679  1.0003  0.1339
  558MOL0     H73591  10.241  10.298   8.316  1.0902  1.7714 -0.0706
  558MOL0     H73592  10.036  10.400   8.316 -2.5031  1.2515  1.6212
  558MOL0     H73593   9.831  10.355   8.344  2.3194  1.3716 -1.5599
  558MOL0     H73594   9.839  10.520   8.318  2.3378 -1.0300 -0.5193
  558MOL0     H73595   9.648  10.515   8.522 -0.8851 -3.0007  0.6327
  558MOL0     H73596   9.604  10.375   8.440  0.2717 -0.0968 -2.4963
  558MOL0     H73597   9.641  10.648   8.299  0.6764  0.1545  1.8526
  558MOL0     H73598   9.496  10.602   8.363  0.0527 -1.3220  2.2102
  558MOL0     H73599   9.651  10.489   8.139 -0.8200  1.1290 -0.4052
  558MOL0     H73600   9.542  10.380   8.221  2.4914 -0.1025  0.2823
  558MOL0     H73601   9.469  10.653   8.091 -3.0992  0.7563 -0.7437
  558MOL0     H73602   9.355  10.552   8.175  2.3383  1.5832  1.5560
  558MOL0     H73603   9.456  10.363   8.002 -0.3608 -0.9482  0.2242
  558MOL0     H73604   9.520  10.500   7.922 -0.7704 -2.2049 -0.6124
  558MOL0     H73605   9.224  10.465   7.967 -2.2309  0.9301 -2.4459
  558MOL0     H73606   9.296  10.621   7.912 -1.2883  0.2590 -0.0872
  558MOL0     H73607   9.409  10.502   7.719 -0.9459  0.8101 -0.2743
  558MOL0     H73608   9.225  10.495   7.699 -0.1650 -0.6889 -0.5515
  558MOL0     H73609   9.128  10.242   7.836  1.5999  2.4334  0.6573
  558MOL0     H73610   9.299   9.893   7.743 -0.5582 -0.9797  0.4248
  558MOL0     H73611   9.154   9.955   7.664 -2.4965  0.6919  1.8665
  558MOL0     H73612   9.067  10.037   7.894  2.8747  2.3273  2.0685
  558MOL0     H73613   9.201   9.945   7.964  0.3078  0.1163 -1.2506
  558MOL0     H73614   9.139   9.755   7.821 -3.0628 -2.3934  0.2301
  558MOL0     H73615   9.040   9.782   7.963 -1.2673 -2.1546 -1.4115
  558MOL0     H73616   8.936   9.932   7.721 -2.8527 -0.2135 -0.3750
  558MOL0     H73617   8.857   9.852   7.850  1.8575 -1.9839  2.7716
  558MOL0     H73618   8.757   9.611   7.859  0.0495  1.7467 -1.6743
  558MOL0     H73619   8.783   9.374   7.949 -1.5554  2.6434  0.0828
  558MOL0     H73620   9.122   9.034   8.045 -2.2878  3.7368 -3.1575
  558MOL0     H73621   9.148   8.827   8.156  0.5030  0.8749  0.2096
  558MOL0     H73622   9.165   8.615   8.186  0.7153 -1.1020  1.1868
  558MOL0     H73623   9.067   8.500   8.268 -2.6347  0.8532  3.1191
  558MOL0     H73624   9.008   8.686   8.441  1.3623  1.9326  1.2460
  558MOL0     H73625   9.154   8.761   8.378  0.1026  1.1427  4.1909
  558MOL0     H73626   9.266   8.526   8.426  0.8974  2.5539  1.7678
  558MOL0     H73627   9.129   8.470   8.502 -1.7587  0.5344 -0.8240
  558MOL0     H73628   9.290   8.723   8.586  1.1940 -0.2947  4.5010
  558MOL0     H73629   9.138   8.666   8.665 -1.4152 -0.7029 -0.6285
  558MOL0     H73630   9.394   8.520   8.626 -1.5816  1.5111 -2.8225
  558MOL0     H73631   9.241   8.455   8.706 -0.7348  0.9334  0.1634
  558MOL0     H73632   9.240   8.619   8.870  0.1045  0.2779  2.0416
  558MOL0     H73633   9.391   8.680   8.828  1.4863 -1.4152  2.5741
  558MOL0     H73634   9.335   8.393   8.924  0.5055  0.3390  1.9375
  558MOL0     H73635   9.495   8.469   8.900  0.6920  0.4055  2.1761
  558MOL0     H73636   9.292   8.524   9.111 -0.5518 -0.7709 -3.5618
  558MOL0     H73637   9.445   8.624   9.096 -2.5328  0.6555  3.0824
  558MOL0     H73638   8.733   8.728   8.062  0.2310 -0.9046 -3.3819
  558MOL0     H73639   8.707   8.956   7.994  0.9039  1.4943 -0.1670
  558MOL0     H73640   9.100   9.338   7.664 -1.1677 -1.6716 -0.1879
  558MOL0     H73641   9.084   9.557   7.603 -0.2656  0.5213  0.9140
  558MOL0     H73642  10.036  10.430   8.735  1.6409  2.8554  0.0454
  558MOL0     H73643  10.233  10.303   8.753  1.0208 -1.8765 -0.5560
  558MOL0     H73644  10.593  10.312   8.680 -1.5039  2.2929 -2.6045
  558MOL0     H73645  10.842  10.325   8.724 -1.1017  4.4988 -0.8673
  558MOL0     H73646  11.054  10.229   8.766 -2.2942  1.5281 -0.3540
  558MOL0     H73647  11.053  10.386   8.704 -0.0077  0.1853 -0.7253
  558MOL0     H73648  11.267  10.165   8.646  0.2755 -0.0764  2.0544
  558MOL0     H73649  11.288  10.320   8.577  2.1014 -3.3796 -1.5830
  558MOL0     H73650  11.267  10.414   8.822  2.7402 -0.3720  5.3494
  558MOL0     H73651  11.414  10.334   8.792 -0.3289 -0.1479  2.8076
  558MOL0     H73652  11.365  10.271   8.996 -0.8166  1.5230 -0.5913
  558MOL0     H73653  11.195  10.246   8.978  1.0268  1.2367  0.1555
  558MOL0     H73654  11.292   9.868   8.852 -0.4045  0.1672  0.9506
  558MOL0     H73655  10.918  10.177   8.327  1.1458 -0.0550  0.1458
  558MOL0     H73656  10.700  10.136   8.303  1.5465 -1.8926  1.4019
  559MOL0     O73657  10.167   2.939   1.561 -0.7207  0.4630 -1.4139
  559MOL0     C73658  10.166   2.833   1.620 -0.2475  0.7603 -0.2481
  559MOL0     O73659  10.071   2.788   1.701 -0.6616 -0.2304  0.1040
  559MOL0     C73660   9.951   2.856   1.699 -0.0943 -0.8957 -0.3839
  559MOL0     C73661   9.904   2.911   1.825  0.1022  0.8066  0.5458
  559MOL0     C73662   9.769   2.945   1.826 -0.7980 -0.1384 -0.7113
  559MOL0     C73663   9.689   2.963   1.708  1.2249  0.6617 -0.3588
  559MOL0     O73664   9.562   3.015   1.708  0.1987  0.1362 -0.0087
  559MOL0     C73665   9.497   3.050   1.830  0.7258 -0.3009  0.3079
  559MOL0     C73666   9.370   3.127   1.799  0.1005  0.3754 -0.0102
  559MOL0     C73667   9.269   3.125   1.910  0.2616  0.6000 -0.5404
  559MOL0     C73668   9.140   3.191   1.873 -0.8422 -0.8694 -0.2477
  559MOL0     C73669   9.154   3.336   1.827  0.5426  0.1434 -0.5094
  559MOL0     C73670   9.021   3.411   1.864  0.7672  0.3798 -0.0907
  559MOL0     C73671   9.025   3.564   1.818 -0.4131  0.1309 -0.6096
  559MOL0     C73672   9.000   3.584   1.670  0.6783 -0.8154 -0.1630
  559MOL0     N73673   9.029   3.723   1.638  0.5678 -1.5150 -0.3488
  559MOL0     C73674   8.941   3.821   1.604  0.5085  0.2276 -0.4014
  559MOL0     C73675   9.014   3.933   1.590 -0.2432  0.7433  0.2302
  559MOL0     C73676   8.960   4.066   1.545  0.5330 -0.3614  0.7398
  559MOL0     C73677   9.003   4.098   1.399  0.2974  0.5415 -0.4194
  559MOL0     C73678   9.155   4.085   1.363 -0.7193 -0.1141  0.6393
  559MOL0     C73679   9.254   4.145   1.462  0.0071  0.1929 -0.3413
  559MOL0     O73680   9.379   4.157   1.383 -1.4197 -0.7280  0.2849
  559MOL0     C73681   9.494   4.188   1.455 -0.0233  0.7869 -1.0606
  559MOL0     C73682   9.621   4.180   1.392  1.2132  0.6613 -0.6847
  559MOL0     C73683   9.741   4.210   1.453  0.0172 -0.5043 -0.5454
  559MOL0     C73684   9.742   4.253   1.588 -0.4323 -0.1770 -0.2041
  559MOL0     C73685   9.852   4.280   1.669  0.0262 -0.6864 -0.0883
  559MOL0     O73686   9.824   4.354   1.783 -0.2774 -0.3144 -0.3094
  559MOL0     C73687   9.927   4.412   1.861  0.0495  0.6139 -0.6355
  559MOL0     C73688   9.895   4.447   1.992  1.2625  0.2003 -0.7982
  559MOL0     C73689   9.991   4.518   2.067  0.2641  0.7184 -0.1489
  559MOL0     C73690  10.122   4.552   2.025 -0.2600  0.4795 -0.3769
  559MOL0     O73691  10.212   4.627   2.106 -0.6103  0.3738  0.5568
  559MOL0     C73692  10.353   4.614   2.078 -0.4480  0.2778 -0.0450
  559MOL0     C73693  10.436   4.685   2.186  0.4652 -0.1499 -1.2214
  559MOL0     C73694  10.398   4.834   2.199 -0.5469  0.3700  0.1190
  559MOL0     C73695  10.472   4.908   2.089 -0.5401 -0.0648  0.2262
  559MOL0     C73696  10.437   5.049   2.089 -0.9977 -1.1666  0.2213
  559MOL0     C73697  10.522   5.135   1.993 -0.0936 -0.4272  0.2433
  559MOL0     C73698  10.530   5.282   2.029  0.3845 -0.9772 -0.0452
  559MOL0     C73699  10.609   5.369   1.929 -0.2399 -0.6280 -0.1410
  559MOL0    Cl73700  10.602   5.297   1.758  0.4172  0.4047  0.4427
  559MOL0     C73701  10.152   4.508   1.894 -0.4859  1.2603 -0.4992
  559MOL0     C73702  10.056   4.435   1.820 -0.0103 -0.4206 -0.1837
  559MOL0     O73703   9.959   4.231   1.636  0.4959 -0.1286 -0.2885
  559MOL0     C73704   9.614   4.265   1.650  0.6590  0.3747  0.4817
  559MOL0     C73705   9.491   4.235   1.587 -0.2060  0.4975  0.0785
  559MOL0     N73706   9.138   3.901   1.628 -0.2494 -0.2859 -0.3824
  559MOL0     N73707   9.142   3.778   1.651 -0.2330 -0.0190  0.2220
  559MOL0     C73708   9.746   2.935   1.590 -0.5716  0.3731  1.2005
  559MOL0     C73709   9.874   2.872   1.583 -0.6472 -0.0053 -0.6920
  559MOL0     C73710  10.289   2.755   1.605  0.1961  0.0723  0.9114
  559MOL0     C73711  10.380   2.801   1.500  0.3535 -0.3550  0.4182
  559MOL0     C73712  10.507   2.735   1.508 -0.6156 -0.0953 -0.5887
  559MOL0     C73713  10.545   2.643   1.605  1.0229  0.3174 -0.8358
  559MOL0     O73714  10.672   2.608   1.598 -0.4205  0.0357  0.5322
  559MOL0     C73715  10.729   2.517   1.688 -0.8742  0.4314 -0.3641
  559MOL0     C73716  10.752   2.376   1.638 -0.4054 -0.4257  0.2197
  559MOL0     C73717  10.811   2.296   1.749 -0.2971  0.5622 -0.2445
  559MOL0     C73718  10.838   2.148   1.720  0.3585  0.4046 -0.6770
  559MOL0     C73719  10.721   2.062   1.721  0.2184  0.5784 -1.7973
  559MOL0     C73720  10.614   2.003   1.734 -1.0792 -0.1630 -0.2968
  559MOL0     C73721  10.445   2.590   1.689 -0.7442  0.6719  0.0626
  559MOL0     C73722  10.325   2.648   1.688  0.0291  0.0497 -0.2194
  559MOL0     H73723   9.968   2.916   1.913 -0.1948  0.6179  0.7747
  559MOL0     H73724   9.728   2.973   1.922 -0.0069 -0.9224 -0.1313
  559MOL0     H73725   9.571   3.121   1.867  1.5389 -0.2889 -1.2597
  559MOL0     H73726   9.469   2.975   1.904 -0.2968  1.6649  2.0169
  559MOL0     H73727   9.318   3.070   1.722  2.5996 -1.4701 -0.4410
  559MOL0     H73728   9.394   3.223   1.753 -1.5649 -1.3882 -5.2017
  559MOL0     H73729   9.315   3.191   1.984  2.2514  0.3790 -1.4917
  559MOL0     H73730   9.255   3.037   1.973  0.0602  0.5820 -0.6094
  559MOL0     H73731   9.096   3.130   1.793  0.5229 -1.9859 -0.1775
  559MOL0     H73732   9.080   3.200   1.964 -0.5301  0.8539 -0.1778
  559MOL0     H73733   9.167   3.342   1.718  1.6028 -1.3717 -0.4981
  559MOL0     H73734   9.240   3.394   1.860 -0.2391  1.6816 -1.0663
  559MOL0     H73735   9.003   3.401   1.971  0.2168 -1.0327 -0.2913
  559MOL0     H73736   8.934   3.367   1.815  2.2874 -1.5625 -1.2202
  559MOL0     H73737   8.950   3.623   1.872  0.0555 -1.2035  1.6617
  559MOL0     H73738   9.117   3.616   1.844 -1.8469  1.7712  1.5823
  559MOL0     H73739   8.894   3.560   1.659  0.8639 -2.4262  1.2358
  559MOL0     H73740   9.057   3.519   1.604  3.0219  2.3051 -1.4612
  559MOL0     H73741   8.835   3.799   1.602  0.2494  1.3778 -3.0635
  559MOL0     H73742   8.986   4.147   1.614  1.1454 -0.2403  0.3787
  559MOL0     H73743   8.851   4.058   1.539  0.5295  0.1063  0.0581
  559MOL0     H73744   8.976   4.204   1.393 -1.2210  0.3441  1.6357
  559MOL0     H73745   8.955   4.024   1.334  4.0360 -2.7112  0.1483
  559MOL0     H73746   9.186   3.980   1.356  0.4128  0.2304  0.3519
  559MOL0     H73747   9.167   4.128   1.263 -1.3944  0.9756  1.0097
  559MOL0     H73748   9.268   4.089   1.555  2.2485 -0.7141 -1.1473
  559MOL0     H73749   9.227   4.248   1.485 -1.8504 -0.2734 -0.3300
  559MOL0     H73750   9.620   4.131   1.295  0.4231  0.6806 -0.6867
  559MOL0     H73751   9.834   4.199   1.398  2.1458 -1.3631  2.9158
  559MOL0     H73752   9.794   4.433   2.029  0.8610 -0.2544 -2.0226
  559MOL0     H73753   9.969   4.554   2.167  2.2060 -1.1595  1.0447
  559MOL0     H73754  10.378   4.646   1.976 -1.4854  1.1274 -0.0456
  559MOL0     H73755  10.382   4.509   2.074  0.4568  0.3697 -6.2785
  559MOL0     H73756  10.543   4.672   2.167  0.9744  2.6789 -0.7227
  559MOL0     H73757  10.417   4.633   2.280 -0.8914  0.0419 -1.3628
  559MOL0     H73758  10.435   4.875   2.293  1.0785  1.2193 -0.8404
  559MOL0     H73759  10.291   4.855   2.205 -0.1114  2.5455  1.4018
  559MOL0     H73760  10.578   4.894   2.114 -0.1145 -2.7669 -2.4045
  559MOL0     H73761  10.456   4.856   1.994 -1.5098  3.2508 -1.5489
  559MOL0     H73762  10.454   5.095   2.187 -1.1555  1.4111 -0.8660
  559MOL0     H73763  10.331   5.067   2.066 -0.6912 -0.1553 -0.4870
  559MOL0     H73764  10.492   5.118   1.889  5.6202  1.0489 -2.0223
  559MOL0     H73765  10.619   5.086   2.011 -0.2914 -1.3873 -1.1259
  559MOL0     H73766  10.431   5.328   2.032  2.5627  4.4386  0.8063
  559MOL0     H73767  10.574   5.312   2.125  2.7164  2.5377 -2.0145
  559MOL0     H73768  10.716   5.364   1.955 -0.0898 -1.2863 -0.8389
  559MOL0     H73769  10.577   5.473   1.927 -0.1375 -0.6010 -0.7349
  559MOL0     H73770  10.253   4.528   1.860  1.9824 -1.3200  4.2792
  559MOL0     H73771  10.083   4.413   1.717 -0.4503  0.5706 -0.5237
  559MOL0     H73772   9.598   4.290   1.755 -2.7922 -0.7842  0.3701
  559MOL0     H73773   9.397   4.246   1.640 -0.2282  1.8372 -0.2105
  559MOL0     H73774   9.690   2.948   1.498  0.9301 -0.6828  0.0829
  559MOL0     H73775   9.909   2.839   1.486 -3.2679 -0.7365 -1.4848
  559MOL0     H73776  10.352   2.877   1.428 -0.6808 -1.2453 -0.1408
  559MOL0     H73777  10.592   2.751   1.442  0.2875  0.9352  0.7553
  559MOL0     H73778  10.688   2.523   1.789 -1.3853 -1.2468 -0.4487
  559MOL0     H73779  10.834   2.547   1.697 -1.0478  1.1922 -0.8307
  559MOL0     H73780  10.653   2.344   1.605 -0.7114 -0.2222  0.9121
  559MOL0     H73781  10.828   2.383   1.559  1.1633  0.3498  1.7139
  559MOL0     H73782  10.743   2.314   1.833  1.6342  1.2388  1.2443
  559MOL0     H73783  10.907   2.339   1.777  1.0536 -2.4119 -0.0196
  559MOL0     H73784  10.874   2.144   1.617  0.5754 -1.5161 -0.5558
  559MOL0     H73785  10.914   2.111   1.790 -2.5530 -0.4152  2.3400
  559MOL0     H73786  10.523   1.949   1.750 -1.4103  0.5062  0.1361
  559MOL0     H73787  10.472   2.500   1.742  1.5628 -0.1059 -2.2412
  559MOL0     H73788  10.255   2.602   1.758  1.1902  1.8496  2.2568
  560MOL0     O73789   6.554   4.513   8.661  0.1871  0.8562 -0.2925
  560MOL0     C73790   6.512   4.401   8.687  0.4275 -0.2864  0.5167
  560MOL0     O73791   6.412   4.376   8.780 -0.4886 -0.4526 -0.1271
  560MOL0     C73792   6.362   4.470   8.871 -0.6302  0.1495  0.1940
  560MOL0     C73793   6.301   4.600   8.844 -0.5782  0.8091  0.3565
  560MOL0     C73794   6.261   4.681   8.948 -0.1084  0.5284 -0.5692
  560MOL0     C73795   6.236   4.630   9.081 -0.4041 -0.0178 -0.4294
  560MOL0     O73796   6.191   4.697   9.198 -0.2550 -0.2883  0.7984
  560MOL0     C73797   6.102   4.806   9.181 -0.6913  0.2037  0.5697
  560MOL0     C73798   6.053   4.847   9.318  0.2752  0.0612  0.2735
  560MOL0     C73799   6.154   4.858   9.428  0.2610  0.2212 -0.4723
  560MOL0     C73800   6.076   4.933   9.546  0.0346  0.9681 -0.5084
  560MOL0     C73801   6.125   4.877   9.675  0.4191 -0.0135 -0.1902
  560MOL0     C73802   6.271   4.931   9.694  0.4523  0.1229  0.7446
  560MOL0     C73803   6.333   4.918   9.835  0.6560 -0.2008  0.7231
  560MOL0     C73804   6.317   4.777   9.884 -0.3355 -0.5585 -1.0754
  560MOL0     N73805   6.395   4.745  10.007  0.3985 -0.6948  1.3618
  560MOL0     C73806   6.369   4.789  10.133  0.5727 -0.1885 -0.5858
  560MOL0     C73807   6.454   4.724  10.216  0.4413 -0.1766  0.1255
  560MOL0     C73808   6.455   4.745  10.365  0.3084 -0.4820 -0.8488
  560MOL0     C73809   6.369   4.634  10.431 -0.5065 -0.1796 -0.7289
  560MOL0     C73810   6.217   4.633  10.417 -0.7450  0.4174  0.8950
  560MOL0     C73811   6.146   4.510  10.485 -0.2092  0.0643 -0.2382
  560MOL0     O73812   6.172   4.520  10.627 -0.9102 -0.3867  0.2221
  560MOL0     C73813   6.080   4.443  10.704 -0.8135  0.0235 -0.6499
  560MOL0     C73814   6.111   4.312  10.733 -0.1754 -0.5829  1.4624
  560MOL0     C73815   6.038   4.243  10.831  1.4181 -0.1048 -0.3513
  560MOL0     C73816   5.946   4.309  10.903  0.9520  0.4190 -0.0887
  560MOL0     C73817   5.865   4.237  11.009  0.5427  0.6392 -0.1909
  560MOL0     O73818   5.751   4.290  11.053  0.5546 -0.1193 -0.5501
  560MOL0     C73819   5.667   4.214  11.137 -0.3168 -0.5106 -0.0659
  560MOL0     C73820   5.541   4.174  11.086  0.4966  0.4767  0.3423
  560MOL0     C73821   5.449   4.097  11.163  0.7582 -0.3200  0.2486
  560MOL0     C73822   5.481   4.062  11.292 -0.2150  0.0426 -0.4422
  560MOL0     O73823   5.388   3.981  11.363 -0.4572 -0.7577  0.3501
  560MOL0     C73824   5.404   3.953  11.502  0.7657 -0.3632 -0.6536
  560MOL0     C73825   5.291   3.863  11.540 -0.5917 -0.5095 -0.6324
  560MOL0     C73826   5.156   3.942  11.571 -0.3089  0.5901  0.5005
  560MOL0     C73827   5.035   3.845  11.573  0.6169 -0.5465 -0.2358
  560MOL0     C73828   4.916   3.899  11.657 -0.0379 -0.4341  0.4880
  560MOL0     C73829   4.822   3.777  11.686 -0.1631 -0.9114 -0.2538
  560MOL0     C73830   4.762   3.689  11.574  0.0187 -0.7708 -0.6736
  560MOL0     C73831   4.689   3.770  11.472 -0.2144 -0.6625 -1.0540
  560MOL0    Cl73832   4.519   3.832  11.530 -0.1708  0.0827 -0.4649
  560MOL0     C73833   5.618   4.091  11.334  0.3589  0.3886 -0.5879
  560MOL0     C73834   5.709   4.167  11.257  0.4723 -0.4809  0.1861
  560MOL0     O73835   5.898   4.113  11.022 -0.3821  0.5377  0.8631
  560MOL0     C73836   5.915   4.444  10.874  0.0714  0.1578  0.6969
  560MOL0     C73837   5.983   4.508  10.771  0.8063 -0.8622  0.5793
  560MOL0     N73838   6.531   4.646  10.143  0.2349  0.3629  0.0283
  560MOL0     N73839   6.489   4.654  10.024 -0.4180 -0.0502 -0.6750
  560MOL0     C73840   6.269   4.497   9.097 -0.0229  0.6758 -0.0179
  560MOL0     C73841   6.332   4.416   8.994  0.0439  0.3248 -0.4240
  560MOL0     C73842   6.569   4.283   8.623  0.8194  0.3068  0.7818
  560MOL0     C73843   6.530   4.153   8.660  0.4084  0.3008  0.4755
  560MOL0     C73844   6.574   4.039   8.586 -0.6258  0.8298 -0.1168
  560MOL0     C73845   6.672   4.061   8.473  0.5345  0.1714  1.2772
  560MOL0     O73846   6.711   3.966   8.377  0.6315  0.3800 -0.6054
  560MOL0     C73847   6.690   3.821   8.399  0.7945  0.2869  1.0752
  560MOL0     C73848   6.779   3.748   8.292 -0.5401  0.4052  0.9295
  560MOL0     C73849   6.741   3.596   8.275 -1.2117 -0.5886  1.3975
  560MOL0     C73850   6.792   3.511   8.391 -1.4671 -0.5976 -0.0377
  560MOL0     C73851   6.735   3.377   8.391  0.6036 -0.2909  0.4036
  560MOL0     C73852   6.667   3.276   8.411 -0.2160 -0.2088 -0.5656
  560MOL0     C73853   6.710   4.193   8.453  0.9956 -0.2182 -0.0492
  560MOL0     C73854   6.666   4.303   8.531 -0.6608 -0.2130  0.4865
  560MOL0     H73855   6.304   4.634   8.741 -1.2553 -0.4907 -0.1114
  560MOL0     H73856   6.232   4.783   8.925 -1.3686  0.8237  1.9241
  560MOL0     H73857   6.018   4.777   9.118 -1.0361  2.8425 -0.3134
  560MOL0     H73858   6.172   4.875   9.134  3.2234 -4.6913 -1.6967
  560MOL0     H73859   5.991   4.764   9.351  0.1211  0.1365  0.1722
  560MOL0     H73860   5.994   4.939   9.317 -0.6943 -0.5536 -0.6642
  560MOL0     H73861   6.255   4.897   9.410  0.5227  1.6216  3.1588
  560MOL0     H73862   6.180   4.753   9.446 -2.1582 -0.5336 -1.0666
  560MOL0     H73863   6.091   5.040   9.534  3.4120  0.7091  0.5036
  560MOL0     H73864   5.968   4.916   9.545  0.5011 -2.8287 -0.5434
  560MOL0     H73865   6.118   4.769   9.692  0.9863  0.0343  0.4088
  560MOL0     H73866   6.055   4.918   9.749  0.0793 -2.2200  0.7738
  560MOL0     H73867   6.267   5.039   9.678  1.2789 -0.0005 -0.5221
  560MOL0     H73868   6.350   4.894   9.627  1.2689 -2.9316  3.1531
  560MOL0     H73869   6.433   4.961   9.843  0.5004  0.5949 -0.9868
  560MOL0     H73870   6.279   4.976   9.911 -0.2203 -3.0975  2.4639
  560MOL0     H73871   6.356   4.719   9.800 -4.0091 -4.7225 -0.2819
  560MOL0     H73872   6.214   4.749   9.909 -0.7556  1.4851 -0.3488
  560MOL0     H73873   6.296   4.860  10.171 -0.2585 -2.0701  1.5697
  560MOL0     H73874   6.425   4.850  10.377  1.3814  0.2137 -3.4892
  560MOL0     H73875   6.559   4.727  10.394  0.7390  0.2582 -1.8788
  560MOL0     H73876   6.391   4.642  10.538 -0.1357  2.7558 -0.9316
  560MOL0     H73877   6.403   4.538  10.391  0.0936  1.1183 -3.6577
  560MOL0     H73878   6.183   4.727  10.462  1.9544  1.1426  1.6058
  560MOL0     H73879   6.199   4.627  10.309 -0.0630  1.6394  0.6975
  560MOL0     H73880   6.169   4.412  10.442 -0.6809 -0.8753  1.5819
  560MOL0     H73881   6.038   4.525  10.478 -0.2728 -0.9212 -2.5465
  560MOL0     H73882   6.195   4.266  10.682 -0.1313  0.1220  0.8814
  560MOL0     H73883   6.069   4.139  10.838  0.1889 -0.4086  1.1435
  560MOL0     H73884   5.516   4.202  10.985  0.0010  2.5785  0.9963
  560MOL0     H73885   5.356   4.079  11.111  1.6380  1.3151 -2.0572
  560MOL0     H73886   5.396   4.046  11.559 -3.6924  1.3165 -3.4800
  560MOL0     H73887   5.500   3.904  11.522  1.9308  1.5648 -1.2508
  560MOL0     H73888   5.325   3.817  11.633 -3.1303 -1.0680  0.1004
  560MOL0     H73889   5.266   3.784  11.469 -3.6936  1.8325 -2.4132
  560MOL0     H73890   5.146   4.010  11.485  2.0612 -0.0951 -0.3798
  560MOL0     H73891   5.161   4.002  11.662  4.0197 -1.3838  1.8160
  560MOL0     H73892   5.001   3.818  11.473 -0.4469 -1.2014  0.2837
  560MOL0     H73893   5.072   3.755  11.624  1.5131 -1.0810 -1.7778
  560MOL0     H73894   4.866   3.979  11.601 -2.2875 -0.2802  2.5531
  560MOL0     H73895   4.960   3.940  11.748  1.8690 -0.3459 -0.4228
  560MOL0     H73896   4.734   3.815  11.739 -0.2903 -0.2338 -0.9220
  560MOL0     H73897   4.876   3.720  11.762  3.3931  3.2638  0.7250
  560MOL0     H73898   4.848   3.645  11.522  3.2064  1.4906  2.2477
  560MOL0     H73899   4.702   3.607  11.615  0.8123 -0.9420  0.1731
  560MOL0     H73900   4.667   3.713  11.382 -0.7382 -0.6630 -0.9303
  560MOL0     H73901   4.753   3.854  11.443 -2.8219  0.6148 -3.5372
  560MOL0     H73902   5.665   4.050  11.423 -0.4523  1.4656  0.3629
  560MOL0     H73903   5.814   4.162  11.284  1.5864  1.4499 -3.1821
  560MOL0     H73904   5.831   4.492  10.923 -0.7627  1.9373 -2.2080
  560MOL0     H73905   5.961   4.611  10.745 -0.7595 -1.2662  0.1942
  560MOL0     H73906   6.238   4.442   9.185 -1.3154  1.9533  0.3527
  560MOL0     H73907   6.323   4.310   9.015 -0.3981  0.4180 -0.1237
  560MOL0     H73908   6.465   4.139   8.745 -0.7363 -1.6029 -0.6466
  560MOL0     H73909   6.551   3.937   8.616  3.8044  0.1371  1.7576
  560MOL0     H73910   6.583   3.806   8.389  1.0168 -2.2173  1.7903
  560MOL0     H73911   6.715   3.788   8.501 -2.8326 -2.6605  1.1960
  560MOL0     H73912   6.788   3.788   8.191 -0.0897  1.7101  1.4637
  560MOL0     H73913   6.882   3.756   8.329 -0.1829  3.2494 -0.3968
  560MOL0     H73914   6.775   3.564   8.176 -3.3210 -1.1685  0.8216
  560MOL0     H73915   6.632   3.592   8.264 -1.1763 -1.5382  1.3578
  560MOL0     H73916   6.901   3.496   8.385 -0.9995  2.6587 -1.4728
  560MOL0     H73917   6.769   3.553   8.490  0.5205  1.1301 -0.2247
  560MOL0     H73918   6.631   3.176   8.420 -0.3689 -0.0054  1.5680
  560MOL0     H73919   6.777   4.202   8.368  1.7213  1.5051  0.6563
  560MOL0     H73920   6.707   4.397   8.497  0.9730 -1.5567 -1.5352
  561MOL0     O73921   6.808   5.753   5.535  0.6647 -0.2536  0.1009
  561MOL0     C73922   6.786   5.821   5.432 -0.0710 -0.8761 -0.6922
  561MOL0     O73923   6.689   5.796   5.329  0.1241 -0.1664 -0.0048
  561MOL0     C73924   6.604   5.691   5.342 -0.7336 -0.6977  0.1540
  561MOL0     C73925   6.507   5.698   5.447 -0.1021 -0.1758 -0.2868
  561MOL0     C73926   6.433   5.585   5.470  0.3820  0.3019  0.0326
  561MOL0     C73927   6.457   5.461   5.405 -0.9373  0.0283 -0.2667
  561MOL0     O73928   6.391   5.345   5.431 -0.3848 -0.2178  0.0638
  561MOL0     C73929   6.262   5.364   5.490  0.4036  0.0682 -0.1128
  561MOL0     C73930   6.165   5.245   5.461 -0.3960  0.4242  0.3432
  561MOL0     C73931   6.045   5.283   5.380 -0.0382 -0.2536  0.0047
  561MOL0     C73932   6.093   5.324   5.234  0.4980 -0.3071  0.2544
  561MOL0     C73933   5.993   5.351   5.128  0.5447  0.4412 -0.3276
  561MOL0     C73934   5.874   5.442   5.185  0.5959  0.7637  0.7383
  561MOL0     C73935   5.929   5.579   5.235 -0.0709  0.7831 -0.1130
  561MOL0     C73936   5.981   5.675   5.122 -1.3631 -0.6322 -0.4668
  561MOL0     N73937   6.072   5.785   5.175  0.1201 -0.0208  0.1041
  561MOL0     C73938   6.209   5.801   5.168  0.3320 -0.7291 -0.3185
  561MOL0     C73939   6.233   5.917   5.229  0.7347 -0.0864 -0.2791
  561MOL0     C73940   6.366   5.961   5.255 -0.6084 -0.9201  0.2777
  561MOL0     C73941   6.401   6.099   5.189 -0.3233  0.5138  0.5240
  561MOL0     C73942   6.424   6.082   5.037 -0.7153 -0.4428  1.0899
  561MOL0     C73943   6.493   6.203   4.965 -0.0973 -0.2352  0.3601
  561MOL0     O73944   6.616   6.222   5.028 -0.2298 -0.6475 -0.0431
  561MOL0     C73945   6.665   6.352   5.031 -0.5110 -0.7092 -1.0220
  561MOL0     C73946   6.609   6.473   4.973  0.4038  1.5197  0.0082
  561MOL0     C73947   6.661   6.598   4.995  0.4401 -0.4701  0.3005
  561MOL0     C73948   6.783   6.610   5.068  0.8152 -0.1421  0.2065
  561MOL0     C73949   6.840   6.748   5.104 -0.6320 -0.4431  0.5694
  561MOL0     O73950   6.947   6.754   5.193  1.1545  0.0474 -0.1812
  561MOL0     C73951   7.007   6.874   5.208 -0.7635  0.5474 -0.4385
  561MOL0     C73952   7.044   6.952   5.101 -0.5041  0.2212  0.4861
  561MOL0     C73953   7.110   7.071   5.135  0.0524 -0.4094  0.3500
  561MOL0     C73954   7.160   7.105   5.259  0.0992 -0.5191 -1.2252
  561MOL0     O73955   7.234   7.218   5.286 -0.3133  0.2853  0.3496
  561MOL0     C73956   7.312   7.287   5.188  0.2477 -0.6598 -1.1439
  561MOL0     C73957   7.384   7.422   5.242 -0.0709 -0.3822 -0.2933
  561MOL0     C73958   7.439   7.505   5.121 -0.1526 -0.7515 -0.8490
  561MOL0     C73959   7.472   7.645   5.167 -0.0908  0.5248 -0.5350
  561MOL0     C73960   7.588   7.711   5.083 -0.0136  0.1563  0.1049
  561MOL0     C73961   7.592   7.868   5.107 -0.7730 -1.1074  0.9361
  561MOL0     C73962   7.692   7.930   5.002 -1.6326 -0.3533  0.2480
  561MOL0     C73963   7.757   8.065   5.032  0.4421 -0.6440  0.1609
  561MOL0    Cl73964   7.796   8.168   4.877  0.0069  0.0538  0.1729
  561MOL0     C73965   7.122   7.023   5.364 -0.3764 -0.8962 -0.4655
  561MOL0     C73966   7.036   6.914   5.338 -0.4532 -0.3111 -0.4220
  561MOL0     O73967   6.788   6.845   5.050 -0.3658  0.0655 -0.5957
  561MOL0     C73968   6.844   6.500   5.115 -0.4785  1.0775  0.2899
  561MOL0     C73969   6.794   6.374   5.084  0.9725 -1.2136 -0.7235
  561MOL0     N73970   6.111   5.983   5.266  0.2467  0.0841  0.3442
  561MOL0     N73971   6.018   5.903   5.234  0.6792 -0.2744  0.2699
  561MOL0     C73972   6.556   5.447   5.309  0.3861 -0.2518 -0.3724
  561MOL0     C73973   6.618   5.570   5.265 -0.7552  0.1901 -1.1351
  561MOL0     C73974   6.842   5.965   5.445  0.7288 -0.6349  0.3380
  561MOL0     C73975   6.792   6.064   5.366  0.4091  0.2891  0.4996
  561MOL0     C73976   6.826   6.203   5.386  0.4639 -0.1117 -0.7519
  561MOL0     C73977   6.919   6.230   5.490  0.1599  0.7426  0.1181
  561MOL0     O73978   6.960   6.356   5.506  0.1263 -0.7591  0.8053
  561MOL0     C73979   6.862   6.442   5.584  0.0380 -0.5204 -0.0894
  561MOL0     C73980   6.932   6.588   5.581  0.3400 -0.9046  0.2619
  561MOL0     C73981   7.068   6.584   5.654  0.8847 -0.1272 -0.5401
  561MOL0     C73982   7.143   6.712   5.644  0.6575 -0.1420 -0.3069
  561MOL0     C73983   7.065   6.823   5.720 -0.7963 -0.4363  1.0062
  561MOL0     C73984   7.013   6.897   5.796  0.4826 -0.1396  0.2890
  561MOL0     C73985   6.979   6.131   5.556  0.4941 -0.1901  0.0065
  561MOL0     C73986   6.947   5.998   5.531  0.3301  0.8578  1.3421
  561MOL0     H73987   6.496   5.794   5.495  0.3150  0.2522 -1.0327
  561MOL0     H73988   6.360   5.602   5.548 -1.2201  0.3317 -1.4189
  561MOL0     H73989   6.207   5.457   5.471 -0.3121 -0.3934 -0.3546
  561MOL0     H73990   6.285   5.367   5.597  0.1417 -0.1229 -0.0510
  561MOL0     H73991   6.119   5.213   5.555 -1.5156 -0.4054 -0.4540
  561MOL0     H73992   6.226   5.162   5.424 -1.2592 -0.2567  0.4226
  561MOL0     H73993   5.993   5.368   5.426  1.2595  2.3594 -2.9918
  561MOL0     H73994   5.985   5.192   5.375  0.6661 -0.7175 -0.0664
  561MOL0     H73995   6.155   5.413   5.239 -0.9299  0.6367  3.3175
  561MOL0     H73996   6.147   5.234   5.201 -2.3462 -2.8871  2.0720
  561MOL0     H73997   5.951   5.252   5.104 -1.4944  1.2998 -0.4719
  561MOL0     H73998   6.030   5.399   5.037  1.3444  1.0478  0.3060
  561MOL0     H73999   5.820   5.392   5.266  1.6185 -1.5774  0.0562
  561MOL0     H74000   5.801   5.459   5.105 -0.9126  0.2261  1.9425
  561MOL0     H74001   5.846   5.632   5.282 -1.0935 -0.6077 -0.2757
  561MOL0     H74002   6.002   5.564   5.314  1.5797  3.1150 -1.0934
  561MOL0     H74003   5.907   5.736   5.070  1.2034  4.6655  1.2840
  561MOL0     H74004   6.034   5.612   5.051 -1.3197 -1.3435  0.1859
  561MOL0     H74005   6.270   5.733   5.111  2.1209  0.8508 -0.3782
  561MOL0     H74006   6.443   5.891   5.220  0.3951  0.5077 -0.4805
  561MOL0     H74007   6.378   5.975   5.363  1.1095  1.1060 -0.1094
  561MOL0     H74008   6.499   6.135   5.221  0.5640 -0.9928 -0.3891
  561MOL0     H74009   6.321   6.163   5.227  0.7501  2.0964  0.2012
  561MOL0     H74010   6.487   5.996   5.014  0.1175  0.0478  1.4883
  561MOL0     H74011   6.324   6.083   4.990  0.2081  0.7981 -1.0471
  561MOL0     H74012   6.432   6.294   4.971  1.6304  0.9351  0.9301
  561MOL0     H74013   6.514   6.182   4.860  4.0343  1.7059  0.5901
  561MOL0     H74014   6.521   6.481   4.909  0.0879  1.5203  0.4364
  561MOL0     H74015   6.607   6.686   4.961  0.4211  0.2234  2.0277
  561MOL0     H74016   7.031   6.920   4.997 -0.0593 -1.5535  0.9384
  561MOL0     H74017   7.136   7.139   5.054  1.2649  0.6738  1.5917
  561MOL0     H74018   7.250   7.318   5.103  4.0122  0.0125 -3.9227
  561MOL0     H74019   7.383   7.216   5.144  2.6688  1.1471 -0.3727
  561MOL0     H74020   7.463   7.399   5.314  0.3875  0.2465 -0.5841
  561MOL0     H74021   7.312   7.487   5.294 -1.1496  1.8152 -4.1544
  561MOL0     H74022   7.384   7.517   5.027  1.5349  1.1617 -1.6612
  561MOL0     H74023   7.526   7.448   5.087 -0.1068 -0.1983 -1.6887
  561MOL0     H74024   7.378   7.700   5.151  0.2790  1.0862 -0.7997
  561MOL0     H74025   7.499   7.641   5.272  2.8594 -6.4165 -1.0192
  561MOL0     H74026   7.589   7.709   4.973  4.5672 -3.3150 -0.0467
  561MOL0     H74027   7.680   7.670   5.126 -0.9599 -1.2727  0.8464
  561MOL0     H74028   7.603   7.890   5.214  1.9899  0.6963  0.4049
  561MOL0     H74029   7.492   7.902   5.079 -0.2424  2.0733  2.3386
  561MOL0     H74030   7.773   7.857   4.994 -1.5381 -0.5403  2.2733
  561MOL0     H74031   7.640   7.937   4.906  1.6668 -2.0162 -1.8332
  561MOL0     H74032   7.850   8.046   5.087 -0.5778 -0.2641  2.0933
  561MOL0     H74033   7.683   8.120   5.090  0.3033 -0.9563  0.2847
  561MOL0     H74034   7.162   7.046   5.462  1.3206 -1.0337 -1.0865
  561MOL0     H74035   7.002   6.852   5.420 -0.2057  2.2673  1.7810
  561MOL0     H74036   6.930   6.518   5.179 -2.2008 -1.0739  3.4463
  561MOL0     H74037   6.855   6.290   5.114  0.8909 -1.3995 -1.0704
  561MOL0     H74038   6.578   5.359   5.250 -0.6066 -0.1966 -0.8366
  561MOL0     H74039   6.691   5.560   5.185  0.5940  1.7005 -0.1673
  561MOL0     H74040   6.717   6.049   5.290 -3.4183  2.8544  3.3451
  561MOL0     H74041   6.781   6.274   5.317  3.1847  0.0940 -2.4977
  561MOL0     H74042   6.837   6.398   5.681 -3.8162 -0.7065 -1.0213
  561MOL0     H74043   6.767   6.451   5.532  0.5311 -0.3109 -0.9708
  561MOL0     H74044   6.936   6.617   5.475 -1.9985 -0.3857  0.2726
  561MOL0     H74045   6.858   6.656   5.624 -0.6224 -1.3399 -0.6634
  561MOL0     H74046   7.132   6.511   5.604  0.2184 -1.7229  0.8542
  561MOL0     H74047   7.043   6.559   5.757  0.3896  1.2028 -0.3081
  561MOL0     H74048   7.242   6.687   5.683  1.2629 -2.9441 -3.2486
  561MOL0     H74049   7.161   6.740   5.540  4.5359 -2.0321 -0.3127
  561MOL0     H74050   6.964   6.961   5.866 -1.7915  1.6241 -2.6935
  561MOL0     H74051   7.054   6.137   5.634 -0.4029 -0.2217  0.8950
  561MOL0     H74052   6.996   5.916   5.583 -0.3596  0.1485  0.8976
  562MOL0     O74053   7.452   3.621   7.815 -0.3912 -0.2563 -0.3878
  562MOL0     C74054   7.380   3.641   7.720  0.0820  0.4832  0.3295
  562MOL0     O74055   7.355   3.762   7.669 -0.7879  0.2404  0.2065
  562MOL0     C74056   7.420   3.878   7.723 -0.6024 -0.2041  0.4407
  562MOL0     C74057   7.521   3.924   7.643 -0.3205  0.0807  0.9513
  562MOL0     C74058   7.599   4.040   7.682 -0.1352 -0.4739  0.2308
  562MOL0     C74059   7.568   4.113   7.797 -0.3752 -0.0259  0.9116
  562MOL0     O74060   7.648   4.220   7.826  0.0345  0.7733 -0.7885
  562MOL0     C74061   7.594   4.335   7.882  0.2512  0.0967 -0.1921
  562MOL0     C74062   7.696   4.450   7.871 -0.4698 -0.2357  0.4536
  562MOL0     C74063   7.690   4.520   7.735 -0.7311 -0.6318  0.0499
  562MOL0     C74064   7.777   4.651   7.709  0.2284  0.0086 -0.0586
  562MOL0     C74065   7.773   4.689   7.562  0.5827  0.4933  0.6143
  562MOL0     C74066   7.878   4.813   7.539 -0.3930  0.5725  0.5115
  562MOL0     C74067   7.918   4.836   7.392  0.2821 -0.0213 -0.3123
  562MOL0     C74068   8.005   4.967   7.396  0.2061 -0.7500 -0.0240
  562MOL0     N74069   7.918   5.087   7.433  0.9410  0.2951  0.1403
  562MOL0     C74070   7.820   5.146   7.363 -0.5484 -0.1960  0.6243
  562MOL0     C74071   7.782   5.251   7.443 -0.2284 -0.4281  0.3739
  562MOL0     C74072   7.682   5.367   7.417 -1.3165  0.2367  0.2344
  562MOL0     C74073   7.755   5.508   7.427  0.0584  1.2734 -0.5865
  562MOL0     C74074   7.647   5.606   7.428  0.1368 -0.1044 -0.0031
  562MOL0     C74075   7.704   5.733   7.390 -0.2613 -0.8885 -0.8924
  562MOL0     O74076   7.613   5.845   7.402  0.0090  0.1410 -0.7014
  562MOL0     C74077   7.608   5.910   7.523 -0.1256 -0.0304 -0.7410
  562MOL0     C74078   7.668   5.869   7.638  1.3091 -0.2938  1.4284
  562MOL0     C74079   7.679   5.958   7.746  0.6124 -0.0157  0.5998
  562MOL0     C74080   7.613   6.083   7.744 -0.6770 -0.3659  1.0076
  562MOL0     C74081   7.610   6.171   7.862 -0.1350 -0.8751  0.0363
  562MOL0     O74082   7.598   6.314   7.851  0.3819  0.3273 -0.5076
  562MOL0     C74083   7.574   6.386   7.964 -1.0592 -0.1426 -0.9930
  562MOL0     C74084   7.442   6.430   7.990 -0.1218 -0.9111 -0.1235
  562MOL0     C74085   7.415   6.495   8.116  0.8020  0.7876 -0.1480
  562MOL0     C74086   7.509   6.490   8.220  0.2746 -0.1906 -0.0995
  562MOL0     O74087   7.481   6.527   8.347 -0.5088 -0.2955  0.1180
  562MOL0     C74088   7.455   6.664   8.359 -0.6196 -0.3665  0.0866
  562MOL0     C74089   7.490   6.698   8.498 -0.1085  0.0606  0.2712
  562MOL0     C74090   7.532   6.847   8.508  0.6941 -0.5570 -0.5073
  562MOL0     C74091   7.476   6.907   8.639 -0.3865  0.8520  0.1275
  562MOL0     C74092   7.533   7.047   8.653 -0.0665 -0.1567  0.4170
  562MOL0     C74093   7.482   7.114   8.779  0.0614  0.3769 -0.0377
  562MOL0     C74094   7.529   7.261   8.783  0.3238  0.7383  0.3500
  562MOL0     C74095   7.531   7.302   8.930 -0.6143  0.4640  0.4581
  562MOL0    Cl74096   7.369   7.373   8.991  0.2449 -0.3758  0.3533
  562MOL0     C74097   7.636   6.431   8.195 -0.4656  1.3302  0.2507
  562MOL0     C74098   7.664   6.389   8.067  0.0695 -0.9121  0.3578
  562MOL0     O74099   7.611   6.105   7.968 -0.3007 -0.0300  0.6536
  562MOL0     C74100   7.550   6.124   7.628  0.6248  0.3604  0.2764
  562MOL0     C74101   7.534   6.029   7.520 -0.1806 -0.4913 -0.0452
  562MOL0     N74102   7.847   5.244   7.564  0.6816 -0.6631  0.3790
  562MOL0     N74103   7.940   5.152   7.553  0.4826  0.1265 -0.0132
  562MOL0     C74104   7.469   4.054   7.884 -0.2438  0.3487 -0.5763
  562MOL0     C74105   7.392   3.949   7.841 -0.2598  0.1732  1.1646
  562MOL0     C74106   7.328   3.532   7.641  0.5315 -0.5416  0.2626
  562MOL0     C74107   7.298   3.413   7.700  0.1521 -0.8521  0.0873
  562MOL0     C74108   7.252   3.301   7.617  0.3087 -0.4687  0.0897
  562MOL0     C74109   7.266   3.301   7.480  0.2199 -0.3688 -0.6972
  562MOL0     O74110   7.223   3.191   7.408 -0.0222  0.5030 -0.7075
  562MOL0     C74111   7.322   3.090   7.411 -0.3174  0.7671  0.0852
  562MOL0     C74112   7.322   3.005   7.287 -0.9091  0.6568  0.2243
  562MOL0     C74113   7.417   2.890   7.313  0.1494 -0.2125  0.2481
  562MOL0     C74114   7.412   2.798   7.193  0.1779 -0.4818  0.0438
  562MOL0     C74115   7.470   2.841   7.067 -0.1363 -0.3839  0.0170
  562MOL0     C74116   7.527   2.881   6.965 -0.1465  0.1065 -0.8798
  562MOL0     C74117   7.310   3.418   7.426  0.4736 -0.8305  0.3693
  562MOL0     C74118   7.336   3.534   7.509  0.8070 -0.6174 -0.1008
  562MOL0     H74119   7.558   3.884   7.549  0.7183  0.1888  1.2962
  562MOL0     H74120   7.666   4.083   7.607 -0.0563 -1.6816 -0.4183
  562MOL0     H74121   7.591   4.296   7.984  1.5952 -0.4418 -0.3487
  562MOL0     H74122   7.493   4.348   7.841 -0.6165 -2.2147  1.0421
  562MOL0     H74123   7.798   4.411   7.879  1.1015  2.4770 -3.2523
  562MOL0     H74124   7.683   4.517   7.957 -0.3604 -0.6357  0.7904
  562MOL0     H74125   7.588   4.557   7.717 -0.4942  0.7026  1.2804
  562MOL0     H74126   7.721   4.448   7.658  4.5454 -0.0964  1.3095
  562MOL0     H74127   7.748   4.722   7.787  3.4104 -0.8892  2.1705
  562MOL0     H74128   7.882   4.624   7.724  0.6274  2.0608  1.3389
  562MOL0     H74129   7.672   4.724   7.542 -0.3784 -1.6161  1.4525
  562MOL0     H74130   7.801   4.605   7.498 -0.0941  1.3147 -0.8039
  562MOL0     H74131   7.968   4.790   7.596  0.6343  1.6557 -0.6173
  562MOL0     H74132   7.845   4.910   7.577 -2.5373  0.3289 -0.5570
  562MOL0     H74133   7.976   4.755   7.347 -0.2651 -0.5725 -0.0440
  562MOL0     H74134   7.828   4.835   7.329  0.3611  2.4314 -0.5473
  562MOL0     H74135   8.052   4.975   7.298  1.1127 -1.3152  0.3558
  562MOL0     H74136   8.084   4.947   7.469 -1.2306 -2.1767  1.2355
  562MOL0     H74137   7.791   5.109   7.265  2.4895 -1.6780  0.1710
  562MOL0     H74138   7.597   5.352   7.484 -0.5740 -4.7650  0.4140
  562MOL0     H74139   7.643   5.354   7.315 -2.9110 -1.1046  0.9702
  562MOL0     H74140   7.826   5.512   7.344  4.1125 -2.7303  2.1703
  562MOL0     H74141   7.814   5.520   7.518 -1.7172  1.6864  0.5534
  562MOL0     H74142   7.570   5.587   7.354 -0.3259 -2.8728  1.0692
  562MOL0     H74143   7.595   5.620   7.524  1.5591  0.8658  0.6661
  562MOL0     H74144   7.733   5.726   7.284 -1.1882 -2.1375 -1.0818
  562MOL0     H74145   7.786   5.756   7.459 -2.6066 -1.0715  2.1272
  562MOL0     H74146   7.707   5.772   7.668 -0.6728 -1.0822  1.6051
  562MOL0     H74147   7.717   5.918   7.840  1.5935 -0.8501 -0.1432
  562MOL0     H74148   7.366   6.418   7.913 -1.9404 -0.4215  1.5266
  562MOL0     H74149   7.317   6.538   8.134  2.4689  4.3063  1.4552
  562MOL0     H74150   7.348   6.685   8.346 -0.6616 -0.4260  0.3374
  562MOL0     H74151   7.515   6.715   8.282  1.0646 -1.1870  0.8154
  562MOL0     H74152   7.563   6.634   8.547 -0.0496  1.9760  2.8783
  562MOL0     H74153   7.398   6.683   8.556 -0.7299  1.9145 -0.1538
  562MOL0     H74154   7.494   6.910   8.427  1.3305 -0.9418 -1.1225
  562MOL0     H74155   7.641   6.850   8.504  0.6820  1.9610 -0.4591
  562MOL0     H74156   7.367   6.902   8.644 -0.3374  0.6301  1.4544
  562MOL0     H74157   7.512   6.835   8.714 -0.3082  1.7596  0.9777
  562MOL0     H74158   7.512   7.102   8.561  4.1091  2.1870  0.5898
  562MOL0     H74159   7.643   7.045   8.660  0.2047  2.7079 -1.4262
  562MOL0     H74160   7.506   7.064   8.873  1.2093 -0.6380 -0.8518
  562MOL0     H74161   7.373   7.116   8.767  0.2359  1.1782 -1.9459
  562MOL0     H74162   7.634   7.262   8.750  1.3732 -0.9352  3.3001
  562MOL0     H74163   7.464   7.322   8.719 -1.4063 -2.1416 -0.8282
  562MOL0     H74164   7.608   7.379   8.938 -0.7903  1.1823 -3.1616
  562MOL0     H74165   7.548   7.217   8.997 -4.5854 -0.1298  0.9665
  562MOL0     H74166   7.716   6.417   8.268 -2.2669 -2.4620  1.8026
  562MOL0     H74167   7.762   6.346   8.055  0.2748 -0.3756  0.0667
  562MOL0     H74168   7.509   6.224   7.622 -1.8835 -0.6837 -2.4446
  562MOL0     H74169   7.480   6.054   7.429  1.4860 -1.3584 -1.3238
  562MOL0     H74170   7.452   4.083   7.987  1.0243 -2.8642  0.6641
  562MOL0     H74171   7.316   3.902   7.903  1.1172 -0.7769  2.1698
  562MOL0     H74172   7.290   3.400   7.808  3.4317  2.5627  0.9363
  562MOL0     H74173   7.212   3.218   7.674  0.6424 -0.2413  0.6559
  562MOL0     H74174   7.302   3.039   7.506 -1.4136  1.4466  0.2381
  562MOL0     H74175   7.426   3.116   7.432  0.2606 -0.7101 -0.8039
  562MOL0     H74176   7.230   2.954   7.257  0.2860  0.4320 -3.5562
  562MOL0     H74177   7.354   3.065   7.201  3.8817 -3.5103 -1.3985
  562MOL0     H74178   7.402   2.835   7.406 -0.5278  1.4167  1.1476
  562MOL0     H74179   7.524   2.912   7.302  1.2842 -5.3768 -2.2254
  562MOL0     H74180   7.443   2.698   7.225  1.0004  0.7025  3.4078
  562MOL0     H74181   7.306   2.778   7.175  0.1831 -1.4931  1.0285
  562MOL0     H74182   7.559   2.927   6.874  1.0785  3.7246  1.2069
  562MOL0     H74183   7.316   3.413   7.318 -0.1651  2.1560  0.0922
  562MOL0     H74184   7.350   3.629   7.459 -2.5096  0.1801  0.2715
  563MOL0     O74185   7.036   7.728   0.031 -0.0750 -0.0899  0.6438
  563MOL0     C74186   6.991   7.833   0.081 -0.3096  0.9139  0.4480
  563MOL0     O74187   6.903   7.912   0.019  0.6680 -0.4969 -0.6591
  563MOL0     C74188   6.866   7.879  -0.107 -0.5132 -0.2639 -0.7188
  563MOL0     C74189   6.798   7.751  -0.124 -0.5753  0.3244  0.2276
  563MOL0     C74190   6.768   7.715  -0.257 -0.0027 -0.0845  0.2812
  563MOL0     C74191   6.804   7.791  -0.372 -0.0072 -0.8401 -0.2152
  563MOL0     O74192   6.765   7.763  -0.493  0.3708 -0.0380  0.3924
  563MOL0     C74193   6.828   7.638  -0.549 -0.4663  0.0427 -0.0068
  563MOL0     C74194   6.918   7.662  -0.667 -0.3359  0.7867 -0.1691
  563MOL0     C74195   6.984   7.531  -0.717  0.5819  0.0234 -0.7240
  563MOL0     C74196   6.898   7.436  -0.803  0.2170 -0.0610  0.5060
  563MOL0     C74197   6.942   7.287  -0.807  0.3615  0.4114  1.0900
  563MOL0     C74198   6.861   7.207  -0.922 -0.1699 -0.0405 -1.0852
  563MOL0     C74199   6.951   7.087  -0.969 -0.6935 -1.0641 -1.1165
  563MOL0     C74200   6.888   6.994  -1.070  1.2934  0.9111  0.4547
  563MOL0     N74201   6.799   7.056  -1.166 -0.0865  0.0227 -0.4284
  563MOL0     C74202   6.829   7.101  -1.298 -0.1775  0.2149  0.6047
  563MOL0     C74203   6.716   7.152  -1.346 -0.3539  0.5083  0.1574
  563MOL0     C74204   6.702   7.194  -1.480  0.1356  0.6063 -0.5181
  563MOL0     C74205   6.785   7.312  -1.510  0.6755  0.0188  0.5539
  563MOL0     C74206   6.723   7.434  -1.440  0.6974 -0.9957  1.0246
  563MOL0     C74207   6.781   7.567  -1.497 -0.2497 -0.5787 -0.4595
  563MOL0     O74208   6.923   7.558  -1.466  0.1801  0.0316 -0.2326
  563MOL0     C74209   7.014   7.641  -1.526  0.1075 -0.0288 -0.0312
  563MOL0     C74210   6.990   7.728  -1.634  1.1618 -0.9923 -0.5674
  563MOL0     C74211   7.087   7.786  -1.716  0.2317  0.3395  0.2924
  563MOL0     C74212   7.223   7.761  -1.692 -0.0394  0.2571 -0.3893
  563MOL0     C74213   7.334   7.841  -1.748 -0.1480  0.2240  0.2728
  563MOL0     O74214   7.463   7.798  -1.718  0.2625  0.6746 -0.4549
  563MOL0     C74215   7.575   7.853  -1.773 -0.7718  0.4014  0.3342
  563MOL0     C74216   7.594   7.850  -1.910  0.4642  1.5484 -0.7892
  563MOL0     C74217   7.721   7.885  -1.949  0.1755  0.4814 -0.1449
  563MOL0     C74218   7.828   7.923  -1.868  0.3090  1.0971  0.7066
  563MOL0     O74219   7.945   7.967  -1.914 -0.7071 -0.2483  0.2036
  563MOL0     C74220   7.951   8.106  -1.959  0.2904 -0.1229  0.2703
  563MOL0     C74221   7.989   8.194  -1.845 -0.0984 -0.4370 -1.0275
  563MOL0     C74222   7.983   8.343  -1.883  0.1494  0.2923  0.4652
  563MOL0     C74223   7.831   8.377  -1.923 -0.2258  0.2226  0.7386
  563MOL0     C74224   7.826   8.534  -1.910 -0.0706  0.0818  0.1118
  563MOL0     C74225   7.904   8.623  -2.010 -0.1393 -0.1860  1.5512
  563MOL0     C74226   7.924   8.578  -2.157  0.9966  0.0424 -0.4413
  563MOL0     C74227   8.011   8.672  -2.243 -1.0227  0.3493 -0.7363
  563MOL0    Cl74228   8.179   8.651  -2.173  0.5808 -0.1935  0.0507
  563MOL0     C74229   7.806   7.927  -1.735 -0.7123 -0.3335 -0.0348
  563MOL0     C74230   7.674   7.897  -1.690  0.6934 -0.6916 -0.4628
  563MOL0     O74231   7.309   7.924  -1.834 -0.2596  0.1819  0.2759
  563MOL0     C74232   7.254   7.690  -1.575  0.4098  0.4705 -0.5455
  563MOL0     C74233   7.154   7.631  -1.493  0.2088  0.7283 -0.0099
  563MOL0     N74234   6.620   7.141  -1.242 -0.3122 -0.3897 -0.3206
  563MOL0     N74235   6.671   7.098  -1.133 -0.3103 -0.5923 -0.7485
  563MOL0     C74236   6.861   7.921  -0.354  0.4557 -0.2475 -0.4038
  563MOL0     C74237   6.890   7.962  -0.217 -1.0173 -0.2367  0.0007
  563MOL0     C74238   7.035   7.856   0.224  0.4032  0.0022 -0.0299
  563MOL0     C74239   6.986   7.970   0.297  0.0400  0.9194 -0.3620
  563MOL0     C74240   7.025   8.006   0.432 -0.3185  0.7012 -0.3999
  563MOL0     C74241   7.126   7.916   0.494  0.5209  0.4425 -0.2505
  563MOL0     O74242   7.170   7.930   0.628  0.4773  0.9066 -0.8105
  563MOL0     C74243   7.183   8.066   0.668  1.1054 -0.2199 -0.1803
  563MOL0     C74244   7.050   8.104   0.730  0.1506  0.0238  0.3214
  563MOL0     C74245   7.059   8.071   0.888  0.6101 -1.1318  0.3168
  563MOL0     C74246   6.927   8.110   0.950  1.2335  1.0023 -0.9664
  563MOL0     C74247   6.910   8.036   1.078  0.4764 -0.7337 -0.0149
  563MOL0     C74248   6.885   7.964   1.177 -0.4704  0.2220  0.9331
  563MOL0     C74249   7.165   7.806   0.422 -0.4623  1.1576  1.0913
  563MOL0     C74250   7.133   7.779   0.290  0.6597 -0.8227  1.1062
  563MOL0     H74251   6.759   7.684  -0.049 -1.3237 -0.9803 -1.2827
  563MOL0     H74252   6.712   7.624  -0.273 -1.6145  0.9698 -0.3535
  563MOL0     H74253   6.757   7.559  -0.574 -0.7246 -0.5530  2.3160
  563MOL0     H74254   6.890   7.584  -0.477 -1.5836 -0.6044  0.5034
  563MOL0     H74255   7.003   7.724  -0.635 -0.2639 -0.0907  1.4360
  563MOL0     H74256   6.860   7.703  -0.751 -1.9997 -2.4300 -0.7030
  563MOL0     H74257   7.017   7.482  -0.625 -0.3285  1.0888  0.2253
  563MOL0     H74258   7.069   7.579  -0.767  2.2096 -0.0939  1.7502
  563MOL0     H74259   6.802   7.422  -0.752 -2.1902 -0.2135 -3.6407
  563MOL0     H74260   6.877   7.482  -0.900  3.6644 -1.7541 -1.1803
  563MOL0     H74261   6.918   7.240  -0.711  0.3706 -1.3516  0.2691
  563MOL0     H74262   7.048   7.291  -0.833 -0.6205  2.0047 -3.6405
  563MOL0     H74263   6.845   7.273  -1.008 -1.6545  1.7351  0.4664
  563MOL0     H74264   6.761   7.182  -0.885  1.5127  0.5904  4.8537
  563MOL0     H74265   7.040   7.134  -1.013 -0.6615  1.4187  1.3367
  563MOL0     H74266   6.989   7.031  -0.883 -0.0455  0.2600 -0.4954
  563MOL0     H74267   6.826   6.920  -1.020  0.7509 -1.0951 -2.8852
  563MOL0     H74268   6.967   6.938  -1.122  0.7231 -0.3237  0.8923
  563MOL0     H74269   6.920   7.085  -1.355  1.7845  2.5068  2.8316
  563MOL0     H74270   6.596   7.203  -1.505  0.2587  1.1014 -0.8867
  563MOL0     H74271   6.731   7.120  -1.554 -3.7748 -2.1186  0.3444
  563MOL0     H74272   6.804   7.337  -1.615 -0.5854 -1.3861 -0.0400
  563MOL0     H74273   6.886   7.298  -1.470  1.0000  0.5968 -0.0528
  563MOL0     H74274   6.614   7.429  -1.439  0.6959 -1.0197  0.5700
  563MOL0     H74275   6.744   7.433  -1.332 -0.9167 -0.2214  1.3804
  563MOL0     H74276   6.736   7.654  -1.447  1.9398  1.4779 -1.8077
  563MOL0     H74277   6.776   7.585  -1.605  2.5265  0.7981 -0.4598
  563MOL0     H74278   6.889   7.753  -1.663  0.6999  0.8549  2.2446
  563MOL0     H74279   7.067   7.859  -1.793  1.2390 -1.2588 -1.5718
  563MOL0     H74280   7.516   7.810  -1.974 -0.0879 -1.4386  1.5100
  563MOL0     H74281   7.751   7.892  -2.052  3.4150  0.5196  0.6960
  563MOL0     H74282   7.852   8.131  -1.998  0.2429 -0.6619  0.0300
  563MOL0     H74283   8.015   8.122  -2.046  0.3437  1.9303  0.6432
  563MOL0     H74284   8.091   8.168  -1.813  0.4079  2.0866 -0.3681
  563MOL0     H74285   7.925   8.169  -1.760  0.5504 -1.2267 -0.7570
  563MOL0     H74286   8.057   8.372  -1.959 -1.3471  1.4165 -0.6229
  563MOL0     H74287   8.018   8.394  -1.793 -0.6625 -0.1299  1.0275
  563MOL0     H74288   7.792   8.347  -2.021 -2.6846  3.1874  0.6560
  563MOL0     H74289   7.767   8.343  -1.841 -0.0560  2.4956  1.8916
  563MOL0     H74290   7.859   8.559  -1.809 -0.4236 -4.0108  1.4473
  563MOL0     H74291   7.719   8.548  -1.927 -0.4073 -1.3938  0.8536
  563MOL0     H74292   8.005   8.622  -1.968  0.8894 -0.7981 -0.7747
  563MOL0     H74293   7.866   8.725  -1.998  4.6481  1.9868  0.3510
  563MOL0     H74294   7.965   8.476  -2.150  0.2588 -0.1572  3.3305
  563MOL0     H74295   7.822   8.576  -2.197  1.3333  2.7288 -1.6288
  563MOL0     H74296   7.985   8.776  -2.218  0.4279  0.6108 -0.1743
  563MOL0     H74297   8.008   8.652  -2.350  4.1379 -1.2410 -0.8435
  563MOL0     H74298   7.877   7.962  -1.661 -0.7237 -1.1271  0.3664
  563MOL0     H74299   7.662   7.889  -1.582  2.4234 -1.3600 -0.2773
  563MOL0     H74300   7.355   7.684  -1.538  0.1938 -0.6335 -0.0686
  563MOL0     H74301   7.179   7.569  -1.408  1.7967 -0.4116 -1.2572
  563MOL0     H74302   6.890   7.983  -0.438  0.1217 -1.3741 -1.3915
  563MOL0     H74303   6.950   8.051  -0.200 -0.1116 -0.9891  0.8644
  563MOL0     H74304   6.917   8.041   0.251  2.5939  1.4812 -3.7139
  563MOL0     H74305   6.978   8.091   0.480  1.5837  0.1014  2.8625
  563MOL0     H74306   7.215   8.123   0.580 -2.2336 -1.9475 -2.7131
  563MOL0     H74307   7.263   8.063   0.742  0.8663  1.0171  0.1522
  563MOL0     H74308   7.059   8.213   0.722  1.8014 -0.1648 -0.7651
  563MOL0     H74309   6.957   8.064   0.690 -0.6682  0.6666  1.5218
  563MOL0     H74310   7.132   8.130   0.945  1.3049  0.2763 -1.9127
  563MOL0     H74311   7.084   7.965   0.899 -1.8130 -1.5758  2.7751
  563MOL0     H74312   6.927   8.216   0.978  2.8135  1.1441 -1.4089
  563MOL0     H74313   6.846   8.086   0.880  1.6469 -0.7120 -0.8894
  563MOL0     H74314   6.875   7.899   1.262 -2.4232 -0.7187  0.0506
  563MOL0     H74315   7.221   7.720   0.456  0.8950  1.8445  0.6696
  563MOL0     H74316   7.186   7.705   0.231  0.2410  0.7847 -1.4935
  564MOL0     O74317   0.270  10.601   1.718  0.3100 -0.7301  0.1301
  564MOL0     C74318   0.283  10.485   1.690  0.0071  0.0883  0.6499
  564MOL0     O74319   0.244  10.436   1.568 -0.0895  0.0651  0.0359
  564MOL0     C74320   0.141  10.487   1.489  0.5787 -0.2663 -0.5093
  564MOL0     C74321   0.139  10.471   1.354  0.1246  0.8614 -0.2946
  564MOL0     C74322   0.040  10.538   1.271  0.2608 -0.1501  0.1013
  564MOL0     C74323  -0.077  10.604   1.324 -2.1802  0.3302 -0.0304
  564MOL0     O74324  -0.175  10.675   1.249 -0.4381  0.5727  0.4268
  564MOL0     C74325  -0.162  10.671   1.105 -0.3135  0.6816  0.7599
  564MOL0     C74326  -0.230  10.542   1.068 -0.2251  0.5986 -0.3456
  564MOL0     C74327  -0.197  10.514   0.918  1.0336 -0.8620 -0.2392
  564MOL0     C74328  -0.237  10.378   0.871  1.0990 -0.5162  0.9915
  564MOL0     C74329  -0.380  10.360   0.819 -0.3565  0.5399  0.2517
  564MOL0     C74330  -0.425  10.403   0.683  0.3289 -0.1295  0.2047
  564MOL0     C74331  -0.466  10.550   0.696  0.0251  1.0575  0.2858
  564MOL0     C74332  -0.545  10.576   0.568  0.0302 -0.8508 -0.3163
  564MOL0     N74333  -0.558  10.721   0.538  0.7090 -0.5921  0.5032
  564MOL0     C74334  -0.667  10.799   0.576  0.4029 -1.1602  0.3543
  564MOL0     C74335  -0.619  10.929   0.562  0.4571  0.0293 -0.0821
  564MOL0     C74336  -0.711  11.041   0.610  0.5995  0.4276 -0.3390
  564MOL0     C74337  -0.833  11.051   0.514 -1.0339  0.0528  0.3019
  564MOL0     C74338  -0.940  11.161   0.550 -0.1133  0.1705  0.4148
  564MOL0     C74339  -0.903  11.307   0.531  0.6774 -0.0958 -0.4346
  564MOL0     O74340  -0.858  11.326   0.398  0.9053 -0.1223 -0.1790
  564MOL0     C74341  -0.959  11.384   0.315 -0.5006 -0.6539 -0.0362
  564MOL0     C74342  -1.092  11.399   0.343  0.5338 -0.1250  0.0766
  564MOL0     C74343  -1.164  11.482   0.253 -0.2970  0.0467  0.4853
  564MOL0     C74344  -1.107  11.528   0.133  0.8218  0.4288  0.4884
  564MOL0     C74345  -1.177  11.621   0.044  0.4627 -0.7661  0.5135
  564MOL0     O74346  -1.315  11.602   0.028 -0.2959 -0.5329 -0.1480
  564MOL0     C74347  -1.390  11.683  -0.054 -0.6102 -0.1027  0.0451
  564MOL0     C74348  -1.343  11.784  -0.143  0.3968 -0.2784 -0.4446
  564MOL0     C74349  -1.430  11.834  -0.239  0.6008  0.7124 -0.0411
  564MOL0     C74350  -1.571  11.796  -0.239  0.0147 -0.5878  0.9015
  564MOL0     O74351  -1.644  11.849  -0.348 -1.0614  0.4347 -0.5026
  564MOL0     C74352  -1.759  11.777  -0.387 -0.6631  0.4227 -0.2938
  564MOL0     C74353  -1.833  11.828  -0.506 -0.0684 -0.3479  0.0136
  564MOL0     C74354  -1.774  11.796  -0.644  1.1277 -0.3401  0.2831
  564MOL0     C74355  -1.702  11.661  -0.647  0.4861 -0.4296  0.2710
  564MOL0     C74356  -1.655  11.632  -0.793 -0.3763 -0.3731  0.4794
  564MOL0     C74357  -1.617  11.483  -0.811  0.5359 -0.5704 -0.5424
  564MOL0     C74358  -1.562  11.475  -0.951 -0.9017  0.0405 -0.7753
  564MOL0     C74359  -1.528  11.336  -0.985  0.1753 -0.7174 -0.0551
  564MOL0    Cl74360  -1.671  11.228  -0.990  0.1466  0.2365 -0.3738
  564MOL0     C74361  -1.619  11.697  -0.147  0.1982  1.1678 -0.2896
  564MOL0     C74362  -1.523  11.643  -0.060  0.4782 -0.1603 -0.8173
  564MOL0     O74363  -1.113  11.726   0.021  0.2194  0.5139 -0.2133
  564MOL0     C74364  -0.975  11.501   0.101  0.0511  0.4129  0.3626
  564MOL0     C74365  -0.898  11.424   0.193 -0.7731  0.4521 -0.1028
  564MOL0     N74366  -0.493  10.918   0.510 -0.2438  0.1034 -0.2725
  564MOL0     N74367  -0.460  10.798   0.489  0.1668 -0.2413  0.2846
  564MOL0     C74368  -0.072  10.602   1.468  0.7821  0.0909 -0.2047
  564MOL0     C74369   0.037  10.557   1.543  0.3820  1.6565 -0.1127
  564MOL0     C74370   0.346  10.391   1.774 -0.2875  0.7728 -0.3255
  564MOL0     C74371   0.439  10.442   1.878  0.1702 -0.0659 -0.2550
  564MOL0     C74372   0.496  10.356   1.966 -0.2455  0.4083 -0.3694
  564MOL0     C74373   0.469  10.213   1.957 -0.1295  0.5181  0.2566
  564MOL0     O74374   0.530  10.137   2.052  0.0549  0.3729  0.2267
  564MOL0     C74375   0.514   9.992   2.040 -0.7330  0.3160  0.1133
  564MOL0     C74376   0.584   9.919   2.155 -0.9953  0.1076 -0.0930
  564MOL0     C74377   0.521   9.949   2.290  0.3808  0.7871 -1.0095
  564MOL0     C74378   0.565   9.859   2.417 -0.2823  0.0959 -0.9047
  564MOL0     C74379   0.701   9.895   2.472  0.2235 -0.2705 -1.4690
  564MOL0     C74380   0.816   9.907   2.522  1.2235 -0.2338 -0.4696
  564MOL0     C74381   0.383  10.162   1.850  0.0782  1.5686  0.4028
  564MOL0     C74382   0.334  10.251   1.759  0.3701  0.4222  0.5036
  564MOL0     H74383   0.229  10.428   1.311  0.7784 -0.9856  2.6417
  564MOL0     H74384   0.054  10.541   1.164  0.0495  2.0603  0.1034
  564MOL0     H74385  -0.060  10.680   1.067 -0.7172 -4.3559 -2.4493
  564MOL0     H74386  -0.225  10.751   1.065 -2.3786 -1.3434 -0.2768
  564MOL0     H74387  -0.338  10.543   1.090 -0.2636 -1.3236 -0.2336
  564MOL0     H74388  -0.181  10.462   1.124  2.0474  2.1273 -0.0248
  564MOL0     H74389  -0.091  10.512   0.895  1.4777 -0.3763  1.5826
  564MOL0     H74390  -0.231  10.595   0.854  3.3002 -1.4227 -2.2623
  564MOL0     H74391  -0.169  10.359   0.787  0.9903 -0.0138  0.7874
  564MOL0     H74392  -0.219  10.301   0.947  0.3055 -1.9328 -0.1975
  564MOL0     H74393  -0.450  10.400   0.892 -2.7099 -2.0308 -0.4083
  564MOL0     H74394  -0.392  10.251   0.822 -1.6810  0.6176  5.0250
  564MOL0     H74395  -0.516  10.345   0.664 -1.2544  2.1669  0.4062
  564MOL0     H74396  -0.350  10.368   0.610 -1.4455 -0.8009 -1.3963
  564MOL0     H74397  -0.543  10.556   0.773 -0.5485 -3.8955  0.4132
  564MOL0     H74398  -0.381  10.619   0.704  2.0896 -1.5661  3.1836
  564MOL0     H74399  -0.642  10.531   0.590 -0.6329  1.8104  3.0858
  564MOL0     H74400  -0.495  10.531   0.481  3.5131  1.4392  0.3174
  564MOL0     H74401  -0.770  10.780   0.605 -0.9412  1.1012 -2.4966
  564MOL0     H74402  -0.663  11.139   0.605 -2.3731  1.9883 -0.6980
  564MOL0     H74403  -0.731  11.022   0.716  0.7237 -1.1784 -0.5782
  564MOL0     H74404  -0.889  10.957   0.504  0.2261 -0.6339 -0.4737
  564MOL0     H74405  -0.796  11.067   0.413 -1.4332  0.0088  0.1470
  564MOL0     H74406  -1.022  11.131   0.484 -1.5507 -0.8202  2.5074
  564MOL0     H74407  -0.975  11.150   0.653  0.5781 -1.7445  0.4944
  564MOL0     H74408  -0.816  11.327   0.594  0.7280  1.6789 -1.0112
  564MOL0     H74409  -0.976  11.378   0.572  0.6772 -1.0141  1.2253
  564MOL0     H74410  -1.134  11.347   0.428 -1.5768  0.1648 -0.7032
  564MOL0     H74411  -1.262  11.520   0.282 -1.5338 -2.1300 -0.5483
  564MOL0     H74412  -1.249  11.837  -0.132 -0.9003  2.4235 -1.5321
  564MOL0     H74413  -1.399  11.913  -0.307 -2.0122 -0.0319 -2.2828
  564MOL0     H74414  -1.832  11.773  -0.306  0.8995 -0.7644  1.1238
  564MOL0     H74415  -1.732  11.671  -0.399 -1.4819  0.2906 -1.0277
  564MOL0     H74416  -1.844  11.936  -0.492  1.2018 -0.2465  0.2589
  564MOL0     H74417  -1.931  11.778  -0.506  0.6126 -1.7247  0.9786
  564MOL0     H74418  -1.710  11.880  -0.673 -0.5105  0.6693 -0.6091
  564MOL0     H74419  -1.857  11.793  -0.716  0.9039  0.0095  0.5219
  564MOL0     H74420  -1.614  11.658  -0.583 -0.0214  0.4760  1.0471
  564MOL0     H74421  -1.777  11.583  -0.629 -2.3054  1.8278 -0.6834
  564MOL0     H74422  -1.562  11.689  -0.805 -1.2291  0.8262 -0.5288
  564MOL0     H74423  -1.724  11.664  -0.871 -1.5884 -2.3067  0.7097
  564MOL0     H74424  -1.711  11.430  -0.793  1.1743 -1.3722  0.5970
  564MOL0     H74425  -1.537  11.457  -0.741 -0.5057  2.1966  1.8408
  564MOL0     H74426  -1.638  11.517  -1.018  0.6858 -1.4733 -3.7498
  564MOL0     H74427  -1.469  11.533  -0.955  0.5129 -2.0340  0.3625
  564MOL0     H74428  -1.456  11.288  -0.919  2.5609  2.1059 -0.4190
  564MOL0     H74429  -1.477  11.345  -1.081  0.8089 -1.7005  0.1706
  564MOL0     H74430  -1.722  11.663  -0.143  0.2130  1.1963  0.6284
  564MOL0     H74431  -1.563  11.562  -0.000 -1.1798 -0.5934 -2.4212
  564MOL0     H74432  -0.945  11.528   0.000 -1.9384  0.9077 -0.1486
  564MOL0     H74433  -0.802  11.385   0.160  0.0920  2.8242 -0.6140
  564MOL0     H74434  -0.155  10.641   1.525  1.1946 -1.2194  1.3620
  564MOL0     H74435   0.031  10.568   1.651 -2.2845  2.6650 -0.2877
  564MOL0     H74436   0.461  10.548   1.887  0.9993 -0.0787 -1.7139
  564MOL0     H74437   0.560  10.385   2.049  0.1988 -1.3814 -0.0352
  564MOL0     H74438   0.554   9.955   1.946  2.9902 -2.7091  2.5907
  564MOL0     H74439   0.407   9.975   2.055 -0.8057  0.5220 -0.1638
  564MOL0     H74440   0.599   9.812   2.138  2.2073  0.1568  1.7216
  564MOL0     H74441   0.687   9.955   2.154  0.0267 -2.5327  0.7561
  564MOL0     H74442   0.420   9.926   2.257  0.8282  0.3490 -2.1080
  564MOL0     H74443   0.528  10.054   2.319 -3.1279  1.2563 -1.5308
  564MOL0     H74444   0.495   9.864   2.501  0.6732 -0.3790 -0.0429
  564MOL0     H74445   0.569   9.754   2.386 -0.9260 -0.7130  1.4675
  564MOL0     H74446   0.908   9.903   2.578  0.2255 -1.8042  1.1495
  564MOL0     H74447   0.360  10.056   1.846  3.1474  0.8059 -2.7414
  564MOL0     H74448   0.265  10.204   1.690  1.5885  2.3889 -2.2276
  565MOL0     O74449   1.435   9.411   4.288 -0.0696 -0.6464 -0.0260
  565MOL0     C74450   1.347   9.343   4.340  0.2176 -0.6916 -1.3567
  565MOL0     O74451   1.251   9.400   4.435 -0.8071  0.6757  0.4182
  565MOL0     C74452   1.274   9.515   4.507 -0.4374  0.5284 -1.3144
  565MOL0     C74453   1.178   9.538   4.608 -0.9440  0.4357 -0.5746
  565MOL0     C74454   1.171   9.657   4.684 -0.5565  0.3872  0.3787
  565MOL0     C74455   1.275   9.757   4.667  0.3012  0.1151  0.3416
  565MOL0     O74456   1.260   9.871   4.742 -0.4301 -0.5746 -0.1008
  565MOL0     C74457   1.332   9.986   4.707  0.5596  0.3408 -0.2254
  565MOL0     C74458   1.284  10.110   4.775 -0.5502 -0.4018  0.0176
  565MOL0     C74459   1.277  10.106   4.935  0.4052 -0.1721  0.3339
  565MOL0     C74460   1.410  10.076   5.002  0.6408  0.0370  0.5577
  565MOL0     C74461   1.402  10.080   5.153 -0.4536 -0.1265 -0.5236
  565MOL0     C74462   1.537  10.019   5.206  0.1694  0.3758  0.6675
  565MOL0     C74463   1.555   9.874   5.185  0.5128  1.2352  0.6946
  565MOL0     C74464   1.699   9.839   5.213  0.3030  0.1083  0.3282
  565MOL0     N74465   1.784   9.872   5.105 -0.8969 -0.4243 -0.0785
  565MOL0     C74466   1.844   9.995   5.078  1.0114 -0.1145  0.3472
  565MOL0     C74467   1.913   9.973   4.964  0.2393  0.0727  0.5529
  565MOL0     C74468   2.004  10.077   4.903 -1.0865  0.3726  0.0144
  565MOL0     C74469   1.935  10.175   4.805  0.6332 -1.0135 -0.6039
  565MOL0     C74470   2.042  10.293   4.781  0.1388 -0.9330  1.0739
  565MOL0     C74471   2.043  10.414   4.877  0.0442  0.4993  0.1447
  565MOL0     O74472   2.141  10.509   4.830  0.1687  0.4586 -0.5267
  565MOL0     C74473   2.180  10.603   4.929 -0.2042  0.2932  0.1405
  565MOL0     C74474   2.091  10.636   5.044 -0.4462  0.1448 -1.3223
  565MOL0     C74475   2.122  10.755   5.107 -0.9479  0.6726 -0.9280
  565MOL0     C74476   2.230  10.827   5.080  0.0852 -0.6993 -0.9578
  565MOL0     C74477   2.256  10.957   5.147  0.4653  0.3671 -0.3350
  565MOL0     O74478   2.342  11.046   5.092  0.6057 -0.9100  0.3326
  565MOL0     C74479   2.383  11.159   5.167 -0.7663 -0.1464  0.2642
  565MOL0     C74480   2.409  11.278   5.094  0.1961  0.0589 -0.0449
  565MOL0     C74481   2.430  11.399   5.177  0.2126 -0.0533  1.2734
  565MOL0     C74482   2.434  11.403   5.312 -0.2362 -0.3935  0.5537
  565MOL0     O74483   2.463  11.517   5.378  0.7289  0.0915  0.5505
  565MOL0     C74484   2.429  11.534   5.519  0.7029 -0.6605 -0.2576
  565MOL0     C74485   2.439  11.688   5.554  0.0431 -0.4351  1.3477
  565MOL0     C74486   2.420  11.722   5.700  0.3433  0.7621 -0.1003
  565MOL0     C74487   2.513  11.655   5.808 -0.9047  0.0946  0.2671
  565MOL0     C74488   2.655  11.711   5.766  0.2101  0.5414  0.1153
  565MOL0     C74489   2.754  11.700   5.888  0.1316  0.1445  0.4269
  565MOL0     C74490   2.847  11.809   5.885 -0.3538 -0.4441 -0.3435
  565MOL0     C74491   2.916  11.818   6.021  0.2510  0.3917 -0.5509
  565MOL0    Cl74492   2.801  11.839   6.152 -0.0772 -0.1229 -0.3843
  565MOL0     C74493   2.427  11.285   5.381  0.2443 -0.7491 -0.8744
  565MOL0     C74494   2.399  11.171   5.310 -0.0631 -0.6774  0.5275
  565MOL0     O74495   2.194  10.975   5.250 -0.7395 -0.7031 -0.2551
  565MOL0     C74496   2.317  10.789   4.979  0.0891  0.4067 -0.2763
  565MOL0     C74497   2.287  10.683   4.905 -0.5554 -0.0804 -1.1099
  565MOL0     N74498   1.904   9.837   4.931 -0.3752 -0.3023  0.2650
  565MOL0     N74499   1.833   9.783   5.019  0.3914 -0.0975  0.0663
  565MOL0     C74500   1.389   9.723   4.585  0.6285 -0.8489  0.6007
  565MOL0     C74501   1.387   9.602   4.508  0.1017 -0.8384 -0.4112
  565MOL0     C74502   1.323   9.209   4.290 -1.3050  0.4818 -0.1976
  565MOL0     C74503   1.189   9.152   4.300 -0.1223  0.6729  0.0888
  565MOL0     C74504   1.168   9.021   4.242 -0.1100  0.9482 -0.9215
  565MOL0     C74505   1.272   8.936   4.204  0.4716 -0.3204  0.0741
  565MOL0     O74506   1.231   8.814   4.168 -0.3047 -0.0667  0.1631
  565MOL0     C74507   1.322   8.701   4.174 -0.1470  0.5035  0.3025
  565MOL0     C74508   1.253   8.585   4.096  0.3561 -0.5216  0.4612
  565MOL0     C74509   1.340   8.466   4.099 -0.8007  0.8934  0.0357
  565MOL0     C74510   1.298   8.364   3.994  0.1301 -0.2954 -0.2015
  565MOL0     C74511   1.376   8.384   3.868 -0.2816  0.5705 -0.2888
  565MOL0     C74512   1.439   8.429   3.776 -0.9252  0.3698 -0.7216
  565MOL0     C74513   1.402   8.984   4.216 -0.3048 -0.4442  1.1310
  565MOL0     C74514   1.424   9.120   4.240  0.6114  0.1625 -0.5499
  565MOL0     H74515   1.107   9.458   4.624  1.0755 -1.2666  0.2980
  565MOL0     H74516   1.087   9.673   4.751  0.5719 -0.7123  2.1312
  565MOL0     H74517   1.317   9.986   4.599  2.4071 -1.3698 -0.5184
  565MOL0     H74518   1.439   9.987   4.728  0.5131  2.8775  0.1907
  565MOL0     H74519   1.186  10.131   4.731 -0.1738  0.0065 -0.6451
  565MOL0     H74520   1.348  10.194   4.746 -2.6652  0.4264 -2.7487
  565MOL0     H74521   1.213  10.022   4.965  5.6633 -3.5043  4.0098
  565MOL0     H74522   1.235  10.202   4.967 -1.8934 -1.4411  1.4416
  565MOL0     H74523   1.429   9.974   4.968  1.1824 -0.4379  2.2257
  565MOL0     H74524   1.492  10.138   4.963  0.2536  0.0022 -0.3450
  565MOL0     H74525   1.315  10.025   5.190 -1.6941 -1.0435 -4.3391
  565MOL0     H74526   1.394  10.186   5.179  1.7679  0.6462 -2.5615
  565MOL0     H74527   1.531  10.036   5.314 -0.8334 -2.2431  1.1023
  565MOL0     H74528   1.610  10.079   5.151 -0.9627  0.6337 -0.6178
  565MOL0     H74529   1.494   9.810   5.249  4.3107 -3.9400 -0.2021
  565MOL0     H74530   1.524   9.835   5.087 -2.8887 -1.0271  2.4417
  565MOL0     H74531   1.704   9.730   5.224  0.3427  0.1302  0.5336
  565MOL0     H74532   1.725   9.873   5.314 -1.0709 -2.2244  1.5652
  565MOL0     H74533   1.815  10.089   5.124 -3.2276  0.3265 -2.5967
  565MOL0     H74534   2.089  10.040   4.844 -0.3049  0.1410  1.2339
  565MOL0     H74535   2.050  10.134   4.985  2.3325 -0.4221 -1.1538
  565MOL0     H74536   1.842  10.214   4.847  0.9555  0.8541 -1.5239
  565MOL0     H74537   1.902  10.118   4.718  0.3633 -4.9331  1.8316
  565MOL0     H74538   2.141  10.250   4.760  0.6176  0.7213 -0.3000
  565MOL0     H74539   2.019  10.337   4.683 -4.5777 -2.9636  0.9933
  565MOL0     H74540   2.072  10.384   4.978  0.1494 -0.7966 -0.2481
  565MOL0     H74541   1.945  10.462   4.874  0.5286  1.6887  1.7661
  565MOL0     H74542   1.998  10.586   5.068 -1.3845  2.3216 -0.1610
  565MOL0     H74543   2.056  10.789   5.186 -0.2086 -2.6275  1.3081
  565MOL0     H74544   2.422  11.283   4.987  2.2154  0.9908  0.1946
  565MOL0     H74545   2.452  11.491   5.123  0.4161  0.0038  1.4510
  565MOL0     H74546   2.491  11.467   5.579  0.8471 -1.7901 -1.6309
  565MOL0     H74547   2.324  11.511   5.542  0.8000  1.1331  2.4331
  565MOL0     H74548   2.366  11.746   5.495 -1.0646 -3.0758 -0.0522
  565MOL0     H74549   2.535  11.718   5.512 -1.3721 -0.5534 -2.4172
  565MOL0     H74550   2.317  11.699   5.729  0.6682  1.6546  1.8915
  565MOL0     H74551   2.428  11.831   5.710 -0.2016  0.5641  4.2124
  565MOL0     H74552   2.495  11.698   5.907  3.9082 -0.2876  1.5813
  565MOL0     H74553   2.502  11.547   5.819 -1.7989  0.2833  1.4132
  565MOL0     H74554   2.636  11.816   5.741  1.4043  0.7759  0.1526
  565MOL0     H74555   2.701  11.653   5.685 -0.1394  1.0264 -0.4384
  565MOL0     H74556   2.792  11.597   5.884 -0.2523 -0.0021  0.4099
  565MOL0     H74557   2.694  11.707   5.980 -0.1481 -1.6275  0.4298
  565MOL0     H74558   2.922  11.782   5.810 -0.8169 -0.8145 -0.6773
  565MOL0     H74559   2.801  11.900   5.846  0.7766  0.3987  0.2178
  565MOL0     H74560   2.985  11.902   6.024  0.6835  0.3654 -4.5915
  565MOL0     H74561   2.960  11.719   6.034 -2.9389 -0.9532  1.1898
  565MOL0     H74562   2.434  11.283   5.489 -0.6828 -2.6036 -0.8185
  565MOL0     H74563   2.402  11.083   5.374  3.2160 -0.9347  0.1968
  565MOL0     H74564   2.408  10.845   4.961  0.8900  0.4857  3.3459
  565MOL0     H74565   2.349  10.657   4.820  2.2118  1.2994  0.3710
  565MOL0     H74566   1.479   9.783   4.589 -0.1275  0.4182 -0.6070
  565MOL0     H74567   1.479   9.590   4.452 -0.0751  0.1154 -0.9209
  565MOL0     H74568   1.115   9.209   4.354 -2.0805  0.1438 -1.8901
  565MOL0     H74569   1.066   8.986   4.249  0.7821 -1.4184  2.8945
  565MOL0     H74570   1.329   8.663   4.276 -1.0852 -2.4637 -0.6484
  565MOL0     H74571   1.412   8.718   4.115  2.1872 -0.9258  3.1892
  565MOL0     H74572   1.155   8.569   4.142 -0.7084  4.5156  0.4607
  565MOL0     H74573   1.243   8.611   3.991  0.8185 -0.6078  0.3923
  565MOL0     H74574   1.336   8.419   4.198  1.8856 -2.1894 -1.1391
  565MOL0     H74575   1.446   8.491   4.087  0.0724 -2.3420 -0.1201
  565MOL0     H74576   1.314   8.267   4.042  0.2287 -0.6511 -0.9420
  565MOL0     H74577   1.195   8.375   3.960  0.0163  0.6540  0.3922
  565MOL0     H74578   1.498   8.452   3.690 -2.2122  1.5995 -1.3142
  565MOL0     H74579   1.485   8.919   4.190  0.3887  1.0380 -0.6210
  565MOL0     H74580   1.525   9.156   4.220  0.2969  1.1770 -0.3834
  566MOL0     O74581  10.950   6.598   4.084  0.1809 -0.0471 -0.6228
  566MOL0     C74582  10.951   6.587   4.208 -0.0957 -0.7230  0.4042
  566MOL0     O74583  11.062   6.560   4.291  0.2032 -0.0543  0.2309
  566MOL0     C74584  11.191   6.555   4.237  0.6728  0.5098  0.6158
  566MOL0     C74585  11.214   6.463   4.134  0.2571 -0.5114 -0.9155
  566MOL0     C74586  11.347   6.435   4.093  0.0739 -0.6337  0.5651
  566MOL0     C74587  11.454   6.502   4.145 -0.7649  0.6839 -0.1395
  566MOL0     O74588  11.585   6.465   4.117  1.0376  0.0233  0.3247
  566MOL0     C74589  11.604   6.320   4.116 -0.1669  0.1173 -1.3554
  566MOL0     C74590  11.755   6.284   4.111 -1.3008  0.4890 -0.2026
  566MOL0     C74591  11.803   6.155   4.177 -0.1687 -0.2089  0.4149
  566MOL0     C74592  11.958   6.131   4.160  1.1341  0.5099 -0.4110
  566MOL0     C74593  12.014   6.142   4.022 -0.7624 -0.5438 -0.8839
  566MOL0     C74594  12.164   6.108   4.018 -0.1711  0.4884  0.0908
  566MOL0     C74595  12.216   6.068   3.875 -0.1296  0.1085 -0.2573
  566MOL0     C74596  12.243   6.182   3.787 -1.0292  0.2042 -0.1590
  566MOL0     N74597  12.350   6.269   3.824  0.8206 -0.4183  0.2917
  566MOL0     C74598  12.475   6.231   3.865  0.5766 -0.0585 -0.0004
  566MOL0     C74599  12.522   6.342   3.928  1.0741 -0.6539 -0.3864
  566MOL0     C74600  12.651   6.373   3.995 -0.8691  0.9528 -0.3922
  566MOL0     C74601  12.737   6.480   3.917 -0.3975 -0.0019 -0.4422
  566MOL0     C74602  12.864   6.511   3.984 -0.6793 -0.7764  0.1133
  566MOL0     C74603  12.875   6.663   4.021 -0.5303  0.5947 -0.8471
  566MOL0     O74604  12.999   6.673   4.102  0.0002 -0.0248  0.0839
  566MOL0     C74605  13.042   6.796   4.135  0.8358 -0.9341  0.3329
  566MOL0     C74606  12.951   6.904   4.126 -0.9031 -0.1895 -0.2230
  566MOL0     C74607  12.984   7.029   4.179  0.1225  0.2530 -0.3041
  566MOL0     C74608  13.108   7.048   4.240 -0.4585 -0.0400 -0.7347
  566MOL0     C74609  13.143   7.183   4.305  0.9961 -0.7125 -0.6003
  566MOL0     O74610  13.092   7.294   4.259  1.3852 -0.2452  0.3335
  566MOL0     C74611  13.107   7.419   4.316 -0.1110 -0.5770 -0.8520
  566MOL0     C74612  12.999   7.510   4.328  0.3590  0.0600 -0.2845
  566MOL0     C74613  13.003   7.629   4.390  0.0070 -0.6203  0.2343
  566MOL0     C74614  13.127   7.669   4.447  0.6033 -0.1321  0.9135
  566MOL0     O74615  13.133   7.788   4.520  0.6054  0.0132 -0.0240
  566MOL0     C74616  13.181   7.767   4.653  0.2912 -0.1652  0.0127
  566MOL0     C74617  13.195   7.906   4.699  0.1828 -0.5789  0.1112
  566MOL0     C74618  13.078   8.002   4.681  0.3342 -0.0404 -0.1055
  566MOL0     C74619  13.093   8.123   4.774 -0.5931  0.8363 -0.6150
  566MOL0     C74620  13.209   8.212   4.731 -0.6657  0.6042  0.1862
  566MOL0     C74621  13.207   8.344   4.817 -0.3092 -0.6302 -0.7905
  566MOL0     C74622  13.297   8.458   4.775 -0.8095  0.2965  0.1369
  566MOL0     C74623  13.273   8.566   4.881  0.0223  0.4771  0.0013
  566MOL0    Cl74624  13.360   8.722   4.835  0.0631 -0.0930 -0.7836
  566MOL0     C74625  13.239   7.585   4.429  0.1783  0.8087 -0.3639
  566MOL0     C74626  13.230   7.466   4.357 -0.3232 -0.6303 -0.3090
  566MOL0     O74627  13.217   7.176   4.400  0.5669  0.0854 -0.3604
  566MOL0     C74628  13.199   6.940   4.250  0.5559  1.3519  0.0696
  566MOL0     C74629  13.163   6.814   4.189  0.2350 -0.0548 -0.6022
  566MOL0     N74630  12.428   6.445   3.913 -0.4374  0.4299  0.6512
  566MOL0     N74631  12.320   6.391   3.873 -0.7024 -0.3000  0.1637
  566MOL0     C74632  11.429   6.600   4.243 -0.4152  0.1556  0.2790
  566MOL0     C74633  11.297   6.622   4.295  0.5645 -0.5653  0.2695
  566MOL0     C74634  10.824   6.566   4.280 -0.4845  0.2408  0.3484
  566MOL0     C74635  10.797   6.597   4.411 -0.4272 -0.6521  0.4847
  566MOL0     C74636  10.676   6.570   4.474  0.0561 -0.6743  0.2718
  566MOL0     C74637  10.559   6.540   4.392  0.0392 -1.1237  0.0180
  566MOL0     O74638  10.429   6.534   4.432  0.1637 -0.4995 -0.0674
  566MOL0     C74639  10.401   6.562   4.561  0.5271  0.0583 -0.3940
  566MOL0     C74640  10.254   6.520   4.578  0.0139 -0.7080 -0.5848
  566MOL0     C74641  10.248   6.438   4.712 -0.4224  0.5421 -0.0153
  566MOL0     C74642  10.116   6.398   4.742 -0.4837 -0.5732 -0.2441
  566MOL0     C74643  10.113   6.329   4.873 -1.7215  1.0739  0.1008
  566MOL0     C74644  10.108   6.280   4.987  0.2347 -0.4936  0.4426
  566MOL0     C74645  10.576   6.506   4.255 -0.6912  0.2863 -0.0321
  566MOL0     C74646  10.712   6.520   4.203 -0.7507  0.4501  0.9421
  566MOL0     H74647  11.132   6.406   4.093 -1.7172  1.4024  0.1835
  566MOL0     H74648  11.355   6.357   4.017 -4.5777 -0.3588 -0.4573
  566MOL0     H74649  11.570   6.278   4.021 -1.7644  0.5660 -1.0080
  566MOL0     H74650  11.562   6.276   4.207 -0.2771  4.1219  0.7739
  566MOL0     H74651  11.827   6.364   4.133  0.8728 -1.4426  0.0902
  566MOL0     H74652  11.759   6.274   4.002  0.2830 -0.2181 -0.1089
  566MOL0     H74653  11.760   6.064   4.135  2.3595 -0.8934 -0.9572
  566MOL0     H74654  11.780   6.177   4.282  2.6212  1.0585  0.8540
  566MOL0     H74655  12.006   6.197   4.233  1.8368 -1.9792  1.5525
  566MOL0     H74656  11.971   6.031   4.204  1.0362  1.5533  2.2134
  566MOL0     H74657  12.011   6.250   4.002 -2.7798 -0.2577  0.7193
  566MOL0     H74658  11.956   6.088   3.948  0.8860 -0.9002 -1.9815
  566MOL0     H74659  12.178   6.019   4.080 -3.0768 -2.3038 -2.9051
  566MOL0     H74660  12.231   6.193   4.035  1.5140 -0.9702  1.0411
  566MOL0     H74661  12.293   5.991   3.885 -0.7162 -0.4283  0.1782
  566MOL0     H74662  12.135   6.012   3.829 -0.9227  1.1368 -0.1389
  566MOL0     H74663  12.148   6.235   3.775 -1.0132 -0.0762 -1.8624
  566MOL0     H74664  12.261   6.127   3.694 -0.1499  1.6713 -0.8832
  566MOL0     H74665  12.519   6.132   3.859  1.4558  0.3377 -0.2150
  566MOL0     H74666  12.721   6.289   3.993 -0.2805  1.2746  2.5247
  566MOL0     H74667  12.629   6.389   4.101 -1.7867 -0.3360 -0.3577
  566MOL0     H74668  12.679   6.569   3.890  1.7160  0.5570 -3.7312
  566MOL0     H74669  12.759   6.438   3.819  3.8858 -0.3605  0.4640
  566MOL0     H74670  12.869   6.440   4.067 -0.0368 -2.6553 -1.4175
  566MOL0     H74671  12.943   6.497   3.909 -2.0400  3.1111 -2.3397
  566MOL0     H74672  12.785   6.673   4.083 -2.0529 -2.9600 -2.2346
  566MOL0     H74673  12.875   6.718   3.927 -0.5520  0.5954 -0.8467
  566MOL0     H74674  12.859   6.910   4.068 -2.6738  3.1538  2.5168
  566MOL0     H74675  12.923   7.114   4.154 -0.4511 -0.7944 -2.7370
  566MOL0     H74676  12.906   7.465   4.294  0.0260  0.6112 -0.1117
  566MOL0     H74677  12.917   7.688   4.423  1.7536  2.3490 -0.1759
  566MOL0     H74678  13.280   7.725   4.672 -0.0583  0.0264  2.7482
  566MOL0     H74679  13.112   7.701   4.707  0.2604 -1.9785 -2.0874
  566MOL0     H74680  13.282   7.945   4.646 -0.7693  1.3226 -0.1389
  566MOL0     H74681  13.205   7.899   4.807 -2.2675 -0.9651  0.3744
  566MOL0     H74682  12.983   7.954   4.705 -0.5827  1.6301 -0.2779
  566MOL0     H74683  13.078   8.041   4.578  0.4537  2.2151  0.6958
  566MOL0     H74684  13.005   8.184   4.753 -0.9794 -0.0747 -1.7219
  566MOL0     H74685  13.099   8.094   4.880  0.3144  1.0777 -0.5979
  566MOL0     H74686  13.206   8.240   4.626 -0.5033  2.2033  0.5861
  566MOL0     H74687  13.308   8.164   4.737 -1.0598 -0.2094  0.3256
  566MOL0     H74688  13.238   8.331   4.921  1.2173  3.5733 -0.5156
  566MOL0     H74689  13.109   8.390   4.805  0.6540  1.2991 -1.6349
  566MOL0     H74690  13.395   8.411   4.774 -2.8359 -4.5496 -0.7107
  566MOL0     H74691  13.276   8.496   4.675  0.9082 -4.5879 -2.3846
  566MOL0     H74692  13.290   8.536   4.985 -0.5222  2.7468  0.7935
  566MOL0     H74693  13.168   8.595   4.881  0.5257  2.4694 -0.4913
  566MOL0     H74694  13.337   7.616   4.465  1.5031 -0.6824 -2.4428
  566MOL0     H74695  13.319   7.406   4.341 -0.0083  0.3443 -2.5199
  566MOL0     H74696  13.295   6.945   4.300  0.9042  0.5437 -0.4809
  566MOL0     H74697  13.227   6.726   4.198 -0.0345 -0.1812  0.1073
  566MOL0     H74698  11.517   6.656   4.274  3.5872 -2.9253 -4.0640
  566MOL0     H74699  11.260   6.692   4.368  0.0279 -0.3582 -0.1947
  566MOL0     H74700  10.863   6.639   4.486 -0.1335  1.7257 -1.0046
  566MOL0     H74701  10.652   6.577   4.580 -0.0239 -2.3767  0.3793
  566MOL0     H74702  10.412   6.670   4.576  0.1268  0.4163 -2.4603
  566MOL0     H74703  10.459   6.500   4.630  0.2972  1.4919  1.1524
  566MOL0     H74704  10.190   6.608   4.575  2.7726  1.3986 -2.7404
  566MOL0     H74705  10.230   6.452   4.495  1.1250 -2.1286  0.2041
  566MOL0     H74706  10.297   6.493   4.793  0.0654  1.1018 -0.6802
  566MOL0     H74707  10.299   6.342   4.698 -2.0484 -0.4243  0.4620
  566MOL0     H74708  10.051   6.486   4.751 -1.8916 -1.3243 -2.4143
  566MOL0     H74709  10.071   6.330   4.670  1.1059 -1.7196 -0.2019
  566MOL0     H74710  10.099   6.260   5.092  1.6502  0.3884  0.7638
  566MOL0     H74711  10.497   6.465   4.193  0.6924 -3.7142  0.5617
  566MOL0     H74712  10.712   6.507   4.095 -1.1570 -0.5130  1.0472
  567MOL0     O74713   5.381   2.822   0.037 -0.0087  0.8396 -0.4790
  567MOL0     C74714   5.414   2.811  -0.078 -0.4048  0.3560  0.8970
  567MOL0     O74715   5.335   2.783  -0.188  0.4288 -0.2210 -0.3474
  567MOL0     C74716   5.200   2.783  -0.167 -0.4720 -0.3466 -1.2076
  567MOL0     C74717   5.127   2.711  -0.070  0.0527  0.4086  0.3591
  567MOL0     C74718   4.991   2.719  -0.060  0.4961  0.3861  0.4658
  567MOL0     C74719   4.928   2.805  -0.147 -0.0081  0.0543 -0.1751
  567MOL0     O74720   4.791   2.826  -0.146  0.0501 -0.0133  0.7683
  567MOL0     C74721   4.711   2.770  -0.045 -1.0202  0.3574  0.4310
  567MOL0     C74722   4.670   2.626  -0.059 -0.4300  0.6556 -0.1064
  567MOL0     C74723   4.659   2.560   0.079 -0.1901 -0.5785  0.2371
  567MOL0     C74724   4.609   2.421   0.092 -1.0475 -0.3456 -0.7434
  567MOL0     C74725   4.558   2.392   0.235 -0.4666  1.1346 -0.0670
  567MOL0     C74726   4.679   2.410   0.342  0.2311 -0.0229  0.1576
  567MOL0     C74727   4.810   2.338   0.303 -0.2439  0.0230  0.8524
  567MOL0     C74728   4.772   2.194   0.276  0.3026 -0.0477 -0.6051
  567MOL0     N74729   4.893   2.120   0.253  0.4623 -0.1610  0.0756
  567MOL0     C74730   4.984   2.087   0.352  0.1561  0.0663 -0.8258
  567MOL0     C74731   5.055   1.983   0.298 -0.2414  0.6901  0.4289
  567MOL0     C74732   5.148   1.888   0.370 -0.7586  0.2074  0.2104
  567MOL0     C74733   5.285   1.875   0.292 -0.3694 -0.5617 -1.0285
  567MOL0     C74734   5.276   1.769   0.184  0.8358 -0.0420 -0.5831
  567MOL0     C74735   5.391   1.784   0.091  0.6980 -0.2918  0.2779
  567MOL0     O74736   5.402   1.671  -0.003 -0.3015 -0.0832 -0.4763
  567MOL0     C74737   5.521   1.604   0.007 -0.6617  0.0412  0.1292
  567MOL0     C74738   5.518   1.469  -0.009  0.4705 -0.2311  0.6005
  567MOL0     C74739   5.635   1.394  -0.002 -0.5271 -0.4646 -1.1985
  567MOL0     C74740   5.755   1.456   0.037  0.9982 -0.6416  0.5389
  567MOL0     C74741   5.875   1.383   0.063 -1.2060 -0.8019 -0.5490
  567MOL0     O74742   5.978   1.452   0.114 -0.3421  0.5940  0.3229
  567MOL0     C74743   6.102   1.392   0.132  0.3932  0.5324  0.3864
  567MOL0     C74744   6.136   1.253   0.148  0.1645  0.6079  0.5582
  567MOL0     C74745   6.271   1.218   0.161  0.1090  0.6192  1.1398
  567MOL0     C74746   6.373   1.307   0.160  0.3061 -0.0272 -0.5461
  567MOL0     O74747   6.505   1.271   0.156 -0.1690  0.0334 -0.5036
  567MOL0     C74748   6.597   1.335   0.247 -0.6363  0.5019 -0.7559
  567MOL0     C74749   6.723   1.258   0.246  0.3127  0.5026  0.4478
  567MOL0     C74750   6.780   1.225   0.105  0.5317 -0.4203 -0.1823
  567MOL0     C74751   6.926   1.172   0.087  0.0285  0.9789 -0.5157
  567MOL0     C74752   6.958   1.134  -0.061  0.6737 -0.9884 -0.2876
  567MOL0     C74753   6.920   0.997  -0.088 -0.3488  0.4932 -0.6083
  567MOL0     C74754   6.976   0.943  -0.225  0.1039 -0.9863 -1.0212
  567MOL0     C74755   6.984   0.791  -0.231 -0.8720  0.1729  1.2244
  567MOL0    Cl74756   7.045   0.736  -0.392 -0.1075  0.1079 -0.1512
  567MOL0     C74757   6.352   1.442   0.155 -0.1204 -0.3158 -0.8645
  567MOL0     C74758   6.213   1.481   0.148  0.2916 -0.5978 -0.5045
  567MOL0     O74759   5.877   1.274   0.012 -0.2455  0.5161  0.2826
  567MOL0     C74760   5.756   1.599   0.040  0.4345 -1.0571 -1.0635
  567MOL0     C74761   5.642   1.676   0.027 -0.0444 -0.7889  1.2456
  567MOL0     N74762   5.014   1.959   0.166 -0.4454  0.0604  0.4827
  567MOL0     N74763   4.918   2.044   0.139 -0.0251 -0.1949 -0.0088
  567MOL0     C74764   4.993   2.875  -0.243  0.1946 -0.5511  0.4588
  567MOL0     C74765   5.130   2.865  -0.249  0.4633  0.5616 -0.9855
  567MOL0     C74766   5.557   2.831  -0.110  0.0077 -1.6915  0.8566
  567MOL0     C74767   5.653   2.842  -0.008  1.0428 -0.2580 -0.0197
  567MOL0     C74768   5.784   2.858  -0.030 -0.6117  0.3266 -0.5153
  567MOL0     C74769   5.837   2.858  -0.165 -0.0974 -0.2838  0.1959
  567MOL0     O74770   5.967   2.872  -0.201 -1.4272 -0.2505  0.4457
  567MOL0     C74771   6.067   2.879  -0.094 -0.3413  0.2152  0.2176
  567MOL0     C74772   6.211   2.902  -0.148 -0.5432  0.5867  0.3695
  567MOL0     C74773   6.326   2.916  -0.043 -0.0882 -0.2292  0.5585
  567MOL0     C74774   6.469   2.926  -0.111  1.6570  0.2065 -0.8283
  567MOL0     C74775   6.576   2.969  -0.027  0.6081 -0.5921 -0.2516
  567MOL0     C74776   6.641   3.022   0.058 -0.2473 -0.0834 -0.2423
  567MOL0     C74777   5.744   2.838  -0.268 -0.5764 -0.2861 -0.3633
  567MOL0     C74778   5.607   2.831  -0.241 -0.4192 -0.2273  0.2373
  567MOL0     H74779   5.171   2.650   0.009 -0.9076 -2.9809 -1.5162
  567MOL0     H74780   4.952   2.661   0.023 -1.3445 -0.3601 -0.8468
  567MOL0     H74781   4.623   2.834  -0.038  0.1439  2.4642 -2.2718
  567MOL0     H74782   4.766   2.768   0.050 -2.5455 -0.9335  1.3336
  567MOL0     H74783   4.742   2.563  -0.112  0.2908  0.1174  1.4463
  567MOL0     H74784   4.568   2.619  -0.100 -0.2319  3.1741 -1.1570
  567MOL0     H74785   4.589   2.615   0.143  1.6924  0.5733  1.3823
  567MOL0     H74786   4.758   2.566   0.125  0.1001 -0.0779 -0.4415
  567MOL0     H74787   4.521   2.408   0.029 -0.3050  0.8674 -2.1235
  567MOL0     H74788   4.690   2.353   0.063 -2.1122  0.2508 -6.4173
  567MOL0     H74789   4.513   2.294   0.255  0.9577  0.1221 -1.5580
  567MOL0     H74790   4.486   2.469   0.264  1.5275  2.4060  1.7462
  567MOL0     H74791   4.630   2.361   0.427  1.0248 -1.1707 -0.0139
  567MOL0     H74792   4.694   2.517   0.357 -1.0056  0.1338  0.3299
  567MOL0     H74793   4.844   2.385   0.211 -1.3698 -0.1625  0.3259
  567MOL0     H74794   4.884   2.347   0.383  1.1027  0.6879 -0.4210
  567MOL0     H74795   4.714   2.182   0.184  2.7913  2.3277 -2.6380
  567MOL0     H74796   4.713   2.160   0.362  0.5017 -0.0720 -0.4779
  567MOL0     H74797   4.989   2.119   0.455  0.3570 -2.5218  0.0623
  567MOL0     H74798   5.120   1.784   0.389 -1.0959  0.8063  3.6549
  567MOL0     H74799   5.162   1.927   0.471  2.0076  1.2343 -0.4634
  567MOL0     H74800   5.365   1.840   0.358 -0.3665  1.7273  0.2468
  567MOL0     H74801   5.306   1.972   0.247 -0.2797 -0.2248 -0.2730
  567MOL0     H74802   5.262   1.672   0.232 -1.8579  1.2663  1.5501
  567MOL0     H74803   5.180   1.771   0.132  1.0245  2.0798 -0.9635
  567MOL0     H74804   5.481   1.809   0.150  1.8369  0.6711 -1.7702
  567MOL0     H74805   5.366   1.867   0.024 -0.0442  1.1926  2.2899
  567MOL0     H74806   5.422   1.434  -0.048 -0.4275 -1.9234  4.0014
  567MOL0     H74807   5.619   1.287  -0.003  1.3761 -0.9253  2.3116
  567MOL0     H74808   6.064   1.172   0.145  2.3176 -1.4475 -2.4113
  567MOL0     H74809   6.295   1.112   0.163  0.0852  0.6219  2.6397
  567MOL0     H74810   6.558   1.324   0.349  0.0889 -0.7998 -0.6093
  567MOL0     H74811   6.629   1.438   0.232  0.3940  0.9684  3.3426
  567MOL0     H74812   6.710   1.165   0.303 -2.3521  1.7875  2.0947
  567MOL0     H74813   6.802   1.315   0.296 -1.4288 -0.5332  4.7905
  567MOL0     H74814   6.769   1.323   0.059  1.9934 -0.3364 -0.4215
  567MOL0     H74815   6.703   1.168   0.053 -1.9342  1.5264  1.0912
  567MOL0     H74816   6.985   1.264   0.098  1.8858 -0.3230  1.3327
  567MOL0     H74817   6.960   1.102   0.164  1.4463  0.6910 -1.3584
  567MOL0     H74818   7.067   1.139  -0.068  0.6809 -0.0840  0.2855
  567MOL0     H74819   6.891   1.196  -0.122 -1.1268 -0.0690  2.4462
  567MOL0     H74820   6.814   0.973  -0.078 -0.9662  3.1706  0.0801
  567MOL0     H74821   6.974   0.937  -0.013 -1.1500 -1.6172 -1.6555
  567MOL0     H74822   6.896   0.970  -0.295 -1.5179 -2.9783 -0.0736
  567MOL0     H74823   7.074   0.985  -0.246  1.1527 -3.1705 -0.7665
  567MOL0     H74824   6.881   0.756  -0.224 -0.9648 -0.6423 -2.5097
  567MOL0     H74825   7.041   0.762  -0.142 -3.8221 -2.7909  2.3848
  567MOL0     H74826   6.433   1.514   0.155  0.3595 -0.6721  2.7035
  567MOL0     H74827   6.200   1.588   0.134  0.7566 -0.6666 -1.5932
  567MOL0     H74828   5.847   1.649   0.074 -0.5729 -0.5836  1.0582
  567MOL0     H74829   5.640   1.785   0.021 -0.4121 -0.8355  0.1493
  567MOL0     H74830   4.936   2.947  -0.301  2.6505 -0.3946 -1.9487
  567MOL0     H74831   5.191   2.929  -0.312  3.0523  2.0000  2.6384
  567MOL0     H74832   5.615   2.830   0.093  1.5432  1.4232  0.4043
  567MOL0     H74833   5.855   2.863   0.052 -0.1131 -0.1152 -0.9120
  567MOL0     H74834   6.080   2.789  -0.034  2.9921  1.0861  0.9730
  567MOL0     H74835   6.047   2.958  -0.021  1.4074 -0.6715  1.7229
  567MOL0     H74836   6.243   2.834  -0.228  1.4269  1.3700  0.4307
  567MOL0     H74837   6.202   2.997  -0.203 -4.4713 -0.6556 -1.5160
  567MOL0     H74838   6.314   2.823   0.014 -1.9896 -0.4835 -0.1622
  567MOL0     H74839   6.315   3.007   0.017 -0.6196  1.8400 -2.4886
  567MOL0     H74840   6.496   2.823  -0.136 -0.5219 -1.0125  1.4708
  567MOL0     H74841   6.439   2.998  -0.188 -0.9138  2.1079  1.7609
  567MOL0     H74842   6.720   3.068   0.115  0.9074  0.2499 -2.0213
  567MOL0     H74843   5.786   2.836  -0.368 -1.4003 -1.7407 -0.7092
  567MOL0     H74844   5.549   2.821  -0.332  0.8204 -1.8017 -0.4371
  568MOL0     O74845   6.285   6.004   8.271 -0.2981 -0.3275 -0.3582
  568MOL0     C74846   6.179   5.988   8.332 -0.7209 -0.0444 -1.1909
  568MOL0     O74847   6.098   5.883   8.322 -0.0525  0.2494 -0.5235
  568MOL0     C74848   6.082   5.840   8.199 -0.4557  1.0776 -0.0127
  568MOL0     C74849   6.095   5.910   8.080  0.4485 -0.3792  0.1828
  568MOL0     C74850   6.083   5.841   7.965 -0.1364  0.3133 -0.1806
  568MOL0     C74851   6.030   5.708   7.963  0.2669 -0.5183  0.1695
  568MOL0     O74852   6.001   5.629   7.859  1.2315  0.5256  0.3810
  568MOL0     C74853   6.095   5.648   7.749  0.5798  0.0410  0.0790
  568MOL0     C74854   6.083   5.548   7.635  0.3985  0.6238 -0.3149
  568MOL0     C74855   5.937   5.513   7.590 -0.0867 -0.6314  0.6795
  568MOL0     C74856   5.934   5.393   7.510  0.1644  0.1380 -1.0516
  568MOL0     C74857   5.792   5.340   7.479 -0.6386  0.8018 -1.1019
  568MOL0     C74858   5.706   5.408   7.372 -0.4567  0.5068  0.2502
  568MOL0     C74859   5.749   5.367   7.230 -0.6924 -0.0928 -0.3432
  568MOL0     C74860   5.689   5.450   7.129 -0.6036  0.3337  1.4118
  568MOL0     N74861   5.764   5.430   7.004 -1.1442 -0.5659  0.2809
  568MOL0     C74862   5.866   5.507   6.947  0.5907 -0.0946 -0.0313
  568MOL0     C74863   5.881   5.476   6.818 -0.1903  1.0477  0.2148
  568MOL0     C74864   5.945   5.551   6.708 -1.0234 -0.4503  0.4749
  568MOL0     C74865   5.839   5.635   6.631  0.0225 -0.1615  0.0875
  568MOL0     C74866   5.872   5.697   6.495  0.4492 -0.2805 -0.4362
  568MOL0     C74867   5.956   5.825   6.499  0.3188 -0.2195  0.1369
  568MOL0     O74868   6.017   5.855   6.376  0.8662 -0.0425 -0.5173
  568MOL0     C74869   6.094   5.959   6.354 -0.3252 -0.5435 -1.1997
  568MOL0     C74870   6.130   6.057   6.455  0.7151  0.6383 -0.1853
  568MOL0     C74871   6.214   6.154   6.417  0.0961 -0.9432 -0.9639
  568MOL0     C74872   6.277   6.164   6.285  0.7127 -0.5919 -1.0195
  568MOL0     C74873   6.357   6.269   6.239 -0.2215 -0.3372 -1.3850
  568MOL0     O74874   6.393   6.357   6.342 -0.6130 -0.6770  0.7900
  568MOL0     C74875   6.460   6.472   6.320 -0.4974  0.0511  0.3666
  568MOL0     C74876   6.438   6.553   6.206  0.0275  0.3558  0.7897
  568MOL0     C74877   6.487   6.680   6.202  0.2325  0.6015  0.5791
  568MOL0     C74878   6.562   6.739   6.305  0.2381 -0.7622  0.8069
  568MOL0     O74879   6.611   6.872   6.307  0.2064 -0.0119 -0.9454
  568MOL0     C74880   6.667   6.931   6.185 -0.7781  1.2483 -1.3274
  568MOL0     C74881   6.796   6.846   6.136  0.0515  0.1634 -0.6239
  568MOL0     C74882   6.921   6.883   6.210 -0.1499  0.6340  0.2650
  568MOL0     C74883   7.041   6.787   6.178 -0.7429  0.4488  0.2346
  568MOL0     C74884   7.173   6.845   6.239  0.2921  1.0214  0.2577
  568MOL0     C74885   7.291   6.764   6.186  1.0580 -0.4825  0.5128
  568MOL0     C74886   7.301   6.787   6.032  0.5979  0.4975 -0.1921
  568MOL0     C74887   7.447   6.786   5.986  0.3846 -1.0274 -0.1716
  568MOL0    Cl74888   7.549   6.895   6.067 -0.3227  0.0456 -0.2531
  568MOL0     C74889   6.582   6.661   6.409  0.2982 -0.7697  0.5815
  568MOL0     C74890   6.546   6.529   6.418 -0.1588  0.0761  0.1933
  568MOL0     O74891   6.424   6.262   6.132 -0.1694  0.4441  0.4927
  568MOL0     C74892   6.239   6.064   6.194 -0.0393 -0.6430  0.3994
  568MOL0     C74893   6.154   5.964   6.230  0.4128  0.3847  0.5519
  568MOL0     N74894   5.799   5.366   6.801 -0.2479  0.0356  0.3603
  568MOL0     N74895   5.730   5.346   6.905 -0.3309  0.7493 -0.6340
  568MOL0     C74896   5.996   5.646   8.078  0.6484  0.0931  0.1673
  568MOL0     C74897   6.035   5.711   8.196  0.5526 -0.5712  0.2984
  568MOL0     C74898   6.167   6.072   8.447  0.8169 -0.5989 -0.5519
  568MOL0     C74899   6.072   6.039   8.542  0.2131  0.6484  0.4526
  568MOL0     C74900   6.056   6.115   8.657 -0.0340  0.6505  0.3894
  568MOL0     C74901   6.134   6.224   8.679  0.2358  0.3358  0.3305
  568MOL0     O74902   6.113   6.307   8.785  0.4575  0.0402 -0.8072
  568MOL0     C74903   6.209   6.296   8.893  0.5371 -0.1325 -0.3243
  568MOL0     C74904   6.163   6.407   8.984 -0.6305 -0.2309 -0.6849
  568MOL0     C74905   6.036   6.375   9.069 -0.1171  0.0072  0.0311
  568MOL0     C74906   5.993   6.503   9.139  0.0770  0.1821 -0.2083
  568MOL0     C74907   5.861   6.470   9.195  0.5999 -0.5054 -0.0802
  568MOL0     C74908   5.747   6.452   9.233  0.8088 -0.0767 -0.2710
  568MOL0     C74909   6.242   6.255   8.595  0.0897  0.5458  0.4845
  568MOL0     C74910   6.248   6.181   8.477 -0.8416 -1.4280 -0.7107
  568MOL0     H74911   6.111   6.017   8.080 -0.9356 -0.1433  0.5201
  568MOL0     H74912   6.088   5.900   7.874 -1.7141  2.0716  0.7827
  568MOL0     H74913   6.198   5.632   7.781  0.4888 -4.5105 -1.1532
  568MOL0     H74914   6.072   5.744   7.703 -1.5805 -0.5169 -0.1552
  568MOL0     H74915   6.128   5.457   7.677 -1.8986 -0.3730  0.1283
  568MOL0     H74916   6.137   5.577   7.544 -0.3865  0.0021 -0.9853
  568MOL0     H74917   5.905   5.602   7.534  1.1918  0.2952  1.3763
  568MOL0     H74918   5.879   5.497   7.681 -1.7328 -2.7475 -0.6506
  568MOL0     H74919   5.991   5.401   7.417 -0.4781 -3.0516 -1.8446
  568MOL0     H74920   5.979   5.314   7.570  0.8547  1.7229  0.5869
  568MOL0     H74921   5.736   5.353   7.572 -0.2709  1.2524 -0.9403
  568MOL0     H74922   5.795   5.234   7.452 -2.3582  0.5500 -0.4267
  568MOL0     H74923   5.718   5.516   7.380  0.3216  0.4859 -0.4851
  568MOL0     H74924   5.605   5.366   7.385  0.2960 -0.5999  3.8129
  568MOL0     H74925   5.858   5.374   7.233 -0.5984 -1.2118 -0.6001
  568MOL0     H74926   5.741   5.261   7.202 -0.5991  0.3993 -2.4178
  568MOL0     H74927   5.707   5.552   7.164 -0.9866  0.2612  1.8115
  568MOL0     H74928   5.585   5.427   7.108 -0.3581  1.3839 -1.3711
  568MOL0     H74929   5.923   5.592   6.983 -0.7680 -0.3202  2.9006
  568MOL0     H74930   5.993   5.479   6.641 -0.4107 -0.4384  0.8987
  568MOL0     H74931   6.025   5.614   6.747  1.0222 -1.1558 -2.2850
  568MOL0     H74932   5.818   5.721   6.695 -0.1450  1.1839 -1.7168
  568MOL0     H74933   5.755   5.568   6.610 -0.6578  1.2509 -1.9347
  568MOL0     H74934   5.926   5.628   6.429  2.1330  0.9087 -0.3702
  568MOL0     H74935   5.779   5.722   6.444 -1.1216 -2.4854  1.1535
  568MOL0     H74936   6.033   5.825   6.577 -1.7184  0.8849  2.2918
  568MOL0     H74937   5.888   5.907   6.524  2.5863  2.4223 -1.8193
  568MOL0     H74938   6.090   6.045   6.555  1.0821 -0.4859 -0.1564
  568MOL0     H74939   6.236   6.234   6.487 -1.1648 -1.4224  0.0354
  568MOL0     H74940   6.372   6.512   6.130  3.8945  1.7598 -3.8157
  568MOL0     H74941   6.472   6.744   6.116 -3.8690  1.1091  1.4772
  568MOL0     H74942   6.700   7.032   6.211 -2.4709  1.4010  0.4425
  568MOL0     H74943   6.584   6.945   6.115 -0.1432  0.3435 -2.2852
  568MOL0     H74944   6.799   6.861   6.028 -3.6293 -1.4589 -1.0954
  568MOL0     H74945   6.779   6.741   6.160 -3.1284  0.9626  1.2969
  568MOL0     H74946   6.907   6.883   6.319  0.9938  2.1722  0.4342
  568MOL0     H74947   6.945   6.986   6.183  2.7932  0.9310  3.3495
  568MOL0     H74948   7.022   6.689   6.223 -2.5807  0.6096 -0.0912
  568MOL0     H74949   7.052   6.769   6.070 -0.9442 -0.3144  0.3321
  568MOL0     H74950   7.175   6.822   6.346  0.7018 -0.2286  0.0046
  568MOL0     H74951   7.183   6.951   6.217 -0.1167  1.2230  0.9929
  568MOL0     H74952   7.272   6.657   6.197 -1.6434 -0.5058 -2.8845
  568MOL0     H74953   7.385   6.788   6.238  0.4025 -0.1609  1.5895
  568MOL0     H74954   7.252   6.708   5.973  0.9349  0.9150 -1.0550
  568MOL0     H74955   7.262   6.884   6.002  2.0764  0.8792 -1.0240
  568MOL0     H74956   7.458   6.796   5.877  3.1907  1.0137  0.1861
  568MOL0     H74957   7.484   6.684   5.995  0.7169 -0.8979 -0.0494
  568MOL0     H74958   6.644   6.692   6.493 -0.0189  1.8863 -0.0645
  568MOL0     H74959   6.558   6.460   6.501 -1.2889 -3.7101 -2.4740
  568MOL0     H74960   6.297   6.065   6.102 -1.9521  1.1795 -0.9062
  568MOL0     H74961   6.164   5.881   6.161  4.4301  1.8021 -0.8847
  568MOL0     H74962   5.974   5.541   8.091  1.0486  0.1257  1.1608
  568MOL0     H74963   6.007   5.679   8.296  2.7031 -0.4932  0.9786
  568MOL0     H74964   5.998   5.960   8.531 -2.5607  2.7323  2.4927
  568MOL0     H74965   5.981   6.076   8.725 -0.0695  1.2123  0.6801
  568MOL0     H74966   6.305   6.320   8.847 -0.2265 -3.3628 -4.2010
  568MOL0     H74967   6.215   6.206   8.955  0.0404  0.9323  1.3452
  568MOL0     H74968   6.239   6.423   9.061  0.2893 -2.1564 -1.1271
  568MOL0     H74969   6.142   6.496   8.924 -2.2326  1.5799  2.3059
  568MOL0     H74970   6.067   6.310   9.152 -2.0424 -0.1889  0.6561
  568MOL0     H74971   5.950   6.331   9.017 -0.7920  1.0693  0.2144
  568MOL0     H74972   6.071   6.532   9.210 -1.4536 -0.7443  1.9476
  568MOL0     H74973   5.973   6.583   9.067  1.0835 -0.8911 -1.7448
  568MOL0     H74974   5.641   6.461   9.240  0.8997  0.5548  0.4371
  568MOL0     H74975   6.295   6.346   8.620  1.6746 -0.7356  2.0763
  568MOL0     H74976   6.335   6.204   8.416 -0.7198 -0.8813 -0.3369
  569MOL0     O74977   6.207   2.037   1.673  0.3827  0.8932 -0.2208
  569MOL0     C74978   6.329   2.049   1.640 -0.2050 -0.1826 -0.9962
  569MOL0     O74979   6.413   2.157   1.678  0.2033  0.2333 -0.3701
  569MOL0     C74980   6.369   2.271   1.749 -0.8094  0.3486 -0.3711
  569MOL0     C74981   6.403   2.409   1.704 -0.6874 -0.1126 -0.5497
  569MOL0     C74982   6.372   2.509   1.783 -0.0641  0.2881  0.5021
  569MOL0     C74983   6.291   2.501   1.897 -0.0664  0.1496  0.1358
  569MOL0     O74984   6.237   2.606   1.971 -0.0844  0.0806  0.7513
  569MOL0     C74985   6.309   2.732   1.991 -0.8460 -0.4687 -0.9357
  569MOL0     C74986   6.208   2.852   2.004  0.2275  0.2500  1.1216
  569MOL0     C74987   6.267   2.955   2.094  0.9369  0.2049  1.4294
  569MOL0     C74988   6.164   3.070   2.111 -0.2123 -1.0083 -0.5738
  569MOL0     C74989   6.204   3.182   2.211 -0.5443 -0.5097  0.1627
  569MOL0     C74990   6.101   3.289   2.209  0.2186 -0.0726  0.2717
  569MOL0     C74991   6.136   3.404   2.303 -0.3023 -0.2887  0.4102
  569MOL0     C74992   6.039   3.522   2.322  0.1619  0.2676  0.3846
  569MOL0     N74993   6.047   3.613   2.199 -0.4941 -0.5144 -0.4505
  569MOL0     C74994   6.122   3.734   2.191  0.2660  0.5360  0.2525
  569MOL0     C74995   6.087   3.777   2.058 -0.0322  0.2917 -0.2093
  569MOL0     C74996   6.140   3.903   1.997  0.3687 -0.6076 -0.3169
  569MOL0     C74997   6.193   4.005   2.103  0.3016 -0.8460 -0.4463
  569MOL0     C74998   6.251   4.141   2.049  0.5105 -0.0686  0.7410
  569MOL0     C74999   6.349   4.215   2.144 -0.2661 -0.0111  0.6964
  569MOL0     O75000   6.307   4.221   2.284  0.1656 -0.8229  0.5620
  569MOL0     C75001   6.407   4.197   2.380  0.0574 -0.3311  0.0422
  569MOL0     C75002   6.518   4.281   2.394 -0.4835  0.0480  0.3220
  569MOL0     C75003   6.610   4.260   2.500 -0.0557  0.3046 -0.1280
  569MOL0     C75004   6.583   4.153   2.587 -0.8333  0.0175 -0.4169
  569MOL0     C75005   6.687   4.122   2.694  0.3805 -0.8454  0.6593
  569MOL0     O75006   6.670   4.018   2.776  0.3934 -0.0782  0.9761
  569MOL0     C75007   6.772   3.978   2.856  0.0793  0.1170  0.4768
  569MOL0     C75008   6.895   4.028   2.884  0.1500  0.2577  0.9392
  569MOL0     C75009   6.989   3.944   2.958  0.6526 -0.0030 -0.4165
  569MOL0     C75010   6.940   3.822   3.009  0.7321 -0.9070 -0.0402
  569MOL0     O75011   7.015   3.730   3.076  0.3574  0.4208  0.1602
  569MOL0     C75012   7.071   3.770   3.207 -0.1084 -0.5506  0.3919
  569MOL0     C75013   7.227   3.797   3.204 -0.6664  0.0286 -0.4701
  569MOL0     C75014   7.280   3.860   3.342 -0.2067 -0.0915 -0.6866
  569MOL0     C75015   7.396   3.962   3.318  0.3480 -0.0251  0.2388
  569MOL0     C75016   7.517   3.941   3.413 -1.6419  1.5468 -0.1331
  569MOL0     C75017   7.470   3.981   3.548  0.5746 -0.3868 -0.2400
  569MOL0     C75018   7.584   3.975   3.650 -0.4003 -1.7393 -0.2473
  569MOL0     C75019   7.579   4.049   3.779 -0.3473 -0.5218  0.0110
  569MOL0    Cl75020   7.438   3.994   3.878  0.2852  0.4585 -0.5020
  569MOL0     C75021   6.812   3.775   2.982  0.5904  0.7994 -0.0133
  569MOL0     C75022   6.734   3.855   2.902  0.6761  0.6013 -0.4182
  569MOL0     O75023   6.785   4.198   2.692 -0.0347 -0.5084  0.2407
  569MOL0     C75024   6.473   4.066   2.573 -0.6169 -0.1932  0.0608
  569MOL0     C75025   6.383   4.092   2.472 -0.1078 -0.0086 -0.6558
  569MOL0     N75026   5.997   3.692   1.999 -0.6859  0.1009 -0.8304
  569MOL0     N75027   5.973   3.597   2.082 -0.6202 -0.7574 -0.5667
  569MOL0     C75028   6.263   2.377   1.949  0.1810  0.4676  0.0766
  569MOL0     C75029   6.298   2.262   1.870 -0.3560 -0.5523 -0.6719
  569MOL0     C75030   6.390   1.947   1.562 -0.5273  0.6330  0.0481
  569MOL0     C75031   6.522   1.963   1.502  0.0624 -0.2092 -0.7589
  569MOL0     C75032   6.585   1.853   1.435 -0.3304 -0.2458 -0.4367
  569MOL0     C75033   6.525   1.724   1.427  0.5112 -0.7119  0.4664
  569MOL0     O75034   6.590   1.611   1.366  0.2533 -0.8441  0.2358
  569MOL0     C75035   6.714   1.634   1.290  0.7692 -0.2539  0.0060
  569MOL0     C75036   6.810   1.518   1.273 -0.3614  0.5352  0.2353
  569MOL0     C75037   6.938   1.565   1.199  0.6098 -0.1659 -1.4192
  569MOL0     C75038   6.991   1.447   1.118 -0.2384  0.2795 -0.8185
  569MOL0     C75039   7.141   1.465   1.093  0.3775 -0.1643  0.1042
  569MOL0     C75040   7.255   1.499   1.060 -0.1037  0.1515 -0.5542
  569MOL0     C75041   6.403   1.709   1.478  0.7148  0.3032  0.9736
  569MOL0     C75042   6.332   1.818   1.542  0.4231  0.7417 -0.0477
  569MOL0     H75043   6.457   2.401   1.610  0.1189 -2.9761  0.0525
  569MOL0     H75044   6.403   2.608   1.750  1.5892 -0.2045  0.4532
  569MOL0     H75045   6.374   2.761   1.909  1.7593  0.5579  1.3409
  569MOL0     H75046   6.363   2.730   2.086 -2.2506  0.6500 -0.0701
  569MOL0     H75047   6.115   2.813   2.047 -0.6201  1.7281  0.6962
  569MOL0     H75048   6.189   2.892   1.904  1.6451 -2.8782 -0.5443
  569MOL0     H75049   6.363   2.989   2.052  0.4694 -0.5428 -0.3405
  569MOL0     H75050   6.283   2.915   2.195 -0.1097  6.0530  4.3619
  569MOL0     H75051   6.142   3.113   2.012  0.9777  2.1270  0.4116
  569MOL0     H75052   6.066   3.037   2.145 -2.2259  1.9352 -2.9838
  569MOL0     H75053   6.301   3.222   2.178 -1.0396  0.2455 -0.4015
  569MOL0     H75054   6.223   3.137   2.309  0.1392 -2.8103 -0.9442
  569MOL0     H75055   6.002   3.253   2.238 -0.4565  0.4505 -1.2629
  569MOL0     H75056   6.092   3.324   2.105 -1.1844 -2.4372 -0.4835
  569MOL0     H75057   6.140   3.360   2.404 -0.6039  0.8555  0.9327
  569MOL0     H75058   6.233   3.452   2.289  0.3102 -0.4163  3.4778
  569MOL0     H75059   6.059   3.582   2.412  1.9282 -1.0795  0.9435
  569MOL0     H75060   5.936   3.496   2.350 -0.0477  1.7356  1.0913
  569MOL0     H75061   6.191   3.775   2.265 -0.7313  2.7373  0.0485
  569MOL0     H75062   6.067   3.961   1.940 -2.0131 -1.5182  1.6441
  569MOL0     H75063   6.214   3.878   1.920  3.0609  1.8608  1.2709
  569MOL0     H75064   6.276   3.965   2.160  1.2119 -0.1300 -1.2318
  569MOL0     H75065   6.107   4.037   2.164 -1.6892 -1.7364 -2.6214
  569MOL0     H75066   6.289   4.131   1.947 -1.6743 -0.5500 -0.0968
  569MOL0     H75067   6.168   4.212   2.051 -0.0753 -0.3698 -3.5011
  569MOL0     H75068   6.367   4.316   2.108 -0.7286 -0.2159 -0.1336
  569MOL0     H75069   6.442   4.158   2.137  0.2000  0.8413 -0.4380
  569MOL0     H75070   6.518   4.364   2.323  0.1174  0.0258  0.2950
  569MOL0     H75071   6.697   4.325   2.507 -1.9909  3.2790 -1.3030
  569MOL0     H75072   6.939   4.124   2.858 -0.5844  0.1855 -0.6663
  569MOL0     H75073   7.090   3.976   2.979  0.4442  2.5547 -2.7575
  569MOL0     H75074   7.041   3.690   3.275 -4.8534  0.6267  0.0062
  569MOL0     H75075   7.022   3.858   3.250  2.8818  0.1868  2.6075
  569MOL0     H75076   7.244   3.853   3.112 -1.8250 -0.6241 -1.0999
  569MOL0     H75077   7.265   3.696   3.182 -1.1883  0.2186 -2.4281
  569MOL0     H75078   7.304   3.785   3.417 -0.2921  1.1134  0.5775
  569MOL0     H75079   7.203   3.921   3.392  0.7150 -0.0198  0.6921
  569MOL0     H75080   7.428   3.948   3.214 -2.8489  0.4330 -0.9411
  569MOL0     H75081   7.362   4.064   3.334 -0.4023 -0.2942  0.3908
  569MOL0     H75082   7.605   3.999   3.382 -1.8540  0.7682 -2.4237
  569MOL0     H75083   7.547   3.836   3.424  2.1453  2.4170 -0.6230
  569MOL0     H75084   7.386   3.922   3.586  0.5207 -1.2980 -1.6946
  569MOL0     H75085   7.437   4.085   3.552 -3.4686 -1.5182  1.1130
  569MOL0     H75086   7.617   3.873   3.674  0.9220 -1.4805 -0.8672
  569MOL0     H75087   7.672   4.019   3.601 -1.4142 -1.9212 -2.3394
  569MOL0     H75088   7.588   4.157   3.765 -0.7259 -0.6062 -0.9700
  569MOL0     H75089   7.673   4.022   3.827  0.0863 -2.4808 -1.7853
  569MOL0     H75090   6.793   3.684   3.037  0.5947  1.0752  0.4441
  569MOL0     H75091   6.635   3.822   2.873 -0.0198  0.0724  2.2889
  569MOL0     H75092   6.462   3.979   2.637  0.7846  1.1355  2.2245
  569MOL0     H75093   6.301   4.021   2.480 -0.5843  0.5804 -0.2832
  569MOL0     H75094   6.209   2.355   2.040 -1.0211  0.7883 -0.5413
  569MOL0     H75095   6.290   2.164   1.914  1.1191 -0.6348 -0.5606
  569MOL0     H75096   6.592   2.045   1.511  2.2813 -2.1377  0.9847
  569MOL0     H75097   6.683   1.872   1.393 -0.1315  3.1965  1.2757
  569MOL0     H75098   6.781   1.702   1.343  1.2993 -1.0706  0.3966
  569MOL0     H75099   6.691   1.693   1.201 -2.9259 -1.1654  0.1713
  569MOL0     H75100   6.839   1.469   1.366  0.3233 -0.7837 -0.6392
  569MOL0     H75101   6.758   1.447   1.207 -0.5385 -3.1837  3.9443
  569MOL0     H75102   7.018   1.587   1.271 -0.0409 -4.6248  1.0858
  569MOL0     H75103   6.925   1.638   1.119 -0.5903  0.9916 -0.2025
  569MOL0     H75104   6.981   1.348   1.162 -1.1240 -0.0045 -1.6133
  569MOL0     H75105   6.934   1.454   1.024 -1.1762 -1.9393 -0.4722
  569MOL0     H75106   7.359   1.520   1.046  0.1700 -0.2527  0.7234
  569MOL0     H75107   6.349   1.615   1.472  2.1525 -0.4283 -2.9711
  569MOL0     H75108   6.232   1.786   1.572  0.6207  0.6733  0.5485
  570MOL0     O75109   2.090   0.354   5.614 -0.1021 -0.4283 -0.6606
  570MOL0     C75110   2.013   0.344   5.520 -0.2495  0.5108 -0.8557
  570MOL0     O75111   1.991   0.230   5.454 -0.1478  0.8242 -0.1854
  570MOL0     C75112   2.033   0.103   5.489  1.4777  0.3800  0.7199
  570MOL0     C75113   2.069   0.065   5.620 -0.5747  0.1344  0.0234
  570MOL0     C75114   2.104  -0.070   5.640  0.6847  0.6164 -0.1741
  570MOL0     C75115   2.094  -0.172   5.548  0.5045 -0.5839  0.0373
  570MOL0     O75116   2.132  -0.299   5.577 -0.0164 -0.1103 -0.3688
  570MOL0     C75117   2.046  -0.403   5.525  0.2923 -0.5140  0.0218
  570MOL0     C75118   1.915  -0.411   5.605  0.1603  0.5962 -0.0963
  570MOL0     C75119   1.813  -0.295   5.588  0.7525  0.4896  0.7396
  570MOL0     C75120   1.667  -0.329   5.605  1.2439 -0.2834  0.7617
  570MOL0     C75121   1.569  -0.202   5.607 -0.2515  0.3026 -0.2212
  570MOL0     C75122   1.600  -0.106   5.494 -0.2435  0.2139 -0.1906
  570MOL0     C75123   1.497   0.006   5.497  0.2554  0.0538  0.3716
  570MOL0     C75124   1.366  -0.035   5.419  0.6498 -0.0495  0.6107
  570MOL0     N75125   1.276   0.080   5.420  0.8766  0.6994 -0.0452
  570MOL0     C75126   1.261   0.181   5.325  0.5780 -0.3939  0.0760
  570MOL0     C75127   1.159   0.257   5.368  0.3801 -0.3557  0.6615
  570MOL0     C75128   1.112   0.384   5.304 -0.4669  0.5559 -0.0870
  570MOL0     C75129   1.219   0.497   5.308 -0.6470 -0.4136 -0.0171
  570MOL0     C75130   1.158   0.629   5.283  0.2989  0.0307 -0.5798
  570MOL0     C75131   1.112   0.644   5.133  0.2063  0.2320 -0.0807
  570MOL0     O75132   0.978   0.588   5.121 -0.4719 -0.7577  0.2816
  570MOL0     C75133   0.863   0.665   5.154 -0.0940 -0.4984 -0.0537
  570MOL0     C75134   0.859   0.805   5.174 -0.0383 -0.5966  0.6156
  570MOL0     C75135   0.743   0.876   5.214  0.4336  0.4806  1.2539
  570MOL0     C75136   0.628   0.804   5.242  0.1965  0.3384  0.5418
  570MOL0     C75137   0.506   0.880   5.284  0.6591  0.5745  0.7686
  570MOL0     O75138   0.507   1.018   5.265 -0.2089 -0.1339 -0.4487
  570MOL0     C75139   0.396   1.088   5.301  0.3282  0.0960 -0.3965
  570MOL0     C75140   0.341   1.179   5.214 -0.0247 -0.2571 -0.4778
  570MOL0     C75141   0.239   1.258   5.255 -0.1086 -0.6480 -0.9379
  570MOL0     C75142   0.200   1.263   5.393  0.0839  0.9631 -0.2260
  570MOL0     O75143   0.118   1.357   5.438 -0.6613 -0.4721 -0.2018
  570MOL0     C75144   0.001   1.311   5.509  0.0948  0.0389  0.5456
  570MOL0     C75145  -0.100   1.432   5.512  0.0568  0.0517 -0.1561
  570MOL0     C75146  -0.034   1.558   5.566  0.5938 -0.4104 -0.1828
  570MOL0     C75147  -0.126   1.689   5.573 -0.8256  0.3651 -0.0125
  570MOL0     C75148  -0.204   1.667   5.701 -0.0563 -0.0130  0.4386
  570MOL0     C75149  -0.263   1.808   5.734 -0.6138  0.2607  0.6663
  570MOL0     C75150  -0.329   1.803   5.873 -0.1158 -0.1354 -1.1542
  570MOL0     C75151  -0.467   1.734   5.873  0.9698  0.6139  0.2038
  570MOL0    Cl75152  -0.519   1.692   6.044 -0.2654  0.3733  0.3617
  570MOL0     C75153   0.253   1.163   5.479 -0.0477 -0.6072  0.4130
  570MOL0     C75154   0.346   1.076   5.434 -0.5287  0.8760  0.0103
  570MOL0     O75155   0.402   0.820   5.317 -0.9306 -0.2980 -0.2504
  570MOL0     C75156   0.633   0.660   5.237  0.7877  0.0390  0.9097
  570MOL0     C75157   0.753   0.592   5.196  0.1729  1.3404 -0.0843
  570MOL0     N75158   1.112   0.206   5.485  0.4729  0.2141  0.7733
  570MOL0     N75159   1.168   0.087   5.494  0.4686  0.1193 -0.2956
  570MOL0     C75160   2.047  -0.128   5.417  0.1992  0.2820 -0.3382
  570MOL0     C75161   2.022   0.003   5.385 -0.3823 -0.1481  0.1416
  570MOL0     C75162   1.951   0.472   5.464  0.4450  1.1696 -0.2218
  570MOL0     C75163   1.969   0.599   5.517  0.8823  0.1492 -0.2932
  570MOL0     C75164   1.898   0.713   5.475  0.2299 -0.3392 -0.4796
  570MOL0     C75165   1.805   0.701   5.365 -0.9436  0.2424  1.0259
  570MOL0     O75166   1.748   0.807   5.300 -0.3738  0.5638  0.0849
  570MOL0     C75167   1.751   0.940   5.340 -0.2489 -0.5846  0.6164
  570MOL0     C75168   1.616   0.980   5.397  0.0452 -0.2190 -0.0438
  570MOL0     C75169   1.605   1.132   5.381  0.0079  0.9561 -0.1381
  570MOL0     C75170   1.513   1.203   5.477 -0.8142 -0.2423 -0.3227
  570MOL0     C75171   1.578   1.197   5.616 -0.0735  0.0963  0.1909
  570MOL0     C75172   1.598   1.201   5.733  0.3995  0.1040 -0.2934
  570MOL0     C75173   1.794   0.568   5.312  0.4639  0.2558  0.0026
  570MOL0     C75174   1.849   0.459   5.373 -0.0669  0.4167  0.4875
  570MOL0     H75175   2.063   0.135   5.703 -0.0507  2.3129 -1.6662
  570MOL0     H75176   2.144  -0.101   5.736  1.3223  0.0067 -0.6299
  570MOL0     H75177   2.106  -0.491   5.551 -2.1363 -2.6248 -1.0889
  570MOL0     H75178   2.030  -0.408   5.417  0.9069 -0.1813 -0.0899
  570MOL0     H75179   1.940  -0.421   5.711  1.0700  0.9321 -0.2675
  570MOL0     H75180   1.860  -0.499   5.571 -2.6716  1.2379  2.4197
  570MOL0     H75181   1.824  -0.272   5.482  0.8912 -0.2460  0.5920
  570MOL0     H75182   1.837  -0.207   5.648  1.1927  0.2601  0.9061
  570MOL0     H75183   1.635  -0.396   5.525 -1.7026  1.2892  0.4862
  570MOL0     H75184   1.651  -0.381   5.699 -0.0017  2.4955  2.1913
  570MOL0     H75185   1.583  -0.154   5.704 -3.3073 -3.0052  2.1558
  570MOL0     H75186   1.466  -0.237   5.622  0.2946 -1.3908 -0.2301
  570MOL0     H75187   1.597  -0.168   5.404  4.0282  0.0976 -0.4725
  570MOL0     H75188   1.699  -0.059   5.498 -0.6263  0.9652  2.8294
  570MOL0     H75189   1.459   0.030   5.596 -3.5231  2.0401 -1.3359
  570MOL0     H75190   1.533   0.097   5.447 -0.6873  2.0418  3.1007
  570MOL0     H75191   1.323  -0.132   5.445  3.3904 -1.6084 -0.2609
  570MOL0     H75192   1.396  -0.053   5.315  4.3935  2.0064  1.1272
  570MOL0     H75193   1.326   0.191   5.238 -0.9061  1.5312 -0.9066
  570MOL0     H75194   1.020   0.422   5.350 -0.1922  2.4921 -1.0507
  570MOL0     H75195   1.089   0.348   5.203  0.1319 -4.5621  1.2891
  570MOL0     H75196   1.286   0.473   5.225 -1.4306 -3.2898  0.0725
  570MOL0     H75197   1.262   0.503   5.408 -4.0831  1.6201  1.5121
  570MOL0     H75198   1.070   0.650   5.344  0.3581 -4.2753  1.3392
  570MOL0     H75199   1.232   0.704   5.310  1.0595 -1.0324  0.3660
  570MOL0     H75200   1.183   0.597   5.064 -0.0280  1.3737 -1.1151
  570MOL0     H75201   1.119   0.751   5.111  1.1684  0.6309  1.8655
  570MOL0     H75202   0.944   0.868   5.151  0.2652 -0.7308  1.3548
  570MOL0     H75203   0.731   0.984   5.219  1.3285  0.7809 -1.5511
  570MOL0     H75204   0.368   1.186   5.109  0.1617 -0.1768 -0.4253
  570MOL0     H75205   0.190   1.335   5.196 -0.9195 -0.6490 -0.2745
  570MOL0     H75206   0.019   1.287   5.614  0.0524  0.1109  0.5691
  570MOL0     H75207  -0.047   1.232   5.450 -0.1910  1.0766 -0.6599
  570MOL0     H75208  -0.182   1.400   5.576 -1.7918  2.2409 -1.2849
  570MOL0     H75209  -0.136   1.460   5.412  1.5626  0.3708 -0.6355
  570MOL0     H75210   0.049   1.584   5.500  0.5793 -0.9327 -0.4143
  570MOL0     H75211   0.015   1.542   5.662  1.4658  2.2071 -0.1251
  570MOL0     H75212  -0.066   1.781   5.583 -0.0758  0.1406 -2.0409
  570MOL0     H75213  -0.186   1.715   5.485 -2.5837 -1.7690  0.4835
  570MOL0     H75214  -0.153   1.614   5.782 -2.1558 -0.8608  1.2511
  570MOL0     H75215  -0.288   1.606   5.668 -2.7366  2.4309  2.2932
  570MOL0     H75216  -0.334   1.832   5.655  0.9295  4.2600  0.2512
  570MOL0     H75217  -0.190   1.889   5.726 -1.1639  0.9122  1.9885
  570MOL0     H75218  -0.268   1.751   5.948  0.1336  1.5906 -0.0759
  570MOL0     H75219  -0.350   1.907   5.899  0.1864 -0.5667  1.0537
  570MOL0     H75220  -0.455   1.636   5.827 -3.6111 -1.2739  2.4228
  570MOL0     H75221  -0.545   1.781   5.812  1.9519 -1.7943 -3.1899
  570MOL0     H75222   0.217   1.151   5.580 -0.7534 -2.1276  0.0198
  570MOL0     H75223   0.393   1.002   5.497 -1.3255 -0.4072 -0.8555
  570MOL0     H75224   0.535   0.622   5.265 -0.1668  0.8470 -1.1048
  570MOL0     H75225   0.763   0.484   5.190  1.3394  1.4338 -0.1922
  570MOL0     H75226   2.018  -0.208   5.349  0.8963 -0.0845 -0.2125
  570MOL0     H75227   1.977   0.024   5.289 -2.5353 -1.6101  0.7727
  570MOL0     H75228   2.047   0.610   5.592  0.5427  0.4743  0.0150
  570MOL0     H75229   1.926   0.802   5.531  3.0597 -0.9574 -0.7402
  570MOL0     H75230   1.775   0.997   5.250  1.4905 -1.6580  0.3559
  570MOL0     H75231   1.827   0.957   5.417 -1.4916 -1.9109  2.2297
  570MOL0     H75232   1.529   0.931   5.352 -0.6288  0.5436  0.4043
  570MOL0     H75233   1.612   0.942   5.499 -0.4022 -1.7185 -0.6017
  570MOL0     H75234   1.584   1.159   5.277  1.7274 -0.0927 -0.7999
  570MOL0     H75235   1.703   1.176   5.400  1.2389 -1.0618 -1.3776
  570MOL0     H75236   1.493   1.300   5.430 -0.7891 -0.3593 -0.5765
  570MOL0     H75237   1.423   1.142   5.476 -1.5976  0.8788 -1.7422
  570MOL0     H75238   1.604   1.198   5.840  0.8903 -1.8316 -0.3442
  570MOL0     H75239   1.736   0.581   5.221  0.9173 -0.8311 -0.4651
  570MOL0     H75240   1.832   0.361   5.331  2.5345  0.8903 -1.9892
  571MOL0     O75241   3.136   5.052   7.993  0.0283 -0.1596 -0.1818
  571MOL0     C75242   3.128   5.175   7.981  0.1307 -0.8159 -0.9915
  571MOL0     O75243   3.144   5.264   8.088 -0.0256 -0.5142 -0.2984
  571MOL0     C75244   3.139   5.219   8.211 -0.0707 -0.4701 -0.5034
  571MOL0     C75245   3.047   5.128   8.265  0.5849  0.6498 -1.0209
  571MOL0     C75246   3.068   5.069   8.387  0.1068 -0.1558 -0.3932
  571MOL0     C75247   3.153   5.123   8.484 -0.0386  0.7538  0.1635
  571MOL0     O75248   3.143   5.068   8.613 -0.2729 -0.4575  0.7792
  571MOL0     C75249   3.246   5.081   8.713  0.5537  0.4300 -0.1199
  571MOL0     C75250   3.219   4.979   8.827  0.0505  0.2825  0.3976
  571MOL0     C75251   3.111   5.029   8.933  0.0119 -0.3170  0.0204
  571MOL0     C75252   3.074   4.919   9.042 -0.2899  0.6427 -0.0364
  571MOL0     C75253   3.051   4.983   9.189 -0.0712  0.6095  0.7579
  571MOL0     C75254   2.923   5.065   9.197  0.9636  0.0997  0.4124
  571MOL0     C75255   2.905   5.106   9.343 -0.7787  0.1078  0.2219
  571MOL0     C75256   3.020   5.192   9.405  0.4270 -0.3738  0.1916
  571MOL0     N75257   3.060   5.309   9.325  0.8277  0.1291  0.6980
  571MOL0     C75258   2.986   5.423   9.297 -0.1052 -0.2243  0.5931
  571MOL0     C75259   3.063   5.496   9.214  0.3072 -1.0320 -0.9680
  571MOL0     C75260   3.041   5.625   9.146  0.3700 -0.3194 -0.1437
  571MOL0     C75261   3.009   5.736   9.245  0.3211 -0.2723 -0.0839
  571MOL0     C75262   3.141   5.788   9.309  0.6499  0.0875  0.8813
  571MOL0     C75263   3.138   5.914   9.410  0.0529 -0.4513 -0.5938
  571MOL0     O75264   3.096   6.034   9.344 -0.1138 -0.6184  0.6433
  571MOL0     C75265   3.200   6.125   9.312  0.0601  0.0714 -0.5234
  571MOL0     C75266   3.284   6.173   9.411 -1.1046 -0.8887 -0.3051
  571MOL0     C75267   3.401   6.256   9.384  0.5129 -0.5205  0.1152
  571MOL0     C75268   3.436   6.275   9.242  0.1238  1.4963 -1.4209
  571MOL0     C75269   3.559   6.353   9.201 -0.3623 -1.6483 -1.0211
  571MOL0     O75270   3.564   6.426   9.082 -0.6073 -0.0211  0.0531
  571MOL0     C75271   3.669   6.506   9.059  0.2365 -0.3445 -0.7852
  571MOL0     C75272   3.646   6.644   9.038  0.5626 -0.3566 -0.2418
  571MOL0     C75273   3.754   6.727   9.025 -1.2559 -0.4814  0.4201
  571MOL0     C75274   3.878   6.680   9.007  1.0222 -0.2981  0.0291
  571MOL0     O75275   3.974   6.763   8.973  0.0707  0.2629 -0.1354
  571MOL0     C75276   4.095   6.711   8.918  0.6539  0.7303  0.3164
  571MOL0     C75277   4.172   6.842   8.884  0.1891  0.0464  0.1546
  571MOL0     C75278   4.190   6.934   9.012  1.1307  0.7634  0.3623
  571MOL0     C75279   4.225   7.079   8.966  0.0899  0.1218  0.5327
  571MOL0     C75280   4.270   7.140   9.092  0.2983  0.7908  0.0473
  571MOL0     C75281   4.259   7.298   9.091 -0.2333  0.2644  0.8175
  571MOL0     C75282   4.321   7.363   8.961  0.3261 -0.2594 -0.9265
  571MOL0     C75283   4.338   7.508   8.987 -0.9075 -1.1813  0.2756
  571MOL0    Cl75284   4.188   7.593   9.011  0.1455  0.0590  0.3058
  571MOL0     C75285   3.902   6.543   9.044 -0.5360  0.0920 -0.8908
  571MOL0     C75286   3.791   6.465   9.063  0.5000  1.0019  0.3518
  571MOL0     O75287   3.652   6.359   9.284 -0.6409  0.6492 -0.0365
  571MOL0     C75288   3.337   6.242   9.151 -0.6657 -0.3251 -0.3970
  571MOL0     C75289   3.224   6.166   9.182 -0.8916  0.3012 -0.2648
  571MOL0     N75290   3.175   5.422   9.188 -0.4625  1.1089  0.5753
  571MOL0     N75291   3.174   5.309   9.250 -0.4966 -0.3773 -0.0595
  571MOL0     C75292   3.244   5.227   8.439 -0.2549  0.8870  0.1212
  571MOL0     C75293   3.244   5.264   8.297  0.0567  0.2380 -0.4529
  571MOL0     C75294   3.125   5.230   7.845 -0.8987  1.2702  0.3118
  571MOL0     C75295   3.044   5.342   7.817 -0.4877 -0.0592  0.2001
  571MOL0     C75296   3.035   5.393   7.694  0.4894 -0.4327 -0.1276
  571MOL0     C75297   3.105   5.334   7.588 -0.2121 -0.5146 -1.4324
  571MOL0     O75298   3.096   5.418   7.483  0.2107 -0.2664  0.0362
  571MOL0     C75299   3.154   5.392   7.350 -0.2795 -0.3361 -1.7320
  571MOL0     C75300   3.303   5.452   7.354 -1.0064 -0.1973 -0.0959
  571MOL0     C75301   3.306   5.601   7.394 -0.7748 -0.1516 -0.0246
  571MOL0     C75302   3.241   5.702   7.302  0.2944  0.0961 -0.4579
  571MOL0     C75303   3.313   5.735   7.183 -0.4049  0.1935  0.3416
  571MOL0     C75304   3.383   5.739   7.079 -0.5993  0.7169  0.1291
  571MOL0     C75305   3.189   5.227   7.619 -0.7141  0.5199  0.6935
  571MOL0     C75306   3.198   5.172   7.741  0.9666  0.3323 -0.3400
  571MOL0     H75307   2.962   5.095   8.205  1.1383 -0.6052 -1.1522
  571MOL0     H75308   3.007   4.992   8.434  1.8681 -0.4088  1.6126
  571MOL0     H75309   3.257   5.182   8.752  1.9508  0.5190 -0.6671
  571MOL0     H75310   3.344   5.065   8.667 -0.9239 -2.0149 -2.7624
  571MOL0     H75311   3.317   4.969   8.875  0.4073  2.7550  0.3044
  571MOL0     H75312   3.191   4.880   8.789  0.4543  0.1662  0.3940
  571MOL0     H75313   3.020   5.048   8.875  0.6700  1.7916 -0.4037
  571MOL0     H75314   3.132   5.128   8.974 -0.2569  0.0405 -0.6793
  571MOL0     H75315   2.989   4.856   9.013 -1.4543  2.4327 -0.6912
  571MOL0     H75316   3.157   4.849   9.057 -2.5657 -2.3043 -0.1963
  571MOL0     H75317   3.138   5.044   9.216  2.4733 -3.3590  2.6720
  571MOL0     H75318   3.042   4.905   9.266 -0.1593  1.4911  1.6592
  571MOL0     H75319   2.836   5.012   9.155  0.2565  2.9041 -2.1039
  571MOL0     H75320   2.942   5.154   9.135  1.0641 -0.6306 -0.6288
  571MOL0     H75321   2.811   5.161   9.355 -1.2209 -0.4537 -0.5658
  571MOL0     H75322   2.902   5.012   9.397  3.5056 -0.1569  0.3331
  571MOL0     H75323   3.109   5.132   9.423 -0.0284 -0.6912  1.5218
  571MOL0     H75324   2.994   5.222   9.507  1.3475 -1.1631  0.6696
  571MOL0     H75325   2.884   5.441   9.329 -1.2864  0.0655 -2.9576
  571MOL0     H75326   2.949   5.630   9.086 -0.8025 -4.4141  1.0007
  571MOL0     H75327   3.132   5.649   9.091 -1.1049  1.3854 -1.9921
  571MOL0     H75328   2.930   5.699   9.310  0.9900 -1.1920  0.2285
  571MOL0     H75329   2.960   5.816   9.189  0.0150 -1.1626 -1.1346
  571MOL0     H75330   3.186   5.701   9.358 -0.9031 -0.9696  0.5003
  571MOL0     H75331   3.212   5.825   9.235 -0.7879  3.6918  1.0899
  571MOL0     H75332   3.235   5.929   9.459  0.8177 -0.5831 -2.0282
  571MOL0     H75333   3.074   5.898   9.497 -1.5903  2.0085 -1.2523
  571MOL0     H75334   3.270   6.161   9.517 -1.3639 -0.8033 -0.3284
  571MOL0     H75335   3.464   6.294   9.464 -2.5219  2.8843  1.1308
  571MOL0     H75336   3.546   6.686   9.041  2.2040  4.0527  0.4657
  571MOL0     H75337   3.737   6.830   8.997  0.6316 -0.2468 -0.0044
  571MOL0     H75338   4.074   6.652   8.829 -1.4285  1.4399  0.2924
  571MOL0     H75339   4.166   6.656   8.982  0.4854 -0.8479 -0.8032
  571MOL0     H75340   4.108   6.896   8.814  1.8606 -0.0246 -1.5115
  571MOL0     H75341   4.267   6.813   8.837 -0.6176 -0.1256 -1.4220
  571MOL0     H75342   4.263   6.888   9.079 -2.1640 -1.3124  2.8555
  571MOL0     H75343   4.087   6.938   9.048  1.1498  0.1010  0.5042
  571MOL0     H75344   4.302   7.077   8.889 -1.3621  1.3252 -1.0281
  571MOL0     H75345   4.131   7.119   8.927  0.0288 -2.8044 -2.8917
  571MOL0     H75346   4.373   7.104   9.099 -0.6866 -2.5229 -0.7637
  571MOL0     H75347   4.220   7.101   9.181 -0.6000  0.6258 -0.5103
  571MOL0     H75348   4.303   7.343   9.181 -0.4271  1.5519  0.2955
  571MOL0     H75349   4.154   7.322   9.111 -0.6294  0.5089 -1.2729
  571MOL0     H75350   4.415   7.313   8.939  0.3985 -0.7343  0.3632
  571MOL0     H75351   4.259   7.352   8.871 -0.9373 -1.3841  0.0399
  571MOL0     H75352   4.398   7.547   8.904 -0.3661 -0.5991  0.9330
  571MOL0     H75353   4.382   7.538   9.082 -1.9116  3.6972 -0.5352
  571MOL0     H75354   3.999   6.496   9.031  0.5233  1.1462  2.2728
  571MOL0     H75355   3.797   6.358   9.079 -1.8260  0.5315 -1.3436
  571MOL0     H75356   3.365   6.247   9.046  0.1006 -0.5546 -0.2179
  571MOL0     H75357   3.169   6.130   9.095 -2.5362  2.4714 -0.2139
  571MOL0     H75358   3.327   5.257   8.502 -0.0465 -1.5933  1.1453
  571MOL0     H75359   3.328   5.321   8.258  0.8385  0.1320  1.0048
  571MOL0     H75360   3.002   5.402   7.898 -1.8643 -2.7225  1.6217
  571MOL0     H75361   2.985   5.489   7.685 -2.1250 -1.8467 -2.4542
  571MOL0     H75362   3.108   5.448   7.268  0.5075  0.8101 -1.4106
  571MOL0     H75363   3.144   5.288   7.318 -1.2180  0.0022 -2.5909
  571MOL0     H75364   3.375   5.406   7.422  2.6776  2.4276 -1.8971
  571MOL0     H75365   3.346   5.449   7.254  2.5652 -0.7795  1.3257
  571MOL0     H75366   3.410   5.635   7.398 -0.9287  0.5019 -1.1006
  571MOL0     H75367   3.253   5.619   7.487 -2.1092 -1.1669 -0.5599
  571MOL0     H75368   3.140   5.662   7.289 -0.5583  0.6815  3.4031
  571MOL0     H75369   3.235   5.792   7.363  1.0918  0.8494 -1.4498
  571MOL0     H75370   3.448   5.732   6.994  0.5432 -1.0707  1.0893
  571MOL0     H75371   3.253   5.181   7.544 -1.0976 -0.1755  0.7835
  571MOL0     H75372   3.254   5.081   7.759 -2.2107 -1.7538 -0.3277
  572MOL0     O75373   4.635  10.107   2.395 -0.7661 -0.4435  0.4410
  572MOL0     C75374   4.529  10.143   2.442  0.1634 -0.2549  0.4905
  572MOL0     O75375   4.418  10.063   2.446  0.0162  0.5085 -0.9489
  572MOL0     C75376   4.409   9.958   2.355 -1.1382  0.4049 -0.3637
  572MOL0     C75377   4.325   9.854   2.396 -0.5367  0.1351 -0.3363
  572MOL0     C75378   4.295   9.746   2.310 -0.4446 -0.1960 -0.1189
  572MOL0     C75379   4.369   9.721   2.194 -0.1227  0.1925 -0.5129
  572MOL0     O75380   4.365   9.595   2.145  0.0599  0.2694 -0.1116
  572MOL0     C75381   4.245   9.548   2.084 -0.8775 -0.1016  0.6991
  572MOL0     C75382   4.224   9.408   2.139 -0.2095  0.0806  0.5122
  572MOL0     C75383   4.170   9.409   2.286 -0.2662 -0.6861  0.2164
  572MOL0     C75384   4.136   9.265   2.322 -0.2667 -0.1673 -1.4378
  572MOL0     C75385   4.102   9.259   2.475 -0.3893  0.0797  0.3273
  572MOL0     C75386   4.032   9.131   2.508  0.8927  0.7632 -1.4537
  572MOL0     C75387   3.883   9.125   2.461  0.8838  0.1856  1.0720
  572MOL0     C75388   3.801   9.025   2.548  0.0462 -0.2313 -1.0515
  572MOL0     N75389   3.800   9.070   2.689  1.1803 -0.8053  0.0705
  572MOL0     C75390   3.849   8.993   2.798 -0.2734 -0.0233 -0.6839
  572MOL0     C75391   3.810   9.062   2.904 -0.2831  0.0989  0.6233
  572MOL0     C75392   3.830   9.026   3.049 -0.3151 -0.9282 -0.0765
  572MOL0     C75393   3.883   9.149   3.135  0.7588  0.8047  0.2141
  572MOL0     C75394   3.962   9.084   3.256 -0.5771 -0.5358  0.0967
  572MOL0     C75395   4.046   9.194   3.331  1.4371 -1.1542  0.0056
  572MOL0     O75396   3.952   9.269   3.407 -0.3247 -0.6672  0.4591
  572MOL0     C75397   4.002   9.305   3.531  0.2391 -0.6822 -0.1993
  572MOL0     C75398   3.911   9.305   3.635 -0.1489  0.0316 -0.2669
  572MOL0     C75399   3.947   9.350   3.767  0.0412 -0.5472 -0.1446
  572MOL0     C75400   4.088   9.384   3.797  0.2258  0.0643 -0.6760
  572MOL0     C75401   4.150   9.431   3.922 -1.1937 -0.5318 -0.5856
  572MOL0     O75402   4.286   9.454   3.926 -0.0564 -0.1902 -0.2354
  572MOL0     C75403   4.353   9.419   4.041 -0.4729  0.1488  0.9239
  572MOL0     C75404   4.304   9.321   4.129 -0.9347  0.1109  0.0270
  572MOL0     C75405   4.376   9.288   4.248  0.5493  0.2121  0.2502
  572MOL0     C75406   4.484   9.372   4.281  0.1739 -0.0510  0.0805
  572MOL0     O75407   4.550   9.360   4.394  0.6641  0.2097 -0.7023
  572MOL0     C75408   4.555   9.230   4.454 -0.0493  0.8597  0.1338
  572MOL0     C75409   4.659   9.224   4.569 -0.9766 -0.3889  0.5413
  572MOL0     C75410   4.639   9.129   4.680  0.2706 -0.3268  0.0131
  572MOL0     C75411   4.771   9.128   4.769  0.6913  0.0522  0.2474
  572MOL0     C75412   4.775   9.027   4.880 -0.0861 -0.8013 -0.5466
  572MOL0     C75413   4.776   8.885   4.826  0.0072 -0.1168 -0.3150
  572MOL0     C75414   4.907   8.844   4.771 -0.0919  0.3415 -0.5443
  572MOL0     C75415   4.906   8.686   4.757  0.5690  0.1997  0.2318
  572MOL0    Cl75416   4.894   8.606   4.918 -0.1458 -0.3260 -0.2444
  572MOL0     C75417   4.525   9.474   4.192 -0.4073 -0.6374  0.6502
  572MOL0     C75418   4.456   9.491   4.076 -0.3606 -0.7652 -0.7142
  572MOL0     O75419   4.071   9.454   4.023 -0.3079 -0.0505  0.8228
  572MOL0     C75420   4.174   9.373   3.692  0.1449  0.5728 -0.4521
  572MOL0     C75421   4.135   9.343   3.561  0.3350  0.4399 -0.3729
  572MOL0     N75422   3.735   9.175   2.869 -0.2207  0.7797 -0.2635
  572MOL0     N75423   3.731   9.182   2.738 -0.5086  1.1338 -0.4525
  572MOL0     C75424   4.462   9.820   2.156  0.7565  0.2538  0.2895
  572MOL0     C75425   4.481   9.939   2.229 -1.0214  0.0730  0.3454
  572MOL0     C75426   4.526  10.283   2.498  0.2778 -1.0257  0.2457
  572MOL0     C75427   4.416  10.311   2.574 -0.0177  0.7750 -0.0011
  572MOL0     C75428   4.392  10.437   2.634  0.5221  0.7091  0.1715
  572MOL0     C75429   4.492  10.540   2.615 -0.4206 -0.0927  0.4422
  572MOL0     O75430   4.485  10.675   2.649  0.0855  0.7808 -0.3781
  572MOL0     C75431   4.362  10.719   2.700 -0.0178 -0.1655  0.2092
  572MOL0     C75432   4.364  10.858   2.766  0.3806  0.3871  1.0643
  572MOL0     C75433   4.371  10.960   2.649  0.1625  0.4443  0.2697
  572MOL0     C75434   4.353  11.106   2.692  0.0452 -0.9856 -0.9092
  572MOL0     C75435   4.450  11.144   2.798  0.1882  0.3606 -0.4231
  572MOL0     C75436   4.534  11.157   2.882 -0.2070 -0.4638  0.2141
  572MOL0     C75437   4.611  10.509   2.553  0.8802 -0.1614  0.3055
  572MOL0     C75438   4.624  10.379   2.490  0.2068 -0.5019 -0.6032
  572MOL0     H75439   4.270   9.871   2.488 -2.1095  0.1924 -1.2637
  572MOL0     H75440   4.236   9.671   2.362  0.2653  0.2177  1.3393
  572MOL0     H75441   4.261   9.528   1.977  0.7390 -4.4636  1.5128
  572MOL0     H75442   4.163   9.618   2.097  0.6241  1.7956  0.3239
  572MOL0     H75443   4.322   9.361   2.143  0.0051  0.0014 -2.8554
  572MOL0     H75444   4.163   9.351   2.068  1.4044  2.8614 -3.4546
  572MOL0     H75445   4.080   9.471   2.292 -0.3639 -0.8163  0.0864
  572MOL0     H75446   4.238   9.451   2.362 -3.9116  2.3262  2.1890
  572MOL0     H75447   4.040   9.246   2.274 -1.1768 -2.1177  0.9413
  572MOL0     H75448   4.221   9.204   2.291 -0.8881  0.6054 -5.1698
  572MOL0     H75449   4.047   9.350   2.500 -0.4647 -0.1691  1.0898
  572MOL0     H75450   4.201   9.268   2.521 -0.4188  0.7609  0.2737
  572MOL0     H75451   4.030   9.119   2.617  0.4093 -0.9094 -1.6220
  572MOL0     H75452   4.086   9.046   2.466 -2.2491 -2.1093 -0.1905
  572MOL0     H75453   3.834   9.222   2.467  1.2681  0.4289  0.3916
  572MOL0     H75454   3.885   9.082   2.361  1.8226 -0.2100  1.2456
  572MOL0     H75455   3.824   8.919   2.533 -0.6695 -0.3046 -1.6938
  572MOL0     H75456   3.704   9.019   2.497  0.3576 -1.4200 -1.5447
  572MOL0     H75457   3.908   8.902   2.791  0.2368  0.0109  1.9352
  572MOL0     H75458   3.893   8.938   3.065  0.2519 -0.1222  2.6438
  572MOL0     H75459   3.731   9.006   3.091 -0.7726  1.5666  0.1920
  572MOL0     H75460   3.812   9.226   3.166  2.0145  1.1361  2.4511
  572MOL0     H75461   3.949   9.215   3.078  0.3858  1.7539  0.8572
  572MOL0     H75462   3.884   9.047   3.324  0.1880 -0.4168  1.0633
  572MOL0     H75463   4.023   8.998   3.228 -0.5134 -1.4128  2.6276
  572MOL0     H75464   4.098   9.262   3.264  0.6896 -3.2880 -2.9273
  572MOL0     H75465   4.121   9.140   3.390 -0.8920 -1.0506  3.3919
  572MOL0     H75466   3.810   9.283   3.602 -0.7649 -0.3479  1.7613
  572MOL0     H75467   3.874   9.344   3.848  0.0669  0.9071  0.0169
  572MOL0     H75468   4.223   9.260   4.092 -0.9815 -0.5163  1.1256
  572MOL0     H75469   4.339   9.199   4.297 -0.5429 -0.8830 -2.3858
  572MOL0     H75470   4.575   9.161   4.371 -2.2699 -0.6635  0.7549
  572MOL0     H75471   4.458   9.207   4.500  0.9015 -1.9030  0.9677
  572MOL0     H75472   4.654   9.327   4.606  0.1537 -0.5515  1.2154
  572MOL0     H75473   4.760   9.200   4.533 -1.3160 -0.0199 -0.6798
  572MOL0     H75474   4.601   9.036   4.637  2.0474 -1.2206  0.2885
  572MOL0     H75475   4.555   9.169   4.738 -0.1814  1.4290 -1.7290
  572MOL0     H75476   4.851   9.099   4.701  0.3655 -0.0570 -0.0951
  572MOL0     H75477   4.798   9.229   4.803 -2.6413  1.1735 -0.0873
  572MOL0     H75478   4.692   9.048   4.946  0.2116 -1.5630  0.0905
  572MOL0     H75479   4.859   9.042   4.949 -0.8301 -3.6188  1.1116
  572MOL0     H75480   4.698   8.882   4.749  1.0087  0.4947 -1.3869
  572MOL0     H75481   4.746   8.816   4.905 -1.3984 -1.0100 -1.5667
  572MOL0     H75482   4.936   8.876   4.670  4.5184 -3.0576 -0.5936
  572MOL0     H75483   4.991   8.876   4.833  0.2190  0.6990 -1.1366
  572MOL0     H75484   5.002   8.657   4.713  1.2652  1.9397  0.5327
  572MOL0     H75485   4.827   8.645   4.693  0.2123  0.7926  0.2833
  572MOL0     H75486   4.614   9.533   4.214  1.3345 -2.0821 -1.9728
  572MOL0     H75487   4.489   9.572   4.011  1.1062  0.2275  1.1554
  572MOL0     H75488   4.279   9.398   3.697  0.3529  0.0329 -1.5842
  572MOL0     H75489   4.214   9.359   3.488 -1.1513 -1.2823 -2.4813
  572MOL0     H75490   4.514   9.816   2.061  0.4027  0.6826  0.0718
  572MOL0     H75491   4.558  10.000   2.183 -0.9544  0.2747  0.7140
  572MOL0     H75492   4.334  10.239   2.570 -1.2947  2.0948  1.3048
  572MOL0     H75493   4.295  10.463   2.674 -1.6733 -5.0547 -0.3503
  572MOL0     H75494   4.326  10.647   2.774  0.6863  0.3580  1.0743
  572MOL0     H75495   4.296  10.717   2.612  0.5596  1.9133 -0.3288
  572MOL0     H75496   4.271  10.879   2.821 -1.1940  0.7479 -1.5869
  572MOL0     H75497   4.450  10.857   2.834 -0.5452  1.8938  2.3424
  572MOL0     H75498   4.288  10.936   2.582 -3.1446  0.4969  4.0301
  572MOL0     H75499   4.474  10.959   2.611  0.3923 -0.9731  0.8960
  572MOL0     H75500   4.363  11.164   2.600  1.6500  4.2279  2.1117
  572MOL0     H75501   4.248  11.130   2.714  0.2683 -1.8204  1.3434
  572MOL0     H75502   4.607  11.152   2.961  0.2467  1.1992 -0.0539
  572MOL0     H75503   4.691  10.582   2.539 -0.4441  1.2461 -0.1938
  572MOL0     H75504   4.711  10.358   2.429  2.4608  3.3081  0.9294
  573MOL0     O75505   3.756  10.278   2.078  0.1056 -0.1011 -0.1091
  573MOL0     C75506   3.874  10.242   2.091 -0.2698 -1.1015  0.3480
  573MOL0     O75507   3.976  10.265   2.001  0.7271  0.2045 -0.9900
  573MOL0     C75508   3.953  10.335   1.885  0.7765 -0.2066 -0.2059
  573MOL0     C75509   3.843  10.308   1.793  0.0115 -0.7174  0.0051
  573MOL0     C75510   3.822  10.399   1.694  0.0398 -1.0536  0.3343
  573MOL0     C75511   3.906  10.499   1.658 -0.5996 -0.5639  0.6631
  573MOL0     O75512   3.890  10.601   1.562  0.1854 -0.2459 -0.0391
  573MOL0     C75513   3.761  10.650   1.553  1.2916  0.8568  0.2700
  573MOL0     C75514   3.763  10.777   1.467  0.0156 -0.4758  0.5218
  573MOL0     C75515   3.630  10.852   1.462 -0.2744  1.0142  0.3781
  573MOL0     C75516   3.616  10.948   1.585 -1.0510  0.0801 -0.0150
  573MOL0     C75517   3.470  10.991   1.615 -0.3727 -0.6259  0.2489
  573MOL0     C75518   3.421  11.117   1.536  0.4343  0.7007  0.6622
  573MOL0     C75519   3.278  11.154   1.598 -0.0982  0.6437  0.7033
  573MOL0     C75520   3.224  11.281   1.520  0.0189  0.6556 -1.0260
  573MOL0     N75521   3.269  11.411   1.582 -1.9648 -0.2973 -0.2265
  573MOL0     C75522   3.387  11.422   1.657  1.1911  0.1537 -0.5619
  573MOL0     C75523   3.394  11.552   1.695 -0.8794  0.5076  0.4802
  573MOL0     C75524   3.502  11.617   1.776  0.0009  0.3938 -0.1603
  573MOL0     C75525   3.454  11.670   1.908 -0.2086 -0.6473 -0.1550
  573MOL0     C75526   3.543  11.733   2.008 -1.1347  0.3700 -0.9164
  573MOL0     C75527   3.536  11.883   2.004 -0.1962 -0.5361 -0.4961
  573MOL0     O75528   3.606  11.932   1.885  0.3325  0.0132  0.4216
  573MOL0     C75529   3.737  11.896   1.871  0.6831  0.1916  0.2892
  573MOL0     C75530   3.787  11.891   1.740 -0.2775  0.1681  0.2581
  573MOL0     C75531   3.924  11.860   1.716  1.0778  0.4628  0.7786
  573MOL0     C75532   4.010  11.822   1.822 -0.1451  0.0879 -1.0610
  573MOL0     C75533   4.156  11.805   1.805 -0.6985 -0.6016  0.0052
  573MOL0     O75534   4.215  11.846   1.686 -0.0822  0.1421 -0.2245
  573MOL0     C75535   4.351  11.859   1.688  0.5780 -0.2898 -0.1978
  573MOL0     C75536   4.417  11.930   1.796 -0.8131 -1.1564  1.9890
  573MOL0     C75537   4.554  11.956   1.768  0.2142 -1.4778  0.0085
  573MOL0     C75538   4.622  11.904   1.654 -0.4260 -0.1567 -1.4494
  573MOL0     O75539   4.752  11.940   1.615  0.3301 -0.6590 -0.4273
  573MOL0     C75540   4.743  12.086   1.595 -0.4952  0.7447 -0.1651
  573MOL0     C75541   4.862  12.110   1.497 -0.2029 -0.2612  0.2006
  573MOL0     C75542   4.878  12.257   1.449  0.6335  0.5252  0.0634
  573MOL0     C75543   5.015  12.299   1.391 -0.8666 -0.0229  1.2674
  573MOL0     C75544   5.007  12.443   1.355 -0.2329  0.5078 -0.1900
  573MOL0     C75545   5.130  12.479   1.268  0.4284 -0.8936  0.7383
  573MOL0     C75546   5.144  12.626   1.230  0.5759 -0.9988  0.1856
  573MOL0     C75547   5.018  12.720   1.218  0.6617  0.0081  0.3403
  573MOL0    Cl75548   5.041  12.864   1.113 -0.0173 -0.3018  0.4353
  573MOL0     C75549   4.560  11.817   1.573  1.0637  0.0805  0.1223
  573MOL0     C75550   4.417  11.811   1.574 -0.2836  0.8933 -1.1275
  573MOL0     O75551   4.216  11.758   1.901 -0.3552 -0.8360 -0.8326
  573MOL0     C75552   3.964  11.842   1.955  0.0451  0.1617  0.4084
  573MOL0     C75553   3.825  11.881   1.974 -0.3118 -0.1406 -0.1763
  573MOL0     N75554   3.277  11.607   1.632  0.6718  0.4480 -0.1170
  573MOL0     N75555   3.198  11.521   1.576 -0.0812  0.7311 -1.6634
  573MOL0     C75556   4.025  10.511   1.731  1.5046 -0.1666  0.0633
  573MOL0     C75557   4.044  10.434   1.851 -0.2367 -0.1001  0.1119
  573MOL0     C75558   3.900  10.182   2.217 -0.4828 -0.5387  0.5954
  573MOL0     C75559   4.026  10.140   2.263 -0.5939 -0.0933  0.0158
  573MOL0     C75560   4.050  10.111   2.405 -0.2106  0.2149  1.1054
  573MOL0     C75561   3.943  10.101   2.486 -0.0990  0.3952 -0.4132
  573MOL0     O75562   3.965  10.073   2.622  0.1142  0.1091  0.3983
  573MOL0     C75563   4.040  10.177   2.685 -0.8065  0.2429 -0.1426
  573MOL0     C75564   4.092  10.109   2.815  0.8097  0.0571  0.0099
  573MOL0     C75565   3.982  10.088   2.921 -0.5571 -0.2703  0.8598
  573MOL0     C75566   3.882   9.982   2.873  0.1375  1.4191  0.1829
  573MOL0     C75567   3.799   9.946   2.984  0.0069 -0.0726 -0.2469
  573MOL0     C75568   3.740   9.909   3.082  1.1539  0.5123  0.2742
  573MOL0     C75569   3.815  10.119   2.445 -0.5344  0.1590 -0.6508
  573MOL0     C75570   3.801  10.166   2.313 -0.1275 -0.3774 -0.6583
  573MOL0     H75571   3.771  10.231   1.820 -2.4204  1.1651 -0.8083
  573MOL0     H75572   3.734  10.388   1.630  0.4638  0.6572 -0.5922
  573MOL0     H75573   3.711  10.665   1.649  1.7967 -0.7389  0.8090
  573MOL0     H75574   3.711  10.570   1.496 -1.0011  3.0227 -0.9508
  573MOL0     H75575   3.782  10.755   1.362 -5.9253 -2.4574 -0.4799
  573MOL0     H75576   3.846  10.838   1.504 -0.5053 -0.4624  1.7136
  573MOL0     H75577   3.548  10.779   1.460 -1.7426  2.5872 -1.9882
  573MOL0     H75578   3.628  10.905   1.367 -0.1367  0.3122 -0.0250
  573MOL0     H75579   3.650  10.889   1.671 -1.9005  0.6332  0.7213
  573MOL0     H75580   3.702  11.016   1.579  0.0105 -1.0618  1.5028
  573MOL0     H75581   3.476  11.028   1.718  4.6041 -0.2356  0.0766
  573MOL0     H75582   3.401  10.909   1.597  0.2731 -1.0001 -0.5947
  573MOL0     H75583   3.396  11.094   1.432  0.9828 -2.2374  1.0883
  573MOL0     H75584   3.493  11.199   1.542  2.4409 -0.6988 -2.1068
  573MOL0     H75585   3.208  11.074   1.573  1.4323  0.6172 -4.8786
  573MOL0     H75586   3.291  11.172   1.705 -0.1021  3.7928  0.2918
  573MOL0     H75587   3.115  11.281   1.529  0.0809  2.5648  0.3338
  573MOL0     H75588   3.259  11.271   1.417  1.7328 -4.1179 -0.2741
  573MOL0     H75589   3.448  11.339   1.690 -0.2173 -0.6580  0.1299
  573MOL0     H75590   3.526  11.706   1.717  0.0999  0.6080  0.1966
  573MOL0     H75591   3.586  11.549   1.795 -0.5039  0.3006  2.0201
  573MOL0     H75592   3.396  11.593   1.961 -0.2623  0.2913  1.1956
  573MOL0     H75593   3.378  11.741   1.873  0.1032  0.3209  1.0530
  573MOL0     H75594   3.515  11.710   2.112  1.4432 -2.0462 -0.6126
  573MOL0     H75595   3.648  11.702   2.001 -1.5202 -0.9040 -1.4412
  573MOL0     H75596   3.580  11.937   2.089 -1.0510  2.1056 -1.6343
  573MOL0     H75597   3.436  11.925   1.999  0.0327 -0.0432 -0.9626
  573MOL0     H75598   3.721  11.909   1.655 -1.5507 -0.6878  1.0302
  573MOL0     H75599   3.963  11.845   1.615  2.1432 -4.4051  1.6556
  573MOL0     H75600   4.365  11.956   1.888 -0.6574  1.5080  1.4135
  573MOL0     H75601   4.610  12.028   1.828 -2.7662 -0.3533  1.6692
  573MOL0     H75602   4.755  12.135   1.692  0.1061  1.5266 -0.6213
  573MOL0     H75603   4.652  12.120   1.545  0.0756  0.0987 -1.7015
  573MOL0     H75604   4.854  12.054   1.403  3.5193  1.4882 -1.3920
  573MOL0     H75605   4.942  12.073   1.562  0.3311  1.9157  0.8480
  573MOL0     H75606   4.852  12.318   1.536 -2.4499 -3.5830  2.3525
  573MOL0     H75607   4.802  12.267   1.372  0.5821  0.2400  0.0794
  573MOL0     H75608   5.102  12.283   1.456  0.5619 -0.2358 -0.6196
  573MOL0     H75609   5.032  12.242   1.300  2.3855  2.1703  0.3569
  573MOL0     H75610   5.018  12.496   1.451 -1.2741 -0.3631  0.4246
  573MOL0     H75611   4.912  12.454   1.303 -1.5421 -6.9633 -0.4814
  573MOL0     H75612   5.125  12.418   1.177 -1.8417 -0.6968  0.6764
  573MOL0     H75613   5.217  12.446   1.325  1.4992  2.1394  1.0330
  573MOL0     H75614   5.210  12.676   1.301  1.4801  0.4979 -1.6006
  573MOL0     H75615   5.194  12.620   1.133  0.3605  1.8888 -0.1895
  573MOL0     H75616   4.994  12.760   1.317 -0.5083 -1.8464  0.8487
  573MOL0     H75617   4.936  12.664   1.172  0.4264  1.8177 -1.6196
  573MOL0     H75618   4.625  11.780   1.494  2.9784  1.4207  1.0101
  573MOL0     H75619   4.372  11.752   1.494 -0.3313  1.7843 -1.7669
  573MOL0     H75620   4.032  11.835   2.039  0.7007 -2.1759 -0.2385
  573MOL0     H75621   3.800  11.910   2.076  3.5314  2.1526  0.3443
  573MOL0     H75622   4.106  10.581   1.715 -1.0299  2.9397 -0.1389
  573MOL0     H75623   4.135  10.448   1.909 -0.7803 -1.1947  1.2581
  573MOL0     H75624   4.111  10.155   2.198 -1.3328 -2.1870 -1.5392
  573MOL0     H75625   4.152  10.082   2.431 -0.3316 -0.9799  0.3093
  573MOL0     H75626   3.985  10.264   2.722  1.0816  0.2250  3.1489
  573MOL0     H75627   4.123  10.216   2.626 -0.8748  1.5818  0.6094
  573MOL0     H75628   4.157  10.024   2.792  2.4475  1.3558 -0.3740
  573MOL0     H75629   4.160  10.188   2.848  1.0452  0.1986 -0.8048
  573MOL0     H75630   3.929  10.181   2.942 -2.0804  0.1615 -3.8292
  573MOL0     H75631   4.027  10.055   3.015 -0.0503 -0.1942  0.6483
  573MOL0     H75632   3.818  10.029   2.799  0.9843  1.4568 -0.5447
  573MOL0     H75633   3.943   9.896   2.841 -0.2270  1.6523 -1.2054
  573MOL0     H75634   3.686   9.858   3.158 -1.0963 -3.7434 -3.6897
  573MOL0     H75635   3.733  10.104   2.514 -0.0684 -0.2803 -0.1867
  573MOL0     H75636   3.697  10.172   2.283 -0.0741 -0.3247 -0.8347
  574MOL0     O75637   4.310   1.648   6.164 -0.7974 -0.2721 -0.1627
  574MOL0     C75638   4.192   1.651   6.174  0.5181  0.2601  0.0427
  574MOL0     O75639   4.130   1.644   6.297  0.3436  0.1463  0.0230
  574MOL0     C75640   4.204   1.610   6.414  0.1667  0.6692 -0.0332
  574MOL0     C75641   4.328   1.541   6.419  0.3685 -0.2383 -0.4741
  574MOL0     C75642   4.397   1.514   6.542 -0.0420  0.1133 -0.5353
  574MOL0     C75643   4.351   1.562   6.665 -0.7382 -0.9829  0.4883
  574MOL0     O75644   4.428   1.572   6.780  0.2691 -0.2672  0.4439
  574MOL0     C75645   4.494   1.446   6.799 -0.0851 -0.9724 -0.5182
  574MOL0     C75646   4.461   1.394   6.932  0.8148  0.1787 -0.0709
  574MOL0     C75647   4.310   1.353   6.937  0.0601 -0.6859 -0.3502
  574MOL0     C75648   4.286   1.240   7.044 -0.5936 -0.6960  0.1584
  574MOL0     C75649   4.318   1.263   7.193 -0.1008 -0.4443 -0.3846
  574MOL0     C75650   4.249   1.395   7.228 -0.2759 -0.4632  0.0450
  574MOL0     C75651   4.218   1.412   7.374 -0.6730 -0.1321 -0.3433
  574MOL0     C75652   4.330   1.388   7.472  1.0315 -0.9195 -0.3930
  574MOL0     N75653   4.292   1.389   7.612 -0.7088  0.3804 -0.4099
  574MOL0     C75654   4.161   1.379   7.658  0.2768  0.2238 -0.0352
  574MOL0     C75655   4.168   1.384   7.792 -1.0478  0.9973 -0.5654
  574MOL0     C75656   4.051   1.385   7.891  0.6598  0.2528  0.0880
  574MOL0     C75657   4.028   1.522   7.943  0.2422  0.4181  0.1364
  574MOL0     C75658   3.890   1.542   8.011  0.1000  0.4649  0.7374
  574MOL0     C75659   3.873   1.463   8.139  0.0795 -1.2870 -0.4288
  574MOL0     O75660   3.753   1.507   8.197  0.2719 -0.4115  0.3425
  574MOL0     C75661   3.760   1.489   8.334  0.1831 -0.3012  0.7409
  574MOL0     C75662   3.786   1.363   8.399 -0.1567 -0.2279 -0.1737
  574MOL0     C75663   3.787   1.346   8.533  0.1900 -0.1965 -0.4367
  574MOL0     C75664   3.728   1.452   8.616  0.0397 -0.5682  0.7836
  574MOL0     C75665   3.732   1.454   8.767 -0.2836  0.2445 -0.2425
  574MOL0     O75666   3.712   1.567   8.839 -0.1314 -0.1948 -0.3957
  574MOL0     C75667   3.707   1.544   8.977 -0.4329 -0.6074  0.5865
  574MOL0     C75668   3.604   1.477   9.037 -0.3419  0.1546 -0.1871
  574MOL0     C75669   3.585   1.472   9.182  0.2578 -0.3856 -0.2318
  574MOL0     C75670   3.686   1.527   9.263 -0.3488  0.9547  0.5302
  574MOL0     O75671   3.659   1.525   9.396 -0.2583 -0.0226 -1.1824
  574MOL0     C75672   3.774   1.503   9.482  0.7295  0.4793  0.0122
  574MOL0     C75673   3.728   1.425   9.599  0.3699  0.3399 -0.7656
  574MOL0     C75674   3.848   1.402   9.691  0.2604 -0.0882 -1.6813
  574MOL0     C75675   3.825   1.312   9.816 -0.3677  0.3189 -0.8030
  574MOL0     C75676   3.944   1.323   9.909  1.0606  0.7499 -0.3040
  574MOL0     C75677   3.932   1.245  10.042  0.0012 -0.6008 -0.2958
  574MOL0     C75678   3.946   1.090  10.016  0.4318 -0.5947  0.2547
  574MOL0     C75679   3.968   0.992  10.134 -0.0108 -0.9397 -0.1442
  574MOL0    Cl75680   4.096   1.050  10.243  0.0548 -0.3502  0.6252
  574MOL0     C75681   3.797   1.588   9.203  0.1147  0.0521  1.1782
  574MOL0     C75682   3.803   1.592   9.064  0.5152 -0.6697  0.4930
  574MOL0     O75683   3.753   1.342   8.809 -0.5963 -0.3135 -0.2683
  574MOL0     C75684   3.690   1.573   8.559 -0.4630  0.3741 -1.2396
  574MOL0     C75685   3.711   1.591   8.423 -0.2655 -1.2097 -0.1481
  574MOL0     N75686   4.295   1.390   7.835  0.0619  0.9733  0.3581
  574MOL0     N75687   4.370   1.379   7.727  0.0412 -0.3868 -0.3029
  574MOL0     C75688   4.237   1.647   6.657  0.5252  1.1130 -0.3821
  574MOL0     C75689   4.149   1.657   6.542 -0.3249  0.1978  0.2083
  574MOL0     C75690   4.097   1.652   6.053 -0.4725 -0.4335  0.3351
  574MOL0     C75691   3.962   1.672   6.060 -0.1770  0.0307 -0.3830
  574MOL0     C75692   3.887   1.691   5.946 -0.4782  0.2560  0.8913
  574MOL0     C75693   3.945   1.681   5.819  0.0551 -0.3975 -1.0892
  574MOL0     O75694   3.876   1.698   5.703 -0.1597  1.0811  0.2609
  574MOL0     C75695   3.807   1.824   5.687  0.2639 -0.0278 -0.0719
  574MOL0     C75696   3.675   1.803   5.598  0.6915  0.3661 -0.9542
  574MOL0     C75697   3.617   1.944   5.570  0.3081  0.8893 -0.6095
  574MOL0     C75698   3.545   2.019   5.687 -1.4834 -0.7296  0.1695
  574MOL0     C75699   3.478   2.138   5.636  0.1110 -0.7977 -0.2912
  574MOL0     C75700   3.416   2.221   5.581  0.6261  0.0524  0.2947
  574MOL0     C75701   4.081   1.652   5.814 -0.5850 -0.4483  0.3484
  574MOL0     C75702   4.156   1.641   5.926 -0.4139  0.5727  0.6633
  574MOL0     H75703   4.355   1.485   6.331  2.5847 -0.1099  0.0645
  574MOL0     H75704   4.485   1.450   6.542  2.4465  3.2773  1.0300
  574MOL0     H75705   4.603   1.457   6.791  0.0351 -0.0703  1.7024
  574MOL0     H75706   4.469   1.364   6.731 -3.7328  0.8561 -1.6103
  574MOL0     H75707   4.473   1.459   7.019 -1.7958 -2.7362  2.7591
  574MOL0     H75708   4.522   1.306   6.956  4.5474  2.5103 -0.1693
  574MOL0     H75709   4.267   1.325   6.840 -2.1879 -2.4634  1.0569
  574MOL0     H75710   4.252   1.438   6.974 -0.8917 -1.8431  0.9145
  574MOL0     H75711   4.179   1.216   7.037 -0.6034 -0.2317 -1.6720
  574MOL0     H75712   4.334   1.146   7.015  0.2822  0.2215 -1.4922
  574MOL0     H75713   4.423   1.280   7.218 -0.0273 -3.0502  1.4826
  574MOL0     H75714   4.272   1.174   7.238 -2.8398 -1.0837 -4.0363
  574MOL0     H75715   4.163   1.413   7.163  0.9682  0.8075 -1.3200
  574MOL0     H75716   4.326   1.467   7.199  0.4547 -1.4488 -0.5457
  574MOL0     H75717   4.170   1.509   7.391 -0.4969 -0.2421  0.9151
  574MOL0     H75718   4.148   1.334   7.405 -2.2239  1.1094 -0.5934
  574MOL0     H75719   4.397   1.472   7.451 -1.2130  1.2903  0.7401
  574MOL0     H75720   4.390   1.300   7.447  1.3681 -0.3678 -1.6445
  574MOL0     H75721   4.071   1.359   7.602  0.6733  0.5730 -0.8129
  574MOL0     H75722   4.072   1.332   7.984 -0.1372  4.1454  2.7378
  574MOL0     H75723   3.961   1.348   7.840  1.4092  0.8682 -1.7810
  574MOL0     H75724   4.032   1.589   7.856 -0.3871  1.6930  1.0445
  574MOL0     H75725   4.109   1.556   8.008  0.8518  1.6019 -1.1570
  574MOL0     H75726   3.886   1.651   8.026 -0.7087  1.0121 -2.4845
  574MOL0     H75727   3.813   1.518   7.937 -0.9804 -1.2107  2.3268
  574MOL0     H75728   3.953   1.483   8.210  0.3387 -0.4782 -0.9373
  574MOL0     H75729   3.881   1.354   8.131  0.1404 -1.2970 -0.2300
  574MOL0     H75730   3.840   1.285   8.346  1.0528 -0.1609  0.9072
  574MOL0     H75731   3.816   1.253   8.580 -1.9739  0.0153  1.4919
  574MOL0     H75732   3.524   1.442   8.972  0.5674 -0.9539 -0.7488
  574MOL0     H75733   3.496   1.431   9.229  0.0445 -1.5295 -1.5527
  574MOL0     H75734   3.812   1.598   9.520 -1.5653  2.9664 -3.3569
  574MOL0     H75735   3.845   1.442   9.425 -0.1144  0.0774 -0.6325
  574MOL0     H75736   3.696   1.330   9.557 -0.3607  1.2315 -2.3186
  574MOL0     H75737   3.643   1.481   9.641 -0.2691  1.2053 -3.0595
  574MOL0     H75738   3.870   1.499   9.736 -3.1686 -1.5818  4.3221
  574MOL0     H75739   3.939   1.366   9.642  1.9996 -0.9118  1.8749
  574MOL0     H75740   3.737   1.344   9.872 -1.8036 -2.5058 -1.3216
  574MOL0     H75741   3.812   1.207   9.789  1.6638 -1.0370  2.7692
  574MOL0     H75742   3.987   1.423   9.918  0.5811  1.0904 -1.5320
  574MOL0     H75743   4.025   1.272   9.856  1.9450  1.5524  0.2266
  574MOL0     H75744   3.831   1.263  10.079 -1.4296 -2.5375 -2.8737
  574MOL0     H75745   4.008   1.279  10.112 -0.4688 -0.8111  0.3230
  574MOL0     H75746   3.859   1.066   9.956  0.6677 -1.1462  0.1267
  574MOL0     H75747   4.028   1.085   9.943  0.5280  0.8167  0.2388
  574MOL0     H75748   3.999   0.897  10.089  0.2673 -0.4485 -1.0110
  574MOL0     H75749   3.881   0.975  10.198  0.6022 -1.3878  0.5899
  574MOL0     H75750   3.871   1.629   9.271  1.5653 -0.2052 -0.1943
  574MOL0     H75751   3.889   1.638   9.017 -0.1876 -2.4025 -2.8139
  574MOL0     H75752   3.649   1.656   8.616  0.0570 -0.5427  0.5396
  574MOL0     H75753   3.687   1.689   8.383  1.3365 -1.4112 -1.7422
  574MOL0     H75754   4.211   1.688   6.754  1.5136  1.9284 -0.4421
  574MOL0     H75755   4.054   1.711   6.544 -0.2062  0.3818  1.3231
  574MOL0     H75756   3.921   1.679   6.161  1.7492  3.2286  0.3437
  574MOL0     H75757   3.779   1.701   5.952 -0.9171 -0.7592 -2.9179
  574MOL0     H75758   3.874   1.906   5.657 -2.7340  3.5211  2.1055
  574MOL0     H75759   3.764   1.849   5.784  0.4695 -0.2962  0.0887
  574MOL0     H75760   3.708   1.758   5.504  2.6153  2.7311 -1.5153
  574MOL0     H75761   3.603   1.730   5.637  0.4394 -0.3690 -2.7312
  574MOL0     H75762   3.546   1.930   5.488 -0.4956  1.6131 -0.0483
  574MOL0     H75763   3.693   2.013   5.533 -0.3338  2.1056  0.2911
  574MOL0     H75764   3.467   1.957   5.732 -3.4198  0.5873 -1.1937
  574MOL0     H75765   3.617   2.054   5.762  0.8524 -1.2375 -1.7201
  574MOL0     H75766   3.368   2.305   5.534 -0.2175 -0.1696  0.7233
  574MOL0     H75767   4.126   1.637   5.716  2.0194  2.3261  0.9482
  574MOL0     H75768   4.263   1.623   5.920 -0.2480  1.8730 -3.2853
  575MOL0     O75769   0.596   1.035   8.752 -0.7096  0.0258 -0.2752
  575MOL0     C75770   0.491   1.004   8.708  0.8593 -0.3100  0.5555
  575MOL0     O75771   0.381   1.085   8.689  0.0785  0.0972 -1.0973
  575MOL0     C75772   0.398   1.221   8.699 -0.5426  0.4135  0.2670
  575MOL0     C75773   0.427   1.291   8.822  0.2863 -0.5701  0.5499
  575MOL0     C75774   0.444   1.425   8.820  0.3377 -0.3969  0.1174
  575MOL0     C75775   0.442   1.494   8.702  0.6681  0.0102 -0.5447
  575MOL0     O75776   0.432   1.630   8.698 -0.0497  0.8359  0.0559
  575MOL0     C75777   0.396   1.709   8.813  0.8406 -0.1440 -0.5590
  575MOL0     C75778   0.346   1.856   8.771 -0.5354 -0.0658  0.0113
  575MOL0     C75779   0.190   1.873   8.744  0.0184  0.6201  0.7827
  575MOL0     C75780   0.171   2.021   8.708  0.3966 -0.8178  0.4391
  575MOL0     C75781   0.030   2.048   8.656 -0.5544  0.0544 -0.4395
  575MOL0     C75782   0.018   2.198   8.627  0.2392 -0.3005 -0.1067
  575MOL0     C75783  -0.123   2.239   8.571  0.0907 -0.4973 -0.1441
  575MOL0     C75784  -0.119   2.374   8.506 -0.6089  0.0912  0.3656
  575MOL0     N75785  -0.082   2.484   8.587  0.6818 -0.6288 -0.3032
  575MOL0     C75786  -0.168   2.547   8.676  0.1312  0.2201  0.5821
  575MOL0     C75787  -0.101   2.652   8.726 -0.8457 -0.0270 -0.0589
  575MOL0     C75788  -0.156   2.763   8.822 -0.8067  0.1481  0.0992
  575MOL0     C75789  -0.200   2.693   8.953 -0.3294  0.1789 -0.0700
  575MOL0     C75790  -0.194   2.793   9.071 -0.5822 -0.2083  0.0460
  575MOL0     C75791  -0.239   2.747   9.212  0.2701  0.1300 -0.4904
  575MOL0     O75792  -0.389   2.743   9.201  0.4442  0.7576 -0.8800
  575MOL0     C75793  -0.444   2.772   9.331  0.3970 -0.3222  0.3976
  575MOL0     C75794  -0.396   2.721   9.455  0.3833  0.5401  0.9704
  575MOL0     C75795  -0.466   2.744   9.567 -0.1747 -0.6172 -0.3888
  575MOL0     C75796  -0.576   2.839   9.568  0.5748 -0.6832 -0.2210
  575MOL0     C75797  -0.641   2.861   9.691  0.4827 -0.4549 -0.5362
  575MOL0     O75798  -0.569   2.834   9.809 -0.6088 -0.4688 -0.0649
  575MOL0     C75799  -0.644   2.807   9.918  0.6114 -0.4051 -0.6908
  575MOL0     C75800  -0.628   2.871  10.038  0.5868  0.7778  0.4166
  575MOL0     C75801  -0.684   2.826  10.156 -0.4118  0.2098  1.2307
  575MOL0     C75802  -0.761   2.714  10.160 -0.0414  0.0489 -0.9153
  575MOL0     O75803  -0.810   2.679  10.280  0.8725 -0.4590 -0.4060
  575MOL0     C75804  -0.811   2.548  10.314 -0.2568  0.0240 -0.4320
  575MOL0     C75805  -0.840   2.513  10.459 -0.9107 -0.7441  0.3046
  575MOL0     C75806  -0.866   2.367  10.476 -0.3642  0.8891 -0.3755
  575MOL0     C75807  -0.919   2.357  10.615 -0.1610  1.1197 -0.0973
  575MOL0     C75808  -0.929   2.221  10.676 -0.5025 -0.2906 -0.3355
  575MOL0     C75809  -1.044   2.150  10.600  0.6712 -0.4400  0.1874
  575MOL0     C75810  -1.081   2.010  10.661 -0.2116  0.6539 -0.0895
  575MOL0     C75811  -1.170   1.929  10.568  0.4681 -0.3177  0.0981
  575MOL0    Cl75812  -1.223   1.770  10.656 -0.0425 -0.4053  0.4286
  575MOL0     C75813  -0.797   2.648  10.040  0.1840  0.2495 -0.4559
  575MOL0     C75814  -0.733   2.692   9.923  0.0983 -0.4271 -0.8489
  575MOL0     O75815  -0.760   2.899   9.696 -0.3781 -0.2000 -0.9425
  575MOL0     C75816  -0.617   2.894   9.451 -0.0603 -1.0008  0.0306
  575MOL0     C75817  -0.558   2.846   9.334  0.3002  0.3043 -0.9411
  575MOL0     N75818   0.024   2.657   8.666 -0.1030  0.3635  0.9494
  575MOL0     N75819   0.034   2.565   8.577  1.0541  0.2828 -0.0066
  575MOL0     C75820   0.429   1.429   8.574  0.0485  0.4487  0.1570
  575MOL0     C75821   0.396   1.290   8.578 -0.1834 -0.8068 -0.5894
  575MOL0     C75822   0.484   0.867   8.650  0.6329  0.1549  0.7939
  575MOL0     C75823   0.572   0.764   8.695 -0.0627  0.5469 -0.0349
  575MOL0     C75824   0.572   0.642   8.633  0.1227  0.3929  0.4117
  575MOL0     C75825   0.483   0.613   8.529 -0.2260  0.0677 -0.4370
  575MOL0     O75826   0.513   0.495   8.469  0.2071 -0.3722 -0.0260
  575MOL0     C75827   0.452   0.441   8.352 -0.3500  0.2176 -0.3349
  575MOL0     C75828   0.553   0.382   8.258 -0.3078  0.1443  0.0764
  575MOL0     C75829   0.642   0.289   8.340 -0.1377 -0.2477 -0.8437
  575MOL0     C75830   0.740   0.206   8.250  0.2265 -0.8153 -0.4352
  575MOL0     C75831   0.838   0.285   8.185 -0.7668  0.8073  0.6740
  575MOL0     C75832   0.930   0.342   8.123  0.2145 -0.9983 -1.0117
  575MOL0     C75833   0.385   0.706   8.484  0.1082  0.2592  0.4369
  575MOL0     C75834   0.382   0.831   8.555  0.0393  0.5102 -0.0897
  575MOL0     H75835   0.420   1.240   8.918 -3.3503  0.3816  0.9225
  575MOL0     H75836   0.464   1.482   8.910  1.0689  1.4338 -1.1348
  575MOL0     H75837   0.488   1.712   8.873 -0.2368  0.2907  1.1341
  575MOL0     H75838   0.323   1.654   8.873  0.1807  0.7875 -0.4877
  575MOL0     H75839   0.407   1.885   8.685  0.6140 -3.8884 -0.6459
  575MOL0     H75840   0.375   1.926   8.849 -2.0684  3.0635 -2.0493
  575MOL0     H75841   0.128   1.843   8.829 -1.5381 -2.3250 -1.1978
  575MOL0     H75842   0.162   1.800   8.667 -1.9234  2.1341 -0.0124
  575MOL0     H75843   0.210   2.091   8.783  0.5902  2.2558 -2.2875
  575MOL0     H75844   0.228   2.047   8.619  0.7197  0.5289  1.0161
  575MOL0     H75845  -0.041   2.011   8.730 -0.1594  1.0332  0.4714
  575MOL0     H75846   0.008   1.987   8.568 -3.6958  3.3714 -2.1906
  575MOL0     H75847   0.109   2.218   8.570  1.4483 -1.0793  1.4752
  575MOL0     H75848   0.035   2.262   8.715  1.2019 -0.5852 -0.0759
  575MOL0     H75849  -0.154   2.157   8.506  0.0887 -1.8336  1.4562
  575MOL0     H75850  -0.198   2.247   8.650 -0.2329  1.2556 -0.5860
  575MOL0     H75851  -0.217   2.401   8.466 -0.2113  1.3249  0.1590
  575MOL0     H75852  -0.044   2.379   8.426  0.3326  2.6480  1.2829
  575MOL0     H75853  -0.272   2.522   8.694 -0.4847  2.8758  1.0921
  575MOL0     H75854  -0.246   2.811   8.783 -1.3910  1.2799  2.5993
  575MOL0     H75855  -0.088   2.848   8.837 -1.2433  0.9153 -1.9481
  575MOL0     H75856  -0.124   2.616   8.973 -0.2201 -0.5788 -2.9489
  575MOL0     H75857  -0.292   2.639   8.928 -0.0090  0.3511 -1.7802
  575MOL0     H75858  -0.087   2.814   9.079 -0.4183 -1.2075  0.5768
  575MOL0     H75859  -0.254   2.881   9.046 -1.2769 -0.7241 -0.1134
  575MOL0     H75860  -0.209   2.813   9.295 -2.6092 -1.6272  2.1322
  575MOL0     H75861  -0.202   2.647   9.236  0.5746  0.7762  2.0253
  575MOL0     H75862  -0.302   2.666   9.453  0.4153  0.5994  0.8537
  575MOL0     H75863  -0.429   2.703   9.660  1.0955 -0.4988 -0.8164
  575MOL0     H75864  -0.561   2.957  10.039  3.3459 -1.0197 -3.8447
  575MOL0     H75865  -0.668   2.865  10.256  0.1550  0.1055  1.1873
  575MOL0     H75866  -0.716   2.513  10.271 -0.2891  0.2830 -0.7198
  575MOL0     H75867  -0.900   2.509  10.264 -1.0015 -0.9895  1.5806
  575MOL0     H75868  -0.927   2.570  10.494  0.1235  0.5037  0.8969
  575MOL0     H75869  -0.761   2.556  10.521  1.6431 -2.0166 -1.8870
  575MOL0     H75870  -0.769   2.318  10.464  0.6473  2.1250  2.1112
  575MOL0     H75871  -0.932   2.332  10.396 -2.3012  1.1407  1.0414
  575MOL0     H75872  -0.855   2.419  10.678 -1.7181  2.3294  0.3863
  575MOL0     H75873  -1.023   2.391  10.619 -1.2303 -1.8746  0.0608
  575MOL0     H75874  -0.937   2.232  10.785 -0.2808 -1.6291 -0.1660
  575MOL0     H75875  -0.842   2.165  10.639 -0.4315  1.2156 -2.6619
  575MOL0     H75876  -1.018   2.139  10.495  0.9955  1.3785  0.0469
  575MOL0     H75877  -1.132   2.213  10.617  1.1857  0.0895  0.9658
  575MOL0     H75878  -0.987   1.964  10.693  1.5663  2.4237 -2.3730
  575MOL0     H75879  -1.128   2.039  10.755 -1.0923 -2.7378  0.6226
  575MOL0     H75880  -1.117   1.897  10.477 -0.6692  2.9029 -1.8739
  575MOL0     H75881  -1.251   1.996  10.536 -0.5425 -2.0112 -1.0438
  575MOL0     H75882  -0.873   2.570  10.047 -0.7476  1.0518 -1.2914
  575MOL0     H75883  -0.770   2.657   9.827  0.5012  0.1153 -1.2101
  575MOL0     H75884  -0.702   2.960   9.437  0.8258 -0.3567 -3.1417
  575MOL0     H75885  -0.606   2.869   9.240 -2.6117 -1.0129  0.1048
  575MOL0     H75886   0.428   1.473   8.475  3.2661 -2.0233 -1.1726
  575MOL0     H75887   0.364   1.226   8.497 -2.6036 -1.8045  1.0517
  575MOL0     H75888   0.622   0.776   8.791  0.1691 -0.9208  0.0479
  575MOL0     H75889   0.629   0.552   8.656  0.0438  0.1260 -0.4179
  575MOL0     H75890   0.388   0.512   8.299  0.4312 -0.1002 -1.7547
  575MOL0     H75891   0.390   0.356   8.381  0.0351  0.5507  1.5640
  575MOL0     H75892   0.502   0.327   8.178 -0.3656 -3.8833  2.6010
  575MOL0     H75893   0.627   0.452   8.218  2.9065 -3.6381 -1.2267
  575MOL0     H75894   0.582   0.217   8.396  0.9054 -0.8214 -0.4194
  575MOL0     H75895   0.701   0.345   8.413 -1.8636  1.3008 -0.5690
  575MOL0     H75896   0.796   0.138   8.314  0.7689  2.4234  2.9119
  575MOL0     H75897   0.677   0.157   8.176 -2.9458 -0.8221  2.0645
  575MOL0     H75898   1.006   0.401   8.076 -0.4509  3.0555  2.4452
  575MOL0     H75899   0.316   0.698   8.400 -1.9609  0.9393  1.9833
  575MOL0     H75900   0.308   0.905   8.528 -2.4820 -0.9238  2.3284
  576MOL0     O75901   7.923   9.967   8.545  0.1271  0.9193  0.2709
  576MOL0     C75902   7.802   9.973   8.570  1.2679  0.2117 -0.2846
  576MOL0     O75903   7.730  10.087   8.584  0.8895  0.1693 -0.3680
  576MOL0     C75904   7.786  10.208   8.551  0.3696  0.0824  1.0946
  576MOL0     C75905   7.890  10.262   8.624  0.2650  0.3845 -0.4470
  576MOL0     C75906   7.934  10.397   8.603  0.3654 -0.2607  0.3196
  576MOL0     C75907   7.878  10.467   8.498  1.2956 -0.5984  0.0245
  576MOL0     O75908   7.909  10.603   8.482  0.3163  0.1906  0.7899
  576MOL0     C75909   7.957  10.633   8.351 -0.3071  0.1456  1.0862
  576MOL0     C75910   7.949  10.782   8.350 -0.1924 -0.8685 -0.1443
  576MOL0     C75911   8.023  10.849   8.234  0.1792  0.3668 -0.4229
  576MOL0     C75912   8.169  10.828   8.233 -0.2069  1.3948 -0.4857
  576MOL0     C75913   8.243  10.860   8.362  0.4869 -0.7634  0.1315
  576MOL0     C75914   8.390  10.809   8.351 -0.7964  0.0455 -0.3747
  576MOL0     C75915   8.482  10.867   8.245  0.2193 -0.0862  0.7448
  576MOL0     C75916   8.574  10.980   8.305  0.6434 -0.8401  0.0022
  576MOL0     N75917   8.504  11.111   8.328  0.6724  0.0644  0.0903
  576MOL0     C75918   8.508  11.226   8.252  0.2032 -0.3725  0.6528
  576MOL0     C75919   8.434  11.323   8.308  0.1712  0.5752  0.2326
  576MOL0     C75920   8.400  11.455   8.258  0.0885 -1.2317  0.5742
  576MOL0     C75921   8.527  11.541   8.250  1.2234 -0.1411 -0.0548
  576MOL0     C75922   8.485  11.696   8.245  1.0380 -0.5321  0.4536
  576MOL0     C75923   8.608  11.778   8.249  0.5032  0.1353 -1.1563
  576MOL0     O75924   8.710  11.744   8.154 -0.2302  0.3871  0.5856
  576MOL0     C75925   8.848  11.739   8.186 -0.0756  0.7149 -0.2849
  576MOL0     C75926   8.933  11.663   8.107 -0.6937 -0.2781  0.5255
  576MOL0     C75927   9.067  11.642   8.151 -0.1442 -0.4396  0.3353
  576MOL0     C75928   9.129  11.703   8.266 -0.0283  0.5390 -0.9401
  576MOL0     C75929   9.268  11.681   8.320 -0.1069 -0.0752 -0.7735
  576MOL0     O75930   9.349  11.593   8.244 -0.4227  0.5784  0.0825
  576MOL0     C75931   9.480  11.567   8.273 -0.7661  0.3414 -0.7812
  576MOL0     C75932   9.565  11.634   8.367  0.5369  1.0396  1.4396
  576MOL0     C75933   9.702  11.595   8.370  0.8812 -0.1842 -0.3488
  576MOL0     C75934   9.750  11.486   8.306 -0.5431  0.2227  0.5958
  576MOL0     O75935   9.876  11.424   8.327 -0.2322 -0.8258  0.2563
  576MOL0     C75936   9.986  11.497   8.361 -0.0979 -0.2405 -0.5823
  576MOL0     C75937  10.102  11.392   8.381 -0.3063  0.3234 -0.7535
  576MOL0     C75938  10.247  11.455   8.387  0.2769 -0.9576 -0.0787
  576MOL0     C75939  10.355  11.342   8.383 -0.5020 -0.4482 -0.4728
  576MOL0     C75940  10.490  11.395   8.417  0.0731 -0.3000 -0.8658
  576MOL0     C75941  10.550  11.482   8.315 -0.4177 -0.4380 -0.1867
  576MOL0     C75942  10.705  11.488   8.323 -0.7651 -0.0900 -1.1019
  576MOL0     C75943  10.760  11.574   8.214 -0.8642 -0.1061  0.5805
  576MOL0    Cl75944  10.709  11.506   8.054 -0.6162 -0.0045 -0.4543
  576MOL0     C75945   9.670  11.413   8.226  1.4758  0.1076 -0.1476
  576MOL0     C75946   9.535  11.460   8.202  0.0824  0.1943 -0.2149
  576MOL0     O75947   9.301  11.750   8.418  0.6484  0.2263 -0.1475
  576MOL0     C75948   9.033  11.758   8.346  0.3425 -0.0892 -0.5395
  576MOL0     C75949   8.902  11.782   8.304  0.1538 -0.4389  0.1884
  576MOL0     N75950   8.396  11.269   8.433 -0.2202 -0.4411  0.7238
  576MOL0     N75951   8.437  11.146   8.443  0.0289 -0.0780  0.7289
  576MOL0     C75952   7.768  10.418   8.427  0.4595 -0.4693 -0.0123
  576MOL0     C75953   7.727  10.282   8.446  0.4952 -0.8428  0.2131
  576MOL0     C75954   7.727   9.839   8.600 -0.7217 -0.3764 -0.4030
  576MOL0     C75955   7.761   9.720   8.537  0.8888  0.3316  0.0453
  576MOL0     C75956   7.679   9.601   8.572 -0.0525 -0.0548  0.0593
  576MOL0     C75957   7.589   9.597   8.672  0.3958 -0.4495  1.0501
  576MOL0     O75958   7.516   9.481   8.692  0.3912  0.0846  0.5424
  576MOL0     C75959   7.383   9.483   8.650 -0.6702  0.1022  0.1274
  576MOL0     C75960   7.333   9.335   8.620  0.1421 -0.0788  0.1984
  576MOL0     C75961   7.287   9.277   8.755 -0.2018 -0.1364 -0.2743
  576MOL0     C75962   7.227   9.135   8.711  0.7960  0.1257  0.4056
  576MOL0     C75963   7.139   9.099   8.826 -0.1923  0.8020 -0.7264
  576MOL0     C75964   7.064   9.041   8.907  0.0991 -0.0125  0.0360
  576MOL0     C75965   7.555   9.721   8.727  0.7247 -0.7731 -0.1057
  576MOL0     C75966   7.621   9.840   8.694 -0.7675  0.6598 -0.2478
  576MOL0     H75967   7.940  10.189   8.687 -3.3256 -0.7257  1.3628
  576MOL0     H75968   8.005  10.430   8.679 -1.4398  1.0709  1.5133
  576MOL0     H75969   7.890  10.602   8.270 -2.6237  3.1418  1.6734
  576MOL0     H75970   8.061  10.599   8.354  0.4554  2.0706 -0.6314
  576MOL0     H75971   7.986  10.824   8.444  1.2400 -2.5228  0.0883
  576MOL0     H75972   7.842  10.807   8.348  0.0798  0.5228 -3.2227
  576MOL0     H75973   8.010  10.957   8.247 -0.7373  0.2077  0.1025
  576MOL0     H75974   7.982  10.812   8.139 -2.4772  0.0299  0.7452
  576MOL0     H75975   8.183  10.721   8.218  1.7784  1.3615  1.2107
  576MOL0     H75976   8.213  10.876   8.145 -1.3734  3.4008 -0.0376
  576MOL0     H75977   8.203  10.802   8.445  3.5236 -3.3613 -0.0231
  576MOL0     H75978   8.238  10.966   8.390  0.9422 -0.7714  0.2518
  576MOL0     H75979   8.380  10.700   8.348 -0.1460 -0.0134 -0.5556
  576MOL0     H75980   8.436  10.842   8.444  1.3982  1.3563 -1.8392
  576MOL0     H75981   8.546  10.788   8.206  0.2921  0.2040  0.2706
  576MOL0     H75982   8.427  10.897   8.155 -1.2033 -1.1971  1.2036
  576MOL0     H75983   8.649  11.002   8.229  0.0538  4.0921  0.5112
  576MOL0     H75984   8.629  10.947   8.394  1.2231  0.0283 -0.0164
  576MOL0     H75985   8.543  11.218   8.149 -0.9510  1.5558  0.0577
  576MOL0     H75986   8.332  11.511   8.323 -0.9352 -0.7147 -0.8900
  576MOL0     H75987   8.370  11.457   8.153  1.6805 -2.1977  0.0580
  576MOL0     H75988   8.573  11.512   8.155 -0.7579  1.1171 -1.4997
  576MOL0     H75989   8.598  11.527   8.331  2.6650  0.3061 -1.1853
  576MOL0     H75990   8.431  11.713   8.151  1.6840  0.7660  0.2925
  576MOL0     H75991   8.419  11.741   8.320 -2.2953  0.7765 -2.9249
  576MOL0     H75992   8.649  11.762   8.349  0.8300  0.2130 -1.2747
  576MOL0     H75993   8.568  11.880   8.250 -3.1090 -1.1335 -0.1179
  576MOL0     H75994   8.913  11.613   8.013 -0.0319 -2.8771  1.6587
  576MOL0     H75995   9.125  11.568   8.097  1.9889 -2.7906  5.2257
  576MOL0     H75996   9.540  11.725   8.420  2.5391  2.7513 -0.3748
  576MOL0     H75997   9.767  11.657   8.430 -0.3818  1.3140 -0.4788
  576MOL0     H75998   9.969  11.545   8.458  1.3659  0.9502 -0.8902
  576MOL0     H75999  10.010  11.574   8.288 -0.0397  2.9642  2.5289
  576MOL0     H76000  10.105  11.324   8.296  2.4237  1.1999 -1.4436
  576MOL0     H76001  10.087  11.336   8.473  0.5617  5.5583  3.0557
  576MOL0     H76002  10.261  11.506   8.483  1.1843 -2.5110  0.6406
  576MOL0     H76003  10.261  11.533   8.311  1.1641  0.3641  1.3705
  576MOL0     H76004  10.332  11.267   8.460 -0.8300  0.8185  0.6920
  576MOL0     H76005  10.357  11.300   8.282 -1.4531  1.4718 -1.3341
  576MOL0     H76006  10.553  11.308   8.436 -0.6742 -1.2275 -2.3951
  576MOL0     H76007  10.478  11.466   8.499 -1.8523 -1.0734 -0.4189
  576MOL0     H76008  10.519  11.587   8.326  0.4759 -0.2143  0.3659
  576MOL0     H76009  10.530  11.451   8.212 -1.6819  0.9107 -0.3829
  576MOL0     H76010  10.743  11.525   8.419 -0.6889  1.4332 -1.6959
  576MOL0     H76011  10.737  11.385   8.306  2.5232  0.6086  0.0757
  576MOL0     H76012  10.869  11.582   8.217 -0.6219 -0.4604 -2.8390
  576MOL0     H76013  10.716  11.674   8.226 -1.2405 -0.1357 -0.4556
  576MOL0     H76014   9.699  11.323   8.174 -0.5222 -0.2463 -0.7244
  576MOL0     H76015   9.457  11.404   8.151 -0.9872  0.0198  1.5481
  576MOL0     H76016   9.049  11.792   8.448 -1.0413  1.3547 -0.7664
  576MOL0     H76017   8.831  11.838   8.363 -1.1216 -0.7727 -0.9593
  576MOL0     H76018   7.716  10.476   8.352 -1.7960 -0.1697  1.6805
  576MOL0     H76019   7.642  10.235   8.397 -0.3323 -1.2373  1.9690
  576MOL0     H76020   7.849   9.723   8.472  1.3807  3.4874  0.6671
  576MOL0     H76021   7.707   9.510   8.521 -0.5750 -0.9775  1.3833
  576MOL0     H76022   7.374   9.537   8.555  0.2532 -3.2674 -2.0597
  576MOL0     H76023   7.316   9.535   8.718  1.3564  0.8806  1.6306
  576MOL0     H76024   7.241   9.344   8.562 -1.3155  1.7088  2.6271
  576MOL0     H76025   7.406   9.275   8.564  2.2310  0.6046  2.0093
  576MOL0     H76026   7.220   9.342   8.812 -0.7375 -1.3363  0.5030
  576MOL0     H76027   7.377   9.263   8.815 -0.2980 -1.0097 -0.3177
  576MOL0     H76028   7.180   9.153   8.614  0.9124  1.6393  0.6106
  576MOL0     H76029   7.308   9.063   8.694 -1.4659 -1.9902 -2.4637
  576MOL0     H76030   6.996   8.994   8.974  0.8806  0.9284  1.5424
  576MOL0     H76031   7.466   9.740   8.786  0.2127  1.7182 -1.5369
  576MOL0     H76032   7.606   9.934   8.748 -1.7713  0.3203  0.0867
  577MOL0     O76033   2.269   4.685   7.332 -0.6444  0.0938  0.5968
  577MOL0     C76034   2.324   4.775   7.389  0.4592  0.6896 -0.6380
  577MOL0     O76035   2.440   4.832   7.346  0.0784  0.1941 -0.1379
  577MOL0     C76036   2.480   4.793   7.222  0.3546 -0.2836 -0.2438
  577MOL0     C76037   2.418   4.839   7.110  0.1048 -0.4443 -1.2707
  577MOL0     C76038   2.470   4.797   6.985 -0.0707 -0.7263 -0.4199
  577MOL0     C76039   2.592   4.717   6.978  0.3567  1.1765  0.1260
  577MOL0     O76040   2.644   4.690   6.855  0.4632 -0.3505  0.1370
  577MOL0     C76041   2.626   4.555   6.809 -1.0026  0.7287  0.9772
  577MOL0     C76042   2.758   4.485   6.763  0.1833  0.1719 -0.4067
  577MOL0     C76043   2.749   4.414   6.627 -0.6811  0.5936 -0.0444
  577MOL0     C76044   2.651   4.290   6.630  0.2853  0.2489 -0.0325
  577MOL0     C76045   2.631   4.241   6.486  0.6301 -0.3139  0.0323
  577MOL0     C76046   2.550   4.108   6.487  0.6316 -0.6545 -0.0578
  577MOL0     C76047   2.538   4.050   6.347 -0.0395 -0.4890  1.1860
  577MOL0     C76048   2.483   3.912   6.333 -0.9811  0.3700 -1.1987
  577MOL0     N76049   2.339   3.940   6.326  0.3696  0.5984  0.5640
  577MOL0     C76050   2.251   3.901   6.425 -0.1017 -0.2569 -0.4978
  577MOL0     C76051   2.132   3.896   6.373  0.2481  0.2681  0.2301
  577MOL0     C76052   2.000   3.887   6.445 -0.4167  0.5008 -0.0977
  577MOL0     C76053   2.011   3.826   6.583 -0.9567  0.4116 -0.2149
  577MOL0     C76054   1.867   3.790   6.644  0.0682  0.1216  0.2678
  577MOL0     C76055   1.851   3.763   6.800  0.0803 -0.6689 -0.0095
  577MOL0     O76056   1.721   3.753   6.859  0.7705 -0.1862 -0.5830
  577MOL0     C76057   1.621   3.840   6.805  0.0474 -0.0568  0.4226
  577MOL0     C76058   1.623   3.979   6.819  0.6842  0.0029 -0.0263
  577MOL0     C76059   1.530   4.059   6.755  0.2434  0.5621 -0.1729
  577MOL0     C76060   1.426   3.998   6.681 -0.0475  0.1017  0.0777
  577MOL0     C76061   1.320   4.079   6.618 -0.2175 -0.2727  0.0444
  577MOL0     O76062   1.274   4.194   6.687 -0.2951  0.6708 -0.4074
  577MOL0     C76063   1.188   4.262   6.608  0.1939 -0.5880 -0.2267
  577MOL0     C76064   1.228   4.372   6.531 -0.0629 -0.8666 -0.3000
  577MOL0     C76065   1.150   4.455   6.448 -0.1273  0.0004 -0.0818
  577MOL0     C76066   1.006   4.415   6.451 -1.1032 -0.6374 -0.3609
  577MOL0     O76067   0.908   4.490   6.383  0.0615  0.3338  0.4817
  577MOL0     C76068   0.936   4.622   6.330 -0.3627  0.0765 -0.8092
  577MOL0     C76069   0.821   4.636   6.229 -0.7275 -0.2403 -0.3908
  577MOL0     C76070   0.818   4.786   6.175  0.0432  0.7694  0.8126
  577MOL0     C76071   0.699   4.813   6.069 -0.0679  0.1767 -1.0181
  577MOL0     C76072   0.714   4.950   6.013 -1.1669 -0.2638  0.5457
  577MOL0     C76073   0.604   4.976   5.910 -0.1871  0.0846 -0.5399
  577MOL0     C76074   0.610   5.123   5.859 -0.1764 -0.0881 -0.1274
  577MOL0     C76075   0.502   5.159   5.758 -0.1506  0.9062  0.6026
  577MOL0    Cl76076   0.502   5.321   5.725 -0.3521 -0.1313  0.2613
  577MOL0     C76077   0.965   4.301   6.530 -0.3662  0.0240 -1.2481
  577MOL0     C76078   1.048   4.225   6.608 -0.1519 -0.0893 -0.1114
  577MOL0     O76079   1.280   4.039   6.509  0.7354  0.2100 -0.2579
  577MOL0     C76080   1.425   3.858   6.674 -0.1667 -0.4338 -0.1228
  577MOL0     C76081   1.524   3.777   6.737 -0.4385 -0.8167 -0.2288
  577MOL0     N76082   2.151   3.910   6.232 -0.0587 -0.2676 -0.8575
  577MOL0     N76083   2.270   3.947   6.209 -0.2018  0.8122  0.1462
  577MOL0     C76084   2.642   4.667   7.093 -1.3236 -0.3886  0.6180
  577MOL0     C76085   2.594   4.708   7.221 -0.2452 -0.9510 -0.1492
  577MOL0     C76086   2.266   4.825   7.524 -0.8627 -0.0318 -0.2460
  577MOL0     C76087   2.160   4.764   7.590  0.2255 -0.2722  0.5164
  577MOL0     C76088   2.116   4.809   7.719 -0.6969 -0.0209  0.9317
  577MOL0     C76089   2.180   4.919   7.770  0.2041  0.2196 -0.1104
  577MOL0     O76090   2.154   4.979   7.889 -0.5684 -0.6002 -0.5234
  577MOL0     C76091   2.070   4.905   7.977  0.5036  0.5696 -0.1076
  577MOL0     C76092   2.083   4.951   8.118  0.3572 -0.0384  1.0009
  577MOL0     C76093   2.208   4.918   8.199  1.0617 -0.0021  0.7981
  577MOL0     C76094   2.198   5.008   8.328 -0.6133 -0.6046 -0.7894
  577MOL0     C76095   2.317   4.972   8.405 -0.3439  1.4462 -0.5199
  577MOL0     C76096   2.412   4.914   8.455  0.1811  0.0946 -0.5508
  577MOL0     C76097   2.282   4.980   7.704 -0.3832 -0.0002  0.1500
  577MOL0     C76098   2.334   4.929   7.587  0.4989 -0.0763 -0.2162
  577MOL0     H76099   2.333   4.907   7.106 -1.8497 -2.4698  1.8430
  577MOL0     H76100   2.409   4.831   6.902  0.6198  1.6693 -0.0274
  577MOL0     H76101   2.561   4.549   6.722 -1.2580 -2.6164  1.2614
  577MOL0     H76102   2.562   4.501   6.879 -1.1340  3.0461  2.7645
  577MOL0     H76103   2.791   4.417   6.842 -0.6964 -2.0426 -1.8606
  577MOL0     H76104   2.839   4.558   6.753 -0.9212  1.4455 -0.2900
  577MOL0     H76105   2.850   4.383   6.597 -1.5777  0.4023 -3.2481
  577MOL0     H76106   2.722   4.487   6.550  2.1570 -0.0002 -1.7668
  577MOL0     H76107   2.708   4.214   6.684  0.7859 -1.3347 -2.6038
  577MOL0     H76108   2.554   4.306   6.678  1.8050  2.6326  2.5906
  577MOL0     H76109   2.724   4.219   6.434 -1.3164  0.0950 -4.0107
  577MOL0     H76110   2.587   4.321   6.425 -0.6793 -1.5734 -0.7206
  577MOL0     H76111   2.450   4.129   6.527  0.9791  1.2459 -0.0973
  577MOL0     H76112   2.601   4.038   6.554  0.0227 -1.6383 -0.5912
  577MOL0     H76113   2.478   4.122   6.290  0.5078  2.1966  3.7022
  577MOL0     H76114   2.638   4.054   6.304 -0.5875  0.4319 -0.0639
  577MOL0     H76115   2.500   3.839   6.413 -1.5762  0.6035 -0.8542
  577MOL0     H76116   2.520   3.878   6.235  5.1834 -0.4316  0.9375
  577MOL0     H76117   2.269   3.882   6.531 -0.8310  1.1093 -0.1049
  577MOL0     H76118   1.936   3.825   6.381  3.0320 -1.2276 -2.1859
  577MOL0     H76119   1.959   3.985   6.469 -1.2539 -0.1218  1.1475
  577MOL0     H76120   2.060   3.891   6.656 -1.3395  0.3136  0.1347
  577MOL0     H76121   2.069   3.733   6.582 -1.8454 -0.1430 -1.1782
  577MOL0     H76122   1.797   3.872   6.625  1.8992  1.5360 -0.7583
  577MOL0     H76123   1.829   3.704   6.588 -4.2071  2.3031 -0.5914
  577MOL0     H76124   1.916   3.835   6.852  0.6652 -1.2372  0.0648
  577MOL0     H76125   1.894   3.668   6.832 -1.5118 -1.5251 -0.3388
  577MOL0     H76126   1.686   4.031   6.891 -1.6872  3.3331 -0.1463
  577MOL0     H76127   1.529   4.165   6.777  0.9777 -0.1688  4.3189
  577MOL0     H76128   1.332   4.404   6.525 -0.1338  0.0595  2.2299
  577MOL0     H76129   1.183   4.524   6.372 -3.2211 -0.3400 -1.9132
  577MOL0     H76130   1.034   4.623   6.282  0.0392 -0.7770 -0.0229
  577MOL0     H76131   0.930   4.704   6.402  2.7899 -0.2252 -0.0890
  577MOL0     H76132   0.722   4.623   6.274 -0.5687  4.1130  1.7931
  577MOL0     H76133   0.842   4.578   6.139  1.0549  1.0324 -0.8346
  577MOL0     H76134   0.909   4.785   6.115  0.2266 -0.9345  1.0622
  577MOL0     H76135   0.823   4.859   6.256  2.7248  2.4520 -0.7162
  577MOL0     H76136   0.720   4.743   5.988 -2.6232 -4.0618  1.6002
  577MOL0     H76137   0.599   4.800   6.111 -0.9421  2.7702 -2.0622
  577MOL0     H76138   0.811   4.958   5.963 -0.9803  2.7063  1.1584
  577MOL0     H76139   0.707   5.025   6.093 -0.2451 -1.0810  1.4232
  577MOL0     H76140   0.510   4.953   5.961  0.8909 -3.4767  0.1448
  577MOL0     H76141   0.610   4.897   5.834 -2.7543  0.1267 -0.8586
  577MOL0     H76142   0.614   5.180   5.953 -1.9014 -1.7008  0.9814
  577MOL0     H76143   0.697   5.140   5.795 -0.7301 -1.9401 -1.4510
  577MOL0     H76144   0.403   5.129   5.793  0.2881 -3.6597 -1.3592
  577MOL0     H76145   0.534   5.095   5.676  1.2681 -0.8398  2.4028
  577MOL0     H76146   0.860   4.281   6.512 -1.9880  5.0777  0.7657
  577MOL0     H76147   1.019   4.138   6.666 -0.9798  0.7680  0.8027
  577MOL0     H76148   1.350   3.802   6.618  0.5821 -1.7624  0.1394
  577MOL0     H76149   1.533   3.669   6.726 -1.6811 -1.1540  1.6109
  577MOL0     H76150   2.719   4.591   7.088 -2.0308 -1.1067  0.3863
  577MOL0     H76151   2.639   4.668   7.311  1.9836 -1.3147 -1.3550
  577MOL0     H76152   2.106   4.677   7.552 -0.7869  0.4431  0.2805
  577MOL0     H76153   2.032   4.752   7.756 -1.3598 -0.4385 -1.0909
  577MOL0     H76154   2.109   4.803   7.975 -0.8799  0.0231 -1.5724
  577MOL0     H76155   1.968   4.907   7.938  1.0444 -1.8203 -1.8156
  577MOL0     H76156   2.063   5.058   8.111  0.0038 -0.2070 -1.0708
  577MOL0     H76157   2.007   4.905   8.182 -0.5882 -0.7853 -0.6120
  577MOL0     H76158   2.297   4.934   8.139 -0.9605 -0.4575 -2.6135
  577MOL0     H76159   2.197   4.812   8.221  1.1084 -0.0033  0.8128
  577MOL0     H76160   2.207   5.115   8.308 -0.5812 -0.1517  1.3855
  577MOL0     H76161   2.108   4.997   8.389  0.2656 -0.9073  0.4809
  577MOL0     H76162   2.497   4.870   8.502  0.4803 -1.0126 -2.0505
  577MOL0     H76163   2.340   5.061   7.746  1.8355 -2.5911  2.4585
  577MOL0     H76164   2.417   4.987   7.548  3.1293 -2.6897  1.0198
  578MOL0     O76165   4.102   8.526   2.385 -0.2418 -0.0106 -0.3771
  578MOL0     C76166   4.020   8.613   2.421  0.4808 -0.4463  0.3169
  578MOL0     O76167   3.976   8.714   2.345  0.3955  0.2654  0.4945
  578MOL0     C76168   4.036   8.750   2.225  0.9521  0.6158  0.2616
  578MOL0     C76169   4.023   8.668   2.108 -0.4486  0.1175  0.1023
  578MOL0     C76170   4.090   8.707   1.997  0.4926  0.2278  0.2770
  578MOL0     C76171   4.169   8.828   1.983 -0.3181 -0.0558 -0.6341
  578MOL0     O76172   4.231   8.876   1.867  0.3586  0.2812  1.3212
  578MOL0     C76173   4.174   8.816   1.742  0.5167  0.0116  0.7660
  578MOL0     C76174   4.195   8.919   1.637 -0.1215 -0.7817  0.2585
  578MOL0     C76175   4.121   8.882   1.511 -0.4339  0.4104 -0.5198
  578MOL0     C76176   4.183   8.753   1.437 -0.5138  0.2204 -0.9275
  578MOL0     C76177   4.098   8.737   1.306 -0.6136  0.3176  0.3885
  578MOL0     C76178   3.951   8.703   1.330 -0.8684  0.0045 -0.2387
  578MOL0     C76179   3.884   8.665   1.197 -0.7192  0.5380 -0.5384
  578MOL0     C76180   3.728   8.655   1.195 -0.6078  0.5998  0.7773
  578MOL0     N76181   3.664   8.533   1.249 -0.1407 -0.2765  0.0150
  578MOL0     C76182   3.610   8.437   1.170  0.1994  0.5447 -0.1460
  578MOL0     C76183   3.561   8.346   1.251 -0.0666  0.3859 -0.4010
  578MOL0     C76184   3.489   8.216   1.209 -1.7029  0.3287 -1.2842
  578MOL0     C76185   3.340   8.253   1.195  0.3008  0.1703  0.2738
  578MOL0     C76186   3.298   8.324   1.061  0.7700 -0.6644  0.0131
  578MOL0     C76187   3.313   8.227   0.946  1.0725 -0.2640  0.4680
  578MOL0     O76188   3.199   8.144   0.960  0.1654  0.2494  0.3631
  578MOL0     C76189   3.152   8.098   0.836 -1.0646  0.3143 -0.5541
  578MOL0     C76190   3.228   8.029   0.745  0.0646 -0.1101 -0.1538
  578MOL0     C76191   3.169   7.970   0.639  0.0669  0.0584 -0.9904
  578MOL0     C76192   3.032   7.977   0.618  1.1980  0.2616  1.1901
  578MOL0     C76193   2.983   7.918   0.489 -0.2251 -2.1854  0.5305
  578MOL0     O76194   2.872   7.991   0.451 -0.4926 -0.5451 -0.4878
  578MOL0     C76195   2.784   7.955   0.348 -0.4930 -0.8276  0.4252
  578MOL0     C76196   2.755   7.818   0.334  0.1337  0.6544 -0.3807
  578MOL0     C76197   2.659   7.780   0.233 -1.0264  0.1736  0.0546
  578MOL0     C76198   2.602   7.878   0.149 -0.1168 -0.3281  0.3412
  578MOL0     O76199   2.511   7.827   0.053 -0.1186  0.2626  0.2411
  578MOL0     C76200   2.450   7.916  -0.044  0.3908  0.6995  0.4653
  578MOL0     C76201   2.354   7.842  -0.133  0.1536  0.0097 -0.1378
  578MOL0     C76202   2.246   7.751  -0.075 -0.2216  0.0789  0.0035
  578MOL0     C76203   2.130   7.719  -0.166  0.6242 -0.7619  0.5152
  578MOL0     C76204   2.165   7.689  -0.319 -0.3017  0.0522 -0.8031
  578MOL0     C76205   2.052   7.632  -0.406 -0.0494  0.1369  0.9111
  578MOL0     C76206   1.926   7.725  -0.409  0.6897 -0.1478 -0.1851
  578MOL0     C76207   1.813   7.643  -0.493  0.0582  0.1102 -0.4438
  578MOL0    Cl76208   1.654   7.721  -0.479 -0.3058  0.0011 -0.7070
  578MOL0     C76209   2.648   8.006   0.164 -0.3108 -0.4040  0.0997
  578MOL0     C76210   2.740   8.053   0.265  0.3098  0.1774  0.3202
  578MOL0     O76211   3.029   7.825   0.435 -0.4063  0.4021  0.1915
  578MOL0     C76212   2.956   8.043   0.713  1.1806 -0.7516 -0.1055
  578MOL0     C76213   3.014   8.102   0.831 -0.3727  0.5051  0.8156
  578MOL0     N76214   3.586   8.392   1.385  0.4156  1.2241  0.2074
  578MOL0     N76215   3.649   8.505   1.379  0.3725 -0.0933 -0.6934
  578MOL0     C76216   4.178   8.906   2.097 -0.3989 -0.1916 -0.2267
  578MOL0     C76217   4.105   8.875   2.215 -0.3016 -0.5442  0.7702
  578MOL0     C76218   3.945   8.600   2.557 -0.9580  0.1767  0.3958
  578MOL0     C76219   4.003   8.520   2.659 -0.0431 -0.5060 -0.0842
  578MOL0     C76220   3.943   8.496   2.783  0.2295 -0.1300  0.0830
  578MOL0     C76221   3.817   8.554   2.806 -0.2106 -0.1223  0.3649
  578MOL0     O76222   3.761   8.523   2.926 -0.6146 -0.3561  0.6159
  578MOL0     C76223   3.629   8.573   2.964 -0.0758  0.4247  0.5538
  578MOL0     C76224   3.522   8.464   2.947 -0.2944 -0.1931  0.2632
  578MOL0     C76225   3.382   8.525   2.978  0.6999  0.1734  0.2747
  578MOL0     C76226   3.265   8.439   2.928  0.5566  0.4071 -0.1945
  578MOL0     C76227   3.293   8.296   2.970 -0.5236  0.8170  0.4618
  578MOL0     C76228   3.327   8.184   2.993  0.7218  0.3983 -1.1960
  578MOL0     C76229   3.755   8.632   2.702 -1.3166 -0.3611  1.1732
  578MOL0     C76230   3.819   8.655   2.578  0.4383  0.1648 -0.5683
  578MOL0     H76231   3.959   8.580   2.109  1.2358 -1.1999 -1.4898
  578MOL0     H76232   4.074   8.639   1.914  3.0390 -1.0414  0.7277
  578MOL0     H76233   4.068   8.793   1.757  0.6471 -0.5898  0.7895
  578MOL0     H76234   4.236   8.727   1.732  0.4165 -0.2442  2.2009
  578MOL0     H76235   4.304   8.927   1.624 -0.0998 -0.4018  0.6485
  578MOL0     H76236   4.158   9.018   1.668 -1.1333  0.0238 -3.1764
  578MOL0     H76237   4.118   8.966   1.442 -2.3588 -0.2992 -1.3702
  578MOL0     H76238   4.014   8.869   1.529 -1.1417 -0.9326 -4.5838
  578MOL0     H76239   4.288   8.783   1.426 -0.3534 -0.6132 -1.7652
  578MOL0     H76240   4.175   8.667   1.505  1.2191 -1.6740 -2.9608
  578MOL0     H76241   4.147   8.656   1.252 -2.2305  0.1777 -0.9560
  578MOL0     H76242   4.095   8.824   1.240  1.6019 -1.1394 -1.7977
  578MOL0     H76243   3.903   8.796   1.361 -2.0100 -0.4429 -0.6207
  578MOL0     H76244   3.916   8.629   1.403 -0.2259 -1.2834 -1.2096
  578MOL0     H76245   3.910   8.747   1.131 -0.0296 -0.2485 -1.2642
  578MOL0     H76246   3.931   8.574   1.158 -1.6803  0.9288 -2.7547
  578MOL0     H76247   3.694   8.664   1.092 -1.5502  0.8361  1.0953
  578MOL0     H76248   3.692   8.749   1.239 -1.7802  0.5864 -0.0910
  578MOL0     H76249   3.622   8.438   1.062  1.3884  0.2693 -0.0312
  578MOL0     H76250   3.501   8.136   1.282 -2.0461  0.8521 -0.6434
  578MOL0     H76251   3.539   8.177   1.120 -2.6104 -0.7965 -1.3127
  578MOL0     H76252   3.307   8.330   1.265  2.5385  2.3447 -0.9001
  578MOL0     H76253   3.276   8.165   1.211  2.9866 -1.9931 -0.2271
  578MOL0     H76254   3.196   8.363   1.059  1.3461  0.9124  0.2365
  578MOL0     H76255   3.365   8.409   1.052 -4.0810  3.8774  1.4923
  578MOL0     H76256   3.406   8.170   0.960  2.8951  2.6157  1.1817
  578MOL0     H76257   3.317   8.281   0.851 -0.5964  1.9292  1.5692
  578MOL0     H76258   3.335   8.014   0.757  0.2796  1.7383  0.6508
  578MOL0     H76259   3.235   7.933   0.562  1.1385  0.5813 -0.3641
  578MOL0     H76260   2.795   7.745   0.404  2.5820  3.7931  1.8198
  578MOL0     H76261   2.632   7.676   0.223  2.6174 -0.8732 -0.3190
  578MOL0     H76262   2.524   7.969  -0.105  1.9089 -1.1395  0.6374
  578MOL0     H76263   2.384   7.978   0.018 -0.4677  0.6194 -0.3383
  578MOL0     H76264   2.418   7.779  -0.195 -2.3421 -2.1684 -0.6915
  578MOL0     H76265   2.303   7.914  -0.197  1.4077  2.3684  1.3580
  578MOL0     H76266   2.219   7.789   0.024 -1.4570 -0.2373 -0.2033
  578MOL0     H76267   2.305   7.664  -0.045  2.7946  1.5915 -1.0117
  578MOL0     H76268   2.057   7.653  -0.119 -1.4302  1.0118 -0.0463
  578MOL0     H76269   2.075   7.814  -0.167  2.0754  0.1252  1.0921
  578MOL0     H76270   2.256   7.629  -0.330 -0.5128  0.0156 -2.7150
  578MOL0     H76271   2.201   7.786  -0.354  5.5364 -0.5859  2.2662
  578MOL0     H76272   2.027   7.531  -0.371  4.4414 -0.1730  4.0414
  578MOL0     H76273   2.096   7.629  -0.506  3.2912 -1.0292  2.3020
  578MOL0     H76274   1.900   7.758  -0.308  0.6167  3.3619 -1.1965
  578MOL0     H76275   1.951   7.821  -0.455  0.0199 -1.2961 -3.1329
  578MOL0     H76276   1.804   7.537  -0.467 -0.6514 -0.6288 -3.3169
  578MOL0     H76277   1.830   7.632  -0.600  2.7414 -1.7450  0.0811
  578MOL0     H76278   2.614   8.086   0.098 -2.0676 -1.3121 -0.1443
  578MOL0     H76279   2.762   8.157   0.284  1.6986  0.1517 -0.9197
  578MOL0     H76280   2.848   8.048   0.704  0.8461 -0.2420  3.0845
  578MOL0     H76281   2.953   8.148   0.908  1.5658  3.1811  0.8989
  578MOL0     H76282   4.224   9.003   2.084 -1.5654  0.6284  1.3824
  578MOL0     H76283   4.123   8.943   2.298 -0.6794  0.4067  0.0972
  578MOL0     H76284   4.090   8.463   2.629  0.7031  0.1119  0.8935
  578MOL0     H76285   3.996   8.423   2.844  3.0170  0.1832 -1.8009
  578MOL0     H76286   3.608   8.659   2.901  2.8348 -1.6297 -3.6962
  578MOL0     H76287   3.641   8.619   3.063 -0.1383  3.0395 -0.5731
  578MOL0     H76288   3.530   8.443   2.840  0.6380  0.4963  0.1813
  578MOL0     H76289   3.547   8.380   3.012  1.9004  1.4913  1.7528
  578MOL0     H76290   3.370   8.622   2.927  2.1771 -0.2884 -1.0375
  578MOL0     H76291   3.372   8.552   3.083  1.5897  0.8430  0.2052
  578MOL0     H76292   3.179   8.492   2.970 -0.2308  0.7461 -2.1066
  578MOL0     H76293   3.251   8.440   2.819 -1.1472 -0.5323 -0.0235
  578MOL0     H76294   3.375   8.089   3.009  1.5447  1.1563  1.3683
  578MOL0     H76295   3.652   8.666   2.709 -1.0948  0.7356 -0.4671
  578MOL0     H76296   3.770   8.703   2.494 -0.9041  0.4861  0.3772
  579MOL0     O76297   9.421   7.316  11.441 -0.2048 -0.0428  0.1828
  579MOL0     C76298   9.542   7.284  11.443 -0.1591  0.0848  0.2486
  579MOL0     O76299   9.609   7.218  11.341 -0.4298 -0.2610  0.5284
  579MOL0     C76300   9.559   7.190  11.213 -0.4389  0.2866  1.0109
  579MOL0     C76301   9.420   7.158  11.188 -0.2069 -0.5465 -0.8016
  579MOL0     C76302   9.373   7.113  11.059  0.0098 -0.4770 -0.8119
  579MOL0     C76303   9.458   7.105  10.950 -0.7132  0.4113  0.3900
  579MOL0     O76304   9.409   7.079  10.829  0.3417 -0.0492  0.5467
  579MOL0     C76305   9.485   7.121  10.719  0.2744  0.8255  0.4686
  579MOL0     C76306   9.423   7.069  10.590 -0.3624  0.3922  0.5164
  579MOL0     C76307   9.410   7.174  10.474  0.2875  0.5347 -0.6371
  579MOL0     C76308   9.356   7.107  10.359 -1.5203 -0.2266 -0.0371
  579MOL0     C76309   9.363   7.190  10.234  0.1160 -0.6172  0.1987
  579MOL0     C76310   9.303   7.331  10.249 -0.7520 -0.2827  0.8540
  579MOL0     C76311   9.160   7.336  10.300  0.0888 -0.6486  0.0397
  579MOL0     C76312   9.066   7.241  10.221 -0.4556 -0.0550 -0.4880
  579MOL0     N76313   8.925   7.269  10.259 -0.3521 -0.7157 -0.9817
  579MOL0     C76314   8.844   7.201  10.347 -0.6326 -0.4435  0.2918
  579MOL0     C76315   8.723   7.258  10.335  0.3427 -0.3365 -0.4223
  579MOL0     C76316   8.601   7.217  10.414 -0.1558  0.6684 -0.2707
  579MOL0     C76317   8.525   7.121  10.323  0.0185  0.6086  1.0022
  579MOL0     C76318   8.390   7.077  10.386  0.5850 -0.3047  0.3020
  579MOL0     C76319   8.312   7.001  10.276 -0.3232  0.5832 -0.0199
  579MOL0     O76320   8.399   6.889  10.234  0.4168 -0.3777 -0.3410
  579MOL0     C76321   8.397   6.858  10.100 -0.1610  0.5775 -0.1646
  579MOL0     C76322   8.310   6.918  10.006  0.0642  0.0415 -0.9187
  579MOL0     C76323   8.325   6.910   9.867 -0.3371  0.8089 -0.6833
  579MOL0     C76324   8.420   6.818   9.816  0.7450 -0.0867  0.6572
  579MOL0     C76325   8.418   6.792   9.671 -0.4275  0.5377 -1.1020
  579MOL0     O76326   8.315   6.843   9.597  0.6754 -0.0194 -0.0555
  579MOL0     C76327   8.327   6.823   9.463 -0.1851 -0.2521  0.3270
  579MOL0     C76328   8.353   6.922   9.378  1.1520  0.1058  0.6301
  579MOL0     C76329   8.358   6.895   9.240  0.5985  1.3079 -0.3706
  579MOL0     C76330   8.342   6.768   9.193 -0.5378  0.8906 -0.6079
  579MOL0     O76331   8.351   6.753   9.058 -0.2087  0.0875  0.4783
  579MOL0     C76332   8.269   6.654   8.998  0.8440 -0.8571  0.2787
  579MOL0     C76333   8.119   6.687   9.020 -0.0626  0.3694  0.2722
  579MOL0     C76334   8.025   6.586   8.946  0.1363  0.3432  0.7602
  579MOL0     C76335   7.881   6.641   8.921 -0.5570 -0.5426 -0.7981
  579MOL0     C76336   7.792   6.639   9.054  0.5370 -0.4118 -0.0552
  579MOL0     C76337   7.647   6.672   9.035 -0.0269 -0.6020  0.6379
  579MOL0     C76338   7.556   6.688   9.157 -0.0574  0.4191 -0.7125
  579MOL0     C76339   7.403   6.668   9.130 -0.3811 -0.3308 -0.0110
  579MOL0    Cl76340   7.363   6.489   9.120 -0.1269 -0.1737 -0.5842
  579MOL0     C76341   8.324   6.660   9.279 -0.7039 -0.3545  0.8605
  579MOL0     C76342   8.308   6.691   9.407  0.1464  0.0878 -0.2875
  579MOL0     O76343   8.507   6.724   9.627 -0.0967  0.7003 -0.3073
  579MOL0     C76344   8.516   6.770   9.912  0.5441 -0.9617  0.2378
  579MOL0     C76345   8.507   6.794  10.042  1.2695 -0.4842 -0.5087
  579MOL0     N76346   8.728   7.363  10.238 -0.1232 -0.2736 -0.1308
  579MOL0     N76347   8.851   7.368  10.196  0.0948  0.5060 -0.8569
  579MOL0     C76348   9.595   7.129  10.974  0.2082 -0.7947  0.7140
  579MOL0     C76349   9.641   7.169  11.102  0.0605  0.2111 -0.2926
  579MOL0     C76350   9.613   7.302  11.570 -0.0384  0.3504 -0.8821
  579MOL0     C76351   9.747   7.270  11.582  0.5432  0.9599  0.0972
  579MOL0     C76352   9.821   7.289  11.703  0.3451 -0.0044 -0.2681
  579MOL0     C76353   9.761   7.354  11.808  0.3071 -0.0290 -0.0583
  579MOL0     O76354   9.826   7.375  11.921 -0.2830  0.1417 -0.6314
  579MOL0     C76355   9.840   7.512  11.966 -1.0148  0.3699 -0.1023
  579MOL0     C76356   9.909   7.609  11.874  0.7965  0.8222  0.0016
  579MOL0     C76357  10.041   7.554  11.824  0.7738  0.4794  0.1726
  579MOL0     C76358  10.116   7.625  11.709  1.4073 -0.3784  0.3409
  579MOL0     C76359  10.013   7.611  11.593  0.0355  0.1394 -0.9179
  579MOL0     C76360   9.934   7.596  11.501 -0.1392  0.1397  0.0831
  579MOL0     C76361   9.631   7.393  11.798  0.5191  0.1116  1.0401
  579MOL0     C76362   9.552   7.365  11.680  0.2409 -0.6080  0.2121
  579MOL0     H76363   9.350   7.174  11.269  1.1365  1.3664  0.0575
  579MOL0     H76364   9.271   7.090  11.030 -0.4372 -1.2620  1.1850
  579MOL0     H76365   9.587   7.080  10.715  0.5287  1.4765 -0.0551
  579MOL0     H76366   9.499   7.229  10.706  4.2295  0.2106 -2.5107
  579MOL0     H76367   9.323   7.031  10.611 -1.3368  0.0311 -3.8087
  579MOL0     H76368   9.480   6.977  10.573 -0.0169 -0.4203  4.8899
  579MOL0     H76369   9.515   7.202  10.460  0.4130  0.5044  0.1849
  579MOL0     H76370   9.350   7.260  10.504 -1.1622 -1.3717  2.3594
  579MOL0     H76371   9.413   7.015  10.341 -1.5385 -0.5196  1.3061
  579MOL0     H76372   9.256   7.073  10.387 -0.7459 -1.5283  1.3118
  579MOL0     H76373   9.309   7.147  10.149  1.7664 -0.0552 -1.1903
  579MOL0     H76374   9.469   7.197  10.205 -0.0377 -0.8140 -0.4341
  579MOL0     H76375   9.306   7.377  10.150  0.9591 -0.4824  0.7830
  579MOL0     H76376   9.375   7.382  10.314  0.7091 -3.1923  1.7126
  579MOL0     H76377   9.142   7.303  10.403 -0.0910  0.9004  0.5305
  579MOL0     H76378   9.141   7.444  10.304  1.6103 -0.3787  0.5219
  579MOL0     H76379   9.084   7.135  10.242 -1.7547  0.0636  1.4920
  579MOL0     H76380   9.071   7.237  10.112 -0.6126 -2.9557 -0.4733
  579MOL0     H76381   8.880   7.129  10.421  1.3925 -3.7059 -3.4689
  579MOL0     H76382   8.546   7.308  10.439 -0.3414  0.3047  0.6823
  579MOL0     H76383   8.620   7.175  10.514 -0.8741 -1.9524 -1.1410
  579MOL0     H76384   8.588   7.035  10.298 -1.1656  0.7967 -3.6178
  579MOL0     H76385   8.510   7.175  10.229  0.4606  1.1216  1.2195
  579MOL0     H76386   8.407   7.004  10.466 -1.9333 -2.4612 -0.9656
  579MOL0     H76387   8.328   7.159  10.422 -2.0547 -1.7155 -0.7359
  579MOL0     H76388   8.291   7.081  10.205 -0.7341  1.4278  1.0148
  579MOL0     H76389   8.216   6.976  10.324 -1.4732  3.0332 -0.8763
  579MOL0     H76390   8.235   6.986  10.043 -0.7289 -1.5481  0.5234
  579MOL0     H76391   8.250   6.961   9.807 -0.9122  0.5897 -0.1668
  579MOL0     H76392   8.348   7.025   9.412 -3.8107  0.3756 -0.2227
  579MOL0     H76393   8.374   6.983   9.179  2.6116 -0.4733 -2.6076
  579MOL0     H76394   8.293   6.554   9.035 -3.5237 -2.1667  0.1101
  579MOL0     H76395   8.293   6.660   8.891 -0.3999  1.9493  0.0586
  579MOL0     H76396   8.095   6.785   8.978  0.4571 -0.8292 -3.0947
  579MOL0     H76397   8.093   6.673   9.125 -1.3939 -1.7383 -0.2925
  579MOL0     H76398   8.032   6.495   9.006  3.7842  2.6144  4.2752
  579MOL0     H76399   8.075   6.574   8.849  1.5531 -1.0914  1.6282
  579MOL0     H76400   7.888   6.747   8.896 -0.5667 -0.0807  1.0438
  579MOL0     H76401   7.836   6.583   8.840 -1.0407 -2.2272  0.6048
  579MOL0     H76402   7.838   6.713   9.119  3.0531 -0.7700 -1.3241
  579MOL0     H76403   7.798   6.541   9.103 -4.2260 -1.3314 -0.7504
  579MOL0     H76404   7.611   6.589   8.972  1.2108 -1.5312  1.1032
  579MOL0     H76405   7.639   6.764   8.976 -2.4382 -1.3202 -0.3299
  579MOL0     H76406   7.574   6.613   9.234  0.2913 -0.5642 -1.7212
  579MOL0     H76407   7.575   6.783   9.206  0.3506 -0.2332  0.4207
  579MOL0     H76408   7.380   6.699   9.028  4.0421  1.3825 -0.7256
  579MOL0     H76409   7.336   6.728   9.192 -2.0482 -0.2710 -1.7655
  579MOL0     H76410   8.322   6.556   9.247  0.4326 -0.3034  0.5650
  579MOL0     H76411   8.289   6.611   9.477  0.8939 -2.1716 -2.4982
  579MOL0     H76412   8.602   6.709   9.883  1.3848 -0.8629  2.3057
  579MOL0     H76413   8.581   6.746  10.106  0.8135  0.6734  0.9697
  579MOL0     H76414   9.676   7.108  10.905  0.7635  0.9434  0.7964
  579MOL0     H76415   9.746   7.192  11.116  0.2893  0.7774 -2.5946
  579MOL0     H76416   9.801   7.239  11.493  3.6896  3.2467  1.0282
  579MOL0     H76417   9.926   7.267  11.712 -0.1217 -1.9975  0.6788
  579MOL0     H76418   9.886   7.513  12.065 -2.5063 -1.6067  0.6996
  579MOL0     H76419   9.745   7.561  11.988 -0.8454 -0.5439  3.1614
  579MOL0     H76420   9.847   7.638  11.788 -0.3680  0.1827  0.6057
  579MOL0     H76421   9.927   7.702  11.928  2.6275  0.3663  0.2418
  579MOL0     H76422  10.033   7.450  11.792 -2.9016  0.8672 -0.5379
  579MOL0     H76423  10.117   7.561  11.903  2.2338  2.4209 -1.3097
  579MOL0     H76424  10.127   7.731  11.734 -0.5590 -0.2315  0.7906
  579MOL0     H76425  10.211   7.576  11.686  0.4968 -1.6910 -0.8131
  579MOL0     H76426   9.868   7.585  11.418  1.0114  1.9187 -1.1556
  579MOL0     H76427   9.589   7.455  11.876  0.2950  1.2060  0.0717
  579MOL0     H76428   9.449   7.394  11.662  0.6850  0.1961 -1.1950
  580MOL0     O76429   2.486   8.368   7.638  0.7924 -0.3193  0.6004
  580MOL0     C76430   2.470   8.404   7.757 -0.3973  0.5850 -0.2662
  580MOL0     O76431   2.570   8.435   7.848  0.3190  0.2674  0.1501
  580MOL0     C76432   2.701   8.437   7.788  0.2593  0.9900 -0.2658
  580MOL0     C76433   2.729   8.508   7.679 -0.4976 -0.3337  0.2651
  580MOL0     C76434   2.857   8.515   7.622 -0.5948 -0.0214  0.1685
  580MOL0     C76435   2.963   8.425   7.665  0.5499 -0.7878 -1.1951
  580MOL0     O76436   3.101   8.436   7.628  0.7413  0.0660  0.0658
  580MOL0     C76437   3.139   8.523   7.529 -0.5384  0.7894  0.5319
  580MOL0     C76438   3.199   8.652   7.597  0.5225  0.3299  0.7386
  580MOL0     C76439   3.266   8.759   7.501 -0.5040  0.2508  0.7607
  580MOL0     C76440   3.380   8.829   7.565 -0.4327  1.0018  0.4407
  580MOL0     C76441   3.329   8.904   7.688  0.2249 -0.1939 -0.0451
  580MOL0     C76442   3.419   9.032   7.716 -0.4230 -0.2575  1.1585
  580MOL0     C76443   3.375   9.119   7.831  0.1398  0.5695 -0.0628
  580MOL0     C76444   3.495   9.208   7.876 -0.1523 -0.8629 -0.8920
  580MOL0     N76445   3.554   9.308   7.788  0.5672 -0.0284  0.2730
  580MOL0     C76446   3.538   9.445   7.771 -0.0565 -0.1308 -0.4225
  580MOL0     C76447   3.570   9.477   7.649 -1.2157  0.3161 -0.2449
  580MOL0     C76448   3.532   9.599   7.585  0.2619  0.1108  0.3639
  580MOL0     C76449   3.405   9.661   7.633 -0.3966  0.3167 -0.2321
  580MOL0     C76450   3.384   9.803   7.586 -0.3368 -0.7391 -0.1922
  580MOL0     C76451   3.234   9.846   7.596 -0.0052 -0.7808 -0.1430
  580MOL0     O76452   3.214   9.988   7.591 -0.1904 -0.4482 -0.0385
  580MOL0     C76453   3.088  10.036   7.595  0.6306 -1.0175 -1.1350
  580MOL0     C76454   2.969   9.953   7.600  0.3471  0.4604  1.3478
  580MOL0     C76455   2.838   9.999   7.587  0.3530  0.3764  0.8390
  580MOL0     C76456   2.808  10.133   7.563 -0.3746  0.1626  0.3399
  580MOL0     C76457   2.672  10.178   7.565 -0.5209  0.4404  0.5286
  580MOL0     O76458   2.574  10.081   7.537 -0.1276  0.5888 -0.0510
  580MOL0     C76459   2.450  10.096   7.589  0.2192 -0.0392  0.1387
  580MOL0     C76460   2.339  10.083   7.506 -0.2038  0.6281 -1.0226
  580MOL0     C76461   2.209  10.111   7.549  0.1084 -0.4352 -0.4766
  580MOL0     C76462   2.177  10.136   7.678  0.3844 -0.6962 -0.9622
  580MOL0     O76463   2.054  10.155   7.723  0.7650  0.1620  0.1339
  580MOL0     C76464   1.935  10.110   7.649 -0.2922 -0.5507  0.5501
  580MOL0     C76465   1.938   9.960   7.631 -0.2561  0.4995 -0.1661
  580MOL0     C76466   1.844   9.891   7.526  0.3590 -0.6444 -0.1578
  580MOL0     C76467   1.706   9.921   7.578 -0.4502 -0.0658 -0.2874
  580MOL0     C76468   1.599   9.860   7.484  0.6174  0.4184 -0.6233
  580MOL0     C76469   1.481   9.947   7.470  0.8632 -0.2430 -0.0813
  580MOL0     C76470   1.513  10.053   7.361 -0.3627 -0.5063  0.7363
  580MOL0     C76471   1.404  10.140   7.307  0.4550  1.0428 -0.0459
  580MOL0    Cl76472   1.259  10.040   7.225 -0.6666 -0.5076  0.6605
  580MOL0     C76473   2.284  10.142   7.757 -0.3126  0.1078 -0.6064
  580MOL0     C76474   2.414  10.114   7.721 -0.4323  0.1988 -0.6457
  580MOL0     O76475   2.653  10.293   7.605  0.1572 -0.1539 -0.0757
  580MOL0     C76476   2.919  10.215   7.573 -0.3949  0.8602  0.1694
  580MOL0     C76477   3.058  10.171   7.592 -0.8327 -0.5210 -0.1918
  580MOL0     N76478   3.632   9.366   7.586 -1.0382 -0.5888  0.0158
  580MOL0     N76479   3.617   9.269   7.674 -0.1286 -0.6515 -0.5690
  580MOL0     C76480   2.930   8.340   7.770 -0.2916  0.8533 -1.1934
  580MOL0     C76481   2.807   8.349   7.831 -0.5608 -0.0952 -0.1683
  580MOL0     C76482   2.336   8.395   7.814  0.0034  0.6824  1.0607
  580MOL0     C76483   2.302   8.457   7.932 -0.5841  0.9008  0.4299
  580MOL0     C76484   2.178   8.439   7.995  0.1645  0.6127  0.7178
  580MOL0     C76485   2.077   8.364   7.938 -1.0517 -0.3204 -0.3918
  580MOL0     O76486   1.964   8.356   8.011  0.0995  0.2912 -0.3764
  580MOL0     C76487   1.860   8.284   7.956  0.8818  0.2362 -0.3758
  580MOL0     C76488   1.752   8.264   8.063  0.3370  0.8182 -0.0885
  580MOL0     C76489   1.641   8.156   8.031 -0.0981 -0.3951  0.8962
  580MOL0     C76490   1.543   8.200   7.925  0.1947 -0.4118 -0.1508
  580MOL0     C76491   1.592   8.210   7.792  0.3869  0.3517 -0.6218
  580MOL0     C76492   1.646   8.207   7.683 -0.0670 -1.1975  0.3938
  580MOL0     C76493   2.107   8.293   7.812  0.3421 -0.9988 -1.5344
  580MOL0     C76494   2.230   8.324   7.746 -0.1069  0.3810 -0.0591
  580MOL0     H76495   2.652   8.566   7.629 -0.3695 -0.6448 -0.2997
  580MOL0     H76496   2.866   8.574   7.532 -0.8576 -2.7627 -1.7665
  580MOL0     H76497   3.056   8.548   7.461  1.2754  0.9345 -1.7633
  580MOL0     H76498   3.221   8.484   7.468  0.2285  2.8412  0.1664
  580MOL0     H76499   3.279   8.617   7.662 -0.2840 -0.4942  1.3279
  580MOL0     H76500   3.124   8.698   7.662  0.1802  0.6389  0.1360
  580MOL0     H76501   3.192   8.834   7.468  0.0039  0.6882  0.6086
  580MOL0     H76502   3.296   8.710   7.408 -1.1353  0.3706  0.4867
  580MOL0     H76503   3.463   8.769   7.603 -1.3753 -0.7978 -0.1732
  580MOL0     H76504   3.408   8.906   7.493  1.6713  0.6808  0.8562
  580MOL0     H76505   3.331   8.839   7.776 -1.1309  0.0849  0.2136
  580MOL0     H76506   3.223   8.931   7.692  0.2889 -0.0617  0.8663
  580MOL0     H76507   3.411   9.107   7.638 -2.2085  2.0700  3.4205
  580MOL0     H76508   3.524   9.002   7.729 -0.4384 -0.1338  1.5801
  580MOL0     H76509   3.285   9.177   7.808 -0.6264 -1.0197 -1.2550
  580MOL0     H76510   3.343   9.069   7.923 -1.7986 -0.6540 -1.3263
  580MOL0     H76511   3.576   9.147   7.915  0.0859  0.5637  0.9587
  580MOL0     H76512   3.468   9.255   7.971  2.1723 -0.8837 -0.1731
  580MOL0     H76513   3.503   9.509   7.851 -0.1383 -1.8685  0.9995
  580MOL0     H76514   3.509   9.569   7.482  1.8811 -4.1572  1.0573
  580MOL0     H76515   3.616   9.667   7.569  0.8316 -0.4168  1.0687
  580MOL0     H76516   3.424   9.679   7.739 -0.0464  1.4210 -0.4733
  580MOL0     H76517   3.310   9.605   7.625  0.0151 -0.2770 -1.0952
  580MOL0     H76518   3.441   9.858   7.662  0.1933 -0.0806 -1.0380
  580MOL0     H76519   3.422   9.826   7.486 -2.0825 -1.3208 -1.0165
  580MOL0     H76520   3.193   9.807   7.690  0.7413 -0.7933  0.1826
  580MOL0     H76521   3.181   9.792   7.517  1.5095 -0.6653 -1.2527
  580MOL0     H76522   2.980   9.846   7.603 -0.7480  0.2635 -0.3376
  580MOL0     H76523   2.771   9.915   7.598  1.1021 -0.1027  1.9373
  580MOL0     H76524   2.352  10.056   7.402 -1.6437 -2.1835 -0.5852
  580MOL0     H76525   2.132  10.118   7.472 -0.6085 -1.2745  0.1373
  580MOL0     H76526   1.930  10.163   7.553 -2.7538  1.3482  1.6231
  580MOL0     H76527   1.843  10.137   7.702 -1.8880  0.2612 -2.4234
  580MOL0     H76528   1.902   9.928   7.730 -1.8637 -0.6177 -1.0600
  580MOL0     H76529   2.040   9.924   7.616 -1.0960 -2.4365  0.4873
  580MOL0     H76530   1.860   9.783   7.520 -3.4360 -1.2365 -3.5074
  580MOL0     H76531   1.868   9.944   7.433 -1.0295  0.2483 -0.0316
  580MOL0     H76532   1.691   9.883   7.679  1.8303 -0.7454 -0.1406
  580MOL0     H76533   1.689  10.029   7.587  1.5527  0.2338  0.5561
  580MOL0     H76534   1.569   9.766   7.532 -0.0171  1.3478  0.8829
  580MOL0     H76535   1.636   9.827   7.386  5.1158  0.7736  0.6954
  580MOL0     H76536   1.444  10.003   7.557 -1.1960 -1.7089  0.0600
  580MOL0     H76537   1.400   9.880   7.440 -0.2514  1.1426 -0.3331
  580MOL0     H76538   1.580  10.130   7.402 -3.5336  2.7533  0.3086
  580MOL0     H76539   1.551   9.993   7.278 -2.0524 -0.3004 -0.2381
  580MOL0     H76540   1.438  10.209   7.230 -0.6722  0.8449 -0.7438
  580MOL0     H76541   1.357  10.209   7.378  0.4792  0.6688  0.3371
  580MOL0     H76542   2.268  10.165   7.862  4.0779  2.3901 -0.2048
  580MOL0     H76543   2.493  10.110   7.796 -0.8262  0.1977 -0.2317
  580MOL0     H76544   2.890  10.320   7.572  0.1102  1.0283 -2.1681
  580MOL0     H76545   3.140  10.241   7.589 -3.2160  2.4967  0.6411
  580MOL0     H76546   3.005   8.270   7.806 -3.0037 -1.2038  0.9766
  580MOL0     H76547   2.791   8.289   7.920  0.5422  1.0504  0.8479
  580MOL0     H76548   2.378   8.524   7.972 -1.2270  2.3606 -0.7277
  580MOL0     H76549   2.159   8.495   8.086 -0.4069 -1.2551  1.7967
  580MOL0     H76550   1.902   8.185   7.936  2.0391  0.4800  0.7062
  580MOL0     H76551   1.824   8.333   7.865  0.2305  1.5107  0.5454
  580MOL0     H76552   1.796   8.237   8.159 -0.9455 -1.0287  0.0397
  580MOL0     H76553   1.696   8.357   8.075  2.0886  1.9242 -0.1639
  580MOL0     H76554   1.592   8.150   8.129 -2.5034 -1.7903 -0.3007
  580MOL0     H76555   1.676   8.059   7.995 -0.3406  0.2331 -1.1739
  580MOL0     H76556   1.469   8.121   7.911  1.6159 -1.3037 -3.8520
  580MOL0     H76557   1.505   8.300   7.947 -1.9904 -1.0884 -0.6822
  580MOL0     H76558   1.687   8.192   7.586  1.2752  1.0271  0.5245
  580MOL0     H76559   2.040   8.218   7.772  0.1587 -2.1177  0.7373
  580MOL0     H76560   2.238   8.307   7.639 -1.2332  0.5626 -0.1930
  581MOL0     O76561  10.197   2.437   0.091  0.3101 -0.1077 -0.2044
  581MOL0     C76562  10.267   2.348   0.142  0.3470  0.1903  0.2440
  581MOL0     O76563  10.385   2.362   0.210 -1.5051  0.0731  0.1032
  581MOL0     C76564  10.448   2.483   0.211  0.0945 -0.1815 -0.2654
  581MOL0     C76565  10.464   2.538   0.339  0.1362  0.2624 -0.2013
  581MOL0     C76566  10.535   2.654   0.359  0.5088 -0.5709  0.9437
  581MOL0     C76567  10.591   2.711   0.245 -0.4939  0.0582  0.2780
  581MOL0     O76568  10.665   2.819   0.265  0.2791 -0.1566 -0.8167
  581MOL0     C76569  10.617   2.934   0.190 -0.7961 -0.5981  0.3471
  581MOL0     C76570  10.689   3.064   0.220  0.0390 -0.8325  0.1604
  581MOL0     C76571  10.707   3.087   0.377 -1.7222 -0.1729  0.8616
  581MOL0     C76572  10.777   3.218   0.413  0.9089 -0.2348  0.9636
  581MOL0     C76573  10.930   3.211   0.395  0.1642  0.0615 -1.0008
  581MOL0     C76574  10.988   3.331   0.468  0.0521  0.3523 -0.3324
  581MOL0     C76575  11.111   3.398   0.409  1.5368  0.7939 -0.8204
  581MOL0     C76576  11.072   3.466   0.276  0.0236  0.0870  0.2785
  581MOL0     N76577  11.179   3.547   0.219  0.1795  0.4250 -0.2203
  581MOL0     C76578  11.236   3.523   0.099 -0.0999 -0.0074  0.3689
  581MOL0     C76579  11.321   3.629   0.084 -0.0391  0.7084  0.1329
  581MOL0     C76580  11.407   3.647  -0.039 -0.0392 -0.2356 -1.2229
  581MOL0     C76581  11.560   3.604  -0.042  0.2961 -0.4107  0.3286
  581MOL0     C76582  11.606   3.487   0.048 -0.7397  0.0078 -0.5153
  581MOL0     C76583  11.554   3.352  -0.006 -1.3472 -0.1518 -0.1168
  581MOL0     O76584  11.553   3.260   0.094 -0.2325 -1.0102  1.3523
  581MOL0     C76585  11.446   3.179   0.082  0.3260  0.4336 -0.6618
  581MOL0     C76586  11.358   3.175   0.180  1.0279  0.2856 -0.4004
  581MOL0     C76587  11.252   3.088   0.170  0.9573  0.5201 -1.3021
  581MOL0     C76588  11.232   2.991   0.069  0.5246  1.1541 -0.1191
  581MOL0     C76589  11.130   2.891   0.080 -0.4423  0.1421 -0.4525
  581MOL0     O76590  11.137   2.797  -0.009  0.4870 -0.2621  0.0834
  581MOL0     C76591  11.056   2.684   0.007 -0.2678 -0.7353  0.2641
  581MOL0     C76592  11.072   2.602   0.121 -0.5171  0.0527 -0.0895
  581MOL0     C76593  10.994   2.477   0.118 -0.5019  0.5869  0.1364
  581MOL0     C76594  10.919   2.436   0.007 -0.5376  0.6903 -0.6033
  581MOL0     O76595  10.860   2.316  -0.006 -0.3071 -0.4766 -0.4797
  581MOL0     C76596  10.807   2.276   0.124  0.5088 -0.1313 -0.7267
  581MOL0     C76597  10.728   2.163   0.105 -0.2015  0.9988 -0.6183
  581MOL0     C76598  10.794   2.040   0.048 -0.1321 -0.1949  1.4895
  581MOL0     C76599  10.702   1.924   0.060 -0.0840 -0.2410  0.1014
  581MOL0     C76600  10.571   1.928  -0.023 -0.2743 -0.1134 -0.3965
  581MOL0     C76601  10.562   1.902  -0.172 -0.5537 -0.3177  0.6011
  581MOL0     C76602  10.426   1.927  -0.239  0.4524 -0.0763 -0.6448
  581MOL0     C76603  10.414   2.060  -0.320  0.0349  0.8643 -0.4924
  581MOL0    Cl76604  10.542   2.066  -0.442 -0.2840  0.3675  0.2557
  581MOL0     C76605  10.907   2.528  -0.101  0.0996 -0.2517  0.6175
  581MOL0     C76606  10.979   2.650  -0.104 -0.5174 -0.1093 -0.9189
  581MOL0     O76607  11.052   2.888   0.177 -0.7458  0.0057 -0.1546
  581MOL0     C76608  11.327   2.998  -0.032  0.5847  0.2348 -0.5372
  581MOL0     C76609  11.438   3.079  -0.018 -0.5291  0.0863 -0.6784
  581MOL0     N76610  11.314   3.713   0.192  0.2718 -0.8526  0.2450
  581MOL0     N76611  11.235   3.647   0.274 -0.9075  0.1153  0.4607
  581MOL0     C76612  10.591   2.648   0.116  0.4095 -0.3882 -0.0748
  581MOL0     C76613  10.511   2.537   0.100  0.2224 -0.5377 -0.3756
  581MOL0     C76614  10.233   2.214   0.102  0.6547 -0.0091 -0.3910
  581MOL0     C76615  10.298   2.100   0.159 -0.1483  0.6372 -0.6956
  581MOL0     C76616  10.269   1.972   0.110 -0.1265  0.4571  0.4187
  581MOL0     C76617  10.168   1.951   0.024 -0.7258  0.3675  0.6553
  581MOL0     O76618  10.149   1.828  -0.039 -0.5945  0.4620 -0.4367
  581MOL0     C76619  10.119   1.707   0.033 -0.3574 -0.5217 -0.4426
  581MOL0     C76620   9.985   1.649  -0.017 -0.0127  0.2974  0.2124
  581MOL0     C76621   9.983   1.495  -0.020  0.8441  0.0763 -0.2531
  581MOL0     C76622   9.953   1.432   0.110  0.1858 -0.0144 -0.0221
  581MOL0     C76623  10.051   1.450   0.211 -0.0375  0.1157  0.6773
  581MOL0     C76624  10.137   1.463   0.291 -0.0220 -0.3268 -0.9383
  581MOL0     C76625  10.091   2.054  -0.020 -0.0840  0.4181 -0.7750
  581MOL0     C76626  10.125   2.189   0.009  0.1129  0.0774 -0.6079
  581MOL0     H76627  10.417   2.483   0.419 -0.8213 -2.2691 -2.3677
  581MOL0     H76628  10.552   2.702   0.455  0.6333  0.1877  0.5453
  581MOL0     H76629  10.513   2.947   0.223 -0.1977  1.2571  1.6057
  581MOL0     H76630  10.633   2.914   0.083 -2.6374 -0.2864 -0.0148
  581MOL0     H76631  10.637   3.147   0.172  1.1579 -1.5488 -2.4137
  581MOL0     H76632  10.786   3.050   0.172 -0.5718 -1.2870 -0.9616
  581MOL0     H76633  10.761   3.005   0.426 -0.8476  1.1112  2.1319
  581MOL0     H76634  10.610   3.077   0.427 -0.9284  1.2777  2.8159
  581MOL0     H76635  10.738   3.293   0.343 -2.6969 -1.4659  1.4641
  581MOL0     H76636  10.736   3.243   0.511 -1.6430  2.0903 -0.5390
  581MOL0     H76637  10.950   3.218   0.288  0.6165 -2.4563 -1.1290
  581MOL0     H76638  10.971   3.119   0.439  0.6670  0.9518  0.4906
  581MOL0     H76639  11.000   3.289   0.567  0.7579 -1.1862 -1.0426
  581MOL0     H76640  10.911   3.410   0.471 -0.8532 -0.3425 -2.7351
  581MOL0     H76641  11.152   3.465   0.486  0.6215  2.5992 -1.8500
  581MOL0     H76642  11.178   3.314   0.390 -2.0886 -2.8836  1.0605
  581MOL0     H76643  10.983   3.530   0.286  1.0392  1.4832  0.7061
  581MOL0     H76644  11.044   3.392   0.201 -2.4558  0.5033  0.6799
  581MOL0     H76645  11.206   3.443   0.032  0.8800 -2.3945  2.5715
  581MOL0     H76646  11.396   3.750  -0.075 -4.6031 -0.2992 -0.6328
  581MOL0     H76647  11.359   3.587  -0.116 -1.4084 -0.9300  0.1116
  581MOL0     H76648  11.611   3.694  -0.005 -2.8698  1.2854  0.9775
  581MOL0     H76649  11.581   3.588  -0.148  0.4650 -1.3922  0.5059
  581MOL0     H76650  11.713   3.471   0.062 -1.3597 -1.8513  3.2893
  581MOL0     H76651  11.572   3.508   0.150  2.3468  1.1940  0.3916
  581MOL0     H76652  11.623   3.309  -0.080 -2.2520 -2.8149  0.4853
  581MOL0     H76653  11.468   3.365  -0.073  0.6454 -2.4393 -3.4411
  581MOL0     H76654  11.362   3.244   0.264 -1.8299  2.3034 -1.7476
  581MOL0     H76655  11.176   3.100   0.247  2.1367  0.3333 -0.0919
  581MOL0     H76656  11.149   2.620   0.195 -1.0197 -0.7088  0.6365
  581MOL0     H76657  11.029   2.407   0.193 -0.3448 -0.7959 -1.1852
  581MOL0     H76658  10.742   2.359   0.155  0.7018  0.4603 -1.8366
  581MOL0     H76659  10.888   2.254   0.194 -1.0518 -1.4344  0.7705
  581MOL0     H76660  10.663   2.198   0.023  1.5296  2.0328 -1.6216
  581MOL0     H76661  10.668   2.146   0.195  0.5438 -1.2949 -0.5138
  581MOL0     H76662  10.889   2.017   0.098  0.6086 -0.6018 -0.0531
  581MOL0     H76663  10.819   2.048  -0.058  1.9808 -2.9570  1.6768
  581MOL0     H76664  10.744   1.826   0.038  2.4650  0.8894 -0.3883
  581MOL0     H76665  10.663   1.919   0.162  0.7188  0.3363  0.4442
  581MOL0     H76666  10.518   2.019   0.007 -3.5683 -1.2443 -2.3008
  581MOL0     H76667  10.518   1.840   0.014 -1.8917  0.6226 -0.8644
  581MOL0     H76668  10.593   1.798  -0.170  2.6956  0.5544  0.8605
  581MOL0     H76669  10.645   1.956  -0.219 -0.7511 -1.0703 -0.6728
  581MOL0     H76670  10.421   1.855  -0.321  2.3615 -0.2158 -0.6694
  581MOL0     H76671  10.349   1.913  -0.162  0.7866  1.0156 -0.0874
  581MOL0     H76672  10.425   2.151  -0.260  2.1421  1.9968 -2.4151
  581MOL0     H76673  10.316   2.063  -0.368  0.4563  0.5716 -1.3785
  581MOL0     H76674  10.856   2.483  -0.186 -0.3099 -0.1486  0.8055
  581MOL0     H76675  10.968   2.717  -0.189  0.9919  1.6706  0.2093
  581MOL0     H76676  11.310   2.939  -0.121 -0.6199 -0.2895  0.0204
  581MOL0     H76677  11.525   3.079  -0.083 -2.3122  0.8820 -3.2443
  581MOL0     H76678  10.651   2.690   0.036  1.2662  0.8887  1.1859
  581MOL0     H76679  10.494   2.501  -0.001 -1.2405 -0.6628 -0.1095
  581MOL0     H76680  10.367   2.102   0.243 -1.4486  0.7581  0.3909
  581MOL0     H76681  10.331   1.890   0.145  0.5709  0.4526 -0.7524
  581MOL0     H76682  10.115   1.713   0.142  0.5311 -3.6507 -0.1322
  581MOL0     H76683  10.204   1.647  -0.001 -0.0587 -0.4499  0.1496
  581MOL0     H76684   9.899   1.683   0.041 -0.9610  3.2694 -2.6194
  581MOL0     H76685   9.966   1.686  -0.118  3.0138 -0.8683 -0.8893
  581MOL0     H76686  10.078   1.452  -0.055  1.4651 -0.1702  1.5997
  581MOL0     H76687   9.900   1.453  -0.078  0.3833 -0.6181  0.8823
  581MOL0     H76688   9.859   1.483   0.132 -1.1385 -2.4807  0.3865
  581MOL0     H76689   9.924   1.327   0.101 -1.5237  0.5214 -1.0947
  581MOL0     H76690  10.212   1.465   0.368 -0.1280 -2.5859 -0.7126
  581MOL0     H76691  10.015   2.014  -0.086  2.0612  0.2311 -3.2758
  581MOL0     H76692  10.070   2.280  -0.013  2.6498  2.0387  0.5474
  582MOL0     O76693   7.608   5.412   0.145  0.3505 -1.1426  0.3073
  582MOL0     C76694   7.514   5.347   0.102 -0.5449 -0.4264 -0.4796
  582MOL0     O76695   7.527   5.214   0.061  0.0400 -0.2538  0.2670
  582MOL0     C76696   7.652   5.169   0.032  0.0538 -1.6172  0.1124
  582MOL0     C76697   7.696   5.062   0.101  0.5712 -0.4196  0.1760
  582MOL0     C76698   7.817   5.001   0.059 -0.1728 -0.2158 -0.5595
  582MOL0     C76699   7.899   5.060  -0.044 -0.1197  0.1390 -0.2699
  582MOL0     O76700   8.008   5.001  -0.110  0.7451 -0.3213 -0.0094
  582MOL0     C76701   8.036   4.859  -0.080  0.2143 -0.3872 -1.1751
  582MOL0     C76702   8.125   4.782  -0.183  0.4380  0.3963 -1.0017
  582MOL0     C76703   8.260   4.841  -0.228 -0.0215  0.0599 -1.0984
  582MOL0     C76704   8.351   4.865  -0.101 -0.2718  0.4114  0.5355
  582MOL0     C76705   8.501   4.880  -0.140  0.6815  0.2159 -1.2991
  582MOL0     C76706   8.573   4.765  -0.207  0.1975 -0.0907  0.2283
  582MOL0     C76707   8.721   4.788  -0.241 -0.7206  0.5773  1.5989
  582MOL0     C76708   8.761   4.691  -0.362  0.5861  0.2970 -0.1431
  582MOL0     N76709   8.882   4.723  -0.432  0.1260 -0.8938 -0.2500
  582MOL0     C76710   8.971   4.637  -0.484  0.2669 -0.0652 -0.3154
  582MOL0     C76711   9.088   4.702  -0.522 -0.2090  0.1712 -0.6834
  582MOL0     C76712   9.227   4.642  -0.549  0.0883  0.2227 -0.4248
  582MOL0     C76713   9.284   4.663  -0.687 -0.2039 -0.2037 -0.1423
  582MOL0     C76714   9.408   4.577  -0.708  0.6039 -0.1823 -0.0701
  582MOL0     C76715   9.447   4.534  -0.845  0.3336  0.0304  1.4434
  582MOL0     O76716   9.488   4.634  -0.939  0.2238  0.0346 -0.4477
  582MOL0     C76717   9.609   4.684  -0.937  0.5243 -0.5851  0.1323
  582MOL0     C76718   9.691   4.709  -0.828 -0.5214  0.4140  0.8054
  582MOL0     C76719   9.816   4.771  -0.852 -0.2883 -0.8723  0.1333
  582MOL0     C76720   9.862   4.810  -0.983  0.7531 -0.0340 -0.0258
  582MOL0     C76721   9.987   4.870  -0.994  0.2686 -0.5250 -0.2389
  582MOL0     O76722  10.052   4.894  -0.879  0.1464  0.8146 -0.5598
  582MOL0     C76723  10.184   4.943  -0.873 -0.0059 -0.3504  0.0582
  582MOL0     C76724  10.224   5.001  -0.754 -0.1302  0.0909 -0.2013
  582MOL0     C76725  10.360   5.037  -0.728  1.2041  1.1631  0.0154
  582MOL0     C76726  10.454   5.029  -0.832 -0.3153 -0.0850  0.2223
  582MOL0     O76727  10.566   5.100  -0.815  0.3208 -0.5950 -0.2326
  582MOL0     C76728  10.610   5.179  -0.919  0.2105  0.4341 -0.9326
  582MOL0     C76729  10.753   5.214  -0.887 -0.4773 -0.4768 -0.0559
  582MOL0     C76730  10.843   5.247  -1.007 -0.1728 -0.5202 -0.4147
  582MOL0     C76731  10.790   5.368  -1.081  0.2234 -0.0876 -0.1366
  582MOL0     C76732  10.898   5.390  -1.196  0.7663 -0.0460  0.4774
  582MOL0     C76733  10.959   5.536  -1.197  0.0611  0.1781  0.3764
  582MOL0     C76734  11.070   5.552  -1.310 -0.0407 -0.5193  0.3535
  582MOL0     C76735  11.099   5.705  -1.325 -0.3233 -0.1425  0.9148
  582MOL0    Cl76736  11.226   5.720  -1.445 -0.3334  0.4439 -0.1381
  582MOL0     C76737  10.409   4.971  -0.956 -0.2948  0.1540 -0.6617
  582MOL0     C76738  10.281   4.916  -0.968  0.6333  0.1718  0.3263
  582MOL0     O76739  10.011   4.928  -1.104 -0.3841 -0.3312 -0.5775
  582MOL0     C76740   9.773   4.781  -1.087  0.4699  0.4256 -0.4321
  582MOL0     C76741   9.656   4.709  -1.070  0.8735  0.2093 -0.2265
  582MOL0     N76742   9.066   4.836  -0.499  0.0843 -0.9122  0.7345
  582MOL0     N76743   8.940   4.846  -0.451 -0.0841 -1.1021  0.3093
  582MOL0     C76744   7.860   5.185  -0.101 -0.4093  0.1816 -0.2557
  582MOL0     C76745   7.730   5.240  -0.069  0.7258  0.1368  0.5921
  582MOL0     C76746   7.382   5.403   0.097  0.4528  0.2780  0.4563
  582MOL0     C76747   7.364   5.546   0.116 -0.1983 -0.2929  0.5133
  582MOL0     C76748   7.239   5.608   0.130 -0.3684  0.3186  0.0452
  582MOL0     C76749   7.125   5.522   0.114  0.1796  0.0276 -0.1975
  582MOL0     O76750   6.995   5.574   0.104 -0.8099  0.0069 -0.6181
  582MOL0     C76751   6.965   5.721   0.098 -0.5180  0.0233 -0.1052
  582MOL0     C76752   6.976   5.768  -0.044 -0.3493  0.1021  0.0781
  582MOL0     C76753   6.959   5.925  -0.047  0.3889  0.7818 -0.3035
  582MOL0     C76754   6.962   5.974  -0.191  0.1136  0.2922  0.1864
  582MOL0     C76755   7.085   5.935  -0.257 -0.0412  0.4054  0.3294
  582MOL0     C76756   7.193   5.919  -0.300 -0.6177 -0.5613 -0.1602
  582MOL0     C76757   7.135   5.386   0.119 -0.5321  0.1251 -1.5327
  582MOL0     C76758   7.261   5.320   0.095 -0.1092  0.4206  0.3536
  582MOL0     H76759   7.638   5.028   0.186  1.8737  0.4514  1.4504
  582MOL0     H76760   7.840   4.900   0.092 -1.7972 -0.4037  0.1132
  582MOL0     H76761   7.945   4.802  -0.059  1.1776 -2.6355 -2.7250
  582MOL0     H76762   8.081   4.854   0.020 -2.8007 -1.7115  0.2628
  582MOL0     H76763   8.064   4.762  -0.272 -0.0250 -0.8123 -0.4440
  582MOL0     H76764   8.132   4.683  -0.137  0.5832  1.8956  2.4330
  582MOL0     H76765   8.240   4.939  -0.272  1.2658 -0.0782 -2.0641
  582MOL0     H76766   8.306   4.779  -0.306  3.1372  0.6078  0.1550
  582MOL0     H76767   8.313   4.959  -0.061  0.2283 -0.0274  2.1297
  582MOL0     H76768   8.333   4.797  -0.017  1.9143  1.4423  1.9327
  582MOL0     H76769   8.564   4.901  -0.052 -0.2663 -0.1346 -0.5120
  582MOL0     H76770   8.501   4.969  -0.203  0.3156  2.1195  1.1859
  582MOL0     H76771   8.521   4.736  -0.299  0.0416 -2.5685  1.0152
  582MOL0     H76772   8.572   4.670  -0.152 -1.8905 -0.9520 -1.1739
  582MOL0     H76773   8.726   4.891  -0.279  1.9962 -0.8324 -2.4809
  582MOL0     H76774   8.782   4.774  -0.152 -1.7465 -0.9935  2.0965
  582MOL0     H76775   8.682   4.681  -0.438  0.4465  1.8098 -0.2230
  582MOL0     H76776   8.762   4.589  -0.322 -0.9373  0.9906  1.8558
  582MOL0     H76777   8.958   4.530  -0.481 -1.0248  0.0063 -1.7557
  582MOL0     H76778   9.211   4.535  -0.532  2.8589 -1.1480 -4.8450
  582MOL0     H76779   9.293   4.694  -0.480  0.0200 -0.3253  0.0613
  582MOL0     H76780   9.322   4.762  -0.711 -1.1505  0.2266  0.0832
  582MOL0     H76781   9.201   4.632  -0.752 -0.9491  0.7021  0.3521
  582MOL0     H76782   9.487   4.622  -0.646  0.3072  2.3450 -1.4108
  582MOL0     H76783   9.376   4.480  -0.668  0.1055  0.2389  0.5725
  582MOL0     H76784   9.360   4.501  -0.902 -0.3196  2.7097  0.7305
  582MOL0     H76785   9.523   4.455  -0.847 -0.5609 -0.9081 -2.0912
  582MOL0     H76786   9.669   4.671  -0.728  2.1355 -1.6535  0.7018
  582MOL0     H76787   9.891   4.775  -0.773 -0.6963 -1.3614  0.5474
  582MOL0     H76788  10.153   5.028  -0.677  1.7277 -1.2362  2.1229
  582MOL0     H76789  10.384   5.103  -0.645  0.3865  0.9008  0.4671
  582MOL0     H76790  10.548   5.269  -0.930  3.2273  2.9986  1.0897
  582MOL0     H76791  10.616   5.115  -1.007 -2.5672 -1.7066  0.3237
  582MOL0     H76792  10.802   5.144  -0.818 -3.7943 -2.8686  0.1501
  582MOL0     H76793  10.753   5.308  -0.830  0.3886  0.7260 -1.9583
  582MOL0     H76794  10.850   5.155  -1.067 -0.6032 -1.5090  0.9882
  582MOL0     H76795  10.941   5.278  -0.970 -0.8347  1.4333 -0.2151
  582MOL0     H76796  10.683   5.359  -1.103  0.4366 -2.5294 -0.3958
  582MOL0     H76797  10.794   5.456  -1.015 -0.8008  2.9662 -3.7831
  582MOL0     H76798  10.847   5.387  -1.293  3.0047  2.1227 -0.8806
  582MOL0     H76799  10.973   5.311  -1.201  2.7351  1.7358  0.5390
  582MOL0     H76800  11.011   5.561  -1.105 -1.2296  0.4417  1.0525
  582MOL0     H76801  10.872   5.602  -1.203  0.0844  0.8042  4.3664
  582MOL0     H76802  11.166   5.504  -1.288  0.0488 -1.1106 -1.2040
  582MOL0     H76803  11.037   5.524  -1.410  1.4484  0.9046 -0.5851
  582MOL0     H76804  11.138   5.741  -1.229  0.7706 -0.0689  0.4619
  582MOL0     H76805  11.011   5.767  -1.342 -2.1668 -2.5460  1.1599
  582MOL0     H76806  10.489   4.972  -1.029  2.3808 -0.8075  2.0618
  582MOL0     H76807  10.270   4.841  -1.046  0.1149 -0.2554  0.7983
  582MOL0     H76808   9.799   4.809  -1.189  0.3087  2.9295  0.1714
  582MOL0     H76809   9.584   4.680  -1.145 -1.0211  2.7301  0.4858
  582MOL0     H76810   7.919   5.236  -0.176  0.5896  1.0794  1.1103
  582MOL0     H76811   7.688   5.327  -0.118  0.5210  0.2664  0.9973
  582MOL0     H76812   7.458   5.599   0.108  0.8933 -2.3810 -2.4103
  582MOL0     H76813   7.242   5.716   0.131 -1.0473  0.3873 -1.5633
  582MOL0     H76814   7.030   5.777   0.166 -1.1315  1.6084 -0.7976
  582MOL0     H76815   6.863   5.742   0.130 -1.7948 -1.9291 -2.5499
  582MOL0     H76816   7.068   5.725  -0.084 -0.9438 -1.4089  0.2615
  582MOL0     H76817   6.892   5.732  -0.105 -1.0319  2.3951 -0.4262
  582MOL0     H76818   7.039   5.973   0.010 -0.0725  0.1168  0.9666
  582MOL0     H76819   6.859   5.948  -0.009  0.6731  2.6845 -0.6383
  582MOL0     H76820   6.880   5.922  -0.241 -0.0425  0.9752 -0.2874
  582MOL0     H76821   6.948   6.083  -0.187 -1.1044  0.1177  1.1685
  582MOL0     H76822   7.286   5.903  -0.350 -1.6233 -1.7052 -1.7775
  582MOL0     H76823   7.038   5.337   0.121 -1.2618  1.5563  0.2591
  582MOL0     H76824   7.276   5.213   0.085  0.2760  0.5629 -0.7337
  583MOL0     O76825   9.227   3.074   8.479  0.2299  0.3543  0.3059
  583MOL0     C76826   9.169   3.181   8.475 -0.2124 -1.1405 -0.8695
  583MOL0     O76827   9.135   3.256   8.582 -1.0712 -0.5487 -0.2146
  583MOL0     C76828   9.175   3.236   8.712 -0.0635  0.5142 -0.3783
  583MOL0     C76829   9.174   3.356   8.802  0.1458  0.1303  0.1920
  583MOL0     C76830   9.213   3.333   8.938  0.9492 -0.8267 -0.0390
  583MOL0     C76831   9.256   3.211   8.987 -0.3502  0.3755 -0.0298
  583MOL0     O76832   9.281   3.206   9.121 -0.4188  1.0785  0.4094
  583MOL0     C76833   9.385   3.120   9.157 -0.7366 -0.4505 -0.8410
  583MOL0     C76834   9.431   3.139   9.303  0.2294 -0.8558  0.8115
  583MOL0     C76835   9.481   3.001   9.353  0.0837 -0.3150 -0.0302
  583MOL0     C76836   9.510   3.012   9.501 -0.2412 -1.3439 -1.0765
  583MOL0     C76837   9.562   2.888   9.572  0.9750 -0.0316  0.7465
  583MOL0     C76838   9.492   2.759   9.535 -0.1386  0.1364 -0.4572
  583MOL0     C76839   9.572   2.648   9.607  0.1298  0.2392  0.4358
  583MOL0     C76840   9.510   2.507   9.586  0.4733  0.2844 -0.5534
  583MOL0     N76841   9.368   2.497   9.616  0.1744 -1.4854  0.7632
  583MOL0     C76842   9.321   2.513   9.744  0.2818 -1.1307  1.1785
  583MOL0     C76843   9.184   2.498   9.716 -0.9342 -0.9548 -0.4750
  583MOL0     C76844   9.064   2.506   9.819 -0.4555 -0.3187 -0.0626
  583MOL0     C76845   8.923   2.508   9.770  0.1149  0.5488 -0.4130
  583MOL0     C76846   8.890   2.636   9.696 -0.4165  0.0593  0.3174
  583MOL0     C76847   8.883   2.754   9.793 -1.1480 -0.4317 -0.2050
  583MOL0     O76848   8.789   2.741   9.895 -0.0244  0.0519 -0.2121
  583MOL0     C76849   8.768   2.826  10.001 -0.7037  0.4915  0.0504
  583MOL0     C76850   8.814   2.957   9.992  0.1960 -0.0846 -0.2825
  583MOL0     C76851   8.782   3.040  10.096  0.3863 -0.4322 -0.3719
  583MOL0     C76852   8.702   3.000  10.212  0.5186  0.5429 -0.2545
  583MOL0     C76853   8.676   3.090  10.320  0.5106 -0.4710  0.6775
  583MOL0     O76854   8.761   3.190  10.333 -0.7850  0.0616 -0.2054
  583MOL0     C76855   8.742   3.283  10.430  0.2562  0.2752 -0.6392
  583MOL0     C76856   8.827   3.308  10.540  0.3228 -0.3163  0.0824
  583MOL0     C76857   8.821   3.422  10.623  0.4408  0.0064 -0.4097
  583MOL0     C76858   8.720   3.514  10.605  0.0002  1.5502  1.6688
  583MOL0     O76859   8.700   3.599  10.703 -0.6947 -0.6575 -0.1301
  583MOL0     C76860   8.688   3.729  10.658  0.4637 -0.2402 -0.7723
  583MOL0     C76861   8.820   3.789  10.604  0.2165  0.0443 -0.4531
  583MOL0     C76862   8.799   3.927  10.562 -0.1628 -0.7046  0.0904
  583MOL0     C76863   8.939   4.006  10.555  0.5338  0.0141  0.5636
  583MOL0     C76864   9.024   3.952  10.444 -0.4183  0.7776  0.0654
  583MOL0     C76865   8.958   3.943  10.305 -0.4901  0.7567 -0.4905
  583MOL0     C76866   9.060   3.976  10.189 -0.1957 -0.7309  0.1254
  583MOL0     C76867   9.104   4.130  10.167 -0.3475  0.3443 -0.0162
  583MOL0    Cl76868   8.947   4.219  10.137  0.2026 -0.3072 -0.8125
  583MOL0     C76869   8.631   3.489  10.494  1.2765  0.0133 -0.4249
  583MOL0     C76870   8.651   3.384  10.405  0.7204 -0.4499 -1.0774
  583MOL0     O76871   8.574   3.074  10.386 -0.4578  0.5096 -0.0067
  583MOL0     C76872   8.658   2.866  10.218  0.4071 -0.0724  0.1295
  583MOL0     C76873   8.696   2.781  10.111  0.3615  0.2507  0.7727
  583MOL0     N76874   9.159   2.479   9.581  0.3291 -0.2712 -0.0794
  583MOL0     N76875   9.276   2.468   9.523  1.0557 -0.8148 -0.3810
  583MOL0     C76876   9.252   3.109   8.899 -0.2088  0.9959 -0.2007
  583MOL0     C76877   9.221   3.120   8.764  0.7691 -0.1501 -0.5839
  583MOL0     C76878   9.158   3.248   8.334  0.3095  0.2792  0.0651
  583MOL0     C76879   9.132   3.379   8.332  0.6819 -1.3202 -0.3971
  583MOL0     C76880   9.110   3.438   8.205  0.0954 -0.8817  0.2966
  583MOL0     C76881   9.133   3.377   8.081  0.5278  1.1014 -0.0094
  583MOL0     O76882   9.144   3.452   7.967  0.3946 -0.3446 -0.4667
  583MOL0     C76883   9.183   3.372   7.853  0.0810  0.3137 -0.1540
  583MOL0     C76884   9.161   3.481   7.747  0.1725  0.7406  1.0166
  583MOL0     C76885   9.204   3.454   7.603 -0.8777 -0.1204 -0.3796
  583MOL0     C76886   9.174   3.324   7.540 -0.4914  1.2634  0.7026
  583MOL0     C76887   9.182   3.348   7.404 -0.2301 -0.4040  0.7667
  583MOL0     C76888   9.214   3.393   7.300 -0.2278  0.6076  0.8717
  583MOL0     C76889   9.171   3.235   8.093  0.2634 -0.0788 -0.7624
  583MOL0     C76890   9.159   3.172   8.219 -1.1479  0.2037  0.8745
  583MOL0     H76891   9.147   3.461   8.795  1.1427  0.7770  3.9456
  583MOL0     H76892   9.211   3.414   9.011  0.2602 -0.4273 -0.4892
  583MOL0     H76893   9.472   3.130   9.092  1.2494 -1.0107  1.5759
  583MOL0     H76894   9.335   3.024   9.141 -2.7468  0.6117 -1.2527
  583MOL0     H76895   9.350   3.181   9.363  1.4268 -0.2410  2.0582
  583MOL0     H76896   9.506   3.218   9.302 -1.3817  0.7499  1.4049
  583MOL0     H76897   9.567   2.966   9.294  0.7461  2.3350 -0.7908
  583MOL0     H76898   9.397   2.934   9.337 -0.7819  0.1602  2.1971
  583MOL0     H76899   9.600   3.074   9.510 -2.1035  1.3551  0.5998
  583MOL0     H76900   9.422   3.059   9.546  1.1386  0.7849 -0.4131
  583MOL0     H76901   9.556   2.904   9.680 -0.9401 -1.6296  0.9286
  583MOL0     H76902   9.667   2.876   9.543  0.1087  0.3490 -3.1203
  583MOL0     H76903   9.494   2.745   9.427  2.4741  0.2898 -0.4873
  583MOL0     H76904   9.387   2.757   9.567 -1.3124 -0.3138 -3.9207
  583MOL0     H76905   9.674   2.649   9.567  1.6633  0.8756  3.9303
  583MOL0     H76906   9.587   2.666   9.714  2.2777 -1.2684  0.4450
  583MOL0     H76907   9.556   2.431   9.650  1.7570  1.5854  0.1100
  583MOL0     H76908   9.518   2.479   9.481  0.0120  1.6497 -0.9705
  583MOL0     H76909   9.372   2.539   9.836 -0.7615  0.9195  1.2351
  583MOL0     H76910   9.075   2.587   9.892 -1.0234  0.9935 -1.3864
  583MOL0     H76911   9.072   2.416   9.881 -0.6415 -0.5930 -0.4349
  583MOL0     H76912   8.854   2.494   9.854  0.7056  2.8324  0.5286
  583MOL0     H76913   8.914   2.434   9.690  3.4317 -1.4684  0.8861
  583MOL0     H76914   8.963   2.652   9.617 -0.3231 -1.0627  0.1648
  583MOL0     H76915   8.792   2.634   9.647 -1.1800 -1.6530  1.7829
  583MOL0     H76916   8.851   2.845   9.740 -0.9815  1.6622  3.0202
  583MOL0     H76917   8.979   2.768   9.843 -1.3967 -1.2916  0.5312
  583MOL0     H76918   8.867   2.984   9.901  1.5802 -3.3597 -0.5729
  583MOL0     H76919   8.812   3.143  10.086 -2.0977  0.6714  2.0434
  583MOL0     H76920   8.909   3.239  10.558 -1.6185 -2.7912 -0.0080
  583MOL0     H76921   8.894   3.422  10.703  1.0664 -0.5682 -0.9767
  583MOL0     H76922   8.648   3.784  10.744 -0.9790 -2.3445 -0.0266
  583MOL0     H76923   8.610   3.727  10.581  1.1668  0.2558 -1.5153
  583MOL0     H76924   8.860   3.718  10.531  1.3602 -0.6569  0.8072
  583MOL0     H76925   8.887   3.781  10.690 -0.6255 -1.2839  0.1231
  583MOL0     H76926   8.742   3.984  10.636 -0.1519 -2.9110  1.9161
  583MOL0     H76927   8.729   3.945  10.479 -1.1122 -0.9883  0.8176
  583MOL0     H76928   8.930   4.114  10.541  2.1842 -0.1531 -2.7598
  583MOL0     H76929   9.001   3.994  10.645  1.2047  2.0384  0.4345
  583MOL0     H76930   9.057   3.851  10.468 -0.8642  0.4637 -0.6158
  583MOL0     H76931   9.117   4.010  10.442  0.7650 -0.7576  3.2844
  583MOL0     H76932   8.874   4.013  10.301 -1.1639  0.0615  0.6595
  583MOL0     H76933   8.917   3.843  10.288  0.3336  0.3707 -0.2565
  583MOL0     H76934   9.150   3.918  10.215 -1.4429 -2.2713  1.1813
  583MOL0     H76935   9.016   3.935  10.097 -1.9035 -2.3954  1.5913
  583MOL0     H76936   9.168   4.126  10.079 -2.1642  0.8522 -1.4147
  583MOL0     H76937   9.147   4.181  10.254 -1.2692  1.4442 -0.1775
  583MOL0     H76938   8.532   3.533  10.482  0.3793 -0.9524  2.5406
  583MOL0     H76939   8.591   3.373  10.315 -2.7583 -3.2395  1.3026
  583MOL0     H76940   8.587   2.826  10.290 -0.2221 -2.8891 -1.8744
  583MOL0     H76941   8.657   2.681  10.103  0.9508 -0.0112  1.1167
  583MOL0     H76942   9.256   3.005   8.930 -1.4705  0.5336 -1.4819
  583MOL0     H76943   9.207   3.025   8.713 -3.1007 -0.6788  1.1508
  583MOL0     H76944   9.101   3.439   8.417  0.4762  0.0020 -1.3760
  583MOL0     H76945   9.059   3.534   8.207 -0.5472 -1.1565 -1.3239
  583MOL0     H76946   9.118   3.288   7.830 -2.1412  1.8440  0.2377
  583MOL0     H76947   9.289   3.345   7.862  0.1533  1.3963  4.6211
  583MOL0     H76948   9.055   3.508   7.741 -0.4042 -1.5107  0.3701
  583MOL0     H76949   9.219   3.570   7.772 -2.8332  3.2462 -0.2791
  583MOL0     H76950   9.311   3.476   7.595 -1.2809  2.2496  0.0153
  583MOL0     H76951   9.172   3.539   7.543  1.0637  0.9720  0.0278
  583MOL0     H76952   9.261   3.263   7.566  3.7458  5.3603 -2.1586
  583MOL0     H76953   9.085   3.268   7.570 -0.6750  0.6579 -0.8864
  583MOL0     H76954   9.252   3.460   7.226 -0.9867  3.1338  2.6280
  583MOL0     H76955   9.202   3.184   8.002  2.8531 -0.6522  0.3544
  583MOL0     H76956   9.212   3.078   8.222  3.3242  2.2945 -1.8852
  584MOL0     O76957  11.436   6.889   6.552 -0.2414 -0.6075  0.2814
  584MOL0     C76958  11.544   6.872   6.610 -0.3425 -0.0231  0.6051
  584MOL0     O76959  11.619   6.754   6.605  0.3442 -0.2486  0.6491
  584MOL0     C76960  11.594   6.652   6.519  0.1224 -0.4725  0.2838
  584MOL0     C76961  11.585   6.668   6.380  0.3524  0.2555  0.9189
  584MOL0     C76962  11.542   6.557   6.302 -0.0306  0.6933 -0.2581
  584MOL0     C76963  11.516   6.435   6.361  0.4283  0.2427  0.6550
  584MOL0     O76964  11.461   6.337   6.285 -0.2174  0.6438 -0.5734
  584MOL0     C76965  11.542   6.265   6.188 -0.1003  1.0240 -0.2622
  584MOL0     C76966  11.670   6.201   6.248  0.0931 -0.4061 -0.4148
  584MOL0     C76967  11.748   6.137   6.129  0.3721  0.5951  0.2558
  584MOL0     C76968  11.889   6.063   6.160  0.6416  0.5559  0.2728
  584MOL0     C76969  11.972   6.020   6.039 -0.3439  0.8250  1.2780
  584MOL0     C76970  11.910   5.914   5.956  1.0294  0.1669  0.4305
  584MOL0     C76971  11.876   5.787   6.039 -0.3896 -0.8935 -0.3844
  584MOL0     C76972  11.836   5.667   5.951 -0.9290  0.4908  0.4089
  584MOL0     N76973  11.733   5.698   5.846 -0.1592  1.0605  0.2295
  584MOL0     C76974  11.606   5.755   5.886 -0.6228  0.4050 -0.1979
  584MOL0     C76975  11.550   5.782   5.772  0.2974  0.2930 -0.9778
  584MOL0     C76976  11.417   5.847   5.754 -0.4055  0.7001  0.6379
  584MOL0     C76977  11.370   5.925   5.871  0.6286 -1.0573 -0.3446
  584MOL0     C76978  11.272   6.031   5.826 -0.0436 -0.3930  0.5428
  584MOL0     C76979  11.260   6.154   5.919 -0.5432  0.2053  0.1373
  584MOL0     O76980  11.166   6.245   5.857  0.5466 -0.3447  0.3621
  584MOL0     C76981  11.157   6.372   5.912 -0.1631  0.4815  0.0973
  584MOL0     C76982  11.074   6.471   5.847  0.3009  0.2305 -0.1626
  584MOL0     C76983  11.053   6.599   5.898 -0.4083  0.4107 -0.0857
  584MOL0     C76984  11.112   6.636   6.017  0.5739  0.4749  0.3052
  584MOL0     C76985  11.071   6.768   6.086 -0.4904  0.7587  0.1680
  584MOL0     O76986  11.107   6.775   6.217 -0.2191 -0.7524  0.0081
  584MOL0     C76987  11.049   6.878   6.293 -0.9145 -1.4367 -0.0755
  584MOL0     C76988  10.914   6.928   6.273 -0.2086  0.7544  0.2387
  584MOL0     C76989  10.869   7.026   6.364  0.6624  0.3138 -0.6959
  584MOL0     C76990  10.947   7.063   6.477  0.6686 -0.1121  0.3782
  584MOL0     O76991  10.915   7.155   6.570  0.1518  0.8233  0.1119
  584MOL0     C76992  10.788   7.150   6.631  0.6309  0.2250 -0.3988
  584MOL0     C76993  10.796   7.251   6.747  0.2437 -0.0528  0.3294
  584MOL0     C76994  10.866   7.386   6.720 -0.3453  0.0186  0.9445
  584MOL0     C76995  10.876   7.490   6.835 -0.0961  0.5099  0.4445
  584MOL0     C76996  10.955   7.619   6.772 -0.6497 -0.1586 -0.5432
  584MOL0     C76997  10.977   7.728   6.877  0.0018 -1.0946 -0.4373
  584MOL0     C76998  11.051   7.695   7.001 -0.7205  0.6148  0.6911
  584MOL0     C76999  11.047   7.808   7.111  0.5984 -0.5624  0.1273
  584MOL0    Cl77000  11.113   7.955   7.038 -0.6006 -0.1999  0.4048
  584MOL0     C77001  11.077   7.020   6.489  0.7478 -0.1822  0.3124
  584MOL0     C77002  11.120   6.927   6.399  0.2953 -0.0798 -0.3315
  584MOL0     O77003  11.015   6.854   6.013 -0.0417  0.8866  0.2414
  584MOL0     C77004  11.204   6.554   6.080 -0.3116  0.2145 -0.8163
  584MOL0     C77005  11.227   6.422   6.028  0.1016 -0.5652 -0.2287
  584MOL0     N77006  11.626   5.733   5.665  0.4789 -0.5919 -0.6132
  584MOL0     N77007  11.739   5.685   5.713 -0.3935 -0.1915 -0.9850
  584MOL0     C77008  11.536   6.417   6.494 -0.7428  0.9481 -0.4260
  584MOL0     C77009  11.569   6.526   6.573  1.0922 -0.6693  0.7614
  584MOL0     C77010  11.599   6.987   6.686 -0.2002  0.0000 -0.3446
  584MOL0     C77011  11.723   6.974   6.754 -0.9225  0.1218  0.0089
  584MOL0     C77012  11.781   7.080   6.823  0.0276  0.9271  0.3206
  584MOL0     C77013  11.717   7.211   6.812 -0.3908 -0.0635 -0.8740
  584MOL0     O77014  11.806   7.309   6.864  0.2698  0.1212  0.0827
  584MOL0     C77015  11.790   7.439   6.831  0.0572  0.1274  0.1610
  584MOL0     C77016  11.905   7.540   6.860 -1.7571 -0.7275  0.3917
  584MOL0     C77017  12.045   7.505   6.811 -1.0181  1.6998 -1.0484
  584MOL0     C77018  12.154   7.584   6.883  0.5761 -0.7036  0.6999
  584MOL0     C77019  12.125   7.723   6.841 -0.1124 -0.3502 -0.5098
  584MOL0     C77020  12.107   7.835   6.786 -0.2361 -0.3328 -0.4412
  584MOL0     C77021  11.592   7.221   6.741 -0.2496 -0.2348  0.5893
  584MOL0     C77022  11.530   7.112   6.685 -0.3925 -0.1267  1.2437
  584MOL0     H77023  11.600   6.764   6.333 -2.2975  1.4995  2.4104
  584MOL0     H77024  11.529   6.588   6.199  0.0553  1.4773 -0.0434
  584MOL0     H77025  11.568   6.337   6.110  2.9224  2.3974  1.8035
  584MOL0     H77026  11.475   6.192   6.141  0.7832  0.5159 -0.7518
  584MOL0     H77027  11.648   6.131   6.328  1.5286  1.0763  1.3826
  584MOL0     H77028  11.736   6.275   6.296  1.2649  0.6630 -3.4363
  584MOL0     H77029  11.770   6.216   6.056  2.7763 -1.1054 -1.0322
  584MOL0     H77030  11.676   6.067   6.085 -2.6954  1.2012  3.8410
  584MOL0     H77031  11.956   6.132   6.212  0.5515  0.7258  0.1676
  584MOL0     H77032  11.874   5.974   6.221  0.5385 -2.7427 -4.1203
  584MOL0     H77033  12.072   5.993   6.074 -0.0044  1.1745  0.5886
  584MOL0     H77034  11.982   6.111   5.979 -0.7992  1.5303  2.2371
  584MOL0     H77035  11.986   5.890   5.881 -1.0510 -1.9489 -1.1493
  584MOL0     H77036  11.812   5.940   5.914 -0.3023 -3.9560  0.5400
  584MOL0     H77037  11.967   5.751   6.086  0.3655  0.6334 -0.5957
  584MOL0     H77038  11.794   5.820   6.104 -0.0958  1.3045 -1.0150
  584MOL0     H77039  11.794   5.581   6.004 -0.6546 -0.1577 -0.3982
  584MOL0     H77040  11.921   5.621   5.900  1.3033 -1.4227  5.2521
  584MOL0     H77041  11.572   5.784   5.985  0.2791  1.2848 -0.1231
  584MOL0     H77042  11.336   5.777   5.730  1.6484 -0.7588 -2.8297
  584MOL0     H77043  11.430   5.912   5.666 -0.8106 -0.1957 -0.0967
  584MOL0     H77044  11.460   5.963   5.920 -0.0788 -0.2011  0.3404
  584MOL0     H77045  11.327   5.855   5.944 -2.8552  1.7136  0.5606
  584MOL0     H77046  11.311   6.064   5.730 -1.9301 -0.0044 -0.1304
  584MOL0     H77047  11.177   5.977   5.817  0.5660 -1.4261  0.1099
  584MOL0     H77048  11.356   6.204   5.937 -0.1937 -1.0059  1.8808
  584MOL0     H77049  11.219   6.133   6.018  0.1829 -0.3996  0.3234
  584MOL0     H77050  11.029   6.434   5.756  0.9095  4.3500 -2.3817
  584MOL0     H77051  10.989   6.672   5.850  0.7395  2.7249  1.7111
  584MOL0     H77052  10.852   6.894   6.191 -1.6792 -0.2295  1.6874
  584MOL0     H77053  10.769   7.065   6.347  0.0248 -1.9471 -2.6981
  584MOL0     H77054  10.756   7.052   6.666 -2.3487  0.7578 -1.3350
  584MOL0     H77055  10.715   7.192   6.560  0.6765  1.3417  0.1834
  584MOL0     H77056  10.851   7.193   6.822 -0.7694 -0.9464  0.4115
  584MOL0     H77057  10.692   7.271   6.776 -1.2335 -1.9952 -3.0422
  584MOL0     H77058  10.820   7.428   6.630  0.6391 -3.3553 -1.3110
  584MOL0     H77059  10.969   7.369   6.688 -0.4321  0.0090  0.6615
  584MOL0     H77060  10.773   7.504   6.872  0.5191  1.2442  2.0004
  584MOL0     H77061  10.925   7.454   6.926  1.4311  1.9781  0.2523
  584MOL0     H77062  10.887   7.665   6.700 -1.7882 -2.3169 -0.9433
  584MOL0     H77063  11.052   7.598   6.726 -0.3774  1.1368 -0.5935
  584MOL0     H77064  10.877   7.754   6.912  0.4442 -2.1238  1.7610
  584MOL0     H77065  11.022   7.816   6.830  0.8168  0.9704  3.7766
  584MOL0     H77066  11.010   7.600   7.036  0.6514 -0.4118 -0.3730
  584MOL0     H77067  11.156   7.685   6.973 -1.0114  0.7636 -0.5547
  584MOL0     H77068  11.093   7.780   7.206 -0.7965 -0.5475  0.8286
  584MOL0     H77069  10.941   7.824   7.132  0.2938 -2.6854  0.3775
  584MOL0     H77070  11.134   7.037   6.580  0.7183  1.0003  0.1200
  584MOL0     H77071  11.221   6.889   6.410  1.6873  2.9827 -1.5179
  584MOL0     H77072  11.259   6.588   6.167 -1.1323 -0.4773 -0.0078
  584MOL0     H77073  11.296   6.368   6.091  1.6406  2.2154  0.6641
  584MOL0     H77074  11.519   6.318   6.538 -1.3175  1.0192 -0.4728
  584MOL0     H77075  11.551   6.523   6.680 -1.0788  0.1870  0.4740
  584MOL0     H77076  11.768   6.875   6.763 -0.6452 -0.3748 -4.6807
  584MOL0     H77077  11.872   7.079   6.884 -1.0405 -3.8031  2.2754
  584MOL0     H77078  11.704   7.476   6.888 -0.4657 -0.7072 -0.0520
  584MOL0     H77079  11.773   7.448   6.724  4.0696 -0.8638 -0.7188
  584MOL0     H77080  11.868   7.631   6.812  0.2055 -1.1231 -2.0772
  584MOL0     H77081  11.908   7.549   6.969 -1.5316  0.2743  0.3146
  584MOL0     H77082  12.061   7.508   6.703 -0.1884  0.2816 -0.9943
  584MOL0     H77083  12.058   7.397   6.825 -0.0167  1.6417 -2.2202
  584MOL0     H77084  12.167   7.584   6.992 -0.2648 -0.5967  0.8044
  584MOL0     H77085  12.255   7.565   6.846  0.4753  0.9659 -0.5414
  584MOL0     H77086  12.077   7.933   6.757  1.3150  0.4432  0.4188
  584MOL0     H77087  11.546   7.319   6.736 -1.9040 -0.9864  0.5839
  584MOL0     H77088  11.440   7.133   6.629  0.0626 -0.5898  0.3184
  585MOL0     O77089  10.688   7.808   9.259  0.3389 -0.6131 -0.3199
  585MOL0     C77090  10.746   7.865   9.356  0.3412  0.6376  0.6830
  585MOL0     O77091  10.876   7.913   9.358  0.2520  0.3271 -0.3040
  585MOL0     C77092  10.949   7.894   9.246 -0.2820  0.0990 -0.6082
  585MOL0     C77093  10.993   7.780   9.192 -0.3403  1.3703 -0.2492
  585MOL0     C77094  11.090   7.771   9.087  0.7470  1.2785 -0.5575
  585MOL0     C77095  11.152   7.893   9.051  0.5783  0.1650  0.6131
  585MOL0     O77096  11.230   7.889   8.935 -0.8197  0.8052  0.5228
  585MOL0     C77097  11.334   7.987   8.926 -0.0921 -1.0738 -0.5074
  585MOL0     C77098  11.422   7.948   8.808 -0.2577  1.3520  1.4747
  585MOL0     C77099  11.575   7.964   8.829  1.0412  0.2407  0.2262
  585MOL0     C77100  11.608   8.114   8.855  0.7230 -0.9004  0.4759
  585MOL0     C77101  11.756   8.152   8.826  0.2726  0.0253 -0.6209
  585MOL0     C77102  11.803   8.111   8.685 -0.0188  0.3152  1.1806
  585MOL0     C77103  11.925   8.192   8.643 -0.3153  0.0031 -0.2078
  585MOL0     C77104  12.059   8.118   8.646  0.7586 -0.2927  0.6505
  585MOL0     N77105  12.083   8.030   8.761 -0.1133  0.1765 -0.3819
  585MOL0     C77106  12.070   7.894   8.772 -0.0222 -0.1906  0.7049
  585MOL0     C77107  12.111   7.858   8.891 -0.6355 -0.7873  0.3409
  585MOL0     C77108  12.100   7.718   8.940  0.7320  0.5513  0.4989
  585MOL0     C77109  11.968   7.693   9.019  0.6703  0.3463  0.2526
  585MOL0     C77110  11.943   7.772   9.139  0.5917 -0.7312 -1.0602
  585MOL0     C77111  11.818   7.730   9.220 -0.2125  0.5412  0.9643
  585MOL0     O77112  11.815   7.796   9.351  0.4184 -0.8623  0.0750
  585MOL0     C77113  11.774   7.927   9.355  0.2722  0.0195 -0.1644
  585MOL0     C77114  11.639   7.946   9.318  0.2762  0.3211 -0.7800
  585MOL0     C77115  11.593   8.072   9.298  0.6700 -0.3621 -0.3663
  585MOL0     C77116  11.671   8.190   9.326 -0.2253 -0.2816 -0.1549
  585MOL0     C77117  11.629   8.324   9.297  0.7755  0.4679 -0.2594
  585MOL0     O77118  11.730   8.410   9.306  0.0506 -0.6899  0.2576
  585MOL0     C77119  11.715   8.547   9.281  0.1164 -0.4483  0.2288
  585MOL0     C77120  11.614   8.632   9.329 -0.1266 -0.1848 -0.0998
  585MOL0     C77121  11.617   8.768   9.296 -0.5243  0.1396  0.1965
  585MOL0     C77122  11.712   8.831   9.218  0.0137  0.1185  1.5892
  585MOL0     O77123  11.713   8.969   9.189  0.4288  0.3978 -0.4272
  585MOL0     C77124  11.580   9.040   9.178  0.5294 -0.6210  0.2746
  585MOL0     C77125  11.598   9.199   9.165  0.5933  0.4256 -0.1812
  585MOL0     C77126  11.453   9.249   9.112 -1.7184 -0.1365 -0.8626
  585MOL0     C77127  11.467   9.399   9.072  0.4029 -0.0896 -0.3621
  585MOL0     C77128  11.338   9.472   9.081  0.8526  0.1948  0.3548
  585MOL0     C77129  11.342   9.622   9.095  0.3876  0.8323 -0.1534
  585MOL0     C77130  11.206   9.689   9.069  0.6626 -0.6530  0.0982
  585MOL0     C77131  11.131   9.709   9.189 -0.3094 -0.2866 -0.0435
  585MOL0    Cl77132  11.133   9.873   9.256  0.4808  0.2879  0.3771
  585MOL0     C77133  11.819   8.747   9.174  0.1511 -0.5236 -0.4238
  585MOL0     C77134  11.811   8.614   9.194 -0.2735  1.0864 -0.7094
  585MOL0     O77135  11.514   8.359   9.265 -1.5988 -0.4597  0.4024
  585MOL0     C77136  11.809   8.167   9.360  0.0414  0.2356 -0.0576
  585MOL0     C77137  11.861   8.036   9.376  0.8048  0.5092  0.0593
  585MOL0     N77138  12.152   7.966   8.966  0.8245  0.6192  0.2894
  585MOL0     N77139  12.120   8.073   8.891 -0.1095  0.0447  0.6884
  585MOL0     C77140  11.122   8.019   9.114 -0.3111 -0.1979  0.3357
  585MOL0     C77141  11.018   8.011   9.203 -0.7040  0.4967  0.3340
  585MOL0     C77142  10.681   7.883   9.481 -0.1747  0.2648  0.6517
  585MOL0     C77143  10.579   7.809   9.540 -0.8656 -0.1738  0.7578
  585MOL0     C77144  10.515   7.843   9.662  0.3242 -0.4039  0.0296
  585MOL0     C77145  10.545   7.966   9.727  0.4288 -0.5714 -0.3252
  585MOL0     O77146  10.499   8.002   9.852  0.2258  0.2348 -0.3317
  585MOL0     C77147  10.484   8.134   9.898  0.9288 -0.3409 -0.4368
  585MOL0     C77148  10.604   8.166   9.992 -0.4848 -0.8611  0.0607
  585MOL0     C77149  10.577   8.292  10.083  0.3662 -0.4396 -1.6885
  585MOL0     C77150  10.561   8.245  10.222 -0.7043  0.6523 -0.3051
  585MOL0     C77151  10.516   8.349  10.321 -0.5095 -0.3753  0.4093
  585MOL0     C77152  10.476   8.440  10.393  0.1976  0.0870  0.3634
  585MOL0     C77153  10.645   8.048   9.658 -0.7401 -0.5454  0.4496
  585MOL0     C77154  10.711   8.006   9.546  0.0549  0.7993  0.0941
  585MOL0     H77155  10.957   7.684   9.227  3.4237 -0.5668 -1.1959
  585MOL0     H77156  11.123   7.682   9.036  0.4389  2.2938 -2.6408
  585MOL0     H77157  11.410   7.984   9.005 -1.9957  2.4279  1.7205
  585MOL0     H77158  11.306   8.092   8.912 -1.4310 -1.6171 -2.3987
  585MOL0     H77159  11.391   8.011   8.724  2.3535  0.6198 -0.1548
  585MOL0     H77160  11.404   7.841   8.789  2.5414  0.9292  0.7081
  585MOL0     H77161  11.626   7.939   8.736  1.2862  0.4218  0.3088
  585MOL0     H77162  11.607   7.898   8.910  1.1318 -1.2746 -1.0079
  585MOL0     H77163  11.533   8.176   8.804 -0.7285 -1.5123  1.7745
  585MOL0     H77164  11.586   8.133   8.960  1.5718 -1.7538  0.8236
  585MOL0     H77165  11.830   8.112   8.895 -0.0396  2.2921  1.1333
  585MOL0     H77166  11.768   8.258   8.849 -0.4230 -0.4177  2.1174
  585MOL0     H77167  11.730   8.140   8.609  2.7120 -1.2632 -2.3161
  585MOL0     H77168  11.812   8.002   8.674  2.1902  0.4103  1.6035
  585MOL0     H77169  11.919   8.225   8.539 -1.2791  3.6641  0.8712
  585MOL0     H77170  11.934   8.284   8.701 -2.5348  1.2914 -1.7583
  585MOL0     H77171  12.148   8.181   8.641  2.0050 -2.0315 -0.3618
  585MOL0     H77172  12.070   8.056   8.556  3.6474 -0.2839  0.8906
  585MOL0     H77173  12.031   7.832   8.692 -0.2792  1.7974 -0.7935
  585MOL0     H77174  12.170   7.705   9.023  2.8046  0.7636 -1.1550
  585MOL0     H77175  12.119   7.643   8.863  1.1002  0.5370  0.6019
  585MOL0     H77176  11.962   7.585   9.039  0.8857 -0.5231 -3.6084
  585MOL0     H77177  11.888   7.703   8.945 -0.4464 -3.6814  0.6535
  585MOL0     H77178  12.026   7.762   9.209  0.6222  1.5558 -0.7045
  585MOL0     H77179  11.925   7.876   9.113  3.5343  0.2891  0.5548
  585MOL0     H77180  11.817   7.621   9.233  2.2412  0.2803 -0.5669
  585MOL0     H77181  11.728   7.747   9.159 -0.8021 -2.7999  0.7047
  585MOL0     H77182  11.576   7.859   9.302 -0.4086  0.3877  1.2434
  585MOL0     H77183  11.503   8.108   9.249  0.4055  2.1619  1.7456
  585MOL0     H77184  11.538   8.592   9.395  0.2322 -0.3337  0.2269
  585MOL0     H77185  11.533   8.819   9.342 -0.1720 -0.7648  1.9074
  585MOL0     H77186  11.510   9.006   9.255 -0.5174 -1.2944 -0.9196
  585MOL0     H77187  11.542   9.005   9.081  1.3484  1.4048 -0.8440
  585MOL0     H77188  11.679   9.209   9.092  1.9061  0.7048  1.2590
  585MOL0     H77189  11.633   9.245   9.258 -0.6561  0.2126  0.4082
  585MOL0     H77190  11.388   9.238   9.200  1.5175  0.3610  1.8177
  585MOL0     H77191  11.425   9.193   9.023 -2.1505  2.1282 -2.2218
  585MOL0     H77192  11.529   9.451   9.146 -2.2296 -0.3296  2.1751
  585MOL0     H77193  11.503   9.407   8.969 -0.9989 -1.1448 -0.9640
  585MOL0     H77194  11.282   9.433   9.167  1.3050  0.1307  0.6195
  585MOL0     H77195  11.280   9.447   8.991  2.8419 -0.1281 -0.9056
  585MOL0     H77196  11.404   9.652   9.010 -2.2666 -0.4161 -2.7220
  585MOL0     H77197  11.381   9.651   9.194 -0.1746  0.7943  0.0816
  585MOL0     H77198  11.224   9.788   9.028  0.5614 -0.5049  0.4068
  585MOL0     H77199  11.143   9.640   8.994  0.2993 -0.2475  0.1305
  585MOL0     H77200  11.149   9.630   9.262  2.0282 -1.5987 -1.9242
  585MOL0     H77201  11.026   9.696   9.161 -0.2321 -2.1629  0.3900
  585MOL0     H77202  11.904   8.766   9.109  1.0461 -2.2268  0.1779
  585MOL0     H77203  11.886   8.548   9.152 -1.0471 -0.2343 -0.0875
  585MOL0     H77204  11.872   8.253   9.382 -0.7934  0.2548  2.5987
  585MOL0     H77205  11.966   8.016   9.393  0.5928 -0.3068  0.4203
  585MOL0     H77206  11.163   8.115   9.086  1.8552  0.2594  4.2768
  585MOL0     H77207  10.994   8.096   9.267 -0.4350 -0.6365  2.0164
  585MOL0     H77208  10.530   7.722   9.498 -3.0645  0.3640  1.9930
  585MOL0     H77209  10.437   7.794   9.718  0.8867  0.4292  1.6116
  585MOL0     H77210  10.390   8.135   9.952  1.4518 -2.8031  0.6663
  585MOL0     H77211  10.496   8.211   9.821  4.9289  1.5339  1.7328
  585MOL0     H77212  10.637   8.080  10.051 -2.0030 -0.4273  1.6295
  585MOL0     H77213  10.679   8.185   9.915 -2.8120 -1.1544 -2.4658
  585MOL0     H77214  10.490   8.352  10.055  1.0894  2.9739  2.3912
  585MOL0     H77215  10.654   8.370  10.079 -1.4638  1.3919 -4.7090
  585MOL0     H77216  10.474   8.179  10.225 -0.0085 -0.2452  2.2746
  585MOL0     H77217  10.651   8.198  10.263 -0.5847  0.4277 -0.8154
  585MOL0     H77218  10.453   8.515  10.467  3.4909  0.4295  1.2354
  585MOL0     H77219  10.678   8.148   9.684 -0.2764 -0.2733 -1.0860
  585MOL0     H77220  10.783   8.077   9.507  0.1670  1.2300  1.0469
  586MOL0     O77221   0.242   5.908   0.741 -1.2377  0.3920 -0.0427
  586MOL0     C77222   0.158   5.918   0.647 -0.9413  0.1620 -0.2107
  586MOL0     O77223   0.047   5.995   0.649 -0.7202 -0.0819  1.1744
  586MOL0     C77224   0.029   6.084   0.746  0.9347 -0.5401  0.1551
  586MOL0     C77225   0.045   6.224   0.736 -0.1265  0.0097  0.2065
  586MOL0     C77226   0.020   6.305   0.852  1.0647 -0.1757  0.8612
  586MOL0     C77227  -0.050   6.253   0.959  0.1004 -0.1324 -0.2399
  586MOL0     O77228  -0.081   6.333   1.068 -1.2087 -0.3979 -0.4755
  586MOL0     C77229  -0.154   6.294   1.183 -0.6960  0.2473  0.3376
  586MOL0     C77230  -0.209   6.418   1.263 -1.1156  0.2125 -0.2191
  586MOL0     C77231  -0.113   6.468   1.365 -0.9516 -0.3064 -0.3413
  586MOL0     C77232  -0.183   6.562   1.471  1.2525  1.9762 -0.6501
  586MOL0     C77233  -0.208   6.706   1.436  0.6129 -0.0509  0.1575
  586MOL0     C77234  -0.078   6.788   1.426 -0.1765  0.1255  1.3087
  586MOL0     C77235  -0.109   6.935   1.391  0.4075  0.6830 -0.3876
  586MOL0     C77236   0.011   7.027   1.385 -0.3641 -1.0369  0.0936
  586MOL0     N77237  -0.033   7.161   1.336  0.4643  1.0319 -0.6204
  586MOL0     C77238   0.016   7.220   1.224 -0.4408 -0.1144 -0.2643
  586MOL0     C77239  -0.067   7.331   1.208 -0.8252  0.3036  0.7317
  586MOL0     C77240  -0.054   7.429   1.089 -0.1236 -0.3904 -0.5083
  586MOL0     C77241   0.085   7.497   1.086  0.1779 -0.0521  0.0488
  586MOL0     C77242   0.110   7.573   0.951 -0.9585  0.5825 -0.1356
  586MOL0     C77243   0.156   7.475   0.842  0.4583  0.3474  0.1359
  586MOL0     O77244   0.297   7.481   0.805  0.2620  0.4738 -0.5190
  586MOL0     C77245   0.345   7.580   0.721  0.1953  0.4677 -1.0384
  586MOL0     C77246   0.465   7.557   0.679 -0.2681  0.3446  0.6051
  586MOL0     C77247   0.525   7.639   0.575  0.3335  0.1093 -0.8416
  586MOL0     C77248   0.447   7.750   0.525  0.1751 -0.1753 -0.0517
  586MOL0     C77249   0.508   7.839   0.422 -0.1982  0.4779 -0.7102
  586MOL0     O77250   0.416   7.905   0.340 -0.2831 -0.2873 -0.5788
  586MOL0     C77251   0.444   7.970   0.219 -0.4205  0.1282 -0.0733
  586MOL0     C77252   0.353   8.061   0.170 -0.8954 -0.1226 -0.5215
  586MOL0     C77253   0.370   8.136   0.055 -0.2145  0.5692 -0.2733
  586MOL0     C77254   0.476   8.103  -0.028  0.1015  0.5421  0.1454
  586MOL0     O77255   0.497   8.175  -0.144 -0.3299  0.4193  0.5358
  586MOL0     C77256   0.609   8.269  -0.168  0.6787  1.0878  0.0727
  586MOL0     C77257   0.679   8.317  -0.044 -0.1974  0.2108 -0.4512
  586MOL0     C77258   0.781   8.420  -0.070 -0.1069 -0.4413  0.0491
  586MOL0     C77259   0.860   8.440   0.061  0.0675 -0.0914  0.5870
  586MOL0     C77260   0.984   8.520   0.043 -0.4808 -0.1367  0.2544
  586MOL0     C77261   1.065   8.507   0.171 -0.2832 -0.4419 -0.4027
  586MOL0     C77262   0.999   8.575   0.293  0.2571 -0.0820 -0.5602
  586MOL0     C77263   1.091   8.560   0.418 -0.0665 -0.3008  0.2228
  586MOL0    Cl77264   0.999   8.603   0.569 -0.1613 -0.1255 -0.1410
  586MOL0     C77265   0.571   8.013   0.018 -0.2092 -0.9912  0.0631
  586MOL0     C77266   0.551   7.943   0.135 -0.5280  0.3734 -1.2040
  586MOL0     O77267   0.632   7.854   0.411  0.3330 -0.2557 -0.4673
  586MOL0     C77268   0.323   7.776   0.574  0.1159  0.7011  0.8899
  586MOL0     C77269   0.267   7.693   0.669  0.1262 -0.4364 -0.0548
  586MOL0     N77270  -0.164   7.327   1.309  0.0902 -0.0851  0.6163
  586MOL0     N77271  -0.138   7.225   1.380 -0.3179 -0.8771  0.3225
  586MOL0     C77272  -0.082   6.116   0.961  0.5062  0.2899  0.0616
  586MOL0     C77273  -0.035   6.036   0.855  0.5937  0.2409  0.2065
  586MOL0     C77274   0.190   5.847   0.518 -0.9474 -0.3006 -0.2158
  586MOL0     C77275   0.310   5.776   0.517 -0.0745 -0.5023  0.5778
  586MOL0     C77276   0.366   5.727   0.403 -0.6249  0.1709 -0.3312
  586MOL0     C77277   0.296   5.736   0.281  0.8120 -0.9199  0.0479
  586MOL0     O77278   0.360   5.678   0.178 -0.9712  0.0484  0.1357
  586MOL0     C77279   0.330   5.706   0.040 -0.3655 -0.5373 -1.0505
  586MOL0     C77280   0.451   5.638  -0.038  0.1371  0.1989  0.5606
  586MOL0     C77281   0.451   5.696  -0.182 -0.6280 -0.6334 -0.5025
  586MOL0     C77282   0.580   5.648  -0.244  0.7702 -0.3323  1.0118
  586MOL0     C77283   0.614   5.712  -0.373  0.3306 -0.8389 -0.2675
  586MOL0     C77284   0.626   5.758  -0.488  0.3286  0.1094  1.0923
  586MOL0     C77285   0.169   5.795   0.281  0.2351  0.6311  0.6279
  586MOL0     C77286   0.123   5.860   0.392  0.1761 -1.2187 -0.1518
  586MOL0     H77287   0.084   6.278   0.650 -3.6193  1.6038 -0.5688
  586MOL0     H77288   0.057   6.407   0.841  0.4264 -0.1488 -1.6988
  586MOL0     H77289  -0.094   6.222   1.240  0.9759  1.1007 -0.2680
  586MOL0     H77290  -0.233   6.228   1.147  1.0756 -1.7000 -0.1546
  586MOL0     H77291  -0.302   6.390   1.313 -1.7343  0.1217 -1.3809
  586MOL0     H77292  -0.226   6.508   1.203  1.0859  1.3796  0.7785
  586MOL0     H77293  -0.046   6.535   1.310  0.8482  0.1520  2.2225
  586MOL0     H77294  -0.046   6.396   1.413 -0.7265  0.9497  1.3175
  586MOL0     H77295  -0.284   6.520   1.478  2.8053 -1.9724  0.6157
  586MOL0     H77296  -0.150   6.557   1.574 -0.4758  1.3033 -0.0842
  586MOL0     H77297  -0.271   6.729   1.522 -1.0121 -0.8212 -0.7936
  586MOL0     H77298  -0.257   6.711   1.339  1.2808 -0.3106 -0.2009
  586MOL0     H77299  -0.029   6.738   1.342 -3.6920 -1.2926 -0.1178
  586MOL0     H77300  -0.010   6.781   1.511  3.1946  1.3412 -1.0650
  586MOL0     H77301  -0.158   6.919   1.294  0.2346 -1.5141  0.0157
  586MOL0     H77302  -0.181   6.969   1.466 -0.9153 -0.5619 -1.0485
  586MOL0     H77303   0.089   6.984   1.321  1.1955 -1.9030  2.4344
  586MOL0     H77304   0.064   7.037   1.481  1.0896 -1.9940 -0.5714
  586MOL0     H77305   0.087   7.174   1.156  2.0628  0.8262  1.5568
  586MOL0     H77306  -0.132   7.505   1.088  0.2736  0.2022  2.6420
  586MOL0     H77307  -0.058   7.369   0.998  0.4775  0.8958 -1.4151
  586MOL0     H77308   0.166   7.433   1.122  0.9196 -1.2265 -3.3412
  586MOL0     H77309   0.085   7.576   1.162  2.2852  0.9712 -0.9398
  586MOL0     H77310   0.019   7.609   0.902 -0.5020  1.6060 -0.2336
  586MOL0     H77311   0.185   7.649   0.969  1.2019 -1.4220 -0.1788
  586MOL0     H77312   0.096   7.491   0.752 -2.4242  0.6004  2.0013
  586MOL0     H77313   0.127   7.375   0.875  1.6787  0.1147  0.5768
  586MOL0     H77314   0.509   7.465   0.714 -2.9725  0.7479  5.9240
  586MOL0     H77315   0.623   7.620   0.532  0.4508 -0.4399 -0.3471
  586MOL0     H77316   0.262   8.089   0.224 -0.9600 -0.9906 -0.1687
  586MOL0     H77317   0.307   8.222   0.032 -0.6711  0.2181 -0.3405
  586MOL0     H77318   0.572   8.356  -0.223 -1.6031 -0.6092 -1.2667
  586MOL0     H77319   0.675   8.209  -0.231  0.2118  0.0272  0.5639
  586MOL0     H77320   0.727   8.226  -0.006 -2.5015 -0.9131  0.0051
  586MOL0     H77321   0.610   8.347   0.036  2.5323  0.1268  2.1298
  586MOL0     H77322   0.731   8.511  -0.105  0.3355 -0.6224 -1.1293
  586MOL0     H77323   0.848   8.381  -0.147  1.0356  0.8076  0.3769
  586MOL0     H77324   0.792   8.496   0.125  0.4130 -0.1646  1.0263
  586MOL0     H77325   0.882   8.339   0.097 -2.2215 -0.8772 -0.0104
  586MOL0     H77326   0.965   8.627   0.027  0.5993 -0.2210 -1.9147
  586MOL0     H77327   1.045   8.492  -0.043 -0.1426  0.5294  0.2693
  586MOL0     H77328   1.162   8.555   0.156 -1.6036  2.1434 -1.3911
  586MOL0     H77329   1.087   8.401   0.186 -0.3554 -0.6496 -1.6102
  586MOL0     H77330   0.960   8.677   0.286  0.1158 -0.1799 -1.4190
  586MOL0     H77331   0.903   8.524   0.304  0.0848 -0.7182 -3.8667
  586MOL0     H77332   1.175   8.630   0.420 -1.3366  1.3519  3.3800
  586MOL0     H77333   1.131   8.459   0.420 -0.3274 -0.4969 -1.8277
  586MOL0     H77334   0.654   8.001  -0.050  1.4814  3.2242  1.0666
  586MOL0     H77335   0.604   7.850   0.151 -0.0019  1.0862  1.7805
  586MOL0     H77336   0.270   7.861   0.531  1.4306  0.3740 -1.5717
  586MOL0     H77337   0.165   7.709   0.704  0.3160  1.0693 -0.1105
  586MOL0     H77338  -0.115   6.066   1.051  0.9786  1.8539  1.1457
  586MOL0     H77339  -0.060   5.931   0.867  0.0932  0.5353  2.1429
  586MOL0     H77340   0.363   5.761   0.610 -0.0868 -2.1810  0.3487
  586MOL0     H77341   0.458   5.677   0.430  1.6354  5.8052  5.0620
  586MOL0     H77342   0.325   5.813   0.022 -1.1344 -0.9405 -3.6924
  586MOL0     H77343   0.236   5.655   0.016 -2.5883  1.9549  1.6410
  586MOL0     H77344   0.544   5.672   0.007  1.2715 -1.6189 -0.3051
  586MOL0     H77345   0.441   5.529  -0.035 -0.7681  0.0795 -2.6577
  586MOL0     H77346   0.452   5.805  -0.178 -0.0068 -0.5752 -1.9324
  586MOL0     H77347   0.363   5.651  -0.229 -0.1120 -0.5536 -1.5684
  586MOL0     H77348   0.662   5.667  -0.173  3.4512 -1.9303 -1.4459
  586MOL0     H77349   0.581   5.540  -0.264  0.2446  0.0082 -1.0271
  586MOL0     H77350   0.625   5.780  -0.593 -1.5253  0.6503  1.1806
  586MOL0     H77351   0.102   5.788   0.196 -1.9624 -2.6913  2.3903
  586MOL0     H77352   0.032   5.912   0.364  0.2782 -1.7919 -1.6401
  587MOL0     O77353  11.095   2.259   8.228  0.1338  0.4634  0.7667
  587MOL0     C77354  10.981   2.291   8.188 -0.9126  0.9253 -0.4877
  587MOL0     O77355  10.888   2.362   8.266 -0.5412 -0.4777  0.4424
  587MOL0     C77356  10.914   2.373   8.403  1.0687 -0.4510  0.0053
  587MOL0     C77357  10.929   2.269   8.488  0.3754 -0.3893  0.4441
  587MOL0     C77358  10.937   2.272   8.629  0.7214 -1.4177 -0.6423
  587MOL0     C77359  10.918   2.396   8.689 -0.0422 -0.5082 -0.2755
  587MOL0     O77360  10.922   2.413   8.833 -0.0885  0.4265  0.5518
  587MOL0     C77361  10.811   2.474   8.891  0.5554 -0.2532 -0.3051
  587MOL0     C77362  10.806   2.478   9.041  0.0790  0.5557 -0.4735
  587MOL0     C77363  10.748   2.345   9.095 -0.3307  0.3429  0.2021
  587MOL0     C77364  10.723   2.364   9.252  0.1928 -0.1472 -0.0098
  587MOL0     C77365  10.847   2.313   9.330  0.5560  0.3880 -0.4728
  587MOL0     C77366  10.878   2.406   9.453 -0.7507  0.6805  0.0885
  587MOL0     C77367  10.780   2.386   9.570  0.5071 -0.0090  0.5352
  587MOL0     C77368  10.638   2.444   9.551 -0.2907  0.1341 -0.0608
  587MOL0     N77369  10.560   2.455   9.676  0.0762  0.0114 -0.1087
  587MOL0     C77370  10.445   2.529   9.707 -0.2383  0.4749  0.1477
  587MOL0     C77371  10.400   2.486   9.827  0.1581  0.4778  0.9190
  587MOL0     C77372  10.285   2.557   9.902  1.5179 -0.1786 -0.4123
  587MOL0     C77373  10.205   2.669   9.828 -0.2325  0.4450  0.8182
  587MOL0     C77374  10.085   2.723   9.905 -1.0727 -0.3968 -0.2122
  587MOL0     C77375   9.961   2.643   9.868  0.1517 -0.9466 -0.1871
  587MOL0     O77376   9.955   2.504   9.873  0.2000  0.3221 -0.2304
  587MOL0     C77377   9.844   2.449   9.932 -0.5838 -0.2006 -0.4854
  587MOL0     C77378   9.795   2.342   9.861 -0.0131 -0.1268  0.1812
  587MOL0     C77379   9.694   2.262   9.913  1.1002 -0.2238  0.7596
  587MOL0     C77380   9.615   2.306  10.022 -0.6118 -0.1894 -0.2478
  587MOL0     C77381   9.488   2.238  10.061  0.6293  0.0535  0.1019
  587MOL0     O77382   9.449   2.236  10.187  1.0662  0.0712 -0.7870
  587MOL0     C77383   9.333   2.168  10.229  0.2894  0.1971 -0.3435
  587MOL0     C77384   9.326   2.170  10.366  0.3111  0.1852 -0.1551
  587MOL0     C77385   9.230   2.106  10.441  0.2073 -0.4424 -0.2031
  587MOL0     C77386   9.125   2.044  10.362 -0.9126 -0.0278  0.9922
  587MOL0     O77387   9.032   1.973  10.438 -1.2025 -0.1074 -0.3693
  587MOL0     C77388   8.913   1.931  10.373  0.0014  0.6420  0.0154
  587MOL0     C77389   8.837   1.843  10.479 -0.3565 -0.6622  0.4610
  587MOL0     C77390   8.709   1.780  10.399  0.7856 -0.5935 -0.1354
  587MOL0     C77391   8.592   1.769  10.501 -0.7609  0.5976 -0.1854
  587MOL0     C77392   8.464   1.683  10.454 -0.3348  0.1316 -1.2533
  587MOL0     C77393   8.492   1.532  10.450 -0.5183  0.4350  0.5469
  587MOL0     C77394   8.371   1.462  10.387 -0.3570 -0.8511  0.3258
  587MOL0     C77395   8.410   1.321  10.397 -0.0226 -0.3749  0.4975
  587MOL0    Cl77396   8.474   1.274  10.238  0.4334  0.0938  0.0247
  587MOL0     C77397   9.132   2.036  10.221  0.3427 -0.4127  0.4190
  587MOL0     C77398   9.235   2.107  10.153  0.6511  0.4468  0.1488
  587MOL0     O77399   9.436   2.180   9.966  0.2553  0.0598  0.3620
  587MOL0     C77400   9.667   2.420  10.094  0.8727  0.1926 -0.1624
  587MOL0     C77401   9.786   2.487  10.054 -0.4602 -1.0412  1.2430
  587MOL0     N77402  10.484   2.387   9.873 -0.5351  0.1835  0.6830
  587MOL0     N77403  10.577   2.374   9.786  0.8468  0.6003  0.2994
  587MOL0     C77404  10.902   2.511   8.610 -0.9639  1.2406 -0.8301
  587MOL0     C77405  10.911   2.503   8.468 -0.0139  0.6296 -0.0218
  587MOL0     C77406  10.939   2.263   8.052  0.3650  0.3365 -0.2775
  587MOL0     C77407  11.036   2.233   7.955  0.1478  0.3921 -0.5102
  587MOL0     C77408  10.993   2.237   7.821 -0.2049  0.6061  0.8322
  587MOL0     C77409  10.865   2.248   7.776 -0.5018 -0.1808  0.5104
  587MOL0     O77410  10.839   2.222   7.644  0.1039  0.0248  0.3046
  587MOL0     C77411  10.763   2.331   7.589 -0.2316 -0.2547 -0.4322
  587MOL0     C77412  10.862   2.451   7.569 -0.2416  0.5276 -1.2509
  587MOL0     C77413  10.789   2.591   7.543 -0.5815 -0.0851  0.6663
  587MOL0     C77414  10.667   2.618   7.629 -0.3880 -0.4269  0.2241
  587MOL0     C77415  10.703   2.635   7.769 -0.2173  0.2343  0.7177
  587MOL0     C77416  10.745   2.635   7.886 -0.2600 -0.1635  0.7505
  587MOL0     C77417  10.771   2.249   7.875  0.5779 -0.1082 -0.6386
  587MOL0     C77418  10.800   2.258   8.014 -0.9140 -0.1158  0.4724
  587MOL0     H77419  10.930   2.174   8.434 -0.8177  1.1155 -2.4537
  587MOL0     H77420  10.942   2.181   8.689 -1.8389 -2.0838 -1.3073
  587MOL0     H77421  10.719   2.436   8.846  0.1990  1.3569 -0.9786
  587MOL0     H77422  10.811   2.579   8.861 -1.6154  0.1685  0.9819
  587MOL0     H77423  10.742   2.561   9.074  2.7302  2.2291  0.8495
  587MOL0     H77424  10.909   2.485   9.079  0.6098 -3.4931 -0.7313
  587MOL0     H77425  10.812   2.258   9.079  1.5987  1.4516  1.4754
  587MOL0     H77426  10.658   2.322   9.038  0.5436  0.3298 -1.2111
  587MOL0     H77427  10.693   2.468   9.264 -2.0499 -0.6120 -1.0842
  587MOL0     H77428  10.637   2.307   9.288  1.4132 -0.5271  2.5682
  587MOL0     H77429  10.939   2.304   9.271  0.2277 -0.5614 -0.8556
  587MOL0     H77430  10.827   2.213   9.370  0.1585 -0.1314 -1.9003
  587MOL0     H77431  10.874   2.510   9.418 -0.2143  0.4153 -0.7808
  587MOL0     H77432  10.978   2.381   9.489 -1.2474 -3.1692 -0.7556
  587MOL0     H77433  10.776   2.284   9.609 -1.8335  1.1912  3.8769
  587MOL0     H77434  10.830   2.439   9.651  1.1617 -1.0550  0.8371
  587MOL0     H77435  10.580   2.378   9.486 -4.3246  4.1825 -1.1062
  587MOL0     H77436  10.647   2.543   9.506 -0.0055  2.5944  4.7588
  587MOL0     H77437  10.390   2.583   9.631  1.5044  0.9391 -0.8516
  587MOL0     H77438  10.326   2.599   9.995 -1.0300 -1.5822  1.4890
  587MOL0     H77439  10.231   2.468   9.933  0.6636  1.6919  4.5109
  587MOL0     H77440  10.162   2.622   9.740  0.0390  0.6120  0.5951
  587MOL0     H77441  10.274   2.748   9.796  1.3390 -0.6370  1.3538
  587MOL0     H77442  10.108   2.727  10.012  0.3395  1.6169 -0.5281
  587MOL0     H77443  10.066   2.829   9.883  1.5531  0.4394  1.0272
  587MOL0     H77444   9.932   2.681   9.769 -2.4323  1.9961  1.4792
  587MOL0     H77445   9.875   2.682   9.924 -2.1508 -3.0739 -1.9770
  587MOL0     H77446   9.857   2.329   9.773 -0.8886 -0.8630 -0.3446
  587MOL0     H77447   9.655   2.182   9.851 -0.0526  1.2546 -0.5146
  587MOL0     H77448   9.415   2.204  10.417  0.0962  0.5319 -0.0064
  587MOL0     H77449   9.233   2.092  10.548  1.9671 -0.2816 -0.2034
  587MOL0     H77450   8.937   1.868  10.287  2.1244  2.5671 -0.9190
  587MOL0     H77451   8.857   2.020  10.341  1.2811  1.4522 -0.0305
  587MOL0     H77452   8.802   1.906  10.562 -0.2412  1.1233 -0.8021
  587MOL0     H77453   8.893   1.761  10.525 -2.0209 -1.2681  1.5268
  587MOL0     H77454   8.728   1.679  10.362 -0.1876 -1.0948  0.6769
  587MOL0     H77455   8.681   1.846  10.317  1.7553  0.3052  0.2282
  587MOL0     H77456   8.637   1.713  10.584  1.1509  0.2810 -1.3766
  587MOL0     H77457   8.556   1.867  10.534 -1.2720  0.9274 -1.6522
  587MOL0     H77458   8.414   1.719  10.365 -1.7510  1.6318  0.0916
  587MOL0     H77459   8.395   1.699  10.537  2.2766  0.9116  0.9172
  587MOL0     H77460   8.520   1.493  10.548  0.5902 -1.9688 -0.6561
  587MOL0     H77461   8.577   1.516  10.382  0.4042 -2.8007  2.2730
  587MOL0     H77462   8.287   1.468  10.457 -1.6595  0.5570 -1.2707
  587MOL0     H77463   8.341   1.483  10.284 -1.5945  3.4311  1.3631
  587MOL0     H77464   8.326   1.260  10.429 -1.4924  2.0161  1.4555
  587MOL0     H77465   8.480   1.297  10.478 -3.1467 -3.4139  2.5743
  587MOL0     H77466   9.051   1.978  10.176 -0.6434  1.2687 -0.0491
  587MOL0     H77467   9.238   2.110  10.045 -0.4101  1.1773  0.1211
  587MOL0     H77468   9.616   2.456  10.183  3.7006  1.3933  1.0978
  587MOL0     H77469   9.832   2.564  10.115 -0.5135 -1.7813  2.2706
  587MOL0     H77470  10.891   2.613   8.647 -3.3800  0.6526  0.2804
  587MOL0     H77471  10.903   2.592   8.407  0.3040  0.3337 -0.5031
  587MOL0     H77472  11.142   2.229   7.978  0.4380 -1.7360 -1.9061
  587MOL0     H77473  11.068   2.240   7.743  0.7097  1.8719  1.7282
  587MOL0     H77474  10.670   2.346   7.645  0.5781 -3.2733  2.0265
  587MOL0     H77475  10.722   2.303   7.492  1.9652  0.5541 -1.6489
  587MOL0     H77476  10.912   2.470   7.665 -0.7707 -2.5048 -0.2752
  587MOL0     H77477  10.932   2.438   7.485 -1.2022  2.7669 -2.4804
  587MOL0     H77478  10.768   2.608   7.437  0.7299 -2.2275  0.0015
  587MOL0     H77479  10.867   2.664   7.566 -1.7017  1.0927  0.8286
  587MOL0     H77480  10.621   2.709   7.589  0.8425  0.4533  0.7337
  587MOL0     H77481  10.594   2.537   7.622 -0.6269 -0.1432 -0.8751
  587MOL0     H77482  10.781   2.638   7.987 -0.6952  0.6702  0.8852
  587MOL0     H77483  10.668   2.241   7.842  0.4596 -1.5894  0.0109
  587MOL0     H77484  10.717   2.257   8.085  0.4284 -2.3522  2.1312
  588MOL0     O77485   7.050   3.756   5.720  0.6999 -0.1810 -0.2801
  588MOL0     C77486   7.111   3.700   5.819  0.8209  0.0166  0.4465
  588MOL0     O77487   7.142   3.757   5.933 -0.8829  0.1515 -0.0856
  588MOL0     C77488   7.139   3.894   5.959  0.7988  0.0848 -0.9674
  588MOL0     C77489   7.182   3.922   6.088 -0.4204 -0.2816  1.1212
  588MOL0     C77490   7.207   4.055   6.120 -0.4820 -0.7839 -0.0134
  588MOL0     C77491   7.181   4.156   6.031 -0.4410 -0.2254 -0.1313
  588MOL0     O77492   7.194   4.282   6.080 -0.6040 -0.1898 -0.4723
  588MOL0     C77493   7.188   4.390   5.984 -0.1338 -0.7200  0.3211
  588MOL0     C77494   7.248   4.520   6.055 -0.3734  0.1702  0.2671
  588MOL0     C77495   7.258   4.638   5.955  0.3375 -0.4214  0.2765
  588MOL0     C77496   7.125   4.711   5.925  0.6108 -0.3002 -0.1540
  588MOL0     C77497   7.151   4.838   5.839  0.3175  0.0601 -0.5399
  588MOL0     C77498   7.214   4.952   5.932 -0.0663 -0.0217  0.0427
  588MOL0     C77499   7.270   5.056   5.840  1.1072  0.1772  0.2452
  588MOL0     C77500   7.340   5.175   5.907 -0.5485 -0.5632 -0.3564
  588MOL0     N77501   7.251   5.241   6.006 -0.7184 -0.5627  0.7627
  588MOL0     C77502   7.126   5.302   5.990  0.8332 -0.5702  0.3558
  588MOL0     C77503   7.089   5.334   6.117 -1.0230 -0.5457 -0.6058
  588MOL0     C77504   6.960   5.411   6.134  0.7155  0.0067 -1.0306
  588MOL0     C77505   6.831   5.337   6.084 -0.1466 -1.2166  0.4682
  588MOL0     C77506   6.830   5.180   6.098 -0.7744  1.1745 -0.0040
  588MOL0     C77507   6.833   5.126   6.242 -0.1395 -0.0829  0.1940
  588MOL0     O77508   6.727   5.184   6.331 -0.0520  0.6589  0.6949
  588MOL0     C77509   6.603   5.133   6.327  0.5483  0.3101 -0.6603
  588MOL0     C77510   6.565   5.003   6.353  0.3128  0.9831  0.7986
  588MOL0     C77511   6.429   4.951   6.349 -0.2107 -0.5017  0.0445
  588MOL0     C77512   6.326   5.045   6.330  0.9608  0.1250 -0.2603
  588MOL0     C77513   6.184   5.001   6.333 -0.2127 -0.1367 -0.1171
  588MOL0     O77514   6.150   4.862   6.330  0.0854  0.5663 -0.1631
  588MOL0     C77515   6.029   4.810   6.367 -0.4507 -0.0932 -0.1305
  588MOL0     C77516   6.018   4.669   6.354  0.3764  0.2397  0.2718
  588MOL0     C77517   5.889   4.606   6.385 -0.6102  0.5573 -0.1286
  588MOL0     C77518   5.784   4.684   6.428 -0.8933  0.2512  0.6758
  588MOL0     O77519   5.662   4.638   6.463  0.0745  0.0040 -0.4348
  588MOL0     C77520   5.663   4.502   6.520 -1.5587 -0.8919  0.4049
  588MOL0     C77521   5.528   4.495   6.580  0.3314  0.3618 -0.1523
  588MOL0     C77522   5.512   4.362   6.666 -0.5990  0.4823 -0.4128
  588MOL0     C77523   5.373   4.336   6.695  0.8326 -0.2700  0.4337
  588MOL0     C77524   5.347   4.205   6.773  0.5287  1.0083 -0.4323
  588MOL0     C77525   5.387   4.079   6.688 -0.1398  0.0166  0.8175
  588MOL0     C77526   5.302   3.958   6.721 -0.6671  0.4449  0.0372
  588MOL0     C77527   5.333   3.838   6.639 -0.2931 -0.2156  1.1000
  588MOL0    Cl77528   5.475   3.770   6.706  0.4291  0.6251 -0.1505
  588MOL0     C77529   5.801   4.818   6.443  0.0647 -0.4370  0.2162
  588MOL0     C77530   5.917   4.878   6.412  0.6776  0.8828 -0.8583
  588MOL0     O77531   6.103   5.091   6.342  0.0860  0.1268  0.7899
  588MOL0     C77532   6.356   5.189   6.324 -1.3646  0.1057 -0.2684
  588MOL0     C77533   6.495   5.226   6.318  0.5078  0.3231 -0.0192
  588MOL0     N77534   7.191   5.307   6.211 -0.4403 -0.0858 -0.3697
  588MOL0     N77535   7.284   5.259   6.135  0.4375  0.2279 -0.3490
  588MOL0     C77536   7.123   4.126   5.906 -0.6034 -0.4353  0.4727
  588MOL0     C77537   7.105   3.999   5.871 -0.4499  0.1421 -0.0098
  588MOL0     C77538   7.144   3.559   5.811 -1.3116 -0.4177  0.4398
  588MOL0     C77539   7.252   3.499   5.887 -1.0868  0.2213  0.1131
  588MOL0     C77540   7.293   3.366   5.864  0.8513  0.8251  0.7302
  588MOL0     C77541   7.233   3.290   5.772 -0.5077  0.0411 -0.3323
  588MOL0     O77542   7.277   3.162   5.760 -0.3013  0.3633 -0.0944
  588MOL0     C77543   7.402   3.140   5.692 -0.9747 -0.2091 -0.7365
  588MOL0     C77544   7.380   3.027   5.597  0.1503 -0.4565  0.1099
  588MOL0     C77545   7.310   2.901   5.650 -0.6028  0.2974 -0.1045
  588MOL0     C77546   7.312   2.796   5.534 -0.0239 -0.3977 -0.7416
  588MOL0     C77547   7.257   2.664   5.569  0.2935 -1.1520 -0.0100
  588MOL0     C77548   7.201   2.557   5.583  0.5468  0.2739  0.6125
  588MOL0     C77549   7.117   3.338   5.716 -0.2922 -0.1515 -0.2786
  588MOL0     C77550   7.078   3.472   5.719  1.1895 -0.0136 -0.1430
  588MOL0     H77551   7.209   3.846   6.161  0.8990 -1.1306 -0.1703
  588MOL0     H77552   7.251   4.077   6.217 -1.2121 -2.1622  0.6522
  588MOL0     H77553   7.088   4.419   5.951 -1.2256 -1.4001  2.7988
  588MOL0     H77554   7.250   4.373   5.895  1.0578 -0.8305  1.1589
  588MOL0     H77555   7.352   4.500   6.081 -0.9427  0.2108  2.8416
  588MOL0     H77556   7.197   4.554   6.145  0.0229  2.4462 -0.3064
  588MOL0     H77557   7.293   4.589   5.863  1.2227  2.0553 -0.7861
  588MOL0     H77558   7.342   4.697   5.992 -0.7808 -0.2322  2.6694
  588MOL0     H77559   7.054   4.644   5.874 -0.6222  0.8293  0.0217
  588MOL0     H77560   7.069   4.738   6.015  0.8826  1.0716 -0.3725
  588MOL0     H77561   7.054   4.878   5.809 -0.8349 -2.4036 -0.2950
  588MOL0     H77562   7.202   4.806   5.748 -1.0389 -1.8659 -0.6631
  588MOL0     H77563   7.302   4.920   5.988 -0.5715  0.5867  1.2276
  588MOL0     H77564   7.138   5.003   5.992 -0.7867  0.2144 -1.0554
  588MOL0     H77565   7.341   5.001   5.777  0.0475 -2.7036  1.3547
  588MOL0     H77566   7.189   5.083   5.772 -0.0919  0.4512  1.7151
  588MOL0     H77567   7.392   5.247   5.844  0.1154 -1.2255 -0.5779
  588MOL0     H77568   7.417   5.123   5.964 -2.9147 -3.4899  0.4831
  588MOL0     H77569   7.075   5.319   5.896 -0.9846 -3.0768  0.7956
  588MOL0     H77570   6.965   5.506   6.079 -0.1586  0.6639 -0.0202
  588MOL0     H77571   6.950   5.438   6.239  0.3420 -0.0158 -1.0582
  588MOL0     H77572   6.804   5.378   5.986 -1.2402  2.8369  2.2666
  588MOL0     H77573   6.748   5.367   6.148 -0.9694 -0.6705 -0.8032
  588MOL0     H77574   6.742   5.138   6.048 -0.2811 -0.0974  0.1618
  588MOL0     H77575   6.922   5.137   6.059 -1.5761 -0.0784 -0.5888
  588MOL0     H77576   6.934   5.145   6.279 -0.5509  0.6810  0.9624
  588MOL0     H77577   6.822   5.017   6.246 -3.0679  0.1437  1.3653
  588MOL0     H77578   6.649   4.939   6.376  0.5471  1.4143  1.1441
  588MOL0     H77579   6.413   4.847   6.375  0.2832 -0.8357 -0.9363
  588MOL0     H77580   6.107   4.608   6.338  1.8079  0.9627  4.2746
  588MOL0     H77581   5.893   4.497   6.383 -0.8284  0.5242  0.6870
  588MOL0     H77582   5.740   4.484   6.595 -0.6167  3.0464  0.6004
  588MOL0     H77583   5.672   4.432   6.436  1.0437 -1.1514  0.8237
  588MOL0     H77584   5.465   4.495   6.491 -0.2331  1.8449  0.2233
  588MOL0     H77585   5.506   4.585   6.638  0.2946 -0.9322  1.9498
  588MOL0     H77586   5.574   4.362   6.756 -0.3552 -2.7914 -0.4790
  588MOL0     H77587   5.561   4.278   6.614 -3.0589 -1.9724  0.9887
  588MOL0     H77588   5.325   4.414   6.754 -1.4781  0.2410 -1.9078
  588MOL0     H77589   5.320   4.328   6.599 -1.4881 -0.7997  1.6812
  588MOL0     H77590   5.241   4.180   6.788  0.5446 -1.5412 -3.5551
  588MOL0     H77591   5.408   4.211   6.864  1.0801  4.5929 -0.8833
  588MOL0     H77592   5.495   4.059   6.692 -0.2754 -0.7397  0.7426
  588MOL0     H77593   5.373   4.101   6.581 -0.3106 -1.4555  0.5121
  588MOL0     H77594   5.315   3.940   6.828  2.7854  2.6036  0.1405
  588MOL0     H77595   5.199   3.989   6.703 -0.2161  3.2721  1.7335
  588MOL0     H77596   5.329   3.865   6.533 -0.2549 -3.0936  0.2854
  588MOL0     H77597   5.255   3.762   6.647 -0.9561  0.2536 -0.4975
  588MOL0     H77598   5.728   4.885   6.488 -2.7998 -2.9381 -0.3640
  588MOL0     H77599   5.895   4.982   6.434 -2.7378  0.1611 -0.3062
  588MOL0     H77600   6.292   5.276   6.315  0.1560  1.4981  1.5146
  588MOL0     H77601   6.517   5.329   6.294  0.9657  0.2590  0.1154
  588MOL0     H77602   7.085   4.202   5.838  0.3631 -0.0804  0.3012
  588MOL0     H77603   7.085   3.985   5.765 -2.9852  1.5505  0.2090
  588MOL0     H77604   7.302   3.548   5.970  1.5015 -1.6414 -0.2156
  588MOL0     H77605   7.391   3.333   5.897  0.3868 -3.7013 -1.5108
  588MOL0     H77606   7.460   3.106   5.778  0.1588  2.4941 -0.3089
  588MOL0     H77607   7.447   3.226   5.641  1.4001 -0.5191  0.6560
  588MOL0     H77608   7.328   3.081   5.518  2.0389  2.1318  0.4731
  588MOL0     H77609   7.481   3.005   5.561  0.2743  0.0120  0.1714
  588MOL0     H77610   7.212   2.921   5.695 -0.8320 -0.9820  0.0176
  588MOL0     H77611   7.360   2.851   5.734 -1.4636 -2.2049 -0.9851
  588MOL0     H77612   7.252   2.841   5.454 -0.8006 -0.3162 -0.1153
  588MOL0     H77613   7.412   2.787   5.489  0.7294  1.6152  0.4059
  588MOL0     H77614   7.153   2.462   5.595  1.8808 -0.6500 -0.9380
  588MOL0     H77615   7.056   3.278   5.649  1.7720 -1.3615 -1.1675
  588MOL0     H77616   6.983   3.506   5.679 -0.6591 -0.8205  3.1579
  589MOL0     O77617  11.432   2.711   2.026 -0.1816  0.6485  0.5189
  589MOL0     C77618  11.333   2.726   2.096  0.3768  1.2719 -0.5001
  589MOL0     O77619  11.220   2.661   2.087  0.1606 -0.1361  0.6481
  589MOL0     C77620  11.210   2.599   1.971 -0.0071  0.3226  0.0457
  589MOL0     C77621  11.220   2.671   1.850 -0.0998  0.4953 -0.1264
  589MOL0     C77622  11.210   2.607   1.723 -0.2463 -0.2560 -0.2223
  589MOL0     C77623  11.192   2.470   1.717  0.2359 -0.0797 -0.4508
  589MOL0     O77624  11.186   2.424   1.590  0.2355 -0.1816  0.3433
  589MOL0     C77625  11.190   2.284   1.569 -0.1687 -0.0949  0.7508
  589MOL0     C77626  11.212   2.237   1.424  0.4713  0.7545 -0.6089
  589MOL0     C77627  11.305   2.317   1.349 -0.2106  0.2112  0.3169
  589MOL0     C77628  11.371   2.247   1.230  0.4170 -0.3641 -0.1149
  589MOL0     C77629  11.276   2.209   1.114  0.9101  0.4246 -0.2299
  589MOL0     C77630  11.359   2.157   1.004 -0.2312  0.1956  0.0991
  589MOL0     C77631  11.278   2.115   0.881 -0.1166  0.1976 -0.4328
  589MOL0     C77632  11.348   2.121   0.745  0.6870 -0.0027  0.7627
  589MOL0     N77633  11.412   1.992   0.712  0.0150 -0.3427 -0.1290
  589MOL0     C77634  11.349   1.870   0.728 -0.2695 -0.8358 -0.3192
  589MOL0     C77635  11.445   1.781   0.690  0.1624  0.1341 -0.2986
  589MOL0     C77636  11.425   1.638   0.686 -0.3615  0.5897 -1.4410
  589MOL0     C77637  11.531   1.574   0.772 -0.5248  0.5527  0.3594
  589MOL0     C77638  11.535   1.419   0.773 -0.7191  0.3341  0.2192
  589MOL0     C77639  11.643   1.358   0.869  0.2047 -0.7709 -0.3665
  589MOL0     O77640  11.606   1.411   0.998  0.2710  0.1849  0.0490
  589MOL0     C77641  11.667   1.361   1.112 -0.1074 -0.1778 -0.3025
  589MOL0     C77642  11.732   1.238   1.114  0.2181 -0.4862  0.1862
  589MOL0     C77643  11.797   1.201   1.229  0.3271  0.0964  0.5221
  589MOL0     C77644  11.804   1.276   1.348 -0.0397 -0.8583 -0.7995
  589MOL0     C77645  11.890   1.221   1.462 -0.0474  0.1928 -1.0672
  589MOL0     O77646  11.978   1.128   1.441 -0.4134  0.4551 -0.2883
  589MOL0     C77647  12.068   1.071   1.534  0.8074  0.1434 -1.3420
  589MOL0     C77648  12.088   1.100   1.674  0.0001 -0.1121 -0.6339
  589MOL0     C77649  12.166   1.028   1.763 -0.6002 -0.1671  0.6701
  589MOL0     C77650  12.236   0.919   1.707 -0.4069  0.2119 -0.3289
  589MOL0     O77651  12.312   0.844   1.795  0.2679  0.1389 -0.4331
  589MOL0     C77652  12.343   0.704   1.764  0.1693 -0.5832  0.3849
  589MOL0     C77653  12.354   0.644   1.904 -0.0364  0.1754 -0.4547
  589MOL0     C77654  12.421   0.502   1.920  0.4535  0.5559 -0.3307
  589MOL0     C77655  12.428   0.462   2.068 -0.7287 -0.1715 -0.5462
  589MOL0     C77656  12.552   0.379   2.113  0.0327 -1.1958  0.5107
  589MOL0     C77657  12.528   0.328   2.260  0.2685 -0.4497  0.2800
  589MOL0     C77658  12.658   0.260   2.300 -0.4469 -0.2431 -0.9755
  589MOL0     C77659  12.670   0.251   2.457  0.8356 -0.4363 -0.4763
  589MOL0    Cl77660  12.844   0.196   2.511  0.4482 -0.0609  0.3811
  589MOL0     C77661  12.221   0.876   1.573 -0.1353 -1.0573  0.6666
  589MOL0     C77662  12.142   0.960   1.485 -0.0363 -0.4005  0.3724
  589MOL0     O77663  11.861   1.273   1.568  0.1432  0.1688  0.2962
  589MOL0     C77664  11.721   1.392   1.350 -0.2434 -0.3428  0.2668
  589MOL0     C77665  11.657   1.440   1.229  0.5182 -0.8609  0.6471
  589MOL0     N77666  11.559   1.852   0.654  0.2447  0.1472  0.0788
  589MOL0     N77667  11.538   1.976   0.659  0.1226  0.8232  0.2314
  589MOL0     C77668  11.188   2.396   1.842 -0.8730  0.3614 -0.0964
  589MOL0     C77669  11.183   2.462   1.961  0.1254 -1.0751 -1.4806
  589MOL0     C77670  11.348   2.783   2.229 -0.5906 -1.3400 -0.0011
  589MOL0     C77671  11.237   2.817   2.296 -0.3302 -0.6052  0.3515
  589MOL0     C77672  11.242   2.870   2.421  0.3364 -0.9626 -0.7512
  589MOL0     C77673  11.359   2.888   2.493 -0.7486 -0.9064 -0.1919
  589MOL0     O77674  11.351   2.928   2.618 -0.0842  0.1538 -0.4935
  589MOL0     C77675  11.472   2.952   2.689 -0.1968 -0.6179 -1.1225
  589MOL0     C77676  11.426   3.010   2.830 -0.4043  1.1901  0.9847
  589MOL0     C77677  11.531   2.971   2.940  0.3919  0.1134 -0.2460
  589MOL0     C77678  11.478   3.012   3.076  0.6926 -0.4549  0.7248
  589MOL0     C77679  11.525   2.937   3.188 -0.5625  0.5002 -0.2105
  589MOL0     C77680  11.558   2.876   3.288 -0.0787 -0.4961 -0.3692
  589MOL0     C77681  11.480   2.859   2.421 -0.4400  0.2902  0.0695
  589MOL0     C77682  11.472   2.810   2.287  0.8716 -0.5175  0.0173
  589MOL0     H77683  11.247   2.776   1.843 -0.1058  0.3868 -2.4063
  589MOL0     H77684  11.222   2.669   1.635  0.8940 -1.8571 -1.2402
  589MOL0     H77685  11.090   2.252   1.602 -0.0584 -1.2774 -0.0407
  589MOL0     H77686  11.267   2.236   1.629  2.0581  0.2223 -1.6497
  589MOL0     H77687  11.114   2.231   1.378  0.9942  1.9920 -1.9250
  589MOL0     H77688  11.256   2.136   1.428 -2.0245 -0.3818  0.2351
  589MOL0     H77689  11.380   2.353   1.420  0.8399  0.3750 -0.8603
  589MOL0     H77690  11.255   2.406   1.311 -0.5958  0.1103  0.5787
  589MOL0     H77691  11.449   2.311   1.187  0.1508 -0.7749 -1.2441
  589MOL0     H77692  11.411   2.154   1.271  1.4121  0.7904  1.6909
  589MOL0     H77693  11.226   2.302   1.088  2.0164  2.4851  4.0465
  589MOL0     H77694  11.202   2.135   1.147  0.2674  0.8052 -0.8134
  589MOL0     H77695  11.407   2.062   1.027 -2.7918 -0.8374  1.6182
  589MOL0     H77696  11.436   2.232   0.983 -0.4476  0.2767 -0.4153
  589MOL0     H77697  11.231   2.019   0.901 -0.6738  0.1246 -1.9049
  589MOL0     H77698  11.184   2.171   0.868  0.2302  0.9008  0.0500
  589MOL0     H77699  11.428   2.195   0.751  0.4045  0.1986  4.6394
  589MOL0     H77700  11.268   2.154   0.677 -1.9518 -0.2523  3.5539
  589MOL0     H77701  11.250   1.857   0.770 -1.3023  0.4147 -2.2287
  589MOL0     H77702  11.425   1.604   0.582  1.0460  0.0326 -1.2909
  589MOL0     H77703  11.324   1.620   0.723 -0.5144  2.3632 -0.9073
  589MOL0     H77704  11.521   1.616   0.873  2.1540  1.2671  0.3935
  589MOL0     H77705  11.631   1.604   0.739 -0.8151 -0.5202 -1.5975
  589MOL0     H77706  11.446   1.372   0.817 -2.6715  1.8008 -1.9469
  589MOL0     H77707  11.533   1.382   0.670 -1.9699  4.3138 -1.3829
  589MOL0     H77708  11.738   1.400   0.834 -0.9461  2.5858  0.1566
  589MOL0     H77709  11.645   1.249   0.868 -1.4176 -0.8275 -1.4275
  589MOL0     H77710  11.738   1.165   1.034  0.0785 -0.7209  0.3935
  589MOL0     H77711  11.857   1.111   1.222 -1.7059 -1.2479 -0.5484
  589MOL0     H77712  12.019   1.174   1.713 -2.1307 -3.7053  3.1843
  589MOL0     H77713  12.188   1.045   1.867  0.1197 -0.7238  0.6196
  589MOL0     H77714  12.435   0.712   1.706 -0.5496 -1.4787 -0.9217
  589MOL0     H77715  12.267   0.643   1.713 -0.3120 -0.6099  1.1227
  589MOL0     H77716  12.254   0.623   1.942  0.5810 -2.6680 -0.2390
  589MOL0     H77717  12.397   0.716   1.975  0.8510 -1.8349  1.1398
  589MOL0     H77718  12.520   0.508   1.873  0.9696  3.9131  0.8736
  589MOL0     H77719  12.362   0.421   1.878  2.7778 -1.8143  0.6618
  589MOL0     H77720  12.437   0.546   2.137  0.4552 -1.5229  1.0209
  589MOL0     H77721  12.328   0.425   2.091 -0.5462  1.9459  5.5936
  589MOL0     H77722  12.637   0.447   2.109 -2.0236  1.5958  1.2413
  589MOL0     H77723  12.583   0.296   2.049 -1.8419 -2.5541  1.2474
  589MOL0     H77724  12.440   0.268   2.283  0.0150  1.5506  6.1897
  589MOL0     H77725  12.513   0.416   2.323 -0.4262 -0.4114  0.0689
  589MOL0     H77726  12.657   0.159   2.257 -0.0685 -0.3286 -0.7875
  589MOL0     H77727  12.741   0.321   2.265  0.2870 -1.5853 -1.6657
  589MOL0     H77728  12.608   0.169   2.496  2.1843 -0.7240  1.1903
  589MOL0     H77729  12.653   0.349   2.503  0.4781 -1.4296  1.6230
  589MOL0     H77730  12.265   0.791   1.523  0.9724  0.4394 -1.0429
  589MOL0     H77731  12.132   0.942   1.379  0.9144  1.0657  0.0237
  589MOL0     H77732  11.717   1.461   1.434 -1.2474  0.8133 -0.6691
  589MOL0     H77733  11.599   1.531   1.238  2.7626  0.5862  1.1705
  589MOL0     H77734  11.179   2.288   1.851 -2.0912  0.5758  1.8511
  589MOL0     H77735  11.183   2.407   2.054  1.1850  1.6759  0.2451
  589MOL0     H77736  11.137   2.807   2.256 -0.0804 -2.0204  0.0212
  589MOL0     H77737  11.148   2.899   2.467  1.6279  2.3132  0.0693
  589MOL0     H77738  11.532   3.034   2.647  0.0918 -0.1151  0.2181
  589MOL0     H77739  11.525   2.858   2.704 -0.4049 -0.2660  2.6309
  589MOL0     H77740  11.399   3.116   2.830 -1.4865  0.9296  2.4153
  589MOL0     H77741  11.331   2.963   2.855 -0.9332  3.0812  2.7958
  589MOL0     H77742  11.627   3.016   2.916  0.0217  0.8942 -0.3175
  589MOL0     H77743  11.546   2.863   2.934 -1.3543 -0.0727 -3.2535
  589MOL0     H77744  11.495   3.120   3.080  0.7970 -0.2699 -2.2344
  589MOL0     H77745  11.368   3.008   3.080  0.4635  2.5920  0.2755
  589MOL0     H77746  11.595   2.835   3.379  2.1415  1.2081 -0.4082
  589MOL0     H77747  11.579   2.875   2.463  0.6068  2.0532 -2.7668
  589MOL0     H77748  11.564   2.793   2.232  1.9791  1.4150  1.2028
  590MOL0     O77749  11.214   3.106   9.149 -0.4201 -0.3479  0.5799
  590MOL0     C77750  11.333   3.135   9.157 -0.1947  0.2514  0.0775
  590MOL0     O77751  11.407   3.112   9.275 -0.3700  0.5846  0.2360
  590MOL0     C77752  11.352   3.113   9.401  0.7474 -0.3433 -0.5563
  590MOL0     C77753  11.439   3.144   9.502  0.1883 -0.2600  0.4784
  590MOL0     C77754  11.390   3.141   9.633  0.1536  0.5069  0.6117
  590MOL0     C77755  11.252   3.127   9.667  0.4450  1.3196 -0.0066
  590MOL0     O77756  11.210   3.151   9.806 -0.0516  0.2735  0.3702
  590MOL0     C77757  11.284   3.073   9.909  0.3185 -0.3003 -0.1596
  590MOL0     C77758  11.230   2.930   9.916 -0.4121  0.3887  0.0054
  590MOL0     C77759  11.300   2.836  10.016 -0.6895  0.4257 -0.2041
  590MOL0     C77760  11.232   2.852  10.156  0.3512 -0.2103  0.1642
  590MOL0     C77761  11.129   2.740  10.200 -0.5270  0.9066  0.1297
  590MOL0     C77762  11.117   2.732  10.353  0.8087 -0.3477  0.2086
  590MOL0     C77763  11.048   2.617  10.406  0.3016 -0.5701 -0.2815
  590MOL0     C77764  11.049   2.613  10.551 -0.0604  0.2580 -0.0621
  590MOL0     N77765  11.170   2.552  10.613  0.7719 -0.3275  0.6517
  590MOL0     C77766  11.274   2.629  10.653  0.1528 -0.1053 -0.1803
  590MOL0     C77767  11.355   2.542  10.716 -0.0291 -0.3434  0.0972
  590MOL0     C77768  11.474   2.570  10.802  0.4541  0.2726 -0.4732
  590MOL0     C77769  11.609   2.544  10.728 -0.6131  0.2904 -0.5395
  590MOL0     C77770  11.731   2.571  10.818 -0.9052 -0.6255  0.8206
  590MOL0     C77771  11.867   2.587  10.747  0.0665  0.4770  0.3182
  590MOL0     O77772  11.976   2.595  10.845 -0.0031 -0.2106  0.3717
  590MOL0     C77773  11.974   2.702  10.933  0.0284  0.2229 -0.1190
  590MOL0     C77774  11.941   2.671  11.065 -0.4110 -0.4292 -0.0810
  590MOL0     C77775  11.926   2.774  11.155  0.7949  0.6520 -0.9907
  590MOL0     C77776  11.950   2.907  11.116  0.7565  1.1145  0.1198
  590MOL0     C77777  11.943   3.003  11.225 -0.8329  0.0057 -0.2040
  590MOL0     O77778  12.003   2.968  11.339 -0.4024 -0.2552 -0.3440
  590MOL0     C77779  12.035   3.074  11.425  0.7400 -0.7314 -0.0014
  590MOL0     C77780  12.137   3.170  11.406  0.3033  0.2681 -0.6324
  590MOL0     C77781  12.168   3.259  11.512 -0.1492  0.6434 -0.4208
  590MOL0     C77782  12.096   3.270  11.626  0.0374 -0.5658  0.4776
  590MOL0     O77783  12.147   3.351  11.726 -0.1664  0.0156  0.3723
  590MOL0     C77784  12.088   3.343  11.858  0.5180  0.5107  0.1863
  590MOL0     C77785  11.976   3.446  11.873 -0.1673 -0.8186  0.2758
  590MOL0     C77786  12.026   3.592  11.871 -0.2222  0.3886  0.4984
  590MOL0     C77787  11.910   3.687  11.883  0.2460 -0.2554 -0.7038
  590MOL0     C77788  11.955   3.836  11.892  0.1547  0.9195  0.4105
  590MOL0     C77789  11.841   3.932  11.886  0.4808  0.1288 -0.5339
  590MOL0     C77790  11.889   4.077  11.884  0.2731  0.4311  0.4370
  590MOL0     C77791  11.783   4.183  11.864 -0.0237  0.8824  0.7744
  590MOL0    Cl77792  11.848   4.349  11.871 -0.0543  0.0912  0.4542
  590MOL0     C77793  11.993   3.174  11.646 -0.0503  0.2336  0.0554
  590MOL0     C77794  11.965   3.083  11.551  0.0518  0.4832  0.0480
  590MOL0     O77795  11.907   3.120  11.199 -0.7974 -0.2841  0.4355
  590MOL0     C77796  11.997   2.935  10.981  0.4622  0.0023 -0.2485
  590MOL0     C77797  11.996   2.835  10.893 -0.9336  0.6168 -0.2647
  590MOL0     N77798  11.297   2.408  10.694  0.0095 -0.1295 -0.0071
  590MOL0     N77799  11.193   2.422  10.628  0.0734 -0.2813  0.4884
  590MOL0     C77800  11.159   3.110   9.564 -0.3908  0.1096 -0.3214
  590MOL0     C77801  11.212   3.095   9.433 -0.2100  0.4376  0.2700
  590MOL0     C77802  11.422   3.167   9.039 -0.1097  0.2215  0.0213
  590MOL0     C77803  11.562   3.178   9.046  0.1763  0.8958  0.6417
  590MOL0     C77804  11.646   3.202   8.943  0.3619  1.5726  1.2222
  590MOL0     C77805  11.591   3.205   8.817  0.2593 -1.2754 -0.2725
  590MOL0     O77806  11.663   3.226   8.704 -0.4321  0.2666 -0.3048
  590MOL0     C77807  11.803   3.194   8.703  0.3829 -0.0902  1.9819
  590MOL0     C77808  11.827   3.042   8.670  0.6316  0.5455  0.2218
  590MOL0     C77809  11.950   2.981   8.725  0.1568 -0.2061  0.5193
  590MOL0     C77810  12.088   2.986   8.646 -0.7454  0.2989  0.7785
  590MOL0     C77811  12.192   2.895   8.692  0.2346 -0.7998 -0.1135
  590MOL0     C77812  12.273   2.825   8.752 -0.2657  0.5084  0.4809
  590MOL0     C77813  11.452   3.194   8.809 -0.5527 -0.0968  0.5011
  590MOL0     C77814  11.362   3.167   8.914  0.0482 -0.5986 -0.3055
  590MOL0     H77815  11.545   3.163   9.483  0.6393 -0.2073  2.7293
  590MOL0     H77816  11.462   3.161   9.712 -1.7976  2.0615  2.0845
  590MOL0     H77817  11.259   3.121  10.004 -4.0903  0.6111 -1.5749
  590MOL0     H77818  11.393   3.078   9.894  0.2601 -3.0619 -2.2803
  590MOL0     H77819  11.236   2.891   9.814 -1.4531  0.8010 -0.2212
  590MOL0     H77820  11.123   2.922   9.936 -0.0459  0.0761  2.1290
  590MOL0     H77821  11.399   2.882  10.023 -1.6644  2.7161 -0.5203
  590MOL0     H77822  11.307   2.738   9.967  0.5760 -0.7552  2.1905
  590MOL0     H77823  11.313   2.858  10.229  2.4366 -0.4526 -1.9775
  590MOL0     H77824  11.173   2.944  10.157  2.5772  1.2937  1.9652
  590MOL0     H77825  11.169   2.643  10.171  0.8278  1.2741  0.6979
  590MOL0     H77826  11.031   2.766  10.159 -0.4936 -0.8843 -1.1722
  590MOL0     H77827  11.076   2.828  10.385 -1.2391 -1.7838  2.1616
  590MOL0     H77828  11.220   2.723  10.390  0.1562  0.0438  2.2109
  590MOL0     H77829  10.945   2.610  10.370  0.9920 -0.3711 -2.3876
  590MOL0     H77830  11.089   2.519  10.377 -1.9249 -2.5400  2.6036
  590MOL0     H77831  10.963   2.555  10.585 -1.1999  3.0244  2.1934
  590MOL0     H77832  11.026   2.713  10.590 -2.7209 -1.2007  2.4807
  590MOL0     H77833  11.290   2.736  10.658 -1.2539  0.1695 -0.8808
  590MOL0     H77834  11.465   2.512  10.895 -2.5564  1.0180 -0.1740
  590MOL0     H77835  11.482   2.675  10.831 -2.3878  1.0525 -2.0351
  590MOL0     H77836  11.610   2.603  10.636  0.3071  0.1335 -0.6370
  590MOL0     H77837  11.622   2.436  10.711 -1.6999  0.4426 -2.6381
  590MOL0     H77838  11.714   2.661  10.877 -2.9862 -1.2993  1.3152
  590MOL0     H77839  11.740   2.494  10.896 -0.5996 -0.2357  1.1747
  590MOL0     H77840  11.865   2.678  10.686 -1.3576  1.0465  1.1553
  590MOL0     H77841  11.879   2.504  10.677  0.6178  1.0318 -0.2597
  590MOL0     H77842  11.926   2.567  11.093 -0.0825 -0.2048  0.9600
  590MOL0     H77843  11.908   2.761  11.261 -0.1575  3.5938 -0.7089
  590MOL0     H77844  12.189   3.179  11.311 -0.5906 -0.6526 -1.2303
  590MOL0     H77845  12.252   3.327  11.519  1.9351 -1.9033  0.8011
  590MOL0     H77846  12.161   3.369  11.935 -1.6917  1.4271  2.1232
  590MOL0     H77847  12.045   3.246  11.884 -0.5134  0.6184 -1.0101
  590MOL0     H77848  11.927   3.423  11.968 -0.5715 -3.7599 -0.5421
  590MOL0     H77849  11.916   3.436  11.781  2.2062  1.9057 -1.7378
  590MOL0     H77850  12.063   3.602  11.768 -1.2302  0.5096  0.1335
  590MOL0     H77851  12.101   3.611  11.948 -0.5162  1.6598  0.4860
  590MOL0     H77852  11.837   3.672  11.803  0.8212 -1.3359 -1.0349
  590MOL0     H77853  11.854   3.658  11.973 -1.3392 -2.2469 -2.2399
  590MOL0     H77854  12.020   3.856  11.806  1.9397 -3.2787  0.5638
  590MOL0     H77855  12.020   3.852  11.978  0.6896 -0.4445  0.2807
  590MOL0     H77856  11.775   3.922  11.972 -0.5381  1.0225 -1.1904
  590MOL0     H77857  11.779   3.923  11.797 -0.2505  2.4348 -0.3360
  590MOL0     H77858  11.947   4.098  11.974  0.4292  2.0893 -0.0148
  590MOL0     H77859  11.954   4.106  11.800  0.0557 -4.7573 -1.9445
  590MOL0     H77860  11.703   4.174  11.937 -0.2815 -0.6681  0.3205
  590MOL0     H77861  11.729   4.177  11.769  0.0719  1.5219  0.6716
  590MOL0     H77862  11.914   3.178  11.721  1.3183  4.0474  1.5439
  590MOL0     H77863  11.891   3.008  11.576  1.0619 -0.8449 -0.7959
  590MOL0     H77864  12.047   3.028  10.956  2.8291 -0.9341  0.6923
  590MOL0     H77865  12.021   2.857  10.790  1.3542 -0.6931 -0.0358
  590MOL0     H77866  11.053   3.097   9.583 -1.2387  1.0185 -3.7634
  590MOL0     H77867  11.135   3.068   9.362 -2.3700  1.7947  1.9604
  590MOL0     H77868  11.614   3.169   9.141  3.7784 -0.1164 -1.2796
  590MOL0     H77869  11.753   3.212   8.955  1.5917 -3.0176 -2.8097
  590MOL0     H77870  11.862   3.234   8.786 -0.0437  3.0339  0.9179
  590MOL0     H77871  11.850   3.247   8.619 -2.1908 -1.3942 -0.4860
  590MOL0     H77872  11.744   2.980   8.706  1.1632 -0.7137 -0.6559
  590MOL0     H77873  11.830   3.030   8.562  1.6751  1.6544  0.1016
  590MOL0     H77874  11.935   2.875   8.747 -2.4350 -0.7609 -3.1577
  590MOL0     H77875  11.977   3.028   8.821 -0.1631 -0.4443  0.7291
  590MOL0     H77876  12.068   2.971   8.539  1.6704 -0.6671  0.3975
  590MOL0     H77877  12.121   3.089   8.661  3.3277 -0.3718 -1.9710
  590MOL0     H77878  12.344   2.760   8.799  0.1928  1.8733  1.7475
  590MOL0     H77879  11.423   3.193   8.704  2.7141 -4.9153 -0.7382
  590MOL0     H77880  11.258   3.149   8.887  0.5028  3.0084 -6.3766
  591MOL0     O77881   4.961  10.100   1.047  0.6872  0.2131 -0.4786
  591MOL0     C77882   4.905   9.995   1.027 -0.2545 -0.7765  0.4353
  591MOL0     O77883   4.939   9.916   0.930  0.2371  0.0000  0.6819
  591MOL0     C77884   5.016   9.946   0.830 -0.2172 -0.5669 -0.2731
  591MOL0     C77885   5.123   9.872   0.789  0.1946  0.1090  1.4700
  591MOL0     C77886   5.177   9.898   0.660 -0.4042  0.4589 -0.2008
  591MOL0     C77887   5.138  10.004   0.581  1.0544 -0.0105 -0.6125
  591MOL0     O77888   5.171  10.027   0.451  0.4530  0.5200 -0.9599
  591MOL0     C77889   5.069  10.030   0.350  0.0274 -0.4147 -0.4692
  591MOL0     C77890   5.114   9.959   0.225  0.3640  0.0191 -0.9313
  591MOL0     C77891   5.239  10.027   0.171  0.2819  0.1534 -0.3640
  591MOL0     C77892   5.265   9.966   0.035 -0.5192  0.3004 -0.2233
  591MOL0     C77893   5.318  10.068  -0.064  1.5511 -0.2130 -0.7351
  591MOL0     C77894   5.431  10.157  -0.009 -0.2779 -0.5621  0.0865
  591MOL0     C77895   5.500  10.236  -0.128  0.0897  0.2427  0.0809
  591MOL0     C77896   5.638  10.300  -0.094  0.4020 -0.6661  0.6020
  591MOL0     N77897   5.745  10.192  -0.113  0.4154 -0.2197  0.3553
  591MOL0     C77898   5.854  10.179  -0.019 -0.0644  0.0668 -0.1706
  591MOL0     C77899   5.946  10.115  -0.082 -0.1926  0.1595  1.0141
  591MOL0     C77900   6.084  10.075  -0.027  0.2993  0.1604  0.1590
  591MOL0     C77901   6.125   9.930  -0.066  0.2389  1.1318 -0.6804
  591MOL0     C77902   6.212   9.858   0.038  0.3581  0.4433  0.1082
  591MOL0     C77903   6.334   9.941   0.084 -0.1192  0.4346  0.3259
  591MOL0     O77904   6.403   9.880   0.188 -0.0896  0.0075 -0.3336
  591MOL0     C77905   6.522   9.834   0.171  0.2619  0.0992  0.6691
  591MOL0     C77906   6.543   9.735   0.079 -0.4347  0.4483  0.9926
  591MOL0     C77907   6.672   9.677   0.055 -0.3170  0.5132 -0.2106
  591MOL0     C77908   6.781   9.719   0.142  0.2073 -0.3554  0.3216
  591MOL0     C77909   6.912   9.645   0.138 -0.3850 -0.3960  0.1914
  591MOL0     O77910   7.003   9.671   0.236 -0.8148 -0.6578  0.9882
  591MOL0     C77911   7.110   9.585   0.231  0.3512 -0.3483 -0.4331
  591MOL0     C77912   7.099   9.453   0.273  0.4182 -0.2251 -0.8207
  591MOL0     C77913   7.202   9.361   0.265  0.1466  0.9681  0.1396
  591MOL0     C77914   7.332   9.403   0.220  0.7049 -0.4576 -0.2147
  591MOL0     O77915   7.429   9.306   0.229 -0.3472 -0.1633  0.5163
  591MOL0     C77916   7.562   9.343   0.204  1.2635 -0.6481  0.7684
  591MOL0     C77917   7.648   9.216   0.196  0.0893 -0.2429  0.2372
  591MOL0     C77918   7.592   9.112   0.093 -0.0487 -0.3664  0.1610
  591MOL0     C77919   7.702   9.006   0.074  1.0314  0.3238  0.5080
  591MOL0     C77920   7.644   8.873   0.019  0.9882  1.3882  0.2652
  591MOL0     C77921   7.598   8.872  -0.131 -0.6919 -0.7922 -0.1718
  591MOL0     C77922   7.725   8.873  -0.219 -0.1818  1.2157  0.3985
  591MOL0     C77923   7.706   8.946  -0.347  0.6794  0.1632  0.7318
  591MOL0    Cl77924   7.833   8.918  -0.446  0.1448 -0.3645 -0.0302
  591MOL0     C77925   7.347   9.531   0.184  0.2877 -1.3853 -0.5908
  591MOL0     C77926   7.238   9.619   0.190  0.1146  1.1561  1.3616
  591MOL0     O77927   6.935   9.578   0.041 -0.0090  0.5435 -0.2431
  591MOL0     C77928   6.748   9.814   0.247  0.7934  0.0303  0.3680
  591MOL0     C77929   6.624   9.868   0.252  0.5820 -0.3723 -0.2725
  591MOL0     N77930   5.913  10.111  -0.215 -0.7205  0.3814 -0.4691
  591MOL0     N77931   5.799  10.160  -0.235 -0.7207 -0.0316 -0.3631
  591MOL0     C77932   5.044  10.095   0.633 -0.1897 -0.0053 -1.3063
  591MOL0     C77933   4.980  10.066   0.756 -0.2863  0.1728 -0.6110
  591MOL0     C77934   4.792   9.966   1.118 -0.6905  0.8304 -0.1779
  591MOL0     C77935   4.707   9.865   1.083  0.7872  0.7472 -0.1389
  591MOL0     C77936   4.605   9.824   1.162  1.1155  0.4260 -0.4573
  591MOL0     C77937   4.593   9.878   1.287 -0.0264 -0.5992  0.3495
  591MOL0     O77938   4.486   9.842   1.368  0.1789 -0.2637  0.1783
  591MOL0     C77939   4.445   9.937   1.474 -0.1334  0.2436 -0.2661
  591MOL0     C77940   4.521   9.888   1.594 -0.1406  0.1494  0.2676
  591MOL0     C77941   4.468   9.768   1.671 -0.5592  0.0522  0.3941
  591MOL0     C77942   4.552   9.730   1.793  0.4251  0.9572  0.5979
  591MOL0     C77943   4.685   9.674   1.747  0.7254  0.0724 -0.4558
  591MOL0     C77944   4.795   9.645   1.714 -0.4947 -0.2140  0.3473
  591MOL0     C77945   4.690   9.973   1.335  0.5154 -0.7871 -0.5422
  591MOL0     C77946   4.789  10.025   1.247 -0.8150 -0.2069  0.3004
  591MOL0     H77947   5.151   9.781   0.841  2.0641 -0.0512  0.2952
  591MOL0     H77948   5.249   9.835   0.610 -0.4512 -0.0599  0.3769
  591MOL0     H77949   5.031  10.131   0.329  0.6375  0.6176  2.7287
  591MOL0     H77950   4.976   9.986   0.389  0.0401  0.3123  0.4273
  591MOL0     H77951   5.031   9.943   0.156  0.1639 -1.0483 -0.4640
  591MOL0     H77952   5.136   9.861   0.268 -2.5621 -1.0156 -1.5603
  591MOL0     H77953   5.323  10.011   0.238 -1.9438  0.8031  2.7892
  591MOL0     H77954   5.218  10.134   0.170 -1.4144 -0.1061  1.6814
  591MOL0     H77955   5.329   9.880   0.056 -0.9715  0.2851  1.2019
  591MOL0     H77956   5.182   9.916  -0.015  0.4470 -1.4316 -0.1581
  591MOL0     H77957   5.239  10.139  -0.093  1.3404 -0.4058 -0.6401
  591MOL0     H77958   5.343  10.014  -0.156  0.1119 -1.5358 -0.3998
  591MOL0     H77959   5.504  10.092   0.039 -2.4861 -1.6428  2.1498
  591MOL0     H77960   5.395  10.225   0.068 -1.7995 -1.3969  0.1478
  591MOL0     H77961   5.517  10.163  -0.207  2.3229  1.0989 -0.2941
  591MOL0     H77962   5.445  10.324  -0.164 -0.1872 -0.7948 -2.1401
  591MOL0     H77963   5.632  10.335   0.010  0.1098  0.6479  0.1585
  591MOL0     H77964   5.644  10.386  -0.161 -3.1093 -2.7109 -2.7289
  591MOL0     H77965   5.843  10.217   0.082  0.5224 -0.4459  0.0909
  591MOL0     H77966   6.084  10.082   0.082 -0.7573 -5.0638  0.7451
  591MOL0     H77967   6.152  10.144  -0.078  0.9495 -2.2453 -2.4934
  591MOL0     H77968   6.174   9.934  -0.164  1.8940  0.5778  0.0977
  591MOL0     H77969   6.032   9.873  -0.079 -0.4544  1.3728  2.4235
  591MOL0     H77970   6.152   9.826   0.124  1.0511 -2.3271 -0.3372
  591MOL0     H77971   6.250   9.761   0.002  2.6083  1.7229 -1.1767
  591MOL0     H77972   6.295  10.033   0.128 -1.6072  0.2208 -0.4829
  591MOL0     H77973   6.397   9.960  -0.003 -0.6971  0.0456 -0.1887
  591MOL0     H77974   6.459   9.699   0.021  2.4328 -4.0634 -0.8843
  591MOL0     H77975   6.689   9.598  -0.017 -1.2038 -0.5997  0.7616
  591MOL0     H77976   6.997   9.416   0.288 -0.3529  1.1181 -2.4512
  591MOL0     H77977   7.205   9.262   0.309 -0.0591  2.0112  2.6547
  591MOL0     H77978   7.602   9.416   0.275  2.2713 -0.9850  0.5682
  591MOL0     H77979   7.574   9.393   0.107  0.9025 -3.4714 -0.8498
  591MOL0     H77980   7.671   9.176   0.295  1.1074  1.5056  0.7578
  591MOL0     H77981   7.746   9.254   0.166 -2.1516  3.9282 -2.7829
  591MOL0     H77982   7.559   9.153  -0.003 -0.8385 -0.4172  0.4037
  591MOL0     H77983   7.508   9.069   0.149 -2.2552 -1.0738 -3.3358
  591MOL0     H77984   7.776   9.043   0.002  2.2352 -1.7945  0.5975
  591MOL0     H77985   7.742   8.988   0.174 -1.4868 -1.2038  1.3190
  591MOL0     H77986   7.556   8.842   0.076  1.9805 -2.3196  0.0563
  591MOL0     H77987   7.716   8.791   0.024 -1.4805 -1.1360 -2.1415
  591MOL0     H77988   7.526   8.952  -0.151 -1.1134 -1.4079 -1.1798
  591MOL0     H77989   7.543   8.779  -0.149 -1.4919 -0.1586 -1.1244
  591MOL0     H77990   7.813   8.931  -0.188  0.5523  1.3570 -1.7650
  591MOL0     H77991   7.762   8.770  -0.221 -1.2088  0.7247  3.1877
  591MOL0     H77992   7.697   9.055  -0.339 -0.5346 -0.0076  1.9626
  591MOL0     H77993   7.616   8.909  -0.397  0.3229  2.1870 -0.2363
  591MOL0     H77994   7.435   9.579   0.143 -0.5189  1.8237  1.0839
  591MOL0     H77995   7.245   9.718   0.148 -0.8982 -0.8799 -4.5241
  591MOL0     H77996   6.819   9.842   0.324 -0.8047 -0.4685  2.1019
  591MOL0     H77997   6.598   9.946   0.323 -0.8334 -0.2406 -0.8956
  591MOL0     H77998   5.009  10.179   0.575 -1.5191  0.3697 -0.0120
  591MOL0     H77999   4.905  10.139   0.785 -0.0370 -0.4694  1.8777
  591MOL0     H78000   4.717   9.828   0.981  4.3727  2.0203 -0.3884
  591MOL0     H78001   4.527   9.758   1.127  1.5336 -0.1097 -0.4003
  591MOL0     H78002   4.339   9.928   1.497 -0.9326 -0.8633 -3.7236
  591MOL0     H78003   4.471  10.041   1.451 -1.5862  0.7065  0.0804
  591MOL0     H78004   4.620   9.863   1.554  0.0828  3.6787 -1.8121
  591MOL0     H78005   4.524   9.975   1.660 -3.0844 -0.7014  1.6750
  591MOL0     H78006   4.476   9.684   1.601  1.8429 -1.6593  2.5190
  591MOL0     H78007   4.363   9.779   1.698 -0.7042 -1.3117  0.4527
  591MOL0     H78008   4.588   9.811   1.857  3.2312 -0.6416  1.2040
  591MOL0     H78009   4.483   9.667   1.851 -1.3026 -0.0313 -2.2844
  591MOL0     H78010   4.888   9.602   1.683 -0.9579 -0.9899  0.0110
  591MOL0     H78011   4.687  10.024   1.430  3.0453 -1.8371  0.1926
  591MOL0     H78012   4.872  10.082   1.288 -0.2293 -0.8543  0.0447
  592MOL0     O78013  11.348   7.573   9.770 -0.3730  0.6123 -0.0336
  592MOL0     C78014  11.467   7.538   9.748  0.3075  0.3708  0.2954
  592MOL0     O78015  11.572   7.621   9.759  0.5857 -0.0580  0.9931
  592MOL0     C78016  11.547   7.756   9.796 -0.1061  0.3636 -0.8595
  592MOL0     C78017  11.608   7.857   9.724  0.4557 -0.1538 -0.1103
  592MOL0     C78018  11.592   7.999   9.752 -0.1167 -0.0363 -0.3093
  592MOL0     C78019  11.518   8.039   9.864 -0.3922 -0.2867  0.4540
  592MOL0     O78020  11.483   8.170   9.884 -0.8840  0.2218  0.7390
  592MOL0     C78021  11.594   8.269   9.880 -1.3941  0.7360 -0.8889
  592MOL0     C78022  11.549   8.414   9.911  0.6428 -1.1771 -0.7774
  592MOL0     C78023  11.519   8.497   9.784 -0.6184 -0.5458  0.5262
  592MOL0     C78024  11.388   8.441   9.708 -0.9435  0.8454 -0.0819
  592MOL0     C78025  11.332   8.534   9.600 -0.6949  0.4360  0.2414
  592MOL0     C78026  11.249   8.451   9.500  0.5473  0.6409 -0.3439
  592MOL0     C78027  11.201   8.534   9.387  0.9241 -0.0887  0.1871
  592MOL0     C78028  11.105   8.460   9.295  0.4057 -1.1030  0.8956
  592MOL0     N78029  10.980   8.434   9.369 -0.5356  0.2058 -0.1003
  592MOL0     C78030  10.882   8.529   9.407  0.4388  0.1209  0.1720
  592MOL0     C78031  10.816   8.454   9.505  0.1811 -0.5898  0.4391
  592MOL0     C78032  10.715   8.499   9.601 -0.2865 -0.0073  0.1896
  592MOL0     C78033  10.749   8.465   9.744 -0.1641  0.0796  0.9198
  592MOL0     C78034  10.882   8.518   9.788 -0.4638  0.6007 -0.2505
  592MOL0     C78035  10.884   8.667   9.802 -0.0903  0.2870  0.2338
  592MOL0     O78036  10.778   8.719   9.883 -0.0189  0.4425 -0.6506
  592MOL0     C78037  10.793   8.696  10.024 -1.4079  0.3461  0.5590
  592MOL0     C78038  10.677   8.719  10.102 -0.0998 -0.4561  0.0228
  592MOL0     C78039  10.675   8.699  10.242 -0.4700 -0.0802  0.6336
  592MOL0     C78040  10.805   8.660  10.301  0.1364 -0.2848  0.1581
  592MOL0     C78041  10.804   8.645  10.456 -0.3407 -0.1160  0.0303
  592MOL0     O78042  10.928   8.614  10.508 -0.9859 -0.8062 -0.0534
  592MOL0     C78043  10.937   8.578  10.642  0.1965  0.4178 -0.1146
  592MOL0     C78044  11.012   8.458  10.669 -0.6521  0.8058 -0.4008
  592MOL0     C78045  11.025   8.410  10.803  0.5519 -0.1864  0.1381
  592MOL0     C78046  10.958   8.485  10.910 -0.4020  0.4872  0.1533
  592MOL0     O78047  10.966   8.468  11.046 -0.2190 -0.2580 -1.1539
  592MOL0     C78048  11.066   8.379  11.102 -0.4751  0.5311  0.2286
  592MOL0     C78049  11.079   8.384  11.255 -0.0279 -0.5820  0.7869
  592MOL0     C78050  11.126   8.528  11.291 -0.1210  0.5199 -0.1942
  592MOL0     C78051  11.160   8.536  11.442  0.2753  0.2590 -0.6052
  592MOL0     C78052  11.042   8.570  11.538  0.2068  0.0990 -0.5322
  592MOL0     C78053  11.090   8.564  11.679 -0.8064  0.3048 -0.1719
  592MOL0     C78054  10.979   8.599  11.773 -0.2230  0.4592  0.1740
  592MOL0     C78055  11.032   8.572  11.911  0.8569 -0.7472 -0.1204
  592MOL0    Cl78056  11.080   8.402  11.949  0.1684 -0.2141  0.3504
  592MOL0     C78057  10.897   8.598  10.877  0.2164 -0.9714  0.2659
  592MOL0     C78058  10.882   8.645  10.748  0.0254  0.0817  0.6144
  592MOL0     O78059  10.696   8.642  10.511 -0.0051 -0.0131  0.2523
  592MOL0     C78060  10.917   8.645  10.226 -0.0956  0.5916 -0.1417
  592MOL0     C78061  10.908   8.654  10.090 -0.1866 -0.1408  0.2636
  592MOL0     N78062  10.864   8.330   9.505  0.4602 -0.1556 -0.0605
  592MOL0     N78063  10.965   8.312   9.428 -0.6870 -0.1046 -0.2547
  592MOL0     C78064  11.462   7.933   9.948 -0.3828  0.0204  0.2681
  592MOL0     C78065  11.476   7.799   9.914  0.1236  0.4815 -0.2273
  592MOL0     C78066  11.481   7.404   9.704 -0.7407  0.1996 -0.2845
  592MOL0     C78067  11.601   7.336   9.725  0.2329  0.7357  0.5320
  592MOL0     C78068  11.622   7.206   9.677  0.3031  0.5836  0.0767
  592MOL0     C78069  11.517   7.143   9.606 -0.2978  0.6409 -0.9570
  592MOL0     O78070  11.529   7.016   9.565 -0.4255  0.1328  0.2074
  592MOL0     C78071  11.454   6.924   9.641 -0.5000  0.0102  0.9714
  592MOL0     C78072  11.512   6.782   9.623  0.0812  0.3439 -0.0079
  592MOL0     C78073  11.646   6.768   9.695  0.8427 -0.5956 -0.7688
  592MOL0     C78074  11.719   6.637   9.661 -1.0656 -0.4301 -0.1839
  592MOL0     C78075  11.860   6.661   9.644  0.1056 -0.4963 -1.1267
  592MOL0     C78076  11.980   6.686   9.648 -0.1387  0.0020 -0.0463
  592MOL0     C78077  11.396   7.210   9.583 -0.0641 -0.0385 -0.1777
  592MOL0     C78078  11.379   7.340   9.635 -0.0817 -0.3874  0.4304
  592MOL0     H78079  11.661   7.840   9.630 -4.3349  3.1145 -3.8957
  592MOL0     H78080  11.647   8.072   9.693 -2.3679  0.9139 -1.3539
  592MOL0     H78081  11.646   8.265   9.784 -0.7190  1.0675 -0.5427
  592MOL0     H78082  11.665   8.233   9.955  0.4801  3.6234 -1.1256
  592MOL0     H78083  11.632   8.460   9.967  0.4310  2.9637 -3.4661
  592MOL0     H78084  11.463   8.433   9.976  1.2240  0.8292 -0.5199
  592MOL0     H78085  11.604   8.490   9.716 -0.5431 -0.8221  0.6463
  592MOL0     H78086  11.503   8.603   9.806  3.1141 -0.0427  1.3879
  592MOL0     H78087  11.424   8.347   9.666  1.1049  0.7423  1.7310
  592MOL0     H78088  11.307   8.429   9.781 -2.9485  0.4675 -2.2765
  592MOL0     H78089  11.414   8.586   9.550  0.2384 -2.1572 -1.1117
  592MOL0     H78090  11.271   8.620   9.630  2.1007  2.2778  1.0379
  592MOL0     H78091  11.159   8.431   9.558  0.4777  0.9498 -0.3443
  592MOL0     H78092  11.297   8.357   9.470  2.0008  1.5178 -0.8505
  592MOL0     H78093  11.139   8.615   9.426 -1.8008 -1.4639 -0.9960
  592MOL0     H78094  11.281   8.576   9.325 -1.6802 -0.8087 -4.0992
  592MOL0     H78095  11.148   8.373   9.245 -1.5227 -1.9572  0.6496
  592MOL0     H78096  11.061   8.520   9.215 -3.9188 -2.9033  1.6763
  592MOL0     H78097  10.871   8.631   9.372  1.7115 -0.0201 -0.6936
  592MOL0     H78098  10.622   8.457   9.561  0.9678 -2.8525 -0.0333
  592MOL0     H78099  10.699   8.607   9.595 -5.5006 -0.4994  0.6814
  592MOL0     H78100  10.758   8.356   9.744  2.3670  0.2313  0.0221
  592MOL0     H78101  10.669   8.493   9.813  0.3534  0.2913  1.4334
  592MOL0     H78102  10.900   8.465   9.882 -0.8500 -1.4389 -1.2531
  592MOL0     H78103  10.957   8.481   9.717  0.4445  0.7006  0.6455
  592MOL0     H78104  10.868   8.698   9.698  2.5710  0.3329 -0.2372
  592MOL0     H78105  10.983   8.710   9.822 -1.4470  2.9725  1.6957
  592MOL0     H78106  10.586   8.763  10.063 -0.0317  2.8509  3.0929
  592MOL0     H78107  10.585   8.707  10.302 -0.8414 -2.8284  0.5264
  592MOL0     H78108  11.065   8.408  10.589  0.6187  2.0798 -0.3802
  592MOL0     H78109  11.079   8.317  10.816 -1.3826 -1.5998 -1.4617
  592MOL0     H78110  11.164   8.397  11.059  1.1111 -3.2903  1.7509
  592MOL0     H78111  11.038   8.277  11.073  1.8082  0.1628 -0.8705
  592MOL0     H78112  11.155   8.309  11.280 -0.6931 -2.4205 -2.2427
  592MOL0     H78113  10.983   8.356  11.299 -2.2637  0.1926 -3.1656
  592MOL0     H78114  11.043   8.597  11.274  1.6090  2.6229 -0.5058
  592MOL0     H78115  11.209   8.558  11.226 -1.6258  1.6037 -1.7092
  592MOL0     H78116  11.215   8.446  11.471 -2.0777 -2.1125 -2.9355
  592MOL0     H78117  11.235   8.613  11.462 -0.3084  0.5614  0.4910
  592MOL0     H78118  10.965   8.492  11.532  2.5536 -2.5349  0.9472
  592MOL0     H78119  11.009   8.674  11.535 -1.4205 -0.3663  0.2948
  592MOL0     H78120  11.181   8.620  11.704  0.0960 -1.0634 -0.3101
  592MOL0     H78121  11.108   8.458  11.700 -4.4830 -0.0622  2.1674
  592MOL0     H78122  10.943   8.702  11.776 -0.7200  0.2918  0.0254
  592MOL0     H78123  10.906   8.520  11.754  1.7327 -1.9659  1.9416
  592MOL0     H78124  10.946   8.601  11.972  1.5288 -2.7142  1.9259
  592MOL0     H78125  11.109   8.643  11.943  1.2042 -1.9374  1.9069
  592MOL0     H78126  10.859   8.658  10.959 -1.8917 -3.7791  1.5083
  592MOL0     H78127  10.819   8.731  10.729 -2.3268 -1.6720  0.0010
  592MOL0     H78128  11.010   8.634  10.281 -0.6965 -1.2368  0.5979
  592MOL0     H78129  10.998   8.638  10.032 -1.5212 -0.9014 -1.7084
  592MOL0     H78130  11.401   7.963  10.032 -0.4163  1.1267 -0.1253
  592MOL0     H78131  11.425   7.723   9.971 -0.7855 -2.0957 -4.0952
  592MOL0     H78132  11.691   7.370   9.776  2.0310 -1.3122 -1.0263
  592MOL0     H78133  11.712   7.147   9.685 -0.7228 -1.2073 -0.9203
  592MOL0     H78134  11.350   6.916   9.610 -0.6482  0.3743  1.3646
  592MOL0     H78135  11.459   6.941   9.749  2.5277 -0.1928  0.9652
  592MOL0     H78136  11.437   6.711   9.661 -0.0082  0.6249  0.3459
  592MOL0     H78137  11.517   6.755   9.517  1.0771  0.1563  0.0789
  592MOL0     H78138  11.629   6.772   9.803 -0.3058 -2.2067 -0.8514
  592MOL0     H78139  11.716   6.845   9.660  0.7766 -1.3143 -2.5732
  592MOL0     H78140  11.707   6.568   9.745  2.0637  0.5204  1.1750
  592MOL0     H78141  11.675   6.590   9.573  0.5086 -1.0668 -0.6643
  592MOL0     H78142  12.083   6.711   9.635 -0.1086  0.3048  0.7049
  592MOL0     H78143  11.317   7.152   9.537 -1.5628 -0.6033  2.8399
  592MOL0     H78144  11.287   7.391   9.609 -0.3852 -0.5523  1.1623
  593MOL0     O78145   7.371  10.034   6.517 -0.3917 -0.2389 -0.6661
  593MOL0     C78146   7.484   9.991   6.521  0.1884  0.2802  1.2660
  593MOL0     O78147   7.507   9.860   6.499  0.0001 -0.3124 -0.6099
  593MOL0     C78148   7.399   9.767   6.483  0.3778 -0.4366  0.5973
  593MOL0     C78149   7.385   9.669   6.388 -0.3299 -0.0575  0.8163
  593MOL0     C78150   7.281   9.575   6.393 -0.5038 -0.0293  0.0312
  593MOL0     C78151   7.172   9.591   6.482  0.0297  0.0739 -0.1454
  593MOL0     O78152   7.068   9.498   6.510 -0.0283 -0.1286  0.3571
  593MOL0     C78153   7.052   9.391   6.420 -0.7538  0.4024  0.3932
  593MOL0     C78154   6.943   9.290   6.467  0.1320 -1.1897  0.1808
  593MOL0     C78155   6.958   9.157   6.402 -0.0976 -0.2412  0.3472
  593MOL0     C78156   7.009   9.158   6.256 -0.2128 -0.1029 -0.4135
  593MOL0     C78157   7.015   9.020   6.202 -0.1856  0.9082 -0.6450
  593MOL0     C78158   7.026   9.035   6.056  0.1834  0.3387  0.2981
  593MOL0     C78159   7.008   8.900   5.970 -0.1231  0.9422 -0.7471
  593MOL0     C78160   7.124   8.803   6.005 -0.4961  0.7635 -1.4499
  593MOL0     N78161   7.255   8.802   5.936 -0.3542 -0.6456 -1.2547
  593MOL0     C78162   7.281   8.736   5.818  0.0095 -0.8177  0.8279
  593MOL0     C78163   7.422   8.751   5.792 -0.1503 -1.1880 -0.4075
  593MOL0     C78164   7.497   8.699   5.672 -0.2554 -0.6340 -0.4377
  593MOL0     C78165   7.523   8.540   5.676 -0.7234 -0.1854 -0.6932
  593MOL0     C78166   7.588   8.489   5.814 -0.8339  0.1723  0.0593
  593MOL0     C78167   7.690   8.579   5.877  0.9187  0.0168  0.2385
  593MOL0     O78168   7.805   8.558   5.808 -0.4274 -0.0380  0.5085
  593MOL0     C78169   7.907   8.635   5.858  0.9421 -1.3001  0.6257
  593MOL0     C78170   7.992   8.595   5.951 -1.0837 -0.0841  1.3116
  593MOL0     C78171   8.104   8.676   5.985  0.6785 -0.2589  0.0416
  593MOL0     C78172   8.119   8.801   5.926 -0.0711 -0.5138  0.6376
  593MOL0     C78173   8.241   8.888   5.950 -1.4099 -0.2940 -0.9244
  593MOL0     O78174   8.222   9.021   5.932  0.8025 -0.7626  0.1684
  593MOL0     C78175   8.318   9.118   5.975 -0.9664 -0.1058  0.0981
  593MOL0     C78176   8.415   9.106   6.078  0.3652  0.5112  1.1412
  593MOL0     C78177   8.490   9.212   6.114 -0.4914  0.6479 -0.4282
  593MOL0     C78178   8.476   9.336   6.047 -0.7392  0.1070 -0.3079
  593MOL0     O78179   8.543   9.446   6.083  0.0463 -0.6977  1.1277
  593MOL0     C78180   8.684   9.422   6.130 -0.7000  0.1899 -0.4037
  593MOL0     C78181   8.773   9.544   6.134 -0.0862  0.1300 -0.4616
  593MOL0     C78182   8.723   9.646   6.243  0.6076  0.1083 -0.2488
  593MOL0     C78183   8.723   9.589   6.393 -0.2064 -0.3902  0.4649
  593MOL0     C78184   8.739   9.694   6.508  0.2049  0.2920  0.0840
  593MOL0     C78185   8.869   9.775   6.519  0.3224 -0.1021 -0.7226
  593MOL0     C78186   8.963   9.732   6.631  1.3248 -0.1916  0.8564
  593MOL0     C78187   8.907   9.730   6.771 -0.6070 -0.1400 -0.7392
  593MOL0    Cl78188   8.900   9.906   6.837 -0.5956  0.1069 -0.1815
  593MOL0     C78189   8.379   9.350   5.947  0.0888  0.5250  0.2367
  593MOL0     C78190   8.309   9.234   5.905  1.1445  0.5834 -0.0903
  593MOL0     O78191   8.339   8.832   5.999 -0.5141  0.5528 -0.4432
  593MOL0     C78192   8.024   8.854   5.845  0.0326 -0.3203 -0.5141
  593MOL0     C78193   7.915   8.771   5.808  0.8724  0.2043  0.3189
  593MOL0     N78194   7.472   8.828   5.895 -0.4269 -0.1091  0.3527
  593MOL0     N78195   7.376   8.862   5.981  0.2805  0.1625 -0.0973
  593MOL0     C78196   7.183   9.687   6.581 -0.0760 -0.3890 -0.0015
  593MOL0     C78197   7.290   9.776   6.583 -0.2486 -0.0869  0.5745
  593MOL0     C78198   7.600  10.082   6.523  0.1127 -0.4488 -0.5325
  593MOL0     C78199   7.733  10.053   6.487  0.3066  0.3444 -0.2199
  593MOL0     C78200   7.822  10.157   6.489  0.1762 -0.4524  0.1228
  593MOL0     C78201   7.792  10.291   6.521  0.2735  0.1059  0.0747
  593MOL0     O78202   7.892  10.396   6.517  0.3799 -0.4470 -0.0044
  593MOL0     C78203   7.973  10.403   6.397  0.4853  0.2658  0.2563
  593MOL0     C78204   7.957  10.537   6.325 -0.0770  0.1953  0.2886
  593MOL0     C78205   7.828  10.565   6.253 -0.8210 -0.3145 -0.0533
  593MOL0     C78206   7.791  10.708   6.258  0.2003 -0.1068  0.2581
  593MOL0     C78207   7.667  10.737   6.183 -0.1994 -0.6259 -0.1895
  593MOL0     C78208   7.556  10.763   6.144 -0.2510  0.5323  0.5418
  593MOL0     C78209   7.668  10.316   6.559  0.5627  0.2525  0.7760
  593MOL0     C78210   7.576  10.217   6.564  0.1323 -0.2375 -0.4909
  593MOL0     H78211   7.452   9.657   6.303 -1.9914 -3.1195 -0.2025
  593MOL0     H78212   7.297   9.491   6.326  1.0985  0.7436 -0.6176
  593MOL0     H78213   7.146   9.337   6.416 -2.0113 -2.1072  1.9538
  593MOL0     H78214   7.030   9.428   6.320  1.5020 -1.6063 -0.9554
  593MOL0     H78215   6.848   9.334   6.435 -0.4352 -1.3379  1.6143
  593MOL0     H78216   6.943   9.275   6.575  2.2231  0.7146  0.5351
  593MOL0     H78217   6.856   9.119   6.400 -0.6971  1.0021  3.1107
  593MOL0     H78218   7.022   9.091   6.462  0.0686 -1.2934 -0.9291
  593MOL0     H78219   6.942   9.231   6.209 -1.5197 -0.1898  1.2172
  593MOL0     H78220   7.113   9.191   6.245 -0.3175  1.9724  3.1649
  593MOL0     H78221   6.930   8.958   6.232  0.9957  0.4526  2.0318
  593MOL0     H78222   7.101   8.967   6.242 -1.9140 -1.4493  0.1427
  593MOL0     H78223   7.126   9.060   6.021  0.9114 -0.7750  1.4832
  593MOL0     H78224   6.944   9.100   6.024 -1.4945 -0.6634  2.3231
  593MOL0     H78225   6.913   8.863   6.011  0.4650  2.7090  2.5856
  593MOL0     H78226   7.002   8.897   5.861  0.4240 -0.9224 -0.7617
  593MOL0     H78227   7.088   8.702   5.985 -1.3801  1.3530 -3.0120
  593MOL0     H78228   7.155   8.820   6.108 -1.8262  1.3684 -1.1309
  593MOL0     H78229   7.211   8.695   5.746  3.4549 -0.0604 -3.3840
  593MOL0     H78230   7.589   8.758   5.661 -2.2143  2.8046  0.3588
  593MOL0     H78231   7.447   8.712   5.576  3.7183  0.0208 -2.6231
  593MOL0     H78232   7.589   8.508   5.594  1.1629 -1.2195  1.1274
  593MOL0     H78233   7.424   8.496   5.666 -0.9947 -1.0729  3.8324
  593MOL0     H78234   7.510   8.456   5.883  0.3949 -4.1873 -0.3192
  593MOL0     H78235   7.642   8.397   5.789 -1.8022 -0.1154 -1.0972
  593MOL0     H78236   7.706   8.549   5.981  3.0039  0.4144  0.0883
  593MOL0     H78237   7.663   8.685   5.871  1.4320  0.0739 -1.2585
  593MOL0     H78238   7.979   8.491   5.981 -2.3289 -0.1677  0.5235
  593MOL0     H78239   8.184   8.638   6.049  1.1282  0.8717  0.1915
  593MOL0     H78240   8.435   9.015   6.134  3.5437  1.4219  1.6984
  593MOL0     H78241   8.568   9.175   6.181  1.9073  0.5141 -3.1092
  593MOL0     H78242   8.735   9.354   6.062  0.2489  0.5450 -0.0739
  593MOL0     H78243   8.686   9.368   6.225  0.2211 -3.4086 -2.3154
  593MOL0     H78244   8.774   9.580   6.031 -2.5965  0.6315 -0.3847
  593MOL0     H78245   8.873   9.509   6.160 -0.5506  0.3410  1.8468
  593MOL0     H78246   8.626   9.695   6.227  1.0010  1.4885  1.2178
  593MOL0     H78247   8.787   9.735   6.236  1.5484 -0.6414 -1.3890
  593MOL0     H78248   8.636   9.522   6.393 -1.0821  0.6462 -1.4803
  593MOL0     H78249   8.819   9.538   6.395 -0.5352 -0.9967  1.6609
  593MOL0     H78250   8.730   9.639   6.602  0.7988 -2.2146 -1.2412
  593MOL0     H78251   8.651   9.758   6.498 -0.9123 -1.2137 -0.1241
  593MOL0     H78252   8.849   9.882   6.521 -2.4961 -0.5464 -0.5009
  593MOL0     H78253   8.925   9.761   6.427  0.8874  0.7078 -0.5076
  593MOL0     H78254   8.974   9.626   6.602  1.3709 -0.3024  1.2788
  593MOL0     H78255   9.054   9.788   6.609 -0.6291  1.3381 -5.8060
  593MOL0     H78256   8.974   9.671   6.834  0.7998  3.3051  1.2733
  593MOL0     H78257   8.808   9.684   6.766 -0.2122 -0.8967 -2.2127
  593MOL0     H78258   8.381   9.443   5.892  1.6101 -0.5884 -1.7213
  593MOL0     H78259   8.225   9.238   5.836 -1.0029 -0.7811  2.2785
  593MOL0     H78260   8.027   8.954   5.805 -0.0804  0.6623  1.7538
  593MOL0     H78261   7.840   8.803   5.736 -1.2256 -3.1873  0.7662
  593MOL0     H78262   7.103   9.683   6.655 -1.1085  1.4938 -0.9554
  593MOL0     H78263   7.292   9.853   6.660  0.9976  1.1175 -0.6221
  593MOL0     H78264   7.753   9.951   6.455  1.6745  0.6906 -0.5402
  593MOL0     H78265   7.928  10.138   6.472  0.0532 -3.2396  1.8585
  593MOL0     H78266   7.953  10.317   6.333  1.1834  1.5809 -1.8495
  593MOL0     H78267   8.078  10.394   6.427  0.4102 -1.0192  0.1830
  593MOL0     H78268   7.989  10.620   6.388 -0.6910 -1.8117  3.4756
  593MOL0     H78269   8.034  10.525   6.247  0.1154 -5.0977  0.9311
  593MOL0     H78270   7.751  10.500   6.297 -1.8053  0.6944 -0.2520
  593MOL0     H78271   7.817  10.521   6.153  3.1183  2.5878 -2.0532
  593MOL0     H78272   7.784  10.736   6.363 -0.7228 -0.5685  0.3275
  593MOL0     H78273   7.861  10.779   6.212  0.7806  0.1945  1.5725
  593MOL0     H78274   7.465  10.794   6.097 -0.3357  0.4848  0.6750
  593MOL0     H78275   7.637  10.416   6.589 -0.8047 -0.4212  1.7441
  593MOL0     H78276   7.481  10.250   6.604 -0.6078 -3.1513  0.4082
  594MOL0     O78277   0.364   6.117   7.964 -0.1207  0.4468 -0.6141
  594MOL0     C78278   0.305   6.179   7.885 -0.2313  0.9588 -0.3272
  594MOL0     O78279   0.350   6.290   7.823  0.4771 -0.3390  0.2764
  594MOL0     C78280   0.484   6.297   7.790 -0.3968  0.4524  0.0720
  594MOL0     C78281   0.525   6.428   7.775 -0.3329  1.0031  0.6810
  594MOL0     C78282   0.656   6.463   7.748 -1.0722 -0.5987 -0.6582
  594MOL0     C78283   0.740   6.356   7.725 -0.7648 -0.7375  0.3520
  594MOL0     O78284   0.863   6.400   7.689 -0.4898  0.2608 -0.0509
  594MOL0     C78285   0.943   6.321   7.596  1.2822  0.0380 -0.8597
  594MOL0     C78286   1.073   6.403   7.588 -0.2145  0.4408  0.8158
  594MOL0     C78287   1.178   6.368   7.699  0.7025  0.1316  0.7790
  594MOL0     C78288   1.316   6.418   7.681  0.4893  0.5305  0.1855
  594MOL0     C78289   1.401   6.341   7.786  0.2565 -1.1673 -0.3923
  594MOL0     C78290   1.551   6.377   7.765  0.5183 -0.0970  0.0035
  594MOL0     C78291   1.649   6.281   7.840 -0.2397  0.1837  0.0296
  594MOL0     C78292   1.635   6.319   7.987  0.1254 -0.4682  0.1072
  594MOL0     N78293   1.726   6.255   8.079 -0.7029  0.6249  0.3256
  594MOL0     C78294   1.724   6.262   8.217 -0.0471  0.5773 -0.9933
  594MOL0     C78295   1.785   6.147   8.265  0.2841 -1.0283  0.3453
  594MOL0     C78296   1.840   6.115   8.396 -0.8922  0.8561 -0.3822
  594MOL0     C78297   1.992   6.154   8.415  0.7738 -0.7108 -0.2549
  594MOL0     C78298   2.032   6.126   8.553  0.8801 -0.4438 -0.5166
  594MOL0     C78299   2.175   6.143   8.601 -0.2394 -0.1742 -0.4062
  594MOL0     O78300   2.211   6.282   8.597 -0.2711 -0.9269 -0.0110
  594MOL0     C78301   2.293   6.336   8.690  1.5933  0.1166 -0.0264
  594MOL0     C78302   2.272   6.465   8.736 -0.7087 -0.9928 -0.2504
  594MOL0     C78303   2.356   6.523   8.828 -0.2052  0.2642 -0.5230
  594MOL0     C78304   2.470   6.454   8.883  1.0455 -0.3627 -0.1138
  594MOL0     C78305   2.559   6.511   8.981  0.3794 -0.0296 -0.6597
  594MOL0     O78306   2.688   6.503   8.951 -0.2944  0.0255 -0.4285
  594MOL0     C78307   2.782   6.543   9.054  0.5475 -0.1529 -0.5136
  594MOL0     C78308   2.877   6.450   9.107  0.1432 -0.1569 -1.0787
  594MOL0     C78309   2.968   6.499   9.195 -0.6943 -0.0454 -0.7810
  594MOL0     C78310   2.958   6.623   9.255  0.1547 -0.6870  0.0920
  594MOL0     O78311   3.034   6.673   9.363 -0.1977  0.7261  1.3313
  594MOL0     C78312   3.093   6.576   9.450 -0.5038  0.0060  0.2007
  594MOL0     C78313   3.244   6.582   9.422 -0.2605  0.2850  0.4082
  594MOL0     C78314   3.300   6.712   9.484  0.0726 -0.8395  0.3981
  594MOL0     C78315   3.453   6.727   9.503 -0.1844 -0.2103 -0.5226
  594MOL0     C78316   3.537   6.719   9.377  0.2117  0.4868 -0.7569
  594MOL0     C78317   3.671   6.652   9.419  0.3944 -0.5936  0.1236
  594MOL0     C78318   3.750   6.737   9.518  0.3947 -0.4586 -1.0597
  594MOL0     C78319   3.904   6.720   9.500  0.3780  0.6989 -0.4028
  594MOL0    Cl78320   3.928   6.790   9.342  0.5507 -0.2787 -1.0808
  594MOL0     C78321   2.871   6.717   9.200 -1.0425 -0.8324 -0.3140
  594MOL0     C78322   2.780   6.677   9.099  0.6301  1.3055 -0.2570
  594MOL0     O78323   2.511   6.557   9.084  0.1446  0.9001  0.5184
  594MOL0     C78324   2.490   6.323   8.832 -0.5939  0.2982  0.4378
  594MOL0     C78325   2.398   6.265   8.740 -0.3973  0.2904 -0.3398
  594MOL0     N78326   1.829   6.078   8.151 -0.3746 -0.7154 -0.9712
  594MOL0     N78327   1.789   6.137   8.053  0.0630 -0.3885  1.3508
  594MOL0     C78328   0.701   6.219   7.726  0.5879  0.5569 -0.5705
  594MOL0     C78329   0.574   6.185   7.768  0.0236 -0.4194 -0.2267
  594MOL0     C78330   0.162   6.134   7.863 -0.3478 -0.5885  0.8127
  594MOL0     C78331   0.125   6.008   7.910 -0.1658  1.2227 -1.0798
  594MOL0     C78332  -0.009   5.968   7.909 -1.3625 -0.2009 -0.2189
  594MOL0     C78333  -0.109   6.056   7.841 -0.2243  1.3992 -0.8020
  594MOL0     O78334  -0.242   6.024   7.828 -0.4079  0.4640 -0.1232
  594MOL0     C78335  -0.301   5.898   7.879  0.0573  0.8835  0.9271
  594MOL0     C78336  -0.423   5.871   7.791  0.1477 -0.4103 -0.8597
  594MOL0     C78337  -0.519   5.761   7.815 -0.1151  0.4269 -0.3541
  594MOL0     C78338  -0.462   5.622   7.841  0.8227 -0.1820 -0.2536
  594MOL0     C78339  -0.386   5.552   7.730  0.1026  0.2138 -0.0639
  594MOL0     C78340  -0.306   5.504   7.648  0.2944 -0.6230 -0.2739
  594MOL0     C78341  -0.069   6.178   7.803 -0.1610 -0.7680 -0.2618
  594MOL0     C78342   0.064   6.225   7.816  0.2558  0.0717 -1.1259
  594MOL0     H78343   0.455   6.506   7.801 -0.0893  1.4162  0.1266
  594MOL0     H78344   0.676   6.570   7.751  1.6553 -1.0422 -1.1502
  594MOL0     H78345   0.894   6.327   7.498  0.8568  2.1553 -0.5682
  594MOL0     H78346   0.971   6.217   7.614  2.9813 -0.2719 -4.3420
  594MOL0     H78347   1.058   6.511   7.579 -1.5144  0.3563  1.7660
  594MOL0     H78348   1.125   6.380   7.494 -1.2497  0.8663  0.1174
  594MOL0     H78349   1.180   6.260   7.717 -1.7421  0.1813  1.6473
  594MOL0     H78350   1.140   6.413   7.792 -2.6049 -0.6432 -0.0626
  594MOL0     H78351   1.350   6.397   7.579 -2.0051  0.6364 -0.7196
  594MOL0     H78352   1.323   6.526   7.696  1.7849  0.3978  0.7693
  594MOL0     H78353   1.402   6.232   7.776  2.2312 -1.2851  0.5466
  594MOL0     H78354   1.368   6.379   7.884 -0.1004  1.4745 -1.4578
  594MOL0     H78355   1.555   6.483   7.790 -0.2020  0.8652 -3.4833
  594MOL0     H78356   1.573   6.360   7.659  0.0171 -2.5806  0.2319
  594MOL0     H78357   1.618   6.177   7.830 -1.9788  0.6047  0.7593
  594MOL0     H78358   1.755   6.280   7.814  0.1490 -4.9028  0.8234
  594MOL0     H78359   1.533   6.290   8.015 -0.2668 -0.3750 -1.1733
  594MOL0     H78360   1.651   6.424   8.013  0.5341 -0.4952 -0.0413
  594MOL0     H78361   1.663   6.328   8.278 -4.3473 -2.8959 -1.0370
  594MOL0     H78362   1.815   6.012   8.424 -5.3187  1.7660 -0.3936
  594MOL0     H78363   1.790   6.172   8.475 -1.0972 -0.4161  0.4271
  594MOL0     H78364   2.001   6.262   8.403  0.2039 -0.8469 -2.3015
  594MOL0     H78365   2.047   6.104   8.335 -0.6519 -0.8315 -1.2094
  594MOL0     H78366   1.972   6.196   8.611  0.0943 -2.5373  1.3392
  594MOL0     H78367   1.990   6.031   8.588 -2.9994  1.5653  0.7822
  594MOL0     H78368   2.250   6.079   8.554  1.7703 -1.5602  4.0853
  594MOL0     H78369   2.176   6.106   8.704  2.0897 -1.8487 -0.9327
  594MOL0     H78370   2.189   6.517   8.689 -1.2712 -0.7592  0.9420
  594MOL0     H78371   2.337   6.624   8.863  2.2454  2.0588 -3.8677
  594MOL0     H78372   2.879   6.346   9.077  1.1993 -1.6281  3.3579
  594MOL0     H78373   3.034   6.422   9.235 -3.0690 -1.1357  1.2571
  594MOL0     H78374   3.064   6.472   9.431 -2.2260  0.5279 -0.2071
  594MOL0     H78375   3.070   6.608   9.552  1.8007  0.5096  0.6106
  594MOL0     H78376   3.276   6.572   9.318  3.2356 -1.0761  1.4370
  594MOL0     H78377   3.289   6.499   9.478 -1.6387  1.3161  3.2328
  594MOL0     H78378   3.256   6.718   9.584 -1.3890  0.0301 -0.2632
  594MOL0     H78379   3.257   6.801   9.436  1.5104  0.5930  1.6819
  594MOL0     H78380   3.476   6.821   9.554  1.5606 -0.8401 -0.0763
  594MOL0     H78381   3.489   6.653   9.575  1.5746  0.7949 -0.3371
  594MOL0     H78382   3.540   6.813   9.320 -0.6477  0.0079 -1.6236
  594MOL0     H78383   3.482   6.637   9.329  0.6085 -1.2014  1.4903
  594MOL0     H78384   3.742   6.641   9.336  1.8621  0.4730  1.1782
  594MOL0     H78385   3.664   6.551   9.461  1.2416 -0.2560  1.1375
  594MOL0     H78386   3.724   6.842   9.502 -3.9493 -1.2345 -0.1150
  594MOL0     H78387   3.725   6.716   9.622  0.4439  0.7426 -0.7962
  594MOL0     H78388   3.923   6.613   9.493  1.4353  0.8809 -0.3816
  594MOL0     H78389   3.973   6.759   9.576  0.3992  0.8006 -0.4748
  594MOL0     H78390   2.873   6.815   9.248 -0.3569 -1.6955  1.4962
  594MOL0     H78391   2.708   6.746   9.057 -0.3005  1.1721  1.0703
  594MOL0     H78392   2.572   6.267   8.876  1.0767 -0.7276 -3.5175
  594MOL0     H78393   2.430   6.167   8.705 -1.8759 -0.7345  1.0156
  594MOL0     H78394   0.768   6.140   7.693 -1.3592 -1.5883  0.2532
  594MOL0     H78395   0.555   6.079   7.778 -2.1045 -0.0599 -0.0488
  594MOL0     H78396   0.197   5.940   7.955 -1.5160 -1.0213 -2.1468
  594MOL0     H78397  -0.031   5.869   7.946  0.5557  0.0570  1.7842
  594MOL0     H78398  -0.349   5.914   7.976 -3.6387  0.3993 -0.6689
  594MOL0     H78399  -0.224   5.821   7.871 -1.4325 -0.4352 -4.7031
  594MOL0     H78400  -0.474   5.967   7.800 -1.7760 -0.8303 -5.0249
  594MOL0     H78401  -0.380   5.862   7.691  3.9823  0.1576  0.5634
  594MOL0     H78402  -0.591   5.753   7.734 -1.7453  4.7780  0.3890
  594MOL0     H78403  -0.578   5.778   7.906  0.2286 -2.2944  0.4849
  594MOL0     H78404  -0.402   5.618   7.932 -0.6530 -0.5701  0.7226
  594MOL0     H78405  -0.546   5.555   7.862  0.9787 -0.2642  0.1143
  594MOL0     H78406  -0.254   5.477   7.559 -2.5422  0.5066 -2.4652
  594MOL0     H78407  -0.137   6.249   7.758 -0.0585 -0.8192 -0.5006
  594MOL0     H78408   0.092   6.329   7.809 -1.4047  0.9054  2.4861
  595MOL0     O78409   2.028   7.542   0.188 -0.3177 -0.1852 -0.9360
  595MOL0     C78410   2.099   7.454   0.144  0.3934 -0.4709  0.0630
  595MOL0     O78411   2.067   7.372   0.046 -0.5255 -0.2215  0.2150
  595MOL0     C78412   1.949   7.382  -0.031 -0.5413  0.4217 -0.9076
  595MOL0     C78413   1.840   7.470  -0.020 -0.0799 -0.0258  1.2563
  595MOL0     C78414   1.738   7.472  -0.115 -0.3179  0.2062  0.3883
  595MOL0     C78415   1.735   7.373  -0.221  0.6582  0.6614 -0.1957
  595MOL0     O78416   1.661   7.371  -0.326  1.3508  1.0184  0.3344
  595MOL0     C78417   1.519   7.360  -0.308  0.0443 -0.2967  0.7901
  595MOL0     C78418   1.431   7.293  -0.424 -0.0472 -0.2098  0.3703
  595MOL0     C78419   1.370   7.156  -0.399 -0.7437 -0.0789 -0.8230
  595MOL0     C78420   1.292   7.102  -0.523 -0.7413  0.1739 -0.2662
  595MOL0     C78421   1.249   6.959  -0.516 -1.1290 -0.2651 -0.8006
  595MOL0     C78422   1.215   6.899  -0.645  1.0799 -0.1518  0.1642
  595MOL0     C78423   1.184   6.749  -0.628 -0.8046  0.5770  0.0683
  595MOL0     C78424   1.127   6.684  -0.749 -0.6511 -0.4571  0.6242
  595MOL0     N78425   1.190   6.555  -0.780  0.4242  0.1325  0.2551
  595MOL0     C78426   1.187   6.435  -0.701  0.6946 -1.1586 -0.2551
  595MOL0     C78427   1.272   6.351  -0.762 -0.3213 -0.6497 -0.0721
  595MOL0     C78428   1.293   6.207  -0.735  0.2521  0.8626  0.7600
  595MOL0     C78429   1.317   6.182  -0.588  0.6542 -0.8168  0.1234
  595MOL0     C78430   1.278   6.037  -0.544  0.1732 -0.0408  0.2814
  595MOL0     C78431   1.381   5.935  -0.565  0.8822 -0.2428  0.2657
  595MOL0     O78432   1.503   5.974  -0.499 -0.3547  0.6789 -0.0688
  595MOL0     C78433   1.587   5.867  -0.452 -0.6937 -0.5938  0.2383
  595MOL0     C78434   1.597   5.737  -0.502  0.5018  0.8289 -0.4887
  595MOL0     C78435   1.684   5.642  -0.450 -0.1288 -0.1205 -1.0283
  595MOL0     C78436   1.778   5.694  -0.357  0.8780  0.2894  0.8606
  595MOL0     C78437   1.894   5.611  -0.314 -0.4917 -0.2178  0.2679
  595MOL0     O78438   1.952   5.648  -0.197 -0.1335 -0.3452 -0.3549
  595MOL0     C78439   2.086   5.605  -0.175  0.0754  0.3454  0.5610
  595MOL0     C78440   2.122   5.562  -0.049  0.4194  0.3220 -0.2291
  595MOL0     C78441   2.251   5.540  -0.003 -0.3987 -0.3233  0.2054
  595MOL0     C78442   2.350   5.544  -0.105  0.0303  0.6299 -0.2284
  595MOL0     O78443   2.477   5.511  -0.078  0.3676 -0.6815 -0.0331
  595MOL0     C78444   2.494   5.381  -0.030  1.0666  0.1570  0.4948
  595MOL0     C78445   2.564   5.373   0.097  0.3436 -0.4477 -0.1461
  595MOL0     C78446   2.573   5.232   0.158  0.3724  0.6114  0.2419
  595MOL0     C78447   2.656   5.230   0.290  0.1229 -1.0802  0.5369
  595MOL0     C78448   2.694   5.086   0.330 -0.9005 -1.3304 -0.2712
  595MOL0     C78449   2.779   5.077   0.448 -0.2306 -0.0458  0.4575
  595MOL0     C78450   2.866   4.944   0.467  0.1411 -1.0239 -0.1218
  595MOL0     C78451   3.010   4.950   0.409  0.3687 -0.2279  0.0821
  595MOL0    Cl78452   3.004   4.966   0.220  0.0307  0.4016 -0.4029
  595MOL0     C78453   2.320   5.591  -0.236 -0.9448 -0.1035  0.0440
  595MOL0     C78454   2.185   5.621  -0.268  0.7249  0.8010 -0.1692
  595MOL0     O78455   1.935   5.530  -0.396 -0.3520 -0.2843 -0.8413
  595MOL0     C78456   1.775   5.822  -0.306 -0.3849  0.2086  0.1351
  595MOL0     C78457   1.680   5.905  -0.350  1.1367  0.3689 -0.4298
  595MOL0     N78458   1.345   6.430  -0.854  0.3074 -0.3741  0.8185
  595MOL0     N78459   1.293   6.543  -0.870  0.3541  0.2693 -0.5852
  595MOL0     C78460   1.836   7.283  -0.227 -0.8586 -0.3171 -0.0150
  595MOL0     C78461   1.949   7.291  -0.143  0.0234  0.0252 -0.9820
  595MOL0     C78462   2.230   7.440   0.206 -0.2238  0.2853  1.2377
  595MOL0     C78463   2.307   7.328   0.171  0.7767  0.0583  0.6130
  595MOL0     C78464   2.431   7.304   0.227 -0.7291  0.1010 -0.4281
  595MOL0     C78465   2.482   7.391   0.327 -0.3227  1.3160 -0.2422
  595MOL0     O78466   2.605   7.363   0.383 -0.0062 -0.4437  0.0045
  595MOL0     C78467   2.629   7.395   0.521 -0.7095 -0.2301 -0.0846
  595MOL0     C78468   2.751   7.332   0.574 -0.0613 -0.2590 -0.3078
  595MOL0     C78469   2.740   7.181   0.601  0.4802  0.0800 -1.1703
  595MOL0     C78470   2.859   7.124   0.641  0.2210  0.1740  0.0459
  595MOL0     C78471   2.866   6.979   0.631 -1.0924  0.9235  1.1316
  595MOL0     C78472   2.850   6.860   0.608  0.0675 -0.0745  0.3056
  595MOL0     C78473   2.407   7.503   0.369 -0.4634 -0.1693  0.2201
  595MOL0     C78474   2.278   7.528   0.298 -1.2789  0.2423 -0.2369
  595MOL0     H78475   1.841   7.556   0.047  3.9541  2.1023 -1.1540
  595MOL0     H78476   1.677   7.561  -0.125 -0.5324  0.3168  2.2276
  595MOL0     H78477   1.474   7.458  -0.289  0.2916 -0.6075  3.3341
  595MOL0     H78478   1.500   7.297  -0.221  0.2233 -0.6824  0.5495
  595MOL0     H78479   1.492   7.306  -0.514  0.9249  0.5146  1.1104
  595MOL0     H78480   1.345   7.360  -0.433 -1.3061 -1.9153 -0.6645
  595MOL0     H78481   1.307   7.149  -0.309  0.1702 -0.1571 -0.1801
  595MOL0     H78482   1.455   7.087  -0.391  0.2058  1.2309  1.2374
  595MOL0     H78483   1.201   7.162  -0.522 -0.8880  0.0369 -2.3240
  595MOL0     H78484   1.347   7.133  -0.612 -0.3072 -0.0874 -0.0979
  595MOL0     H78485   1.163   6.949  -0.448 -0.3804 -2.9825 -0.1457
  595MOL0     H78486   1.335   6.906  -0.475 -2.2066 -1.7465 -0.3546
  595MOL0     H78487   1.290   6.904  -0.725 -2.6332 -0.6015 -3.6840
  595MOL0     H78488   1.134   6.957  -0.689  0.6584 -1.9547 -1.5748
  595MOL0     H78489   1.281   6.709  -0.597 -0.2736  0.7130 -1.3276
  595MOL0     H78490   1.116   6.742  -0.543  0.9951 -0.2892  1.4930
  595MOL0     H78491   1.151   6.749  -0.834  4.9342 -0.1442  2.0459
  595MOL0     H78492   1.018   6.683  -0.743 -0.6802 -0.2152  0.2046
  595MOL0     H78493   1.120   6.407  -0.620 -0.2566  1.9539  0.1690
  595MOL0     H78494   1.382   6.169  -0.787 -0.3307 -2.3704  1.8962
  595MOL0     H78495   1.209   6.148  -0.774 -0.8224  2.0680  1.1840
  595MOL0     H78496   1.245   6.246  -0.537 -1.3866 -0.8543 -2.5098
  595MOL0     H78497   1.417   6.214  -0.556 -0.2251  1.0181  1.1534
  595MOL0     H78498   1.256   6.054  -0.438 -2.6458  0.5355 -0.3040
  595MOL0     H78499   1.185   6.016  -0.598  1.0671 -0.7185 -1.0401
  595MOL0     H78500   1.402   5.921  -0.672  1.5837  0.6449  0.2793
  595MOL0     H78501   1.346   5.837  -0.532  1.3402 -0.3609  0.4155
  595MOL0     H78502   1.534   5.706  -0.585  0.5901  3.3075 -1.5720
  595MOL0     H78503   1.687   5.548  -0.503 -2.1330 -0.5359 -0.4774
  595MOL0     H78504   2.050   5.556   0.033  1.4224  2.9171  0.9398
  595MOL0     H78505   2.279   5.505   0.096 -0.8249  0.2672  0.5388
  595MOL0     H78506   2.556   5.325  -0.100  1.2660  1.9571 -0.8348
  595MOL0     H78507   2.395   5.334  -0.029  0.2972  1.4666 -2.6326
  595MOL0     H78508   2.519   5.438   0.172  2.3661 -0.6346  1.3055
  595MOL0     H78509   2.668   5.404   0.083  0.9333 -2.4518 -0.5684
  595MOL0     H78510   2.618   5.154   0.095  0.3315 -2.1424  3.3195
  595MOL0     H78511   2.473   5.188   0.169  1.7255 -2.2383  2.7800
  595MOL0     H78512   2.753   5.274   0.264 -0.8408  1.8840  1.5319
  595MOL0     H78513   2.617   5.295   0.369 -0.3634 -0.8962  0.1527
  595MOL0     H78514   2.752   5.039   0.251 -0.4009 -1.6048  0.2489
  595MOL0     H78515   2.602   5.033   0.356 -2.0703  1.5833  2.1765
  595MOL0     H78516   2.719   5.084   0.540 -0.8764  0.9982 -0.0303
  595MOL0     H78517   2.837   5.170   0.447 -2.6501  1.5371 -0.2556
  595MOL0     H78518   2.870   4.920   0.573 -1.8437 -1.5356 -0.1210
  595MOL0     H78519   2.801   4.873   0.416  1.0268 -0.1877 -2.5567
  595MOL0     H78520   3.071   4.862   0.433  0.3347 -0.5948 -1.1421
  595MOL0     H78521   3.051   5.047   0.440  1.0859 -0.7443  0.7801
  595MOL0     H78522   2.393   5.584  -0.316  1.5934  0.1714  2.2202
  595MOL0     H78523   2.152   5.653  -0.366 -1.0258  0.9743  0.4562
  595MOL0     H78524   1.855   5.865  -0.246  1.2950 -0.7622 -1.3207
  595MOL0     H78525   1.671   5.998  -0.295 -0.2195 -1.0378  1.8671
  595MOL0     H78526   1.832   7.206  -0.304 -0.5116 -0.5680  0.2160
  595MOL0     H78527   2.028   7.217  -0.154  1.7257  1.4509  0.8507
  595MOL0     H78528   2.271   7.257   0.097  0.6883  1.4748 -0.7683
  595MOL0     H78529   2.486   7.215   0.197 -0.5057 -0.5877  1.8885
  595MOL0     H78530   2.545   7.368   0.587 -0.1198  0.7629  1.1245
  595MOL0     H78531   2.629   7.504   0.526 -1.3373 -0.1477 -1.5097
  595MOL0     H78532   2.824   7.351   0.494  1.2488  1.4012  1.1919
  595MOL0     H78533   2.792   7.378   0.664 -3.1229 -0.2720  1.1883
  595MOL0     H78534   2.711   7.132   0.507 -0.8794 -1.2256 -0.1158
  595MOL0     H78535   2.656   7.160   0.668  1.5502  0.3200  0.2752
  595MOL0     H78536   2.940   7.162   0.579 -0.1210 -1.1390 -1.2743
  595MOL0     H78537   2.882   7.149   0.745  1.5034 -0.5146 -0.0531
  595MOL0     H78538   2.829   6.759   0.579 -0.5203  0.8621 -2.9083
  595MOL0     H78539   2.431   7.573   0.448 -2.3952  0.1450  0.5855
  595MOL0     H78540   2.225   7.623   0.293 -0.0714  0.9472  0.0124
  596MOL0     O78541  10.944   7.791   4.397 -0.8098  0.2446 -0.5809
  596MOL0     C78542  10.918   7.884   4.471  0.1330 -0.9204  0.0969
  596MOL0     O78543  10.862   7.884   4.590  0.2375  0.3449  0.0574
  596MOL0     C78544  10.865   7.763   4.658 -0.7681 -0.0450  0.0062
  596MOL0     C78545  10.950   7.655   4.651 -0.3246  1.0173  0.2345
  596MOL0     C78546  10.927   7.535   4.720 -0.3338  0.2579  0.0408
  596MOL0     C78547  10.838   7.537   4.825  1.0651 -0.5373  0.0952
  596MOL0     O78548  10.822   7.423   4.899  0.0409  0.6084 -0.1906
  596MOL0     C78549  10.705   7.407   4.971  0.3996  0.2399 -0.0989
  596MOL0     C78550  10.698   7.265   5.022 -0.3221 -1.3257  0.5116
  596MOL0     C78551  10.683   7.167   4.909 -0.4543 -0.4327 -0.2339
  596MOL0     C78552  10.664   7.028   4.964 -0.1977  0.9423 -0.1235
  596MOL0     C78553  10.688   6.918   4.865 -0.4172  0.0592  0.1784
  596MOL0     C78554  10.701   6.777   4.916  0.1848  0.7650  0.5559
  596MOL0     C78555  10.797   6.751   5.023 -0.2902 -1.0285 -0.6210
  596MOL0     C78556  10.938   6.762   4.983  0.4995  0.7831 -0.0823
  596MOL0     N78557  10.970   6.708   4.850 -0.4836 -0.2659 -0.0083
  596MOL0     C78558  11.001   6.574   4.824 -0.7316 -0.2456 -0.5876
  596MOL0     C78559  11.049   6.563   4.697 -0.7017  0.3381 -0.2736
  596MOL0     C78560  11.098   6.449   4.613  0.3190  0.0191 -0.6686
  596MOL0     C78561  11.016   6.322   4.634  1.5046  0.0809  0.5250
  596MOL0     C78562  11.067   6.213   4.546  0.3379  0.4212  0.2620
  596MOL0     C78563  11.009   6.075   4.582  0.0457 -1.2021  0.8521
  596MOL0     O78564  11.094   6.015   4.671  0.5844  0.2341  0.8267
  596MOL0     C78565  11.051   5.893   4.728  0.7946 -0.4539  0.1280
  596MOL0     C78566  10.952   5.807   4.682  0.7098 -0.4779  0.2672
  596MOL0     C78567  10.935   5.683   4.748 -0.4848 -0.1342  1.5129
  596MOL0     C78568  11.016   5.642   4.853 -0.6216  0.4843  0.3632
  596MOL0     C78569  10.997   5.510   4.921 -1.1349  0.7190 -0.1767
  596MOL0     O78570  10.918   5.417   4.867 -0.0913 -0.2117  0.0058
  596MOL0     C78571  10.908   5.295   4.933 -0.1875 -1.0188  0.1828
  596MOL0     C78572  11.009   5.198   4.936  0.2583  0.2327  0.9493
  596MOL0     C78573  10.990   5.074   5.000 -0.1111 -0.0595 -0.8279
  596MOL0     C78574  10.866   5.053   5.057  0.7947 -0.3784  0.0121
  596MOL0     O78575  10.834   4.935   5.113 -0.4781  0.0638 -0.4467
  596MOL0     C78576  10.841   4.933   5.257 -0.9228  0.6127  0.0425
  596MOL0     C78577  10.795   4.797   5.311 -0.2070 -0.1286  0.4460
  596MOL0     C78578  10.850   4.681   5.226  0.3939 -0.2615  0.8837
  596MOL0     C78579  10.812   4.545   5.310  0.5455  0.1703 -1.2683
  596MOL0     C78580  10.870   4.419   5.254  0.6522 -0.5480 -0.0761
  596MOL0     C78581  10.820   4.377   5.109  0.1561  0.1733  0.6511
  596MOL0     C78582  10.913   4.280   5.039 -0.4596  0.2059  0.1874
  596MOL0     C78583  10.903   4.296   4.887 -0.2322 -0.5312  0.4946
  596MOL0    Cl78584  10.737   4.264   4.815 -0.2950 -0.0875  0.0172
  596MOL0     C78585  10.776   5.153   5.065  0.3700 -0.4689 -0.0885
  596MOL0     C78586  10.791   5.277   5.003  0.2761 -0.8427  0.6678
  596MOL0     O78587  11.068   5.497   5.023 -0.4106  0.2458 -0.0988
  596MOL0     C78588  11.113   5.733   4.893 -0.8894 -0.5452 -0.0446
  596MOL0     C78589  11.125   5.861   4.832 -0.2130  0.2417  0.2166
  596MOL0     N78590  11.045   6.694   4.651 -0.3142  0.1182 -0.3598
  596MOL0     N78591  10.989   6.775   4.732 -0.4411 -0.3215  0.4880
  596MOL0     C78592  10.759   7.652   4.845  0.4602  0.8934 -0.4998
  596MOL0     C78593  10.770   7.762   4.760 -0.9180 -1.2355 -0.4607
  596MOL0     C78594  10.945   8.017   4.410  1.2376  0.0493 -0.2601
  596MOL0     C78595  11.033   8.031   4.301 -0.4512 -1.0520 -0.6391
  596MOL0     C78596  11.066   8.152   4.230  1.9123 -0.4810 -0.6805
  596MOL0     C78597  11.017   8.275   4.277 -0.9963 -0.4829  0.3309
  596MOL0     O78598  11.055   8.389   4.205 -0.2204 -0.1560 -0.4152
  596MOL0     C78599  11.157   8.471   4.270 -0.9604  0.4750 -0.1964
  596MOL0     C78600  11.298   8.424   4.256 -0.2227  0.2530  0.2097
  596MOL0     C78601  11.359   8.455   4.112 -0.4393 -0.8963 -0.3934
  596MOL0     C78602  11.507   8.427   4.097  0.2188  0.0546 -0.1683
  596MOL0     C78603  11.591   8.513   4.189  0.1037  0.1385 -0.0101
  596MOL0     C78604  11.641   8.605   4.252 -0.2171 -1.1288 -0.5157
  596MOL0     C78605  10.925   8.267   4.380 -0.6245 -0.9383 -0.1121
  596MOL0     C78606  10.888   8.143   4.448  0.2905 -0.7446  0.3522
  596MOL0     H78607  11.041   7.655   4.592  0.3555 -1.8597  1.1104
  596MOL0     H78608  10.992   7.449   4.704 -1.9804 -1.2520  1.0690
  596MOL0     H78609  10.622   7.422   4.902 -0.3772 -1.8172  0.3171
  596MOL0     H78610  10.692   7.471   5.059 -2.0906  0.0794 -0.2814
  596MOL0     H78611  10.610   7.257   5.087 -2.0820 -2.6296 -1.8763
  596MOL0     H78612  10.792   7.257   5.078 -0.1369  0.7012  0.5550
  596MOL0     H78613  10.776   7.170   4.851  0.1308 -0.9480  0.6561
  596MOL0     H78614  10.603   7.191   4.838 -2.8149 -0.2689  2.3222
  596MOL0     H78615  10.728   7.007   5.050 -0.0552 -0.0189 -0.4546
  596MOL0     H78616  10.557   7.025   4.991 -0.3019  3.7188  0.0545
  596MOL0     H78617  10.786   6.925   4.817 -1.1728 -1.7536 -1.7817
  596MOL0     H78618  10.615   6.929   4.783  0.0921 -2.2754 -0.6722
  596MOL0     H78619  10.727   6.716   4.829  1.0724 -1.2018  2.1415
  596MOL0     H78620  10.602   6.744   4.949  1.3350 -2.2318  1.2293
  596MOL0     H78621  10.782   6.810   5.114  2.2563 -0.7857 -0.2929
  596MOL0     H78622  10.782   6.645   5.049 -1.8900 -1.6339 -3.6302
  596MOL0     H78623  10.993   6.704   5.057 -0.0228  0.9112  0.4163
  596MOL0     H78624  10.967   6.867   4.983  1.9118  0.4321 -1.4438
  596MOL0     H78625  10.992   6.497   4.900 -3.1225  0.2684 -0.2489
  596MOL0     H78626  11.205   6.429   4.626  0.0682 -0.4429  0.9255
  596MOL0     H78627  11.084   6.473   4.507 -0.4899 -1.6759 -0.9842
  596MOL0     H78628  10.912   6.340   4.607  1.9316  1.1173 -0.5350
  596MOL0     H78629  11.026   6.288   4.737 -2.4769 -2.5033  0.2522
  596MOL0     H78630  11.020   6.243   4.452 -0.0151  0.7192  0.5312
  596MOL0     H78631  11.175   6.197   4.540  0.2580 -0.5201  1.0636
  596MOL0     H78632  11.000   6.010   4.495 -0.3095 -0.6290  0.4511
  596MOL0     H78633  10.904   6.084   4.612 -0.0161 -1.5121  0.7307
  596MOL0     H78634  10.883   5.819   4.599 -1.8445 -0.4554  2.2608
  596MOL0     H78635  10.860   5.610   4.720  1.2483 -2.4975  2.5706
  596MOL0     H78636  11.101   5.218   4.882  0.7678 -0.2262  1.6366
  596MOL0     H78637  11.073   5.004   5.001 -1.1160 -1.2763  0.1155
  596MOL0     H78638  10.786   5.013   5.306  0.1392  1.0516  0.5421
  596MOL0     H78639  10.946   4.941   5.286 -0.7595 -3.1133  1.0751
  596MOL0     H78640  10.686   4.802   5.313 -0.1961  3.2040 -1.0935
  596MOL0     H78641  10.837   4.785   5.412  2.0112  0.3642 -0.3496
  596MOL0     H78642  10.956   4.684   5.201  0.0570  3.0023 -0.7564
  596MOL0     H78643  10.797   4.671   5.130  0.5219 -1.4415  0.9231
  596MOL0     H78644  10.831   4.555   5.417 -1.0547 -0.9970 -0.8309
  596MOL0     H78645  10.703   4.543   5.318  0.6864 -1.1298  2.8427
  596MOL0     H78646  10.858   4.334   5.321  0.4832  0.8959  1.8193
  596MOL0     H78647  10.977   4.439   5.244  0.4833  0.7274  0.4831
  596MOL0     H78648  10.810   4.465   5.045  3.0638  0.9113  1.0651
  596MOL0     H78649  10.718   4.337   5.108 -0.0249  0.5492  1.9558
  596MOL0     H78650  11.015   4.314   5.058 -1.4823  2.6487  1.6586
  596MOL0     H78651  10.911   4.177   5.078 -2.2209  0.4275  0.7596
  596MOL0     H78652  10.972   4.243   4.822 -1.5303 -1.2880 -0.3037
  596MOL0     H78653  10.927   4.400   4.864  0.7945 -0.9174 -0.2173
  596MOL0     H78654  10.677   5.145   5.109 -1.0384 -4.1333 -3.4006
  596MOL0     H78655  10.726   5.363   5.008  1.6125  0.3852 -1.3432
  596MOL0     H78656  11.167   5.704   4.983 -2.3651 -2.1168  0.3881
  596MOL0     H78657  11.199   5.925   4.881 -1.3920 -1.6019  5.0191
  596MOL0     H78658  10.683   7.650   4.923 -0.1795 -1.3048 -1.1033
  596MOL0     H78659  10.698   7.841   4.781 -2.3159 -2.1540 -1.6688
  596MOL0     H78660  11.067   7.935   4.263  2.1548 -0.1976 -0.6283
  596MOL0     H78661  11.123   8.158   4.138 -0.2357  0.3533 -2.0334
  596MOL0     H78662  11.126   8.482   4.374 -0.4795 -2.8754  0.4075
  596MOL0     H78663  11.144   8.568   4.221  1.2815 -0.0448 -1.9968
  596MOL0     H78664  11.344   8.481   4.337  0.1077  3.1067 -1.8163
  596MOL0     H78665  11.297   8.317   4.276 -2.2644 -0.5659 -3.4007
  596MOL0     H78666  11.344   8.562   4.094  1.7232 -0.5901 -0.6504
  596MOL0     H78667  11.299   8.406   4.035 -3.0199 -0.6315  1.3162
  596MOL0     H78668  11.542   8.323   4.106 -0.8489 -0.4852 -1.8162
  596MOL0     H78669  11.541   8.459   3.998 -0.9622  0.5853 -0.4145
  596MOL0     H78670  11.657   8.691   4.315 -3.6636 -0.0833 -0.8847
  596MOL0     H78671  10.869   8.356   4.409 -1.1794 -1.6072  0.9554
  596MOL0     H78672  10.820   8.145   4.532  0.0577 -0.9612  0.1691
  597MOL0     O78673   2.326   5.184   4.913 -0.3816  0.3833 -0.4740
  597MOL0     C78674   2.289   5.072   4.941  1.0930 -0.4070 -0.6877
  597MOL0     O78675   2.171   5.019   4.910  0.5422 -0.0514  0.1986
  597MOL0     C78676   2.049   5.094   4.895  0.1051 -0.1164  0.0666
  597MOL0     C78677   1.944   5.031   4.847  0.7336  0.7781  0.5294
  597MOL0     C78678   1.819   5.095   4.851 -0.0809  0.2830 -0.8431
  597MOL0     C78679   1.808   5.229   4.885  0.2978  0.7997 -1.1215
  597MOL0     O78680   1.695   5.307   4.907 -0.3577  0.2247  0.2439
  597MOL0     C78681   1.570   5.240   4.903 -0.2167 -0.4064 -0.1757
  597MOL0     C78682   1.469   5.341   4.975 -0.4356 -0.9145 -0.2792
  597MOL0     C78683   1.319   5.316   4.982 -0.7811  0.2989 -0.0915
  597MOL0     C78684   1.273   5.424   5.083 -0.2854 -0.3631 -0.0461
  597MOL0     C78685   1.258   5.568   5.013 -0.0307 -0.0441 -0.1889
  597MOL0     C78686   1.122   5.590   4.945 -1.2416  0.5797  0.4945
  597MOL0     C78687   0.990   5.592   5.041 -0.9028  0.1232 -0.1077
  597MOL0     C78688   1.017   5.640   5.185  0.7918  0.1412 -0.1234
  597MOL0     N78689   0.891   5.641   5.256 -1.3224  0.2605  0.5468
  597MOL0     C78690   0.792   5.736   5.251  0.1578 -0.4438  0.3123
  597MOL0     C78691   0.693   5.689   5.334 -0.4726 -0.7862  0.1792
  597MOL0     C78692   0.571   5.771   5.376 -0.2981  0.0494 -0.2357
  597MOL0     C78693   0.437   5.735   5.305 -0.4674 -0.6037 -1.1045
  597MOL0     C78694   0.341   5.860   5.296 -0.5721  0.6423 -0.6362
  597MOL0     C78695   0.298   5.920   5.432  0.3071 -0.5304 -0.6841
  597MOL0     O78696   0.277   6.062   5.392 -1.0192 -0.2564 -1.0095
  597MOL0     C78697   0.207   6.130   5.487 -0.3250  0.2080  0.9009
  597MOL0     C78698   0.222   6.119   5.623  0.3318  0.4566 -0.4732
  597MOL0     C78699   0.170   6.201   5.721  1.1483 -1.7860  0.3431
  597MOL0     C78700   0.106   6.322   5.678 -0.5139  0.0684 -0.1753
  597MOL0     C78701   0.072   6.430   5.779  0.6637  0.7565  0.3495
  597MOL0     O78702   0.083   6.562   5.728 -0.8302  0.4353 -0.3271
  597MOL0     C78703   0.108   6.657   5.823 -0.5217 -0.1554  0.3542
  597MOL0     C78704   0.238   6.689   5.864  0.2886  0.3788 -0.3967
  597MOL0     C78705   0.255   6.783   5.967 -0.4688 -0.4058  0.2317
  597MOL0     C78706   0.156   6.861   6.020 -0.2420 -1.2999 -0.1585
  597MOL0     O78707   0.175   6.962   6.115 -0.4100 -0.1141 -0.0705
  597MOL0     C78708   0.061   7.049   6.168 -0.3468 -0.3929  1.6764
  597MOL0     C78709   0.092   7.143   6.292 -0.3228 -0.4000  0.3631
  597MOL0     C78710  -0.016   7.254   6.298  0.0398  0.2752 -0.5392
  597MOL0     C78711  -0.153   7.208   6.344  0.3011 -0.7150  0.0575
  597MOL0     C78712  -0.249   7.315   6.397  0.8662 -0.3859 -0.7159
  597MOL0     C78713  -0.307   7.407   6.293  0.2140  0.1215  0.1846
  597MOL0     C78714  -0.392   7.522   6.348 -0.0293 -1.3990 -0.0941
  597MOL0     C78715  -0.485   7.563   6.246  0.0562  0.3869  0.2933
  597MOL0    Cl78716  -0.597   7.426   6.210 -0.1636  0.4225  0.1527
  597MOL0     C78717   0.026   6.834   5.971  0.4197  0.0297  1.0281
  597MOL0     C78718   0.005   6.732   5.875  0.1978  0.2897 -0.4051
  597MOL0     O78719   0.056   6.389   5.893 -0.4788  0.6582  0.4948
  597MOL0     C78720   0.082   6.341   5.546  0.0642 -0.1259 -0.2249
  597MOL0     C78721   0.137   6.251   5.452 -0.2252 -0.5649  0.7545
  597MOL0     N78722   0.728   5.563   5.384  0.4805  1.2140 -0.2317
  597MOL0     N78723   0.840   5.534   5.327  0.2529 -0.1144 -0.0457
  597MOL0     C78724   1.920   5.289   4.922  0.0196  0.6959 -0.2642
  597MOL0     C78725   2.046   5.226   4.936  0.9071 -0.3976  0.6408
  597MOL0     C78726   2.385   4.986   5.010 -0.4470 -0.8381 -0.2914
  597MOL0     C78727   2.509   5.039   5.058 -0.2355  0.0505  0.3612
  597MOL0     C78728   2.607   4.958   5.111  0.0290  0.5692 -0.3131
  597MOL0     C78729   2.597   4.823   5.103 -0.2729  0.9489  0.6959
  597MOL0     O78730   2.704   4.737   5.133 -0.6307 -0.3484 -0.8941
  597MOL0     C78731   2.734   4.649   5.023 -0.2248  0.4410  0.6953
  597MOL0     C78732   2.696   4.511   5.063 -0.6685  0.3005  0.0631
  597MOL0     C78733   2.803   4.459   5.166  0.4830 -0.1140  0.3766
  597MOL0     C78734   2.766   4.320   5.219  0.2154  0.2203  0.8010
  597MOL0     C78735   2.736   4.217   5.120  0.2116 -0.1004 -0.0714
  597MOL0     C78736   2.693   4.145   5.032  1.5086  1.0376  0.2101
  597MOL0     C78737   2.470   4.765   5.050  0.5587  0.2903 -0.5451
  597MOL0     C78738   2.368   4.849   5.014 -0.4051  0.4645  0.1514
  597MOL0     H78739   1.953   4.935   4.798 -3.4686  1.1211 -1.3964
  597MOL0     H78740   1.736   5.030   4.825  0.8996 -2.1836  1.5905
  597MOL0     H78741   1.581   5.148   4.961  3.3973  1.2492  2.0706
  597MOL0     H78742   1.519   5.216   4.808 -3.5111  1.1383  1.0366
  597MOL0     H78743   1.489   5.436   4.925 -2.0387 -0.3994  0.0044
  597MOL0     H78744   1.516   5.342   5.074  0.2290 -1.4754 -0.5706
  597MOL0     H78745   1.298   5.220   5.031 -0.4601 -0.4374 -1.3667
  597MOL0     H78746   1.265   5.327   4.887  0.4347  1.1243 -0.7047
  597MOL0     H78747   1.181   5.382   5.124  0.6442 -2.6926 -0.2036
  597MOL0     H78748   1.347   5.453   5.159 -3.1611  1.5141  2.2774
  597MOL0     H78749   1.344   5.577   4.946  0.4549  0.2494  0.4632
  597MOL0     H78750   1.264   5.641   5.094 -0.7688  3.6302 -3.1324
  597MOL0     H78751   1.126   5.503   4.878 -1.8211  1.0334 -0.1405
  597MOL0     H78752   1.131   5.671   4.872  2.1764  1.8002  2.0656
  597MOL0     H78753   0.912   5.649   4.991 -1.2745  0.8422  1.2417
  597MOL0     H78754   0.948   5.493   5.059 -2.9591  0.3618 -2.9740
  597MOL0     H78755   1.078   5.730   5.187  2.1496 -0.6236 -2.6960
  597MOL0     H78756   1.089   5.569   5.225  1.0055  0.8618  0.8009
  597MOL0     H78757   0.793   5.832   5.201 -2.1527  0.1893  1.3728
  597MOL0     H78758   0.602   5.867   5.335  1.2460 -1.3182 -2.5102
  597MOL0     H78759   0.559   5.764   5.485  3.0135  3.2931  0.5564
  597MOL0     H78760   0.381   5.656   5.356 -3.7219  2.7710  1.0656
  597MOL0     H78761   0.458   5.693   5.206 -1.4454 -2.1720 -0.7010
  597MOL0     H78762   0.389   5.946   5.248  1.8351  0.1463  0.7092
  597MOL0     H78763   0.257   5.818   5.240 -1.5146 -0.1254  1.2372
  597MOL0     H78764   0.372   5.904   5.512 -0.5928  3.5343  1.2294
  597MOL0     H78765   0.200   5.881   5.461  0.2426 -2.2950 -2.9999
  597MOL0     H78766   0.280   6.037   5.664 -1.6325  0.8686  3.6033
  597MOL0     H78767   0.204   6.188   5.823  0.8200  0.4618  0.7964
  597MOL0     H78768   0.315   6.627   5.821  0.0876 -0.6852  0.7155
  597MOL0     H78769   0.357   6.797   6.001 -1.0346  2.6702  1.0212
  597MOL0     H78770  -0.016   6.980   6.203 -0.8605 -1.3547 -1.1108
  597MOL0     H78771   0.020   7.112   6.089 -0.0343 -1.4335  0.6518
  597MOL0     H78772   0.188   7.193   6.272 -0.7014 -0.8774 -3.5049
  597MOL0     H78773   0.097   7.074   6.377 -1.9798 -3.6821 -1.9825
  597MOL0     H78774  -0.029   7.311   6.205 -0.7505 -0.8559 -1.1404
  597MOL0     H78775   0.013   7.327   6.374 -3.2539 -0.4128  1.5574
  597MOL0     H78776  -0.201   7.166   6.255 -0.2606 -0.1774  0.1059
  597MOL0     H78777  -0.134   7.131   6.420  0.3812 -1.9805 -1.2118
  597MOL0     H78778  -0.204   7.372   6.478 -2.1358 -0.1074  0.8822
  597MOL0     H78779  -0.339   7.271   6.440  1.8798 -1.1641  0.6507
  597MOL0     H78780  -0.361   7.343   6.223 -0.1049  1.2842 -0.6614
  597MOL0     H78781  -0.227   7.448   6.231 -1.0191  0.6498 -1.1376
  597MOL0     H78782  -0.449   7.500   6.438 -2.6834  0.0905 -1.2993
  597MOL0     H78783  -0.323   7.602   6.378  0.9909 -3.0864  2.3854
  597MOL0     H78784  -0.436   7.584   6.150 -0.5438  0.7492  0.0569
  597MOL0     H78785  -0.548   7.646   6.281 -0.6916 -0.3847  0.8055
  597MOL0     H78786  -0.055   6.893   6.013  0.0796  0.8425 -0.6758
  597MOL0     H78787  -0.089   6.708   5.826  1.7471  1.3612 -4.2740
  597MOL0     H78788   0.041   6.431   5.500  0.9418 -0.2502 -1.2873
  597MOL0     H78789   0.133   6.274   5.346 -0.1276 -0.6411  0.7353
  597MOL0     H78790   1.909   5.394   4.945 -0.6660  0.1899  1.9464
  597MOL0     H78791   2.128   5.280   4.984  1.5851  0.3630 -1.2858
  597MOL0     H78792   2.547   5.140   5.044  2.9109 -0.9674  0.8153
  597MOL0     H78793   2.708   4.989   5.135  1.2837 -2.8319 -0.7428
  597MOL0     H78794   2.837   4.654   4.984 -0.9921 -1.2066 -1.7598
  597MOL0     H78795   2.671   4.665   4.936  2.1205  0.7451 -1.0635
  597MOL0     H78796   2.603   4.512   5.120 -0.3344  0.1357  0.6242
  597MOL0     H78797   2.689   4.446   4.976 -0.1522 -0.4772  0.5895
  597MOL0     H78798   2.812   4.537   5.243  2.3965  0.6780 -0.5633
  597MOL0     H78799   2.903   4.438   5.127  0.1249  1.9513 -1.8758
  597MOL0     H78800   2.850   4.284   5.279 -1.1960 -4.0354  0.5133
  597MOL0     H78801   2.684   4.330   5.290  1.1171  2.7338  1.6034
  597MOL0     H78802   2.659   4.072   4.961  0.2921  2.9150 -1.2278
  597MOL0     H78803   2.444   4.661   5.038  0.6579  0.5169 -3.2175
  597MOL0     H78804   2.276   4.803   4.978  0.1438  0.5811 -1.5222
  598MOL0     O78805   1.115   3.388   0.482 -0.2060  0.1470 -0.0672
  598MOL0     C78806   1.199   3.330   0.415  0.4831  0.2896  1.1424
  598MOL0     O78807   1.243   3.377   0.294  0.0329 -0.0706 -0.0040
  598MOL0     C78808   1.233   3.514   0.277 -0.1561 -0.9400 -0.6756
  598MOL0     C78809   1.148   3.557   0.172 -0.9072  0.7030 -0.5001
  598MOL0     C78810   1.133   3.690   0.150  0.3989  0.9219  0.0184
  598MOL0     C78811   1.164   3.787   0.246  0.1455 -1.3387  0.1895
  598MOL0     O78812   1.112   3.914   0.238  0.5483 -1.1079  0.7066
  598MOL0     C78813   1.044   3.963   0.116 -0.0591  0.1269  0.7984
  598MOL0     C78814   0.989   4.099   0.125  0.5836 -0.4836 -0.0848
  598MOL0     C78815   0.883   4.117   0.231 -0.0446 -0.5470  1.2442
  598MOL0     C78816   0.920   4.094   0.380 -0.0624  0.2575  0.6608
  598MOL0     C78817   0.808   4.130   0.479  0.1938  0.5456 -0.4690
  598MOL0     C78818   0.749   4.273   0.468  0.0300  1.1822 -0.3959
  598MOL0     C78819   0.828   4.361   0.560  0.3657 -0.5262 -0.0716
  598MOL0     C78820   0.842   4.505   0.506  0.5365  1.0811  0.0099
  598MOL0     N78821   0.986   4.539   0.511 -0.3665 -0.8490 -0.4957
  598MOL0     C78822   1.062   4.562   0.399 -0.4304 -0.7103 -0.1387
  598MOL0     C78823   1.192   4.563   0.439 -0.2440 -0.0738  0.9339
  598MOL0     C78824   1.311   4.573   0.348  0.1794 -0.5128  0.3859
  598MOL0     C78825   1.356   4.717   0.312 -0.4505  0.3142 -0.4706
  598MOL0     C78826   1.475   4.722   0.220 -0.3107  0.0572 -0.2995
  598MOL0     C78827   1.466   4.680   0.075  0.0526 -0.4177 -0.2632
  598MOL0     O78828   1.586   4.720   0.006  0.6310  0.1038 -0.2651
  598MOL0     C78829   1.700   4.641   0.026  0.4310 -0.4843 -0.0701
  598MOL0     C78830   1.818   4.687  -0.029  0.2437  0.5960 -0.5475
  598MOL0     C78831   1.933   4.609  -0.048  0.1813 -0.5955 -0.1830
  598MOL0     C78832   1.934   4.476   0.002 -0.2811  0.3843  0.4806
  598MOL0     C78833   2.055   4.393  -0.017 -0.1976 -0.2504 -0.0547
  598MOL0     O78834   2.159   4.444  -0.093 -0.1467 -0.1411 -0.7112
  598MOL0     C78835   2.272   4.370  -0.091 -0.2918  0.1062  0.0904
  598MOL0     C78836   2.371   4.390   0.004 -0.3163  0.7751  0.3114
  598MOL0     C78837   2.488   4.314   0.004  0.2891 -0.5741  0.3949
  598MOL0     C78838   2.517   4.237  -0.109 -0.4100  0.2356 -0.8378
  598MOL0     O78839   2.621   4.154  -0.114  0.0132 -0.0714 -0.5597
  598MOL0     C78840   2.749   4.203  -0.057 -0.1353  0.9109 -0.1499
  598MOL0     C78841   2.862   4.123  -0.123 -0.4743 -0.7621  0.0164
  598MOL0     C78842   3.008   4.128  -0.060  0.2972 -0.1548 -0.6650
  598MOL0     C78843   3.102   4.248  -0.088  0.4036  0.4660  0.7155
  598MOL0     C78844   3.237   4.213  -0.023  0.4854  0.4808  0.3404
  598MOL0     C78845   3.359   4.286  -0.082 -0.0625 -0.4203  0.7688
  598MOL0     C78846   3.358   4.441  -0.050 -0.3299  0.3927  0.3723
  598MOL0     C78847   3.485   4.506  -0.098 -0.4117  0.9298  0.0717
  598MOL0    Cl78848   3.478   4.684  -0.087 -0.1055 -0.1494 -0.6003
  598MOL0     C78849   2.428   4.229  -0.208 -0.8587  0.7358 -0.3866
  598MOL0     C78850   2.308   4.290  -0.203  0.7302  0.5357 -0.5191
  598MOL0     O78851   2.061   4.280   0.030 -0.5046 -0.4210 -0.5369
  598MOL0     C78852   1.818   4.427   0.063 -0.7813 -0.8737 -0.8294
  598MOL0     C78853   1.703   4.507   0.071  0.6647  0.7085 -0.4156
  598MOL0     N78854   1.202   4.560   0.577  0.8423 -0.1786  0.1427
  598MOL0     N78855   1.075   4.555   0.622  0.6113 -0.1796  0.1937
  598MOL0     C78856   1.257   3.752   0.345 -0.2614  0.1082  0.1888
  598MOL0     C78857   1.293   3.617   0.359  0.3599  0.6223 -0.4062
  598MOL0     C78858   1.284   3.227   0.483  0.1518  0.4776 -0.0913
  598MOL0     C78859   1.283   3.204   0.623  0.9922 -0.7955 -0.4389
  598MOL0     C78860   1.337   3.088   0.677 -0.0985  0.2275  0.6268
  598MOL0     C78861   1.401   2.997   0.590 -0.1765 -0.7021 -0.4140
  598MOL0     O78862   1.457   2.890   0.652 -0.2254 -0.5181 -0.8758
  598MOL0     C78863   1.416   2.765   0.598  0.1519 -0.0597  0.1091
  598MOL0     C78864   1.518   2.661   0.614 -0.5614  0.2982 -0.8649
  598MOL0     C78865   1.482   2.536   0.545  1.1432 -0.1155  0.6125
  598MOL0     C78866   1.611   2.447   0.509  0.5695 -0.5214 -0.3630
  598MOL0     C78867   1.573   2.318   0.451 -0.1152  0.4352 -0.1336
  598MOL0     C78868   1.525   2.214   0.408  0.1563  0.7442  0.1371
  598MOL0     C78869   1.427   3.031   0.455 -0.8790  0.1441 -0.1461
  598MOL0     C78870   1.368   3.145   0.406 -0.5036  0.4818 -0.5314
  598MOL0     H78871   1.096   3.489   0.105  1.5984  0.4095 -2.2964
  598MOL0     H78872   1.070   3.723   0.068  0.7498  1.5781  0.0053
  598MOL0     H78873   0.960   3.897   0.091  0.5605 -1.0851  1.7702
  598MOL0     H78874   1.117   3.958   0.034 -1.4752 -2.3873 -0.4501
  598MOL0     H78875   0.957   4.145   0.031 -0.0888 -1.0619 -0.1411
  598MOL0     H78876   1.071   4.159   0.165  0.0516 -1.3013  2.4175
  598MOL0     H78877   0.813   4.043   0.193  1.7822 -1.6466 -0.1236
  598MOL0     H78878   0.857   4.223   0.222  2.1861  0.0480  1.2820
  598MOL0     H78879   0.972   3.998   0.388  0.0987 -0.0308 -2.4892
  598MOL0     H78880   0.994   4.156   0.430 -0.0885  0.9153 -0.0864
  598MOL0     H78881   0.832   4.089   0.577 -2.3116 -0.1672 -0.0719
  598MOL0     H78882   0.719   4.068   0.459 -3.4119  4.6716  1.1841
  598MOL0     H78883   0.642   4.269   0.489  0.5988 -0.0144  3.0802
  598MOL0     H78884   0.760   4.311   0.366 -1.4755 -0.3882 -1.1898
  598MOL0     H78885   0.773   4.373   0.654  1.4977  2.8949  0.2525
  598MOL0     H78886   0.932   4.328   0.561  1.8613  3.1599 -3.8891
  598MOL0     H78887   0.793   4.579   0.570  0.5936  0.1620  1.1462
  598MOL0     H78888   0.791   4.514   0.409  0.1723 -2.7882 -0.3289
  598MOL0     H78889   1.023   4.567   0.298  1.9193 -0.4295 -1.1069
  598MOL0     H78890   1.288   4.513   0.260  0.5205 -1.1630  0.7323
  598MOL0     H78891   1.402   4.524   0.385  0.8637 -0.9859 -1.8134
  598MOL0     H78892   1.391   4.772   0.400 -1.9416  1.3382 -0.4820
  598MOL0     H78893   1.272   4.769   0.267 -0.3015 -0.3718 -1.5664
  598MOL0     H78894   1.516   4.823   0.214 -0.9033  0.4081  1.2714
  598MOL0     H78895   1.545   4.655   0.272 -2.5502 -0.5532  2.1237
  598MOL0     H78896   1.383   4.723   0.019 -1.3313 -3.1355 -0.4790
  598MOL0     H78897   1.443   4.573   0.064 -0.4088 -0.4460  0.8504
  598MOL0     H78898   1.805   4.782  -0.078 -0.4924  0.7788 -0.0147
  598MOL0     H78899   2.006   4.661  -0.109  1.7260 -0.6621  1.5283
  598MOL0     H78900   2.363   4.459   0.087  1.7943  1.0743  0.3168
  598MOL0     H78901   2.538   4.318   0.100 -1.0099 -0.5106  1.1041
  598MOL0     H78902   2.753   4.198   0.052 -2.0290 -0.0964 -0.0951
  598MOL0     H78903   2.752   4.310  -0.079 -1.1108  1.5992  2.5748
  598MOL0     H78904   2.880   4.144  -0.229 -1.4694 -0.3601 -0.0834
  598MOL0     H78905   2.832   4.018  -0.131  1.1457 -1.3122  0.7318
  598MOL0     H78906   3.061   4.039  -0.093  0.9572  0.0243 -0.1161
  598MOL0     H78907   2.979   4.118   0.045 -4.7633 -1.1693 -1.9148
  598MOL0     H78908   3.133   4.238  -0.192  1.8296 -0.9978  1.2212
  598MOL0     H78909   3.065   4.343  -0.049 -2.1701 -1.0397  2.1863
  598MOL0     H78910   3.254   4.105  -0.031 -0.0381  0.1657  2.6100
  598MOL0     H78911   3.238   4.227   0.086  1.7495  0.7738  0.3141
  598MOL0     H78912   3.361   4.266  -0.189  0.2674 -2.1405  1.0717
  598MOL0     H78913   3.453   4.245  -0.046  1.3873  1.4359 -0.7062
  598MOL0     H78914   3.272   4.490  -0.096 -0.8399 -1.4024 -0.6898
  598MOL0     H78915   3.344   4.454   0.058 -2.3927  0.0406  0.1927
  598MOL0     H78916   3.498   4.482  -0.204 -1.9617  0.2255  0.0168
  598MOL0     H78917   3.576   4.464  -0.054  2.9083  2.0937 -4.9083
  598MOL0     H78918   2.457   4.167  -0.292  1.5587 -0.3850  1.1432
  598MOL0     H78919   2.231   4.267  -0.276 -1.9241 -3.1898  2.9835
  598MOL0     H78920   1.810   4.321   0.084 -3.5922 -1.1203 -2.6153
  598MOL0     H78921   1.617   4.456   0.113 -0.0833  0.2738 -2.3885
  598MOL0     H78922   1.292   3.820   0.422  0.4208 -2.3865  2.2196
  598MOL0     H78923   1.376   3.593   0.424  3.6766  4.5492 -2.7069
  598MOL0     H78924   1.227   3.264   0.693  4.0894  0.9725  0.7300
  598MOL0     H78925   1.324   3.064   0.782 -0.3303  1.1364  0.8153
  598MOL0     H78926   1.384   2.783   0.495  3.4457 -2.1197 -1.4180
  598MOL0     H78927   1.330   2.726   0.654 -0.1725 -0.1280 -0.4239
  598MOL0     H78928   1.617   2.689   0.579  0.7093 -3.8728 -1.1866
  598MOL0     H78929   1.525   2.636   0.721 -0.1477 -1.9395 -1.3540
  598MOL0     H78930   1.415   2.560   0.462  1.4759 -0.4154  0.2522
  598MOL0     H78931   1.425   2.476   0.617 -0.1439 -1.4961 -1.4487
  598MOL0     H78932   1.672   2.506   0.439  2.7790 -1.3055  0.7909
  598MOL0     H78933   1.675   2.438   0.597 -0.8941 -2.1410  0.5985
  598MOL0     H78934   1.482   2.126   0.364  1.3760 -0.8711  1.9964
  598MOL0     H78935   1.484   2.979   0.379  1.0989 -0.0503  1.3879
  598MOL0     H78936   1.386   3.183   0.306  3.3487  0.5692  0.0357
  599MOL0     O78937   9.692   9.974   6.496  0.4263  0.7808 -0.0780
  599MOL0     C78938   9.632   9.947   6.389  1.1934  0.2052  0.2568
  599MOL0     O78939   9.560  10.031   6.313  0.8113  0.2616  0.2481
  599MOL0     C78940   9.564  10.164   6.349  0.2456 -0.1152  0.3457
  599MOL0     C78941   9.457  10.225   6.416  0.5644  1.4620 -0.7968
  599MOL0     C78942   9.464  10.362   6.450  0.0183  0.0087 -0.3107
  599MOL0     C78943   9.573  10.447   6.417 -0.3375  0.4875  0.1375
  599MOL0     O78944   9.581  10.580   6.433  0.0493 -1.0965 -0.4387
  599MOL0     C78945   9.537  10.639   6.558 -0.5444 -0.5681 -0.1392
  599MOL0     C78946   9.447  10.758   6.535  0.1092  0.3638 -0.7597
  599MOL0     C78947   9.382  10.806   6.667 -0.4814 -0.2765 -0.6620
  599MOL0     C78948   9.284  10.707   6.737  0.3572 -0.1734  0.1685
  599MOL0     C78949   9.248  10.769   6.874  0.0551 -0.1188 -0.3177
  599MOL0     C78950   9.364  10.780   6.980 -0.3821  0.3914  0.1144
  599MOL0     C78951   9.438  10.655   7.020 -0.6240 -0.2432  0.2465
  599MOL0     C78952   9.563  10.689   7.117  0.0712 -1.1929  0.5659
  599MOL0     N78953   9.514  10.757   7.236 -1.2607 -0.4120  0.6178
  599MOL0     C78954   9.466  10.692   7.342  0.4212 -0.3935 -0.2399
  599MOL0     C78955   9.461  10.789   7.438 -0.9502  1.3571  0.4675
  599MOL0     C78956   9.400  10.781   7.581  0.4920  0.5331 -0.7208
  599MOL0     C78957   9.259  10.839   7.603 -0.2251 -0.8900 -0.1238
  599MOL0     C78958   9.253  10.960   7.701 -0.0409  0.5830  0.4174
  599MOL0     C78959   9.290  11.087   7.642  0.0329 -0.1648  0.4475
  599MOL0     O78960   9.190  11.145   7.558 -0.0813  0.2116 -0.1328
  599MOL0     C78961   9.239  11.226   7.453 -0.2887  0.5455  0.7961
  599MOL0     C78962   9.378  11.261   7.422  0.0167 -0.0564 -0.7818
  599MOL0     C78963   9.412  11.344   7.322  0.8080 -0.5829  0.3955
  599MOL0     C78964   9.311  11.404   7.239  0.5415  0.2468  0.2377
  599MOL0     C78965   9.341  11.496   7.134 -0.1977 -0.0574  0.4335
  599MOL0     O78966   9.236  11.557   7.058  0.1126  0.0079 -0.8710
  599MOL0     C78967   9.253  11.674   6.992  0.6693  0.0750  0.2348
  599MOL0     C78968   9.350  11.770   7.004 -0.8904 -0.3604  0.1574
  599MOL0     C78969   9.360  11.871   6.902 -0.7264  0.3985  0.3783
  599MOL0     C78970   9.264  11.876   6.801  0.2900 -0.1017  0.2872
  599MOL0     O78971   9.255  11.964   6.698 -0.7578 -0.1929 -0.3292
  599MOL0     C78972   9.321  12.086   6.708  0.1705 -0.5992  0.9207
  599MOL0     C78973   9.457  12.077   6.648  1.5257  0.1719 -0.3438
  599MOL0     C78974   9.444  12.082   6.496 -0.3164  0.1826  0.2024
  599MOL0     C78975   9.555  12.012   6.439 -0.9809  0.0839 -0.4496
  599MOL0     C78976   9.576  12.043   6.299 -0.5029 -0.0877  0.3468
  599MOL0     C78977   9.704  11.986   6.235 -1.0550  0.9533  0.8832
  599MOL0     C78978   9.694  11.963   6.080 -1.4347  0.3159  0.0208
  599MOL0     C78979   9.748  12.081   6.002 -0.3172  0.0480 -0.3632
  599MOL0    Cl78980   9.619  12.209   5.968 -0.1920 -0.6552 -0.0661
  599MOL0     C78981   9.151  11.794   6.803 -0.2026  0.7727  0.8630
  599MOL0     C78982   9.146  11.687   6.900 -0.3485 -1.0369  0.1953
  599MOL0     O78983   9.460  11.525   7.122  0.2015 -0.0106 -0.7984
  599MOL0     C78984   9.179  11.376   7.269  0.1583 -0.6242  0.0743
  599MOL0     C78985   9.147  11.281   7.362 -0.3351  0.5241 -0.2376
  599MOL0     N78986   9.512  10.913   7.382  1.1495  0.0781 -0.5525
  599MOL0     N78987   9.550  10.888   7.263 -0.1613 -0.2638 -0.1578
  599MOL0     C78988   9.678  10.383   6.359 -0.4952 -0.5903  0.2269
  599MOL0     C78989   9.675  10.241   6.336 -0.2530  0.5505  0.4128
  599MOL0     C78990   9.651   9.808   6.341  1.0729  1.1671  0.1594
  599MOL0     C78991   9.677   9.695   6.423 -0.6729  0.2002  0.0259
  599MOL0     C78992   9.696   9.560   6.378  0.1626 -0.3509  0.1118
  599MOL0     C78993   9.678   9.531   6.247 -1.1518  0.8081  0.6595
  599MOL0     O78994   9.687   9.398   6.214 -0.6742  0.0631  1.5794
  599MOL0     C78995   9.617   9.354   6.092 -0.0939  0.1277 -0.1627
  599MOL0     C78996   9.581   9.204   6.100  0.0593 -1.0563 -0.9766
  599MOL0     C78997   9.505   9.143   5.979  0.3775  0.6560  0.2499
  599MOL0     C78998   9.604   9.083   5.877 -0.5464  0.8953  0.1584
  599MOL0     C78999   9.629   8.943   5.919  0.3118 -0.8026  0.0289
  599MOL0     C79000   9.654   8.834   5.959 -0.4175  0.2068 -0.0907
  599MOL0     C79001   9.646   9.636   6.162  0.8588 -0.3451  0.0356
  599MOL0     C79002   9.638   9.770   6.209 -0.3425  0.7733  0.1503
  599MOL0     H79003   9.361  10.177   6.433  1.0485  0.7879  0.1050
  599MOL0     H79004   9.388  10.408   6.512  1.3140  0.1380  1.2662
  599MOL0     H79005   9.626  10.663   6.618 -0.3418 -1.0493 -0.2474
  599MOL0     H79006   9.481  10.572   6.624 -0.6487  0.0885  0.4571
  599MOL0     H79007   9.369  10.727   6.465 -1.1270  1.4541  0.0823
  599MOL0     H79008   9.503  10.845   6.500 -0.0608  1.5529  1.7265
  599MOL0     H79009   9.312  10.887   6.643 -1.1962 -0.7138 -0.1020
  599MOL0     H79010   9.458  10.854   6.730 -0.9576 -0.8228  0.3672
  599MOL0     H79011   9.190  10.703   6.681 -0.1164 -0.6918  0.9834
  599MOL0     H79012   9.315  10.602   6.742  1.4497 -0.0065 -1.8145
  599MOL0     H79013   9.178  10.695   6.914  2.3542 -2.0657  0.3465
  599MOL0     H79014   9.202  10.868   6.868  1.3297  0.4652 -0.8078
  599MOL0     H79015   9.327  10.831   7.069  1.5749  0.9775  0.6262
  599MOL0     H79016   9.448  10.838   6.941  3.0004 -1.1720  4.3699
  599MOL0     H79017   9.376  10.587   7.079 -1.8844  1.5412  1.1067
  599MOL0     H79018   9.481  10.600   6.936 -0.8661 -1.3809  0.8461
  599MOL0     H79019   9.628  10.755   7.059 -1.6015 -0.8200 -0.9797
  599MOL0     H79020   9.615  10.595   7.137 -0.5369 -1.5624  0.4398
  599MOL0     H79021   9.437  10.589   7.361 -0.3758  0.1010  1.4821
  599MOL0     H79022   9.462  10.813   7.665 -1.5183 -2.9152  2.3966
  599MOL0     H79023   9.386  10.677   7.613  0.9358  0.9223  0.8325
  599MOL0     H79024   9.205  10.752   7.643 -0.1257 -0.5346  0.8066
  599MOL0     H79025   9.203  10.864   7.513  0.5904 -0.0282 -0.4032
  599MOL0     H79026   9.157  10.966   7.753  0.5578 -0.4372  1.6935
  599MOL0     H79027   9.318  10.940   7.787 -1.0965  2.1884  1.6410
  599MOL0     H79028   9.374  11.077   7.572 -0.4507  0.4852 -0.2374
  599MOL0     H79029   9.325  11.159   7.716 -0.8573  0.4914  0.2366
  599MOL0     H79030   9.462  11.231   7.484  2.1075  3.4941 -1.5929
  599MOL0     H79031   9.512  11.370   7.288  0.4071 -0.6118 -0.8464
  599MOL0     H79032   9.424  11.770   7.084  0.8391 -0.8090 -1.3656
  599MOL0     H79033   9.439  11.945   6.911 -1.9294  2.0938 -1.8921
  599MOL0     H79034   9.312  12.126   6.810 -0.8276  0.4334  0.4459
  599MOL0     H79035   9.282  12.170   6.650  3.8823 -0.3839 -1.5794
  599MOL0     H79036   9.502  11.986   6.689  0.6441  0.9091  2.4837
  599MOL0     H79037   9.512  12.164   6.683  1.9552 -1.3783  3.3477
  599MOL0     H79038   9.451  12.188   6.469  0.5794  0.8254  2.6559
  599MOL0     H79039   9.351  12.040   6.458 -0.2829 -0.9447  1.2859
  599MOL0     H79040   9.644  12.027   6.501 -1.0093 -1.1964 -0.0668
  599MOL0     H79041   9.541  11.903   6.435 -1.5286  0.0804  1.1733
  599MOL0     H79042   9.591  12.149   6.279  0.9256 -0.1627  0.9031
  599MOL0     H79043   9.495  12.001   6.238 -0.6542  0.5768  0.0803
  599MOL0     H79044   9.702  11.884   6.275 -3.0222 -0.2621 -1.9451
  599MOL0     H79045   9.794  12.039   6.267  0.7194 -1.0033 -0.5393
  599MOL0     H79046   9.772  11.896   6.044 -3.1102 -0.9909 -1.3629
  599MOL0     H79047   9.594  11.937   6.044 -0.9348 -1.7413 -0.0308
  599MOL0     H79048   9.782  12.047   5.904  1.6721 -2.7493  1.1339
  599MOL0     H79049   9.829  12.138   6.050 -1.3144  1.3140 -0.1171
  599MOL0     H79050   9.067  11.825   6.742 -0.7612  1.3370  1.8911
  599MOL0     H79051   9.063  11.616   6.902 -0.6797 -1.1521 -4.9936
  599MOL0     H79052   9.097  11.434   7.228  1.5311  2.3838  1.2641
  599MOL0     H79053   9.041  11.275   7.382 -0.3022 -0.2862 -0.2602
  599MOL0     H79054   9.763  10.447   6.339 -1.8512  0.6519 -1.9232
  599MOL0     H79055   9.762  10.203   6.283 -1.9543 -0.9406 -1.4985
  599MOL0     H79056   9.675   9.700   6.531  1.3510  0.4917  0.0910
  599MOL0     H79057   9.726   9.490   6.455 -0.2581  0.6563  1.2246
  599MOL0     H79058   9.687   9.368   6.008  2.0060 -1.0802  1.2727
  599MOL0     H79059   9.524   9.408   6.076 -1.2141 -1.6235  0.1956
  599MOL0     H79060   9.679   9.157   6.109  1.4849  1.8587  0.3220
  599MOL0     H79061   9.522   9.189   6.190 -2.5660  1.8524 -2.0235
  599MOL0     H79062   9.459   9.226   5.924  2.0344  0.5731 -1.3590
  599MOL0     H79063   9.432   9.071   6.018  0.8006  1.3535  2.4963
  599MOL0     H79064   9.557   9.095   5.779  0.6115 -0.0839 -0.5530
  599MOL0     H79065   9.694   9.145   5.869  0.4280 -0.2997  1.4535
  599MOL0     H79066   9.698   8.741   5.989 -1.7297 -0.6889 -0.8576
  599MOL0     H79067   9.630   9.626   6.055 -1.7086  1.1997  0.1855
  599MOL0     H79068   9.606   9.841   6.134  0.9881  1.9729  0.6706
  600MOL0     O79069   2.531   4.467   9.474 -0.0974 -0.4456 -0.9015
  600MOL0     C79070   2.469   4.493   9.371 -0.3463 -0.0705 -0.4996
  600MOL0     O79071   2.524   4.488   9.242 -0.5527  0.2007  0.2883
  600MOL0     C79072   2.658   4.477   9.238 -1.3182  0.4685  0.7870
  600MOL0     C79073   2.762   4.558   9.295 -0.4622 -0.6935 -0.0272
  600MOL0     C79074   2.893   4.547   9.255 -0.2086  0.0049 -0.7381
  600MOL0     C79075   2.935   4.457   9.158 -0.2041 -0.2142  0.4894
  600MOL0     O79076   3.075   4.452   9.129  0.4006 -0.2236  0.3259
  600MOL0     C79077   3.099   4.465   8.990 -0.3705  0.7624 -0.5635
  600MOL0     C79078   3.205   4.569   8.962  0.2524 -0.2119 -0.2828
  600MOL0     C79079   3.281   4.575   8.835  0.1229 -1.1249 -0.4069
  600MOL0     C79080   3.363   4.450   8.808  0.6511  0.1035 -0.6259
  600MOL0     C79081   3.408   4.439   8.673  0.4270 -0.8254  0.1409
  600MOL0     C79082   3.457   4.300   8.615 -0.0894  0.2583  0.4104
  600MOL0     C79083   3.470   4.304   8.458 -0.1923 -0.2519  0.1083
  600MOL0     C79084   3.325   4.271   8.385  0.3985 -0.6759 -0.6293
  600MOL0     N79085   3.345   4.242   8.245 -0.4460  0.2520 -0.3508
  600MOL0     C79086   3.371   4.342   8.143 -0.4750 -0.2466 -0.7283
  600MOL0     C79087   3.392   4.259   8.039 -0.0623 -1.0533  0.2789
  600MOL0     C79088   3.394   4.291   7.892 -0.1465 -0.8231  1.0561
  600MOL0     C79089   3.261   4.352   7.840 -0.2019  1.0766  0.0296
  600MOL0     C79090   3.159   4.245   7.804 -0.9205  0.3187  1.3842
  600MOL0     C79091   3.017   4.300   7.792  0.6805 -0.4569 -0.4522
  600MOL0     O79092   2.913   4.206   7.826 -0.7875  0.5853 -0.2178
  600MOL0     C79093   2.898   4.168   7.963 -0.5052  0.7065  0.1149
  600MOL0     C79094   2.988   4.204   8.068 -0.3953  0.3637  0.7852
  600MOL0     C79095   2.954   4.188   8.192  0.0418  0.7099 -1.1565
  600MOL0     C79096   2.840   4.110   8.220 -0.7892 -0.8130  0.2535
  600MOL0     C79097   2.805   4.091   8.356  0.0261  0.7240  0.4480
  600MOL0     O79098   2.915   4.080   8.450  0.8722  0.1018  0.0951
  600MOL0     C79099   2.886   4.034   8.580 -0.6354 -0.0159 -0.9630
  600MOL0     C79100   2.879   4.130   8.678 -0.4471  0.1070  0.0718
  600MOL0     C79101   2.860   4.083   8.807 -0.7023 -0.4153  1.0916
  600MOL0     C79102   2.836   3.956   8.847 -0.1606 -0.3715  0.3379
  600MOL0     O79103   2.808   3.922   8.979 -0.1973  0.3807  0.0121
  600MOL0     C79104   2.873   3.804   9.029  0.0566 -0.2226 -0.7283
  600MOL0     C79105   2.854   3.804   9.184  0.6795  0.0115  1.1628
  600MOL0     C79106   2.965   3.881   9.255  0.1556 -0.2627 -0.5232
  600MOL0     C79107   2.933   4.029   9.252 -0.5854  0.0461  0.4096
  600MOL0     C79108   3.021   4.118   9.345  0.0747 -1.0340 -0.3340
  600MOL0     C79109   3.169   4.139   9.307 -0.2991  0.0439 -0.6545
  600MOL0     C79110   3.241   4.222   9.412 -1.0989  0.6074  0.0732
  600MOL0     C79111   3.381   4.260   9.366 -0.3269  0.0982  0.6117
  600MOL0    Cl79112   3.377   4.392   9.240 -0.1621 -0.3503 -0.1895
  600MOL0     C79113   2.843   3.858   8.741 -0.4580 -0.3761  0.5394
  600MOL0     C79114   2.860   3.901   8.605  0.4084 -0.6215 -0.0917
  600MOL0     O79115   2.688   4.062   8.380  0.0732  0.1171  0.1872
  600MOL0     C79116   2.759   4.060   8.120  0.4749 -0.3647 -0.5369
  600MOL0     C79117   2.782   4.091   7.985 -0.2095 -0.0254 -0.8631
  600MOL0     N79118   3.389   4.125   8.068 -0.0360 -0.3843  0.5975
  600MOL0     N79119   3.364   4.117   8.187 -0.4293  0.2311  0.8453
  600MOL0     C79120   2.838   4.382   9.100  0.5872  0.2213  0.1577
  600MOL0     C79121   2.699   4.384   9.148  0.4961  0.1605  0.0909
  600MOL0     C79122   2.325   4.491   9.377 -0.0420 -0.0098 -0.3605
  600MOL0     C79123   2.254   4.469   9.257  0.1449  0.0857 -0.4772
  600MOL0     C79124   2.114   4.446   9.268  0.5158 -0.0206  0.4181
  600MOL0     C79125   2.044   4.451   9.392  0.0797 -0.1421  0.6767
  600MOL0     O79126   1.909   4.419   9.400  0.0338  0.2361  0.5205
  600MOL0     C79127   1.821   4.393   9.281 -0.0937 -0.2913 -0.5021
  600MOL0     C79128   1.695   4.327   9.330  0.1505 -0.1172  0.1512
  600MOL0     C79129   1.612   4.414   9.425  0.1449  0.1255 -0.3554
  600MOL0     C79130   1.652   4.392   9.569  0.7969  0.7017 -0.2398
  600MOL0     C79131   1.546   4.454   9.656 -0.2885  1.4655  0.6668
  600MOL0     C79132   1.450   4.484   9.731 -0.3315 -0.0640  0.8171
  600MOL0     C79133   2.118   4.498   9.504  0.4896  0.3923  0.7084
  600MOL0     C79134   2.255   4.508   9.500 -1.2386  0.3003  0.6705
  600MOL0     H79135   2.720   4.634   9.360 -0.4175 -0.3066 -0.4446
  600MOL0     H79136   2.971   4.608   9.300 -0.0586 -0.3799 -0.4772
  600MOL0     H79137   3.007   4.495   8.939 -2.0417 -5.4401 -2.0687
  600MOL0     H79138   3.139   4.370   8.954 -1.9188  0.7819 -2.5303
  600MOL0     H79139   3.280   4.570   9.042 -1.8114 -1.7740  1.8120
  600MOL0     H79140   3.154   4.665   8.975 -0.3858 -0.4164 -1.2179
  600MOL0     H79141   3.345   4.664   8.832 -0.4258 -0.7462 -1.1697
  600MOL0     H79142   3.211   4.591   8.753  0.1532 -0.8086 -0.3730
  600MOL0     H79143   3.440   4.431   8.884  2.8091 -1.0934 -2.9328
  600MOL0     H79144   3.294   4.367   8.824 -1.0766  1.4034 -1.0901
  600MOL0     H79145   3.491   4.509   8.669 -1.0278  0.9956  0.2917
  600MOL0     H79146   3.322   4.470   8.613  1.1801  0.3988 -0.3329
  600MOL0     H79147   3.395   4.217   8.650  0.7408 -0.6629 -0.2585
  600MOL0     H79148   3.553   4.282   8.665 -0.6797  2.6631  2.6685
  600MOL0     H79149   3.507   4.400   8.423 -2.4335  0.1195 -1.4409
  600MOL0     H79150   3.547   4.232   8.429  1.3760  0.6182  1.8860
  600MOL0     H79151   3.264   4.361   8.387 -0.8727 -1.3388 -3.7516
  600MOL0     H79152   3.276   4.201   8.454  1.1642 -0.6603 -0.0553
  600MOL0     H79153   3.338   4.445   8.149 -3.7667 -1.2811  2.9547
  600MOL0     H79154   3.422   4.206   7.829  1.7997  1.3047 -1.1677
  600MOL0     H79155   3.469   4.371   7.888 -3.0821  2.1527 -2.6306
  600MOL0     H79156   3.279   4.405   7.746 -1.3866  2.4960  0.5655
  600MOL0     H79157   3.230   4.428   7.912  3.0906  3.7284 -1.1103
  600MOL0     H79158   3.178   4.192   7.711  1.8956 -2.8605  3.5291
  600MOL0     H79159   3.172   4.164   7.877  2.3245 -2.1301 -1.5979
  600MOL0     H79160   3.008   4.322   7.686  3.9359 -2.2286 -1.2298
  600MOL0     H79161   3.008   4.396   7.844  1.3577 -0.6328  0.0081
  600MOL0     H79162   3.074   4.269   8.052  0.3835 -1.2762 -2.5511
  600MOL0     H79163   3.019   4.226   8.270 -0.7009  1.0037 -0.6678
  600MOL0     H79164   2.906   4.234   8.671  3.1991 -0.7373 -0.2277
  600MOL0     H79165   2.831   4.159   8.879 -0.8423  1.0466 -0.4157
  600MOL0     H79166   2.978   3.793   9.001  0.2208  0.1540 -0.2824
  600MOL0     H79167   2.835   3.707   8.998  1.4787 -0.6387 -1.2640
  600MOL0     H79168   2.844   3.700   9.218 -1.4072 -0.8804 -1.8442
  600MOL0     H79169   2.760   3.856   9.205  1.1259  1.2069  0.3202
  600MOL0     H79170   3.055   3.854   9.198 -0.5453  1.0253 -2.3465
  600MOL0     H79171   2.977   3.842   9.356 -0.8787 -1.6695 -0.9216
  600MOL0     H79172   2.954   4.066   9.151  1.0566  0.8405  1.0007
  600MOL0     H79173   2.827   4.052   9.266 -0.4174  0.3455  1.2282
  600MOL0     H79174   3.013   4.071   9.444  0.5369 -0.2717  0.0743
  600MOL0     H79175   2.970   4.214   9.336  1.6324 -0.1048  0.3763
  600MOL0     H79176   3.165   4.180   9.205 -2.9814 -0.4438 -0.8200
  600MOL0     H79177   3.222   4.044   9.303 -0.7470 -0.3068  1.0677
  600MOL0     H79178   3.168   4.301   9.434 -0.6917  1.2768 -0.8736
  600MOL0     H79179   3.258   4.159   9.500  0.3328  1.7380  0.6474
  600MOL0     H79180   3.433   4.175   9.321 -0.5492 -1.6692  3.4531
  600MOL0     H79181   3.430   4.288   9.459 -0.2625  3.1218 -0.2195
  600MOL0     H79182   2.804   3.761   8.770 -0.5765 -0.6543 -0.5173
  600MOL0     H79183   2.849   3.836   8.519  1.4140  1.1184 -1.6223
  600MOL0     H79184   2.675   3.993   8.135  2.0833 -2.2145  0.9120
  600MOL0     H79185   2.741   4.047   7.895 -1.1332  1.0890 -1.0062
  600MOL0     H79186   2.871   4.309   9.026 -0.6614 -0.9888  0.7560
  600MOL0     H79187   2.629   4.312   9.109  1.5066 -1.1501  0.6108
  600MOL0     H79188   2.297   4.462   9.158  1.1572  4.4221 -0.5374
  600MOL0     H79189   2.057   4.410   9.183  1.6512  1.9928 -1.2847
  600MOL0     H79190   1.878   4.325   9.217  0.2783 -1.6017  1.1538
  600MOL0     H79191   1.789   4.482   9.226 -1.6521 -0.1407  0.5728
  600MOL0     H79192   1.625   4.311   9.246 -2.3121 -0.7915  2.1973
  600MOL0     H79193   1.709   4.234   9.387 -0.5621 -0.7761 -0.7015
  600MOL0     H79194   1.510   4.375   9.424 -0.8514  2.4462  1.4651
  600MOL0     H79195   1.607   4.517   9.389 -2.1770 -0.2835 -1.3975
  600MOL0     H79196   1.654   4.286   9.596  2.1975 -0.0061 -2.8635
  600MOL0     H79197   1.749   4.438   9.589  0.9980 -0.6091  2.2851
  600MOL0     H79198   1.370   4.516   9.794 -0.3436 -0.3982  0.9744
  600MOL0     H79199   2.066   4.518   9.597  0.2422  3.8597 -0.0315
  600MOL0     H79200   2.310   4.529   9.591  0.2422 -1.5583  0.2619
  601MOL0     O79201   4.209   9.866   4.782  1.1641 -0.5079  0.0499
  601MOL0     C79202   4.286   9.797   4.843  0.8992  0.1615  0.3172
  601MOL0     O79203   4.408   9.764   4.808  0.9634 -0.0447  0.2922
  601MOL0     C79204   4.457   9.790   4.690 -0.1122  0.1035  0.0076
  601MOL0     C79205   4.443   9.683   4.604  0.2479  0.2011 -0.2935
  601MOL0     C79206   4.487   9.706   4.476  0.7473  0.5168  0.6818
  601MOL0     C79207   4.557   9.821   4.440 -0.2431  0.3133  0.9317
  601MOL0     O79208   4.596   9.811   4.307  0.3478  0.2255 -0.5088
  601MOL0     C79209   4.694   9.911   4.259  0.6733  0.0537 -0.4298
  601MOL0     C79210   4.683   9.902   4.117  0.0438 -0.7007  0.4860
  601MOL0     C79211   4.788   9.804   4.052 -0.1553  0.1109 -0.6801
  601MOL0     C79212   4.757   9.782   3.899  0.7052 -0.2928  0.0058
  601MOL0     C79213   4.846   9.674   3.832 -0.7784  0.2243  0.2699
  601MOL0     C79214   4.991   9.723   3.839 -0.0440 -0.3635  0.6736
  601MOL0     C79215   5.079   9.642   3.747  0.8936  1.3945  0.7223
  601MOL0     C79216   5.223   9.692   3.732  0.9615  0.0045  0.8869
  601MOL0     N79217   5.314   9.674   3.854  0.4881  0.3154  0.5419
  601MOL0     C79218   5.342   9.552   3.906  0.6498  0.6045 -0.2737
  601MOL0     C79219   5.374   9.574   4.029 -0.2210  0.1253 -0.1750
  601MOL0     C79220   5.453   9.473   4.120 -1.2909  0.7243 -0.4620
  601MOL0     C79221   5.595   9.455   4.059  0.0347 -0.7557  0.1837
  601MOL0     C79222   5.683   9.367   4.128 -0.4843  0.2100 -0.3441
  601MOL0     C79223   5.621   9.246   4.174  0.3280  0.3397  0.4307
  601MOL0     O79224   5.551   9.160   4.079  0.0182 -0.1205 -0.0431
  601MOL0     C79225   5.458   9.069   4.115  0.2841  0.1416  0.2432
  601MOL0     C79226   5.392   9.009   4.007  0.0274 -0.3573  0.4525
  601MOL0     C79227   5.277   8.928   4.023  0.1140 -0.2120  0.8982
  601MOL0     C79228   5.207   8.910   4.145 -0.4022 -0.1449  0.4100
  601MOL0     C79229   5.076   8.837   4.152 -0.6247  0.7393 -0.2481
  601MOL0     O79230   4.984   8.862   4.249  0.2758 -0.0793 -0.1238
  601MOL0     C79231   4.879   8.779   4.290 -0.5396  0.7252  0.0906
  601MOL0     C79232   4.903   8.638   4.284  0.0558  0.5901 -0.3274
  601MOL0     C79233   4.815   8.545   4.349 -0.8906 -0.1419 -0.6953
  601MOL0     C79234   4.699   8.593   4.401 -0.2189 -0.1085  0.6412
  601MOL0     O79235   4.608   8.501   4.447  0.1924  0.4178  0.4346
  601MOL0     C79236   4.473   8.554   4.465  0.3770 -0.3139  0.4131
  601MOL0     C79237   4.415   8.598   4.334  0.0193  1.0875 -0.6465
  601MOL0     C79238   4.373   8.470   4.256  0.2744 -0.2084  0.5593
  601MOL0     C79239   4.226   8.417   4.264 -0.3373  0.4480  0.0533
  601MOL0     C79240   4.233   8.301   4.170  0.1536 -0.3229 -0.2529
  601MOL0     C79241   4.092   8.246   4.155  0.7070  0.0473 -0.8169
  601MOL0     C79242   4.088   8.144   4.036  0.3937  0.2064  0.4620
  601MOL0     C79243   3.958   8.086   3.988  0.3792  0.3476 -0.4380
  601MOL0    Cl79244   3.879   7.994   4.117 -0.5330 -0.2149 -0.0952
  601MOL0     C79245   4.670   8.739   4.411  1.4189  0.5364  0.1737
  601MOL0     C79246   4.760   8.823   4.347 -0.8485 -0.9358  0.4766
  601MOL0     O79247   5.070   8.748   4.061  0.0119  0.7642 -0.0839
  601MOL0     C79248   5.287   8.956   4.246 -0.8946  0.7975 -0.4103
  601MOL0     C79249   5.407   9.034   4.234 -0.4805  0.1605 -0.0155
  601MOL0     N79250   5.380   9.707   4.053 -0.5892  1.1686 -0.4596
  601MOL0     N79251   5.338   9.770   3.941  1.0005 -0.4226 -0.1150
  601MOL0     C79252   4.553   9.932   4.521 -0.7216 -0.5963  0.3912
  601MOL0     C79253   4.498   9.908   4.648  0.3941 -1.2889  0.1270
  601MOL0     C79254   4.231   9.757   4.971 -0.8313 -0.8867  0.3158
  601MOL0     C79255   4.321   9.755   5.083 -0.2314  0.5156 -0.1379
  601MOL0     C79256   4.279   9.715   5.213 -0.1808 -0.3258  0.8910
  601MOL0     C79257   4.144   9.686   5.229 -0.3343 -0.1432  0.7814
  601MOL0     O79258   4.079   9.664   5.347  0.4975 -0.0070  0.5920
  601MOL0     C79259   4.120   9.574   5.449  0.1652  0.2908 -0.4311
  601MOL0     C79260   4.201   9.634   5.567  0.4084 -0.4296  0.3495
  601MOL0     C79261   4.122   9.647   5.706 -0.3936 -0.0616 -0.7414
  601MOL0     C79262   4.208   9.717   5.813  0.7451 -1.1810  0.2404
  601MOL0     C79263   4.132   9.746   5.938 -0.9061 -0.6470 -0.6600
  601MOL0     C79264   4.075   9.795   6.032 -0.8324 -0.1974 -0.6310
  601MOL0     C79265   4.066   9.670   5.116 -0.2481 -0.2486 -0.9947
  601MOL0     C79266   4.110   9.707   4.998  0.8709 -0.2201  0.9382
  601MOL0     H79267   4.406   9.589   4.643  0.4957  1.2819  2.8178
  601MOL0     H79268   4.462   9.635   4.397  0.6147  1.2793  0.0279
  601MOL0     H79269   4.795   9.893   4.296 -0.1323 -1.4287  1.1626
  601MOL0     H79270   4.669  10.015   4.281  1.3400  0.0692  0.2773
  601MOL0     H79271   4.700   9.998   4.067  0.9226 -0.6524  0.8579
  601MOL0     H79272   4.579   9.887   4.085 -0.2662  3.0601 -0.6654
  601MOL0     H79273   4.802   9.713   4.111  3.5338  1.8919  1.6277
  601MOL0     H79274   4.883   9.856   4.068 -0.4985  0.0372  2.1949
  601MOL0     H79275   4.652   9.751   3.893  0.9711 -1.1019 -0.7347
  601MOL0     H79276   4.755   9.883   3.858  1.9915 -0.8410 -1.5072
  601MOL0     H79277   4.805   9.660   3.732  1.2720  3.5873 -1.2185
  601MOL0     H79278   4.840   9.581   3.889  1.2109  0.5319  1.0818
  601MOL0     H79279   5.033   9.718   3.940 -0.8550 -1.7338  0.9655
  601MOL0     H79280   4.996   9.831   3.824 -1.0323 -0.1109  2.0042
  601MOL0     H79281   5.081   9.541   3.789 -0.4170  1.0896  0.0886
  601MOL0     H79282   5.033   9.626   3.649 -0.9283  1.8341  1.4658
  601MOL0     H79283   5.214   9.796   3.698 -1.9133  0.0651  1.5748
  601MOL0     H79284   5.267   9.634   3.650  1.9675 -0.4873  1.7606
  601MOL0     H79285   5.341   9.462   3.845 -0.4256  0.7348 -0.4675
  601MOL0     H79286   5.401   9.377   4.114 -2.4511  1.3576 -0.8198
  601MOL0     H79287   5.458   9.499   4.226  3.0586 -1.3660  0.0815
  601MOL0     H79288   5.647   9.551   4.068 -1.3750 -0.0097  0.6940
  601MOL0     H79289   5.585   9.437   3.951  0.3309  1.1735 -0.2070
  601MOL0     H79290   5.758   9.348   4.050 -1.9359  2.8985 -2.5769
  601MOL0     H79291   5.735   9.427   4.203  2.7414  0.6905 -2.7404
  601MOL0     H79292   5.553   9.284   4.251 -2.6671 -0.9905 -1.3898
  601MOL0     H79293   5.706   9.189   4.214  2.3769  3.1414  0.3365
  601MOL0     H79294   5.424   9.028   3.905 -1.6098 -0.7184 -0.1621
  601MOL0     H79295   5.236   8.877   3.936  0.5096 -1.6570  1.5269
  601MOL0     H79296   4.999   8.597   4.256  0.4596  0.0495  1.6801
  601MOL0     H79297   4.841   8.440   4.357  0.3270  0.1187 -0.9385
  601MOL0     H79298   4.460   8.634   4.538 -1.1810 -1.6584  1.7017
  601MOL0     H79299   4.418   8.468   4.504  0.2277 -0.4215 -0.0224
  601MOL0     H79300   4.474   8.665   4.271  1.8241 -0.2127 -0.4265
  601MOL0     H79301   4.332   8.664   4.360 -0.7429  1.0970 -2.8955
  601MOL0     H79302   4.438   8.387   4.286  0.6026  0.3016  1.2871
  601MOL0     H79303   4.383   8.496   4.150 -2.6946  1.1187  0.4856
  601MOL0     H79304   4.212   8.389   4.369 -1.4337 -1.3289 -0.5314
  601MOL0     H79305   4.159   8.495   4.228 -0.6818 -1.4487 -3.9005
  601MOL0     H79306   4.299   8.219   4.202  0.6194  0.6013  1.2459
  601MOL0     H79307   4.273   8.323   4.070  0.6490  2.1264  0.4366
  601MOL0     H79308   4.029   8.333   4.132 -0.9172 -0.5892  0.9733
  601MOL0     H79309   4.059   8.186   4.240 -1.2617  0.3860 -1.2949
  601MOL0     H79310   4.133   8.182   3.943 -1.0398 -2.8013 -1.6268
  601MOL0     H79311   4.159   8.068   4.071 -1.0057 -1.9489 -1.1024
  601MOL0     H79312   3.990   8.028   3.901  3.3720  0.5547  0.4178
  601MOL0     H79313   3.879   8.158   3.962 -3.4853 -2.6308  1.9605
  601MOL0     H79314   4.589   8.789   4.464  0.0806 -1.9102  0.5691
  601MOL0     H79315   4.756   8.931   4.356 -0.3082 -1.0583  3.2530
  601MOL0     H79316   5.253   8.918   4.342 -1.9539  0.1583 -1.0238
  601MOL0     H79317   5.469   9.053   4.320  2.3637 -3.4845 -1.0225
  601MOL0     H79318   4.592  10.025   4.481  2.0809  0.0724  4.1383
  601MOL0     H79319   4.493   9.990   4.720 -2.3501  1.0830 -2.4704
  601MOL0     H79320   4.424   9.782   5.067 -0.3314  1.0556  0.1027
  601MOL0     H79321   4.348   9.706   5.296 -0.0807  0.5851  0.9098
  601MOL0     H79322   4.189   9.497   5.414  2.1171 -0.1315  3.7349
  601MOL0     H79323   4.038   9.508   5.479  1.4955 -1.6719 -0.8776
  601MOL0     H79324   4.295   9.580   5.580  1.1910  1.1998  2.0066
  601MOL0     H79325   4.225   9.738   5.541  1.8805 -0.6902  0.5857
  601MOL0     H79326   4.110   9.544   5.743  2.2494 -1.3529 -3.1139
  601MOL0     H79327   4.026   9.698   5.691  1.1558  3.6440  0.7571
  601MOL0     H79328   4.307   9.679   5.840  1.8045  1.3991  0.2416
  601MOL0     H79329   4.225   9.816   5.770 -2.0171 -1.0214 -0.6611
  601MOL0     H79330   4.035   9.841   6.120 -0.7807  1.0089 -1.2233
  601MOL0     H79331   3.971   9.620   5.129  0.2934 -1.3195 -1.0911
  601MOL0     H79332   4.037   9.688   4.920 -2.3014  0.0740  3.6079
  602MOL0     O79333  10.835   0.635   3.180 -0.1131 -0.2653  0.7959
  602MOL0     C79334  10.935   0.657   3.250  0.1230  0.6677  0.7042
  602MOL0     O79335  11.044   0.581   3.261  1.0162 -0.2832  0.4461
  602MOL0     C79336  11.044   0.465   3.194  0.0045 -0.8128  0.8487
  602MOL0     C79337  10.949   0.365   3.200  1.2707  0.5394  0.0707
  602MOL0     C79338  10.977   0.248   3.123 -0.1815 -0.3810  0.3445
  602MOL0     C79339  11.096   0.215   3.067 -1.1121  0.3679  0.1453
  602MOL0     O79340  11.103   0.098   2.998 -0.0801  0.4001 -0.6151
  602MOL0     C79341  11.235   0.049   2.957  0.0072  0.2574 -0.0794
  602MOL0     C79342  11.206  -0.095   2.916 -0.3794 -0.1441  0.3031
  602MOL0     C79343  11.329  -0.187   2.909  0.1586  1.1643  0.0147
  602MOL0     C79344  11.292  -0.331   2.850 -0.3895 -0.6889  0.1260
  602MOL0     C79345  11.396  -0.439   2.866  0.6758 -0.0129 -0.4037
  602MOL0     C79346  11.547  -0.398   2.855  0.2308 -0.4345  0.0286
  602MOL0     C79347  11.633  -0.516   2.906 -0.0474  0.1013 -0.3024
  602MOL0     C79348  11.680  -0.614   2.803 -0.9885  0.2727  0.6774
  602MOL0     N79349  11.577  -0.683   2.729  0.0125  0.5235 -0.9362
  602MOL0     C79350  11.521  -0.639   2.614 -0.2408 -0.3786 -0.4476
  602MOL0     C79351  11.418  -0.731   2.606 -0.1746 -0.1507  0.3112
  602MOL0     C79352  11.334  -0.753   2.485  0.5145 -0.1452 -0.0371
  602MOL0     C79353  11.404  -0.849   2.383 -0.2017 -0.2571 -0.8652
  602MOL0     C79354  11.402  -0.997   2.410  0.2598 -0.4200  0.1271
  602MOL0     C79355  11.265  -1.054   2.441 -0.0714 -0.4063  0.3586
  602MOL0     O79356  11.269  -1.198   2.448  0.7483 -0.2875  0.6293
  602MOL0     C79357  11.286  -1.263   2.566  0.5161 -0.3830  0.3546
  602MOL0     C79358  11.266  -1.401   2.563 -0.2164 -0.1034  0.3822
  602MOL0     C79359  11.262  -1.475   2.685  0.5965 -0.3854  0.8311
  602MOL0     C79360  11.284  -1.410   2.813  0.0488 -0.4861  0.2102
  602MOL0     C79361  11.271  -1.499   2.934 -0.4927 -0.0788  0.6005
  602MOL0     O79362  11.319  -1.627   2.938  0.3065  0.2187  0.4412
  602MOL0     C79363  11.272  -1.712   3.031  0.2288 -0.3254 -0.9238
  602MOL0     C79364  11.358  -1.757   3.141 -0.8442 -0.2452  0.0930
  602MOL0     C79365  11.315  -1.845   3.237 -0.4213  0.2829  0.0765
  602MOL0     C79366  11.187  -1.901   3.231 -0.6494 -0.3539 -0.5712
  602MOL0     O79367  11.137  -2.008   3.307  0.0481 -0.5372 -0.1591
  602MOL0     C79368  11.217  -2.061   3.417  0.6736  0.0742  0.0567
  602MOL0     C79369  11.159  -2.194   3.473 -0.9716 -0.6408 -0.6306
  602MOL0     C79370  11.016  -2.188   3.550  0.5788 -0.0358 -0.0959
  602MOL0     C79371  10.888  -2.164   3.462 -0.7716  0.1733  0.6099
  602MOL0     C79372  10.877  -2.269   3.336 -0.0552 -0.4284 -0.4905
  602MOL0     C79373  10.740  -2.234   3.270 -0.5996 -1.1608  0.3480
  602MOL0     C79374  10.757  -2.111   3.173 -0.1967  0.0094 -1.2162
  602MOL0     C79375  10.623  -2.063   3.114  0.2163 -0.8360  0.1602
  602MOL0    Cl79376  10.590  -2.172   2.978  0.5694 -0.3652 -0.3713
  602MOL0     C79377  11.099  -1.851   3.135 -0.5849 -0.7372 -0.2520
  602MOL0     C79378  11.137  -1.763   3.030 -0.0845  0.8129 -0.2780
  602MOL0     O79379  11.228  -1.440   3.032 -0.5389  0.3262 -0.1400
  602MOL0     C79380  11.298  -1.271   2.816 -0.5472 -0.1208 -0.1805
  602MOL0     C79381  11.302  -1.206   2.691 -0.4840 -0.2782  0.3365
  602MOL0     N79382  11.407  -0.813   2.711  0.7237 -0.4048  0.4329
  602MOL0     N79383  11.508  -0.788   2.781  0.0488 -0.3112 -0.1946
  602MOL0     C79384  11.192   0.323   3.069 -0.1085  0.1830  0.1941
  602MOL0     C79385  11.162   0.444   3.121 -0.2830 -0.0852 -0.6967
  602MOL0     C79386  10.950   0.788   3.316  0.8559  0.7159  0.0311
  602MOL0     C79387  11.045   0.815   3.413 -0.3909  0.3858 -0.1531
  602MOL0     C79388  11.051   0.942   3.479 -1.0720  0.4572  0.6098
  602MOL0     C79389  10.942   1.028   3.465 -0.5072  0.5150  0.4031
  602MOL0     O79390  10.943   1.125   3.553  0.5514 -0.7251  0.6816
  602MOL0     C79391  10.875   1.246   3.530  0.1640  0.3665 -0.1202
  602MOL0     C79392  10.947   1.332   3.424  0.5866 -0.2744  0.7759
  602MOL0     C79393  11.099   1.334   3.426 -0.1682  0.6081 -0.1995
  602MOL0     C79394  11.148   1.427   3.534  0.0550  0.5305  0.5295
  602MOL0     C79395  11.286   1.442   3.518 -0.0848 -0.6634  0.7843
  602MOL0     C79396  11.404   1.478   3.510  0.9368 -0.1745  0.1657
  602MOL0     C79397  10.838   0.999   3.370 -0.5321 -0.1362 -0.2071
  602MOL0     C79398  10.844   0.884   3.294 -0.1521  0.0679  0.4417
  602MOL0     H79399  10.856   0.365   3.255  0.4327 -1.7163 -1.2028
  602MOL0     H79400  10.912   0.167   3.092  0.3352 -0.1367 -1.5036
  602MOL0     H79401  11.319   0.053   3.027  1.1883  1.2910 -1.4957
  602MOL0     H79402  11.269   0.104   2.869 -2.9585 -1.1815 -2.2895
  602MOL0     H79403  11.150  -0.099   2.822  1.2491  2.2497 -0.8848
  602MOL0     H79404  11.136  -0.145   2.983 -1.4481  0.1172 -0.5764
  602MOL0     H79405  11.368  -0.189   3.011 -2.2599  1.5447  1.0059
  602MOL0     H79406  11.399  -0.141   2.839  0.1053  0.9321 -0.1930
  602MOL0     H79407  11.197  -0.368   2.890 -0.2878  1.0096  2.1104
  602MOL0     H79408  11.284  -0.312   2.743 -1.2497 -4.0603 -0.5385
  602MOL0     H79409  11.375  -0.504   2.780 -0.7835  1.0481 -0.8971
  602MOL0     H79410  11.394  -0.494   2.961  1.6606 -1.7532 -1.3310
  602MOL0     H79411  11.562  -0.319   2.929 -0.7239 -0.0017 -0.2242
  602MOL0     H79412  11.553  -0.369   2.750 -0.2298 -3.6887 -1.0104
  602MOL0     H79413  11.715  -0.453   2.943 -1.5150  1.6533  0.4867
  602MOL0     H79414  11.593  -0.559   2.998 -1.2526  0.2238 -0.7562
  602MOL0     H79415  11.751  -0.683   2.849 -2.2225 -1.3911  0.1863
  602MOL0     H79416  11.744  -0.562   2.731  0.7029 -0.1105  1.8353
  602MOL0     H79417  11.564  -0.572   2.541 -1.5526  0.1581 -0.7548
  602MOL0     H79418  11.319  -0.652   2.446  1.2494 -0.4350 -1.1199
  602MOL0     H79419  11.237  -0.799   2.508  0.3233 -0.9645 -2.1990
  602MOL0     H79420  11.512  -0.835   2.375  0.0707 -1.4108  0.3856
  602MOL0     H79421  11.360  -0.823   2.286  1.2075 -0.5271 -1.6013
  602MOL0     H79422  11.446  -1.047   2.323  0.8469 -0.3448  0.3756
  602MOL0     H79423  11.462  -1.026   2.497 -2.5418  2.4582  3.3066
  602MOL0     H79424  11.205  -1.006   2.363 -0.0960  1.2497  1.3353
  602MOL0     H79425  11.224  -1.011   2.533  1.2238  0.6662  0.4655
  602MOL0     H79426  11.258  -1.441   2.462 -1.3507 -0.5130  0.6180
  602MOL0     H79427  11.229  -1.576   2.665 -1.3475  0.5892 -1.4665
  602MOL0     H79428  11.463  -1.731   3.151 -0.1418 -1.9417 -1.9662
  602MOL0     H79429  11.382  -1.860   3.321 -2.6856 -4.8578  1.4103
  602MOL0     H79430  11.220  -1.988   3.499  1.8560 -0.5539  0.5941
  602MOL0     H79431  11.322  -2.074   3.389  0.2498 -1.4187 -0.9533
  602MOL0     H79432  11.229  -2.214   3.555 -1.8621  0.5227  0.4645
  602MOL0     H79433  11.173  -2.278   3.404  0.0900  1.0894 -2.6149
  602MOL0     H79434  11.012  -2.113   3.629  3.0387  0.6824 -0.5789
  602MOL0     H79435  11.005  -2.279   3.610  0.1741  1.2321  1.8299
  602MOL0     H79436  10.810  -2.188   3.535 -0.6608  1.0720  1.0337
  602MOL0     H79437  10.878  -2.058   3.439 -0.5113  0.2786  0.9755
  602MOL0     H79438  10.883  -2.374   3.368  0.3526 -0.4713 -0.7059
  602MOL0     H79439  10.955  -2.239   3.265 -3.2199  0.7723 -3.7460
  602MOL0     H79440  10.660  -2.222   3.343  1.1377 -0.3815  2.2362
  602MOL0     H79441  10.694  -2.312   3.209 -1.3137 -1.2364  0.9633
  602MOL0     H79442  10.800  -2.027   3.228 -0.1501 -1.4931  1.1755
  602MOL0     H79443  10.826  -2.141   3.093  0.3553 -0.1533 -0.6890
  602MOL0     H79444  10.641  -1.961   3.080  0.1472 -0.0818  2.2255
  602MOL0     H79445  10.547  -2.058   3.192 -0.1865  1.8621 -0.3237
  602MOL0     H79446  10.996  -1.884   3.131 -1.7604  2.1731  1.8050
  602MOL0     H79447  11.069  -1.747   2.947 -1.4780  4.0244  1.3146
  602MOL0     H79448  11.322  -1.222   2.909 -1.1926 -1.5061  0.7511
  602MOL0     H79449  11.306  -1.099   2.709  0.3244 -0.8234  4.0831
  602MOL0     H79450  11.285   0.317   3.013 -1.1639  2.9985 -2.1524
  602MOL0     H79451  11.235   0.524   3.116  0.9824 -1.0565  1.3053
  602MOL0     H79452  11.123   0.742   3.431  0.0221  0.6074 -0.9945
  602MOL0     H79453  11.136   0.957   3.546  1.6132  1.9597 -2.8426
  602MOL0     H79454  10.886   1.295   3.628 -2.3486 -1.9862  1.4747
  602MOL0     H79455  10.770   1.226   3.508  0.4852 -2.1873  0.3591
  602MOL0     H79456  10.918   1.288   3.329 -0.0963 -3.7426  2.4096
  602MOL0     H79457  10.905   1.433   3.431 -1.9907 -1.0069 -2.1488
  602MOL0     H79458  11.123   1.376   3.328 -0.4801  0.2618 -0.4278
  602MOL0     H79459  11.144   1.235   3.441 -1.0074  0.4837  1.9134
  602MOL0     H79460  11.089   1.517   3.512 -1.5933 -0.7585 -0.5707
  602MOL0     H79461  11.113   1.386   3.629 -0.5893  1.0750  0.5363
  602MOL0     H79462  11.503   1.501   3.475  0.7467 -4.6299 -4.3714
  602MOL0     H79463  10.743   1.050   3.362 -1.7762 -2.0133  1.5180
  602MOL0     H79464  10.759   0.857   3.232  0.0947  0.4826 -0.0794
  603MOL0     O79465   4.427   2.336  10.496  1.0442 -0.6665  0.5490
  603MOL0     C79466   4.324   2.392  10.496  0.8099  0.2474 -0.5176
  603MOL0     O79467   4.301   2.525  10.514  0.3576 -0.0405  0.6379
  603MOL0     C79468   4.411   2.604  10.535  0.7811  0.0223 -0.6029
  603MOL0     C79469   4.515   2.570  10.621 -0.3130  1.0625  0.4652
  603MOL0     C79470   4.616   2.659  10.644 -1.1194 -0.1835  0.1388
  603MOL0     C79471   4.618   2.787  10.592 -1.0216  0.0131  0.2227
  603MOL0     O79472   4.703   2.887  10.628 -0.3192 -0.5170 -0.4925
  603MOL0     C79473   4.707   3.005  10.544 -0.4413 -0.7923  0.6339
  603MOL0     C79474   4.842   3.082  10.570 -0.0593  0.0945  0.1865
  603MOL0     C79475   4.845   3.182  10.690 -0.1952  0.4639 -0.2479
  603MOL0     C79476   4.833   3.117  10.834 -0.2726  0.2644  0.2348
  603MOL0     C79477   4.726   3.185  10.924 -0.1481 -0.8043  0.1927
  603MOL0     C79478   4.690   3.099  11.038  0.6448  0.0895  0.4289
  603MOL0     C79479   4.574   3.010  11.013 -0.1464  0.7784  0.9073
  603MOL0     C79480   4.485   2.981  11.133 -0.7212  0.2803 -0.1413
  603MOL0     N79481   4.402   2.863  11.103 -0.4818 -0.4969 -0.8483
  603MOL0     C79482   4.304   2.864  11.011 -0.1926 -0.2051 -0.2262
  603MOL0     C79483   4.229   2.754  11.040  0.1729  0.0282 -0.3783
  603MOL0     C79484   4.100   2.699  10.979  0.6431  0.0638 -0.3617
  603MOL0     C79485   4.134   2.671  10.832 -0.1560  0.9313  0.2155
  603MOL0     C79486   4.007   2.630  10.755 -0.5984 -0.2037 -0.1482
  603MOL0     C79487   3.910   2.748  10.746 -0.1038 -0.6300  0.2076
  603MOL0     O79488   3.840   2.750  10.617 -0.7048  1.4456 -0.1109
  603MOL0     C79489   3.705   2.738  10.604 -0.5449 -0.5946 -0.9286
  603MOL0     C79490   3.649   2.785  10.478  0.3312  0.4576  0.4292
  603MOL0     C79491   3.514   2.788  10.458 -0.2928 -0.3458 -0.0651
  603MOL0     C79492   3.421   2.764  10.560  0.8796 -0.3004 -1.3071
  603MOL0     C79493   3.279   2.793  10.547 -0.0598 -1.5771  0.6974
  603MOL0     O79494   3.194   2.697  10.597 -0.1335 -0.3717 -0.3775
  603MOL0     C79495   3.083   2.671  10.518  0.3757  0.1533 -0.0475
  603MOL0     C79496   2.975   2.620  10.589  0.2336 -0.3584 -0.1087
  603MOL0     C79497   2.859   2.562  10.534  0.6668  0.8285  0.8151
  603MOL0     C79498   2.843   2.544  10.395  0.0440 -0.3120  0.6196
  603MOL0     O79499   2.726   2.509  10.329 -0.0221  0.2729  0.1286
  603MOL0     C79500   2.617   2.440  10.399  0.5123 -0.0407 -0.0299
  603MOL0     C79501   2.491   2.443  10.309  0.6543  0.6489 -0.3168
  603MOL0     C79502   2.378   2.371  10.372  0.1047 -0.7763 -0.1244
  603MOL0     C79503   2.246   2.393  10.295 -0.0201  0.2073  0.4687
  603MOL0     C79504   2.132   2.309  10.353 -0.9989 -0.5122 -0.9298
  603MOL0     C79505   1.995   2.339  10.287 -0.5790 -0.7543  0.2423
  603MOL0     C79506   1.883   2.251  10.352  0.5522 -0.3460  0.2369
  603MOL0     C79507   1.735   2.299  10.329 -0.3655  0.6078 -0.8142
  603MOL0    Cl79508   1.707   2.320  10.150  0.2509  0.1156 -0.3904
  603MOL0     C79509   2.948   2.607  10.314  0.2463  1.1345 -0.0193
  603MOL0     C79510   3.067   2.665  10.376  0.2282 -0.1539 -0.2819
  603MOL0     O79511   3.247   2.884  10.474  0.2490  0.2864  0.0957
  603MOL0     C79512   3.469   2.719  10.683 -0.1939 -0.4380 -0.3084
  603MOL0     C79513   3.611   2.704  10.704 -0.0545 -0.5990 -0.3934
  603MOL0     N79514   4.287   2.699  11.154 -0.3498  0.1872 -0.3494
  603MOL0     N79515   4.397   2.748  11.178 -0.4287 -0.3727  0.5550
  603MOL0     C79516   4.504   2.817  10.511  0.3661  0.2279 -0.3580
  603MOL0     C79517   4.398   2.730  10.497 -0.6658 -0.5994 -0.1016
  603MOL0     C79518   4.207   2.306  10.456  0.8541 -0.3148  0.4863
  603MOL0     C79519   4.235   2.172  10.435 -0.1233  1.1796  0.0847
  603MOL0     C79520   4.130   2.081  10.404 -0.3578  0.1698 -0.2153
  603MOL0     C79521   4.000   2.124  10.410 -0.5593 -0.5505 -0.1479
  603MOL0     O79522   3.891   2.055  10.396 -0.2415 -0.3826 -0.5308
  603MOL0     C79523   3.904   1.915  10.392 -0.1785  0.3722 -0.3578
  603MOL0     C79524   3.931   1.862  10.252  0.3763 -0.2523 -1.2340
  603MOL0     C79525   3.942   1.713  10.272 -0.5519  0.7323  0.5135
  603MOL0     C79526   3.986   1.648  10.135 -0.9222  0.0873 -0.8205
  603MOL0     C79527   3.893   1.671  10.024 -0.1309  0.2807 -0.5839
  603MOL0     C79528   3.819   1.694   9.936  0.1898 -0.2917  1.1525
  603MOL0     C79529   3.975   2.258  10.418 -0.6041 -0.3762 -0.2385
  603MOL0     C79530   4.080   2.353  10.436 -0.2468 -0.4058 -0.4984
  603MOL0     H79531   4.500   2.469  10.660 -1.0044  0.8860 -0.2296
  603MOL0     H79532   4.696   2.616  10.703  0.4117  0.2739 -1.5366
  603MOL0     H79533   4.629   3.077  10.572  0.5059  0.7732 -0.6288
  603MOL0     H79534   4.681   2.990  10.439 -2.4483  1.3394  0.7505
  603MOL0     H79535   4.857   3.148  10.483 -0.2959  1.2437  0.9958
  603MOL0     H79536   4.912   3.000  10.589  0.7058 -0.1223 -2.9523
  603MOL0     H79537   4.754   3.242  10.685 -0.4744  0.1072  0.3724
  603MOL0     H79538   4.932   3.248  10.680 -0.2037  0.5164  0.0215
  603MOL0     H79539   4.806   3.011  10.830 -0.5402  0.3271  0.3050
  603MOL0     H79540   4.932   3.129  10.879  0.7578  0.2440 -1.9007
  603MOL0     H79541   4.645   3.231  10.867  1.7963 -0.2085 -2.3290
  603MOL0     H79542   4.775   3.276  10.959  0.7634 -1.4343  0.6073
  603MOL0     H79543   4.670   3.166  11.122  0.5010 -1.2051  1.4562
  603MOL0     H79544   4.773   3.036  11.071 -0.6030 -1.0586  1.5227
  603MOL0     H79545   4.522   3.052  10.926  1.7883  0.3024 -0.5374
  603MOL0     H79546   4.604   2.910  10.980  0.7727  0.2521  3.1650
  603MOL0     H79547   4.425   3.071  11.147 -1.2535  0.0391 -0.7905
  603MOL0     H79548   4.539   2.980  11.228 -1.4112 -0.6392  0.2605
  603MOL0     H79549   4.273   2.940  10.939  1.6982  0.0599 -0.8055
  603MOL0     H79550   4.023   2.776  10.987  4.7424  4.3859  4.0323
  603MOL0     H79551   4.072   2.611  11.038  0.8107  0.5215  0.4194
  603MOL0     H79552   4.207   2.590  10.818 -1.4345 -0.8147  2.9062
  603MOL0     H79553   4.182   2.752  10.776 -0.2579  0.2115 -0.9637
  603MOL0     H79554   4.039   2.596  10.656  1.9359  0.4505  0.3623
  603MOL0     H79555   3.966   2.546  10.811 -0.5322 -1.2991 -1.6629
  603MOL0     H79556   3.953   2.849  10.747 -3.3345  0.9064 -1.3962
  603MOL0     H79557   3.845   2.734  10.833  0.5616  0.5650  0.9294
  603MOL0     H79558   3.722   2.816  10.404 -0.3459 -0.6032 -0.7290
  603MOL0     H79559   3.482   2.842  10.369  0.9493  1.4290  0.5028
  603MOL0     H79560   2.989   2.627  10.697  4.9378  1.5886 -0.5784
  603MOL0     H79561   2.778   2.540  10.602  2.0576  1.6989  2.8397
  603MOL0     H79562   2.597   2.488  10.495  2.0785  0.1123  0.2447
  603MOL0     H79563   2.655   2.339  10.418  1.6971 -0.3318 -3.3016
  603MOL0     H79564   2.515   2.396  10.213  3.7614  1.7487 -0.1859
  603MOL0     H79565   2.463   2.548  10.292 -2.0052  0.0005 -0.3064
  603MOL0     H79566   2.383   2.394  10.479 -2.6143  0.0887 -0.1247
  603MOL0     H79567   2.399   2.263  10.368  2.1182 -0.4726  0.7236
  603MOL0     H79568   2.212   2.493  10.326 -0.6194 -0.0050  0.4968
  603MOL0     H79569   2.243   2.386  10.186 -1.7627  1.4276  0.3931
  603MOL0     H79570   2.110   2.320  10.460 -0.2783 -1.4843 -0.6697
  603MOL0     H79571   2.162   2.204  10.344 -2.5014 -1.5584  3.6092
  603MOL0     H79572   2.003   2.312  10.182 -2.1295  0.3163 -0.1928
  603MOL0     H79573   1.971   2.446  10.287  0.5483 -0.4318 -2.3757
  603MOL0     H79574   1.886   2.147  10.319  0.2854 -1.1919  2.6736
  603MOL0     H79575   1.887   2.240  10.460  0.1007 -1.3512  0.1550
  603MOL0     H79576   1.711   2.388  10.387 -3.4932  0.1629 -1.2508
  603MOL0     H79577   1.672   2.218  10.365  1.2300 -0.3492 -0.0528
  603MOL0     H79578   2.944   2.589  10.207  1.6891  0.7257 -0.0269
  603MOL0     H79579   3.151   2.704  10.319  0.1877  3.1265  1.6724
  603MOL0     H79580   3.394   2.701  10.759 -0.0961  0.3372 -0.0228
  603MOL0     H79581   3.650   2.666  10.798  0.4267  0.7831 -0.0040
  603MOL0     H79582   4.504   2.915  10.464  2.0557  1.2956  1.7373
  603MOL0     H79583   4.314   2.764  10.439 -1.1337  0.2794  1.0595
  603MOL0     H79584   4.329   2.119  10.445 -0.4779  0.6195  0.5361
  603MOL0     H79585   4.173   1.982  10.387 -3.9303 -1.6947  0.7131
  603MOL0     H79586   3.818   1.863  10.434  0.3318  0.3438  0.6974
  603MOL0     H79587   3.984   1.880  10.459  0.4010 -1.3333 -1.8688
  603MOL0     H79588   3.846   1.898  10.193 -1.4038 -1.2848  0.5875
  603MOL0     H79589   4.020   1.898  10.199  0.5079 -0.3703 -1.0945
  603MOL0     H79590   3.841   1.673  10.286 -0.3101 -1.0780 -2.2571
  603MOL0     H79591   4.021   1.694  10.345  2.0683  0.0519 -2.3123
  603MOL0     H79592   4.086   1.686  10.112 -1.6730  3.2775  0.6139
  603MOL0     H79593   4.004   1.541  10.148 -0.1412  0.1253 -1.4891
  603MOL0     H79594   3.757   1.737   9.860  0.4634  1.1802  1.7308
  603MOL0     H79595   3.873   2.290  10.435 -0.8138  1.1198 -3.6215
  603MOL0     H79596   4.065   2.460  10.449  0.2541 -0.1742 -1.7406
  604MOL0     O79597   8.839   9.482   2.179  0.3956 -0.4197 -0.2959
  604MOL0     C79598   8.955   9.506   2.211  0.8799  0.1687  0.2367
  604MOL0     O79599   9.027   9.624   2.191  0.1628  0.3376 -0.2877
  604MOL0     C79600   9.001   9.691   2.081  0.4556  0.3494  0.0074
  604MOL0     C79601   9.015   9.829   2.086 -0.1646  0.0470  0.6247
  604MOL0     C79602   9.015   9.902   1.974  0.2536  0.9390 -0.3847
  604MOL0     C79603   8.987   9.852   1.852  1.1126  0.3235  0.1558
  604MOL0     O79604   8.980   9.936   1.743 -0.3783 -0.0317  0.2725
  604MOL0     C79605   8.991   9.869   1.614 -1.2610 -0.2635 -0.4354
  604MOL0     C79606   9.006   9.978   1.499  1.2484  0.9472 -0.7244
  604MOL0     C79607   9.098  10.093   1.534  1.2760  0.3374  0.4355
  604MOL0     C79608   9.246  10.055   1.540 -0.1026 -0.2015  0.1954
  604MOL0     C79609   9.331  10.182   1.552 -0.9201 -0.1508  0.8826
  604MOL0     C79610   9.308  10.264   1.680 -1.0053 -0.6254 -0.6310
  604MOL0     C79611   9.335  10.186   1.817 -0.3011  0.3169 -0.4693
  604MOL0     C79612   9.316  10.290   1.926 -0.0558 -0.5025  0.3826
  604MOL0     N79613   9.321  10.231   2.053 -0.4729  0.6763 -1.1590
  604MOL0     C79614   9.212  10.185   2.123  0.5880 -0.1570  0.7237
  604MOL0     C79615   9.252  10.136   2.238  0.1704  0.4419 -0.3463
  604MOL0     C79616   9.189  10.087   2.373 -0.7150 -0.3174  0.0114
  604MOL0     C79617   9.051  10.153   2.391 -0.5444  0.7146  0.0193
  604MOL0     C79618   8.984  10.100   2.532 -0.0212 -0.2143  0.6890
  604MOL0     C79619   9.035  10.172   2.657 -0.2653 -0.3830  0.0543
  604MOL0     O79620   8.974  10.306   2.661  0.8195  0.7131 -0.5369
  604MOL0     C79621   8.849  10.326   2.711  0.4407 -0.8889 -0.4366
  604MOL0     C79622   8.748  10.231   2.760 -0.4941  0.0610  0.4572
  604MOL0     C79623   8.614  10.268   2.780  0.2757  0.1926 -1.3456
  604MOL0     C79624   8.575  10.404   2.759 -0.2857 -0.6303  0.2966
  604MOL0     C79625   8.432  10.447   2.792  0.0863 -0.0337  0.1489
  604MOL0     O79626   8.419  10.582   2.806  0.2545 -0.0974 -0.3052
  604MOL0     C79627   8.301  10.636   2.830  0.5647 -1.1133 -0.8003
  604MOL0     C79628   8.262  10.753   2.777 -0.8362  0.4890  0.2713
  604MOL0     C79629   8.145  10.818   2.812 -0.7349 -0.5608 -0.7408
  604MOL0     C79630   8.064  10.764   2.906  0.1503  0.6769  0.0834
  604MOL0     O79631   7.944  10.825   2.940 -0.2831  0.1030  0.4034
  604MOL0     C79632   7.958  10.966   2.973  0.2614  0.4300  0.4799
  604MOL0     C79633   7.847  11.019   3.055  0.5680  0.1820 -0.6965
  604MOL0     C79634   7.719  11.037   2.976 -1.7532 -0.6623  0.6371
  604MOL0     C79635   7.616  11.127   3.046 -0.5458 -0.5226  0.2633
  604MOL0     C79636   7.497  11.168   2.961 -0.5714  0.3625  0.0984
  604MOL0     C79637   7.394  11.062   2.922 -0.5400  0.5317 -0.6303
  604MOL0     C79638   7.322  11.107   2.795 -0.4492 -0.1162 -0.0447
  604MOL0     C79639   7.170  11.064   2.800  0.0457 -0.5069  0.2895
  604MOL0    Cl79640   7.088  11.155   2.938  0.2088  0.1730 -0.1978
  604MOL0     C79641   8.106  10.645   2.969  0.5411 -0.2794  1.3162
  604MOL0     C79642   8.229  10.582   2.933  1.1375  0.1614 -0.6175
  604MOL0     O79643   8.331  10.364   2.792 -0.0909  0.5499 -0.4261
  604MOL0     C79644   8.677  10.494   2.714  0.2834  0.1341  0.2365
  604MOL0     C79645   8.806  10.458   2.696 -0.3873  0.6391 -0.6503
  604MOL0     N79646   9.385  10.133   2.229 -0.5446  0.1767 -0.4285
  604MOL0     N79647   9.426  10.187   2.126 -0.3337 -0.4289  0.3900
  604MOL0     C79648   8.959   9.714   1.846  0.3047  0.3153  0.3923
  604MOL0     C79649   8.973   9.632   1.961 -0.0119 -0.6748  0.7681
  604MOL0     C79650   9.012   9.402   2.303 -0.5253  0.4691 -0.2903
  604MOL0     C79651   9.111   9.423   2.405 -0.2985 -0.3071 -0.5168
  604MOL0     C79652   9.150   9.329   2.502  0.3072  0.3749  0.0281
  604MOL0     C79653   9.106   9.196   2.504 -0.3481  0.7321 -0.5213
  604MOL0     O79654   9.167   9.107   2.590  0.3415  0.0329 -0.9148
  604MOL0     C79655   9.149   8.972   2.563 -0.1269  1.0074 -0.0362
  604MOL0     C79656   9.198   8.896   2.689  0.5475  0.0755 -0.6871
  604MOL0     C79657   9.183   8.734   2.673 -0.8816 -0.8993 -0.1663
  604MOL0     C79658   9.235   8.654   2.797  0.0179 -0.4957  0.6900
  604MOL0     C79659   9.171   8.681   2.923  0.4837  0.5952  0.3310
  604MOL0     C79660   9.120   8.706   3.027  0.2138 -0.0729 -0.4000
  604MOL0     C79661   8.999   9.176   2.407  0.2748  0.3343  0.1365
  604MOL0     C79662   8.951   9.273   2.319  0.5245 -0.1462  0.7358
  604MOL0     H79663   9.032   9.875   2.182  2.4959 -3.4211  2.0189
  604MOL0     H79664   9.054  10.001   1.990  0.9280  0.4144  1.4592
  604MOL0     H79665   8.908   9.799   1.600 -2.1629  0.0298  2.6811
  604MOL0     H79666   9.079   9.805   1.621 -0.3099  1.0599 -0.0084
  604MOL0     H79667   8.912  10.030   1.478 -1.3204 -3.2546 -0.9019
  604MOL0     H79668   9.040   9.933   1.405 -0.2363 -0.3359 -0.6980
  604MOL0     H79669   9.072  10.138   1.629  1.0894 -0.2611  0.6753
  604MOL0     H79670   9.080  10.170   1.458 -0.9123 -0.1944  0.3477
  604MOL0     H79671   9.261   9.980   1.619 -0.0582 -0.4224 -0.0224
  604MOL0     H79672   9.291  10.011   1.451 -0.7232 -1.0815  0.3075
  604MOL0     H79673   9.309  10.242   1.463 -0.9720 -2.2706 -0.6217
  604MOL0     H79674   9.435  10.149   1.553 -0.6362  0.5196 -1.2303
  604MOL0     H79675   9.205  10.299   1.668 -1.1970 -1.3119 -1.0522
  604MOL0     H79676   9.368  10.355   1.681 -0.4024 -1.0204 -0.3734
  604MOL0     H79677   9.269  10.101   1.835  3.0831 -2.3528  0.5701
  604MOL0     H79678   9.432  10.138   1.834 -0.9470 -0.0331  2.9633
  604MOL0     H79679   9.217  10.337   1.917 -0.1719 -1.0538 -2.1820
  604MOL0     H79680   9.396  10.363   1.910 -0.1364 -0.9899 -2.9598
  604MOL0     H79681   9.109  10.213   2.105  0.8537 -0.7037 -2.1712
  604MOL0     H79682   9.258  10.119   2.451  1.8508 -0.9461 -1.8641
  604MOL0     H79683   9.178   9.978   2.378 -4.6847 -0.1872 -1.8432
  604MOL0     H79684   8.990  10.116   2.308 -0.1106 -3.0699  1.1831
  604MOL0     H79685   9.079  10.259   2.392  0.2028  0.5291 -0.5598
  604MOL0     H79686   8.878  10.129   2.538  0.3354  1.6472 -1.0838
  604MOL0     H79687   9.000   9.992   2.539  0.4781 -0.2033 -0.1245
  604MOL0     H79688   9.143  10.174   2.646  0.3922 -3.8773  3.4359
  604MOL0     H79689   9.034  10.109   2.747 -0.9501  0.7021  0.8387
  604MOL0     H79690   8.779  10.130   2.781 -2.2109 -0.7114 -0.5419
  604MOL0     H79691   8.541  10.208   2.833  1.9486  2.3360  3.9997
  604MOL0     H79692   8.329  10.792   2.701  2.0944 -2.9417  0.8377
  604MOL0     H79693   8.111  10.908   2.762 -1.7560 -1.5892 -1.9630
  604MOL0     H79694   7.965  11.032   2.885  0.2327  3.4799  2.5941
  604MOL0     H79695   8.052  10.976   3.029  2.0170 -0.5788 -2.0721
  604MOL0     H79696   7.879  11.114   3.098  0.6207  0.6802 -1.7878
  604MOL0     H79697   7.828  10.941   3.129  1.7116 -1.3181 -1.8965
  604MOL0     H79698   7.679  10.936   2.963  2.2225 -2.1052 -2.0404
  604MOL0     H79699   7.750  11.076   2.879  3.7295  1.1879  2.7532
  604MOL0     H79700   7.582  11.084   3.141 -0.8636  0.6269  0.6877
  604MOL0     H79701   7.671  11.217   3.076 -0.4115 -0.5176  0.0015
  604MOL0     H79702   7.536  11.218   2.871 -1.9986  0.3140 -0.5717
  604MOL0     H79703   7.440  11.240   3.022  1.3153 -2.5018  6.0093
  604MOL0     H79704   7.314  11.056   2.997 -1.2493  1.2450 -1.3047
  604MOL0     H79705   7.442  10.964   2.909 -3.3895 -1.0384 -0.1734
  604MOL0     H79706   7.324  11.216   2.788  0.8697 -0.2176 -2.2422
  604MOL0     H79707   7.371  11.065   2.707 -1.0293  1.1826 -1.0148
  604MOL0     H79708   7.152  10.958   2.821 -1.4089 -0.0673  1.3882
  604MOL0     H79709   7.117  11.087   2.707 -1.8259 -0.2726  1.3587
  604MOL0     H79710   8.024  10.611   3.033 -4.2347  3.3065 -2.1195
  604MOL0     H79711   8.262  10.490   2.981  2.8796 -1.1410 -3.9954
  604MOL0     H79712   8.650  10.597   2.693  1.2732  0.2657 -0.4899
  604MOL0     H79713   8.890  10.517   2.661  2.2510 -2.2261  0.3139
  604MOL0     H79714   8.953   9.654   1.755 -0.6462 -0.4384  0.9344
  604MOL0     H79715   8.964   9.524   1.952  1.6689 -0.6776 -3.7085
  604MOL0     H79716   9.152   9.523   2.407 -0.9744 -0.0313  0.2436
  604MOL0     H79717   9.224   9.359   2.576  0.1306  1.3562 -0.1688
  604MOL0     H79718   9.201   8.929   2.477 -0.8019 -3.3135  1.4674
  604MOL0     H79719   9.048   8.937   2.537  0.4101 -2.4493  1.9437
  604MOL0     H79720   9.299   8.929   2.714 -0.7462  2.3567  2.0710
  604MOL0     H79721   9.137   8.933   2.772  0.2086 -1.1872 -0.3563
  604MOL0     H79722   9.243   8.699   2.589 -1.8853  1.7972 -2.1767
  604MOL0     H79723   9.077   8.715   2.654 -2.0989  5.6145 -2.5381
  604MOL0     H79724   9.234   8.546   2.781  3.8130 -0.4638 -0.8819
  604MOL0     H79725   9.341   8.675   2.814 -0.4831  1.7234  1.4684
  604MOL0     H79726   9.089   8.741   3.124 -0.7642 -0.2762 -0.6341
  604MOL0     H79727   8.966   9.076   2.384 -1.1359  1.1054 -1.3454
  604MOL0     H79728   8.870   9.246   2.252 -0.7474  3.1985  0.7620
  605MOL0     O79729   3.024   8.828   3.759  0.3338 -0.3476  0.2759
  605MOL0     C79730   3.106   8.923   3.732  0.5522 -0.3155 -0.2643
  605MOL0     O79731   3.228   8.914   3.679 -0.4417 -0.1873  0.0221
  605MOL0     C79732   3.271   8.794   3.618 -0.1198 -1.4347  0.0482
  605MOL0     C79733   3.264   8.784   3.474 -0.5328  0.0964 -0.4728
  605MOL0     C79734   3.310   8.667   3.413  0.1090  1.1918 -0.0377
  605MOL0     C79735   3.350   8.546   3.494  0.0172 -0.4094  0.2633
  605MOL0     O79736   3.406   8.437   3.438 -0.4962  0.0338 -0.0752
  605MOL0     C79737   3.330   8.372   3.335  0.2757 -0.2239 -0.3101
  605MOL0     C79738   3.223   8.281   3.401  0.4935  0.6784 -0.1671
  605MOL0     C79739   3.158   8.176   3.302  0.3216 -0.7122 -0.7572
  605MOL0     C79740   3.082   8.072   3.379 -0.6039 -0.5377 -0.1244
  605MOL0     C79741   3.020   7.975   3.274  0.1943 -0.5023  0.0414
  605MOL0     C79742   2.899   7.912   3.319  1.8106  0.0899  0.0655
  605MOL0     C79743   2.848   7.803   3.220 -0.8909 -0.2573  0.4553
  605MOL0     C79744   2.742   7.711   3.280 -0.0891  0.4203  0.0658
  605MOL0     N79745   2.728   7.617   3.168  0.5397  0.6750 -0.0209
  605MOL0     C79746   2.664   7.641   3.052  0.1567  0.0535  1.0404
  605MOL0     C79747   2.674   7.524   2.975  0.1929  0.4235  0.0341
  605MOL0     C79748   2.604   7.496   2.843  0.4239 -0.0673  0.0358
  605MOL0     C79749   2.693   7.428   2.735  0.5546 -0.3733  0.5763
  605MOL0     C79750   2.812   7.519   2.701 -0.3250  0.1392 -0.6571
  605MOL0     C79751   2.917   7.438   2.627 -0.0995  0.2925  0.6870
  605MOL0     O79752   3.024   7.524   2.597  0.2741 -0.1017 -0.7796
  605MOL0     C79753   3.139   7.487   2.531  0.2448 -0.4531 -0.2258
  605MOL0     C79754   3.157   7.351   2.501  0.4516 -0.0405  1.5236
  605MOL0     C79755   3.282   7.314   2.447 -1.1826 -0.8363 -0.8338
  605MOL0     C79756   3.394   7.404   2.443  0.5453  0.0705  0.7890
  605MOL0     C79757   3.535   7.366   2.432 -0.2563  0.4623  0.5562
  605MOL0     O79758   3.565   7.251   2.370  0.9657 -0.1811 -0.2850
  605MOL0     C79759   3.697   7.219   2.345  0.2329  0.3650 -0.4525
  605MOL0     C79760   3.764   7.107   2.402 -0.3808 -0.1587  0.0727
  605MOL0     C79761   3.900   7.085   2.378  0.3271 -0.0232 -0.0034
  605MOL0     C79762   3.981   7.163   2.293  0.5296  0.4600  0.5887
  605MOL0     O79763   4.117   7.147   2.279 -0.1243 -0.2840  0.0552
  605MOL0     C79764   4.187   7.108   2.392 -0.8479  0.3428  0.0390
  605MOL0     C79765   4.331   7.098   2.362  0.0274  0.5439 -0.3226
  605MOL0     C79766   4.369   6.993   2.254 -0.7347 -0.6488 -0.0480
  605MOL0     C79767   4.521   6.974   2.257  0.3413  0.4557  0.4875
  605MOL0     C79768   4.586   6.840   2.212  0.4852 -0.1990  0.2804
  605MOL0     C79769   4.531   6.798   2.070 -1.1699  0.8189 -0.1021
  605MOL0     C79770   4.614   6.685   2.014  0.1679  0.0396  0.8498
  605MOL0     C79771   4.591   6.668   1.863  0.3588 -0.1168  0.6720
  605MOL0    Cl79772   4.407   6.653   1.825  0.1543  0.1557  0.3789
  605MOL0     C79773   3.912   7.260   2.221  1.1287  0.5315  0.3161
  605MOL0     C79774   3.771   7.295   2.251 -0.1186  0.4044  0.4511
  605MOL0     O79775   3.611   7.449   2.463 -0.0415 -0.0343  0.0628
  605MOL0     C79776   3.367   7.537   2.478  0.4306 -0.2164 -0.5697
  605MOL0     C79777   3.243   7.576   2.529 -1.3323 -0.4071  0.5998
  605MOL0     N79778   2.768   7.441   3.043  0.8872 -0.2513  0.1303
  605MOL0     N79779   2.786   7.491   3.163 -0.2604 -0.6935 -0.0184
  605MOL0     C79780   3.364   8.569   3.629  0.2947  0.9491 -0.5473
  605MOL0     C79781   3.323   8.689   3.691 -0.1762  0.0945  0.4167
  605MOL0     C79782   3.058   9.054   3.798 -0.6907 -0.0912 -0.4312
  605MOL0     C79783   3.151   9.154   3.815 -0.1691 -0.6595  0.1119
  605MOL0     C79784   3.105   9.269   3.876  0.1707 -0.2126 -0.1149
  605MOL0     C79785   2.973   9.290   3.926 -0.8939 -0.8015  0.0618
  605MOL0     O79786   2.940   9.411   3.978  0.5659  0.9042 -0.6566
  605MOL0     C79787   2.804   9.435   4.016 -0.4170  0.1474 -0.2188
  605MOL0     C79788   2.798   9.588   4.067 -0.8681 -0.2526 -0.0740
  605MOL0     C79789   2.658   9.624   4.113  0.6868 -0.1129  0.0895
  605MOL0     C79790   2.621   9.583   4.262 -0.0189  0.5900 -0.0907
  605MOL0     C79791   2.689   9.664   4.354  0.3292  0.0240 -0.1193
  605MOL0     C79792   2.758   9.748   4.415 -0.1346 -0.1024 -0.2509
  605MOL0     C79793   2.884   9.192   3.888 -0.0198 -0.4036 -0.5668
  605MOL0     C79794   2.922   9.067   3.827 -0.6436 -0.3204 -0.0716
  605MOL0     H79795   3.200   8.858   3.427 -0.0687  2.7536  2.7135
  605MOL0     H79796   3.302   8.665   3.305 -0.0702  0.8437 -0.0206
  605MOL0     H79797   3.400   8.304   3.287  2.5215 -1.1706  3.8219
  605MOL0     H79798   3.282   8.445   3.270 -1.8530 -1.2422 -0.0028
  605MOL0     H79799   3.139   8.342   3.434 -2.7903 -2.7708 -1.3840
  605MOL0     H79800   3.273   8.230   3.484  1.8085 -1.5202 -2.1815
  605MOL0     H79801   3.243   8.132   3.249  1.0083 -0.5971  0.2276
  605MOL0     H79802   3.083   8.213   3.231  0.0564  0.4080  0.0844
  605MOL0     H79803   3.137   8.015   3.453 -0.1116  0.5647  0.3782
  605MOL0     H79804   2.996   8.129   3.416  1.2177  3.1420 -1.1191
  605MOL0     H79805   3.103   7.910   3.245  0.5260  0.0124 -0.1954
  605MOL0     H79806   2.998   8.037   3.186  0.6633  0.4808  0.5941
  605MOL0     H79807   2.823   7.991   3.317  2.9102  1.8379  6.1740
  605MOL0     H79808   2.893   7.882   3.424  2.1713 -0.2213 -0.0028
  605MOL0     H79809   2.790   7.861   3.147  1.1755  0.3325 -0.7875
  605MOL0     H79810   2.928   7.738   3.183  0.4597  1.5094  0.1606
  605MOL0     H79811   2.649   7.766   3.298  1.7120  3.4815  0.7985
  605MOL0     H79812   2.780   7.667   3.372 -1.6696  0.7375  0.9054
  605MOL0     H79813   2.604   7.728   3.027  2.4538  2.0580  2.0817
  605MOL0     H79814   2.568   7.589   2.798  1.4665  0.7719  0.9025
  605MOL0     H79815   2.512   7.441   2.869  1.5828 -2.0406  0.1842
  605MOL0     H79816   2.642   7.398   2.643  0.8995 -1.8875  0.8518
  605MOL0     H79817   2.729   7.339   2.788  1.0727 -1.0716 -0.9078
  605MOL0     H79818   2.777   7.596   2.632 -2.0817  1.0318  1.1207
  605MOL0     H79819   2.859   7.568   2.787 -1.0016 -0.1695 -0.1013
  605MOL0     H79820   2.868   7.393   2.540  0.6764 -0.6826  0.7313
  605MOL0     H79821   2.952   7.360   2.695  0.6534  0.5856  0.6411
  605MOL0     H79822   3.077   7.280   2.521 -0.3183  1.0232  2.3881
  605MOL0     H79823   3.297   7.207   2.436  1.1176 -0.8362  1.3274
  605MOL0     H79824   3.706   7.050   2.474  0.7720  1.7516  2.6768
  605MOL0     H79825   3.942   7.015   2.449 -0.2889 -0.3028  0.0893
  605MOL0     H79826   4.153   7.010   2.426  2.8354 -1.1844 -0.2221
  605MOL0     H79827   4.178   7.175   2.477 -0.7246 -0.3868  0.6402
  605MOL0     H79828   4.380   7.063   2.453 -1.8231 -0.8336  0.2078
  605MOL0     H79829   4.369   7.196   2.330 -0.9463  0.4469 -1.9232
  605MOL0     H79830   4.347   7.036   2.156  2.0544  1.1849  0.0268
  605MOL0     H79831   4.321   6.896   2.272  1.9060 -1.5986  2.6967
  605MOL0     H79832   4.558   7.062   2.202  1.1207  1.0875  1.9624
  605MOL0     H79833   4.557   6.974   2.360  2.2774 -0.0710 -0.1529
  605MOL0     H79834   4.578   6.758   2.284  2.0121 -1.0933 -0.5061
  605MOL0     H79835   4.692   6.866   2.210  0.1187  1.6426 -3.4875
  605MOL0     H79836   4.526   6.883   2.002  2.1436  0.8612 -0.4683
  605MOL0     H79837   4.434   6.747   2.077 -0.6859  0.0674  2.3879
  605MOL0     H79838   4.721   6.698   2.032  0.0225 -0.2624  1.9971
  605MOL0     H79839   4.589   6.589   2.060  0.3381 -1.1136 -1.3200
  605MOL0     H79840   4.643   6.583   1.818 -0.5539  0.3259 -1.3377
  605MOL0     H79841   4.633   6.752   1.807  1.1351 -0.6269  0.4737
  605MOL0     H79842   3.965   7.306   2.138  1.6491 -0.1704  0.2450
  605MOL0     H79843   3.733   7.381   2.196 -0.2065  0.0174 -0.0943
  605MOL0     H79844   3.435   7.621   2.472 -1.5403  1.5166  0.1473
  605MOL0     H79845   3.244   7.683   2.548  2.7408 -0.2621  0.3937
  605MOL0     H79846   3.397   8.484   3.688 -0.0439  1.9858  1.1831
  605MOL0     H79847   3.343   8.709   3.795 -1.0893  1.3953  0.3572
  605MOL0     H79848   3.255   9.149   3.782 -1.2282 -0.4229 -3.7617
  605MOL0     H79849   3.147   9.364   3.906  0.7504 -1.0019  1.7358
  605MOL0     H79850   2.765   9.385   4.105 -0.6755  0.5311 -0.1117
  605MOL0     H79851   2.742   9.425   3.926 -1.9180  2.5945  0.4344
  605MOL0     H79852   2.870   9.598   4.148 -1.7701  0.2897  0.6772
  605MOL0     H79853   2.845   9.646   3.987  1.5865 -1.1049  0.6391
  605MOL0     H79854   2.593   9.570   4.043 -0.7177  0.4311  0.9142
  605MOL0     H79855   2.628   9.729   4.102  1.1641 -0.0377 -0.5439
  605MOL0     H79856   2.511   9.582   4.267  0.0174 -1.4578  1.2270
  605MOL0     H79857   2.650   9.484   4.296  1.0319  0.6678 -0.7170
  605MOL0     H79858   2.821   9.819   4.464 -1.2904  1.5007 -0.9812
  605MOL0     H79859   2.782   9.206   3.920 -0.3564  1.5397 -2.2650
  605MOL0     H79860   2.850   8.989   3.806  0.8022 -1.3403 -1.4037
  606MOL0     O79861   2.631   1.151   4.593 -0.0099  0.7372 -0.0422
  606MOL0     C79862   2.575   1.175   4.702  0.7627  0.3848 -0.0930
  606MOL0     O79863   2.475   1.095   4.759 -0.1865 -0.0437 -0.2478
  606MOL0     C79864   2.469   0.971   4.707 -0.8303 -0.2439 -0.1015
  606MOL0     C79865   2.358   0.934   4.623 -0.1150  0.4956 -1.0607
  606MOL0     C79866   2.361   0.805   4.570  0.6102 -0.1599  0.7766
  606MOL0     C79867   2.455   0.709   4.602  0.2782 -0.4898 -0.0997
  606MOL0     O79868   2.460   0.576   4.558  0.1291  0.4483  0.1059
  606MOL0     C79869   2.347   0.492   4.576  0.4015 -1.0572 -0.8138
  606MOL0     C79870   2.333   0.393   4.466  0.9910  0.1862  0.4523
  606MOL0     C79871   2.333   0.462   4.330 -0.0725  0.1360 -0.4584
  606MOL0     C79872   2.267   0.379   4.229 -0.1095  0.2210  1.2957
  606MOL0     C79873   2.264   0.442   4.086 -0.1689 -0.3806 -0.1827
  606MOL0     C79874   2.207   0.588   4.092  0.0919 -0.0111  1.0604
  606MOL0     C79875   2.194   0.636   3.950  0.5755 -0.0049  0.2762
  606MOL0     C79876   2.173   0.785   3.934 -0.8061 -1.0172 -0.6741
  606MOL0     N79877   2.062   0.836   4.016 -0.2782 -0.1963  0.3502
  606MOL0     C79878   1.936   0.814   3.986  0.2746 -0.2030  0.7374
  606MOL0     C79879   1.875   0.906   4.062 -0.3804 -0.9328  0.0101
  606MOL0     C79880   1.730   0.914   4.075  0.0403  0.1608  0.2457
  606MOL0     C79881   1.667   0.942   3.938  0.7712 -0.5289  0.6420
  606MOL0     C79882   1.524   0.971   3.953  0.1217 -0.6199  0.1730
  606MOL0     C79883   1.467   1.010   3.810 -0.4520 -0.1911  0.2439
  606MOL0     O79884   1.338   1.069   3.812  0.3299  0.3667  0.4406
  606MOL0     C79885   1.266   1.066   3.697 -0.1447  0.5509  0.5239
  606MOL0     C79886   1.325   1.031   3.567  0.9784 -0.3251  0.4056
  606MOL0     C79887   1.244   1.013   3.456  0.3336 -0.5171 -0.6881
  606MOL0     C79888   1.115   1.062   3.460 -0.1199  0.3579 -0.1917
  606MOL0     C79889   1.031   1.048   3.342 -0.3845  0.2215 -0.7110
  606MOL0     O79890   0.903   1.091   3.357  0.3627  0.0058  0.9177
  606MOL0     C79891   0.825   1.118   3.248  0.9696 -0.2910  0.7100
  606MOL0     C79892   0.862   1.154   3.113  1.4920  0.5213 -0.5911
  606MOL0     C79893   0.771   1.164   3.014  0.6334 -0.1024 -0.0461
  606MOL0     C79894   0.639   1.155   3.040 -0.2617 -0.0488 -0.4638
  606MOL0     O79895   0.541   1.165   2.947  0.7443 -0.0452  0.2293
  606MOL0     C79896   0.553   1.103   2.821  1.1957  0.4389 -0.1008
  606MOL0     C79897   0.613   1.197   2.717 -0.1389 -0.4269 -0.1239
  606MOL0     C79898   0.522   1.230   2.601  0.1428  0.1014 -0.2035
  606MOL0     C79899   0.506   1.114   2.498 -0.0508 -0.8815  0.7341
  606MOL0     C79900   0.392   1.152   2.389 -0.0971  0.3734  0.5525
  606MOL0     C79901   0.454   1.193   2.252  0.1491  0.0220  0.6630
  606MOL0     C79902   0.359   1.176   2.130  0.1875  0.3595 -0.8919
  606MOL0     C79903   0.427   1.212   1.997 -0.0031 -0.5719 -0.6302
  606MOL0    Cl79904   0.326   1.158   1.855  0.4183 -0.2349  0.3552
  606MOL0     C79905   0.597   1.131   3.168 -0.1741  0.3525 -0.8325
  606MOL0     C79906   0.691   1.114   3.276 -0.3833  0.2631  0.1572
  606MOL0     O79907   1.071   0.996   3.242 -0.1551 -0.6937  0.1389
  606MOL0     C79908   1.052   1.103   3.581  0.6358  0.8506 -0.4356
  606MOL0     C79909   1.130   1.107   3.702 -0.7152 -0.1292  0.6384
  606MOL0     N79910   1.959   0.983   4.137 -0.7966 -0.2704  1.0207
  606MOL0     N79911   2.070   0.941   4.112 -0.2536 -0.2781 -0.1341
  606MOL0     C79912   2.555   0.747   4.693 -0.0736  0.7547  0.3252
  606MOL0     C79913   2.563   0.879   4.742 -0.4059 -0.0301 -0.6116
  606MOL0     C79914   2.623   1.290   4.775  0.3162 -0.6543  0.4910
  606MOL0     C79915   2.543   1.352   4.871 -0.4004  0.2479 -0.1472
  606MOL0     C79916   2.593   1.457   4.946  0.5274  0.2861 -0.1533
  606MOL0     C79917   2.716   1.520   4.915  0.4616 -1.1285  0.5871
  606MOL0     O79918   2.768   1.629   4.980  0.0212  0.7833 -0.1196
  606MOL0     C79919   2.697   1.666   5.107 -0.0284 -0.2857 -0.2546
  606MOL0     C79920   2.743   1.792   5.182 -0.9556 -0.1057  0.2927
  606MOL0     C79921   2.815   1.900   5.089  0.9517 -0.3149 -0.1786
  606MOL0     C79922   2.721   1.954   4.982 -0.5778  0.5790 -0.1532
  606MOL0     C79923   2.801   2.026   4.882  0.1968  0.4667 -0.2813
  606MOL0     C79924   2.884   2.052   4.796 -0.1433  0.6499  0.1471
  606MOL0     C79925   2.790   1.458   4.811  0.0380 -0.8689 -0.7132
  606MOL0     C79926   2.751   1.342   4.740  1.1296  0.1146 -0.6625
  606MOL0     H79927   2.277   1.004   4.604 -1.6685 -0.5937  1.1029
  606MOL0     H79928   2.281   0.768   4.506  0.9304 -1.4674  1.0953
  606MOL0     H79929   2.257   0.552   4.594  0.9373 -1.3068  3.7929
  606MOL0     H79930   2.373   0.440   4.669 -0.7250  2.3615  1.5806
  606MOL0     H79931   2.236   0.344   4.482  1.7005 -0.2655  4.2643
  606MOL0     H79932   2.411   0.317   4.474  1.2043  0.0022 -2.3099
  606MOL0     H79933   2.436   0.483   4.302 -0.8043  1.6757 -2.1703
  606MOL0     H79934   2.277   0.557   4.331 -2.2417 -0.9898 -2.7361
  606MOL0     H79935   2.325   0.287   4.226  0.4004  0.5192 -1.8941
  606MOL0     H79936   2.165   0.354   4.260 -1.3148  3.1657  0.0836
  606MOL0     H79937   2.199   0.381   4.023  2.1845 -2.2967 -0.8845
  606MOL0     H79938   2.363   0.437   4.040 -0.7447 -1.8439 -1.3415
  606MOL0     H79939   2.284   0.649   4.140  1.8545  0.0924 -1.6611
  606MOL0     H79940   2.115   0.592   4.151  0.9818  1.0204  2.4676
  606MOL0     H79941   2.277   0.603   3.888  1.4780  0.5106  1.1723
  606MOL0     H79942   2.108   0.587   3.903 -0.1784 -0.4646  2.0193
  606MOL0     H79943   2.151   0.806   3.829 -1.8152  0.7933 -0.1466
  606MOL0     H79944   2.257   0.847   3.966 -1.0463 -0.1895 -1.5807
  606MOL0     H79945   1.900   0.750   3.907  1.0990  0.0824  0.1167
  606MOL0     H79946   1.698   0.987   4.150  0.2903 -1.8927  2.4725
  606MOL0     H79947   1.716   0.810   4.106 -0.0252 -1.0858 -3.4155
  606MOL0     H79948   1.674   0.854   3.874 -1.6280 -1.1826  1.1575
  606MOL0     H79949   1.714   1.028   3.888  0.3831 -1.1843 -0.9239
  606MOL0     H79950   1.477   0.887   4.007 -0.2407 -1.1419 -0.9216
  606MOL0     H79951   1.529   1.060   4.016  1.4222  0.0267 -0.7974
  606MOL0     H79952   1.462   0.916   3.754 -2.2669  1.6466 -2.9578
  606MOL0     H79953   1.527   1.094   3.775 -1.9356  0.8139  0.0247
  606MOL0     H79954   1.429   1.006   3.549  0.5045 -1.0601 -1.5916
  606MOL0     H79955   1.294   0.963   3.374  0.8135 -0.0272 -0.7032
  606MOL0     H79956   0.969   1.167   3.102  1.9299 -2.9269 -1.3939
  606MOL0     H79957   0.811   1.196   2.919 -0.8679 -3.7717 -2.1120
  606MOL0     H79958   0.452   1.068   2.796  2.3101 -4.4536  1.1067
  606MOL0     H79959   0.606   1.009   2.838 -2.4107 -1.8099 -0.2181
  606MOL0     H79960   0.708   1.147   2.694  0.5940 -0.0617  1.8886
  606MOL0     H79961   0.633   1.296   2.757  1.6083 -0.2725 -1.2821
  606MOL0     H79962   0.565   1.323   2.561  0.2550 -0.1987 -0.7871
  606MOL0     H79963   0.429   1.254   2.653 -0.1798 -1.8473  0.1693
  606MOL0     H79964   0.601   1.115   2.442 -0.4478  1.5678 -0.0005
  606MOL0     H79965   0.498   1.012   2.537 -0.6108 -0.7315  1.0206
  606MOL0     H79966   0.327   1.231   2.428 -1.1656  0.6699 -1.6843
  606MOL0     H79967   0.333   1.063   2.369 -0.4959  0.8326 -0.3913
  606MOL0     H79968   0.526   1.114   2.227  0.0566 -0.9821  3.2716
  606MOL0     H79969   0.496   1.293   2.249 -2.3559  1.1273 -1.0336
  606MOL0     H79970   0.324   1.072   2.134  3.3105 -0.7873 -0.6752
  606MOL0     H79971   0.275   1.244   2.139  1.6293  1.8925  2.9805
  606MOL0     H79972   0.513   1.145   1.988  0.2650 -0.3139 -0.0354
  606MOL0     H79973   0.465   1.314   1.994  4.1348 -1.9306 -4.0261
  606MOL0     H79974   0.491   1.112   3.183 -0.2149  1.0780 -0.1702
  606MOL0     H79975   0.661   1.109   3.380  0.9974 -3.9265  0.5284
  606MOL0     H79976   0.953   1.146   3.592  0.6008  0.5668  0.4607
  606MOL0     H79977   1.082   1.151   3.789 -0.3325  2.0709 -0.2105
  606MOL0     H79978   2.628   0.674   4.728  0.0701  0.1095 -1.2601
  606MOL0     H79979   2.654   0.907   4.794 -1.1191 -1.2757  1.3841
  606MOL0     H79980   2.439   1.322   4.875 -0.2142 -0.4278 -0.2731
  606MOL0     H79981   2.519   1.495   5.015 -0.0050  1.6901 -1.4242
  606MOL0     H79982   2.709   1.587   5.182 -0.1840  0.6125  0.7303
  606MOL0     H79983   2.590   1.677   5.084 -0.0086 -1.0151 -0.7419
  606MOL0     H79984   2.672   1.840   5.249 -1.2682  1.2540 -0.9648
  606MOL0     H79985   2.814   1.750   5.254 -1.1241 -2.5476 -0.8735
  606MOL0     H79986   2.901   1.856   5.037  0.7461  1.2654 -1.9853
  606MOL0     H79987   2.847   1.991   5.140 -1.2379  3.5836 -4.9204
  606MOL0     H79988   2.674   1.865   4.940  1.2885 -0.5652  0.0621
  606MOL0     H79989   2.644   2.024   5.017  0.3017  0.1540  2.9543
  606MOL0     H79990   2.964   2.058   4.726 -1.4087  1.2996 -1.2914
  606MOL0     H79991   2.885   1.509   4.797 -0.2402 -0.8953 -3.1373
  606MOL0     H79992   2.803   1.284   4.665  0.2471 -0.6068 -0.7399
  607MOL0     O79993   8.487   0.234   7.066  0.4183 -0.0177 -0.0227
  607MOL0     C79994   8.418   0.308   7.137  0.1862 -0.5213  0.8147
  607MOL0     O79995   8.452   0.360   7.260 -0.2563  0.8742 -0.1043
  607MOL0     C79996   8.577   0.323   7.297 -1.0264 -0.5762 -0.4209
  607MOL0     C79997   8.671   0.431   7.308  0.3687  0.1680 -0.8535
  607MOL0     C79998   8.798   0.398   7.364 -0.3299  0.9220 -0.5172
  607MOL0     C79999   8.828   0.267   7.416 -0.8665 -0.0686 -0.4283
  607MOL0     O80000   8.940   0.222   7.480  0.2905 -0.1945 -1.0862
  607MOL0     C80001   9.035   0.315   7.543 -0.0544  0.7570 -0.6516
  607MOL0     C80002   9.166   0.284   7.470 -0.2057  0.9791 -0.0503
  607MOL0     C80003   9.188   0.323   7.328 -0.9294  0.6841  0.3990
  607MOL0     C80004   9.194   0.471   7.305 -0.3509  0.2616  0.2563
  607MOL0     C80005   9.327   0.543   7.356 -0.7352 -0.5129  0.3969
  607MOL0     C80006   9.356   0.675   7.279  0.7718 -0.6338 -0.0066
  607MOL0     C80007   9.483   0.744   7.342  0.2850 -0.0330  0.3897
  607MOL0     C80008   9.547   0.841   7.244 -0.3603 -0.1240 -0.1621
  607MOL0     N80009   9.600   0.781   7.118 -0.8157 -0.0837  0.3238
  607MOL0     C80010   9.702   0.689   7.107 -0.1519  0.2856 -0.6519
  607MOL0     C80011   9.706   0.651   6.977  0.2371 -1.2954 -0.5726
  607MOL0     C80012   9.794   0.548   6.918  0.3494  0.7006 -0.6880
  607MOL0     C80013   9.866   0.608   6.803 -0.8217  0.1990 -1.2631
  607MOL0     C80014   9.981   0.522   6.764  0.6501  0.4546  0.2380
  607MOL0     C80015   9.969   0.510   6.615  1.1214  0.8237  0.0371
  607MOL0     O80016  10.056   0.413   6.563  0.1300 -0.8386  0.0501
  607MOL0     C80017  10.031   0.383   6.435 -0.3361 -0.6797  0.2724
  607MOL0     C80018  10.095   0.453   6.324  0.2236  0.1528 -0.3239
  607MOL0     C80019  10.081   0.393   6.197 -0.0567 -0.4543  1.1013
  607MOL0     C80020   9.994   0.292   6.174 -0.1397  0.5688 -0.1696
  607MOL0     C80021   9.950   0.236   6.044 -0.2872 -0.2210  0.9996
  607MOL0     O80022   9.864   0.118   6.038 -0.1685 -0.3648  0.6113
  607MOL0     C80023   9.808   0.088   5.916  0.1445 -0.0817 -0.4010
  607MOL0     C80024   9.756  -0.035   5.885 -0.4429 -0.4550 -0.0099
  607MOL0     C80025   9.690  -0.064   5.766 -0.1471  0.3536  0.5496
  607MOL0     C80026   9.639   0.040   5.686 -0.5887 -0.0263  0.3036
  607MOL0     O80027   9.550   0.013   5.589 -0.4125  0.0897  0.4244
  607MOL0     C80028   9.601   0.024   5.453 -0.2561  0.1568  0.1105
  607MOL0     C80029   9.499  -0.022   5.350 -0.7679 -0.4707  0.6717
  607MOL0     C80030   9.544  -0.023   5.206 -0.0208  0.2330 -0.0757
  607MOL0     C80031   9.576   0.114   5.145 -0.5036  0.2181 -0.2029
  607MOL0     C80032   9.452   0.198   5.123  0.2496  0.6171  0.2273
  607MOL0     C80033   9.446   0.342   5.181  0.6116 -0.1240 -0.5987
  607MOL0     C80034   9.446   0.354   5.338 -1.0975  0.3353  0.1762
  607MOL0     C80035   9.467   0.508   5.375  0.7514  0.2916  0.4134
  607MOL0    Cl80036   9.487   0.532   5.552 -0.3387 -0.0182  0.2171
  607MOL0     C80037   9.694   0.162   5.708  0.7972  0.4958 -0.6018
  607MOL0     C80038   9.771   0.182   5.825  0.1491 -0.5995 -0.2457
  607MOL0     O80039  10.007   0.285   5.947 -0.1302  0.2987 -1.1370
  607MOL0     C80040   9.939   0.222   6.287 -0.4063 -0.5718  0.3687
  607MOL0     C80041   9.967   0.267   6.414  0.9501 -0.0847  0.6303
  607MOL0     N80042   9.600   0.719   6.914  0.1032 -0.1758  0.0180
  607MOL0     N80043   9.543   0.799   6.997  0.6623  0.2732  1.2119
  607MOL0     C80044   8.732   0.168   7.405 -0.2221 -0.5703 -0.2502
  607MOL0     C80045   8.612   0.193   7.341 -0.4241 -0.5723 -0.3168
  607MOL0     C80046   8.288   0.352   7.074 -0.6658 -0.6045  0.9181
  607MOL0     C80047   8.231   0.279   6.975 -0.4623  0.2113  0.4037
  607MOL0     C80048   8.120   0.325   6.903  0.0801 -0.6846  0.6804
  607MOL0     C80049   8.080   0.458   6.919 -0.5604  0.2485  0.6272
  607MOL0     O80050   7.989   0.524   6.847 -0.5781  0.6102 -0.0435
  607MOL0     C80051   7.910   0.452   6.752  0.2616  0.8038  1.1214
  607MOL0     C80052   7.779   0.534   6.697 -0.5175 -0.8416  0.1619
  607MOL0     C80053   7.814   0.654   6.611  0.2084  0.2984  0.4790
  607MOL0     C80054   7.920   0.745   6.664 -1.1927 -1.1647 -0.3850
  607MOL0     C80055   7.938   0.861   6.564  0.1958  0.5951 -0.6840
  607MOL0     C80056   7.952   0.964   6.498  0.9974  0.6248 -1.0014
  607MOL0     C80057   8.138   0.535   7.022 -0.6855  0.0860 -0.2496
  607MOL0     C80058   8.237   0.479   7.089  0.3168 -0.5432 -0.7594
  607MOL0     H80059   8.641   0.529   7.271  0.9520  0.8446  0.4167
  607MOL0     H80060   8.877   0.473   7.357  1.3327 -0.6786  0.1896
  607MOL0     H80061   9.041   0.290   7.649  1.3283  2.1642 -0.3733
  607MOL0     H80062   9.006   0.420   7.534 -3.1301  0.1707  0.7939
  607MOL0     H80063   9.168   0.175   7.470 -1.5250  0.8549 -3.0544
  607MOL0     H80064   9.245   0.326   7.533 -2.9328  5.1038  1.0200
  607MOL0     H80065   9.108   0.269   7.276 -0.9754 -0.7040  1.8484
  607MOL0     H80066   9.284   0.283   7.292 -0.6569  3.0262 -1.7808
  607MOL0     H80067   9.189   0.491   7.197  0.1184  0.9037  0.3463
  607MOL0     H80068   9.107   0.522   7.349 -1.6275 -1.9959  0.4644
  607MOL0     H80069   9.409   0.476   7.330 -0.3473 -0.5908  1.7613
  607MOL0     H80070   9.309   0.554   7.463 -2.3906 -0.9715  0.1999
  607MOL0     H80071   9.258   0.721   7.268 -0.1318 -2.9468 -2.9867
  607MOL0     H80072   9.400   0.653   7.182  5.2106  0.3472  1.5332
  607MOL0     H80073   9.447   0.810   7.422  0.6940 -0.3609  0.8404
  607MOL0     H80074   9.560   0.681   7.386  1.7904  0.2683 -1.6832
  607MOL0     H80075   9.630   0.898   7.288 -1.0086 -0.1111  1.0895
  607MOL0     H80076   9.472   0.916   7.217 -1.9928 -1.9734 -0.9040
  607MOL0     H80077   9.763   0.664   7.193 -1.9011  0.2561  0.6318
  607MOL0     H80078   9.744   0.457   6.887  0.9346  0.7355 -1.7767
  607MOL0     H80079   9.870   0.512   6.989  1.7359  1.4381 -1.7522
  607MOL0     H80080   9.909   0.703   6.837 -0.1513 -0.5767  0.1485
  607MOL0     H80081   9.791   0.640   6.730 -2.0712  1.2837  0.4382
  607MOL0     H80082  10.079   0.557   6.796  0.0953  1.5704  0.8221
  607MOL0     H80083   9.955   0.426   6.809 -0.1471 -0.7808 -2.6282
  607MOL0     H80084   9.978   0.609   6.570  0.9199  0.6848 -0.3126
  607MOL0     H80085   9.866   0.482   6.589  1.0771 -0.2111  1.2307
  607MOL0     H80086  10.160   0.537   6.347 -0.8971  1.9523 -3.2143
  607MOL0     H80087  10.126   0.446   6.113 -0.1123 -2.8542 -0.5537
  607MOL0     H80088   9.778  -0.119   5.951  1.9352  1.7836  2.3132
  607MOL0     H80089   9.662  -0.167   5.747  4.1425 -0.8179 -0.4512
  607MOL0     H80090   9.693  -0.031   5.432  1.2848  3.0539 -1.3456
  607MOL0     H80091   9.648   0.120   5.430  0.6135 -0.2782  0.0153
  607MOL0     H80092   9.413   0.044   5.358 -0.3499  0.3575 -1.2397
  607MOL0     H80093   9.463  -0.122   5.377 -1.8057 -0.0245  0.9921
  607MOL0     H80094   9.459  -0.062   5.149 -1.8060  3.0448  0.4386
  607MOL0     H80095   9.630  -0.090   5.196 -0.4106 -0.4257  0.8484
  607MOL0     H80096   9.654   0.165   5.202  1.2492 -0.7420 -1.6156
  607MOL0     H80097   9.620   0.094   5.046 -1.1160  0.0120 -0.4356
  607MOL0     H80098   9.365   0.139   5.154  0.9399 -0.2528  0.5663
  607MOL0     H80099   9.456   0.214   5.015  4.1665  3.3985  0.5875
  607MOL0     H80100   9.358   0.393   5.140  0.7512  3.3089  2.7621
  607MOL0     H80101   9.526   0.401   5.136 -0.0375 -0.9849 -3.0873
  607MOL0     H80102   9.351   0.327   5.384 -1.9657  2.5958 -0.1207
  607MOL0     H80103   9.526   0.292   5.379 -1.7646 -1.6143 -1.3356
  607MOL0     H80104   9.381   0.562   5.334 -1.6462 -3.5215 -0.1214
  607MOL0     H80105   9.563   0.531   5.327 -0.7163  1.7829 -1.9883
  607MOL0     H80106   9.671   0.249   5.648 -0.5287 -0.1061 -1.0042
  607MOL0     H80107   9.802   0.284   5.843 -0.3272 -0.6371  0.9237
  607MOL0     H80108   9.879   0.134   6.269 -1.2074  0.0928 -0.3590
  607MOL0     H80109   9.925   0.216   6.499  1.1952 -0.8679  0.2855
  607MOL0     H80110   8.747   0.066   7.437 -0.6375 -0.4159  0.4586
  607MOL0     H80111   8.527   0.126   7.331  0.0780 -1.2796  0.1051
  607MOL0     H80112   8.263   0.176   6.962 -1.0461  0.0593  0.1802
  607MOL0     H80113   8.061   0.272   6.829 -1.3110  2.7632 -0.9171
  607MOL0     H80114   7.873   0.355   6.787  1.9194 -2.1542 -4.1212
  607MOL0     H80115   7.967   0.417   6.665 -0.5699 -3.1343  1.9643
  607MOL0     H80116   7.718   0.471   6.632  1.1311 -0.2079 -2.1316
  607MOL0     H80117   7.728   0.575   6.785  1.8573  1.1359  0.7530
  607MOL0     H80118   7.726   0.719   6.599  0.3471  0.0332 -2.9606
  607MOL0     H80119   7.836   0.616   6.511  1.1198  0.6682  0.5287
  607MOL0     H80120   7.901   0.771   6.769  2.3406 -0.3114  0.1724
  607MOL0     H80121   8.020   0.700   6.673  0.4067  2.3458  1.6575
  607MOL0     H80122   7.963   1.049   6.435 -0.5498  1.4562 -0.2207
  607MOL0     H80123   8.116   0.640   7.037  0.1832  0.1717  0.4627
  607MOL0     H80124   8.288   0.552   7.151  0.0181 -0.6560 -0.3765
  608MOL0     O80125   3.486   2.377   3.044 -0.0918  0.4440 -0.1111
  608MOL0     C80126   3.401   2.285   3.042  0.0424  0.8633  0.4094
  608MOL0     O80127   3.423   2.153   3.006 -0.3151 -0.5824 -0.4814
  608MOL0     C80128   3.551   2.104   2.979  0.0572 -0.9059  0.4072
  608MOL0     C80129   3.584   1.978   3.033  1.5503 -0.4330 -0.5073
  608MOL0     C80130   3.708   1.923   3.009  0.1080 -0.1964  0.8378
  608MOL0     C80131   3.800   1.985   2.925 -0.2187  0.5981  0.9823
  608MOL0     O80132   3.923   1.920   2.891  0.1572 -1.0920  0.1715
  608MOL0     C80133   3.941   1.875   2.757  0.1908  0.2939 -0.9704
  608MOL0     C80134   4.078   1.918   2.700 -0.1262 -0.4985 -0.8070
  608MOL0     C80135   4.126   2.059   2.737 -0.9365 -0.0870  0.3130
  608MOL0     C80136   4.275   2.071   2.770 -0.7347 -0.6495  0.0826
  608MOL0     C80137   4.329   2.202   2.831 -0.7408  0.0405  0.0946
  608MOL0     C80138   4.306   2.345   2.757  0.8362  0.2455 -1.1124
  608MOL0     C80139   4.169   2.408   2.796  0.6854  0.9143 -0.1450
  608MOL0     C80140   4.108   2.508   2.692  0.2054  0.0148 -0.1047
  608MOL0     N80141   3.974   2.556   2.716  0.3521 -0.4910  0.0928
  608MOL0     C80142   3.955   2.667   2.800  0.0025 -0.1203 -0.4949
  608MOL0     C80143   3.814   2.687   2.787  0.8684  0.8478 -0.1157
  608MOL0     C80144   3.739   2.793   2.866  0.0650  0.1112  0.7698
  608MOL0     C80145   3.578   2.766   2.865 -0.9444  0.0752 -0.3223
  608MOL0     C80146   3.506   2.897   2.897 -0.1518 -0.4743 -0.3416
  608MOL0     C80147   3.357   2.885   2.906  0.2880 -0.5316  0.0239
  608MOL0     O80148   3.289   3.000   2.954  0.0330 -1.3324  0.1421
  608MOL0     C80149   3.266   3.005   3.088 -1.6624 -0.4001 -1.2134
  608MOL0     C80150   3.242   2.903   3.184 -0.3771 -0.2184 -0.1937
  608MOL0     C80151   3.234   2.940   3.323 -0.8962  0.2729  0.3450
  608MOL0     C80152   3.252   3.071   3.366 -0.6239 -0.9127  0.3836
  608MOL0     C80153   3.241   3.112   3.503  0.1803  0.0158 -0.2927
  608MOL0     O80154   3.262   3.246   3.537 -0.4507 -0.4123 -0.5787
  608MOL0     C80155   3.203   3.292   3.647  0.5731 -0.2022  0.1460
  608MOL0     C80156   3.151   3.419   3.648  0.4738 -0.5292 -0.6927
  608MOL0     C80157   3.081   3.478   3.763  0.1508 -0.0991 -0.6614
  608MOL0     C80158   3.076   3.400   3.880  0.1933 -0.1922  0.1129
  608MOL0     O80159   2.989   3.455   3.971  0.6955 -0.3171 -0.5694
  608MOL0     C80160   2.917   3.384   4.063 -0.0105  1.1644 -0.7393
  608MOL0     C80161   2.815   3.286   3.996  0.3674 -0.6622  0.4385
  608MOL0     C80162   2.740   3.199   4.099 -0.0897  0.6415  0.3997
  608MOL0     C80163   2.833   3.099   4.173  0.2175  0.1382 -0.7441
  608MOL0     C80164   2.744   2.979   4.219 -0.2388 -0.7084  1.1023
  608MOL0     C80165   2.819   2.906   4.327 -0.2454  0.3109  0.0079
  608MOL0     C80166   2.729   2.789   4.375  0.3634  0.2441  0.2911
  608MOL0     C80167   2.791   2.715   4.492 -0.0206 -0.5881  0.1437
  608MOL0    Cl80168   2.937   2.624   4.446  0.4253 -0.5329 -0.2374
  608MOL0     C80169   3.136   3.268   3.880  0.9871  0.5026 -0.1752
  608MOL0     C80170   3.216   3.224   3.772  1.3677  0.4341  0.0978
  608MOL0     O80171   3.195   3.028   3.577 -0.2906 -0.9425  0.1412
  608MOL0     C80172   3.267   3.173   3.267  0.1000 -0.2958  0.5087
  608MOL0     C80173   3.275   3.137   3.132 -0.4094 -0.5846  0.6084
  608MOL0     N80174   3.758   2.579   2.710  0.5637  0.0096 -0.5432
  608MOL0     N80175   3.859   2.501   2.679  0.4666  0.0813 -1.1424
  608MOL0     C80176   3.767   2.101   2.862  0.1652 -0.3583  0.5407
  608MOL0     C80177   3.646   2.165   2.891  0.4722 -0.1052  0.5579
  608MOL0     C80178   3.257   2.320   3.056 -0.7327 -0.5962 -0.2609
  608MOL0     C80179   3.199   2.412   3.153  0.4569 -0.8669 -0.2601
  608MOL0     C80180   3.053   2.439   3.153  0.0907 -0.4965 -0.1224
  608MOL0     C80181   2.971   2.375   3.058 -0.0778  0.1619 -0.0781
  608MOL0     O80182   2.840   2.414   3.055  0.5496 -0.7557  0.1057
  608MOL0     C80183   2.753   2.396   2.939  0.4551  0.0643 -1.2886
  608MOL0     C80184   2.658   2.512   2.928 -0.3875 -0.2625 -0.9233
  608MOL0     C80185   2.596   2.518   2.779  0.9536  0.4991 -0.4471
  608MOL0     C80186   2.478   2.618   2.778 -0.3542 -0.4850  0.4049
  608MOL0     C80187   2.514   2.755   2.785 -0.3730 -0.0231 -0.6774
  608MOL0     C80188   2.545   2.875   2.775  0.4731  0.4780  0.6783
  608MOL0     C80189   3.030   2.289   2.967 -0.5523  0.1458  0.3216
  608MOL0     C80190   3.171   2.253   2.969 -0.3396  0.5521  0.0426
  608MOL0     H80191   3.505   1.932   3.092  1.9831  1.5488  1.7742
  608MOL0     H80192   3.743   1.832   3.057 -4.3427 -1.3725  2.3429
  608MOL0     H80193   3.870   1.934   2.698  0.2996  0.1211 -1.2785
  608MOL0     H80194   3.925   1.769   2.736 -3.1849  0.3519  0.5956
  608MOL0     H80195   4.081   1.925   2.591  0.7391  2.4395 -0.6897
  608MOL0     H80196   4.149   1.838   2.725 -1.3764 -1.0428  1.1422
  608MOL0     H80197   4.066   2.090   2.823 -1.9946  0.1235 -0.4803
  608MOL0     H80198   4.101   2.127   2.654  0.8960  2.1703  1.4831
  608MOL0     H80199   4.297   1.999   2.849 -1.3384 -1.0274 -0.0801
  608MOL0     H80200   4.325   2.057   2.673 -0.9151  4.4813 -1.0264
  608MOL0     H80201   4.436   2.189   2.849 -0.1732  3.2973 -0.2762
  608MOL0     H80202   4.289   2.213   2.932  1.0163  0.7495  0.7545
  608MOL0     H80203   4.316   2.330   2.649 -0.6210  0.4960 -1.3031
  608MOL0     H80204   4.383   2.413   2.795 -0.1479 -0.6520  3.0561
  608MOL0     H80205   4.092   2.332   2.806  2.4855 -0.8721  0.9374
  608MOL0     H80206   4.184   2.457   2.893  0.7124  0.1154  0.2636
  608MOL0     H80207   4.102   2.453   2.597 -4.3882 -2.0004  1.1190
  608MOL0     H80208   4.182   2.590   2.695  3.1290 -2.4760  1.5939
  608MOL0     H80209   4.029   2.711   2.866  1.3161 -4.8009  1.5412
  608MOL0     H80210   3.756   2.888   2.814  2.3906  0.3109  1.7469
  608MOL0     H80211   3.775   2.803   2.969  0.4878  0.5186  0.5887
  608MOL0     H80212   3.557   2.685   2.935 -2.0935  1.3874  0.9144
  608MOL0     H80213   3.547   2.728   2.768  0.6870  1.8311 -1.6205
  608MOL0     H80214   3.528   2.940   2.995 -1.9284 -1.7673  0.6927
  608MOL0     H80215   3.536   2.982   2.835 -0.6826  0.9052  1.2217
  608MOL0     H80216   3.336   2.803   2.977 -2.2300  0.3383  0.4014
  608MOL0     H80217   3.323   2.838   2.813  2.1707 -1.9850  0.0230
  608MOL0     H80218   3.218   2.800   3.158 -1.9422  0.7864 -3.2971
  608MOL0     H80219   3.237   2.857   3.393  0.4850 -1.3145 -1.4809
  608MOL0     H80220   3.143   3.469   3.551  0.3498  2.0903  0.5669
  608MOL0     H80221   3.023   3.568   3.745 -0.7545 -0.4806  0.2613
  608MOL0     H80222   2.857   3.449   4.126  1.0113  1.1635  0.2587
  608MOL0     H80223   2.981   3.327   4.131 -1.1584  1.5221  0.6834
  608MOL0     H80224   2.867   3.218   3.929  1.3368 -0.4605  0.9603
  608MOL0     H80225   2.743   3.350   3.945 -2.0514 -0.3960  3.8202
  608MOL0     H80226   2.663   3.136   4.053  0.0916  1.8409 -1.6515
  608MOL0     H80227   2.688   3.266   4.169 -2.6855 -1.1049  0.2682
  608MOL0     H80228   2.904   3.052   4.105  0.6851  3.2538 -2.5674
  608MOL0     H80229   2.869   3.145   4.266  0.1685 -2.3814  0.6100
  608MOL0     H80230   2.741   2.920   4.127  0.7995  3.4899 -1.9246
  608MOL0     H80231   2.647   3.017   4.254 -0.5241  1.7207 -1.9261
  608MOL0     H80232   2.832   2.972   4.414 -0.1217 -1.3877  1.3231
  608MOL0     H80233   2.918   2.872   4.297  0.2333  2.5580 -1.2182
  608MOL0     H80234   2.635   2.835   4.404 -0.4723 -0.5321 -1.0617
  608MOL0     H80235   2.709   2.720   4.292 -0.9522 -0.3256  1.0489
  608MOL0     H80236   2.714   2.645   4.526 -3.1100  2.3295 -0.3115
  608MOL0     H80237   2.805   2.774   4.583  0.6994  1.4366 -1.2173
  608MOL0     H80238   3.114   3.200   3.962  0.9509  0.2598 -0.3852
  608MOL0     H80239   3.270   3.131   3.790 -0.1275 -0.6656 -0.9167
  608MOL0     H80240   3.281   3.280   3.275  2.2057 -0.4401 -0.6421
  608MOL0     H80241   3.313   3.211   3.063  0.7856 -2.6688 -1.1053
  608MOL0     H80242   3.838   2.150   2.795  2.7935 -2.3922  1.6853
  608MOL0     H80243   3.629   2.269   2.864 -2.3285 -0.0993  1.9591
  608MOL0     H80244   3.249   2.476   3.225 -1.5441 -1.2602  1.5782
  608MOL0     H80245   3.004   2.518   3.209 -0.3113  0.8537 -2.2699
  608MOL0     H80246   2.703   2.301   2.958  2.2036 -0.7352 -0.5114
  608MOL0     H80247   2.811   2.388   2.846  3.0564  0.5184  0.1974
  608MOL0     H80248   2.581   2.503   3.005  0.2545 -0.3064 -0.2714
  608MOL0     H80249   2.704   2.609   2.952 -0.5458 -0.2816 -0.5349
  608MOL0     H80250   2.558   2.421   2.745 -2.6715  1.0978  1.3759
  608MOL0     H80251   2.676   2.551   2.712  0.2950 -2.8672 -3.1276
  608MOL0     H80252   2.435   2.620   2.677  0.9826  1.3535 -0.1919
  608MOL0     H80253   2.397   2.599   2.848 -3.6643  2.3100 -2.2967
  608MOL0     H80254   2.560   2.976   2.744  0.8975 -0.6591 -3.3697
  608MOL0     H80255   2.976   2.245   2.884 -2.3720  0.2999  1.3621
  608MOL0     H80256   3.194   2.179   2.893 -0.1645 -0.5160  1.1192
  609MOL0     O80257   9.559   7.702   0.747  0.5269 -0.0195 -0.0891
  609MOL0     C80258   9.481   7.679   0.657  0.4118 -0.3738  0.2865
  609MOL0     O80259   9.497   7.721   0.525  0.0882 -0.5598 -0.0002
  609MOL0     C80260   9.586   7.804   0.470 -1.2827 -0.2383  0.0033
  609MOL0     C80261   9.570   7.822   0.333  0.1737  0.6990  0.4640
  609MOL0     C80262   9.664   7.899   0.259  0.1936 -0.5719  0.4926
  609MOL0     C80263   9.782   7.943   0.314 -1.3741  0.4213  0.3787
  609MOL0     O80264   9.888   8.001   0.250 -0.0424 -0.3078  0.3691
  609MOL0     C80265   9.889   8.003   0.099  0.7909 -0.0977 -0.5059
  609MOL0     C80266  10.035   7.991   0.055  0.0079  0.1703  0.1791
  609MOL0     C80267  10.049   8.015  -0.092  0.8283  0.3883  0.7881
  609MOL0     C80268   9.968   7.920  -0.183  0.5081 -1.0999 -1.8702
  609MOL0     C80269   9.985   7.919  -0.336 -0.0782  0.0691 -0.2303
  609MOL0     C80270  10.107   7.832  -0.376 -0.0406  0.1615  0.1971
  609MOL0     C80271  10.162   7.860  -0.514 -0.0367  1.5391 -0.3234
  609MOL0     C80272  10.068   7.792  -0.629 -1.1181 -0.0313 -1.0338
  609MOL0     N80273  10.146   7.767  -0.751 -0.5534  0.5839  0.1410
  609MOL0     C80274  10.275   7.722  -0.753 -0.6700 -0.3525 -0.6152
  609MOL0     C80275  10.319   7.728  -0.880  0.7849 -0.9690  0.4451
  609MOL0     C80276  10.461   7.687  -0.922  0.4947 -0.1844  0.3129
  609MOL0     C80277  10.512   7.787  -1.021  0.4749 -0.4885  0.0345
  609MOL0     C80278  10.626   7.749  -1.120 -0.4965 -0.1423  0.3482
  609MOL0     C80279  10.665   7.859  -1.221  0.1142  0.4335 -0.8940
  609MOL0     O80280  10.801   7.835  -1.254 -0.0406 -0.5110  0.3506
  609MOL0     C80281  10.826   7.758  -1.364 -0.2437 -0.4388 -0.4935
  609MOL0     C80282  10.867   7.624  -1.347  0.4350  1.7942  0.2541
  609MOL0     C80283  10.897   7.546  -1.459  0.9773 -0.2956  0.4149
  609MOL0     C80284  10.875   7.603  -1.590  0.2275 -0.8190  0.6933
  609MOL0     C80285  10.906   7.515  -1.707  0.3381  0.4709  0.8510
  609MOL0     O80286  10.868   7.572  -1.833 -0.1212  0.3853  0.3868
  609MOL0     C80287  10.907   7.513  -1.946  0.0799  0.0610  0.2649
  609MOL0     C80288  11.040   7.489  -1.982  0.4694 -0.2255  0.0488
  609MOL0     C80289  11.070   7.426  -2.108 -0.0252 -1.0555  0.6188
  609MOL0     C80290  10.968   7.406  -2.206  0.6068 -0.1985  0.2692
  609MOL0     O80291  10.998   7.351  -2.331  0.1039 -0.0305 -0.4037
  609MOL0     C80292  10.900   7.304  -2.429 -0.0158 -0.1946  0.4475
  609MOL0     C80293  10.838   7.165  -2.406 -0.4830 -0.5174  0.1610
  609MOL0     C80294  10.729   7.149  -2.515  0.1885 -0.1063 -0.6539
  609MOL0     C80295  10.681   7.002  -2.548 -0.0795 -0.6918  0.1334
  609MOL0     C80296  10.697   6.951  -2.687 -0.2665  0.1580 -0.0993
  609MOL0     C80297  10.636   7.034  -2.799  0.2109  0.2767  0.5567
  609MOL0     C80298  10.617   6.960  -2.936  0.2223 -0.7309  0.7380
  609MOL0     C80299  10.563   6.816  -2.944  1.2045 -0.1642 -0.3567
  609MOL0    Cl80300  10.412   6.778  -2.860  0.0390  0.1363  0.4881
  609MOL0     C80301  10.837   7.444  -2.171  0.1902  0.5061  0.2597
  609MOL0     C80302  10.811   7.499  -2.048 -0.1690 -0.6648  0.3328
  609MOL0     O80303  10.943   7.397  -1.690 -0.0851 -0.5326  0.3085
  609MOL0     C80304  10.819   7.738  -1.611  0.2652 -0.1171 -0.3197
  609MOL0     C80305  10.797   7.812  -1.494  0.0702 -0.3392 -0.7701
  609MOL0     N80306  10.209   7.767  -0.956  0.1793 -0.6238 -0.2348
  609MOL0     N80307  10.105   7.762  -0.887  0.0153  0.0334 -0.4482
  609MOL0     C80308   9.787   7.945   0.455 -0.4999 -1.3426 -0.5383
  609MOL0     C80309   9.692   7.877   0.532 -0.0682 -0.4887  0.1634
  609MOL0     C80310   9.357   7.590   0.691 -0.3972  0.1223 -0.4214
  609MOL0     C80311   9.230   7.600   0.624 -0.4490  0.2320  0.5708
  609MOL0     C80312   9.124   7.516   0.652  0.6516 -0.6799 -0.2376
  609MOL0     C80313   9.131   7.420   0.751 -1.0572 -0.1957 -0.2123
  609MOL0     O80314   9.024   7.347   0.796  0.8191 -0.7806  0.9953
  609MOL0     C80315   8.897   7.325   0.718 -0.5388 -0.4896 -0.6007
  609MOL0     C80316   8.775   7.408   0.766 -0.4696 -0.3393 -0.6922
  609MOL0     C80317   8.817   7.557   0.785 -0.6261  0.0005  0.3168
  609MOL0     C80318   8.708   7.622   0.859 -0.4598 -0.0173 -0.7512
  609MOL0     C80319   8.730   7.768   0.883  0.2861  0.7031 -0.1928
  609MOL0     C80320   8.741   7.880   0.894 -0.7638  0.5237  0.0183
  609MOL0     C80321   9.251   7.416   0.826  0.3236  1.0889 -0.7820
  609MOL0     C80322   9.360   7.500   0.799  0.0721  0.0533  0.0890
  609MOL0     H80323   9.479   7.779   0.293 -1.4237  2.5845  1.8752
  609MOL0     H80324   9.645   7.908   0.153  1.0157 -1.2943  0.2689
  609MOL0     H80325   9.850   8.100   0.065 -2.7774 -1.1973  0.0405
  609MOL0     H80326   9.820   7.928   0.058 -3.0326  1.7083  2.0599
  609MOL0     H80327  10.083   7.895   0.078  1.9412  1.1089  0.2544
  609MOL0     H80328  10.094   8.074   0.096  2.4062 -1.0834 -0.5961
  609MOL0     H80329  10.151   7.994  -0.126 -0.0052 -0.3732 -1.4316
  609MOL0     H80330  10.019   8.118  -0.113  0.7749  1.3412  4.8169
  609MOL0     H80331   9.967   7.825  -0.129 -2.6077  0.5149  1.2894
  609MOL0     H80332   9.868   7.962  -0.170  1.6623  1.4267 -0.2002
  609MOL0     H80333  10.002   8.020  -0.372  1.6995  0.0468  0.4388
  609MOL0     H80334   9.889   7.881  -0.371  0.2916 -0.4581 -0.6828
  609MOL0     H80335  10.089   7.727  -0.355 -0.9567  0.5720  1.6207
  609MOL0     H80336  10.192   7.862  -0.314  0.0192  4.8045 -1.7029
  609MOL0     H80337  10.184   7.966  -0.531  1.3451  1.7243  2.2154
  609MOL0     H80338  10.255   7.802  -0.517 -0.2319  1.2561 -1.2936
  609MOL0     H80339   9.980   7.857  -0.637  1.3661  3.9616  0.9075
  609MOL0     H80340  10.060   7.691  -0.588  3.0414  0.0213  0.3620
  609MOL0     H80341  10.343   7.685  -0.677 -0.7419 -0.8957 -0.8130
  609MOL0     H80342  10.453   7.588  -0.968  2.7035 -0.1508 -0.2312
  609MOL0     H80343  10.529   7.677  -0.837  1.7663  3.6753 -0.0816
  609MOL0     H80344  10.552   7.878  -0.976 -2.2874  1.2577 -0.8055
  609MOL0     H80345  10.424   7.823  -1.075  0.0133 -0.2155  0.9403
  609MOL0     H80346  10.716   7.724  -1.063  0.0447 -0.0739 -0.4676
  609MOL0     H80347  10.599   7.659  -1.176  1.3537  1.1434 -2.8847
  609MOL0     H80348  10.661   7.957  -1.173 -1.4696 -0.1326  0.2120
  609MOL0     H80349  10.595   7.864  -1.306 -1.9785 -1.2678  0.6169
  609MOL0     H80350  10.885   7.579  -1.251  2.3715 -0.8321 -1.2188
  609MOL0     H80351  10.927   7.443  -1.447 -2.2675 -1.1840  2.0049
  609MOL0     H80352  11.109   7.514  -1.902 -1.1414  2.3178  0.7583
  609MOL0     H80353  11.174   7.396  -2.108 -0.1932 -1.6798  1.2883
  609MOL0     H80354  10.947   7.300  -2.527 -1.0871 -1.6189 -0.0409
  609MOL0     H80355  10.824   7.383  -2.429 -0.4201 -0.5767  0.6882
  609MOL0     H80356  10.794   7.158  -2.306 -1.3002  2.3170  0.0879
  609MOL0     H80357  10.922   7.096  -2.422  0.2590  0.8396 -2.3275
  609MOL0     H80358  10.770   7.182  -2.611 -1.5535  2.2780 -0.6758
  609MOL0     H80359  10.641   7.210  -2.493 -0.3237 -1.2230  0.4855
  609MOL0     H80360  10.750   6.942  -2.487  1.9801 -0.3075 -1.6955
  609MOL0     H80361  10.576   6.987  -2.521  0.3984 -0.6334  2.1973
  609MOL0     H80362  10.645   6.855  -2.692 -1.9707  1.0341  0.0058
  609MOL0     H80363  10.801   6.922  -2.704 -0.5467 -1.5479  0.8140
  609MOL0     H80364  10.703   7.118  -2.817  0.9380  0.4087  3.3649
  609MOL0     H80365  10.542   7.082  -2.770 -1.2612  0.2477 -3.5721
  609MOL0     H80366  10.552   7.019  -3.002  0.0258  0.3480  1.8633
  609MOL0     H80367  10.718   6.955  -2.978 -0.3668  1.0569 -1.0951
  609MOL0     H80368  10.643   6.751  -2.906  2.9015  1.7907 -0.4480
  609MOL0     H80369  10.553   6.800  -3.051 -1.9372 -2.1550  0.1168
  609MOL0     H80370  10.764   7.452  -2.251  2.0693  1.8232 -1.3973
  609MOL0     H80371  10.707   7.524  -2.031  0.1570 -0.1223  1.6513
  609MOL0     H80372  10.810   7.788  -1.707  0.7892  3.7924  1.4813
  609MOL0     H80373  10.752   7.911  -1.496 -0.2204 -0.4078  0.8380
  609MOL0     H80374   9.864   8.002   0.507 -4.3507  0.9894  3.3083
  609MOL0     H80375   9.699   7.884   0.640  2.9103  0.4964 -0.0205
  609MOL0     H80376   9.226   7.675   0.546 -1.1541  0.7607  1.1031
  609MOL0     H80377   9.033   7.535   0.595 -0.1944  2.7244  1.9863
  609MOL0     H80378   8.876   7.220   0.737  1.1990 -1.2886 -2.7254
  609MOL0     H80379   8.918   7.335   0.611 -2.8895 -0.6708 -1.1194
  609MOL0     H80380   8.701   7.402   0.685  2.1754  0.4683 -3.3659
  609MOL0     H80381   8.745   7.366   0.862  0.6225 -0.1271 -0.2439
  609MOL0     H80382   8.813   7.584   0.679 -3.1296 -0.8090  0.1435
  609MOL0     H80383   8.906   7.586   0.843 -2.0142  1.0385  2.0268
  609MOL0     H80384   8.621   7.608   0.794  0.0624 -0.0485 -1.4593
  609MOL0     H80385   8.682   7.578   0.956 -1.8731  0.5387 -0.8517
  609MOL0     H80386   8.736   7.987   0.891 -1.3960  0.4691 -1.6032
  609MOL0     H80387   9.265   7.355   0.914 -1.1285 -0.2235 -1.4092
  609MOL0     H80388   9.442   7.495   0.869 -4.5101 -1.0712  6.2734
  610MOL0     O80389   2.753   8.024   4.489  0.4484 -0.0502 -0.2384
  610MOL0     C80390   2.686   8.010   4.593  0.0498  0.2612 -0.2100
  610MOL0     O80391   2.637   7.890   4.640 -0.2641  0.0927 -0.2534
  610MOL0     C80392   2.655   7.774   4.582  0.9180 -0.1498  0.2343
  610MOL0     C80393   2.684   7.662   4.656 -0.1931 -0.7693  0.1303
  610MOL0     C80394   2.676   7.535   4.601 -0.6576 -0.3623 -0.0621
  610MOL0     C80395   2.662   7.523   4.463  0.4803  1.2182  0.0893
  610MOL0     O80396   2.640   7.406   4.393 -0.0175  0.5297 -0.0637
  610MOL0     C80397   2.651   7.268   4.435  0.0056  0.0255 -0.6573
  610MOL0     C80398   2.601   7.185   4.312  0.3770  0.6911 -0.8764
  610MOL0     C80399   2.692   7.175   4.198  0.9739  0.7530 -0.4705
  610MOL0     C80400   2.645   7.065   4.097 -0.2409  0.3183 -0.8208
  610MOL0     C80401   2.699   7.067   3.964 -0.0595 -0.4804  0.0913
  610MOL0     C80402   2.847   7.016   3.949  0.0318  0.0792 -0.7200
  610MOL0     C80403   2.906   7.039   3.808  0.0582  0.7073 -0.1884
  610MOL0     C80404   3.061   7.061   3.815 -0.4062  0.7854 -0.7501
  610MOL0     N80405   3.127   6.930   3.815  0.6333 -0.6088  0.0353
  610MOL0     C80406   3.206   6.867   3.714 -0.1476 -0.0430 -0.2860
  610MOL0     C80407   3.257   6.739   3.757  0.7158 -0.1092 -0.1494
  610MOL0     C80408   3.349   6.636   3.691 -0.2685 -0.1683  0.2537
  610MOL0     C80409   3.437   6.707   3.587 -0.3015 -0.5865 -1.3288
  610MOL0     C80410   3.558   6.615   3.556 -0.0843 -0.1804 -0.4210
  610MOL0     C80411   3.662   6.694   3.480  0.0192  0.6607 -0.3204
  610MOL0     O80412   3.625   6.734   3.347 -0.5242  0.3578 -0.2519
  610MOL0     C80413   3.653   6.657   3.231 -0.7483  0.1643 -0.3881
  610MOL0     C80414   3.630   6.723   3.108 -0.2678  0.3181 -0.5559
  610MOL0     C80415   3.677   6.657   2.989 -0.7905  0.9453  0.3138
  610MOL0     C80416   3.744   6.526   2.993  0.4241 -0.1209 -0.7151
  610MOL0     C80417   3.788   6.469   2.873  1.3522  0.4411  0.4541
  610MOL0     O80418   3.812   6.327   2.866 -0.2069 -0.2171 -0.0919
  610MOL0     C80419   3.860   6.273   2.745 -0.1150  0.2772 -0.9839
  610MOL0     C80420   3.967   6.320   2.666  0.3459  0.8025  0.2142
  610MOL0     C80421   3.997   6.254   2.545 -0.7035  0.4946  0.7446
  610MOL0     C80422   3.917   6.142   2.492  0.3810  1.1682  0.4391
  610MOL0     O80423   3.932   6.065   2.381 -0.6212 -0.2177 -0.2107
  610MOL0     C80424   3.939   6.147   2.259  0.1462 -0.7676  0.5412
  610MOL0     C80425   4.047   6.107   2.158  0.3055 -0.1340  0.9522
  610MOL0     C80426   3.984   5.979   2.102 -0.2242  0.4720  0.2351
  610MOL0     C80427   4.082   5.915   1.999  0.7773 -0.4509 -0.2627
  610MOL0     C80428   4.086   5.994   1.868 -0.5445 -0.7171 -0.6100
  610MOL0     C80429   4.178   5.908   1.778 -0.1465  0.8555  0.6209
  610MOL0     C80430   4.191   5.972   1.640  0.2568 -0.4435  0.8778
  610MOL0     C80431   4.254   5.886   1.534  0.1045 -0.3579 -0.1438
  610MOL0    Cl80432   4.132   5.767   1.472 -0.2558  0.0547  0.0898
  610MOL0     C80433   3.814   6.098   2.575  1.0898 -0.1009  0.4460
  610MOL0     C80434   3.786   6.161   2.698 -0.7152 -0.1316 -0.8640
  610MOL0     O80435   3.808   6.544   2.774  0.2446 -0.8011 -1.1481
  610MOL0     C80436   3.755   6.464   3.120  0.5502  0.0413  0.6935
  610MOL0     C80437   3.727   6.540   3.240 -0.4172 -0.9305  0.1370
  610MOL0     N80438   3.196   6.722   3.881  0.4051  0.6932 -0.2270
  610MOL0     N80439   3.120   6.832   3.917 -0.3163  1.0855  0.8000
  610MOL0     C80440   2.654   7.635   4.387 -0.0159 -1.1794  0.6361
  610MOL0     C80441   2.651   7.763   4.443  0.5409  0.4764  0.1970
  610MOL0     C80442   2.648   8.131   4.670 -0.6385 -0.2861  0.6420
  610MOL0     C80443   2.542   8.131   4.763  0.0458  0.1196  0.3304
  610MOL0     C80444   2.494   8.243   4.835 -0.1666  0.5093  0.1070
  610MOL0     C80445   2.549   8.370   4.803  0.7547  0.1271  0.0556
  610MOL0     O80446   2.501   8.491   4.841  0.4716 -0.6429  0.1038
  610MOL0     C80447   2.406   8.494   4.945  1.0066 -0.0254  0.5842
  610MOL0     C80448   2.377   8.640   4.986  0.4440 -0.2651  0.6935
  610MOL0     C80449   2.230   8.671   4.990  0.6045  0.2690  0.3499
  610MOL0     C80450   2.178   8.644   5.128 -0.5066  0.2363 -0.2953
  610MOL0     C80451   2.164   8.497   5.164 -0.4619 -0.0277  0.6816
  610MOL0     C80452   2.160   8.379   5.194 -0.3684 -0.2214  1.0279
  610MOL0     C80453   2.659   8.368   4.722 -0.1916 -0.5381  1.0611
  610MOL0     C80454   2.709   8.257   4.652  0.3270  0.5729 -0.2288
  610MOL0     H80455   2.703   7.671   4.763 -1.0962  0.9016  0.1847
  610MOL0     H80456   2.674   7.458   4.679 -4.8980  0.3002  0.7786
  610MOL0     H80457   2.594   7.249   4.527  1.3182 -1.2847 -0.0650
  610MOL0     H80458   2.752   7.235   4.461  0.4020  0.5157 -1.5469
  610MOL0     H80459   2.506   7.222   4.275 -0.9287 -1.9777 -0.4626
  610MOL0     H80460   2.577   7.088   4.358  2.4529  0.1998 -0.7099
  610MOL0     H80461   2.797   7.157   4.226  0.1264 -4.2840  0.3960
  610MOL0     H80462   2.688   7.275   4.154 -3.5358  1.6492  1.3664
  610MOL0     H80463   2.664   6.966   4.138  1.9426 -1.1077 -4.7937
  610MOL0     H80464   2.536   7.075   4.091 -0.1221  1.3946 -1.5543
  610MOL0     H80465   2.695   7.163   3.912 -1.6891 -1.2782 -1.4044
  610MOL0     H80466   2.633   7.008   3.899 -2.2455  0.4139  1.3936
  610MOL0     H80467   2.851   6.909   3.974  1.1011  0.5172  1.2168
  610MOL0     H80468   2.907   7.075   4.019 -2.3480  3.0101 -0.9543
  610MOL0     H80469   2.884   6.946   3.755  1.9640  0.0600  0.0691
  610MOL0     H80470   2.856   7.121   3.756  0.3577 -0.6173 -2.7011
  610MOL0     H80471   3.096   7.128   3.895 -1.2286 -0.8403  1.0739
  610MOL0     H80472   3.096   7.113   3.726  1.4602  2.5881  0.9247
  610MOL0     H80473   3.223   6.911   3.617 -0.2420  2.5370  0.8012
  610MOL0     H80474   3.283   6.564   3.642 -0.1836 -1.0345  1.3843
  610MOL0     H80475   3.407   6.582   3.767 -0.1268 -1.0043 -0.4339
  610MOL0     H80476   3.470   6.803   3.629  0.0238 -1.5406  0.6945
  610MOL0     H80477   3.390   6.748   3.497  0.6220 -1.1726 -2.1015
  610MOL0     H80478   3.597   6.584   3.653  2.0823  0.3518 -1.0670
  610MOL0     H80479   3.532   6.531   3.491 -1.7053  1.9630 -2.7396
  610MOL0     H80480   3.752   6.632   3.483 -1.6601 -1.9477 -0.1757
  610MOL0     H80481   3.692   6.778   3.541  3.5301 -1.3308  0.9726
  610MOL0     H80482   3.586   6.820   3.092 -1.9642  0.3451  3.1017
  610MOL0     H80483   3.666   6.715   2.899  1.4335  0.3775 -0.3859
  610MOL0     H80484   4.015   6.413   2.696  2.6537 -1.2918  3.8526
  610MOL0     H80485   4.087   6.294   2.500 -0.8527 -1.1078 -1.0965
  610MOL0     H80486   3.966   6.250   2.286  1.4280 -0.1271 -2.7064
  610MOL0     H80487   3.844   6.148   2.206  0.1442 -0.1433  0.5573
  610MOL0     H80488   4.135   6.088   2.220 -0.4853 -3.1137  1.3276
  610MOL0     H80489   4.079   6.185   2.089  2.3816 -1.0483  0.8154
  610MOL0     H80490   3.888   5.994   2.050 -0.9993 -0.3466  1.4016
  610MOL0     H80491   3.960   5.901   2.174  3.1455 -3.8772 -2.7976
  610MOL0     H80492   4.184   5.916   2.039  1.0196  2.4277 -0.7675
  610MOL0     H80493   4.052   5.813   1.971  1.0659  0.2217 -3.4420
  610MOL0     H80494   4.120   6.095   1.892 -0.3122 -0.2623 -2.6833
  610MOL0     H80495   3.984   6.003   1.828 -0.6598  0.2865 -0.1174
  610MOL0     H80496   4.130   5.810   1.772  0.2655  0.6855  0.0213
  610MOL0     H80497   4.278   5.901   1.821  1.1574 -0.1004 -2.3677
  610MOL0     H80498   4.093   6.010   1.610  0.7332  1.6475  1.7852
  610MOL0     H80499   4.260   6.057   1.638 -0.3476  0.1147  2.4642
  610MOL0     H80500   4.341   5.832   1.572 -1.3927 -2.0356  1.0648
  610MOL0     H80501   4.288   5.939   1.445 -1.0909 -1.2983 -1.2224
  610MOL0     H80502   3.760   6.006   2.550 -1.3219  2.1234 -3.8130
  610MOL0     H80503   3.718   6.120   2.771 -1.1902 -0.3041 -1.3941
  610MOL0     H80504   3.802   6.367   3.128  1.5881  0.6549  2.9796
  610MOL0     H80505   3.740   6.495   3.338 -3.5968  0.2072  1.1967
  610MOL0     H80506   2.659   7.622   4.279  1.8947  0.1455  0.5229
  610MOL0     H80507   2.636   7.850   4.380  1.0801  0.1101 -0.4504
  610MOL0     H80508   2.478   8.044   4.770 -1.8022  0.8202 -4.4505
  610MOL0     H80509   2.398   8.228   4.883 -0.6915 -2.2717 -1.5634
  610MOL0     H80510   2.455   8.448   5.031  3.5164 -0.9731 -1.2038
  610MOL0     H80511   2.319   8.441   4.906  2.4875 -1.1293 -1.4366
  610MOL0     H80512   2.434   8.653   5.078  0.4861 -1.4742  0.8567
  610MOL0     H80513   2.417   8.709   4.911  0.3533 -1.9246 -0.9701
  610MOL0     H80514   2.185   8.605   4.915  1.6536 -1.2239  0.9912
  610MOL0     H80515   2.206   8.773   4.957  1.2667  1.1755  2.4842
  610MOL0     H80516   2.245   8.685   5.205  2.1622 -1.0101 -1.7915
  610MOL0     H80517   2.081   8.693   5.138 -0.4469  0.5003 -1.0024
  610MOL0     H80518   2.150   8.279   5.231 -2.4086 -1.0471 -1.4326
  610MOL0     H80519   2.711   8.462   4.706  0.9809 -1.3618 -0.1066
  610MOL0     H80520   2.800   8.269   4.595  0.5139  1.7785  0.3004
  611MOL0     O80521  10.805  10.265   0.263  0.7548 -0.2247 -0.0342
  611MOL0     C80522  10.689  10.244   0.244 -0.3759 -0.7476  0.2728
  611MOL0     O80523  10.602  10.182   0.325  1.0598 -0.1366  0.1542
  611MOL0     C80524  10.629  10.189   0.458  0.2167 -0.3393 -0.1719
  611MOL0     C80525  10.614  10.309   0.537 -0.0789  0.0824 -0.4024
  611MOL0     C80526  10.667  10.316   0.672  0.0927  0.2168 -1.0194
  611MOL0     C80527  10.715  10.200   0.740 -0.1830 -0.2287 -0.2762
  611MOL0     O80528  10.760  10.218   0.866 -0.5150  0.7946 -0.7456
  611MOL0     C80529  10.799  10.093   0.938 -0.6496 -0.3835 -0.5024
  611MOL0     C80530  10.793  10.117   1.094  0.5500  0.6254  0.4124
  611MOL0     C80531  10.854   9.997   1.165  0.4440 -0.2050  0.0469
  611MOL0     C80532  10.994   9.971   1.128 -0.6483 -0.1877  0.0505
  611MOL0     C80533  11.086  10.089   1.131 -0.6144 -0.4614 -1.2086
  611MOL0     C80534  11.235  10.055   1.108 -0.2541  0.0025 -0.7171
  611MOL0     C80535  11.332  10.145   1.168  0.0747  0.2455  0.5026
  611MOL0     C80536  11.478  10.099   1.136 -0.2156  0.3200  0.0040
  611MOL0     N80537  11.517  10.117   0.996  0.6706  0.2128 -0.2112
  611MOL0     C80538  11.553  10.238   0.942  0.4000  0.0008 -0.5077
  611MOL0     C80539  11.630  10.201   0.831 -1.0339  1.2301 -0.0497
  611MOL0     C80540  11.722  10.290   0.756  0.1522 -0.6385  0.0963
  611MOL0     C80541  11.860  10.290   0.833 -0.0442  0.0755  0.8937
  611MOL0     C80542  11.959  10.397   0.789  0.0756 -0.3669  0.1345
  611MOL0     C80543  11.896  10.540   0.773  1.0989 -0.2373 -0.5261
  611MOL0     O80544  11.991  10.651   0.752  0.2151 -0.1401  0.2531
  611MOL0     C80545  11.927  10.773   0.744  0.1895  0.4344  0.3472
  611MOL0     C80546  11.840  10.819   0.848 -0.1776 -0.0389  0.5831
  611MOL0     C80547  11.768  10.935   0.825  0.2127  0.7614 -0.4554
  611MOL0     C80548  11.771  10.998   0.700  0.2404  0.3059 -0.2311
  611MOL0     C80549  11.673  11.098   0.664 -0.1111 -0.6465 -0.4099
  611MOL0     O80550  11.646  11.109   0.532 -0.2384 -0.1422 -0.8589
  611MOL0     C80551  11.561  11.210   0.489  0.7148 -0.4525 -0.1563
  611MOL0     C80552  11.596  11.345   0.464  0.0357 -0.2808 -0.4794
  611MOL0     C80553  11.503  11.446   0.430  0.2245 -0.1243 -0.5009
  611MOL0     C80554  11.374  11.407   0.417  0.3913  0.4421  1.1662
  611MOL0     O80555  11.272  11.495   0.370 -0.1965 -0.2434  0.0953
  611MOL0     C80556  11.294  11.559   0.244 -0.0079 -0.3592 -0.6875
  611MOL0     C80557  11.307  11.704   0.267 -0.2389 -0.1208 -0.5114
  611MOL0     C80558  11.269  11.799   0.146 -0.3999  0.0061  0.4552
  611MOL0     C80559  11.305  11.947   0.175 -0.1368  0.3552  0.1085
  611MOL0     C80560  11.295  12.031   0.059 -0.1887 -0.1009  0.1660
  611MOL0     C80561  11.277  12.178   0.096 -0.0213  0.3287 -0.1680
  611MOL0     C80562  11.292  12.276  -0.021 -0.0912 -0.1845  0.5418
  611MOL0     C80563  11.273  12.433   0.022  0.4871  0.7060  0.2721
  611MOL0    Cl80564  11.302  12.539  -0.110  0.0276  0.3463 -0.0609
  611MOL0     C80565  11.332  11.274   0.428  0.2721  1.1939 -0.9769
  611MOL0     C80566  11.428  11.180   0.467 -0.0897  0.1816 -0.0226
  611MOL0     O80567  11.617  11.165   0.755  0.4877 -0.1346  0.9522
  611MOL0     C80568  11.868  10.967   0.607 -0.0475  0.8624 -0.1772
  611MOL0     C80569  11.954  10.853   0.633 -0.7254 -0.7761  0.1331
  611MOL0     N80570  11.613  10.061   0.817 -0.4207 -0.5763  0.2342
  611MOL0     N80571  11.555  10.008   0.919 -0.1556 -0.5426 -0.1058
  611MOL0     C80572  10.711  10.078   0.664  0.1227  0.8087  0.2870
  611MOL0     C80573  10.675  10.072   0.525  1.1046  0.5192 -0.2955
  611MOL0     C80574  10.638  10.277   0.111 -0.1826 -0.3886 -0.2357
  611MOL0     C80575  10.502  10.300   0.087  0.8499 -0.4271  0.0003
  611MOL0     C80576  10.455  10.306  -0.049  0.2945  0.0824 -2.0207
  611MOL0     C80577  10.543  10.297  -0.150  0.0554 -0.4424 -0.6000
  611MOL0     O80578  10.515  10.294  -0.283 -0.1236  0.5034 -0.5595
  611MOL0     C80579  10.387  10.335  -0.330  0.2556  0.1964 -0.0354
  611MOL0     C80580  10.391  10.306  -0.482 -0.4923  0.0399 -0.0806
  611MOL0     C80581  10.242  10.317  -0.539 -0.8409 -0.3584  0.3509
  611MOL0     C80582  10.235  10.276  -0.678 -1.1336  0.0388 -0.2775
  611MOL0     C80583  10.287  10.389  -0.761 -0.5376 -0.6330 -0.8233
  611MOL0     C80584  10.321  10.479  -0.836 -1.3810 -0.5259  0.0892
  611MOL0     C80585  10.676  10.304  -0.122 -0.0118  1.5626  0.2699
  611MOL0     C80586  10.725  10.289   0.000  0.1235  0.3745 -0.1684
  611MOL0     H80587  10.568  10.399   0.498 -1.3548  0.5792  2.0339
  611MOL0     H80588  10.641  10.405   0.730  2.0831  1.5259 -1.9975
  611MOL0     H80589  10.898  10.052   0.919 -1.2236 -2.2626  0.2641
  611MOL0     H80590  10.722  10.016   0.923 -0.6343  0.0179 -3.0776
  611MOL0     H80591  10.685  10.128   1.113  0.8645  3.3321  1.0633
  611MOL0     H80592  10.841  10.210   1.124 -0.7259  1.5196 -0.2184
  611MOL0     H80593  10.789   9.911   1.147  1.3094 -1.0224  0.7083
  611MOL0     H80594  10.835  10.018   1.271 -1.1196 -0.7897 -0.0974
  611MOL0     H80595  11.035   9.895   1.196  0.9816  3.0380  3.0144
  611MOL0     H80596  11.000   9.926   1.029 -0.2308 -0.4597  0.1985
  611MOL0     H80597  11.085  10.157   1.216  0.3090 -2.6102  0.6396
  611MOL0     H80598  11.057  10.149   1.044 -2.9041 -0.7262 -0.6877
  611MOL0     H80599  11.251  10.045   1.000 -2.1251  1.9597 -1.2482
  611MOL0     H80600  11.253   9.957   1.154  0.7407 -0.5910 -2.2557
  611MOL0     H80601  11.316  10.239   1.114  3.9502  0.7509 -0.0513
  611MOL0     H80602  11.306  10.160   1.274 -0.5000  2.2907  0.1293
  611MOL0     H80603  11.486   9.993   1.165 -0.5768 -0.5086 -2.6832
  611MOL0     H80604  11.549  10.157   1.196 -1.9931  2.3287  0.2502
  611MOL0     H80605  11.553  10.339   0.982  0.0965 -0.7225  1.3935
  611MOL0     H80606  11.685  10.389   0.728  3.7656 -0.1124 -3.8905
  611MOL0     H80607  11.736  10.243   0.658  0.3195 -1.1116  0.3417
  611MOL0     H80608  11.915  10.197   0.819 -1.1629 -0.5803  0.7343
  611MOL0     H80609  11.846  10.295   0.941 -1.1571 -1.6139  0.8708
  611MOL0     H80610  12.050  10.409   0.848  1.9548 -0.8557 -2.4748
  611MOL0     H80611  12.000  10.363   0.693  0.6458 -1.9306  0.9068
  611MOL0     H80612  11.823  10.549   0.854  2.2813  2.0710  0.3581
  611MOL0     H80613  11.842  10.528   0.678  1.3817 -0.7266 -0.6329
  611MOL0     H80614  11.822  10.764   0.940 -3.6485  0.8575  0.5862
  611MOL0     H80615  11.697  10.959   0.904 -3.5284 -4.4012 -1.7400
  611MOL0     H80616  11.702  11.361   0.482  0.5558 -2.5255 -1.1508
  611MOL0     H80617  11.543  11.546   0.419  2.0277 -0.7284  0.2151
  611MOL0     H80618  11.208  11.560   0.176 -1.3677  3.5963  0.7964
  611MOL0     H80619  11.377  11.516   0.189  2.7658  2.4205  1.0201
  611MOL0     H80620  11.410  11.729   0.296 -0.6490  0.5062  0.4577
  611MOL0     H80621  11.239  11.730   0.349  1.0795 -1.9545  1.2537
  611MOL0     H80622  11.163  11.791   0.124 -0.7574 -1.2676  2.3191
  611MOL0     H80623  11.318  11.756   0.058  0.5136  2.2033 -0.1782
  611MOL0     H80624  11.228  11.974   0.248  1.2198 -1.1590  2.2446
  611MOL0     H80625  11.405  11.947   0.221  2.2204 -3.4712 -4.0932
  611MOL0     H80626  11.205  11.991   0.011  1.0202 -2.0187 -0.6404
  611MOL0     H80627  11.383  12.022  -0.005 -1.1770  4.1105 -2.1662
  611MOL0     H80628  11.340  12.228   0.170 -0.5276  2.3723 -1.0353
  611MOL0     H80629  11.173  12.179   0.131  0.5540 -1.3598  1.7390
  611MOL0     H80630  11.381  12.271  -0.085 -4.0643  1.5361 -6.2193
  611MOL0     H80631  11.222  12.254  -0.102  2.4128  0.8856 -2.0798
  611MOL0     H80632  11.332  12.453   0.112 -0.9189 -0.2101  1.4359
  611MOL0     H80633  11.171  12.442   0.060  0.4252  1.9856 -0.1373
  611MOL0     H80634  11.229  11.241   0.417  0.6811 -1.3380  1.5089
  611MOL0     H80635  11.400  11.077   0.489 -0.2767  0.3134  0.3688
  611MOL0     H80636  11.893  11.038   0.528  1.2889 -0.0498 -0.6012
  611MOL0     H80637  12.034  10.834   0.562  0.2034 -1.0199  1.2161
  611MOL0     H80638  10.757  10.001   0.725 -0.4812 -1.1966 -1.6946
  611MOL0     H80639  10.681   9.981   0.466 -1.9082  1.0656 -1.6227
  611MOL0     H80640  10.420  10.307   0.158  0.7206 -1.0834 -0.0826
  611MOL0     H80641  10.347  10.303  -0.060  0.1601 -2.8311 -0.8100
  611MOL0     H80642  10.370  10.442  -0.318  1.3054  0.3175  0.4812
  611MOL0     H80643  10.307  10.275  -0.283  1.0412 -1.9189 -1.2435
  611MOL0     H80644  10.450  10.384  -0.532 -2.4222  1.5464 -0.1125
  611MOL0     H80645  10.440  10.209  -0.500 -1.0040  0.2835 -3.3421
  611MOL0     H80646  10.197  10.415  -0.518  1.0321  0.7953 -0.6337
  611MOL0     H80647  10.184  10.238  -0.492 -2.7024  0.9673  0.3995
  611MOL0     H80648  10.288  10.182  -0.698 -1.4860 -0.1271 -0.4297
  611MOL0     H80649  10.129  10.252  -0.694 -0.1731 -3.2512 -2.8962
  611MOL0     H80650  10.368  10.567  -0.877 -0.5953  0.9102  3.6335
  611MOL0     H80651  10.749  10.321  -0.201  1.1070  0.8292  1.1135
  611MOL0     H80652  10.832  10.276   0.013  0.4182 -0.1203 -2.5875
  612MOL0     O80653   2.327   8.800   0.058 -0.4058 -0.0830 -0.1078
  612MOL0     C80654   2.352   8.863  -0.047  0.1457  0.9029  0.1754
  612MOL0     O80655   2.457   8.829  -0.143 -0.2828 -0.8324  0.4526
  612MOL0     C80656   2.550   8.738  -0.096 -0.2052 -0.6040  0.3092
  612MOL0     C80657   2.609   8.741   0.035 -0.0112 -0.5987  1.0743
  612MOL0     C80658   2.686   8.640   0.081  1.3707  0.1361 -0.2188
  612MOL0     C80659   2.733   8.546  -0.006  0.1725  0.1950  0.1590
  612MOL0     O80660   2.832   8.452   0.029  0.4062 -0.0871 -0.2517
  612MOL0     C80661   2.880   8.432   0.163  0.4420 -0.8162  0.5994
  612MOL0     C80662   2.990   8.527   0.195 -0.6645 -0.5355  0.2094
  612MOL0     C80663   3.019   8.546   0.343 -0.2483 -0.0274  0.1322
  612MOL0     C80664   3.122   8.658   0.352  0.2012  0.4056 -0.2792
  612MOL0     C80665   3.172   8.685   0.490  0.0978  0.2600 -0.9583
  612MOL0     C80666   3.259   8.814   0.518  0.2385 -0.3699  0.2280
  612MOL0     C80667   3.208   8.945   0.451  0.4733 -0.9064  0.8426
  612MOL0     C80668   3.254   9.068   0.518  0.3510 -0.6135  0.8667
  612MOL0     N80669   3.165   9.180   0.475  0.1352 -0.2190 -0.1882
  612MOL0     C80670   3.202   9.289   0.399  0.5556  0.3135 -0.7120
  612MOL0     C80671   3.113   9.389   0.412 -0.9205  0.5855 -0.5522
  612MOL0     C80672   3.127   9.530   0.367 -0.5243  0.0536  0.7854
  612MOL0     C80673   3.026   9.579   0.262 -0.8472 -0.2974  0.3118
  612MOL0     C80674   3.043   9.732   0.232 -0.4630  0.5517 -0.3513
  612MOL0     C80675   3.179   9.763   0.164 -0.3967 -0.0259 -0.5758
  612MOL0     O80676   3.279   9.761   0.263 -0.4052 -0.5138 -0.3099
  612MOL0     C80677   3.305   9.865   0.352 -0.0443 -0.5931  0.1717
  612MOL0     C80678   3.264   9.991   0.319 -0.7650  0.3989 -0.3148
  612MOL0     C80679   3.270  10.098   0.414  0.2223 -0.8075  0.4400
  612MOL0     C80680   3.312  10.075   0.544 -1.3249  0.6441 -0.8378
  612MOL0     C80681   3.334  10.193   0.633  0.4862  0.5920 -0.8142
  612MOL0     O80682   3.261  10.301   0.592 -0.6853 -0.0533  0.0676
  612MOL0     C80683   3.250  10.412   0.673 -0.2370  0.4149 -0.1993
  612MOL0     C80684   3.362  10.485   0.725  0.5518  0.3714 -0.0218
  612MOL0     C80685   3.340  10.601   0.792  0.3091  0.4784 -0.6238
  612MOL0     C80686   3.208  10.665   0.789 -1.0565  0.7531  0.4108
  612MOL0     O80687   3.181  10.793   0.833 -0.1151 -0.2689  0.1024
  612MOL0     C80688   3.288  10.872   0.872  1.0392 -0.4736  0.1882
  612MOL0     C80689   3.227  11.002   0.910 -0.0399 -1.0323 -0.6624
  612MOL0     C80690   3.132  10.988   1.030 -0.0994  0.3429 -0.3028
  612MOL0     C80691   3.216  10.940   1.145 -0.0613 -0.6825 -0.8866
  612MOL0     C80692   3.153  10.948   1.288 -0.2525 -1.1288 -0.1860
  612MOL0     C80693   3.028  10.862   1.296  0.9576  0.3564  0.9242
  612MOL0     C80694   2.946  10.869   1.443  0.4624  0.7763  0.3901
  612MOL0     C80695   2.802  10.838   1.418  0.1430  1.0293  0.0984
  612MOL0    Cl80696   2.723  10.773   1.563  0.0118 -0.1590 -0.2412
  612MOL0     C80697   3.097  10.589   0.743 -0.8741 -0.5486  0.1989
  612MOL0     C80698   3.126  10.463   0.687 -0.1295  0.0848  0.6206
  612MOL0     O80699   3.386  10.175   0.751  0.3334  0.2123  0.8440
  612MOL0     C80700   3.349   9.935   0.578  0.2476 -0.2331 -1.1112
  612MOL0     C80701   3.331   9.833   0.485  0.7539 -0.0341 -0.6656
  612MOL0     N80702   3.010   9.336   0.485  0.4334  0.0678 -0.5978
  612MOL0     N80703   3.039   9.217   0.530  0.4358  0.2017  0.1821
  612MOL0     C80704   2.678   8.532  -0.137 -0.0290 -0.1747 -0.3642
  612MOL0     C80705   2.571   8.633  -0.176 -0.4384  0.9088  0.0820
  612MOL0     C80706   2.294   8.999  -0.061  0.4128  1.1740 -0.6938
  612MOL0     C80707   2.178   9.028   0.006  0.6582 -0.0617  0.0942
  612MOL0     C80708   2.127   9.156   0.001 -0.1980  0.5854 -0.1895
  612MOL0     C80709   2.191   9.252  -0.066 -0.1103  0.1325  0.2022
  612MOL0     O80710   2.134   9.375  -0.090  0.8183  0.2436  1.3377
  612MOL0     C80711   2.026   9.428  -0.004  0.1867 -0.1852 -1.1444
  612MOL0     C80712   2.015   9.586  -0.012  0.2468  0.4631  0.0437
  612MOL0     C80713   2.140   9.664   0.028 -0.2185  0.4004 -0.1109
  612MOL0     C80714   2.121   9.816  -0.001 -0.7711 -0.0265 -1.2209
  612MOL0     C80715   1.990   9.869   0.022  0.0234 -1.0543 -0.8416
  612MOL0     C80716   1.886   9.932   0.032  0.3713 -0.2626 -0.0898
  612MOL0     C80717   2.304   9.217  -0.144  0.3095  0.3247 -0.4756
  612MOL0     C80718   2.365   9.097  -0.133 -0.0420  0.8504 -0.0096
  612MOL0     H80719   2.594   8.831   0.095  0.8842  1.2196 -1.2557
  612MOL0     H80720   2.719   8.653   0.184  1.3000  0.3938 -0.2272
  612MOL0     H80721   2.912   8.328   0.165 -4.4999 -2.5698  1.5958
  612MOL0     H80722   2.799   8.434   0.235 -1.5215 -1.7095 -1.4520
  612MOL0     H80723   2.967   8.625   0.154  0.6969  0.2602  1.2499
  612MOL0     H80724   3.080   8.494   0.142 -0.5039  0.1836  0.0305
  612MOL0     H80725   3.065   8.465   0.400  1.5532  0.6897 -0.2091
  612MOL0     H80726   2.925   8.563   0.396  0.0436 -3.4684  2.0096
  612MOL0     H80727   3.217   8.631   0.304  0.8616 -1.2350  1.7464
  612MOL0     H80728   3.076   8.751   0.318  0.8261  0.9381  0.3053
  612MOL0     H80729   3.231   8.597   0.519 -0.7465  0.2905  1.0105
  612MOL0     H80730   3.088   8.677   0.560  0.5923 -3.0905 -0.5762
  612MOL0     H80731   3.362   8.802   0.483  1.1547  4.8682  0.2201
  612MOL0     H80732   3.271   8.830   0.626 -0.0449  2.5095 -0.0718
  612MOL0     H80733   3.234   8.939   0.344 -1.5462 -0.7691  0.3155
  612MOL0     H80734   3.100   8.953   0.464  0.2115 -1.6557 -0.6832
  612MOL0     H80735   3.360   9.096   0.510 -0.3849  2.8281  1.5460
  612MOL0     H80736   3.227   9.052   0.623 -3.4780 -2.2641 -0.2225
  612MOL0     H80737   3.294   9.309   0.344  0.2632  1.6305 -0.7559
  612MOL0     H80738   3.230   9.544   0.335 -0.3573 -1.3143  0.6801
  612MOL0     H80739   3.121   9.603   0.449 -0.4300  3.7999 -2.2842
  612MOL0     H80740   2.923   9.563   0.293 -1.6185 -2.5317 -2.8374
  612MOL0     H80741   3.031   9.510   0.177  0.6260  0.9282 -0.6604
  612MOL0     H80742   2.958   9.764   0.171 -0.2908  1.5378 -0.0924
  612MOL0     H80743   3.036   9.794   0.323 -2.1592 -0.8818  0.5686
  612MOL0     H80744   3.167   9.864   0.122 -2.8459  0.9641  2.1213
  612MOL0     H80745   3.202   9.700   0.078 -0.4525 -1.4803  0.4401
  612MOL0     H80746   3.241  10.017   0.216  3.5851  4.4691 -0.6357
  612MOL0     H80747   3.227  10.193   0.385 -0.7576 -0.9232  1.4269
  612MOL0     H80748   3.460  10.446   0.700  2.4841  2.9224  2.7973
  612MOL0     H80749   3.425  10.650   0.839  1.1331 -0.0008 -1.5825
  612MOL0     H80750   3.345  10.910   0.787  0.6776  1.5829  0.8091
  612MOL0     H80751   3.345  10.833   0.957 -0.3848  1.2782  2.0249
  612MOL0     H80752   3.176  11.051   0.827 -0.6678  2.5524  1.6037
  612MOL0     H80753   3.308  11.072   0.933 -0.1618 -1.6452  1.9261
  612MOL0     H80754   3.061  10.908   1.004  1.2136 -0.0742 -2.9378
  612MOL0     H80755   3.084  11.081   1.060 -0.1913 -0.5459  2.5572
  612MOL0     H80756   3.245  10.835   1.135  1.7548 -0.4204  0.9344
  612MOL0     H80757   3.307  11.001   1.137 -0.8743  1.6249  4.0212
  612MOL0     H80758   3.138  11.054   1.308  1.5671 -1.0309  0.8425
  612MOL0     H80759   3.218  10.905   1.365  0.8772 -1.6462 -1.4056
  612MOL0     H80760   3.049  10.758   1.272 -0.4424  0.4540 -0.9710
  612MOL0     H80761   2.961  10.895   1.216 -1.0626 -3.6379  0.7427
  612MOL0     H80762   2.974  10.788   1.512  0.9021 -0.4914 -1.2172
  612MOL0     H80763   2.960  10.964   1.496 -0.2813  1.1875 -0.1198
  612MOL0     H80764   2.802  10.766   1.335  0.3447 -0.1502  1.0964
  612MOL0     H80765   2.740  10.921   1.385 -0.0149  0.6334 -0.6423
  612MOL0     H80766   3.002  10.641   0.739 -0.1795  0.7652 -3.5211
  612MOL0     H80767   3.046  10.415   0.632 -1.5162  0.4711  2.2447
  612MOL0     H80768   3.389   9.920   0.678  4.0314 -2.5710 -2.7707
  612MOL0     H80769   3.352   9.740   0.537 -0.2266  0.3219  0.3956
  612MOL0     H80770   2.710   8.446  -0.195 -1.0592 -1.3018  0.6612
  612MOL0     H80771   2.514   8.634  -0.268 -2.4806  2.9793  1.2742
  612MOL0     H80772   2.130   8.946   0.059  1.4536 -0.9733 -0.5530
  612MOL0     H80773   2.033   9.169   0.053  0.6516  1.4396  1.1879
  612MOL0     H80774   2.067   9.416   0.096 -1.9671  1.1860 -0.0131
  612MOL0     H80775   1.923   9.390   0.001 -0.8532  2.5713  0.7299
  612MOL0     H80776   1.987   9.624  -0.111 -2.5573 -0.5348  0.3563
  612MOL0     H80777   1.923   9.616   0.039 -0.8053  1.5574 -2.3240
  612MOL0     H80778   2.238   9.633  -0.010  1.6630  2.8643  2.3341
  612MOL0     H80779   2.156   9.650   0.135  0.7258 -0.4866 -0.3537
  612MOL0     H80780   2.201   9.868   0.053 -0.6085 -0.1398 -1.3518
  612MOL0     H80781   2.142   9.840  -0.106 -1.1089 -1.7840 -1.7193
  612MOL0     H80782   1.792   9.978   0.053  1.6667  1.7745  1.6817
  612MOL0     H80783   2.348   9.296  -0.203  0.2566  2.2597  1.9142
  612MOL0     H80784   2.468   9.088  -0.167 -0.4820  2.2202 -1.8735
  613MOL0     O80785   6.388   9.309   4.582  0.1236  0.3356  0.3862
  613MOL0     C80786   6.444   9.279   4.473  0.2843 -0.1098  0.0225
  613MOL0     O80787   6.383   9.273   4.344 -0.0925  0.3739  0.3768
  613MOL0     C80788   6.269   9.345   4.310 -0.1519 -0.0156 -0.5176
  613MOL0     C80789   6.251   9.359   4.166  0.1955 -0.3451 -0.6266
  613MOL0     C80790   6.165   9.449   4.107  0.4832 -0.5549 -0.0649
  613MOL0     C80791   6.085   9.535   4.188 -0.2280 -0.1514 -0.3936
  613MOL0     O80792   5.988   9.619   4.146 -0.4141  0.2231  0.1873
  613MOL0     C80793   6.006   9.701   4.030 -0.8618 -0.3042  0.4876
  613MOL0     C80794   5.872   9.766   4.012  0.3300 -0.5686 -0.1640
  613MOL0     C80795   5.839   9.862   4.131  0.2457 -0.8242 -0.4468
  613MOL0     C80796   5.940   9.971   4.159  0.1174  0.2104  0.0161
  613MOL0     C80797   5.889  10.080   4.261 -0.1993 -0.1076  0.2868
  613MOL0     C80798   5.837  10.028   4.395 -0.1164 -0.4108  0.6641
  613MOL0     C80799   5.685   9.984   4.422  0.0552  0.2648 -0.9807
  613MOL0     C80800   5.585  10.076   4.356 -1.0015  0.0613  1.0180
  613MOL0     N80801   5.443  10.042   4.389  1.1617 -0.1359  0.4467
  613MOL0     C80802   5.340  10.011   4.304 -0.8300 -0.1637 -0.3160
  613MOL0     C80803   5.241   9.964   4.379 -0.2345 -0.2943 -0.1905
  613MOL0     C80804   5.114   9.890   4.336  0.2181 -0.3920  0.3345
  613MOL0     C80805   5.110   9.743   4.374  0.2708  0.2669 -0.8436
  613MOL0     C80806   5.092   9.655   4.250  0.0228  0.0834  0.2412
  613MOL0     C80807   5.126   9.513   4.287 -0.4267 -0.3646 -0.6420
  613MOL0     O80808   5.136   9.416   4.176  0.1155 -0.0808 -0.1699
  613MOL0     C80809   5.032   9.340   4.124  0.1823  0.2683  0.7513
  613MOL0     C80810   5.067   9.227   4.045  0.2702  0.4371  0.9058
  613MOL0     C80811   4.972   9.138   4.004  0.7954  0.3751  0.1731
  613MOL0     C80812   4.831   9.159   4.028 -1.0017 -0.0212  0.2156
  613MOL0     C80813   4.725   9.079   3.957  0.9975 -0.1617 -0.9216
  613MOL0     O80814   4.604   9.116   3.979  0.5902  0.3403 -0.4097
  613MOL0     C80815   4.498   9.042   3.931 -0.3006  0.3056  0.2902
  613MOL0     C80816   4.398   9.113   3.855 -0.1039  0.5915 -0.7172
  613MOL0     C80817   4.300   9.039   3.796 -0.3593  0.6196 -0.4041
  613MOL0     C80818   4.270   8.906   3.818 -0.5397 -0.0081  0.2622
  613MOL0     O80819   4.156   8.834   3.786  0.5883  0.5759  0.3761
  613MOL0     C80820   4.089   8.877   3.663  0.4404  0.2554 -0.8683
  613MOL0     C80821   4.057   8.749   3.590 -0.4615 -0.6682 -0.8720
  613MOL0     C80822   4.136   8.717   3.464  0.1689  0.7293 -0.4168
  613MOL0     C80823   4.287   8.710   3.500 -0.1732 -1.0670 -0.2791
  613MOL0     C80824   4.350   8.633   3.386  0.0888  0.2200 -0.1571
  613MOL0     C80825   4.493   8.599   3.414 -0.5974 -0.5281  0.3555
  613MOL0     C80826   4.591   8.722   3.416  0.0241  0.5076  0.0563
  613MOL0     C80827   4.740   8.663   3.415  0.0402 -0.6915  0.1550
  613MOL0    Cl80828   4.862   8.794   3.391 -0.1120 -0.2679 -0.0444
  613MOL0     C80829   4.376   8.836   3.889  0.1749 -1.2434 -0.4640
  613MOL0     C80830   4.484   8.901   3.938 -0.4583  0.3000 -0.1143
  613MOL0     O80831   4.760   8.997   3.880  0.1322 -0.2829 -0.0049
  613MOL0     C80832   4.799   9.250   4.135 -0.0567 -0.6837  0.3965
  613MOL0     C80833   4.896   9.343   4.177 -1.2773 -0.5090  0.2413
  613MOL0     N80834   5.279   9.979   4.508  0.9918  0.5971 -0.1828
  613MOL0     N80835   5.392  10.030   4.515 -0.0405  0.1853 -0.8342
  613MOL0     C80836   6.090   9.511   4.327 -0.7329 -0.1761  0.2282
  613MOL0     C80837   6.185   9.423   4.386  0.0650 -0.0751  0.4096
  613MOL0     C80838   6.578   9.216   4.473 -0.0398 -0.3556  0.6533
  613MOL0     C80839   6.649   9.185   4.588  0.5778  0.7423 -0.8553
  613MOL0     C80840   6.765   9.110   4.588 -1.2593 -0.0506 -0.2047
  613MOL0     C80841   6.812   9.057   4.468  1.1888 -1.3349 -0.6562
  613MOL0     O80842   6.922   8.975   4.454  0.5340  0.8387 -0.5612
  613MOL0     C80843   6.905   8.860   4.545  0.2138 -1.0412  0.4236
  613MOL0     C80844   7.023   8.848   4.641 -0.6856  0.0829 -0.7307
  613MOL0     C80845   7.162   8.851   4.573  0.1321 -0.6820  0.5005
  613MOL0     C80846   7.268   8.805   4.667  0.5383  1.2166  0.4907
  613MOL0     C80847   7.259   8.660   4.668  0.2787 -0.1710  0.5088
  613MOL0     C80848   7.257   8.541   4.631  0.8139 -0.4927 -0.5397
  613MOL0     C80849   6.738   9.086   4.350 -0.5742  0.8857 -1.7720
  613MOL0     C80850   6.626   9.161   4.348 -0.6432 -0.6979  0.7042
  613MOL0     H80851   6.306   9.289   4.103 -1.9260 -1.6044 -1.1813
  613MOL0     H80852   6.143   9.451   4.000  1.3433 -0.7024 -0.2504
  613MOL0     H80853   6.031   9.636   3.945 -2.3823 -1.4959  0.9007
  613MOL0     H80854   6.081   9.780   4.029 -0.6984 -0.4508  0.8628
  613MOL0     H80855   5.789   9.697   3.994 -0.3124  0.1468 -0.0125
  613MOL0     H80856   5.872   9.833   3.926 -0.6104  0.2331  0.4174
  613MOL0     H80857   5.820   9.804   4.222 -0.1349  0.8568  0.5820
  613MOL0     H80858   5.748   9.919   4.115  1.7465  1.2916 -1.8665
  613MOL0     H80859   6.020   9.925   4.218  0.0758  2.0152  1.5901
  613MOL0     H80860   5.969  10.033   4.073 -3.0152  4.7105  1.8137
  613MOL0     H80861   5.822  10.148   4.207 -2.0096 -0.9824  1.3285
  613MOL0     H80862   5.967  10.152   4.290 -2.0335  0.8974  3.1942
  613MOL0     H80863   5.873  10.101   4.468  1.2646  1.0282 -1.3449
  613MOL0     H80864   5.897   9.941   4.423 -1.9788 -2.3945 -1.0997
  613MOL0     H80865   5.670   9.878   4.397 -0.3176  0.5436 -1.9771
  613MOL0     H80866   5.670   9.981   4.530 -0.7155 -0.8240 -1.0998
  613MOL0     H80867   5.604  10.060   4.250 -1.0041 -2.1545  1.3022
  613MOL0     H80868   5.596  10.181   4.384 -1.9532  0.2412  0.7402
  613MOL0     H80869   5.352   9.985   4.199  0.9049 -4.2066  0.7053
  613MOL0     H80870   5.098   9.898   4.229 -3.5677  0.5961  0.8279
  613MOL0     H80871   5.032   9.944   4.384 -1.0045  0.8985 -2.9433
  613MOL0     H80872   5.028   9.727   4.444  2.4838 -1.3108  1.5556
  613MOL0     H80873   5.210   9.721   4.412  0.7433  0.0845 -2.1353
  613MOL0     H80874   4.990   9.665   4.213 -0.4878  2.1262  2.0178
  613MOL0     H80875   5.159   9.674   4.165 -0.7907 -0.0333 -0.4466
  613MOL0     H80876   5.040   9.478   4.346 -1.1105 -2.1455 -2.6099
  613MOL0     H80877   5.225   9.505   4.333 -0.5815 -0.2540 -0.2849
  613MOL0     H80878   5.173   9.211   4.025 -0.3107 -1.9164 -0.7178
  613MOL0     H80879   5.003   9.053   3.945  0.4493  0.4188 -0.0726
  613MOL0     H80880   4.415   9.218   3.836  0.1975  1.1309  2.0915
  613MOL0     H80881   4.234   9.099   3.733 -0.0745 -0.8063 -2.1486
  613MOL0     H80882   4.145   8.937   3.591  1.4031 -0.1686 -0.4796
  613MOL0     H80883   3.995   8.927   3.689  1.0853  0.3635  1.4767
  613MOL0     H80884   3.951   8.745   3.564 -0.0689 -1.5788 -2.4963
  613MOL0     H80885   4.064   8.665   3.660 -1.5135  0.9335  1.2553
  613MOL0     H80886   4.110   8.790   3.387  1.0119 -0.9892 -2.4257
  613MOL0     H80887   4.104   8.623   3.419  1.8495  0.7527 -1.7993
  613MOL0     H80888   4.340   8.806   3.504  0.7141 -1.3543 -2.9356
  613MOL0     H80889   4.313   8.669   3.598 -1.3124 -1.6171 -0.2031
  613MOL0     H80890   4.346   8.698   3.298  1.0203 -1.2200 -1.2966
  613MOL0     H80891   4.294   8.542   3.365 -1.2676  0.8658  0.5299
  613MOL0     H80892   4.529   8.527   3.340  1.3653 -0.1739  0.9047
  613MOL0     H80893   4.500   8.560   3.516 -1.6156 -0.5520  0.4279
  613MOL0     H80894   4.569   8.767   3.318 -0.7725 -1.3041 -0.6405
  613MOL0     H80895   4.581   8.791   3.500  1.9778  0.2904  0.5385
  613MOL0     H80896   4.753   8.601   3.326 -2.6217  2.5936 -2.7797
  613MOL0     H80897   4.773   8.619   3.510 -1.5371 -0.2413  0.9483
  613MOL0     H80898   4.360   8.731   3.906  0.1016 -0.8851  2.0551
  613MOL0     H80899   4.557   8.836   3.987 -0.5989 -0.2730 -0.6516
  613MOL0     H80900   4.701   9.252   4.183 -0.3466  1.1897 -0.1817
  613MOL0     H80901   4.867   9.409   4.259  1.5217 -0.8281  1.6200
  613MOL0     H80902   6.041   9.574   4.400  2.7870  1.6646  1.2589
  613MOL0     H80903   6.178   9.416   4.494 -1.6963  0.3371  0.3611
  613MOL0     H80904   6.614   9.210   4.688 -1.1416  0.2612 -1.2940
  613MOL0     H80905   6.828   9.090   4.674  1.6462  1.0133 -1.9581
  613MOL0     H80906   6.891   8.769   4.485 -1.1128 -0.4643 -0.1838
  613MOL0     H80907   6.815   8.874   4.605  0.8752  1.6337  0.9073
  613MOL0     H80908   7.037   8.921   4.722 -2.5216  0.6433 -0.8580
  613MOL0     H80909   7.000   8.753   4.690 -2.7249  0.1279 -1.4899
  613MOL0     H80910   7.177   8.956   4.546  0.9050 -1.4654 -2.5158
  613MOL0     H80911   7.171   8.795   4.479 -2.4202  1.6385 -1.3063
  613MOL0     H80912   7.361   8.832   4.616 -0.9659  0.4604 -2.9412
  613MOL0     H80913   7.264   8.835   4.772 -0.6153  0.5174  0.6596
  613MOL0     H80914   7.240   8.438   4.606  0.0334 -0.5598  0.2100
  613MOL0     H80915   6.765   9.030   4.261  0.0725 -0.6815 -0.6178
  613MOL0     H80916   6.575   9.183   4.255 -1.3125 -0.2144  1.1721
  614MOL0     O80917   9.413   0.342   9.796 -0.0282  0.3526  0.2565
  614MOL0     C80918   9.364   0.302   9.694  0.2800 -0.7760 -0.4343
  614MOL0     O80919   9.422   0.232   9.592 -0.3066 -0.0186 -0.6193
  614MOL0     C80920   9.556   0.216   9.605  0.3400 -0.1100  0.1602
  614MOL0     C80921   9.649   0.322   9.575  0.5369  1.0290 -0.3864
  614MOL0     C80922   9.782   0.291   9.591 -0.1768 -1.1426  0.2682
  614MOL0     C80923   9.833   0.177   9.634  1.1579 -0.7745 -0.4515
  614MOL0     O80924   9.964   0.151   9.613  0.3869  0.1274  0.4013
  614MOL0     C80925  10.029   0.109   9.730 -0.2147 -0.0137 -0.7513
  614MOL0     C80926  10.179   0.131   9.718  0.2505 -0.3370  0.3365
  614MOL0     C80927  10.224   0.015   9.619 -0.6947  0.0843 -0.0770
  614MOL0     C80928  10.365   0.034   9.568 -0.0553  0.5442  0.0879
  614MOL0     C80929  10.392  -0.077   9.461  0.5915  0.1461  0.3660
  614MOL0     C80930  10.556  -0.091   9.456  0.2606 -0.1764 -1.0981
  614MOL0     C80931  10.596  -0.193   9.348  0.4280 -0.8155  0.4207
  614MOL0     C80932  10.579  -0.121   9.203  0.4710  0.2862  0.3301
  614MOL0     N80933  10.704  -0.092   9.147 -0.6027 -0.0882 -0.1133
  614MOL0     C80934  10.793  -0.185   9.092 -0.7329 -0.4544  0.1537
  614MOL0     C80935  10.908  -0.111   9.078  0.3662  0.2335  0.3750
  614MOL0     C80936  11.034  -0.165   9.031  0.3245  0.4832 -0.0153
  614MOL0     C80937  11.042  -0.183   8.877  0.2154 -1.1428 -0.2807
  614MOL0     C80938  11.164  -0.263   8.837 -0.5856  0.1005 -0.1755
  614MOL0     C80939  11.135  -0.413   8.816  0.5466 -0.0108  0.3450
  614MOL0     O80940  11.244  -0.517   8.797  0.2605 -0.4831  0.2580
  614MOL0     C80941  11.223  -0.626   8.713 -0.6932  0.0543  1.0364
  614MOL0     C80942  11.109  -0.680   8.662  0.0724  0.1096  0.6963
  614MOL0     C80943  11.104  -0.777   8.565 -0.0327 -0.1688 -0.2811
  614MOL0     C80944  11.227  -0.836   8.524  0.3738 -0.5904 -0.4386
  614MOL0     C80945  11.236  -0.933   8.411 -0.6379 -0.0497 -0.3871
  614MOL0     O80946  11.361  -1.000   8.392 -0.1046  0.5148  0.1531
  614MOL0     C80947  11.383  -1.063   8.270  1.2995  0.4949 -0.7614
  614MOL0     C80948  11.321  -1.021   8.143 -0.1040 -0.2189 -0.7277
  614MOL0     C80949  11.385  -1.080   8.029  0.6876  0.1588  0.4137
  614MOL0     C80950  11.482  -1.185   8.036 -0.1122 -0.2067  0.3690
  614MOL0     O80951  11.557  -1.234   7.936  0.2690  0.0020  0.4902
  614MOL0     C80952  11.678  -1.159   7.920  0.9589  1.1817  0.5197
  614MOL0     C80953  11.743  -1.177   7.790  0.6439 -0.3372 -0.1014
  614MOL0     C80954  11.764  -1.323   7.748  0.0941  0.2555 -0.2636
  614MOL0     C80955  11.868  -1.326   7.638  0.0218  0.0807 -0.7911
  614MOL0     C80956  11.888  -1.479   7.600 -0.2931 -0.1258  0.1331
  614MOL0     C80957  12.009  -1.508   7.513 -0.3857 -0.1182 -0.1968
  614MOL0     C80958  12.031  -1.662   7.513 -0.6238 -0.1789 -0.9937
  614MOL0     C80959  12.160  -1.704   7.452  0.1710 -0.2408  0.1289
  614MOL0    Cl80960  12.189  -1.656   7.284  0.4839 -0.0997  0.4368
  614MOL0     C80961  11.501  -1.246   8.157  0.4302 -0.2249  0.0810
  614MOL0     C80962  11.469  -1.171   8.272 -0.5368 -0.4415  0.7064
  614MOL0     O80963  11.144  -0.950   8.340  0.0530 -0.2370 -0.6030
  614MOL0     C80964  11.345  -0.788   8.583  0.0961  0.0775 -0.0008
  614MOL0     C80965  11.345  -0.679   8.669  0.0077  0.3889 -0.1759
  614MOL0     N80966  10.870   0.024   9.100  0.4472 -0.2828 -0.3745
  614MOL0     N80967  10.754   0.034   9.142  0.0018 -0.6648 -0.3595
  614MOL0     C80968   9.739   0.071   9.660 -0.1758 -0.3705  0.9592
  614MOL0     C80969   9.604   0.093   9.654 -0.0770 -0.2903 -0.0192
  614MOL0     C80970   9.219   0.333   9.672 -0.0405  0.0153 -0.4758
  614MOL0     C80971   9.164   0.350   9.540 -0.9008  0.1715  0.0754
  614MOL0     C80972   9.031   0.361   9.525  1.0963  0.9529  0.1742
  614MOL0     C80973   8.935   0.355   9.628 -0.0364 -0.3706 -0.2562
  614MOL0     O80974   8.804   0.375   9.624 -0.6019 -0.0929 -0.3880
  614MOL0     C80975   8.757   0.476   9.535 -0.7093 -0.1856 -0.4362
  614MOL0     C80976   8.784   0.621   9.594 -0.0061 -0.1005 -0.1001
  614MOL0     C80977   8.937   0.675   9.592 -0.8072 -0.1339  0.3093
  614MOL0     C80978   8.942   0.829   9.601  0.4246 -0.5520  0.4135
  614MOL0     C80979   8.898   0.906   9.485  0.7490 -0.5733 -0.4427
  614MOL0     C80980   8.851   0.985   9.398  0.0818  0.5704  0.0334
  614MOL0     C80981   8.986   0.348   9.761 -0.9672 -0.0210  0.4764
  614MOL0     C80982   9.125   0.337   9.786  0.7486  0.2565 -0.1800
  614MOL0     H80983   9.623   0.424   9.549  2.1250  1.2578 -1.1743
  614MOL0     H80984   9.851   0.373   9.576 -0.1931 -1.1579  0.1090
  614MOL0     H80985  10.015   0.007   9.765 -1.2084  0.2334 -0.3897
  614MOL0     H80986   9.995   0.175   9.810  0.1055 -0.3133 -0.3688
  614MOL0     H80987  10.227   0.109   9.813  1.1901 -2.9134 -0.6432
  614MOL0     H80988  10.214   0.229   9.684  0.5136  0.1315  1.8871
  614MOL0     H80989  10.160   0.011   9.531  1.2885 -0.0583 -1.5862
  614MOL0     H80990  10.221  -0.082   9.669  2.0129 -0.7913 -1.4196
  614MOL0     H80991  10.378   0.135   9.528  0.4289  1.0671  1.5163
  614MOL0     H80992  10.432   0.020   9.653  0.7184 -1.2359 -0.7563
  614MOL0     H80993  10.346  -0.042   9.369  0.8130 -1.3394 -0.3400
  614MOL0     H80994  10.336  -0.165   9.493 -3.6161  2.2424 -0.5251
  614MOL0     H80995  10.584  -0.127   9.555  0.1637 -1.9231 -1.6701
  614MOL0     H80996  10.597   0.009   9.438  1.3907  0.7471  4.7877
  614MOL0     H80997  10.702  -0.219   9.363  0.8563  1.2862  1.3813
  614MOL0     H80998  10.524  -0.274   9.359 -2.6332  1.7395  0.4564
  614MOL0     H80999  10.514  -0.033   9.203  0.9250  0.8014 -3.1840
  614MOL0     H81000  10.537  -0.192   9.131  0.0564  3.0281 -2.3739
  614MOL0     H81001  10.812  -0.288   9.067  5.0168 -0.0991  1.7073
  614MOL0     H81002  11.040  -0.267   9.072  3.4129  0.8046  0.5987
  614MOL0     H81003  11.118  -0.105   9.066  0.1054 -1.2828  4.0718
  614MOL0     H81004  11.040  -0.088   8.823 -2.0986 -2.7836 -3.3761
  614MOL0     H81005  10.949  -0.229   8.841 -1.8678  0.9532  2.0934
  614MOL0     H81006  11.209  -0.238   8.741  2.0973  0.2500  1.0328
  614MOL0     H81007  11.238  -0.248   8.916 -2.8415 -0.2265  2.1348
  614MOL0     H81008  11.072  -0.420   8.727  1.2956 -0.3667 -0.1776
  614MOL0     H81009  11.084  -0.455   8.903  1.9055  0.0351  1.1981
  614MOL0     H81010  11.015  -0.645   8.704  0.8641 -1.0095  3.6433
  614MOL0     H81011  11.018  -0.789   8.500 -0.6866  2.5359 -0.0594
  614MOL0     H81012  11.247  -0.942   8.132  0.8067  0.4633 -2.2777
  614MOL0     H81013  11.368  -1.050   7.927 -0.2937 -1.8858 -0.0774
  614MOL0     H81014  11.748  -1.200   7.993  1.3897  1.7685  0.4404
  614MOL0     H81015  11.668  -1.055   7.951 -2.5566  1.1798 -0.1936
  614MOL0     H81016  11.838  -1.123   7.803 -0.3126  1.7892 -1.3280
  614MOL0     H81017  11.692  -1.124   7.709  2.2826  0.1655 -0.8453
  614MOL0     H81018  11.669  -1.364   7.713 -1.5078  3.5265 -0.0577
  614MOL0     H81019  11.806  -1.384   7.829 -2.0813 -4.3164 -2.2213
  614MOL0     H81020  11.828  -1.280   7.547  0.9519 -1.5288 -2.0697
  614MOL0     H81021  11.962  -1.280   7.669 -0.5352  0.1413  0.8819
  614MOL0     H81022  11.796  -1.515   7.553 -0.6205  0.9233 -0.0623
  614MOL0     H81023  11.887  -1.545   7.686  0.4358  0.8504  0.9091
  614MOL0     H81024  12.096  -1.450   7.544 -1.0294  1.8625 -1.8709
  614MOL0     H81025  11.989  -1.491   7.407  1.1261 -0.9270 -0.6444
  614MOL0     H81026  12.013  -1.702   7.613  1.1026 -1.4639 -1.1321
  614MOL0     H81027  11.963  -1.715   7.445  0.1426 -2.3998 -0.1274
  614MOL0     H81028  12.154  -1.814   7.451 -3.1831 -0.1670  0.1006
  614MOL0     H81029  12.245  -1.675   7.514  0.0961 -1.8633  1.0743
  614MOL0     H81030  11.559  -1.338   8.161  3.7350  1.5849 -1.8968
  614MOL0     H81031  11.497  -1.205   8.372  3.2146  0.0730 -0.0134
  614MOL0     H81032  11.444  -0.826   8.557 -0.1148 -2.4540  2.4977
  614MOL0     H81033  11.434  -0.628   8.702  0.7445 -0.3621 -0.9463
  614MOL0     H81034   9.769  -0.031   9.681  1.5682 -0.0516  0.2223
  614MOL0     H81035   9.553  -0.002   9.670  1.7534 -1.6079 -1.4951
  614MOL0     H81036   9.232   0.360   9.456  0.9448 -1.5424  1.2520
  614MOL0     H81037   9.007   0.357   9.419 -2.7811 -4.8180  0.8456
  614MOL0     H81038   8.650   0.460   9.520 -0.8914  0.5442  0.0309
  614MOL0     H81039   8.815   0.473   9.442 -0.2218  0.8600 -0.1776
  614MOL0     H81040   8.719   0.691   9.541 -0.4477  1.0200  1.7998
  614MOL0     H81041   8.735   0.619   9.692  2.4872  0.7536  1.2659
  614MOL0     H81042   8.979   0.646   9.495  1.1883  0.5978  0.9076
  614MOL0     H81043   8.997   0.629   9.671  0.8964  2.2144  0.4720
  614MOL0     H81044   8.872   0.854   9.681  0.6846 -1.1242  0.8240
  614MOL0     H81045   9.046   0.861   9.615  0.6756 -0.9127 -0.5471
  614MOL0     H81046   8.822   1.058   9.326 -1.7170  0.1723  0.3011
  614MOL0     H81047   8.912   0.342   9.841  0.9306 -1.1561  2.2344
  614MOL0     H81048   9.168   0.329   9.885  2.2702 -0.1236 -0.8433
  615MOL0     O81049  11.124   4.624   2.807  0.4299 -0.7138  0.7680
  615MOL0     C81050  11.088   4.605   2.914  1.1502 -0.2122 -1.1652
  615MOL0     O81051  10.959   4.587   2.951 -0.0263  0.5783 -0.2513
  615MOL0     C81052  10.865   4.638   2.855  0.2370  0.5271 -0.3841
  615MOL0     C81053  10.766   4.727   2.885 -0.0531  0.4340  0.5462
  615MOL0     C81054  10.668   4.773   2.793 -0.3404 -0.3319 -0.0866
  615MOL0     C81055  10.669   4.732   2.662  0.8967 -0.1247  0.1122
  615MOL0     O81056  10.579   4.784   2.563  0.3108  0.9237 -0.5192
  615MOL0     C81057  10.445   4.795   2.601  0.0354 -0.2051 -0.2671
  615MOL0     C81058  10.377   4.662   2.600 -0.0774  0.9965 -0.6197
  615MOL0     C81059  10.235   4.660   2.632 -0.5754  0.1369 -0.0408
  615MOL0     C81060  10.154   4.539   2.582 -0.0952  0.0222 -0.9601
  615MOL0     C81061  10.023   4.510   2.664 -0.5458  0.1963 -0.4023
  615MOL0     C81062   9.887   4.543   2.580 -0.2240 -0.4641 -0.2962
  615MOL0     C81063   9.873   4.690   2.593  0.6828  0.4057  0.6384
  615MOL0     C81064   9.731   4.730   2.555 -0.4765 -0.6809  0.2133
  615MOL0     N81065   9.717   4.858   2.479  0.1498  0.8533  0.6210
  615MOL0     C81066   9.797   4.906   2.378  0.0117  0.4462 -0.5578
  615MOL0     C81067   9.725   5.010   2.332 -0.4940 -0.1486 -0.8978
  615MOL0     C81068   9.752   5.074   2.198 -0.4430 -0.6738 -0.3922
  615MOL0     C81069   9.903   5.121   2.200 -0.2229  0.5434  0.7779
  615MOL0     C81070   9.905   5.246   2.292  0.2078  0.4816  0.2527
  615MOL0     C81071  10.062   5.285   2.290  0.9563  0.5149  0.0983
  615MOL0     O81072  10.157   5.195   2.358 -0.1716 -0.4354 -0.1567
  615MOL0     C81073  10.161   5.211   2.499  0.4839  0.6584 -0.1088
  615MOL0     C81074  10.155   5.330   2.572  0.6302 -0.5175 -0.5551
  615MOL0     C81075  10.172   5.339   2.708  0.7355 -0.7151 -0.1223
  615MOL0     C81076  10.205   5.225   2.785  0.2487 -0.7516 -0.1441
  615MOL0     C81077  10.237   5.227   2.925 -0.3176  0.0176 -0.4804
  615MOL0     O81078  10.163   5.132   2.995  0.7927  0.2122  0.3281
  615MOL0     C81079  10.157   5.153   3.127 -0.3375  0.2155 -0.3453
  615MOL0     C81080  10.035   5.186   3.177 -0.3205 -0.1173 -0.4572
  615MOL0     C81081  10.020   5.196   3.319  0.6378  0.2599  0.2529
  615MOL0     C81082  10.126   5.183   3.410 -0.8856  0.7828  0.6987
  615MOL0     O81083  10.113   5.199   3.540 -0.4276  0.2106 -0.4521
  615MOL0     C81084   9.989   5.170   3.611  0.1375 -0.4549  0.2751
  615MOL0     C81085  10.023   5.155   3.764  0.3377  1.5677  0.0438
  615MOL0     C81086  10.005   5.294   3.835 -0.9559  0.4494  0.0265
  615MOL0     C81087  10.084   5.307   3.970 -0.4372  0.4467 -0.2723
  615MOL0     C81088  10.033   5.435   4.046 -0.1984  0.4074 -0.9927
  615MOL0     C81089  10.114   5.467   4.165 -0.6411 -0.0586 -0.5614
  615MOL0     C81090  10.196   5.599   4.164 -0.2916  0.1457 -0.1313
  615MOL0     C81091  10.312   5.586   4.264 -0.3121 -0.6157  0.6166
  615MOL0    Cl81092  10.275   5.630   4.433 -0.3696  0.0598  0.3380
  615MOL0     C81093  10.248   5.149   3.355  0.4979 -0.7386 -0.2470
  615MOL0     C81094  10.265   5.143   3.219 -1.0537 -0.2922 -0.6362
  615MOL0     O81095  10.300   5.319   2.979  0.5469  0.5029 -0.5625
  615MOL0     C81096  10.190   5.096   2.718  0.3272 -0.8234  0.0259
  615MOL0     C81097  10.179   5.099   2.578 -0.4589  0.3066  0.2355
  615MOL0     N81098   9.625   5.037   2.427  0.2538 -0.7745  0.5759
  615MOL0     N81099   9.618   4.942   2.503  0.1739  0.9901 -0.7722
  615MOL0     C81100  10.763   4.634   2.623 -0.4576 -0.6930 -0.3270
  615MOL0     C81101  10.850   4.579   2.721  0.1164 -0.4606  0.2411
  615MOL0     C81102  11.193   4.583   3.026 -1.0359 -0.4713 -1.2653
  615MOL0     C81103  11.154   4.532   3.149 -1.2022 -0.0544  0.7252
  615MOL0     C81104  11.252   4.489   3.238 -0.5496 -0.5137 -0.5649
  615MOL0     C81105  11.389   4.527   3.223 -0.6812  0.4008  1.6661
  615MOL0     O81106  11.484   4.476   3.304  0.1023 -0.4107  0.0661
  615MOL0     C81107  11.473   4.341   3.348  0.5856  0.0348 -0.4471
  615MOL0     C81108  11.464   4.236   3.235  0.3213  0.0518  0.1396
  615MOL0     C81109  11.469   4.090   3.294  0.8028 -0.2897  1.2474
  615MOL0     C81110  11.611   4.040   3.336  0.3573 -0.1140 -0.2454
  615MOL0     C81111  11.621   3.889   3.340 -0.0394  0.7938 -0.9320
  615MOL0     C81112  11.622   3.765   3.371 -0.4217  0.1015 -0.3200
  615MOL0     C81113  11.420   4.600   3.109  0.2415  0.0383  0.0427
  615MOL0     C81114  11.331   4.626   3.008  0.8251  0.0238 -0.4182
  615MOL0     H81115  10.774   4.769   2.984  1.9766 -1.7292  1.3892
  615MOL0     H81116  10.589   4.843   2.819  0.3103  1.0989 -1.7582
  615MOL0     H81117  10.392   4.853   2.525 -2.5589 -1.6985  0.2640
  615MOL0     H81118  10.425   4.850   2.694  3.0180 -0.1394  0.4281
  615MOL0     H81119  10.425   4.598   2.674 -0.1864  2.3091  0.6319
  615MOL0     H81120  10.390   4.611   2.504 -2.1528  1.4428 -1.1902
  615MOL0     H81121  10.191   4.748   2.585  1.1293  3.3723  3.7947
  615MOL0     H81122  10.217   4.675   2.739  2.5358  1.3524  0.4047
  615MOL0     H81123  10.134   4.555   2.476 -1.3084  0.0997 -0.7286
  615MOL0     H81124  10.218   4.453   2.606 -0.1286  0.1734 -0.2972
  615MOL0     H81125  10.017   4.561   2.761  1.7167  2.4829 -1.3601
  615MOL0     H81126  10.018   4.401   2.675 -1.7806  0.0530 -2.0492
  615MOL0     H81127   9.801   4.499   2.631 -0.8727 -0.9650 -1.7905
  615MOL0     H81128   9.885   4.503   2.479 -0.6398  2.5180 -1.5806
  615MOL0     H81129   9.897   4.721   2.695 -0.6536  2.4057  0.3954
  615MOL0     H81130   9.941   4.742   2.525 -1.5262  1.5927 -0.8029
  615MOL0     H81131   9.671   4.732   2.646 -0.1181 -1.9287  0.4935
  615MOL0     H81132   9.692   4.653   2.487 -2.1282  1.2129 -1.1057
  615MOL0     H81133   9.884   4.856   2.338 -0.3523 -1.9236  1.3723
  615MOL0     H81134   9.676   5.151   2.183  1.3271  1.0639 -0.9398
  615MOL0     H81135   9.743   4.996   2.122  0.4278  0.2138 -1.4331
  615MOL0     H81136   9.923   5.154   2.098 -0.4202  3.2073  1.5236
  615MOL0     H81137   9.976   5.044   2.229 -1.1525 -0.8963 -0.5467
  615MOL0     H81138   9.849   5.324   2.238 -2.0976 -1.5279 -0.4316
  615MOL0     H81139   9.865   5.230   2.392  0.7335 -1.2924  0.2127
  615MOL0     H81140  10.076   5.379   2.344  1.8911 -0.9462  2.5436
  615MOL0     H81141  10.102   5.290   2.188  0.3001  2.8437 -0.1099
  615MOL0     H81142  10.141   5.425   2.523 -1.5559 -0.6435 -0.2863
  615MOL0     H81143  10.167   5.440   2.746  0.8634 -0.7228 -0.0827
  615MOL0     H81144   9.951   5.184   3.109 -2.8572 -0.2286  2.4300
  615MOL0     H81145   9.923   5.218   3.364  0.8597  0.1551  0.8000
  615MOL0     H81146   9.940   5.081   3.571 -2.8615  0.5806  1.3436
  615MOL0     H81147   9.912   5.248   3.607  0.2192 -0.4222 -1.2469
  615MOL0     H81148  10.126   5.123   3.777  1.1070  3.9214  0.2380
  615MOL0     H81149   9.956   5.084   3.813  2.1164 -0.8984 -0.9064
  615MOL0     H81150   9.902   5.329   3.844 -0.9895  1.2518 -2.6433
  615MOL0     H81151  10.047   5.372   3.772 -3.1712  1.3455 -0.4391
  615MOL0     H81152  10.073   5.216   4.028  1.2418 -0.8958 -1.9256
  615MOL0     H81153  10.192   5.316   3.950 -0.7397  2.2635 -1.3487
  615MOL0     H81154   9.934   5.407   4.084  0.3984 -3.4351 -1.8674
  615MOL0     H81155  10.025   5.518   3.975 -0.1747  0.1424 -1.3058
  615MOL0     H81156  10.176   5.379   4.183  0.6324  0.7289 -1.0276
  615MOL0     H81157  10.062   5.478   4.261  2.7883 -0.1355  1.4726
  615MOL0     H81158  10.248   5.616   4.069  0.5105  2.2083  0.6203
  615MOL0     H81159  10.133   5.685   4.185 -1.0795 -0.2301 -0.8932
  615MOL0     H81160  10.399   5.644   4.231  0.6878 -0.5331  3.1493
  615MOL0     H81161  10.347   5.482   4.262 -3.3178 -1.7252 -0.6384
  615MOL0     H81162  10.324   5.137   3.431 -1.4050 -0.5855  1.7729
  615MOL0     H81163  10.367   5.126   3.185 -1.9466 -1.8119 -2.7875
  615MOL0     H81164  10.215   5.005   2.771 -1.3075 -1.6058 -0.4812
  615MOL0     H81165  10.187   5.003   2.529  1.3640  0.6401 -0.1947
  615MOL0     H81166  10.752   4.607   2.518 -0.0032 -1.8466 -0.0881
  615MOL0     H81167  10.920   4.500   2.697  1.0346 -0.1015  1.6171
  615MOL0     H81168  11.047   4.524   3.167 -2.0005  1.4248 -2.5609
  615MOL0     H81169  11.214   4.435   3.325  2.5484 -0.6969  0.8049
  615MOL0     H81170  11.387   4.335   3.415 -0.4310 -1.1139 -1.7908
  615MOL0     H81171  11.559   4.323   3.413 -1.1241 -0.4915  1.7837
  615MOL0     H81172  11.365   4.243   3.191  0.3307  0.8657  0.2305
  615MOL0     H81173  11.529   4.264   3.151 -1.7544  1.9038 -0.9643
  615MOL0     H81174  11.434   4.033   3.207  2.5343  1.8313 -0.9877
  615MOL0     H81175  11.389   4.091   3.369 -2.1553 -2.9722 -1.5545
  615MOL0     H81176  11.684   4.063   3.258  0.0201  1.0816 -0.2246
  615MOL0     H81177  11.655   4.071   3.431 -0.1463 -0.4273  0.0927
  615MOL0     H81178  11.627   3.658   3.375 -2.5252 -0.0074  0.8012
  615MOL0     H81179  11.525   4.620   3.092 -0.0275  0.0164 -1.9064
  615MOL0     H81180  11.359   4.686   2.922 -1.7576  1.4425 -0.3448
  616MOL0     O81181   5.640   8.105  10.769 -0.5786  0.4702  0.4761
  616MOL0     C81182   5.583   8.017  10.832  0.0463  0.4116 -0.5156
  616MOL0     O81183   5.610   7.982  10.960 -0.4433  1.2394  0.6430
  616MOL0     C81184   5.684   8.060  11.043 -0.3507  0.0040  0.1229
  616MOL0     C81185   5.767   7.985  11.127  0.3408  0.2807  1.2462
  616MOL0     C81186   5.853   8.053  11.212 -0.5822  0.0073  1.0167
  616MOL0     C81187   5.860   8.196  11.213 -0.1510 -0.2665  0.2887
  616MOL0     O81188   5.952   8.256  11.295 -0.1209 -0.0791  0.0977
  616MOL0     C81189   5.967   8.403  11.284 -0.2506 -0.8167 -0.6679
  616MOL0     C81190   6.081   8.463  11.357  0.3426  0.3148  1.1928
  616MOL0     C81191   6.055   8.467  11.511  0.7766  0.2070  0.8239
  616MOL0     C81192   6.197   8.493  11.574  0.1997  0.2857  0.0365
  616MOL0     C81193   6.178   8.516  11.726  0.4978 -0.5985 -0.3137
  616MOL0     C81194   6.315   8.480  11.786 -0.0672  0.9172 -0.0844
  616MOL0     C81195   6.321   8.512  11.945 -0.3668  1.0926  0.1881
  616MOL0     C81196   6.467   8.522  11.989  0.0595 -0.1977 -0.1062
  616MOL0     N81197   6.514   8.649  11.938  0.8871 -0.7889  0.3879
  616MOL0     C81198   6.576   8.670  11.819  0.9816 -0.1147 -0.1758
  616MOL0     C81199   6.638   8.784  11.823 -0.2003 -0.1590  0.2722
  616MOL0     C81200   6.741   8.853  11.727 -0.1107  0.4578  0.5964
  616MOL0     C81201   6.681   8.873  11.591 -0.5881 -0.2877  0.1624
  616MOL0     C81202   6.654   8.743  11.499  0.0853 -0.6756 -0.6322
  616MOL0     C81203   6.656   8.778  11.355 -0.4449 -0.7264 -0.0019
  616MOL0     O81204   6.527   8.828  11.322 -0.0075 -0.2267 -0.0368
  616MOL0     C81205   6.442   8.737  11.259  0.2157  0.2436  0.8694
  616MOL0     C81206   6.455   8.604  11.267  0.4073  0.4236  0.3427
  616MOL0     C81207   6.389   8.510  11.181  0.2708  0.6909  0.7984
  616MOL0     C81208   6.298   8.559  11.086 -0.8510 -0.3337  0.2752
  616MOL0     C81209   6.231   8.473  10.985 -0.1788 -0.3852  0.1051
  616MOL0     O81210   6.276   8.347  10.977 -0.1045  1.0203  0.5149
  616MOL0     C81211   6.227   8.271  10.876 -0.0763 -1.0495 -0.2386
  616MOL0     C81212   6.291   8.245  10.755  0.2900  0.3233  0.9332
  616MOL0     C81213   6.225   8.169  10.653  0.0290 -1.1117 -0.0680
  616MOL0     C81214   6.093   8.124  10.680 -0.3754 -0.1402 -0.0363
  616MOL0     O81215   6.041   8.044  10.582  0.0503  0.4654 -0.3254
  616MOL0     C81216   5.991   7.924  10.638 -0.1765  0.0862 -0.0200
  616MOL0     C81217   6.100   7.836  10.701 -0.3631  0.8230  0.4237
  616MOL0     C81218   6.045   7.705  10.770  0.4340  0.2070  0.2738
  616MOL0     C81219   5.952   7.628  10.676 -0.3938  0.6217 -0.4087
  616MOL0     C81220   5.926   7.478  10.719  0.4284  0.6700 -0.1345
  616MOL0     C81221   6.049   7.385  10.699 -0.1272 -0.3949  0.6735
  616MOL0     C81222   6.040   7.257  10.783  0.9509  0.4879  0.3726
  616MOL0     C81223   5.916   7.159  10.750  0.2996  0.1035 -0.2763
  616MOL0    Cl81224   5.926   7.121  10.579  0.1053  0.2799  0.3687
  616MOL0     C81225   6.034   8.146  10.805  0.2131 -0.4381  1.0754
  616MOL0     C81226   6.102   8.212  10.900  0.0469  0.6788 -0.1588
  616MOL0     O81227   6.149   8.528  10.913  0.1461  0.5919 -0.5068
  616MOL0     C81228   6.274   8.698  11.082 -0.1270 -0.1505  1.0725
  616MOL0     C81229   6.349   8.783  11.167  0.2911 -0.2124  0.6246
  616MOL0     N81230   6.616   8.833  11.949 -0.1803  0.7921  0.2217
  616MOL0     N81231   6.550   8.749  12.021 -0.1558  0.2210  1.1770
  616MOL0     C81232   5.779   8.271  11.124  0.0330  0.2886 -0.5221
  616MOL0     C81233   5.686   8.202  11.040 -0.5813  0.4040  0.5328
  616MOL0     C81234   5.484   7.927  10.767  0.3895 -0.5322  0.4589
  616MOL0     C81235   5.407   7.833  10.836  0.6085  0.3540  0.1589
  616MOL0     C81236   5.314   7.745  10.772 -0.6290 -0.0648  0.0340
  616MOL0     C81237   5.318   7.739  10.638 -0.0889 -0.3154 -0.0988
  616MOL0     O81238   5.245   7.633  10.576  0.1063  0.2263  0.4040
  616MOL0     C81239   5.248   7.608  10.436 -0.7021 -0.0495  0.0559
  616MOL0     C81240   5.224   7.457  10.407  0.7748  0.0065 -0.3601
  616MOL0     C81241   5.087   7.411  10.430  0.5829  0.0819 -0.3686
  616MOL0     C81242   4.991   7.478  10.328  0.8869  0.5777  1.1387
  616MOL0     C81243   4.855   7.429  10.362  0.2000 -0.2249 -0.6271
  616MOL0     C81244   4.733   7.405  10.376 -0.9290  0.5329 -0.3578
  616MOL0     C81245   5.392   7.835  10.559 -0.6617 -0.6820  0.4728
  616MOL0     C81246   5.478   7.925  10.627  0.0040 -0.8670 -0.3359
  616MOL0     H81247   5.755   7.877  11.128 -0.0434  0.3168  2.1972
  616MOL0     H81248   5.916   8.002  11.284 -1.5382 -1.0540  1.1364
  616MOL0     H81249   5.875   8.452  11.317  1.1897  2.9787 -1.7389
  616MOL0     H81250   5.987   8.420  11.178  0.4408 -2.0848 -0.7646
  616MOL0     H81251   6.100   8.568  11.333  2.4025 -0.0245  1.1741
  616MOL0     H81252   6.172   8.408  11.331 -0.4752 -0.6698  0.3089
  616MOL0     H81253   6.008   8.381  11.558  0.5630 -0.5683 -0.7517
  616MOL0     H81254   5.987   8.551  11.526  0.4653  0.4079 -1.4128
  616MOL0     H81255   6.265   8.413  11.544 -0.3743  0.4236 -1.6943
  616MOL0     H81256   6.239   8.582  11.527  1.2025  0.6683  1.5746
  616MOL0     H81257   6.094   8.461  11.769  0.0216  0.5229  0.2121
  616MOL0     H81258   6.154   8.621  11.744 -1.5347 -0.8140 -1.4969
  616MOL0     H81259   6.390   8.520  11.717 -1.8102  3.3761 -0.6756
  616MOL0     H81260   6.327   8.371  11.781 -3.5961  0.4767 -2.5184
  616MOL0     H81261   6.263   8.601  11.969 -1.4409  0.8650 -1.4243
  616MOL0     H81262   6.276   8.427  11.996  0.4321  1.1546  1.0303
  616MOL0     H81263   6.528   8.439  11.952 -0.4765  0.0209 -1.5304
  616MOL0     H81264   6.481   8.518  12.097  4.2179 -0.6246 -0.5023
  616MOL0     H81265   6.584   8.595  11.740  0.9668  1.4318 -1.7079
  616MOL0     H81266   6.831   8.792  11.721  1.3107  2.5082 -0.0822
  616MOL0     H81267   6.768   8.948  11.775  2.2010 -0.5827  1.4627
  616MOL0     H81268   6.729   8.951  11.532 -0.0268 -0.6127  0.1875
  616MOL0     H81269   6.579   8.906  11.614  0.0516 -0.0374  2.9714
  616MOL0     H81270   6.737   8.675  11.516  2.4758  1.2778 -3.5283
  616MOL0     H81271   6.558   8.704  11.535 -0.6415  3.1635  2.3143
  616MOL0     H81272   6.684   8.694  11.291  0.5499 -0.9122  0.6549
  616MOL0     H81273   6.738   8.841  11.318 -0.2445 -0.9450  0.0648
  616MOL0     H81274   6.511   8.561  11.350 -2.2777 -0.6509  1.7307
  616MOL0     H81275   6.407   8.403  11.181  1.3696  0.7580 -2.8044
  616MOL0     H81276   6.396   8.271  10.747  0.0082  1.1595 -0.3978
  616MOL0     H81277   6.268   8.135  10.559  0.0459 -1.4214  0.0507
  616MOL0     H81278   5.948   7.864  10.557  1.1804 -2.1211  0.8145
  616MOL0     H81279   5.906   7.944  10.705 -1.5395  0.1344 -1.6851
  616MOL0     H81280   6.151   7.892  10.781  0.8376 -1.5019  1.3695
  616MOL0     H81281   6.175   7.805  10.628 -0.8248 -1.2000  0.7630
  616MOL0     H81282   5.990   7.719  10.863 -3.7556 -2.4067 -1.5321
  616MOL0     H81283   6.134   7.645  10.792  0.1169 -0.5479 -0.4677
  616MOL0     H81284   5.859   7.681  10.652 -1.7923 -2.5943 -2.7592
  616MOL0     H81285   6.010   7.629  10.584 -0.7873  0.7566 -0.6551
  616MOL0     H81286   5.841   7.432  10.667  1.3582  2.1182 -3.1610
  616MOL0     H81287   5.887   7.471  10.821 -1.9604 -2.6381 -1.1241
  616MOL0     H81288   6.143   7.432  10.730 -1.6935  2.1361  1.9972
  616MOL0     H81289   6.062   7.369  10.592  3.0955  0.4592  0.8172
  616MOL0     H81290   6.117   7.184  10.756  2.7329  1.1705  3.1936
  616MOL0     H81291   6.042   7.282  10.889  2.3059  4.0471 -0.3526
  616MOL0     H81292   5.820   7.208  10.770  0.3864  0.6407 -1.1206
  616MOL0     H81293   5.935   7.072  10.813  2.4023  0.6051 -0.1631
  616MOL0     H81294   5.933   8.115  10.833  1.0057 -2.6658  1.6666
  616MOL0     H81295   6.056   8.235  10.995 -2.1039 -1.5524 -0.5772
  616MOL0     H81296   6.202   8.750  11.020  1.7355 -0.5540 -1.6010
  616MOL0     H81297   6.320   8.886  11.151  1.2273  0.0168  0.3474
  616MOL0     H81298   5.769   8.379  11.115  2.2798  0.3257 -5.0281
  616MOL0     H81299   5.610   8.261  10.989  2.6174  2.1824 -2.6701
  616MOL0     H81300   5.406   7.838  10.944  1.5966 -0.3481  0.2120
  616MOL0     H81301   5.253   7.679  10.833  1.1778 -0.5566  1.4155
  616MOL0     H81302   5.342   7.646  10.394 -0.4380 -0.7129  0.0274
  616MOL0     H81303   5.177   7.676  10.389  1.3695  1.4288 -1.0752
  616MOL0     H81304   5.241   7.435  10.301 -2.0528  0.9983 -1.1091
  616MOL0     H81305   5.292   7.403  10.474  1.0989 -0.7352 -1.2711
  616MOL0     H81306   5.050   7.439  10.529  1.0975 -0.7882  0.0857
  616MOL0     H81307   5.087   7.302  10.413  1.9208  0.0429 -0.2452
  616MOL0     H81308   4.984   7.586  10.343  0.9763  1.0435 -1.7802
  616MOL0     H81309   5.015   7.456  10.224  0.1084  0.8402  0.9035
  616MOL0     H81310   4.629   7.381  10.382 -0.6550 -0.5148  4.2814
  616MOL0     H81311   5.401   7.833  10.451  1.6070 -2.8813  0.5893
  616MOL0     H81312   5.537   7.996  10.570  1.8443  1.6364  4.0939
  617MOL0     O81313   8.181   7.192   9.322 -0.5638  0.4844 -0.5296
  617MOL0     C81314   8.107   7.295   9.314 -0.2137 -0.0247 -0.5843
  617MOL0     O81315   8.018   7.325   9.216 -0.5240  0.2443 -0.1419
  617MOL0     C81316   8.002   7.249   9.102 -0.3179 -1.0066 -0.2102
  617MOL0     C81317   7.874   7.207   9.072  0.8441  0.0713  0.5875
  617MOL0     C81318   7.854   7.125   8.961  0.2982  0.9755  0.2623
  617MOL0     C81319   7.950   7.073   8.876  0.0490 -1.6232 -1.2789
  617MOL0     O81320   7.913   6.993   8.772 -0.0365 -0.5217 -0.5849
  617MOL0     C81321   8.010   6.972   8.665 -0.3366 -0.8399  0.0645
  617MOL0     C81322   7.962   6.869   8.554 -0.1911  0.2064  0.6652
  617MOL0     C81323   7.938   6.725   8.602  1.1166  0.0828  0.0292
  617MOL0     C81324   7.890   6.639   8.481  0.0310 -0.7651  0.0705
  617MOL0     C81325   8.004   6.576   8.389  0.6300 -0.1146 -0.4097
  617MOL0     C81326   8.100   6.483   8.471 -0.1468  0.7249 -0.2724
  617MOL0     C81327   8.246   6.527   8.451  0.2399  0.7863  0.3476
  617MOL0     C81328   8.340   6.406   8.481 -1.0007  0.4065 -0.9084
  617MOL0     N81329   8.295   6.339   8.616  1.0069 -0.6732  0.4403
  617MOL0     C81330   8.203   6.248   8.650 -0.6115 -0.9725 -0.2272
  617MOL0     C81331   8.196   6.251   8.785 -0.0662  0.4610  0.1827
  617MOL0     C81332   8.114   6.154   8.869 -0.0609  0.0078 -0.1804
  617MOL0     C81333   8.040   6.222   8.992 -0.3006  0.5723 -0.6542
  617MOL0     C81334   7.983   6.109   9.080  0.6372 -0.1813  0.1291
  617MOL0     C81335   7.941   6.160   9.225  0.3862  0.3914 -0.3746
  617MOL0     O81336   7.963   6.075   9.338 -0.2750 -0.1065  0.7210
  617MOL0     C81337   7.935   5.937   9.325 -0.2837 -0.9639 -0.5815
  617MOL0     C81338   8.038   5.862   9.379  0.3055 -0.0906 -0.0520
  617MOL0     C81339   8.018   5.726   9.397 -0.2047  1.3675  0.6604
  617MOL0     C81340   7.901   5.668   9.366  0.6074 -0.1998  0.4955
  617MOL0     C81341   7.889   5.524   9.391  0.5206  0.9850  0.9262
  617MOL0     O81342   7.993   5.450   9.338  0.1423 -0.3325  0.2096
  617MOL0     C81343   7.969   5.317   9.337 -0.4090  0.5929 -0.2423
  617MOL0     C81344   8.052   5.233   9.406  0.6607  0.1473  0.4763
  617MOL0     C81345   8.044   5.098   9.401  0.2602 -0.1079  0.7500
  617MOL0     C81346   7.945   5.029   9.326 -0.1077  0.0697  0.1378
  617MOL0     O81347   7.934   4.895   9.330 -0.5796 -0.0456  0.2200
  617MOL0     C81348   7.797   4.835   9.320  0.1382 -1.0045 -0.9205
  617MOL0     C81349   7.776   4.698   9.363 -0.2235 -0.2113 -0.1165
  617MOL0     C81350   7.834   4.654   9.502  0.0680  0.2833 -0.7335
  617MOL0     C81351   7.831   4.508   9.519  0.8720  0.2132  0.3183
  617MOL0     C81352   7.856   4.471   9.666  0.3835 -0.8338 -0.9355
  617MOL0     C81353   7.860   4.321   9.700  0.1412 -1.3760 -0.1458
  617MOL0     C81354   7.730   4.252   9.677  0.3207  0.0488 -0.3048
  617MOL0     C81355   7.731   4.114   9.739  0.2183  0.1842 -0.3449
  617MOL0    Cl81356   7.721   4.132   9.929 -0.2022 -0.0105  0.0131
  617MOL0     C81357   7.852   5.113   9.259 -0.0425  0.1378 -1.1574
  617MOL0     C81358   7.871   5.251   9.254  0.3966 -0.7388 -1.0052
  617MOL0     O81359   7.778   5.477   9.436 -0.1668  1.0116 -0.4682
  617MOL0     C81360   7.795   5.744   9.313 -0.3997  0.5106  0.9811
  617MOL0     C81361   7.813   5.878   9.295  0.9111 -1.0476 -0.2128
  617MOL0     N81362   8.287   6.341   8.834  0.0377 -1.4170 -0.6030
  617MOL0     N81363   8.357   6.379   8.733 -0.8730  0.4105 -1.2518
  617MOL0     C81364   8.083   7.119   8.907  0.7659 -0.1409 -0.4273
  617MOL0     C81365   8.104   7.214   9.016 -0.4886  0.0268 -0.5464
  617MOL0     C81366   8.132   7.399   9.421  0.3016 -0.2693  0.2655
  617MOL0     C81367   8.060   7.519   9.412 -0.8979 -1.0848 -0.3600
  617MOL0     C81368   8.084   7.628   9.504  0.0081 -0.0624 -0.5152
  617MOL0     C81369   8.192   7.614   9.589  0.8628  0.1642  0.0241
  617MOL0     O81370   8.244   7.707   9.674 -0.8748 -0.2469 -0.3253
  617MOL0     C81371   8.229   7.851   9.651  0.6120  0.0589  0.5383
  617MOL0     C81372   8.279   7.889   9.508  0.1358 -0.8967 -0.0407
  617MOL0     C81373   8.433   7.892   9.486  0.1349 -0.6942  0.4680
  617MOL0     C81374   8.470   7.966   9.355  0.3386 -0.3407 -1.3108
  617MOL0     C81375   8.442   8.110   9.362  1.1519 -0.4885  0.5944
  617MOL0     C81376   8.403   8.229   9.357 -0.1083  0.1451  0.4126
  617MOL0     C81377   8.251   7.495   9.596 -0.0842  0.9907  0.2784
  617MOL0     C81378   8.221   7.374   9.523  1.0379 -0.6524 -0.3000
  617MOL0     H81379   7.789   7.259   9.115  2.0290  2.0702  0.6376
  617MOL0     H81380   7.766   7.071   8.928  1.1521 -0.6074  0.4844
  617MOL0     H81381   8.105   6.934   8.705 -1.2536 -1.7811  1.4890
  617MOL0     H81382   8.023   7.072   8.623  0.6813 -2.2639 -3.3010
  617MOL0     H81383   8.038   6.866   8.475  1.2239  2.5920  1.8311
  617MOL0     H81384   7.873   6.906   8.503 -0.3819 -1.7749 -0.5557
  617MOL0     H81385   7.853   6.738   8.670  1.5660  1.9010  0.2953
  617MOL0     H81386   8.020   6.678   8.658  0.4752  2.6814  3.4747
  617MOL0     H81387   7.836   6.558   8.530 -0.8590 -1.3507 -1.7705
  617MOL0     H81388   7.816   6.684   8.414  0.7530 -1.6643 -1.3861
  617MOL0     H81389   8.068   6.658   8.357  0.1639  0.6753  0.6313
  617MOL0     H81390   7.972   6.526   8.297  1.5447  1.2754 -1.5265
  617MOL0     H81391   8.097   6.376   8.449  1.9692  0.0949  2.1292
  617MOL0     H81392   8.077   6.490   8.577 -0.0522  0.2416 -0.2173
  617MOL0     H81393   8.260   6.559   8.347  0.1768  0.7464  0.3262
  617MOL0     H81394   8.258   6.610   8.522  2.4516  1.2946 -0.5395
  617MOL0     H81395   8.440   6.449   8.490 -1.5372  1.7173 -0.9077
  617MOL0     H81396   8.333   6.349   8.388  0.0104  0.3082 -0.9340
  617MOL0     H81397   8.166   6.176   8.578  1.0373 -1.8465 -0.2504
  617MOL0     H81398   8.182   6.076   8.904  2.0422  1.0244 -1.7658
  617MOL0     H81399   8.027   6.114   8.816 -0.4507  3.8273 -2.8855
  617MOL0     H81400   7.962   6.289   8.953 -2.3496 -0.9217  0.6307
  617MOL0     H81401   8.107   6.284   9.052 -3.1434  2.0267  1.2652
  617MOL0     H81402   7.895   6.072   9.027  0.5475  0.8477 -0.4796
  617MOL0     H81403   8.067   6.040   9.090  1.7291  0.9842 -0.6015
  617MOL0     H81404   7.834   6.181   9.222  0.1177 -0.9374 -0.9491
  617MOL0     H81405   8.007   6.246   9.233  3.7146 -1.9924 -0.0376
  617MOL0     H81406   8.132   5.905   9.412  0.4081  0.6924 -1.3247
  617MOL0     H81407   8.103   5.679   9.445 -0.7587 -0.1361  0.2232
  617MOL0     H81408   8.132   5.281   9.463  2.1630 -2.0574  0.3560
  617MOL0     H81409   8.107   5.043   9.470  1.5418  4.2518  3.4459
  617MOL0     H81410   7.751   4.836   9.221 -3.7107 -0.4959  0.6666
  617MOL0     H81411   7.732   4.892   9.387 -0.4535 -3.7863  1.0593
  617MOL0     H81412   7.837   4.636   9.295  0.3772  1.8058 -1.5124
  617MOL0     H81413   7.668   4.688   9.357 -0.6465  2.6949  1.2240
  617MOL0     H81414   7.782   4.706   9.583 -1.0282 -2.0292  0.1549
  617MOL0     H81415   7.940   4.679   9.504 -0.2213  1.6223 -1.1835
  617MOL0     H81416   7.733   4.467   9.494  1.3729  0.2474 -1.9781
  617MOL0     H81417   7.909   4.466   9.455  1.7146  1.5132  0.4510
  617MOL0     H81418   7.772   4.520   9.717  1.9158  0.9321  0.0207
  617MOL0     H81419   7.950   4.517   9.696 -1.1250  3.8566 -2.5992
  617MOL0     H81420   7.878   4.321   9.808  1.8353  3.2160 -0.1929
  617MOL0     H81421   7.940   4.264   9.651  2.4175  0.8038  0.8063
  617MOL0     H81422   7.657   4.313   9.733  0.3275 -2.0683  2.1969
  617MOL0     H81423   7.711   4.254   9.570  1.3728  2.7567 -0.5148
  617MOL0     H81424   7.808   4.040   9.717  0.3446 -0.1399  1.0975
  617MOL0     H81425   7.654   4.062   9.680 -0.7232  2.6067 -1.3960
  617MOL0     H81426   7.770   5.082   9.196 -0.2478  1.2900 -1.4794
  617MOL0     H81427   7.800   5.306   9.193  0.8782 -0.7843 -1.6222
  617MOL0     H81428   7.708   5.681   9.296 -1.2445  2.1949 -1.5480
  617MOL0     H81429   7.728   5.943   9.279  1.3145  0.5647  3.2010
  617MOL0     H81430   8.174   7.102   8.851 -0.6326  0.0763 -2.9202
  617MOL0     H81431   8.205   7.248   9.036 -0.7525 -0.5569  2.3462
  617MOL0     H81432   7.984   7.543   9.339  0.4034  0.2263 -1.3296
  617MOL0     H81433   8.032   7.723   9.504 -1.0580 -0.6253  0.3754
  617MOL0     H81434   8.285   7.908   9.725  0.9755  0.4132  0.0003
  617MOL0     H81435   8.123   7.871   9.668  0.3677  0.0437 -0.8242
  617MOL0     H81436   8.225   7.824   9.437 -2.4633 -1.5827  2.3760
  617MOL0     H81437   8.247   7.993   9.495  4.0517  0.3341 -1.0151
  617MOL0     H81438   8.448   7.784   9.478 -2.5967 -1.0634 -0.8770
  617MOL0     H81439   8.501   7.919   9.568 -3.9680  3.3649  3.0533
  617MOL0     H81440   8.577   7.949   9.340  0.7515 -1.0646  1.8686
  617MOL0     H81441   8.426   7.932   9.260  0.4783 -0.2271 -1.4180
  617MOL0     H81442   8.371   8.331   9.349  0.2432  0.1162 -1.9258
  617MOL0     H81443   8.335   7.475   9.662  0.5793 -0.7108 -1.0214
  617MOL0     H81444   8.282   7.288   9.544 -0.3106 -2.1575 -2.1209
  618MOL0     O81445   3.857   4.128   3.485  0.3647 -0.0523  0.5015
  618MOL0     C81446   3.788   4.032   3.453 -0.6568  0.4190 -0.0333
  618MOL0     O81447   3.708   4.032   3.334 -0.6586 -0.2477  0.8225
  618MOL0     C81448   3.685   4.152   3.277  0.4260 -0.0426  0.3183
  618MOL0     C81449   3.708   4.160   3.139  0.0411  1.3184  0.3431
  618MOL0     C81450   3.681   4.276   3.066 -0.0273  0.7954 -0.6914
  618MOL0     C81451   3.614   4.385   3.117  0.0164 -0.0751 -0.0072
  618MOL0     O81452   3.581   4.498   3.048  0.4750  0.2462 -0.3847
  618MOL0     C81453   3.671   4.550   2.968 -1.0615  0.3719  0.2730
  618MOL0     C81454   3.607   4.663   2.884 -0.1718  0.5368 -0.7887
  618MOL0     C81455   3.558   4.615   2.748 -0.3301 -0.1576 -0.8028
  618MOL0     C81456   3.443   4.516   2.768  0.4366  0.3720  0.1424
  618MOL0     C81457   3.373   4.467   2.640  0.9316  0.1374  0.0203
  618MOL0     C81458   3.451   4.418   2.520 -0.5458  0.6603 -0.1840
  618MOL0     C81459   3.540   4.293   2.515  0.0019  0.4043  0.9319
  618MOL0     C81460   3.470   4.169   2.585  0.5818 -0.4603 -0.2648
  618MOL0     N81461   3.546   4.049   2.568  0.1328 -0.2344  0.8452
  618MOL0     C81462   3.673   4.019   2.617 -0.1343 -0.0041  0.7251
  618MOL0     C81463   3.682   3.880   2.614  0.4218 -0.3363  0.3873
  618MOL0     C81464   3.804   3.791   2.651 -1.0709 -1.5810  0.1522
  618MOL0     C81465   3.812   3.657   2.575  0.3976  0.3869 -0.1053
  618MOL0     C81466   3.956   3.612   2.581  0.1972 -0.0963  0.1745
  618MOL0     C81467   4.001   3.561   2.715  0.1377 -0.6967  0.7994
  618MOL0     O81468   3.962   3.428   2.743 -0.4152 -1.3023 -0.5010
  618MOL0     C81469   4.041   3.324   2.723  0.3741 -0.7655  1.2001
  618MOL0     C81470   4.011   3.203   2.769 -0.2657  0.4991 -0.1360
  618MOL0     C81471   4.100   3.087   2.749  0.0938  1.1374 -0.0191
  618MOL0     C81472   4.223   3.100   2.676 -0.6674  0.1639  0.7186
  618MOL0     C81473   4.321   2.993   2.665  0.2510 -0.0581  0.2709
  618MOL0     O81474   4.304   2.884   2.739 -0.2187  0.6812 -0.4946
  618MOL0     C81475   4.401   2.784   2.738 -0.1602 -0.8931 -0.8250
  618MOL0     C81476   4.467   2.732   2.628 -0.6648  0.1451  0.1173
  618MOL0     C81477   4.560   2.626   2.623  0.3564 -0.2079  0.4589
  618MOL0     C81478   4.592   2.568   2.747  0.1890 -0.9270  0.9007
  618MOL0     O81479   4.676   2.457   2.755 -0.8400 -0.7541  0.2033
  618MOL0     C81480   4.776   2.444   2.856  0.2906 -1.1450 -0.6869
  618MOL0     C81481   4.891   2.340   2.835 -0.5873  0.4837  0.5419
  618MOL0     C81482   4.982   2.381   2.720  0.5421  0.4184  0.0446
  618MOL0     C81483   5.105   2.286   2.707  0.8245  0.7602 -0.1519
  618MOL0     C81484   5.188   2.336   2.589  0.2462  0.2004  0.2512
  618MOL0     C81485   5.287   2.232   2.535 -0.1494  0.5572 -0.0027
  618MOL0     C81486   5.356   2.141   2.638 -0.7472 -0.7562 -0.0497
  618MOL0     C81487   5.450   2.048   2.571  0.8728 -0.1615  0.7339
  618MOL0    Cl81488   5.363   1.917   2.505 -0.1946  0.1517  0.5236
  618MOL0     C81489   4.536   2.622   2.864  0.1384 -0.0997  0.5349
  618MOL0     C81490   4.446   2.728   2.860  0.6046 -0.5120  0.2358
  618MOL0     O81491   4.406   3.004   2.578  0.0644  0.7976  0.3098
  618MOL0     C81492   4.255   3.229   2.630 -0.2226 -0.5956 -0.0735
  618MOL0     C81493   4.160   3.340   2.643 -1.2134  0.8640 -0.9314
  618MOL0     N81494   3.569   3.836   2.557  0.1831 -0.0929  0.3101
  618MOL0     N81495   3.491   3.936   2.538  0.7723  0.5556  0.5614
  618MOL0     C81496   3.581   4.369   3.247 -0.2827  0.3913  0.1559
  618MOL0     C81497   3.616   4.261   3.325 -0.2214 -0.2921  0.3993
  618MOL0     C81498   3.797   3.902   3.527  0.5934 -0.1532 -0.4208
  618MOL0     C81499   3.721   3.794   3.472 -0.4622 -0.3191 -0.1048
  618MOL0     C81500   3.733   3.671   3.530 -0.1050 -0.1094 -0.2911
  618MOL0     C81501   3.811   3.649   3.643 -0.7656  0.3211 -0.6685
  618MOL0     O81502   3.833   3.515   3.687  0.0995 -0.1465 -0.4895
  618MOL0     C81503   3.762   3.404   3.628 -0.9634 -0.2591 -0.3070
  618MOL0     C81504   3.794   3.286   3.723 -0.6192  0.7117  1.8591
  618MOL0     C81505   3.758   3.299   3.873 -0.4657  0.4282  1.0465
  618MOL0     C81506   3.616   3.278   3.905  0.0489  0.1545 -0.9130
  618MOL0     C81507   3.536   3.398   3.863 -0.0466  1.8437  0.5957
  618MOL0     C81508   3.477   3.501   3.837  0.5218 -0.8983  0.1817
  618MOL0     C81509   3.880   3.756   3.703 -0.1301  0.0829  0.1393
  618MOL0     C81510   3.870   3.884   3.646  0.6534 -0.0334 -1.1378
  618MOL0     H81511   3.738   4.074   3.081 -3.3645 -0.7377  1.3145
  618MOL0     H81512   3.713   4.264   2.963 -1.8675 -2.1316 -1.0137
  618MOL0     H81513   3.714   4.478   2.898  1.3870  1.3212  0.6756
  618MOL0     H81514   3.745   4.603   3.028  0.9724 -1.4560 -0.4710
  618MOL0     H81515   3.688   4.732   2.856 -1.3125  1.1246 -2.8133
  618MOL0     H81516   3.541   4.721   2.950 -0.9780 -1.1824 -0.0356
  618MOL0     H81517   3.647   4.583   2.693  0.3247  0.1519  0.0584
  618MOL0     H81518   3.524   4.704   2.695 -1.4255 -1.4356 -2.3415
  618MOL0     H81519   3.488   4.432   2.822  2.7075  0.2818 -1.7762
  618MOL0     H81520   3.359   4.555   2.827 -0.1399 -1.6579  0.7550
  618MOL0     H81521   3.306   4.544   2.600  0.8939 -1.3508 -3.1473
  618MOL0     H81522   3.310   4.380   2.659 -1.1812  0.5388 -3.9960
  618MOL0     H81523   3.523   4.497   2.495  2.2081 -1.9352 -1.1321
  618MOL0     H81524   3.387   4.409   2.431  0.1746  0.6490 -0.7123
  618MOL0     H81525   3.550   4.267   2.409 -2.0553  0.8981  0.5847
  618MOL0     H81526   3.632   4.307   2.572 -0.6573  0.6655  1.9538
  618MOL0     H81527   3.371   4.163   2.540  1.4841 -0.1022 -2.4211
  618MOL0     H81528   3.471   4.180   2.694  0.9819  3.0926 -0.4985
  618MOL0     H81529   3.752   4.081   2.659 -0.0174 -0.5832  1.3668
  618MOL0     H81530   3.795   3.780   2.759 -1.6395  1.3512  0.4961
  618MOL0     H81531   3.894   3.851   2.639 -2.2833  0.1951 -0.6790
  618MOL0     H81532   3.805   3.689   2.471  3.1703 -2.3587 -1.2854
  618MOL0     H81533   3.735   3.587   2.611  0.4246  0.1186 -0.5645
  618MOL0     H81534   3.976   3.546   2.496 -0.2614 -0.2034  0.1497
  618MOL0     H81535   4.024   3.697   2.565  0.7119 -0.8175 -1.6907
  618MOL0     H81536   3.966   3.633   2.789  2.3657  2.8171 -1.2429
  618MOL0     H81537   4.109   3.582   2.716 -0.4407  3.1046  0.2558
  618MOL0     H81538   3.920   3.182   2.825  1.5229 -2.1064  2.0559
  618MOL0     H81539   4.072   2.987   2.779  2.9883 -0.7899 -3.0319
  618MOL0     H81540   4.444   2.758   2.526  4.8487  0.1522 -1.4643
  618MOL0     H81541   4.608   2.598   2.530  2.4353 -0.2690  1.4907
  618MOL0     H81542   4.730   2.427   2.954 -0.2012 -0.5646 -0.8124
  618MOL0     H81543   4.820   2.543   2.868  0.7044 -1.3537 -0.4361
  618MOL0     H81544   4.831   2.252   2.809 -3.6682  2.3059  0.9297
  618MOL0     H81545   4.963   2.332   2.916 -0.9960  4.0213  1.4429
  618MOL0     H81546   5.016   2.481   2.747  2.4461 -0.4500  1.0003
  618MOL0     H81547   4.928   2.390   2.625 -0.9932 -0.1039  0.8351
  618MOL0     H81548   5.173   2.296   2.791  2.5274  2.4115 -1.6462
  618MOL0     H81549   5.079   2.181   2.689  1.0083  1.0523 -2.4966
  618MOL0     H81550   5.234   2.426   2.630 -1.2886  0.5020  1.4152
  618MOL0     H81551   5.119   2.367   2.510 -1.4033 -2.9186  0.3249
  618MOL0     H81552   5.372   2.279   2.485  2.4974 -2.9659  0.7250
  618MOL0     H81553   5.240   2.173   2.455  0.8627  0.2907 -0.4134
  618MOL0     H81554   5.405   2.201   2.714 -1.9121 -1.3693  1.2314
  618MOL0     H81555   5.286   2.079   2.695  0.7823 -1.2508  1.3559
  618MOL0     H81556   5.524   2.017   2.645  5.4423  3.2659 -1.8714
  618MOL0     H81557   5.508   2.104   2.497 -4.9877  1.9955 -2.9635
  618MOL0     H81558   4.552   2.574   2.960 -0.4572  1.1827  1.2908
  618MOL0     H81559   4.396   2.774   2.944 -1.0894 -1.0730 -0.4231
  618MOL0     H81560   4.349   3.251   2.580 -0.2575 -0.6848 -0.1793
  618MOL0     H81561   4.200   3.433   2.604  2.1992  0.6418  1.6248
  618MOL0     H81562   3.528   4.451   3.295  0.6536  2.2488 -1.8013
  618MOL0     H81563   3.578   4.261   3.427  0.9349 -2.9099  0.9168
  618MOL0     H81564   3.660   3.800   3.382  2.4573  0.3914 -2.1963
  618MOL0     H81565   3.696   3.595   3.461 -1.3819  1.9272 -1.9858
  618MOL0     H81566   3.796   3.380   3.527  3.5512 -2.6408  1.4850
  618MOL0     H81567   3.654   3.422   3.625 -0.7490  1.0156 -2.1808
  618MOL0     H81568   3.732   3.203   3.689  0.3151  0.7245  0.0035
  618MOL0     H81569   3.894   3.243   3.714 -1.4007 -0.8474 -0.1501
  618MOL0     H81570   3.794   3.398   3.900  0.9626  0.2164  0.0474
  618MOL0     H81571   3.821   3.227   3.927 -1.2683 -1.5965 -0.5621
  618MOL0     H81572   3.583   3.184   3.859  1.2115  0.5215 -2.5697
  618MOL0     H81573   3.608   3.273   4.014  4.5075 -1.6117 -0.4566
  618MOL0     H81574   3.420   3.589   3.814  1.2342 -0.0317  1.6261
  618MOL0     H81575   3.942   3.748   3.792 -0.0679  1.2237  0.2182
  618MOL0     H81576   3.936   3.958   3.690 -0.8829  0.9295 -0.3635
  619MOL0     O81577   2.451   3.739   1.741  0.3568  0.0770  0.2685
  619MOL0     C81578   2.455   3.720   1.621 -0.6475  0.8177 -0.9105
  619MOL0     O81579   2.535   3.624   1.568 -0.3513  0.3153  0.6636
  619MOL0     C81580   2.656   3.619   1.629  0.5164  0.0904  0.5211
  619MOL0     C81581   2.747   3.718   1.607 -0.1142  0.0453  0.2842
  619MOL0     C81582   2.879   3.695   1.636  0.6615  0.1367 -0.1491
  619MOL0     C81583   2.924   3.583   1.718 -0.0269 -0.0539 -0.5639
  619MOL0     O81584   3.057   3.552   1.762 -0.1769 -0.2241 -0.0170
  619MOL0     C81585   3.154   3.650   1.739 -0.5576  1.3273  0.5262
  619MOL0     C81586   3.296   3.591   1.767 -0.9978  0.4210  0.2407
  619MOL0     C81587   3.322   3.466   1.677 -0.8051 -0.3043 -0.6748
  619MOL0     C81588   3.473   3.422   1.672  0.5077  0.4407  0.0093
  619MOL0     C81589   3.482   3.291   1.599  0.5847 -0.2982  0.2002
  619MOL0     C81590   3.628   3.260   1.564 -0.7443 -0.1907  0.2618
  619MOL0     C81591   3.700   3.194   1.676 -0.7788 -0.1340  0.2680
  619MOL0     C81592   3.848   3.150   1.622  1.0846 -0.5327 -0.7120
  619MOL0     N81593   3.936   3.256   1.624 -0.7398  0.3082 -0.1094
  619MOL0     C81594   4.004   3.299   1.731 -0.5078  0.6809 -0.4281
  619MOL0     C81595   4.095   3.388   1.682  0.7615 -0.4679 -0.0188
  619MOL0     C81596   4.224   3.429   1.762 -0.1778 -0.2543 -0.4039
  619MOL0     C81597   4.361   3.358   1.714  0.5274  0.2983  0.1607
  619MOL0     C81598   4.389   3.226   1.769 -0.3036  0.9330  0.1339
  619MOL0     C81599   4.444   3.120   1.678  0.1883 -0.4078  0.5276
  619MOL0     O81600   4.532   3.035   1.753 -0.2371 -0.8665 -0.5844
  619MOL0     C81601   4.534   2.896   1.737  0.0273 -0.1685 -0.2665
  619MOL0     C81602   4.507   2.811   1.847 -0.3074 -0.7691 -1.1791
  619MOL0     C81603   4.479   2.677   1.843  0.2789  0.4797  0.2106
  619MOL0     C81604   4.486   2.619   1.710  0.4831  0.2410 -0.6829
  619MOL0     C81605   4.456   2.478   1.690  0.7522  0.7390  0.2204
  619MOL0     O81606   4.449   2.396   1.798 -0.4834 -0.4271  0.3110
  619MOL0     C81607   4.436   2.262   1.777 -0.5818  1.1309 -0.6487
  619MOL0     C81608   4.531   2.179   1.705  0.3941 -0.5140 -1.0333
  619MOL0     C81609   4.509   2.044   1.690  0.2943  0.0593  0.1562
  619MOL0     C81610   4.408   1.976   1.762  0.4595  0.3122 -0.8094
  619MOL0     O81611   4.394   1.838   1.771 -0.4997 -0.3235 -0.6607
  619MOL0     C81612   4.469   1.768   1.674  0.3958  1.3112  0.7986
  619MOL0     C81613   4.407   1.623   1.664 -0.4106 -0.1546  0.8055
  619MOL0     C81614   4.499   1.517   1.602  0.8996  0.1752  0.1413
  619MOL0     C81615   4.556   1.553   1.471  1.0641  0.2888  0.5720
  619MOL0     C81616   4.627   1.442   1.405  0.6757  0.6325 -0.3346
  619MOL0     C81617   4.723   1.493   1.282 -0.7178  0.0867  0.1844
  619MOL0     C81618   4.654   1.500   1.143 -0.4432 -0.1521 -0.6920
  619MOL0     C81619   4.538   1.593   1.148 -0.2984 -0.5820  0.5880
  619MOL0    Cl81620   4.595   1.759   1.186  0.3128  0.0600  0.5334
  619MOL0     C81621   4.317   2.051   1.835 -0.5582 -0.8645  0.0503
  619MOL0     C81622   4.331   2.189   1.844  0.2807  0.3418 -0.6524
  619MOL0     O81623   4.437   2.439   1.570 -1.0254  0.0761 -0.1441
  619MOL0     C81624   4.515   2.704   1.596  0.3804  0.0980  0.2941
  619MOL0     C81625   4.549   2.836   1.611  0.2912 -0.5107 -0.6964
  619MOL0     N81626   4.060   3.424   1.550 -0.0296  0.6234 -0.1418
  619MOL0     N81627   3.967   3.339   1.514  0.6285  0.1104 -0.3949
  619MOL0     C81628   2.823   3.481   1.743 -0.1563 -1.9708 -0.7269
  619MOL0     C81629   2.687   3.503   1.702  0.2446 -0.8783 -0.2951
  619MOL0     C81630   2.352   3.786   1.537 -1.5127 -0.8427 -0.2345
  619MOL0     C81631   2.377   3.797   1.401  0.8833 -0.2545  0.5838
  619MOL0     C81632   2.290   3.890   1.325  0.7756  0.5932  0.8893
  619MOL0     C81633   2.185   3.963   1.389 -0.3972 -0.1491  0.4988
  619MOL0     O81634   2.106   4.049   1.315 -0.1532 -0.0195 -0.6165
  619MOL0     C81635   2.101   4.051   1.174  0.3223  0.6220 -0.1567
  619MOL0     C81636   1.979   4.129   1.139 -0.2551 -0.0009  0.2622
  619MOL0     C81637   1.979   4.153   0.987 -0.1590 -0.9004  0.2072
  619MOL0     C81638   1.935   4.019   0.904 -0.9504 -0.6829  0.0833
  619MOL0     C81639   1.802   3.972   0.937 -0.3719 -0.4279 -0.3781
  619MOL0     C81640   1.692   3.922   0.955 -0.0728 -0.6849 -1.2183
  619MOL0     C81641   2.169   3.951   1.526  0.1543  0.5640  0.5776
  619MOL0     C81642   2.253   3.867   1.595  0.3042  0.1451  0.2621
  619MOL0     H81643   2.714   3.802   1.547 -1.0597  0.4794  1.3800
  619MOL0     H81644   2.937   3.782   1.604 -0.1257 -0.6416 -4.2044
  619MOL0     H81645   3.135   3.722   1.819  2.6664  0.8447  1.8882
  619MOL0     H81646   3.140   3.708   1.647 -5.1262  0.5327  0.5140
  619MOL0     H81647   3.312   3.572   1.873  0.5842  3.2692  0.6137
  619MOL0     H81648   3.380   3.658   1.744  1.9028 -3.0785 -0.2440
  619MOL0     H81649   3.291   3.478   1.573 -3.2379 -1.5362 -0.1850
  619MOL0     H81650   3.269   3.377   1.714  0.9089 -0.7030  1.0038
  619MOL0     H81651   3.533   3.489   1.610  3.8711 -0.3176  2.2058
  619MOL0     H81652   3.514   3.414   1.773 -1.0505 -0.2766  0.6139
  619MOL0     H81653   3.431   3.290   1.503  0.4022 -2.8948  0.2636
  619MOL0     H81654   3.443   3.210   1.662  2.1085 -2.4787 -1.5355
  619MOL0     H81655   3.681   3.349   1.529 -1.5872 -1.3526 -4.7237
  619MOL0     H81656   3.634   3.201   1.472  0.9528  3.4542 -2.2434
  619MOL0     H81657   3.714   3.264   1.759  2.0506  0.3779 -0.5395
  619MOL0     H81658   3.641   3.107   1.706 -1.0509 -0.3992 -0.9927
  619MOL0     H81659   3.827   3.101   1.527 -1.5469  0.9314 -0.9857
  619MOL0     H81660   3.886   3.072   1.690 -0.5449  0.6153  1.6761
  619MOL0     H81661   3.998   3.243   1.825 -0.8525  1.2464 -0.1097
  619MOL0     H81662   4.211   3.405   1.867  1.5404  0.8206  0.1019
  619MOL0     H81663   4.227   3.538   1.750  1.6974 -0.5019 -3.3801
  619MOL0     H81664   4.448   3.422   1.735  1.0266  0.8262 -3.0037
  619MOL0     H81665   4.351   3.351   1.605 -1.1837  1.3979  0.2121
  619MOL0     H81666   4.465   3.237   1.847  2.7041  1.1091 -2.5736
  619MOL0     H81667   4.300   3.173   1.802  0.6194 -0.1620  0.9585
  619MOL0     H81668   4.496   3.163   1.592 -1.3547 -0.6292 -0.5571
  619MOL0     H81669   4.356   3.067   1.640 -0.2705  2.3848 -2.8616
  619MOL0     H81670   4.509   2.861   1.943  0.3761 -0.8326 -1.1581
  619MOL0     H81671   4.460   2.625   1.936  1.1302  0.1086  0.1836
  619MOL0     H81672   4.612   2.232   1.657  1.0769 -0.8967 -0.3215
  619MOL0     H81673   4.576   1.992   1.623  2.3900  2.2198  0.4206
  619MOL0     H81674   4.574   1.762   1.704  1.4634  1.9850 -2.4066
  619MOL0     H81675   4.470   1.812   1.574 -2.4696  0.0303  0.1044
  619MOL0     H81676   4.310   1.605   1.617  0.3533 -0.4774 -0.7085
  619MOL0     H81677   4.389   1.584   1.765  5.0209 -0.8114  1.8107
  619MOL0     H81678   4.444   1.424   1.588 -0.9291  1.0686  0.9981
  619MOL0     H81679   4.583   1.497   1.670  0.7257 -3.8744 -0.6002
  619MOL0     H81680   4.472   1.571   1.404 -0.4201  0.5707  2.4370
  619MOL0     H81681   4.610   1.648   1.485 -1.6212  1.8340  1.1925
  619MOL0     H81682   4.564   1.362   1.366  3.6060 -1.5837 -0.8780
  619MOL0     H81683   4.685   1.391   1.482 -2.8480 -2.7734  0.3840
  619MOL0     H81684   4.809   1.426   1.297 -0.9716 -0.0390  1.1710
  619MOL0     H81685   4.771   1.587   1.310 -1.0886  0.6694 -1.0738
  619MOL0     H81686   4.725   1.537   1.070  0.3263  0.8881  0.5445
  619MOL0     H81687   4.613   1.402   1.116 -3.8243  1.1814 -0.9227
  619MOL0     H81688   4.449   1.563   1.203 -2.9231  0.3711 -2.8176
  619MOL0     H81689   4.502   1.600   1.045  2.2078  1.5486 -0.2441
  619MOL0     H81690   4.235   1.999   1.883  0.8605 -1.6749  1.7274
  619MOL0     H81691   4.261   2.250   1.901  2.9203  2.1147  0.9732
  619MOL0     H81692   4.528   2.666   1.495 -0.9749 -0.4133  0.2993
  619MOL0     H81693   4.577   2.893   1.524 -0.2636  2.1233  0.7381
  619MOL0     H81694   2.850   3.392   1.799 -0.8496 -2.5948 -1.3683
  619MOL0     H81695   2.602   3.436   1.707 -0.2695 -0.3041 -1.1265
  619MOL0     H81696   2.458   3.758   1.339 -2.5301 -5.0862 -1.4850
  619MOL0     H81697   2.296   3.879   1.217 -2.3106 -3.7798  0.9168
  619MOL0     H81698   2.077   3.956   1.125 -0.1672  0.6586  0.0107
  619MOL0     H81699   2.193   4.093   1.131  0.0790  2.1890  0.7864
  619MOL0     H81700   1.894   4.066   1.169  0.8291 -2.3652 -1.2729
  619MOL0     H81701   1.989   4.227   1.186 -0.2161  0.5684 -0.9193
  619MOL0     H81702   2.072   4.197   0.948 -1.3040  2.6488  1.0809
  619MOL0     H81703   1.901   4.229   0.975 -0.8463 -1.3256  1.7928
  619MOL0     H81704   1.949   4.043   0.798  2.6740  0.4868  0.6960
  619MOL0     H81705   2.013   3.943   0.920 -2.0913 -1.3081  3.5809
  619MOL0     H81706   1.598   3.877   0.978 -0.5184  0.8698  0.1728
  619MOL0     H81707   2.095   4.011   1.578  0.0449 -1.3531  2.8068
  619MOL0     H81708   2.248   3.862   1.704  0.3884  1.5916  0.3553
  620MOL0     O81709   2.692   3.701   7.171  0.0150  0.0201  0.0564
  620MOL0     C81710   2.603   3.751   7.243 -0.3133 -0.0367 -0.1447
  620MOL0     O81711   2.618   3.859   7.323  0.7107  0.0688  0.4730
  620MOL0     C81712   2.738   3.924   7.340 -0.2521  0.0071 -0.0570
  620MOL0     C81713   2.852   3.921   7.267 -0.4184 -0.4093  0.3036
  620MOL0     C81714   2.966   3.985   7.312  0.5059  0.1340 -0.2058
  620MOL0     C81715   2.963   4.064   7.428  1.2501 -0.6938  0.8794
  620MOL0     O81716   3.060   4.151   7.470  0.0408 -0.1658  0.0058
  620MOL0     C81717   3.180   4.162   7.396 -0.8956  0.0405 -0.2820
  620MOL0     C81718   3.299   4.222   7.461 -0.2305 -0.0603  0.6206
  620MOL0     C81719   3.405   4.275   7.376 -0.9192  0.5872  1.0199
  620MOL0     C81720   3.497   4.366   7.457  0.7816  0.5099  0.0814
  620MOL0     C81721   3.643   4.309   7.483 -0.4624 -0.5023  0.2264
  620MOL0     C81722   3.652   4.193   7.575  0.3821  0.2737  0.0283
  620MOL0     C81723   3.790   4.141   7.600  0.4518  1.6393 -0.5334
  620MOL0     C81724   3.794   4.016   7.707 -0.4070 -0.3160 -0.8214
  620MOL0     N81725   3.690   3.916   7.673 -0.3739  0.0219 -0.6121
  620MOL0     C81726   3.570   3.913   7.747  0.3191 -0.0017  0.7241
  620MOL0     C81727   3.503   3.807   7.687  0.3728  0.0054 -0.7168
  620MOL0     C81728   3.367   3.766   7.715  0.8214  0.0784  0.2798
  620MOL0     C81729   3.278   3.801   7.586  0.6680 -0.6643 -0.5266
  620MOL0     C81730   3.128   3.748   7.600 -0.4852 -0.8119  0.1107
  620MOL0     C81731   3.124   3.591   7.585  0.2988 -0.1950  0.4846
  620MOL0     O81732   3.021   3.578   7.493  0.1739  0.0354  0.6970
  620MOL0     C81733   2.914   3.512   7.526 -0.2180 -0.5687 -0.2004
  620MOL0     C81734   2.793   3.544   7.478 -0.3010  0.2982 -0.0018
  620MOL0     C81735   2.679   3.468   7.503  0.3455  0.7336 -0.1071
  620MOL0     C81736   2.692   3.343   7.560 -0.0444 -0.7509 -0.8069
  620MOL0     C81737   2.574   3.268   7.600  1.2132  0.0412 -0.4379
  620MOL0     O81738   2.457   3.304   7.536 -0.2547 -0.2929  0.3117
  620MOL0     C81739   2.348   3.231   7.562 -0.1981  0.2912 -0.5671
  620MOL0     C81740   2.267   3.278   7.661 -0.5131  0.1982 -0.4643
  620MOL0     C81741   2.155   3.209   7.706  0.6507  0.0088  1.0125
  620MOL0     C81742   2.111   3.090   7.637  0.3515 -1.0824 -0.0443
  620MOL0     O81743   1.992   3.043   7.673  0.4367  0.5632 -0.2001
  620MOL0     C81744   1.920   2.982   7.557 -0.7697 -0.6970  0.2260
  620MOL0     C81745   1.789   2.937   7.608 -0.5247  0.4283 -0.4441
  620MOL0     C81746   1.731   2.851   7.493  0.6567  0.2794  0.2352
  620MOL0     C81747   1.791   2.712   7.493 -0.0092  0.2524 -0.5515
  620MOL0     C81748   1.708   2.624   7.395 -0.2461 -0.7498 -0.4534
  620MOL0     C81749   1.699   2.682   7.256 -0.0273 -0.2923  0.2140
  620MOL0     C81750   1.674   2.560   7.165  0.3213 -0.1158  0.4352
  620MOL0     C81751   1.536   2.506   7.151 -0.8314 -1.0308 -0.2813
  620MOL0    Cl81752   1.416   2.615   7.068  0.1636 -0.1253 -0.1522
  620MOL0     C81753   2.178   3.057   7.517 -1.1602  0.3141 -0.1701
  620MOL0     C81754   2.306   3.122   7.490  0.8687 -0.3240 -0.3916
  620MOL0     O81755   2.580   3.170   7.673  0.0041  1.5273  0.1537
  620MOL0     C81756   2.826   3.293   7.597  0.6095 -0.5994  0.0523
  620MOL0     C81757   2.928   3.384   7.580  0.4036 -1.0027 -0.4304
  620MOL0     N81758   3.586   3.741   7.596  0.5057 -0.3749 -0.2287
  620MOL0     N81759   3.696   3.808   7.581  0.1221 -0.1883 -0.0981
  620MOL0     C81760   2.850   4.075   7.500  0.7331 -0.1766 -0.5046
  620MOL0     C81761   2.731   4.012   7.456 -1.2839  0.0632  0.4371
  620MOL0     C81762   2.480   3.678   7.251  0.4803  0.3808 -0.1818
  620MOL0     C81763   2.439   3.594   7.148  0.3544  0.3109  0.0397
  620MOL0     C81764   2.333   3.503   7.165 -1.1398 -0.2974  0.3693
  620MOL0     C81765   2.270   3.500   7.290  1.1721  0.1217 -0.2522
  620MOL0     O81766   2.169   3.411   7.296 -0.6768 -0.6567 -0.1520
  620MOL0     C81767   2.075   3.431   7.399  0.9440 -0.1082 -0.5077
  620MOL0     C81768   1.945   3.350   7.371 -0.4929  0.2592 -0.4824
  620MOL0     C81769   1.837   3.392   7.469 -0.1818 -1.0706  0.1787
  620MOL0     C81770   1.693   3.348   7.447  0.5821  0.1289  1.3017
  620MOL0     C81771   1.627   3.308   7.570 -0.4435 -0.7308  0.0443
  620MOL0     C81772   1.569   3.270   7.663  0.9031  0.3531  0.2556
  620MOL0     C81773   2.304   3.585   7.395 -0.4689 -0.0355  0.5014
  620MOL0     C81774   2.415   3.666   7.374  0.1177  0.3188 -0.5628
  620MOL0     H81775   2.866   3.851   7.185 -1.1273  0.3035 -0.4486
  620MOL0     H81776   3.055   3.997   7.251  0.0135 -2.1490 -1.4776
  620MOL0     H81777   3.162   4.207   7.298 -1.5169  0.4262  0.0038
  620MOL0     H81778   3.213   4.060   7.374  1.4705  0.7067 -0.0826
  620MOL0     H81779   3.342   4.141   7.520  1.6913 -0.9441 -1.8580
  620MOL0     H81780   3.259   4.306   7.518  0.1100 -0.4269  1.4185
  620MOL0     H81781   3.378   4.339   7.291  3.8531  1.1145 -0.3850
  620MOL0     H81782   3.471   4.194   7.344 -0.6082  1.5235 -0.8231
  620MOL0     H81783   3.487   4.458   7.401 -1.7133 -0.5062 -1.3148
  620MOL0     H81784   3.455   4.382   7.557  0.2523 -0.0062 -0.0480
  620MOL0     H81785   3.694   4.395   7.526 -1.9517 -0.1163  1.3301
  620MOL0     H81786   3.692   4.286   7.388 -1.9675  0.4087 -0.8301
  620MOL0     H81787   3.584   4.115   7.541 -1.2430  0.8359  1.7790
  620MOL0     H81788   3.615   4.235   7.669 -4.4888 -1.9883 -0.5546
  620MOL0     H81789   3.824   4.113   7.500  1.0372  1.0667 -0.1758
  620MOL0     H81790   3.860   4.220   7.627  2.1312  0.3132 -0.8394
  620MOL0     H81791   3.780   4.056   7.808  1.8376  0.1992 -0.6510
  620MOL0     H81792   3.890   3.965   7.698 -0.5797 -0.8507  0.2253
  620MOL0     H81793   3.535   3.975   7.829 -0.9904  0.2530  0.0090
  620MOL0     H81794   3.329   3.825   7.799  0.6905 -0.2453  0.4495
  620MOL0     H81795   3.354   3.659   7.732  2.1130 -0.6064 -2.4769
  620MOL0     H81796   3.320   3.745   7.502 -2.3378 -2.4790 -0.9612
  620MOL0     H81797   3.286   3.904   7.550 -2.2944 -0.8228 -1.9036
  620MOL0     H81798   3.094   3.771   7.701 -3.7408  2.2449 -1.4760
  620MOL0     H81799   3.056   3.802   7.538  1.9621 -0.2946 -2.4896
  620MOL0     H81800   3.098   3.557   7.685 -2.2751  0.8344  0.2245
  620MOL0     H81801   3.222   3.556   7.551  1.5465  2.4315  1.1404
  620MOL0     H81802   2.789   3.642   7.432 -0.6594  0.3682  0.1810
  620MOL0     H81803   2.580   3.509   7.487 -0.9172 -2.0338 -0.0080
  620MOL0     H81804   2.291   3.373   7.708  2.4062  0.0347 -1.4305
  620MOL0     H81805   2.103   3.258   7.788 -3.9672 -1.9246 -0.4202
  620MOL0     H81806   1.966   2.889   7.524 -0.1707  0.1783 -1.4880
  620MOL0     H81807   1.909   3.056   7.477  0.3639  2.5047  2.7789
  620MOL0     H81808   1.723   3.017   7.642 -0.7803  0.3587 -0.7703
  620MOL0     H81809   1.811   2.883   7.701  2.2769  0.4465 -1.0220
  620MOL0     H81810   1.737   2.891   7.392  0.8008  1.0203  0.5336
  620MOL0     H81811   1.626   2.829   7.516  0.9277 -0.6736  0.6341
  620MOL0     H81812   1.899   2.705   7.474  1.1301  2.8412  3.6731
  620MOL0     H81813   1.782   2.670   7.594  1.6979  1.5301  0.2009
  620MOL0     H81814   1.606   2.616   7.433 -1.1106 -1.7152 -2.7944
  620MOL0     H81815   1.753   2.525   7.405 -1.8981 -1.5120 -0.2383
  620MOL0     H81816   1.796   2.730   7.240  0.2081 -0.6497  0.5675
  620MOL0     H81817   1.610   2.746   7.257 -0.9642 -1.5370 -0.4293
  620MOL0     H81818   1.709   2.597   7.068  0.0192 -0.3484  0.2352
  620MOL0     H81819   1.749   2.486   7.195  0.4765 -0.5637 -0.9872
  620MOL0     H81820   1.490   2.483   7.248 -1.2334  0.5177 -0.0796
  620MOL0     H81821   1.540   2.406   7.107  1.6225 -1.5045  0.8330
  620MOL0     H81822   2.158   2.974   7.450  0.8749 -0.5925  0.2648
  620MOL0     H81823   2.370   3.069   7.420  1.0365 -0.8923  0.1733
  620MOL0     H81824   2.835   3.190   7.630  3.6175  0.0303  1.4859
  620MOL0     H81825   3.027   3.341   7.597  1.5073 -1.2046 -5.7251
  620MOL0     H81826   2.846   4.134   7.591  0.6663  1.0262 -1.2602
  620MOL0     H81827   2.657   4.000   7.534  0.0141  0.4893  1.7735
  620MOL0     H81828   2.496   3.595   7.056  1.3578  0.5852  0.6430
  620MOL0     H81829   2.306   3.429   7.092  1.2659 -0.2783 -0.6519
  620MOL0     H81830   2.043   3.535   7.405 -4.1871 -1.3513 -1.1697
  620MOL0     H81831   2.103   3.408   7.503 -0.5419 -0.6756 -0.1957
  620MOL0     H81832   1.907   3.366   7.269  0.0405 -0.9244 -0.8820
  620MOL0     H81833   1.959   3.242   7.377 -4.0026 -0.4167 -1.7210
  620MOL0     H81834   1.824   3.500   7.484 -1.6605 -1.5005  2.4775
  620MOL0     H81835   1.871   3.366   7.569  2.6492  5.1454  1.3449
  620MOL0     H81836   1.637   3.431   7.404 -1.8772 -1.6978  0.7521
  620MOL0     H81837   1.683   3.260   7.382 -3.0225 -1.3335  3.5309
  620MOL0     H81838   1.506   3.235   7.742 -3.4458  2.1689 -2.0561
  620MOL0     H81839   2.263   3.583   7.496  0.3853 -0.4410  0.8544
  620MOL0     H81840   2.445   3.730   7.457  1.1747  1.7292 -1.9720
  621MOL0     O81841  11.100   3.368  11.275 -0.1880  0.2633  0.1968
  621MOL0     C81842  11.029   3.346  11.179 -0.5061  0.2505 -0.1236
  621MOL0     O81843  11.025   3.424  11.066  0.7816 -0.0345 -0.3666
  621MOL0     C81844  11.085   3.545  11.050  0.3280  0.6387 -0.0111
  621MOL0     C81845  11.013   3.635  10.969  0.5423  0.3006 -0.3908
  621MOL0     C81846  11.065   3.759  10.951 -0.0212 -0.1544 -0.1323
  621MOL0     C81847  11.180   3.798  11.013 -0.3039  0.2274 -0.2241
  621MOL0     O81848  11.240   3.919  11.015  0.0437 -0.7361 -0.8334
  621MOL0     C81849  11.195   4.024  10.932  0.7623 -0.5861  1.1290
  621MOL0     C81850  11.301   4.132  10.937 -1.0155  0.0156  0.1259
  621MOL0     C81851  11.436   4.091  10.876 -0.0567  0.2832  0.0979
  621MOL0     C81852  11.435   4.077  10.717 -0.4513  0.5861 -1.0891
  621MOL0     C81853  11.578   4.091  10.676  0.3498 -0.9095 -0.2312
  621MOL0     C81854  11.592   4.070  10.529  0.0089 -0.1374  0.1385
  621MOL0     C81855  11.729   4.081  10.469 -0.8004  0.4040 -0.7247
  621MOL0     C81856  11.727   4.072  10.319  0.1499  0.7865  0.4790
  621MOL0     N81857  11.823   4.160  10.267  0.5342 -0.0146 -0.0189
  621MOL0     C81858  11.951   4.124  10.238  0.4987  0.6391  0.3607
  621MOL0     C81859  12.000   4.230  10.173 -0.6355 -0.0451 -0.9196
  621MOL0     C81860  12.135   4.226  10.104 -0.8291 -0.5817 -0.5917
  621MOL0     C81861  12.141   4.235   9.949 -0.3683 -0.9527 -0.3358
  621MOL0     C81862  12.287   4.251   9.904 -0.4158 -0.5107 -0.6624
  621MOL0     C81863  12.291   4.304   9.757  0.2651  0.4410 -0.0321
  621MOL0     O81864  12.433   4.325   9.749  0.2052  0.6866 -0.3293
  621MOL0     C81865  12.493   4.302   9.628  0.2317 -0.1079  0.2467
  621MOL0     C81866  12.442   4.346   9.511  0.8481  0.5316  0.2192
  621MOL0     C81867  12.513   4.350   9.381 -0.7339  0.0735 -0.9303
  621MOL0     C81868  12.635   4.291   9.380  0.3262 -0.2152 -0.1373
  621MOL0     C81869  12.700   4.283   9.250 -0.4171 -0.2898  0.8732
  621MOL0     O81870  12.786   4.178   9.235 -0.0886  0.1440 -0.3005
  621MOL0     C81871  12.822   4.133   9.109 -0.1262 -0.5808  0.7579
  621MOL0     C81872  12.749   4.168   8.984 -1.0740  1.0532  0.0923
  621MOL0     C81873  12.786   4.100   8.864 -0.4933  0.0905 -0.0970
  621MOL0     C81874  12.907   4.033   8.865  0.1622 -0.1613  0.7468
  621MOL0     O81875  12.953   3.987   8.745  0.8094  0.7337 -0.5985
  621MOL0     C81876  12.885   3.989   8.616 -0.2971  0.1134 -1.0191
  621MOL0     C81877  12.936   3.882   8.525  0.2941  0.1443  0.0693
  621MOL0     C81878  12.941   3.727   8.576  0.2198  0.4085 -0.2924
  621MOL0     C81879  13.051   3.649   8.497  0.2710 -0.1671  0.4331
  621MOL0     C81880  13.209   3.692   8.521  0.4584  0.1158  0.7691
  621MOL0     C81881  13.308   3.630   8.430 -0.5292  0.1272  0.5705
  621MOL0     C81882  13.302   3.691   8.287 -0.4895 -0.5188  1.1651
  621MOL0     C81883  13.392   3.598   8.198  0.3303  0.7671 -0.3746
  621MOL0    Cl81884  13.434   3.686   8.045 -0.4252  0.5975 -0.0548
  621MOL0     C81885  12.976   4.005   8.980 -0.8029  0.6189  0.2326
  621MOL0     C81886  12.926   4.052   9.099 -0.4891  0.6116  0.8574
  621MOL0     O81887  12.674   4.366   9.161 -0.6541  0.4750  0.1694
  621MOL0     C81888  12.693   4.239   9.496  0.3019 -0.5823  0.0689
  621MOL0     C81889  12.619   4.258   9.620  0.5627 -0.2185 -0.1634
  621MOL0     N81890  11.905   4.333  10.183 -0.1518 -0.0882 -0.5001
  621MOL0     N81891  11.789   4.290  10.232 -0.2423 -0.1002 -1.1019
  621MOL0     C81892  11.252   3.708  11.083 -0.3508  0.0560 -0.4297
  621MOL0     C81893  11.206   3.577  11.103  0.3883 -0.3006  1.1731
  621MOL0     C81894  10.937   3.225  11.196 -0.5957  0.1408 -0.3186
  621MOL0     C81895  10.817   3.222  11.117 -0.0286  0.4798 -0.6726
  621MOL0     C81896  10.747   3.093  11.128 -0.1616 -0.3769  0.1712
  621MOL0     C81897  10.794   2.983  11.205 -0.2963 -0.3013 -0.7536
  621MOL0     O81898  10.726   2.862  11.214 -0.2714 -0.4148  0.3482
  621MOL0     C81899  10.606   2.844  11.132 -0.8082  0.5024 -0.1660
  621MOL0     C81900  10.546   2.712  11.160 -0.4612  0.1938 -0.2297
  621MOL0     C81901  10.463   2.663  11.039 -0.1680  0.1740  0.5610
  621MOL0     C81902  10.426   2.523  11.082  0.8213 -0.0073 -0.4375
  621MOL0     C81903  10.329   2.457  10.987  0.0803  0.1443  0.1965
  621MOL0     C81904  10.253   2.392  10.909  0.1732  0.0556 -0.9348
  621MOL0     C81905  10.903   3.006  11.291 -0.0993  0.0062  0.5188
  621MOL0     C81906  10.975   3.123  11.289 -1.1684 -0.3251  0.0550
  621MOL0     H81907  10.917   3.602  10.928 -0.7779  1.3741  1.6582
  621MOL0     H81908  11.008   3.831  10.893 -2.7668 -1.7866  0.3704
  621MOL0     H81909  11.094   4.054  10.960  0.5284  1.2732 -1.3886
  621MOL0     H81910  11.181   3.999  10.826  0.0084 -1.6077  1.4584
  621MOL0     H81911  11.329   4.175  11.034 -0.7637  3.2815 -1.2604
  621MOL0     H81912  11.255   4.219  10.889  1.3978  0.9572 -0.6603
  621MOL0     H81913  11.474   4.004  10.932  0.8322 -1.3026 -2.7908
  621MOL0     H81914  11.502   4.175  10.900  1.5653 -0.3722 -1.7875
  621MOL0     H81915  11.404   3.973  10.704  0.2651 -0.1625  2.1170
  621MOL0     H81916  11.361   4.145  10.675 -3.3140  1.6167  4.6556
  621MOL0     H81917  11.642   4.012  10.717 -0.4128 -1.5887 -0.3164
  621MOL0     H81918  11.604   4.192  10.709  0.9015 -0.5520 -1.7027
  621MOL0     H81919  11.521   4.142  10.487  1.6175  0.1276 -2.2983
  621MOL0     H81920  11.552   3.970  10.508  1.2443 -0.8974  1.3188
  621MOL0     H81921  11.776   4.175  10.501 -1.7543  1.1718 -1.5093
  621MOL0     H81922  11.787   3.996  10.507 -1.7422  0.2944  0.5072
  621MOL0     H81923  11.630   4.107  10.283 -0.5193 -0.5644  0.8911
  621MOL0     H81924  11.748   3.969  10.287  2.3737  1.2526  0.2198
  621MOL0     H81925  11.993   4.025  10.250 -0.2133  0.1619 -0.9400
  621MOL0     H81926  12.177   4.130  10.135 -2.2805 -1.0744 -0.0321
  621MOL0     H81927  12.193   4.305  10.151 -0.0681 -0.2228 -2.0834
  621MOL0     H81928  12.085   4.323   9.918  1.5288  0.5233  0.2106
  621MOL0     H81929  12.091   4.154   9.896 -1.6095 -1.3535  1.3752
  621MOL0     H81930  12.339   4.317   9.974 -0.2359 -0.2947 -0.9962
  621MOL0     H81931  12.338   4.156   9.922 -0.3717 -0.1767  1.1729
  621MOL0     H81932  12.234   4.396   9.740  2.5176  1.5381 -2.1668
  621MOL0     H81933  12.258   4.230   9.684  0.9367  0.7991 -0.7167
  621MOL0     H81934  12.340   4.384   9.506  0.5318 -0.1378  1.2649
  621MOL0     H81935  12.466   4.381   9.288 -2.9488  2.0026  0.7090
  621MOL0     H81936  12.658   4.226   8.985  1.0232  4.6211  1.1773
  621MOL0     H81937  12.724   4.138   8.783 -0.3604  0.1958 -0.1497
  621MOL0     H81938  12.899   4.088   8.571 -0.1402  1.3811  1.5650
  621MOL0     H81939  12.781   3.965   8.637  0.2226  0.4210  2.8103
  621MOL0     H81940  13.040   3.911   8.508  0.5372 -1.1910 -0.8743
  621MOL0     H81941  12.874   3.886   8.435  1.1310  0.8698 -0.4878
  621MOL0     H81942  12.847   3.675   8.559 -0.5271  0.6964  2.4448
  621MOL0     H81943  12.969   3.715   8.681 -2.4018 -0.7490  0.3359
  621MOL0     H81944  13.053   3.543   8.524 -0.2395 -0.4619 -0.6093
  621MOL0     H81945  13.023   3.648   8.391  2.2378  2.3207 -0.2197
  621MOL0     H81946  13.230   3.663   8.624  1.2069 -1.1718  0.2821
  621MOL0     H81947  13.210   3.801   8.522 -0.6716  0.1661 -0.3647
  621MOL0     H81948  13.283   3.525   8.415  0.9425 -0.4735  2.0570
  621MOL0     H81949  13.411   3.636   8.465 -1.1430 -0.4541  2.5804
  621MOL0     H81950  13.206   3.713   8.239  0.4592  1.8667  0.2035
  621MOL0     H81951  13.361   3.782   8.278 -0.3147 -0.8291 -2.2154
  621MOL0     H81952  13.329   3.511   8.179 -1.1451  1.8055 -0.4196
  621MOL0     H81953  13.487   3.562   8.238  1.0526  0.3253 -2.3851
  621MOL0     H81954  13.064   3.942   8.980 -0.1336  1.5317 -0.0087
  621MOL0     H81955  12.971   4.032   9.195  0.4967  0.8831  0.4641
  621MOL0     H81956  12.788   4.186   9.501  0.2668 -0.5456  3.8489
  621MOL0     H81957  12.674   4.249   9.713 -1.2372  1.1012  1.1224
  621MOL0     H81958  11.346   3.741  11.126 -1.4862 -0.1718  2.4893
  621MOL0     H81959  11.271   3.506  11.154  2.0012 -1.2461 -1.9397
  621MOL0     H81960  10.783   3.302  11.052 -0.1746 -0.2408 -1.5023
  621MOL0     H81961  10.656   3.092  11.068  0.9334  0.8004 -1.6102
  621MOL0     H81962  10.634   2.861  11.028  0.5882 -0.1631  0.0795
  621MOL0     H81963  10.541   2.924  11.167  1.5806  1.4959  2.3226
  621MOL0     H81964  10.615   2.636  11.198 -1.7198 -2.1910 -2.4612
  621MOL0     H81965  10.483   2.732  11.247 -1.7255 -0.1965 -1.0396
  621MOL0     H81966  10.517   2.646  10.945 -1.9585 -0.7323 -0.3805
  621MOL0     H81967  10.376   2.726  11.020  0.6554  1.5417  1.1807
  621MOL0     H81968  10.512   2.456  11.083  1.9732  1.4016  1.6479
  621MOL0     H81969  10.391   2.527  11.185 -3.3319  3.6053 -1.6937
  621MOL0     H81970  10.183   2.345  10.843 -1.4047  0.5429  0.3319
  621MOL0     H81971  10.915   2.936  11.374  2.8914  0.5028  0.6177
  621MOL0     H81972  11.067   3.131  11.346  1.2555 -1.9383 -3.2602
  622MOL0     O81973   5.957   4.537   0.514 -0.2449 -0.0489 -0.3366
  622MOL0     C81974   5.930   4.465   0.415 -0.4090  0.2124 -0.2219
  622MOL0     O81975   6.023   4.400   0.335 -0.3354 -0.3946 -0.4213
  622MOL0     C81976   6.153   4.407   0.374 -0.3752 -0.4067  0.2190
  622MOL0     C81977   6.217   4.531   0.397 -0.0381  0.3261  0.0150
  622MOL0     C81978   6.350   4.546   0.444 -0.1159 -0.3168  0.5559
  622MOL0     C81979   6.422   4.429   0.470 -0.2601  0.0683  0.5444
  622MOL0     O81980   6.550   4.426   0.496 -0.1524  0.9731  0.4823
  622MOL0     C81981   6.597   4.535   0.580 -0.5505  1.3496 -0.1941
  622MOL0     C81982   6.650   4.652   0.499 -0.0026  0.2045 -0.2292
  622MOL0     C81983   6.783   4.698   0.549 -0.3729  0.5136 -0.9424
  622MOL0     C81984   6.827   4.842   0.493 -0.0253 -0.0953 -0.3384
  622MOL0     C81985   6.973   4.878   0.537  1.1237 -0.1737 -0.5813
  622MOL0     C81986   7.018   5.013   0.478  0.6404 -0.4182 -0.3499
  622MOL0     C81987   7.047   5.024   0.331  0.4680 -0.1539 -0.4893
  622MOL0     C81988   7.199   4.997   0.302 -0.1701  0.4522 -0.0037
  622MOL0     N81989   7.236   4.851   0.333  0.1949  0.6506  0.8976
  622MOL0     C81990   7.184   4.744   0.269 -0.7567 -0.2444  0.4230
  622MOL0     C81991   7.257   4.640   0.318  0.2671 -0.9486 -0.1840
  622MOL0     C81992   7.250   4.501   0.286 -0.1617  0.9851  0.9220
  622MOL0     C81993   7.233   4.407   0.411 -0.2403 -0.1488  0.4972
  622MOL0     C81994   7.083   4.409   0.448  0.3096 -0.1014 -0.2255
  622MOL0     C81995   7.047   4.339   0.581 -0.2427 -0.0466 -0.0535
  622MOL0     O81996   7.074   4.194   0.571 -0.6531  0.1828  0.5030
  622MOL0     C81997   6.989   4.108   0.510 -0.5064  1.3365 -1.0303
  622MOL0     C81998   7.037   3.979   0.492 -1.2441  0.7232  0.0964
  622MOL0     C81999   6.967   3.895   0.396 -0.6631 -0.9194 -0.8774
  622MOL0     C82000   6.852   3.939   0.331  0.6759  0.6669  1.2813
  622MOL0     C82001   6.794   3.850   0.226  0.2074 -0.7130 -0.4241
  622MOL0     O82002   6.812   3.719   0.253  0.2742  0.0788 -0.1614
  622MOL0     C82003   6.747   3.629   0.173  0.0087  0.5894  0.4193
  622MOL0     C82004   6.811   3.569   0.069  0.0910  0.0337  0.3528
  622MOL0     C82005   6.739   3.480  -0.011  0.1687 -0.6622 -0.1201
  622MOL0     C82006   6.607   3.451   0.011  1.0364 -0.4400  0.4499
  622MOL0     O82007   6.525   3.394  -0.083 -0.9540 -0.1808  0.7969
  622MOL0     C82008   6.588   3.308  -0.176  0.1803  0.0978 -0.4426
  622MOL0     C82009   6.632   3.367  -0.311 -0.4248 -0.6860  0.4876
  622MOL0     C82010   6.508   3.424  -0.380 -1.0660  0.3133 -0.1886
  622MOL0     C82011   6.551   3.471  -0.519 -0.0285 -0.0107 -0.1086
  622MOL0     C82012   6.428   3.519  -0.591  0.5155  0.2283 -0.4752
  622MOL0     C82013   6.344   3.399  -0.655 -0.0196 -0.2026  0.0638
  622MOL0     C82014   6.263   3.454  -0.767 -0.1678  0.7033 -1.3828
  622MOL0     C82015   6.165   3.346  -0.817  0.8360  0.2292  0.2667
  622MOL0    Cl82016   6.102   3.419  -0.960 -0.1117  0.2328  0.3056
  622MOL0     C82017   6.542   3.518   0.119  0.2535 -0.3734 -0.5642
  622MOL0     C82018   6.615   3.605   0.197 -0.4312 -0.0509  0.3361
  622MOL0     O82019   6.723   3.900   0.146 -0.5500  0.3716 -0.0125
  622MOL0     C82020   6.793   4.065   0.364 -0.2835 -0.0955 -0.8301
  622MOL0     C82021   6.869   4.151   0.449  0.8474  0.7066 -0.0479
  622MOL0     N82022   7.316   4.683   0.437 -0.8085  0.1468 -0.3962
  622MOL0     N82023   7.316   4.811   0.441 -0.6270  0.0894  0.7144
  622MOL0     C82024   6.360   4.299   0.451 -0.2255 -0.9602  0.2140
  622MOL0     C82025   6.227   4.292   0.408 -0.1132 -0.6171  0.2049
  622MOL0     C82026   5.792   4.421   0.395  0.5380  0.3315  0.4316
  622MOL0     C82027   5.695   4.432   0.499  1.0345 -0.1704 -0.1141
  622MOL0     C82028   5.562   4.396   0.470 -0.2487  0.0475 -1.1718
  622MOL0     C82029   5.523   4.353   0.347  0.1508 -0.0154 -0.3843
  622MOL0     O82030   5.404   4.294   0.320  0.3315  0.2679  0.1059
  622MOL0     C82031   5.297   4.276   0.420  0.1292  0.6199 -0.5850
  622MOL0     C82032   5.215   4.400   0.448 -1.2958 -0.5372 -0.1238
  622MOL0     C82033   5.143   4.437   0.320  0.0348  0.7809  0.0936
  622MOL0     C82034   5.052   4.329   0.268  0.3307  0.4663  0.5305
  622MOL0     C82035   4.972   4.261   0.369  0.5332 -0.2181 -0.4599
  622MOL0     C82036   4.899   4.222   0.462  0.2929  0.7793 -0.1700
  622MOL0     C82037   5.616   4.345   0.245 -0.3144  0.6709 -0.5961
  622MOL0     C82038   5.742   4.383   0.266 -0.4418 -0.0993 -0.4274
  622MOL0     H82039   6.163   4.621   0.367  2.3812  0.4411 -5.0175
  622MOL0     H82040   6.378   4.646   0.473  0.9515 -0.2753 -0.5519
  622MOL0     H82041   6.679   4.488   0.636 -1.7413 -0.2907  0.2400
  622MOL0     H82042   6.531   4.564   0.663  0.5310 -1.6467  1.9221
  622MOL0     H82043   6.583   4.739   0.497 -1.9031 -1.1612  1.0433
  622MOL0     H82044   6.668   4.616   0.397  2.1359 -0.4936  0.3463
  622MOL0     H82045   6.856   4.622   0.520 -0.0798  0.4149  0.0008
  622MOL0     H82046   6.783   4.715   0.657  0.9074  1.1302 -1.0156
  622MOL0     H82047   6.822   4.827   0.385  0.1553 -3.4553  0.0310
  622MOL0     H82048   6.765   4.926   0.526  1.3759  0.9332 -0.2213
  622MOL0     H82049   7.046   4.799   0.515  2.1028  0.4999  0.1415
  622MOL0     H82050   6.977   4.886   0.646  2.2954  2.4634 -0.7636
  622MOL0     H82051   7.100   5.058   0.535  0.6791  0.2215 -0.8955
  622MOL0     H82052   6.931   5.079   0.488  1.6088  1.3934 -2.8622
  622MOL0     H82053   6.979   4.961   0.274  0.9778 -1.1978  0.0363
  622MOL0     H82054   7.023   5.127   0.303  0.2224  0.3257  1.3883
  622MOL0     H82055   7.263   5.056   0.368  1.2370 -2.2677  1.1948
  622MOL0     H82056   7.239   5.009   0.201  3.1037 -0.1017  1.1331
  622MOL0     H82057   7.123   4.740   0.180 -0.2984  0.4078  0.0712
  622MOL0     H82058   7.339   4.479   0.226 -1.7139  1.1271 -1.5881
  622MOL0     H82059   7.170   4.489   0.212 -0.7073  1.5973  1.4025
  622MOL0     H82060   7.303   4.434   0.490  1.3349 -1.0224 -0.5498
  622MOL0     H82061   7.259   4.306   0.377  2.4847  1.1149 -1.4929
  622MOL0     H82062   7.050   4.512   0.463  1.0213  0.6788 -3.3639
  622MOL0     H82063   7.023   4.372   0.365  0.0159 -3.1868  1.1911
  622MOL0     H82064   6.946   4.369   0.612 -1.1812 -0.4600 -2.5286
  622MOL0     H82065   7.117   4.365   0.661  1.1840 -0.1840 -1.2227
  622MOL0     H82066   7.142   3.965   0.514 -0.9504  4.6139  1.9804
  622MOL0     H82067   7.019   3.803   0.371 -1.6262 -2.4598  2.2159
  622MOL0     H82068   6.914   3.584   0.036  0.2165 -2.4775 -0.6082
  622MOL0     H82069   6.791   3.452  -0.102 -0.2849  0.3594 -0.7223
  622MOL0     H82070   6.512   3.234  -0.202 -0.9193  1.4942 -1.3455
  622MOL0     H82071   6.673   3.266  -0.122 -0.3385  2.0832  2.1148
  622MOL0     H82072   6.671   3.280  -0.364  1.0571 -0.8617  1.7582
  622MOL0     H82073   6.715   3.438  -0.302  1.2762 -2.0154 -2.8723
  622MOL0     H82074   6.464   3.509  -0.328 -2.1041  0.1579 -0.7699
  622MOL0     H82075   6.428   3.349  -0.380  0.1683 -1.0680  0.7095
  622MOL0     H82076   6.617   3.557  -0.499  1.0346 -0.6702 -0.6930
  622MOL0     H82077   6.612   3.399  -0.574 -0.8236 -1.2118  0.5336
  622MOL0     H82078   6.464   3.581  -0.674 -1.3901  3.2085  0.7428
  622MOL0     H82079   6.371   3.593  -0.534  1.3658  1.3063 -0.9827
  622MOL0     H82080   6.278   3.345  -0.587  1.6776 -2.9773 -0.3820
  622MOL0     H82081   6.416   3.321  -0.679 -0.7579 -1.4184  1.6175
  622MOL0     H82082   6.216   3.551  -0.749  0.8904  0.9455  0.3331
  622MOL0     H82083   6.329   3.472  -0.852 -1.7691 -0.9523 -3.1030
  622MOL0     H82084   6.084   3.334  -0.744  1.2103 -3.3169  0.2592
  622MOL0     H82085   6.203   3.246  -0.841  0.1921 -0.6710  2.7240
  622MOL0     H82086   6.438   3.507   0.149  0.5408  0.4228  0.8362
  622MOL0     H82087   6.573   3.653   0.285 -1.6515 -1.5043  0.5799
  622MOL0     H82088   6.700   4.104   0.324 -1.0927 -0.6123  0.4812
  622MOL0     H82089   6.820   4.245   0.473 -1.0671  0.1601 -1.5687
  622MOL0     H82090   6.424   4.213   0.467 -1.1573 -1.4224  1.6701
  622MOL0     H82091   6.158   4.209   0.401  1.8588 -2.6092  2.4553
  622MOL0     H82092   5.720   4.463   0.600  0.7918 -0.2497 -0.0293
  622MOL0     H82093   5.493   4.405   0.553  0.6015  1.3640 -0.5859
  622MOL0     H82094   5.342   4.245   0.515 -2.6321 -5.1012 -0.6958
  622MOL0     H82095   5.228   4.195   0.394 -0.1063  1.1396 -1.6258
  622MOL0     H82096   5.143   4.383   0.528 -3.1320 -3.0291 -2.1498
  622MOL0     H82097   5.286   4.481   0.467 -1.5040 -0.8598  2.3191
  622MOL0     H82098   5.212   4.464   0.240  0.1221 -1.4577 -0.6351
  622MOL0     H82099   5.081   4.522   0.352 -3.3215 -1.2088 -0.6662
  622MOL0     H82100   4.992   4.360   0.182  1.5392 -1.1470 -0.9738
  622MOL0     H82101   5.118   4.252   0.226  1.5432  2.0151 -0.5117
  622MOL0     H82102   4.843   4.190   0.548 -0.5849  3.3273  0.3003
  622MOL0     H82103   5.597   4.297   0.149 -2.4595 -1.9306  0.9614
  622MOL0     H82104   5.812   4.393   0.183 -1.9938  0.1739 -1.7383
  623MOL0     O82105   4.237   7.558   0.648  0.2202 -0.3747 -0.5883
  623MOL0     C82106   4.132   7.538   0.704 -0.4687 -0.1510  0.1870
  623MOL0     O82107   4.018   7.536   0.634 -0.6446  0.3106 -0.2861
  623MOL0     C82108   4.023   7.548   0.498 -0.1127  0.3604  0.0796
  623MOL0     C82109   4.076   7.437   0.430  0.4262  0.5583 -0.1677
  623MOL0     C82110   4.074   7.445   0.288 -0.6652 -0.5703  0.1980
  623MOL0     C82111   4.026   7.559   0.213  0.2707 -0.0582 -0.8368
  623MOL0     O82112   4.021   7.569   0.079 -0.4594  0.2687 -0.2048
  623MOL0     C82113   4.146   7.539   0.011  0.9939 -0.2784  0.4156
  623MOL0     C82114   4.165   7.617  -0.125 -0.5748 -0.0142  0.9337
  623MOL0     C82115   4.290   7.591  -0.210  0.5066  0.2375 -0.8020
  623MOL0     C82116   4.258   7.593  -0.361 -0.2677  0.4293  0.0043
  623MOL0     C82117   4.384   7.523  -0.433  0.1475 -0.4821  0.0356
  623MOL0     C82118   4.363   7.524  -0.586  0.6228  0.6903 -0.3034
  623MOL0     C82119   4.427   7.402  -0.653  0.1011 -0.0836 -0.8784
  623MOL0     C82120   4.343   7.270  -0.638 -0.2248  0.8409 -0.7296
  623MOL0     N82121   4.381   7.153  -0.719  0.2783  0.4216  0.2568
  623MOL0     C82122   4.352   7.144  -0.852 -0.1325 -0.2215  1.2729
  623MOL0     C82123   4.429   7.046  -0.894  0.6450  0.9322 -0.3346
  623MOL0     C82124   4.446   6.985  -1.035  0.3031  0.2139 -0.0001
  623MOL0     C82125   4.324   6.992  -1.134  0.0701  0.2057  0.1177
  623MOL0     C82126   4.346   6.891  -1.254  0.2612 -0.6177 -0.6677
  623MOL0     C82127   4.242   6.912  -1.367  0.3569 -0.3884  0.4032
  623MOL0     O82128   4.106   6.920  -1.313 -0.2714  0.4492  1.1110
  623MOL0     C82129   4.005   6.956  -1.397 -0.2929 -0.1476  0.0792
  623MOL0     C82130   3.885   6.978  -1.339  0.7566 -0.2126  0.0673
  623MOL0     C82131   3.776   7.025  -1.419  0.5377 -0.0968  0.0698
  623MOL0     C82132   3.785   7.062  -1.549 -0.1425 -0.5638  0.0802
  623MOL0     C82133   3.675   7.119  -1.619  0.4510  1.1262 -0.2591
  623MOL0     O82134   3.682   7.126  -1.761  0.8659 -0.4483  0.6446
  623MOL0     C82135   3.601   7.222  -1.822 -0.1503 -0.0079  0.0701
  623MOL0     C82136   3.659   7.316  -1.904  0.1614 -0.1277  0.0103
  623MOL0     C82137   3.576   7.409  -1.975 -0.4147  0.6404  0.0560
  623MOL0     C82138   3.431   7.415  -1.956 -0.6779  0.6134 -0.5271
  623MOL0     O82139   3.338   7.499  -2.020  0.5570  0.2027 -0.0026
  623MOL0     C82140   3.372   7.601  -2.111  0.2912 -0.6197  0.2259
  623MOL0     C82141   3.253   7.615  -2.209 -0.1794 -0.3124  0.3717
  623MOL0     C82142   3.254   7.750  -2.273  0.0593 -0.3225 -0.4835
  623MOL0     C82143   3.347   7.768  -2.390  0.6513  0.1054  1.4105
  623MOL0     C82144   3.395   7.913  -2.403  0.0672  0.2366 -1.0910
  623MOL0     C82145   3.498   7.939  -2.514  0.1680  0.9752 -0.0602
  623MOL0     C82146   3.540   8.082  -2.508 -0.7973 -0.1873  1.0743
  623MOL0     C82147   3.683   8.098  -2.448  0.3787  0.0052 -0.5773
  623MOL0    Cl82148   3.812   8.067  -2.563 -0.5448 -0.4220  0.4349
  623MOL0     C82149   3.380   7.317  -1.875  0.5417  0.2195  1.2871
  623MOL0     C82150   3.465   7.218  -1.820 -0.6371  0.2296 -0.3822
  623MOL0     O82151   3.570   7.145  -1.553  0.0462  0.5721 -0.6435
  623MOL0     C82152   3.916   7.047  -1.606  0.3276  0.9756 -0.1554
  623MOL0     C82153   4.023   6.998  -1.533 -0.4279  0.5887 -0.0824
  623MOL0     N82154   4.500   6.999  -0.785 -0.5892 -0.3102 -0.5120
  623MOL0     N82155   4.477   7.065  -0.687  0.5304 -0.6778  0.3268
  623MOL0     C82156   3.976   7.669   0.289 -0.2241  1.0566  0.8991
  623MOL0     C82157   3.963   7.659   0.426 -0.6447  0.2873 -0.2105
  623MOL0     C82158   4.123   7.510   0.844 -0.0577  0.6120  0.4918
  623MOL0     C82159   4.214   7.438   0.917  0.0681 -0.3204  0.4652
  623MOL0     C82160   4.214   7.419   1.051 -1.0477 -0.0747  0.1197
  623MOL0     C82161   4.119   7.478   1.124  0.4141 -0.0004 -0.1526
  623MOL0     O82162   4.128   7.460   1.263  0.3934  0.5638  0.3366
  623MOL0     C82163   4.044   7.541   1.352 -0.0765  0.6272 -0.8084
  623MOL0     C82164   4.135   7.618   1.456 -0.8625  1.0159 -0.8512
  623MOL0     C82165   4.230   7.723   1.389  0.3018  0.8110 -0.3908
  623MOL0     C82166   4.333   7.799   1.473  0.2766 -0.6343  0.2628
  623MOL0     C82167   4.404   7.897   1.398 -1.0747  1.1151  0.6204
  623MOL0     C82168   4.449   8.006   1.363 -0.2848  0.9971  0.4900
  623MOL0     C82169   4.013   7.542   1.052  0.0457  1.2017  0.5642
  623MOL0     C82170   4.013   7.562   0.916  0.2695 -0.1434  0.7234
  623MOL0     H82171   4.101   7.345   0.480 -0.0883 -0.0779 -1.0504
  623MOL0     H82172   4.093   7.348   0.243 -1.1018 -0.4396 -0.2794
  623MOL0     H82173   4.159   7.431   0.001 -1.3688 -0.5405 -0.4027
  623MOL0     H82174   4.224   7.589   0.070 -0.5351  2.1166  0.5308
  623MOL0     H82175   4.165   7.725  -0.110  2.7775 -0.0486  1.8887
  623MOL0     H82176   4.074   7.595  -0.181 -1.5698  2.1218  1.6308
  623MOL0     H82177   4.335   7.494  -0.186 -0.6287 -0.2121 -0.3937
  623MOL0     H82178   4.356   7.672  -0.178 -3.8002  3.5060  0.7194
  623MOL0     H82179   4.156   7.556  -0.378 -0.1142 -0.8740  1.5854
  623MOL0     H82180   4.248   7.694  -0.401  0.8044  0.9587  1.0046
  623MOL0     H82181   4.379   7.423  -0.391  0.9052  0.0921  1.5471
  623MOL0     H82182   4.475   7.577  -0.406 -0.7681  0.3328  1.6146
  623MOL0     H82183   4.401   7.619  -0.625  0.3077  0.2082 -1.8679
  623MOL0     H82184   4.259   7.522  -0.621  1.7792 -3.5899 -4.7233
  623MOL0     H82185   4.443   7.442  -0.754  1.3871 -1.4008 -1.2431
  623MOL0     H82186   4.525   7.379  -0.609 -0.4863  1.3555  1.3702
  623MOL0     H82187   4.244   7.293  -0.680 -1.2329 -3.5963 -1.2293
  623MOL0     H82188   4.329   7.232  -0.536 -0.8184  0.9705 -0.7565
  623MOL0     H82189   4.287   7.209  -0.909 -2.2693 -2.0289  1.5135
  623MOL0     H82190   4.474   6.879  -1.036  0.4195  0.2308  0.9312
  623MOL0     H82191   4.519   7.042  -1.095 -0.4575  1.1130 -0.0856
  623MOL0     H82192   4.323   7.092  -1.178 -0.4458 -0.0298 -0.4187
  623MOL0     H82193   4.228   6.974  -1.086 -0.8595 -0.9324 -2.0299
  623MOL0     H82194   4.448   6.911  -1.287  0.9123 -0.2948  1.3784
  623MOL0     H82195   4.346   6.785  -1.226 -1.0193  0.2693  3.2982
  623MOL0     H82196   4.246   6.821  -1.428  0.3406 -0.8854  1.1294
  623MOL0     H82197   4.255   7.007  -1.420  1.5619  0.2434  1.7568
  623MOL0     H82198   3.862   6.942  -1.240 -2.4132  0.9433 -0.1260
  623MOL0     H82199   3.681   7.039  -1.369  0.4411 -2.7846  0.8237
  623MOL0     H82200   3.767   7.318  -1.896  0.2878 -1.6809 -0.8583
  623MOL0     H82201   3.616   7.484  -2.043 -2.2269 -0.1744 -2.0637
  623MOL0     H82202   3.456   7.566  -2.172 -1.1740 -0.8655 -1.7532
  623MOL0     H82203   3.392   7.690  -2.052  2.2661  0.4693 -1.9268
  623MOL0     H82204   3.156   7.619  -2.159 -2.5837  2.3561 -3.9364
  623MOL0     H82205   3.264   7.546  -2.293  0.2694 -1.6755  1.4998
  623MOL0     H82206   3.286   7.817  -2.192 -1.0090 -0.3880  0.0040
  623MOL0     H82207   3.157   7.773  -2.317 -1.3437 -2.3410  1.3533
  623MOL0     H82208   3.432   7.700  -2.384  1.3771  0.7857 -0.4686
  623MOL0     H82209   3.298   7.740  -2.484  1.8596  0.4075  0.6703
  623MOL0     H82210   3.446   7.925  -2.307  1.6778 -3.0307 -1.3828
  623MOL0     H82211   3.300   7.967  -2.414 -1.0702 -1.4597  0.0792
  623MOL0     H82212   3.448   7.917  -2.609 -2.4462  1.2528  1.1627
  623MOL0     H82213   3.584   7.872  -2.501  0.0437  0.1688 -2.7354
  623MOL0     H82214   3.539   8.109  -2.614 -1.9050  0.2129  1.1673
  623MOL0     H82215   3.475   8.153  -2.456 -2.2271  1.3404 -2.4126
  623MOL0     H82216   3.700   8.034  -2.361 -3.5607  0.0221  0.3936
  623MOL0     H82217   3.703   8.203  -2.423  3.7991  0.9563 -5.8028
  623MOL0     H82218   3.272   7.306  -1.878  0.1843  2.9022 -1.6018
  623MOL0     H82219   3.423   7.132  -1.769  1.6726  0.9401  3.0981
  623MOL0     H82220   3.934   7.068  -1.711 -2.2843 -2.3196 -1.4430
  623MOL0     H82221   4.109   6.982  -1.596 -0.4268  1.7580 -0.4103
  623MOL0     H82222   3.938   7.750   0.228 -2.2548  0.0897  0.7674
  623MOL0     H82223   3.911   7.747   0.462  0.6607  0.6445  0.8973
  623MOL0     H82224   4.294   7.405   0.852 -0.5260 -0.9737  0.0615
  623MOL0     H82225   4.296   7.375   1.106 -0.7221  0.4516  0.0669
  623MOL0     H82226   3.981   7.470   1.407  0.8537  0.3122 -0.1197
  623MOL0     H82227   3.995   7.621   1.296  0.7462  3.8607  2.6963
  623MOL0     H82228   4.073   7.655   1.538  2.1063 -2.2186  3.2675
  623MOL0     H82229   4.193   7.539   1.503 -0.9877  1.3334 -0.1395
  623MOL0     H82230   4.163   7.794   1.340 -2.6428  0.1531  2.3266
  623MOL0     H82231   4.286   7.684   1.304 -2.0876 -2.4485 -0.6863
  623MOL0     H82232   4.286   7.854   1.555 -0.5399 -1.0086  0.0547
  623MOL0     H82233   4.405   7.732   1.522  2.1457 -0.2283 -1.7770
  623MOL0     H82234   4.478   8.106   1.338  0.9800  1.6305  3.9915
  623MOL0     H82235   3.932   7.584   1.110 -0.5095 -0.5558  1.1360
  623MOL0     H82236   3.938   7.621   0.865 -1.5719 -1.2316  2.0258
  624MOL0     O82237   4.764   4.955   2.462  0.4519  0.0409  0.1870
  624MOL0     C82238   4.767   5.024   2.570  0.1994  0.8678 -0.2834
  624MOL0     O82239   4.692   5.003   2.683  0.3008 -0.3386 -0.1594
  624MOL0     C82240   4.593   4.907   2.711 -0.6632 -0.1775  0.8534
  624MOL0     C82241   4.555   4.803   2.625 -1.4164  0.0332  0.2751
  624MOL0     C82242   4.466   4.708   2.670  0.5448  0.6597 -0.3776
  624MOL0     C82243   4.412   4.716   2.801  0.1220 -0.1944  0.5011
  624MOL0     O82244   4.320   4.631   2.854 -0.4169  0.1880  0.1797
  624MOL0     C82245   4.273   4.519   2.783  0.7186 -0.0421  0.4942
  624MOL0     C82246   4.362   4.392   2.797  1.1213  0.8919  0.0725
  624MOL0     C82247   4.418   4.370   2.940  0.4165  0.2279  0.2871
  624MOL0     C82248   4.497   4.233   2.944  0.9808 -0.5441 -0.3417
  624MOL0     C82249   4.411   4.108   2.943 -0.1276 -0.5209 -0.0626
  624MOL0     C82250   4.479   3.984   2.890 -0.7845 -0.5859 -0.1312
  624MOL0     C82251   4.411   3.864   2.924  0.2828 -0.8286  0.0706
  624MOL0     C82252   4.477   3.736   2.870  0.7174  0.3790 -0.4128
  624MOL0     N82253   4.619   3.708   2.915  0.0664 -0.1283  0.7935
  624MOL0     C82254   4.662   3.675   3.039  0.4576 -0.0869  0.3456
  624MOL0     C82255   4.798   3.661   3.024 -0.8063  0.0095 -0.6247
  624MOL0     C82256   4.903   3.622   3.127 -0.4759 -0.1612 -0.9147
  624MOL0     C82257   4.941   3.727   3.234 -0.9617  0.3604 -0.0855
  624MOL0     C82258   4.827   3.766   3.329 -0.2146 -0.3388  0.5917
  624MOL0     C82259   4.798   3.654   3.434  0.6897 -0.7079  0.6686
  624MOL0     O82260   4.684   3.574   3.400  0.0557  0.0244  0.0177
  624MOL0     C82261   4.677   3.441   3.437  0.5941 -0.5124 -0.5588
  624MOL0     C82262   4.767   3.374   3.518  0.6323  0.5160 -0.5835
  624MOL0     C82263   4.763   3.241   3.536  0.7471  0.4520  0.0217
  624MOL0     C82264   4.648   3.161   3.502 -0.6715 -0.1579 -0.0922
  624MOL0     C82265   4.631   3.017   3.540  0.1940  0.5935  0.3359
  624MOL0     O82266   4.737   2.955   3.611 -0.4897 -0.2077  0.5961
  624MOL0     C82267   4.719   2.820   3.654 -0.8537 -0.3720  0.2456
  624MOL0     C82268   4.602   2.762   3.686  0.5917 -0.9472  0.1460
  624MOL0     C82269   4.598   2.646   3.772 -0.6493 -0.5126 -0.1499
  624MOL0     C82270   4.710   2.569   3.801  0.0943 -0.5389 -0.8958
  624MOL0     O82271   4.686   2.453   3.865 -0.0643 -0.8410 -1.2607
  624MOL0     C82272   4.787   2.367   3.916 -0.0132 -0.0741  0.4872
  624MOL0     C82273   4.723   2.233   3.981  1.1170 -0.2289  0.2737
  624MOL0     C82274   4.661   2.143   3.874  0.2299 -0.6885 -0.3270
  624MOL0     C82275   4.703   2.164   3.728  0.0725 -0.9296  0.6112
  624MOL0     C82276   4.654   2.041   3.648  0.0545 -0.6197 -0.1626
  624MOL0     C82277   4.697   2.043   3.502  0.4920  0.9098 -0.1207
  624MOL0     C82278   4.601   1.949   3.426 -0.9257  0.4990  1.1709
  624MOL0     C82279   4.630   1.977   3.274  0.0347  0.3522 -0.0678
  624MOL0    Cl82280   4.560   2.136   3.236  0.1406 -0.0391  0.2304
  624MOL0     C82281   4.835   2.616   3.758  0.2872 -0.7805 -0.4642
  624MOL0     C82282   4.841   2.741   3.685  0.5488  0.4049  0.2482
  624MOL0     O82283   4.530   2.962   3.499  0.9266 -0.2977  0.5521
  624MOL0     C82284   4.546   3.228   3.431  0.5235 -0.4081 -0.1944
  624MOL0     C82285   4.562   3.365   3.393  0.1824 -0.5353  0.5191
  624MOL0     N82286   4.831   3.682   2.893 -0.0010 -0.1603  0.3091
  624MOL0     N82287   4.723   3.718   2.830 -0.0543  0.3247  0.4020
  624MOL0     C82288   4.447   4.815   2.887 -0.4292 -0.2043 -1.1676
  624MOL0     C82289   4.534   4.923   2.839 -0.0101  0.1332 -0.4942
  624MOL0     C82290   4.877   5.116   2.592  0.8156 -0.9196 -0.4892
  624MOL0     C82291   4.874   5.208   2.701 -0.3559 -0.3868  0.6021
  624MOL0     C82292   4.988   5.285   2.736 -0.7448 -0.8063  1.0192
  624MOL0     C82293   5.105   5.283   2.664  1.2158 -0.3761 -0.1880
  624MOL0     O82294   5.224   5.347   2.696  0.3955 -0.1937  0.4103
  624MOL0     C82295   5.251   5.406   2.822  1.3339  0.8039 -0.1259
  624MOL0     C82296   5.393   5.450   2.833 -0.5160  0.8048  0.1257
  624MOL0     C82297   5.488   5.331   2.796  0.6745 -0.4774 -0.5523
  624MOL0     C82298   5.632   5.363   2.857  0.1085  0.8629  0.4179
  624MOL0     C82299   5.720   5.252   2.890 -0.7149  0.4663  0.2132
  624MOL0     C82300   5.775   5.144   2.901  0.0648 -1.0621 -1.3210
  624MOL0     C82301   5.107   5.196   2.550 -0.1137  0.3366 -0.3325
  624MOL0     C82302   4.995   5.109   2.515 -0.3295  0.0170  0.6236
  624MOL0     H82303   4.604   4.800   2.529 -2.5392  1.5206 -0.3892
  624MOL0     H82304   4.448   4.628   2.599  1.3039  2.2595 -2.4557
  624MOL0     H82305   4.280   4.551   2.678  0.4190 -0.2644  0.4043
  624MOL0     H82306   4.166   4.502   2.800 -0.2948  1.1717 -3.4779
  624MOL0     H82307   4.447   4.393   2.728  1.0868 -0.8113 -0.0440
  624MOL0     H82308   4.303   4.304   2.769  2.4778 -0.8371  2.3839
  624MOL0     H82309   4.335   4.359   3.010 -0.7647  0.2027 -1.0780
  624MOL0     H82310   4.480   4.451   2.979  0.2802 -1.0296  3.3616
  624MOL0     H82311   4.549   4.242   2.849 -0.0664  3.2307 -0.7244
  624MOL0     H82312   4.565   4.231   3.030  1.2337  0.8659 -0.4811
  624MOL0     H82313   4.325   4.126   2.878 -0.8060 -2.6489  0.1907
  624MOL0     H82314   4.391   4.087   3.049  1.6807 -0.8506  0.2380
  624MOL0     H82315   4.581   3.987   2.930  1.1338  1.5914 -4.4884
  624MOL0     H82316   4.500   3.988   2.782  1.7983 -0.1377  0.3043
  624MOL0     H82317   4.401   3.854   3.033  3.8765  0.7321  0.7199
  624MOL0     H82318   4.311   3.871   2.881  0.7191  2.0303 -0.6887
  624MOL0     H82319   4.466   3.718   2.763 -0.9954 -1.8056  0.0527
  624MOL0     H82320   4.419   3.650   2.905  2.0448 -0.0478  0.8199
  624MOL0     H82321   4.611   3.676   3.136 -1.8738  1.5060 -0.7974
  624MOL0     H82322   4.995   3.609   3.069  0.3404  1.2540 -0.0015
  624MOL0     H82323   4.876   3.530   3.179  0.7858 -2.3687 -3.8554
  624MOL0     H82324   4.972   3.819   3.183  0.6450 -0.3094 -0.3795
  624MOL0     H82325   5.025   3.687   3.292 -1.0067  1.0707  0.4762
  624MOL0     H82326   4.851   3.860   3.381 -0.5826 -1.9780  3.9992
  624MOL0     H82327   4.743   3.787   3.262  0.8675  1.3506 -0.3245
  624MOL0     H82328   4.771   3.703   3.528  2.0628  0.4637  0.4956
  624MOL0     H82329   4.888   3.598   3.459  2.4604  1.8917  0.4952
  624MOL0     H82330   4.854   3.422   3.562  0.0517 -2.2123  4.2496
  624MOL0     H82331   4.836   3.181   3.590  1.2357 -1.5578 -2.6434
  624MOL0     H82332   4.503   2.804   3.669 -0.1300 -2.6459 -0.0143
  624MOL0     H82333   4.503   2.600   3.796 -0.2256 -1.6570 -0.5726
  624MOL0     H82334   4.839   2.417   3.998 -1.8150 -0.5323  1.9702
  624MOL0     H82335   4.864   2.339   3.843 -1.4000  1.5264 -1.7208
  624MOL0     H82336   4.651   2.265   4.056 -1.4579 -2.2851 -1.1388
  624MOL0     H82337   4.802   2.180   4.036  2.9106  1.1309 -0.8476
  624MOL0     H82338   4.554   2.166   3.880  0.7844  1.8624  2.4138
  624MOL0     H82339   4.670   2.037   3.900  1.0802 -0.1660  1.7458
  624MOL0     H82340   4.642   2.245   3.688  1.9819 -0.4758 -1.5698
  624MOL0     H82341   4.803   2.195   3.698  0.0595  0.4332  1.8480
  624MOL0     H82342   4.546   2.028   3.663 -0.0284 -1.4301 -1.3454
  624MOL0     H82343   4.696   1.953   3.699 -0.5752  0.8060  3.0736
  624MOL0     H82344   4.800   2.005   3.496  0.0017 -1.2418  2.6411
  624MOL0     H82345   4.694   2.144   3.463  1.9004  1.0944  0.1767
  624MOL0     H82346   4.628   1.848   3.457  2.7030  0.0930 -2.4086
  624MOL0     H82347   4.498   1.983   3.442 -1.2862  0.1284 -0.2552
  624MOL0     H82348   4.579   1.903   3.212  1.9305  0.1579 -1.4879
  624MOL0     H82349   4.738   1.965   3.257 -0.6560 -3.9728 -2.9166
  624MOL0     H82350   4.918   2.548   3.770 -0.4481 -1.5130  0.6674
  624MOL0     H82351   4.936   2.778   3.649  0.1820 -1.4676 -2.9655
  624MOL0     H82352   4.461   3.171   3.397  1.4259 -0.8254 -1.8509
  624MOL0     H82353   4.488   3.426   3.343  0.4101  0.4939  1.4067
  624MOL0     H82354   4.386   4.827   2.976  2.4735  1.1682  0.7892
  624MOL0     H82355   4.552   5.009   2.903 -2.1487  0.6281 -0.4719
  624MOL0     H82356   4.788   5.224   2.765  0.4954  0.5720  1.5538
  624MOL0     H82357   4.961   5.360   2.810 -1.0423 -0.3889  0.4966
  624MOL0     H82358   5.242   5.326   2.896 -0.6951  0.2681 -0.8918
  624MOL0     H82359   5.177   5.482   2.849 -0.5747 -1.4619  1.4390
  624MOL0     H82360   5.407   5.539   2.771  1.3055  1.4077  1.3311
  624MOL0     H82361   5.405   5.487   2.936  0.2169  0.0875  0.3119
  624MOL0     H82362   5.506   5.316   2.689 -2.0509  0.4034 -1.2361
  624MOL0     H82363   5.442   5.241   2.836 -0.5219  0.5304  0.4294
  624MOL0     H82364   5.683   5.409   2.771  2.0431 -1.3017  0.2954
  624MOL0     H82365   5.631   5.420   2.950 -2.3063 -0.3596  1.2136
  624MOL0     H82366   5.802   5.043   2.924  0.3153 -0.4600  1.3998
  624MOL0     H82367   5.195   5.184   2.489  0.4025 -3.9244  0.9564
  624MOL0     H82368   5.009   5.040   2.433  0.7904  1.5956 -0.5677
  625MOL0     O82369   7.203   8.553   3.433  1.0374  0.4010 -0.0186
  625MOL0     C82370   7.185   8.586   3.313 -0.6158  0.4856 -0.2439
  625MOL0     O82371   7.175   8.501   3.212  0.1036 -0.1465  0.1285
  625MOL0     C82372   7.168   8.368   3.232  0.2232 -0.1939  0.2626
  625MOL0     C82373   7.252   8.287   3.160  0.9820 -0.0397  0.1634
  625MOL0     C82374   7.241   8.143   3.164  0.1038 -0.1610  0.6448
  625MOL0     C82375   7.147   8.090   3.250 -0.6595 -0.2298 -0.0294
  625MOL0     O82376   7.135   7.952   3.248 -0.1078 -0.4840  0.6587
  625MOL0     C82377   7.061   7.875   3.349 -0.4458 -0.4218  0.7167
  625MOL0     C82378   7.071   7.721   3.323 -0.4109  0.1830 -0.8367
  625MOL0     C82379   7.204   7.665   3.363 -0.9302 -0.4790  0.1691
  625MOL0     C82380   7.219   7.522   3.319 -0.0145  0.1514  0.1376
  625MOL0     C82381   7.325   7.444   3.394  0.0325 -0.4898 -0.8023
  625MOL0     C82382   7.456   7.492   3.344 -0.4998 -0.0150 -0.2417
  625MOL0     C82383   7.560   7.455   3.435  0.4774  0.3660  0.2069
  625MOL0     C82384   7.697   7.494   3.378 -0.0771  0.3055  0.5385
  625MOL0     N82385   7.816   7.492   3.462  0.6916  0.0698  1.0009
  625MOL0     C82386   7.944   7.500   3.416  1.5127  0.3408  0.3678
  625MOL0     C82387   8.026   7.469   3.522  0.9461  0.3812 -0.2763
  625MOL0     C82388   8.176   7.444   3.519  0.6357  0.9509  1.3719
  625MOL0     C82389   8.262   7.487   3.643  0.3886 -0.0743  0.5784
  625MOL0     C82390   8.227   7.632   3.691  0.3489  0.0362 -0.3255
  625MOL0     C82391   8.328   7.678   3.787  0.1312  0.4929 -1.4471
  625MOL0     O82392   8.336   7.596   3.898 -0.0253 -0.3188 -0.1655
  625MOL0     C82393   8.389   7.636   4.018 -1.1252 -0.2870  0.2966
  625MOL0     C82394   8.378   7.555   4.127 -0.2988  0.5955 -0.2702
  625MOL0     C82395   8.408   7.587   4.256  0.5879 -0.4177 -0.3343
  625MOL0     C82396   8.463   7.713   4.287 -0.6399  0.6242 -0.1517
  625MOL0     C82397   8.490   7.761   4.432 -0.9949  0.4287  0.4182
  625MOL0     O82398   8.461   7.667   4.534 -0.6790  0.3025 -0.2491
  625MOL0     C82399   8.511   7.700   4.657  0.7099 -0.4924 -0.1911
  625MOL0     C82400   8.592   7.612   4.711  0.6970 -0.6165  0.1988
  625MOL0     C82401   8.619   7.620   4.844  0.3720 -0.0441  1.2718
  625MOL0     C82402   8.576   7.726   4.925  0.4082 -0.8363  0.8582
  625MOL0     O82403   8.645   7.733   5.043  0.0769 -0.0930 -0.2863
  625MOL0     C82404   8.643   7.850   5.121  0.3895 -0.3709 -0.4566
  625MOL0     C82405   8.666   7.804   5.270 -0.0246 -0.4892 -0.3303
  625MOL0     C82406   8.814   7.789   5.321 -0.5304 -0.7633  0.3170
  625MOL0     C82407   8.878   7.928   5.332 -0.6699 -0.9682 -0.4206
  625MOL0     C82408   9.011   7.926   5.409  0.3896  0.1279  0.1590
  625MOL0     C82409   9.101   8.045   5.373 -0.6877 -0.0388  0.7814
  625MOL0     C82410   9.044   8.187   5.399 -0.1036  0.8030  0.9859
  625MOL0     C82411   9.170   8.277   5.438 -0.9483 -1.3444 -0.6136
  625MOL0    Cl82412   9.129   8.456   5.416 -0.3425  0.4948 -0.1846
  625MOL0     C82413   8.494   7.830   4.873 -0.1288  0.3912  0.2270
  625MOL0     C82414   8.459   7.809   4.735  0.1141  0.8024 -0.7196
  625MOL0     O82415   8.547   7.874   4.441  0.0700 -0.0657  0.1973
  625MOL0     C82416   8.485   7.800   4.180 -0.6605  0.6432 -0.5854
  625MOL0     C82417   8.459   7.761   4.050 -1.5632  0.2127 -0.3188
  625MOL0     N82418   7.937   7.451   3.626 -0.5737 -0.0088  0.3883
  625MOL0     N82419   7.813   7.471   3.598  0.2327  0.6036  0.1819
  625MOL0     C82420   7.080   8.171   3.340 -0.5327  0.1990 -0.9034
  625MOL0     C82421   7.076   8.310   3.330  0.0549 -1.1493 -0.1525
  625MOL0     C82422   7.223   8.734   3.294  1.1191  0.2792 -0.1518
  625MOL0     C82423   7.168   8.805   3.188 -0.1213  1.0243  0.4767
  625MOL0     C82424   7.216   8.938   3.166  0.6290  0.6727 -0.2512
  625MOL0     C82425   7.301   9.002   3.262  0.3011 -0.0044 -0.0540
  625MOL0     O82426   7.342   9.133   3.230  0.4547  0.2855  0.6653
  625MOL0     C82427   7.452   9.193   3.294  0.2971  0.4678 -0.5035
  625MOL0     C82428   7.489   9.317   3.218  0.1690  0.2948  0.0951
  625MOL0     C82429   7.391   9.432   3.213  0.9664 -0.3261  0.5917
  625MOL0     C82430   7.391   9.500   3.070 -0.6132  0.3267 -0.0327
  625MOL0     C82431   7.290   9.605   3.069 -0.1660  0.0034  0.5436
  625MOL0     C82432   7.211   9.692   3.063 -0.2592  0.1964 -0.1560
  625MOL0     C82433   7.338   8.923   3.370 -0.2738 -0.3593  0.2873
  625MOL0     C82434   7.303   8.796   3.389 -0.0796  0.8185  0.0380
  625MOL0     H82435   7.320   8.325   3.085  1.5774  0.0754  0.7462
  625MOL0     H82436   7.286   8.070   3.098  3.9859  1.0773  1.6469
  625MOL0     H82437   6.955   7.896   3.332 -0.0583 -0.6825 -2.9727
  625MOL0     H82438   7.097   7.896   3.450 -2.0464 -0.2356  1.2751
  625MOL0     H82439   7.039   7.712   3.219  0.0957  2.5856 -1.2490
  625MOL0     H82440   7.010   7.673   3.400  1.8741  1.3240  1.8677
  625MOL0     H82441   7.224   7.676   3.470 -2.2691 -0.6825  0.4606
  625MOL0     H82442   7.283   7.717   3.310 -0.7464 -2.1847 -1.3260
  625MOL0     H82443   7.125   7.470   3.340  1.2792 -1.5403  2.2463
  625MOL0     H82444   7.241   7.512   3.212  1.4843  0.9782  0.3528
  625MOL0     H82445   7.304   7.338   3.376  3.8166 -1.0941 -2.6822
  625MOL0     H82446   7.315   7.462   3.502 -0.7331 -1.5172 -0.6919
  625MOL0     H82447   7.460   7.600   3.326  0.3477 -0.2926 -1.9397
  625MOL0     H82448   7.475   7.451   3.245 -0.3846  2.1244 -1.1797
  625MOL0     H82449   7.535   7.521   3.518 -3.2684  0.0636 -0.5056
  625MOL0     H82450   7.551   7.351   3.467  0.4224  0.4426  0.4387
  625MOL0     H82451   7.696   7.597   3.340 -2.5678 -0.5008 -1.9787
  625MOL0     H82452   7.723   7.429   3.293  4.4816  0.1275  1.8126
  625MOL0     H82453   7.963   7.526   3.312 -2.1593 -4.0371 -1.7655
  625MOL0     H82454   8.211   7.500   3.432 -3.0644  0.5549 -0.5727
  625MOL0     H82455   8.193   7.338   3.500 -0.6344  0.8759  0.4905
  625MOL0     H82456   8.368   7.465   3.624  0.5348 -0.5464  1.8158
  625MOL0     H82457   8.246   7.414   3.723  0.4754 -1.6555 -0.7948
  625MOL0     H82458   8.251   7.709   3.616 -0.5359  2.0074  1.3023
  625MOL0     H82459   8.125   7.640   3.729  0.1794  2.7637 -1.1421
  625MOL0     H82460   8.307   7.780   3.820 -0.2335 -0.3546  1.1308
  625MOL0     H82461   8.424   7.670   3.735  0.3348 -3.3805 -0.8123
  625MOL0     H82462   8.323   7.463   4.112 -1.3320  1.4630 -2.1632
  625MOL0     H82463   8.395   7.511   4.332 -0.1670  2.2224  2.4118
  625MOL0     H82464   8.619   7.527   4.649 -1.8188 -0.4358 -1.3261
  625MOL0     H82465   8.688   7.540   4.873  1.4314 -0.0352 -1.0169
  625MOL0     H82466   8.553   7.909   5.140  2.0697  2.3285 -0.3318
  625MOL0     H82467   8.722   7.916   5.084  0.5314  1.3093  2.5533
  625MOL0     H82468   8.617   7.707   5.278  1.7006 -1.3375  0.3667
  625MOL0     H82469   8.608   7.874   5.331 -0.2906 -0.0503 -1.0756
  625MOL0     H82470   8.867   7.715   5.260 -1.8502 -0.2179 -1.5727
  625MOL0     H82471   8.810   7.747   5.422  1.0781  1.7128  1.4918
  625MOL0     H82472   8.899   7.967   5.232  1.4592 -1.0678 -0.0641
  625MOL0     H82473   8.808   8.000   5.375  1.9079  2.0088 -0.8131
  625MOL0     H82474   9.064   7.834   5.385 -0.1011 -0.6924  2.0392
  625MOL0     H82475   8.994   7.933   5.517 -1.4167 -1.2659  0.0221
  625MOL0     H82476   9.126   8.026   5.268 -1.5825  0.9276  0.3840
  625MOL0     H82477   9.197   8.034   5.425  0.9043 -2.4721 -2.3262
  625MOL0     H82478   8.979   8.216   5.316 -0.6545  0.4823  1.2995
  625MOL0     H82479   8.986   8.187   5.492  0.5298  1.1806  1.3839
  625MOL0     H82480   9.249   8.256   5.364 -2.0411 -3.1611 -1.3321
  625MOL0     H82481   9.201   8.265   5.542  0.5214 -0.6241 -0.9456
  625MOL0     H82482   8.460   7.921   4.922 -0.3286  2.5324 -3.5445
  625MOL0     H82483   8.376   7.868   4.697  0.3885 -0.5180 -3.5654
  625MOL0     H82484   8.522   7.900   4.202  0.3286  0.2080 -0.2244
  625MOL0     H82485   8.478   7.839   3.977  1.1490 -1.5855 -1.6891
  625MOL0     H82486   7.010   8.145   3.419  1.8878  0.0914  1.3410
  625MOL0     H82487   7.014   8.376   3.389  1.3719  0.1214 -0.1342
  625MOL0     H82488   7.097   8.745   3.133  0.6384 -0.0720  0.6437
  625MOL0     H82489   7.192   9.007   3.086  3.5174  0.7991 -1.1187
  625MOL0     H82490   7.539   9.128   3.300  0.6216  1.0118  0.9335
  625MOL0     H82491   7.423   9.225   3.394  2.4143  1.6109 -0.2032
  625MOL0     H82492   7.588   9.354   3.244  0.5029  1.9706 -3.0639
  625MOL0     H82493   7.505   9.267   3.122 -1.2954 -1.7634  0.8404
  625MOL0     H82494   7.427   9.518   3.271  0.3674  0.4502 -0.1611
  625MOL0     H82495   7.292   9.404   3.249  1.0272  1.3684  2.2298
  625MOL0     H82496   7.487   9.550   3.056  1.5972 -4.0388 -2.3131
  625MOL0     H82497   7.364   9.422   2.998  0.3527 -1.1283  1.1246
  625MOL0     H82498   7.124   9.754   3.072 -0.3008  0.3054 -1.1432
  625MOL0     H82499   7.382   8.977   3.454 -1.3214  0.7192  0.1643
  625MOL0     H82500   7.348   8.743   3.472  1.7966  0.7260 -0.9677
  626MOL0     O82501   2.193   5.167   7.444  0.7900  1.3054  0.0695
  626MOL0     C82502   2.270   5.257   7.467  0.2912  0.4667  0.0357
  626MOL0     O82503   2.364   5.295   7.392  0.4354 -0.0084 -0.1392
  626MOL0     C82504   2.376   5.268   7.255  0.9053 -0.1238 -0.0250
  626MOL0     C82505   2.481   5.322   7.179 -0.0188 -0.2890  0.2146
  626MOL0     C82506   2.487   5.304   7.038  0.1139  0.0336  0.1471
  626MOL0     C82507   2.397   5.220   6.977  0.2504 -0.5690  0.6240
  626MOL0     O82508   2.389   5.181   6.839 -1.2587 -0.4537  0.4513
  626MOL0     C82509   2.510   5.184   6.762  0.6063 -0.0945  0.1765
  626MOL0     C82510   2.533   5.052   6.696 -0.6395  1.0309 -0.2918
  626MOL0     C82511   2.645   5.048   6.585 -0.1972  0.0070 -0.2397
  626MOL0     C82512   2.646   4.901   6.546 -0.3939  0.4460  0.2314
  626MOL0     C82513   2.731   4.860   6.432  0.1160 -1.0786  0.3129
  626MOL0     C82514   2.689   4.930   6.291 -0.4290  0.3119 -0.4134
  626MOL0     C82515   2.746   4.864   6.160  0.2955  0.5243 -0.4186
  626MOL0     C82516   2.688   4.918   6.035  0.1831  0.6069  0.4296
  626MOL0     N82517   2.542   4.898   6.018 -0.2717 -0.7085 -0.4572
  626MOL0     C82518   2.472   4.780   6.020 -0.8374  0.0767 -0.2283
  626MOL0     C82519   2.344   4.814   5.999  0.0063  0.2487 -0.0217
  626MOL0     C82520   2.219   4.744   5.952  0.6118 -0.3418  0.1719
  626MOL0     C82521   2.126   4.683   6.069  0.7765 -0.2235  1.0243
  626MOL0     C82522   2.074   4.783   6.159 -0.2146  0.6367  0.1647
  626MOL0     C82523   1.954   4.724   6.231 -0.1610  0.4095  0.1670
  626MOL0     O82524   1.914   4.822   6.326 -0.0179  0.8789 -0.1477
  626MOL0     C82525   1.960   4.813   6.454  0.4731 -0.2779 -0.0194
  626MOL0     C82526   1.872   4.872   6.542  0.6339 -0.3667 -0.0426
  626MOL0     C82527   1.900   4.864   6.680  1.5276  0.8786 -0.6055
  626MOL0     C82528   2.017   4.812   6.732 -0.7340  0.0061 -0.7371
  626MOL0     C82529   2.041   4.850   6.870 -0.0220  0.1293 -0.5982
  626MOL0     O82530   1.941   4.882   6.948 -0.1946  1.1636  0.4937
  626MOL0     C82531   1.937   4.942   7.075  0.0535  0.4573 -0.0769
  626MOL0     C82532   2.022   4.908   7.176 -0.2849  1.1781  0.9029
  626MOL0     C82533   2.008   4.951   7.300 -0.2378 -0.1786  0.2819
  626MOL0     C82534   1.894   5.027   7.338 -0.2919  0.1965 -0.0356
  626MOL0     O82535   1.874   5.066   7.467 -0.8047  0.6544 -0.0047
  626MOL0     C82536   1.741   5.067   7.517 -0.0045  0.2216 -0.6176
  626MOL0     C82537   1.776   5.055   7.675  0.6368 -0.1835 -0.2505
  626MOL0     C82538   1.667   5.001   7.765 -0.3581 -0.6228 -0.1523
  626MOL0     C82539   1.716   4.998   7.912  0.4758 -0.1120  0.2651
  626MOL0     C82540   1.610   5.014   8.017 -0.2109  0.4519 -0.2206
  626MOL0     C82541   1.669   4.950   8.145 -0.7299 -0.0376 -0.5525
  626MOL0     C82542   1.591   4.990   8.269 -0.3768 -0.7813 -0.5527
  626MOL0     C82543   1.639   5.123   8.335  0.6846  0.0838 -0.7947
  626MOL0    Cl82544   1.516   5.176   8.458  0.2318  0.4797 -0.2080
  626MOL0     C82545   1.810   5.063   7.239 -0.0046 -0.2756 -0.1299
  626MOL0     C82546   1.824   5.023   7.112 -0.6094  1.4542  0.6393
  626MOL0     O82547   2.151   4.836   6.908  0.0227  0.2344 -0.2544
  626MOL0     C82548   2.114   4.764   6.639 -0.1614 -0.1676  0.0673
  626MOL0     C82549   2.082   4.768   6.501 -0.3720  0.1583 -0.1974
  626MOL0     N82550   2.340   4.952   6.005  0.4942 -0.2984  0.3800
  626MOL0     N82551   2.457   4.997   6.007  0.7958 -0.4328 -0.1786
  626MOL0     C82552   2.294   5.172   7.053  0.3552 -0.8087  1.2596
  626MOL0     C82553   2.280   5.190   7.186  0.6306 -1.1585  0.2847
  626MOL0     C82554   2.265   5.318   7.602 -0.9894  0.9155  0.1615
  626MOL0     C82555   2.165   5.281   7.695  0.1248  0.5321  0.7020
  626MOL0     C82556   2.164   5.331   7.818 -0.9811  0.3109 -0.2470
  626MOL0     C82557   2.266   5.428   7.857  0.0066 -0.2140 -0.2586
  626MOL0     O82558   2.244   5.472   7.983  0.2710 -0.0572  0.4945
  626MOL0     C82559   2.345   5.463   8.084 -0.4281  0.0759 -0.0304
  626MOL0     C82560   2.384   5.322   8.132  0.2840  0.1344 -0.0608
  626MOL0     C82561   2.527   5.322   8.203  1.2577  0.1963  0.6051
  626MOL0     C82562   2.553   5.183   8.277  0.2401  0.3197 -0.2295
  626MOL0     C82563   2.617   5.190   8.414 -0.2168  0.4771 -0.0875
  626MOL0     C82564   2.688   5.198   8.513  0.5973 -1.3757  0.3325
  626MOL0     C82565   2.357   5.474   7.762  0.1308  0.0338  0.0380
  626MOL0     C82566   2.355   5.420   7.632 -0.3536 -1.0326 -0.5291
  626MOL0     H82567   2.560   5.365   7.240  1.1870 -2.5228  0.3276
  626MOL0     H82568   2.559   5.353   6.973 -1.0141  0.7485 -0.5778
  626MOL0     H82569   2.592   5.208   6.829  0.6929 -2.2815  0.9174
  626MOL0     H82570   2.511   5.261   6.684  1.9126 -2.9219 -2.8200
  626MOL0     H82571   2.442   5.022   6.643 -0.3614  0.0868 -0.2394
  626MOL0     H82572   2.543   4.972   6.769 -0.2791 -1.4700 -2.9227
  626MOL0     H82573   2.742   5.085   6.622 -1.0223  3.0949 -0.8723
  626MOL0     H82574   2.630   5.116   6.501 -1.9058  0.1654  0.1639
  626MOL0     H82575   2.672   4.840   6.634 -1.1015 -1.1096 -0.6047
  626MOL0     H82576   2.547   4.870   6.513  0.6352 -0.8691 -1.7951
  626MOL0     H82577   2.723   4.755   6.403 -3.3677 -0.7308 -0.3686
  626MOL0     H82578   2.827   4.897   6.471 -1.6362  1.9984  2.0864
  626MOL0     H82579   2.703   5.039   6.289 -0.3539  0.3017 -0.4320
  626MOL0     H82580   2.581   4.917   6.281 -0.5790  1.6115 -0.6952
  626MOL0     H82581   2.853   4.846   6.147  0.0104 -4.2291  1.7325
  626MOL0     H82582   2.710   4.760   6.156 -0.0555  0.6631 -1.1089
  626MOL0     H82583   2.733   4.871   5.946  0.2323  1.8345 -0.2102
  626MOL0     H82584   2.715   5.023   6.019  0.2378  0.4781 -0.4210
  626MOL0     H82585   2.530   4.690   6.038  1.2075  1.2202 -0.7626
  626MOL0     H82586   2.250   4.668   5.880 -0.8382  1.9486 -3.1272
  626MOL0     H82587   2.165   4.817   5.891 -1.1696 -2.2656 -0.6634
  626MOL0     H82588   2.176   4.609   6.133  0.2015  0.2618  2.0478
  626MOL0     H82589   2.051   4.631   6.008  1.8901 -0.3766 -0.2684
  626MOL0     H82590   2.148   4.814   6.234 -0.2017 -0.9736  0.8567
  626MOL0     H82591   2.040   4.873   6.106 -0.4476  0.2820 -0.2856
  626MOL0     H82592   1.983   4.630   6.279  3.3839  1.1871 -0.1655
  626MOL0     H82593   1.875   4.708   6.157 -1.5778  4.6590  0.4942
  626MOL0     H82594   1.784   4.921   6.501  0.7152  0.1813  0.4357
  626MOL0     H82595   1.818   4.903   6.738  2.3013  1.9233 -0.1944
  626MOL0     H82596   2.106   4.846   7.148  0.1503  3.5754 -4.2286
  626MOL0     H82597   2.091   4.938   7.369  1.7763  2.5192 -1.4429
  626MOL0     H82598   1.691   4.978   7.479 -0.2074 -0.5649  1.3399
  626MOL0     H82599   1.678   5.154   7.497  2.9884  2.1738 -2.2136
  626MOL0     H82600   1.793   5.156   7.711 -3.3051  0.6504 -0.2913
  626MOL0     H82601   1.861   4.987   7.688 -1.8907 -3.5328  0.0368
  626MOL0     H82602   1.652   4.902   7.720 -0.6755 -0.0753 -1.2958
  626MOL0     H82603   1.572   5.054   7.756 -1.1986 -1.8356  1.2620
  626MOL0     H82604   1.765   4.901   7.926 -1.2211 -0.7617  2.3335
  626MOL0     H82605   1.783   5.085   7.913 -0.3268  0.5305 -0.3374
  626MOL0     H82606   1.521   4.968   7.973  1.5654 -1.4382 -2.0417
  626MOL0     H82607   1.587   5.119   8.039 -0.7260  0.0808  1.1547
  626MOL0     H82608   1.772   4.982   8.165 -0.4575 -1.3666  0.2857
  626MOL0     H82609   1.669   4.841   8.149  0.7606 -0.0360  0.2231
  626MOL0     H82610   1.490   5.009   8.230 -0.6964 -0.0765  0.5827
  626MOL0     H82611   1.601   4.909   8.342  1.3309  2.5165  3.2396
  626MOL0     H82612   1.633   5.201   8.259  0.0059 -0.6174 -1.4686
  626MOL0     H82613   1.740   5.121   8.377 -0.4706  0.3353  2.2727
  626MOL0     H82614   1.729   5.129   7.267 -2.3941 -2.1457 -2.2287
  626MOL0     H82615   1.746   5.036   7.037  0.9272  0.3051 -1.2529
  626MOL0     H82616   2.212   4.730   6.670 -0.8768 -1.9402  0.5083
  626MOL0     H82617   2.158   4.724   6.437  0.9841 -1.5635  2.3879
  626MOL0     H82618   2.225   5.102   7.006  0.0319  0.8911 -0.9407
  626MOL0     H82619   2.196   5.133   7.226  0.2208 -0.5668  0.2834
  626MOL0     H82620   2.094   5.204   7.669  2.2406 -2.5366  3.1678
  626MOL0     H82621   2.075   5.316   7.877 -2.1180 -3.5608 -2.5857
  626MOL0     H82622   2.316   5.508   8.179  1.3643  2.1221 -0.3829
  626MOL0     H82623   2.434   5.515   8.048  0.6636 -1.1918  0.7298
  626MOL0     H82624   2.317   5.293   8.214  1.4781  1.1892  1.3424
  626MOL0     H82625   2.374   5.249   8.051 -2.1717  0.8334 -0.4631
  626MOL0     H82626   2.531   5.402   8.277 -1.5289  3.4919 -2.4578
  626MOL0     H82627   2.613   5.322   8.135  1.8024 -2.4836  1.1564
  626MOL0     H82628   2.461   5.125   8.285  1.9897 -2.6509 -0.0801
  626MOL0     H82629   2.620   5.120   8.218  0.1271  0.5484 -0.6087
  626MOL0     H82630   2.765   5.214   8.585  2.3265 -2.9108 -1.0612
  626MOL0     H82631   2.430   5.549   7.792 -0.4060  0.1767  1.0403
  626MOL0     H82632   2.430   5.463   7.567 -0.9335  0.6401 -0.1318
  627MOL0     O82633  11.280   7.164   2.742  0.7978  0.0033 -0.8065
  627MOL0     C82634  11.378   7.089   2.741 -0.1270  0.0105  0.3890
  627MOL0     O82635  11.374   6.951   2.736 -1.6777 -0.1945  0.1081
  627MOL0     C82636  11.258   6.894   2.708 -0.3460  0.5984 -0.5711
  627MOL0     C82637  11.240   6.760   2.749  0.3154  0.0205  0.0558
  627MOL0     C82638  11.121   6.696   2.734 -0.1542 -0.2740 -0.5671
  627MOL0     C82639  11.006   6.754   2.671  0.8664 -0.6971  0.3590
  627MOL0     O82640  10.887   6.681   2.677 -0.5507 -0.0495  0.0940
  627MOL0     C82641  10.778   6.707   2.590 -0.2413  0.1542  0.3766
  627MOL0     C82642  10.822   6.671   2.444 -0.1802  0.3779 -0.0262
  627MOL0     C82643  10.714   6.693   2.339  0.8993  0.2234 -0.0998
  627MOL0     C82644  10.692   6.839   2.308 -0.0476  0.9453  0.3558
  627MOL0     C82645  10.544   6.864   2.271  0.3516  0.5407 -0.5241
  627MOL0     C82646  10.513   6.964   2.164  0.7000 -0.3000  0.0662
  627MOL0     C82647  10.545   7.108   2.203 -0.0126  0.4402 -0.2096
  627MOL0     C82648  10.462   7.173   2.319  0.5032  0.3294 -0.3453
  627MOL0     N82649  10.328   7.215   2.278 -0.7761 -0.1743 -0.4047
  627MOL0     C82650  10.300   7.303   2.171  0.3839 -0.4397 -0.0017
  627MOL0     C82651  10.167   7.284   2.143  0.5955 -0.5975 -0.7916
  627MOL0     C82652  10.084   7.368   2.047  0.6921 -0.1214 -0.1027
  627MOL0     C82653   9.983   7.465   2.111  0.4005 -1.3496 -0.0324
  627MOL0     C82654  10.050   7.568   2.207  0.8951  0.4020  0.2778
  627MOL0     C82655   9.955   7.655   2.270 -0.1697 -0.4880 -0.4542
  627MOL0     O82656  10.020   7.762   2.349  0.0126 -0.3426 -0.5153
  627MOL0     C82657   9.942   7.860   2.400  0.8615  0.2858  0.3354
  627MOL0     C82658  10.012   7.979   2.447 -0.9027  0.4588  0.7669
  627MOL0     C82659   9.949   8.076   2.511  0.4087 -0.5426 -0.1077
  627MOL0     C82660   9.814   8.085   2.525 -0.6112  1.6283 -0.0458
  627MOL0     C82661   9.744   8.206   2.572 -0.9878 -0.6505  0.0040
  627MOL0     O82662   9.810   8.328   2.558  0.5540 -0.1978  0.3688
  627MOL0     C82663   9.745   8.444   2.591  0.8942  0.2245 -0.2299
  627MOL0     C82664   9.827   8.545   2.633  0.0263 -0.2979 -1.3192
  627MOL0     C82665   9.780   8.669   2.682  1.6036  0.1296  0.2857
  627MOL0     C82666   9.641   8.697   2.665  0.1169 -0.3816  1.2232
  627MOL0     O82667   9.572   8.815   2.695 -0.7976  0.4976  0.2105
  627MOL0     C82668   9.642   8.941   2.681 -0.8163  0.0505 -0.8875
  627MOL0     C82669   9.653   8.972   2.538 -0.8108 -0.8718  1.1661
  627MOL0     C82670   9.743   9.100   2.511 -0.7672  0.3791 -1.2284
  627MOL0     C82671   9.720   9.149   2.371 -0.0371 -0.4440  0.3766
  627MOL0     C82672   9.809   9.273   2.355  0.2861  0.2282  0.9272
  627MOL0     C82673   9.777   9.322   2.207  0.1880 -0.1762  0.4509
  627MOL0     C82674   9.833   9.468   2.187 -0.7730  0.0698 -0.0593
  627MOL0     C82675   9.992   9.469   2.196 -0.0143  0.1225  0.2473
  627MOL0    Cl82676  10.072   9.396   2.047 -0.0224  0.0451  0.0605
  627MOL0     C82677   9.559   8.598   2.619  0.6236 -0.2026  1.2413
  627MOL0     C82678   9.607   8.477   2.584 -0.6972 -1.0135  0.4790
  627MOL0     O82679   9.643   8.185   2.639  0.3974 -0.0211 -0.0437
  627MOL0     C82680   9.743   7.967   2.468  0.6577  0.0904  0.5707
  627MOL0     C82681   9.803   7.860   2.407 -0.2465  0.1121  0.0167
  627MOL0     N82682  10.119   7.184   2.228  0.0836 -0.6052 -0.1677
  627MOL0     N82683  10.220   7.135   2.297  0.2214  0.4575  0.2022
  627MOL0     C82684  11.029   6.881   2.613 -0.0270 -0.5070  0.2958
  627MOL0     C82685  11.153   6.944   2.632  0.6102 -1.0136 -0.5538
  627MOL0     C82686  11.518   7.146   2.754 -0.1809  0.0912  0.7196
  627MOL0     C82687  11.521   7.283   2.764  1.4356  0.4654 -0.1266
  627MOL0     C82688  11.638   7.351   2.795  0.0652 -0.7238  0.4185
  627MOL0     C82689  11.764   7.287   2.795  0.1200  0.8038 -0.2770
  627MOL0     O82690  11.883   7.344   2.826 -0.3878 -0.0474 -0.1900
  627MOL0     C82691  11.906   7.487   2.814 -0.9870 -0.2656 -0.2842
  627MOL0     C82692  11.883   7.544   2.671 -0.2160 -0.2138 -0.1182
  627MOL0     C82693  12.014   7.509   2.585  0.0213  0.4269 -0.1003
  627MOL0     C82694  12.001   7.542   2.436  0.2401 -0.1530  0.9702
  627MOL0     C82695  12.104   7.481   2.344  0.1992  0.2999 -0.6309
  627MOL0     C82696  12.175   7.427   2.258  1.1982  1.0015  0.7145
  627MOL0     C82697  11.756   7.146   2.781 -0.6480 -0.3996  1.0086
  627MOL0     C82698  11.633   7.080   2.756 -0.4579  0.1560  0.1116
  627MOL0     H82699  11.315   6.697   2.796  1.8922  0.4553 -1.7372
  627MOL0     H82700  11.123   6.593   2.769  0.4622 -0.2630 -0.5673
  627MOL0     H82701  10.751   6.812   2.608 -3.8266 -0.7281  1.0384
  627MOL0     H82702  10.686   6.662   2.628 -1.0210  2.2017  1.0967
  627MOL0     H82703  10.857   6.568   2.432  1.4327  1.1376 -2.9006
  627MOL0     H82704  10.902   6.736   2.407  0.9227 -0.1314  1.3879
  627MOL0     H82705  10.623   6.642   2.370  0.0931  2.6932  1.8062
  627MOL0     H82706  10.745   6.652   2.242  2.1701  2.8680 -0.9073
  627MOL0     H82707  10.724   6.907   2.388  0.1119 -3.0193  4.0054
  627MOL0     H82708  10.745   6.868   2.216  0.9873  0.4090  0.7671
  627MOL0     H82709  10.485   6.884   2.360 -0.9122 -1.6169 -0.8160
  627MOL0     H82710  10.505   6.769   2.233  0.4712 -1.3201  3.4569
  627MOL0     H82711  10.408   6.959   2.136  0.3548  1.3189  0.9233
  627MOL0     H82712  10.570   6.954   2.071  0.0686 -0.8281 -0.2687
  627MOL0     H82713  10.649   7.107   2.238 -0.7555 -1.4545  2.2175
  627MOL0     H82714  10.527   7.184   2.126 -1.4585  1.1441  0.7746
  627MOL0     H82715  10.518   7.260   2.357  1.0401  0.8351 -2.1843
  627MOL0     H82716  10.453   7.103   2.403  3.2801 -1.6177 -1.5347
  627MOL0     H82717  10.369   7.372   2.125  1.5800 -0.4653  1.6662
  627MOL0     H82718  10.030   7.295   1.986  0.0940  2.2267 -2.5900
  627MOL0     H82719  10.146   7.437   1.989  0.3631  0.5354  0.3142
  627MOL0     H82720   9.906   7.414   2.170 -1.2132  0.5851 -0.3686
  627MOL0     H82721   9.933   7.502   2.021  2.0162 -4.4986 -2.4529
  627MOL0     H82722  10.103   7.526   2.294  0.2089  1.0632  1.0391
  627MOL0     H82723  10.116   7.630   2.146  2.7284 -1.0117  0.7073
  627MOL0     H82724   9.894   7.599   2.341  0.2316  1.3132  1.4119
  627MOL0     H82725   9.895   7.700   2.190  1.0298 -2.1645 -2.4013
  627MOL0     H82726  10.120   7.990   2.453 -0.5833 -1.4652 -0.5370
  627MOL0     H82727  10.013   8.155   2.549  3.4585 -3.1089  0.6223
  627MOL0     H82728   9.930   8.515   2.654 -0.1047  0.8077  1.2888
  627MOL0     H82729   9.841   8.741   2.737  1.3212  1.2878 -0.8573
  627MOL0     H82730   9.739   8.946   2.732 -0.8346  2.5113 -0.9774
  627MOL0     H82731   9.589   9.025   2.727  3.3038  1.7534  1.2878
  627MOL0     H82732   9.559   9.004   2.492  0.4427  1.0137 -0.1991
  627MOL0     H82733   9.696   8.885   2.488  1.1526  0.5301  0.3099
  627MOL0     H82734   9.844   9.059   2.522 -0.3420  1.8972  1.4365
  627MOL0     H82735   9.748   9.176   2.590 -0.7635 -1.4790  0.6471
  627MOL0     H82736   9.753   9.078   2.295  0.2553  0.1949 -0.1079
  627MOL0     H82737   9.614   9.169   2.354  0.2470 -0.2660 -1.4511
  627MOL0     H82738   9.913   9.241   2.367 -0.0665 -0.5802  1.9708
  627MOL0     H82739   9.779   9.335   2.440 -2.1573 -2.5476  2.2572
  627MOL0     H82740   9.669   9.337   2.197 -0.2123 -2.1107  1.4223
  627MOL0     H82741   9.810   9.251   2.130  1.0239 -0.9789  1.5097
  627MOL0     H82742   9.812   9.507   2.087 -0.0132  3.3770  0.9538
  627MOL0     H82743   9.793   9.539   2.260 -1.8053  2.2910 -2.6393
  627MOL0     H82744  10.019   9.412   2.285 -2.0013  2.4443  2.4889
  627MOL0     H82745  10.028   9.569   2.220 -0.8533 -0.0639  2.4639
  627MOL0     H82746   9.451   8.605   2.606  0.7557  1.4478  0.7815
  627MOL0     H82747   9.530   8.409   2.548 -3.3810  1.4481  1.2286
  627MOL0     H82748   9.635   7.970   2.461  0.6848 -0.6083 -0.3511
  627MOL0     H82749   9.744   7.776   2.369  1.7245 -1.4209  0.1623
  627MOL0     H82750  10.958   6.946   2.562  2.4241  2.7359  0.6896
  627MOL0     H82751  11.166   7.039   2.582 -0.3402 -1.6664 -2.1378
  627MOL0     H82752  11.436   7.350   2.763  0.6138 -0.5317  0.9723
  627MOL0     H82753  11.641   7.459   2.803 -1.4867 -0.6649  0.6395
  627MOL0     H82754  12.005   7.516   2.852 -0.8403 -1.7847  0.5863
  627MOL0     H82755  11.833   7.539   2.876 -0.2570 -3.4153  3.7399
  627MOL0     H82756  11.785   7.516   2.631 -0.7701  2.5498 -0.9073
  627MOL0     H82757  11.874   7.652   2.677 -0.0042  0.1846 -4.0501
  627MOL0     H82758  12.040   7.402   2.593  0.9186  0.2196 -3.8803
  627MOL0     H82759  12.095   7.569   2.628 -1.3009  1.3277  1.2547
  627MOL0     H82760  11.903   7.516   2.396  0.7243 -2.0459  0.9388
  627MOL0     H82761  12.017   7.650   2.432 -0.5875 -0.0587 -0.7241
  627MOL0     H82762  12.226   7.363   2.189 -1.8142 -1.5236  0.6494
  627MOL0     H82763  11.843   7.081   2.779 -0.9816 -0.9088 -1.7236
  627MOL0     H82764  11.637   6.973   2.734 -2.5744 -0.0862  0.7366
  628MOL0     O82765  10.562   6.586  10.111 -0.3808 -0.4342  0.4325
  628MOL0     C82766  10.447   6.625  10.149  0.7311  0.2306  0.0264
  628MOL0     O82767  10.400   6.605  10.278 -0.2010 -0.4108  0.7495
  628MOL0     C82768  10.480   6.557  10.372  0.9000  0.3258 -1.4771
  628MOL0     C82769  10.537   6.434  10.362  0.7218  0.2469  0.5197
  628MOL0     C82770  10.630   6.390  10.466  0.0078  1.2557 -0.1470
  628MOL0     C82771  10.653   6.464  10.584  1.2081 -0.5703 -0.4386
  628MOL0     O82772  10.706   6.413  10.696  0.6748 -0.0938  0.6431
  628MOL0     C82773  10.790   6.296  10.706 -0.0722 -0.6390  0.0704
  628MOL0     C82774  10.931   6.328  10.659  0.0173  0.5992 -0.2532
  628MOL0     C82775  11.015   6.215  10.616 -1.3644  0.4430 -0.1560
  628MOL0     C82776  11.161   6.258  10.606  1.1225  0.1190  0.2247
  628MOL0     C82777  11.258   6.136  10.590  0.4884 -0.1652 -0.0017
  628MOL0     C82778  11.403   6.170  10.616  0.4266  0.2290 -0.5574
  628MOL0     C82779  11.476   6.249  10.505 -0.7402 -0.5285  0.2187
  628MOL0     C82780  11.635   6.256  10.528 -0.4038  0.1978  0.6073
  628MOL0     N82781  11.700   6.321  10.417 -0.4068  0.2627 -0.2297
  628MOL0     C82782  11.737   6.257  10.303 -0.4027 -0.3518  0.8102
  628MOL0     C82783  11.800   6.353  10.222  0.2958  0.3924  0.5560
  628MOL0     C82784  11.852   6.329  10.079 -0.2621  0.6951 -0.1968
  628MOL0     C82785  11.741   6.344   9.978  0.0184 -0.6508  0.3482
  628MOL0     C82786  11.612   6.251   9.993 -0.0592  0.2081  0.6026
  628MOL0     C82787  11.632   6.099   9.963 -0.4285  0.7276 -0.8585
  628MOL0     O82788  11.687   6.023  10.069  0.3809  0.6400  0.1200
  628MOL0     C82789  11.611   5.942  10.152  0.9144  0.7480 -0.0825
  628MOL0     C82790  11.490   5.987  10.217  0.0101  0.2411  0.0043
  628MOL0     C82791  11.427   5.913  10.318 -0.1855  0.5341  0.0234
  628MOL0     C82792  11.474   5.782  10.357 -0.1737 -0.2723 -0.8218
  628MOL0     C82793  11.384   5.694  10.437  0.1816 -0.6598  0.6123
  628MOL0     O82794  11.427   5.573  10.468  0.1479  0.5632  0.7644
  628MOL0     C82795  11.361   5.496  10.564 -0.3133  0.7293 -0.9444
  628MOL0     C82796  11.220   5.503  10.597  0.9419  0.6393  0.4387
  628MOL0     C82797  11.163   5.410  10.687 -0.0631 -0.1528 -0.4548
  628MOL0     C82798  11.238   5.307  10.747 -1.8804 -0.6242 -0.5110
  628MOL0     O82799  11.168   5.211  10.816 -0.6570 -0.4545  0.4816
  628MOL0     C82800  11.228   5.121  10.913 -0.8856  0.6045  0.1781
  628MOL0     C82801  11.150   5.108  11.036  0.8445  0.4039 -0.5196
  628MOL0     C82802  11.198   4.999  11.140 -1.4189 -0.0293 -0.2765
  628MOL0     C82803  11.148   4.850  11.107 -0.9981 -0.0277  0.2539
  628MOL0     C82804  11.202   4.744  11.201 -0.6175 -0.6986  0.3652
  628MOL0     C82805  11.142   4.599  11.171 -0.5717 -0.2494  0.0024
  628MOL0     C82806  11.163   4.513  11.293 -0.2116 -0.1989  0.3133
  628MOL0     C82807  11.141   4.366  11.257 -0.6686  0.1838 -0.2071
  628MOL0    Cl82808  11.037   4.287  11.390 -0.6562 -0.1565  0.3596
  628MOL0     C82809  11.379   5.308  10.731  0.6296 -0.5974  0.5060
  628MOL0     C82810  11.435   5.407  10.648 -0.7643 -0.3684  0.1179
  628MOL0     O82811  11.279   5.750  10.480 -0.3517 -0.7743  0.0107
  628MOL0     C82812  11.590   5.735  10.299 -0.0759  0.6895 -0.9855
  628MOL0     C82813  11.653   5.817  10.203  0.2536  0.8966 -0.0137
  628MOL0     N82814  11.789   6.472  10.288 -1.2097  0.1027  0.3464
  628MOL0     N82815  11.735   6.450  10.406 -0.2017  0.4170 -0.1401
  628MOL0     C82816  10.582   6.587  10.591 -0.7485 -0.2226 -0.4522
  628MOL0     C82817  10.506   6.635  10.488  1.3084 -0.0566 -0.3975
  628MOL0     C82818  10.354   6.697  10.046  0.4263 -0.5293  1.5176
  628MOL0     C82819  10.381   6.717   9.912  0.0057 -0.4532  0.4227
  628MOL0     C82820  10.292   6.783   9.822 -0.7201 -0.2943 -0.5334
  628MOL0     C82821  10.178   6.847   9.875  0.4363 -0.8894  0.0454
  628MOL0     O82822  10.097   6.920   9.797 -0.5827 -0.2465 -0.3064
  628MOL0     C82823  10.163   7.008   9.706 -0.2308  0.3682  0.0814
  628MOL0     C82824  10.055   7.080   9.629  0.2627  0.0352 -1.0955
  628MOL0     C82825   9.984   7.190   9.719 -0.4952 -0.9686  0.0322
  628MOL0     C82826  10.076   7.304   9.765  0.5438 -0.5457  0.6434
  628MOL0     C82827   9.993   7.418   9.816  0.7075  0.1524  0.4912
  628MOL0     C82828   9.944   7.525   9.843 -0.8152  1.0772  0.6105
  628MOL0     C82829  10.151   6.827  10.008 -0.1021  0.2199 -0.0403
  628MOL0     C82830  10.228   6.753  10.090 -0.9325 -1.0923  1.1850
  628MOL0     H82831  10.519   6.368  10.277  2.0405 -0.9272  1.1146
  628MOL0     H82832  10.677   6.291  10.465 -0.1514  1.1832 -0.4378
  628MOL0     H82833  10.755   6.210  10.649 -3.7562  0.9470 -0.3235
  628MOL0     H82834  10.783   6.270  10.811 -1.6746  2.4062  0.8493
  628MOL0     H82835  10.969   6.379  10.748 -0.5162 -1.1528  1.0496
  628MOL0     H82836  10.919   6.398  10.576 -4.1460  1.1645  0.6021
  628MOL0     H82837  10.977   6.182  10.519 -0.7002 -0.3786 -0.1537
  628MOL0     H82838  11.008   6.131  10.686  0.9859  1.9784  2.1185
  628MOL0     H82839  11.163   6.325  10.519  0.4756  2.2312  1.7390
  628MOL0     H82840  11.188   6.314  10.696 -0.2891 -0.1274  0.8164
  628MOL0     H82841  11.247   6.082  10.496 -0.9517  0.1377 -0.0223
  628MOL0     H82842  11.217   6.065  10.662  1.3691  0.7770  1.4952
  628MOL0     H82843  11.469   6.082  10.613  0.0808 -0.1626  1.8265
  628MOL0     H82844  11.417   6.223  10.710  3.7105  0.6309 -1.1381
  628MOL0     H82845  11.451   6.208  10.407  0.5339  0.8494 -0.7334
  628MOL0     H82846  11.442   6.353  10.508  2.0875  0.4619  0.1934
  628MOL0     H82847  11.681   6.157  10.543  1.2099  0.8955  0.5166
  628MOL0     H82848  11.642   6.319  10.617 -2.7608  1.5816 -0.1049
  628MOL0     H82849  11.732   6.153  10.272 -0.4154 -0.2413  0.4432
  628MOL0     H82850  11.879   6.224  10.069  1.3237  1.1248 -0.5899
  628MOL0     H82851  11.948   6.376  10.057  1.1413 -1.8589  0.1143
  628MOL0     H82852  11.792   6.343   9.882 -1.0894  2.8260 -0.4063
  628MOL0     H82853  11.699   6.445   9.970  0.2601 -0.3759  2.1509
  628MOL0     H82854  11.574   6.279  10.092  2.2156  2.0901  1.0295
  628MOL0     H82855  11.535   6.283   9.922  0.3021  0.9143  0.5194
  628MOL0     H82856  11.694   6.084   9.874 -3.6706 -1.6671 -2.9168
  628MOL0     H82857  11.536   6.052   9.942  0.0130 -0.3138 -0.5760
  628MOL0     H82858  11.457   6.089  10.200 -0.8394 -0.3735 -2.4691
  628MOL0     H82859  11.335   5.954  10.359 -0.6177 -1.1880  0.8595
  628MOL0     H82860  11.159   5.570  10.537  0.4129 -1.1170 -1.0928
  628MOL0     H82861  11.055   5.400  10.698  0.2647 -3.0536  0.8574
  628MOL0     H82862  11.332   5.151  10.928 -0.8492  2.0818 -2.5546
  628MOL0     H82863  11.237   5.022  10.868  1.1406  0.6594  0.3893
  628MOL0     H82864  11.045   5.090  11.013  0.9339  1.8451 -2.2585
  628MOL0     H82865  11.160   5.207  11.081  1.5379 -0.0264  0.3292
  628MOL0     H82866  11.176   5.020  11.246  3.0354  0.2687  0.7646
  628MOL0     H82867  11.307   4.989  11.143 -1.4433 -1.4367  4.0886
  628MOL0     H82868  11.039   4.850  11.117 -0.9864 -2.1104  0.9267
  628MOL0     H82869  11.175   4.835  11.003 -4.0300  0.4486 -0.7023
  628MOL0     H82870  11.175   4.765  11.305 -0.8000 -1.0936  0.3993
  628MOL0     H82871  11.312   4.740  11.200 -0.4294  2.2577 -0.3913
  628MOL0     H82872  11.200   4.562  11.085  3.1353 -0.1189  2.2384
  628MOL0     H82873  11.035   4.617  11.160 -0.6895  1.2614  2.7582
  628MOL0     H82874  11.261   4.538  11.335 -0.4228  3.4051 -0.9690
  628MOL0     H82875  11.088   4.549  11.365  1.0884  0.0235  1.6043
  628MOL0     H82876  11.232   4.310  11.236 -0.0187  1.3058 -0.4924
  628MOL0     H82877  11.083   4.360  11.164  0.0524 -0.1163 -0.6446
  628MOL0     H82878  11.429   5.213  10.745 -2.1929 -2.2363  0.1329
  628MOL0     H82879  11.541   5.385  10.632 -1.0106 -0.3530 -1.8247
  628MOL0     H82880  11.633   5.643  10.338  1.1695  2.0480  1.0642
  628MOL0     H82881  11.749   5.771  10.183 -0.3743 -0.6429  0.3837
  628MOL0     H82882  10.593   6.658  10.673 -2.2528 -2.6850  2.0940
  628MOL0     H82883  10.474   6.739  10.490  2.0830  0.1882  2.2229
  628MOL0     H82884  10.474   6.674   9.876 -0.4883  1.8756 -4.4987
  628MOL0     H82885  10.327   6.782   9.719 -1.2451 -0.2104 -0.7155
  628MOL0     H82886  10.226   6.946   9.641 -0.2434 -2.0483  2.2207
  628MOL0     H82887  10.227   7.077   9.761  0.3047 -0.9675  1.1761
  628MOL0     H82888  10.093   7.117   9.533  1.8031  1.1190 -0.1109
  628MOL0     H82889   9.971   7.012   9.612  1.2664 -1.7663  0.7588
  628MOL0     H82890   9.945   7.138   9.807 -0.4584 -5.1247 -2.1424
  628MOL0     H82891   9.901   7.238   9.667 -0.4269  0.4580  1.1639
  628MOL0     H82892  10.136   7.257   9.844 -0.9083 -2.4817  0.6547
  628MOL0     H82893  10.130   7.335   9.674 -1.4780 -0.0602 -0.4549
  628MOL0     H82894   9.902   7.623   9.848  4.0976  3.6585 -1.4466
  628MOL0     H82895  10.066   6.884  10.045  0.5923  0.5496  1.1108
  628MOL0     H82896  10.213   6.739  10.196  0.6546  2.8770  2.0747
  629MOL0     O82897   3.746   8.354   3.693  0.3096 -0.6000  0.1253
  629MOL0     C82898   3.829   8.408   3.765 -0.0058  0.1997 -0.4521
  629MOL0     O82899   3.965   8.388   3.765  0.2094  0.1854  0.3174
  629MOL0     C82900   4.009   8.283   3.691  0.4575  0.0846  0.3846
  629MOL0     C82901   3.948   8.152   3.680  0.3595  0.7101  0.0042
  629MOL0     C82902   4.021   8.039   3.628  0.1946 -0.4298  0.5902
  629MOL0     C82903   4.140   8.069   3.566 -0.0400 -0.2562 -0.1047
  629MOL0     O82904   4.213   7.970   3.514  0.4767  0.3164 -1.0093
  629MOL0     C82905   4.209   7.973   3.375  1.1227  0.4578  0.5962
  629MOL0     C82906   4.308   7.872   3.309  0.0495 -0.1243 -1.0240
  629MOL0     C82907   4.259   7.722   3.312  0.0030 -0.8131 -0.5852
  629MOL0     C82908   4.352   7.622   3.242  0.6762  0.2230 -0.2922
  629MOL0     C82909   4.274   7.541   3.136 -0.3894  0.1700  0.0795
  629MOL0     C82910   4.220   7.641   3.026  0.4927 -0.0636  0.4605
  629MOL0     C82911   4.334   7.724   2.952  0.4357  0.0849  0.0856
  629MOL0     C82912   4.282   7.834   2.860  0.3129 -0.0937  0.4807
  629MOL0     N82913   4.259   7.960   2.933  0.0547  0.3801  0.2875
  629MOL0     C82914   4.332   8.071   2.927  0.0342 -0.5416  0.0311
  629MOL0     C82915   4.255   8.168   2.994 -0.0711 -0.2466 -0.7538
  629MOL0     C82916   4.268   8.321   3.013 -0.5546  0.5215  0.6152
  629MOL0     C82917   4.414   8.368   3.019  0.7264  0.1474  0.6683
  629MOL0     C82918   4.432   8.520   2.994  1.2432 -0.5782  0.8610
  629MOL0     C82919   4.576   8.559   2.955  0.7941 -0.3628  1.2071
  629MOL0     O82920   4.580   8.700   2.965  0.3744  0.3891 -0.6949
  629MOL0     C82921   4.699   8.763   2.974  1.5376 -0.4084  0.4780
  629MOL0     C82922   4.677   8.893   3.029  0.8134 -0.1430  0.1841
  629MOL0     C82923   4.792   8.953   3.077 -0.1204  0.1218 -0.4067
  629MOL0     C82924   4.922   8.901   3.077 -0.2917 -0.0408  0.0505
  629MOL0     C82925   5.041   8.959   3.144 -0.1465 -0.7206  0.7182
  629MOL0     O82926   5.145   8.877   3.169  0.7167  0.0335 -0.7456
  629MOL0     C82927   5.241   8.925   3.244 -0.1023 -0.4423  1.5198
  629MOL0     C82928   5.232   8.952   3.380  0.4411  0.1348  0.4688
  629MOL0     C82929   5.332   9.022   3.443  0.0865 -0.6234 -0.0242
  629MOL0     C82930   5.442   9.080   3.378  0.1620  0.7358  0.6170
  629MOL0     O82931   5.545   9.144   3.436 -0.1815  0.1528  1.2091
  629MOL0     C82932   5.547   9.163   3.578  0.9384 -0.6243 -1.1313
  629MOL0     C82933   5.671   9.245   3.638  0.2007  0.5959  0.5672
  629MOL0     C82934   5.660   9.394   3.621  0.3381 -0.3220 -0.4127
  629MOL0     C82935   5.664   9.428   3.476 -0.6044  0.3191  1.0619
  629MOL0     C82936   5.685   9.575   3.472 -1.6839 -0.9798 -0.6513
  629MOL0     C82937   5.833   9.617   3.464 -0.0010  0.7076  0.7290
  629MOL0     C82938   5.838   9.764   3.418 -0.5616  0.3217  0.2562
  629MOL0     C82939   5.977   9.815   3.429 -0.7374  0.4430 -0.4507
  629MOL0    Cl82940   5.984  10.000   3.432  0.1061  0.1832 -0.0889
  629MOL0     C82941   5.451   9.068   3.244 -1.1411 -0.5856 -0.4940
  629MOL0     C82942   5.349   8.995   3.180  0.0090  0.3996 -0.3991
  629MOL0     O82943   5.030   9.075   3.177 -1.2197 -1.1373  0.0776
  629MOL0     C82944   4.934   8.776   3.017 -0.5674  1.4882 -0.2503
  629MOL0     C82945   4.824   8.701   2.966  0.0107  0.0329  0.1625
  629MOL0     N82946   4.141   8.101   3.037  0.5960 -0.9241  0.0408
  629MOL0     N82947   4.145   7.974   3.000 -0.2520 -0.9257  0.8511
  629MOL0     C82948   4.195   8.195   3.565  0.3428 -0.9825  0.9460
  629MOL0     C82949   4.143   8.299   3.640 -0.0638 -0.1323  0.2654
  629MOL0     C82950   3.788   8.512   3.864  1.0119 -0.4186 -0.6896
  629MOL0     C82951   3.657   8.528   3.891  0.0975 -0.1257  0.2858
  629MOL0     C82952   3.608   8.610   3.988 -1.0628  1.3091  0.0210
  629MOL0     C82953   3.693   8.696   4.062 -0.0881 -1.4088  0.2216
  629MOL0     O82954   3.649   8.784   4.163  0.5674  0.0361 -0.4297
  629MOL0     C82955   3.518   8.772   4.209  0.3688 -1.0340 -0.4533
  629MOL0     C82956   3.501   8.851   4.343  0.2405  0.2537  0.7454
  629MOL0     C82957   3.615   8.818   4.441  0.6565 -0.3198  0.8631
  629MOL0     C82958   3.586   8.858   4.587 -0.4058 -0.2705  0.4310
  629MOL0     C82959   3.640   8.998   4.607  0.0120 -0.3377 -0.2151
  629MOL0     C82960   3.683   9.108   4.612  0.1399 -0.8115 -0.5779
  629MOL0     C82961   3.829   8.687   4.030 -0.2909  0.2344 -0.4663
  629MOL0     C82962   3.874   8.595   3.930 -0.3803 -0.1511 -0.1197
  629MOL0     H82963   3.847   8.140   3.717  1.0516 -0.0071  1.7675
  629MOL0     H82964   3.989   7.936   3.633 -1.1527  0.0159  2.3815
  629MOL0     H82965   4.218   8.077   3.343 -3.8424  0.4571 -1.8692
  629MOL0     H82966   4.105   7.943   3.356  0.8024 -1.6543  4.6023
  629MOL0     H82967   4.411   7.878   3.348 -0.5648  0.6205  0.6075
  629MOL0     H82968   4.321   7.892   3.203 -1.7454 -0.6633 -1.3807
  629MOL0     H82969   4.151   7.720   3.293 -0.6210  0.4994  2.2928
  629MOL0     H82970   4.269   7.689   3.416  0.0282 -0.4119 -0.4598
  629MOL0     H82971   4.440   7.675   3.204  1.2650 -2.9713 -4.0559
  629MOL0     H82972   4.385   7.538   3.304  1.3433 -0.6551 -1.7783
  629MOL0     H82973   4.192   7.487   3.184 -1.5230 -0.5552 -2.4743
  629MOL0     H82974   4.340   7.469   3.085  3.2578  3.1555  0.1895
  629MOL0     H82975   4.160   7.713   3.083  1.7597  2.0025 -0.6973
  629MOL0     H82976   4.163   7.581   2.954  4.4030 -1.7393 -1.5254
  629MOL0     H82977   4.396   7.781   3.021 -0.4170  2.1888 -0.7917
  629MOL0     H82978   4.388   7.649   2.894 -2.5665 -1.6141 -0.7129
  629MOL0     H82979   4.187   7.798   2.821  0.3969 -0.4530  0.5994
  629MOL0     H82980   4.351   7.853   2.778 -0.4793 -0.0865 -0.1933
  629MOL0     H82981   4.426   8.109   2.889  0.5528  0.2969  2.0042
  629MOL0     H82982   4.210   8.347   3.102  1.4086 -1.7870  2.7029
  629MOL0     H82983   4.225   8.374   2.927  1.7671 -1.6740 -2.0886
  629MOL0     H82984   4.473   8.319   2.941  0.5922  2.7595 -1.2259
  629MOL0     H82985   4.461   8.346   3.116  0.4431 -0.3406  0.6950
  629MOL0     H82986   4.365   8.558   2.916  1.6387 -0.6526  0.4806
  629MOL0     H82987   4.406   8.564   3.090 -1.3437 -1.2015  0.4987
  629MOL0     H82988   4.595   8.528   2.852 -5.3494  1.2707 -0.7959
  629MOL0     H82989   4.640   8.506   3.027  0.6803 -0.3365  1.3259
  629MOL0     H82990   4.578   8.938   3.026 -0.9704 -3.7948 -0.1836
  629MOL0     H82991   4.791   9.048   3.129  1.1979  0.5984 -1.2035
  629MOL0     H82992   5.144   8.938   3.441 -0.0404  2.2793  0.3453
  629MOL0     H82993   5.330   9.030   3.551  1.2438 -2.7528  0.2158
  629MOL0     H82994   5.539   9.069   3.634 -2.0105 -0.0179 -0.3417
  629MOL0     H82995   5.458   9.213   3.616 -0.6930 -3.4062 -0.9997
  629MOL0     H82996   5.763   9.213   3.588  0.9403  0.8425  1.7154
  629MOL0     H82997   5.695   9.225   3.743 -2.8157  3.3081  1.9384
  629MOL0     H82998   5.744   9.447   3.667  0.7038  1.0892 -2.5770
  629MOL0     H82999   5.568   9.444   3.655  0.8620  3.2195 -3.5179
  629MOL0     H83000   5.744   9.380   3.418 -1.0387  0.4375  0.3437
  629MOL0     H83001   5.565   9.402   3.437 -1.0308  3.3626 -0.1418
  629MOL0     H83002   5.644   9.624   3.562 -1.0463 -0.6654 -0.5197
  629MOL0     H83003   5.644   9.619   3.381 -2.9904 -0.0276  0.3437
  629MOL0     H83004   5.883   9.556   3.387  0.7563  0.7939  1.1409
  629MOL0     H83005   5.881   9.602   3.561 -0.6872  1.4525  1.1939
  629MOL0     H83006   5.810   9.775   3.313 -2.2348 -2.7014  0.2781
  629MOL0     H83007   5.776   9.822   3.487  0.3248  1.1586  0.3725
  629MOL0     H83008   6.033   9.793   3.337  3.0400  3.8783  0.7413
  629MOL0     H83009   6.030   9.774   3.515 -2.6197 -0.3736  0.3737
  629MOL0     H83010   5.531   9.112   3.186 -1.1797  3.4434  2.1440
  629MOL0     H83011   5.378   8.975   3.078  0.1704 -2.3175  0.1103
  629MOL0     H83012   5.029   8.725   3.008 -1.3281  0.3242 -2.2680
  629MOL0     H83013   4.837   8.600   2.928  0.5457  0.4858 -0.9219
  629MOL0     H83014   4.292   8.201   3.515 -1.3403  0.7139 -2.4655
  629MOL0     H83015   4.190   8.396   3.646 -1.0921  0.3934 -0.0390
  629MOL0     H83016   3.593   8.452   3.847 -0.1904  0.0924  0.3284
  629MOL0     H83017   3.500   8.613   4.001 -1.0550  1.6772 -0.0066
  629MOL0     H83018   3.499   8.665   4.223 -0.1531 -0.6685  2.1436
  629MOL0     H83019   3.445   8.811   4.137  1.1208  2.5984  0.5261
  629MOL0     H83020   3.495   8.955   4.309  0.9485  0.6213  1.7012
  629MOL0     H83021   3.405   8.818   4.383 -2.0895  1.0611 -3.6576
  629MOL0     H83022   3.713   8.857   4.412  1.3088 -3.5029 -1.8177
  629MOL0     H83023   3.621   8.709   4.438 -1.5630 -0.4486 -1.0213
  629MOL0     H83024   3.478   8.854   4.606 -0.2203 -0.6556  1.4314
  629MOL0     H83025   3.644   8.795   4.654  0.5427  0.0481 -0.0631
  629MOL0     H83026   3.715   9.208   4.594  1.8037 -1.3677 -0.9441
  629MOL0     H83027   3.903   8.738   4.091 -1.7515  2.8380 -0.7447
  629MOL0     H83028   3.982   8.584   3.935 -0.6822 -3.9858  1.7337
  630MOL0     O83029   9.494   9.046   4.087  0.6189 -0.2752  0.3124
  630MOL0     C83030   9.442   9.144   4.030  0.0497 -0.4091  0.7592
  630MOL0     O83031   9.494   9.266   4.009 -0.5921 -0.2266 -0.1418
  630MOL0     C83032   9.620   9.306   4.036 -0.2052 -0.4012  0.6606
  630MOL0     C83033   9.675   9.400   3.938 -0.0659  0.9631 -0.0746
  630MOL0     C83034   9.790   9.475   3.968  0.6450  0.2601  0.2362
  630MOL0     C83035   9.856   9.452   4.092  0.1448  0.7652  0.3847
  630MOL0     O83036   9.968   9.525   4.125 -0.7867  0.5021 -0.7726
  630MOL0     C83037   9.974   9.585   4.258  0.0976  0.3382 -0.3271
  630MOL0     C83038  10.003   9.722   4.243  0.0691  0.4578  0.4221
  630MOL0     C83039  10.140   9.755   4.182 -0.2081  1.4468 -0.3919
  630MOL0     C83040  10.160   9.899   4.140 -0.2508  0.0431  0.2996
  630MOL0     C83041  10.298   9.926   4.091  1.2732  0.2234 -0.8183
  630MOL0     C83042  10.325   9.864   3.948 -0.3675 -0.3864 -0.5916
  630MOL0     C83043  10.459   9.918   3.914 -0.5941 -0.8929  0.0099
  630MOL0     C83044  10.530   9.834   3.799 -1.3466 -0.5152 -0.5335
  630MOL0     N83045  10.465   9.845   3.667  0.9069  0.0755 -0.2396
  630MOL0     C83046  10.340   9.800   3.649  0.4925 -0.5026  0.4560
  630MOL0     C83047  10.280   9.891   3.568 -0.6089 -0.8446  0.0479
  630MOL0     C83048  10.134   9.911   3.545 -0.5053  0.4055  0.3435
  630MOL0     C83049  10.061   9.984   3.649 -0.1659 -0.1889 -0.0533
  630MOL0     C83050   9.926  10.022   3.593 -1.0819  0.0139 -0.4928
  630MOL0     C83051   9.830   9.906   3.559 -0.1226  0.4489 -0.4921
  630MOL0     O83052   9.835   9.797   3.662 -0.2297  0.3465  0.0271
  630MOL0     C83053   9.745   9.692   3.627 -0.0346 -0.2423 -0.1313
  630MOL0     C83054   9.799   9.573   3.588  0.2400  1.6518  0.1635
  630MOL0     C83055   9.719   9.458   3.558 -0.3142 -0.1820  0.0449
  630MOL0     C83056   9.578   9.476   3.581 -0.5945  0.0471 -0.1610
  630MOL0     C83057   9.485   9.356   3.569  0.4560 -0.2792  0.8476
  630MOL0     O83058   9.532   9.246   3.509  0.5193 -0.0382  0.0658
  630MOL0     C83059   9.467   9.130   3.538  0.1266  0.2238 -0.1486
  630MOL0     C83060   9.399   9.061   3.433  0.1835 -0.7350 -1.1707
  630MOL0     C83061   9.335   8.941   3.461 -0.3219  0.1252  0.6059
  630MOL0     C83062   9.366   8.880   3.581 -0.6451 -0.4262  0.7529
  630MOL0     O83063   9.324   8.753   3.587  0.7207  0.4913  0.6926
  630MOL0     C83064   9.324   8.673   3.703  1.3430 -0.2143 -1.3724
  630MOL0     C83065   9.462   8.613   3.728  0.3024  0.1814  1.1237
  630MOL0     C83066   9.474   8.501   3.837  0.6620  0.1752 -0.1611
  630MOL0     C83067   9.465   8.550   3.981 -1.0680 -0.7894  0.4430
  630MOL0     C83068   9.516   8.690   4.028 -0.2813 -0.1093 -0.3977
  630MOL0     C83069   9.659   8.722   4.008 -0.0577 -0.8134  0.1940
  630MOL0     C83070   9.734   8.669   4.116 -0.6794  0.1725 -0.0066
  630MOL0     C83071   9.876   8.671   4.085 -0.0493 -0.4717 -0.5507
  630MOL0    Cl83072   9.913   8.527   3.985 -0.0523 -0.1612 -0.2358
  630MOL0     C83073   9.440   8.945   3.679  1.4094  0.3119  0.8364
  630MOL0     C83074   9.505   9.066   3.653  0.0921 -1.0215  0.3949
  630MOL0     O83075   9.366   9.367   3.594  0.2143 -0.3007 -0.0874
  630MOL0     C83076   9.521   9.603   3.611 -0.0901 -0.3975 -0.2610
  630MOL0     C83077   9.611   9.710   3.641 -0.5797 -0.6221 -0.0112
  630MOL0     N83078  10.388   9.981   3.525  0.6000  0.7716 -0.3372
  630MOL0     N83079  10.494   9.944   3.582 -0.2089  0.0796  0.0099
  630MOL0     C83080   9.821   9.337   4.170 -0.0360  0.0719 -0.5131
  630MOL0     C83081   9.709   9.264   4.130 -0.3177  1.1466 -0.2964
  630MOL0     C83082   9.314   9.117   3.960 -0.9187  0.1204  0.2772
  630MOL0     C83083   9.235   9.002   3.973  0.6260 -0.1244  0.0668
  630MOL0     C83084   9.121   8.980   3.898 -0.4536  0.4257  0.5685
  630MOL0     C83085   9.076   9.074   3.812  0.3369  0.2814  0.8693
  630MOL0     O83086   8.968   9.042   3.733  0.8193  0.8384  0.2025
  630MOL0     C83087   8.921   8.905   3.716  0.0750  1.0966  0.6149
  630MOL0     C83088   8.815   8.899   3.595 -0.6429 -0.0284  0.6007
  630MOL0     C83089   8.884   8.902   3.458 -0.5699  0.3403  0.2169
  630MOL0     C83090   8.985   8.785   3.429  0.1990 -0.1672 -0.0820
  630MOL0     C83091   8.949   8.647   3.493  0.2709 -0.7556 -0.0007
  630MOL0     C83092   8.919   8.550   3.557 -0.1529 -0.3143 -0.5689
  630MOL0     C83093   9.129   9.199   3.810 -0.6454 -0.1290 -0.3537
  630MOL0     C83094   9.256   9.217   3.869  0.9415  0.3276  0.5404
  630MOL0     H83095   9.620   9.419   3.846  0.1943  0.2980 -0.3708
  630MOL0     H83096   9.830   9.528   3.882  1.5452  2.8557  2.1265
  630MOL0     H83097  10.059   9.541   4.311  0.1861  1.3562  0.4165
  630MOL0     H83098   9.882   9.571   4.317  0.5950 -1.1229  0.1466
  630MOL0     H83099   9.998   9.763   4.345  0.7211  3.7293 -0.7391
  630MOL0     H83100   9.921   9.772   4.190  0.5365  0.1900 -0.5711
  630MOL0     H83101  10.156   9.690   4.095 -2.5116 -1.0540  0.8985
  630MOL0     H83102  10.206   9.719   4.260 -1.3223 -0.8318 -0.4200
  630MOL0     H83103  10.090   9.941   4.067  3.1169  3.3302 -1.4003
  630MOL0     H83104  10.151   9.961   4.229  1.0569 -0.1596  0.5966
  630MOL0     H83105  10.373   9.891   4.162 -0.2352  2.4468  2.1037
  630MOL0     H83106  10.325  10.032   4.086  2.6945 -0.0387  0.5303
  630MOL0     H83107  10.252   9.894   3.871  0.3710  1.9320 -0.4663
  630MOL0     H83108  10.327   9.755   3.953  0.0764 -0.3242  3.7763
  630MOL0     H83109  10.467  10.026   3.901 -1.7563 -0.3036  3.2387
  630MOL0     H83110  10.530   9.912   3.998  2.3759  2.8732 -1.9200
  630MOL0     H83111  10.526   9.734   3.844  2.7059 -0.8084 -0.4633
  630MOL0     H83112  10.630   9.876   3.790 -2.6500  2.2918 -4.3172
  630MOL0     H83113  10.295   9.722   3.710 -0.9384 -0.2494 -0.2265
  630MOL0     H83114  10.095   9.813   3.515  1.8013 -0.5821  0.3037
  630MOL0     H83115  10.147   9.981   3.462 -2.4700  0.4961  0.0709
  630MOL0     H83116  10.107  10.077   3.686  0.6896 -0.5630 -0.1548
  630MOL0     H83117  10.050   9.919   3.736  0.7981 -0.7939 -0.3666
  630MOL0     H83118   9.879  10.084   3.669  2.2690  0.6567  1.2457
  630MOL0     H83119   9.931  10.078   3.499 -1.1557  1.1632  0.1785
  630MOL0     H83120   9.862   9.861   3.465  2.3414 -0.4140  0.6635
  630MOL0     H83121   9.733   9.957   3.555 -0.0684  0.5425 -0.5913
  630MOL0     H83122   9.906   9.561   3.576 -0.0247  0.3929 -1.3931
  630MOL0     H83123   9.763   9.364   3.528 -0.0497 -0.8809  2.3877
  630MOL0     H83124   9.384   9.126   3.348 -0.1931  2.6811  1.2655
  630MOL0     H83125   9.275   8.894   3.384  0.9956 -0.4962 -0.0687
  630MOL0     H83126   9.261   8.586   3.682  0.9331  0.2409 -2.1064
  630MOL0     H83127   9.280   8.724   3.789  0.6465 -0.2891 -1.6729
  630MOL0     H83128   9.528   8.701   3.733 -1.4825  1.9440 -2.5453
  630MOL0     H83129   9.486   8.565   3.633  1.0965  1.9499  0.3829
  630MOL0     H83130   9.574   8.459   3.826  1.9174  3.4355 -3.1089
  630MOL0     H83131   9.418   8.410   3.813  4.2545 -1.5386 -2.9507
  630MOL0     H83132   9.356   8.552   3.993 -1.0669 -0.0957  0.3862
  630MOL0     H83133   9.502   8.474   4.050  0.8295 -1.8223 -1.5961
  630MOL0     H83134   9.494   8.710   4.133  0.1772 -0.0366 -0.3147
  630MOL0     H83135   9.466   8.766   3.966  1.8377 -0.0889 -2.2003
  630MOL0     H83136   9.656   8.831   4.014 -1.9203 -0.6957 -1.6210
  630MOL0     H83137   9.695   8.685   3.911  0.1297  2.1294 -0.9747
  630MOL0     H83138   9.712   8.734   4.201  0.3386  2.4949 -1.4133
  630MOL0     H83139   9.714   8.564   4.138  2.6579 -1.0673 -2.1159
  630MOL0     H83140   9.938   8.664   4.175 -0.5601 -0.9038 -0.2227
  630MOL0     H83141   9.901   8.767   4.038  0.0984  0.1820  0.8071
  630MOL0     H83142   9.461   8.895   3.773 -0.2461 -0.7965  0.6596
  630MOL0     H83143   9.585   9.110   3.711  1.6240 -0.3368 -2.1141
  630MOL0     H83144   9.415   9.626   3.613 -0.1434 -0.6694  0.2820
  630MOL0     H83145   9.567   9.803   3.674 -1.6726 -0.7830 -0.9797
  630MOL0     H83146   9.854   9.316   4.271  0.9768  1.2377 -0.5689
  630MOL0     H83147   9.690   9.171   4.181 -1.6082  0.7825 -1.3869
  630MOL0     H83148   9.264   8.937   4.055  2.3868  0.5825  0.0385
  630MOL0     H83149   9.067   8.890   3.927  0.0629  0.8147  2.9282
  630MOL0     H83150   8.880   8.861   3.807  1.6294 -1.7020  0.0798
  630MOL0     H83151   9.009   8.841   3.701  0.9128  2.3848 -0.1949
  630MOL0     H83152   8.749   8.812   3.610  1.3266 -1.4787  1.2716
  630MOL0     H83153   8.743   8.976   3.624 -1.5157 -0.5047 -0.2521
  630MOL0     H83154   8.935   8.998   3.453 -2.2513  1.5381  3.1233
  630MOL0     H83155   8.800   8.902   3.388  0.5720 -0.3299 -1.1913
  630MOL0     H83156   8.986   8.771   3.321 -2.9889 -1.9764 -0.0068
  630MOL0     H83157   9.084   8.813   3.466  0.4682 -2.6412  1.2523
  630MOL0     H83158   8.871   8.465   3.602  0.4637 -2.3122 -3.4126
  630MOL0     H83159   9.084   9.270   3.741  1.3199 -0.7191 -2.3279
  630MOL0     H83160   9.299   9.313   3.844 -1.5248  1.1588 -0.8217
  631MOL0     O83161   1.057   1.243   2.522  0.7042 -0.5887 -0.2468
  631MOL0     C83162   0.979   1.300   2.599  0.0676  0.5766  0.1329
  631MOL0     O83163   0.975   1.283   2.731 -0.5426  1.0592  0.0128
  631MOL0     C83164   1.077   1.209   2.779  0.6599 -0.2529  0.6223
  631MOL0     C83165   1.115   1.074   2.751  0.3843  0.4783  0.2948
  631MOL0     C83166   1.223   1.017   2.813  0.2731  0.7341 -0.4755
  631MOL0     C83167   1.317   1.093   2.883 -0.7119 -0.8137 -0.2176
  631MOL0     O83168   1.437   1.040   2.929 -0.8723 -0.0976 -0.0972
  631MOL0     C83169   1.547   1.121   2.988  0.1956  0.2792 -0.0312
  631MOL0     C83170   1.516   1.169   3.129 -0.0881 -1.0553  0.3690
  631MOL0     C83171   1.525   1.052   3.232  0.1015 -0.3855  0.1150
  631MOL0     C83172   1.662   0.987   3.253 -0.2391 -0.5912  0.1499
  631MOL0     C83173   1.673   0.927   3.393 -0.4818 -0.4619  0.1743
  631MOL0     C83174   1.648   0.779   3.382  0.1472  0.0153 -0.1582
  631MOL0     C83175   1.629   0.698   3.509 -0.0551  0.3292 -0.2854
  631MOL0     C83176   1.760   0.687   3.586 -0.0628 -0.1743 -1.0028
  631MOL0     N83177   1.747   0.585   3.689 -0.0158 -0.1362 -0.2287
  631MOL0     C83178   1.788   0.450   3.686 -0.0319 -0.5601 -0.1618
  631MOL0     C83179   1.779   0.411   3.810  0.5546  0.3082 -0.4287
  631MOL0     C83180   1.804   0.276   3.873 -0.2389  0.1203 -0.3027
  631MOL0     C83181   1.936   0.205   3.839  0.3828 -0.3451  1.0223
  631MOL0     C83182   1.955   0.052   3.886  0.2604 -0.7758  0.0604
  631MOL0     C83183   2.023   0.043   4.025 -0.6447  0.1067  0.0160
  631MOL0     O83184   2.025  -0.091   4.069 -0.9929 -0.2355  0.3367
  631MOL0     C83185   2.113  -0.128   4.165 -0.2767 -0.9964 -0.0240
  631MOL0     C83186   2.119  -0.262   4.202  0.2567 -0.1864  1.0461
  631MOL0     C83187   2.215  -0.304   4.282 -0.6351  0.7886 -0.2730
  631MOL0     C83188   2.301  -0.227   4.350 -1.0070  0.4039  0.3834
  631MOL0     C83189   2.400  -0.287   4.441  0.6591 -0.3809  0.5852
  631MOL0     O83190   2.387  -0.421   4.475 -0.1003 -0.6731 -0.4130
  631MOL0     C83191   2.463  -0.451   4.576 -0.2115  0.1959 -0.1021
  631MOL0     C83192   2.457  -0.394   4.702  0.1296  0.2555  0.3312
  631MOL0     C83193   2.566  -0.421   4.790  0.7032  1.1586 -0.0440
  631MOL0     C83194   2.649  -0.529   4.763  0.6352 -0.5992 -0.5402
  631MOL0     O83195   2.732  -0.578   4.862 -0.1337  0.0985  0.6719
  631MOL0     C83196   2.775  -0.706   4.862 -0.0536  0.1189  0.5991
  631MOL0     C83197   2.662  -0.804   4.860  0.1691  0.2785  0.2196
  631MOL0     C83198   2.696  -0.944   4.919 -0.6086 -0.1355  0.4252
  631MOL0     C83199   2.586  -1.049   4.911 -0.5641 -0.1325  0.1789
  631MOL0     C83200   2.632  -1.184   4.837  0.7960  0.3980 -0.5579
  631MOL0     C83201   2.704  -1.279   4.929 -0.6765 -0.6037  0.0436
  631MOL0     C83202   2.743  -1.407   4.864  0.0018 -0.5605  0.5457
  631MOL0     C83203   2.733  -1.519   4.965  0.4348  0.2892  0.0381
  631MOL0    Cl83204   2.786  -1.656   4.883  0.0780  0.5508 -0.1852
  631MOL0     C83205   2.638  -0.598   4.638 -0.6196 -0.8172 -0.4638
  631MOL0     C83206   2.542  -0.560   4.548  0.5551  0.1047 -0.0504
  631MOL0     O83207   2.475  -0.204   4.488 -0.6079  0.5429  0.5571
  631MOL0     C83208   2.296  -0.084   4.323  0.8234 -0.6343  0.0221
  631MOL0     C83209   2.207  -0.034   4.223 -0.4379 -0.2892 -0.3837
  631MOL0     N83210   1.735   0.514   3.899  0.3581  0.1705  1.1936
  631MOL0     N83211   1.716   0.617   3.821  0.3668  0.3921  0.2397
  631MOL0     C83212   1.285   1.226   2.904  0.1239 -0.9435  0.3201
  631MOL0     C83213   1.166   1.280   2.857  1.2573 -0.5694  0.5596
  631MOL0     C83214   0.885   1.394   2.544 -0.0081  0.0044  0.5303
  631MOL0     C83215   0.833   1.384   2.412  0.3372 -1.7773 -0.2610
  631MOL0     C83216   0.744   1.472   2.363 -0.1395 -0.3245 -0.6882
  631MOL0     C83217   0.685   1.573   2.447  0.5249  0.3121 -0.5342
  631MOL0     O83218   0.583   1.662   2.417 -0.3062  0.4031  0.4098
  631MOL0     C83219   0.626   1.796   2.418 -0.6092  0.4201  0.4789
  631MOL0     C83220   0.521   1.883   2.349  0.5044  0.3472  1.0846
  631MOL0     C83221   0.418   1.940   2.446  0.4248  0.4024  0.3847
  631MOL0     C83222   0.306   2.028   2.388 -0.4339  0.1130 -0.4013
  631MOL0     C83223   0.237   1.969   2.276 -0.6814  0.4514 -0.2946
  631MOL0     C83224   0.184   1.919   2.187  0.1232 -0.6324  0.2476
  631MOL0     C83225   0.724   1.576   2.574  0.0813  0.0596 -1.1716
  631MOL0     C83226   0.830   1.500   2.620 -0.7379  0.9029 -0.0238
  631MOL0     H83227   1.045   1.012   2.696  0.4932  0.3657  0.2828
  631MOL0     H83228   1.246   0.911   2.809 -5.4174 -0.8951  0.5697
  631MOL0     H83229   1.567   1.209   2.926 -1.3955 -0.0916 -1.1320
  631MOL0     H83230   1.639   1.061   2.984 -2.0482 -3.4372 -0.8856
  631MOL0     H83231   1.420   1.220   3.143  0.5630 -0.1557  1.7864
  631MOL0     H83232   1.592   1.245   3.144 -2.9381  2.1519 -0.2759
  631MOL0     H83233   1.456   0.972   3.204 -0.6604  0.7975 -1.5193
  631MOL0     H83234   1.495   1.093   3.329  3.9855  1.7773  0.5969
  631MOL0     H83235   1.680   0.914   3.173 -0.1011 -2.0391  1.4659
  631MOL0     H83236   1.736   1.066   3.237  0.3101 -0.8642  1.2449
  631MOL0     H83237   1.604   0.973   3.464  2.0472  2.7759  0.7823
  631MOL0     H83238   1.772   0.941   3.437 -1.0987  2.1075  0.9170
  631MOL0     H83239   1.743   0.748   3.336  1.0328  1.9237  0.2733
  631MOL0     H83240   1.561   0.765   3.318  1.6266 -0.6622 -2.1225
  631MOL0     H83241   1.554   0.746   3.574 -1.7398 -1.5846 -0.7192
  631MOL0     H83242   1.592   0.598   3.486 -1.6157  0.8917 -0.3631
  631MOL0     H83243   1.781   0.789   3.620 -0.7506  0.5284 -2.5990
  631MOL0     H83244   1.838   0.644   3.522 -1.6127 -2.2968 -1.5793
  631MOL0     H83245   1.842   0.394   3.610  0.0127 -1.1007  0.2608
  631MOL0     H83246   1.724   0.207   3.845  0.5130 -0.4291 -1.1741
  631MOL0     H83247   1.791   0.281   3.982  0.5422 -2.9488  0.0241
  631MOL0     H83248   2.025   0.243   3.890 -0.9379  2.1315  1.6682
  631MOL0     H83249   1.951   0.221   3.732  0.6055 -0.4539  1.0366
  631MOL0     H83250   1.858   0.001   3.886 -0.7930  1.0729  1.8740
  631MOL0     H83251   2.014   0.001   3.810 -0.6873  0.0907 -1.2878
  631MOL0     H83252   1.966   0.098   4.101  2.2700  0.9020  1.7650
  631MOL0     H83253   2.117   0.097   4.039 -1.8201  1.9848  1.0501
  631MOL0     H83254   2.038  -0.314   4.152  0.3666  0.9571 -0.4186
  631MOL0     H83255   2.222  -0.412   4.290  0.0669  0.8448 -0.0751
  631MOL0     H83256   2.386  -0.313   4.714 -1.3669 -0.8006 -1.0050
  631MOL0     H83257   2.580  -0.370   4.885  1.6728  0.7101  0.0749
  631MOL0     H83258   2.833  -0.714   4.954 -0.4103  2.2215  1.0739
  631MOL0     H83259   2.838  -0.716   4.773  0.6876 -0.2562  1.1623
  631MOL0     H83260   2.624  -0.820   4.759 -1.0427 -1.3086  0.8633
  631MOL0     H83261   2.582  -0.751   4.914 -1.6652 -0.5350 -1.5508
  631MOL0     H83262   2.714  -0.931   5.026  1.1806  2.5739 -0.1055
  631MOL0     H83263   2.789  -0.980   4.873 -1.0558 -0.3184 -0.3567
  631MOL0     H83264   2.561  -1.083   5.012 -1.0287 -1.7425 -0.4475
  631MOL0     H83265   2.500  -1.007   4.858 -1.1792 -0.1527  1.1307
  631MOL0     H83266   2.683  -1.147   4.747 -1.4828  2.1105 -1.2221
  631MOL0     H83267   2.545  -1.237   4.797  1.8800 -1.0774 -1.0616
  631MOL0     H83268   2.642  -1.303   5.016 -1.7976 -1.1466 -0.8918
  631MOL0     H83269   2.790  -1.224   4.969  0.2828 -2.9770  1.4806
  631MOL0     H83270   2.695  -1.433   4.769  1.2999  0.5260 -0.4706
  631MOL0     H83271   2.849  -1.399   4.836 -0.7129 -0.7601 -2.6301
  631MOL0     H83272   2.632  -1.531   5.006 -0.0079 -1.0590 -1.3150
  631MOL0     H83273   2.797  -1.488   5.047 -1.3590  4.7776  0.0379
  631MOL0     H83274   2.690  -0.685   4.599 -0.8623  0.1716 -3.2264
  631MOL0     H83275   2.552  -0.607   4.451  0.8721 -0.8879  0.4440
  631MOL0     H83276   2.368  -0.013   4.361 -0.4427  2.0888 -2.3398
  631MOL0     H83277   2.201   0.073   4.209 -1.8742 -0.4338 -1.0214
  631MOL0     H83278   1.365   1.288   2.944  0.5422  0.2101 -2.0856
  631MOL0     H83279   1.159   1.388   2.862  1.6295 -0.4527 -0.8015
  631MOL0     H83280   0.873   1.307   2.345 -1.2901 -1.4893 -1.6188
  631MOL0     H83281   0.719   1.457   2.258  2.1069 -1.4803 -1.1058
  631MOL0     H83282   0.715   1.805   2.354 -0.4721  2.6069  0.8839
  631MOL0     H83283   0.651   1.818   2.522 -1.1666 -3.9082  1.7182
  631MOL0     H83284   0.571   1.962   2.294  0.4030  1.4914  2.5763
  631MOL0     H83285   0.471   1.824   2.271  1.2929  1.5916 -0.4036
  631MOL0     H83286   0.472   1.983   2.531  1.9486 -0.3364 -0.1718
  631MOL0     H83287   0.357   1.858   2.486 -0.7953  1.5951  1.0407
  631MOL0     H83288   0.241   2.057   2.471 -1.4953  0.6687 -1.4106
  631MOL0     H83289   0.343   2.116   2.335  1.0478 -0.9230 -1.1737
  631MOL0     H83290   0.135   1.874   2.104 -0.9660  1.7855 -0.5206
  631MOL0     H83291   0.678   1.632   2.655  1.5076  0.3004 -0.4916
  631MOL0     H83292   0.853   1.518   2.724  2.1266  3.3396 -0.9369
  632MOL0     O83293   1.883  11.408   3.029 -0.4636  0.7226 -0.1811
  632MOL0     C83294   1.794  11.417   2.940  0.3980  0.5919  0.2346
  632MOL0     O83295   1.808  11.418   2.803  0.3299 -0.1571 -0.3307
  632MOL0     C83296   1.935  11.422   2.765  0.2856 -0.2675  0.2667
  632MOL0     C83297   1.976  11.332   2.663 -0.8637  0.1395 -0.3021
  632MOL0     C83298   2.088  11.359   2.600  0.5542 -0.2925  0.7429
  632MOL0     C83299   2.172  11.477   2.624 -0.3187  0.3310 -0.2543
  632MOL0     O83300   2.285  11.485   2.555 -0.0462 -0.1701 -0.5764
  632MOL0     C83301   2.392  11.580   2.589 -0.3412  0.4286 -0.1404
  632MOL0     C83302   2.499  11.524   2.685 -0.3409  0.4929  0.0552
  632MOL0     C83303   2.643  11.584   2.669 -0.6402  0.1085  0.4509
  632MOL0     C83304   2.730  11.499   2.576  0.0264 -0.1694  0.1073
  632MOL0     C83305   2.854  11.573   2.541 -0.4575 -0.8830  0.2757
  632MOL0     C83306   2.833  11.695   2.446  0.0783  0.3428 -1.5792
  632MOL0     C83307   2.965  11.758   2.408  0.7783  0.0697  0.2486
  632MOL0     C83308   2.998  11.858   2.512 -0.3527  1.1236 -0.9171
  632MOL0     N83309   3.133  11.924   2.488  0.1994  0.7402  0.2524
  632MOL0     C83310   3.177  11.994   2.380  0.5848  0.1296 -0.4232
  632MOL0     C83311   3.306  12.032   2.400  0.2303  0.3183  0.0434
  632MOL0     C83312   3.397  12.104   2.303 -0.6720 -0.2454  0.2639
  632MOL0     C83313   3.425  12.251   2.349 -1.1496  1.1011 -0.4093
  632MOL0     C83314   3.469  12.325   2.225  0.7245 -0.0300  0.3964
  632MOL0     C83315   3.583  12.277   2.135 -1.0251  0.1294 -0.1942
  632MOL0     O83316   3.573  12.345   2.018  0.2029  0.3911  0.1604
  632MOL0     C83317   3.664  12.313   1.919  0.1724 -0.1536 -0.3683
  632MOL0     C83318   3.772  12.228   1.933 -0.3663  0.5332  0.3743
  632MOL0     C83319   3.869  12.223   1.833  0.4947 -0.4031  1.2754
  632MOL0     C83320   3.865  12.288   1.711  0.5128  0.1114  0.6089
  632MOL0     C83321   3.955  12.274   1.597 -0.1773  0.4390 -0.0252
  632MOL0     O83322   4.035  12.167   1.607 -0.7869  0.7054 -0.9000
  632MOL0     C83323   4.133  12.149   1.508  1.0280  0.1267 -0.0786
  632MOL0     C83324   4.105  12.156   1.377  0.2915 -0.1440  0.3297
  632MOL0     C83325   4.206  12.144   1.284  0.0957  0.2964 -0.3434
  632MOL0     C83326   4.340  12.126   1.327 -0.4947 -0.2243  0.4748
  632MOL0     O83327   4.449  12.111   1.244  1.2800 -0.3314  0.0623
  632MOL0     C83328   4.430  12.103   1.099  0.6112  0.8667  0.0306
  632MOL0     C83329   4.561  12.036   1.052  0.9929  0.5938 -0.4440
  632MOL0     C83330   4.697  12.117   1.052  0.3690  0.4228 -0.1175
  632MOL0     C83331   4.678  12.253   0.968  0.9610  0.1156 -2.0231
  632MOL0     C83332   4.817  12.321   0.964 -0.5620  0.6336  0.3049
  632MOL0     C83333   4.827  12.444   0.866 -0.4239 -0.3611 -0.7764
  632MOL0     C83334   4.975  12.494   0.868 -0.6528  0.2253  0.7202
  632MOL0     C83335   4.989  12.648   0.835  0.1628 -0.8901  0.2093
  632MOL0    Cl83336   4.913  12.696   0.674  0.1179 -0.2640  0.1313
  632MOL0     C83337   4.366  12.113   1.466  0.2455 -0.6407  0.6272
  632MOL0     C83338   4.267  12.133   1.556  0.6960 -0.4153  0.0230
  632MOL0     O83339   3.951  12.357   1.506  0.3777 -0.2223  0.5028
  632MOL0     C83340   3.752  12.378   1.696  0.0437  0.2631 -0.3823
  632MOL0     C83341   3.652  12.380   1.804 -1.0171 -0.1025  0.1023
  632MOL0     N83342   3.339  11.984   2.526 -0.3990  0.2543  0.8046
  632MOL0     N83343   3.236  11.931   2.584 -0.1794 -1.0335  0.1543
  632MOL0     C83344   2.131  11.568   2.725 -0.4829 -0.1082  0.7691
  632MOL0     C83345   2.019  11.531   2.797  0.4178 -0.2802 -0.6281
  632MOL0     C83346   1.658  11.422   3.001 -0.8485 -0.3405 -0.4363
  632MOL0     C83347   1.540  11.411   2.927 -0.0272  0.0191 -0.3253
  632MOL0     C83348   1.403  11.431   2.983 -0.7293 -0.8724 -0.0040
  632MOL0     C83349   1.387  11.460   3.114 -0.3269 -0.4136 -0.3544
  632MOL0     O83350   1.274  11.469   3.185  0.4019 -0.2048  0.2038
  632MOL0     C83351   1.150  11.432   3.123  0.1812 -0.0445 -0.5170
  632MOL0     C83352   1.121  11.278   3.126 -0.6112 -0.7442 -0.0742
  632MOL0     C83353   1.115  11.235   3.278 -0.1144  0.6453 -0.1751
  632MOL0     C83354   1.048  11.106   3.306 -0.3315  0.4848  0.1915
  632MOL0     C83355   1.023  11.077   3.447  0.2803 -0.4135 -0.2142
  632MOL0     C83356   0.991  11.051   3.561  0.3330  0.6776  0.5472
  632MOL0     C83357   1.507  11.478   3.190 -0.1342  0.2617 -0.0066
  632MOL0     C83358   1.637  11.459   3.138  0.2568 -0.3154 -0.3313
  632MOL0     H83359   1.917  11.248   2.629 -0.2644  0.3631 -2.0125
  632MOL0     H83360   2.107  11.283   2.525 -1.7066  1.7646 -2.1337
  632MOL0     H83361   2.341  11.669   2.627  0.0750  1.0548 -1.0199
  632MOL0     H83362   2.446  11.594   2.495  2.3899  2.6338  1.5713
  632MOL0     H83363   2.501  11.417   2.660 -1.4245  1.4090 -5.0675
  632MOL0     H83364   2.467  11.546   2.787  3.6356 -1.5468  1.9715
  632MOL0     H83365   2.691  11.577   2.768  2.1301 -2.6766 -0.8970
  632MOL0     H83366   2.634  11.683   2.623 -1.9201 -0.3165 -0.2591
  632MOL0     H83367   2.753  11.409   2.633  0.7799 -1.1965 -1.7457
  632MOL0     H83368   2.674  11.463   2.489 -1.2367 -0.5229  1.0276
  632MOL0     H83369   2.925  11.505   2.493  1.5277  1.5655 -0.4227
  632MOL0     H83370   2.903  11.602   2.635 -3.8591  0.5620  1.7627
  632MOL0     H83371   2.768  11.762   2.502 -2.2990 -2.9559 -0.0090
  632MOL0     H83372   2.795  11.650   2.354 -1.3829  1.4632 -1.5518
  632MOL0     H83373   3.056  11.698   2.410  0.6785 -0.1563 -1.0621
  632MOL0     H83374   2.954  11.803   2.309 -1.1407  0.0906  0.4272
  632MOL0     H83375   3.008  11.806   2.608 -0.7642  0.3918 -1.2726
  632MOL0     H83376   2.928  11.942   2.515 -1.7249 -0.0089  0.2157
  632MOL0     H83377   3.121  12.019   2.290 -1.9173  2.1453  1.5246
  632MOL0     H83378   3.352  12.104   2.203 -2.1435 -0.2685  0.9094
  632MOL0     H83379   3.494  12.054   2.305 -0.7727 -0.5460 -1.2389
  632MOL0     H83380   3.505  12.246   2.424 -0.6778  1.9377 -0.8362
  632MOL0     H83381   3.328  12.276   2.393 -0.2104  0.4172  2.2412
  632MOL0     H83382   3.378  12.318   2.166 -1.1017  0.2522  2.9817
  632MOL0     H83383   3.496  12.427   2.256  2.2163 -0.1134 -0.5425
  632MOL0     H83384   3.572  12.171   2.112 -1.2659 -0.5018  2.4853
  632MOL0     H83385   3.682  12.294   2.179 -0.2817 -1.8183 -0.9868
  632MOL0     H83386   3.787  12.158   2.014  0.4883 -1.9068 -1.7805
  632MOL0     H83387   3.949  12.156   1.861  2.9819  0.6776 -2.4519
  632MOL0     H83388   4.004  12.168   1.338  0.5278 -1.0249 -0.5740
  632MOL0     H83389   4.185  12.163   1.179  2.0349  0.9639 -0.6364
  632MOL0     H83390   4.418  12.200   1.051 -2.7520  0.0055 -1.1699
  632MOL0     H83391   4.341  12.048   1.068  1.5922 -1.4868  1.1278
  632MOL0     H83392   4.559  11.968   0.967  2.4443 -0.2402  0.1541
  632MOL0     H83393   4.568  11.949   1.119  0.1814 -1.6976 -3.1454
  632MOL0     H83394   4.774  12.054   1.008  0.8061  0.4681  0.5755
  632MOL0     H83395   4.736  12.146   1.150 -0.1365  0.8912 -0.0479
  632MOL0     H83396   4.627  12.243   0.871 -0.6184 -2.4126 -1.0550
  632MOL0     H83397   4.611  12.319   1.024  0.0262 -0.6499 -2.1929
  632MOL0     H83398   4.895  12.256   0.924  1.9736  2.0895  2.5614
  632MOL0     H83399   4.845  12.344   1.067  0.1678  0.1421  0.2222
  632MOL0     H83400   4.770  12.527   0.909  0.0826  0.0955 -0.9732
  632MOL0     H83401   4.789  12.429   0.765  0.5738  0.9818 -1.3805
  632MOL0     H83402   5.027  12.458   0.957 -2.2789 -5.2203 -0.1866
  632MOL0     H83403   5.026  12.449   0.782  0.6565 -0.7412  1.9615
  632MOL0     H83404   5.096  12.663   0.821  0.0032 -0.2887 -0.3527
  632MOL0     H83405   4.951  12.703   0.921  0.0218 -2.1336  0.9738
  632MOL0     H83406   4.471  12.089   1.482  0.9451  0.7093 -1.4822
  632MOL0     H83407   4.281  12.127   1.663 -1.3283 -1.9698  0.2591
  632MOL0     H83408   3.746  12.434   1.604  2.2965 -3.3465 -2.9880
  632MOL0     H83409   3.575  12.456   1.794  0.0279  1.1087  0.9719
  632MOL0     H83410   2.176  11.666   2.739 -0.8723  0.0208  1.1640
  632MOL0     H83411   1.995  11.592   2.883  3.9684  1.1392 -0.4757
  632MOL0     H83412   1.547  11.380   2.823 -1.2399 -0.4474 -0.2840
  632MOL0     H83413   1.318  11.401   2.923 -0.5410  1.2177 -1.4131
  632MOL0     H83414   1.126  11.451   3.018  0.4006 -0.4457 -0.6429
  632MOL0     H83415   1.080  11.503   3.169  3.4439  2.6121  0.8204
  632MOL0     H83416   1.025  11.269   3.075 -0.3549 -1.3166 -0.4684
  632MOL0     H83417   1.195  11.219   3.072 -1.4607 -3.4603  1.5744
  632MOL0     H83418   1.077  11.321   3.334  1.8809  2.9756 -2.1585
  632MOL0     H83419   1.222  11.221   3.294 -0.3716 -1.5658 -0.0819
  632MOL0     H83420   0.963  11.091   3.239 -0.5882 -2.7284  1.0593
  632MOL0     H83421   1.113  11.032   3.258  0.2522  1.2160 -0.1684
  632MOL0     H83422   0.964  11.029   3.663  1.1508 -1.7723  0.3104
  632MOL0     H83423   1.485  11.494   3.295 -0.4279  1.8525 -0.2877
  632MOL0     H83424   1.716  11.454   3.211  0.7661 -3.1467 -0.9614
  633MOL0     O83425   5.822   2.351   3.002 -0.4737 -0.0955 -0.1651
  633MOL0     C83426   5.830   2.283   3.099  0.6298  0.5437 -0.7955
  633MOL0     O83427   5.813   2.329   3.232 -0.6082 -0.3134  0.0995
  633MOL0     C83428   5.788   2.468   3.247 -0.1445 -0.3428  0.5651
  633MOL0     C83429   5.654   2.503   3.244 -0.2817  0.1375  0.7588
  633MOL0     C83430   5.613   2.635   3.264 -0.7359 -0.0336  0.6164
  633MOL0     C83431   5.709   2.732   3.296 -0.4058 -0.5116 -0.2952
  633MOL0     O83432   5.660   2.852   3.337 -0.3389  0.3657 -0.4966
  633MOL0     C83433   5.738   2.977   3.312 -0.2824  0.4250  0.3859
  633MOL0     C83434   5.646   3.098   3.354  0.2351  0.5699 -0.3503
  633MOL0     C83435   5.587   3.108   3.492 -0.3605 -0.7073  0.5147
  633MOL0     C83436   5.700   3.080   3.598 -0.7920 -0.4019 -0.9165
  633MOL0     C83437   5.669   3.132   3.748 -0.1024  0.5786  0.5594
  633MOL0     C83438   5.787   3.139   3.838 -0.3890 -0.2451 -0.1106
  633MOL0     C83439   5.796   3.213   3.965  0.9921 -0.2217 -0.5944
  633MOL0     C83440   5.718   3.143   4.078 -0.0269 -1.3899 -0.3952
  633MOL0     N83441   5.814   3.061   4.139 -0.0846  0.8675  0.2030
  633MOL0     C83442   5.912   3.098   4.229  0.5208 -0.6794 -0.4988
  633MOL0     C83443   5.958   2.979   4.272  0.9590 -1.0268 -0.5024
  633MOL0     C83444   6.060   2.948   4.370 -0.2526 -0.0551  0.5378
  633MOL0     C83445   6.188   3.032   4.345  0.9764 -1.1409 -0.1617
  633MOL0     C83446   6.185   3.164   4.438  0.0924 -0.2636  0.6426
  633MOL0     C83447   6.312   3.247   4.421  0.0733  0.9916  0.2071
  633MOL0     O83448   6.305   3.359   4.495 -1.1038 -0.1462 -0.0859
  633MOL0     C83449   6.311   3.369   4.636  0.5439 -0.0967  0.3275
  633MOL0     C83450   6.338   3.268   4.732 -1.2258 -0.1902 -0.3192
  633MOL0     C83451   6.383   3.292   4.864  0.2745 -0.1170  1.5556
  633MOL0     C83452   6.396   3.428   4.908 -0.4571  0.4955  0.2184
  633MOL0     C83453   6.451   3.462   5.043 -0.6219  0.0161 -0.8754
  633MOL0     O83454   6.491   3.590   5.074  0.3633  0.4842  0.2163
  633MOL0     C83455   6.518   3.628   5.202 -0.0832  0.4783 -0.4046
  633MOL0     C83456   6.430   3.616   5.308 -0.4901  0.8297 -0.1370
  633MOL0     C83457   6.475   3.662   5.434  0.2679 -0.7527  0.5164
  633MOL0     C83458   6.598   3.731   5.448  0.2665  0.9047  0.0635
  633MOL0     O83459   6.619   3.806   5.555  1.0140 -0.1689 -0.2967
  633MOL0     C83460   6.753   3.809   5.616 -0.3642  0.3746  0.0413
  633MOL0     C83461   6.728   3.865   5.755  0.3033  0.9149 -0.5112
  633MOL0     C83462   6.651   3.998   5.769  0.0047 -0.3695 -0.3630
  633MOL0     C83463   6.741   4.118   5.743 -0.1364 -0.1384 -0.6087
  633MOL0     C83464   6.672   4.239   5.690 -0.5300 -0.6607  0.3270
  633MOL0     C83465   6.754   4.363   5.730 -0.3277  0.3219  0.4067
  633MOL0     C83466   6.893   4.385   5.657  0.2661 -0.5155 -0.1034
  633MOL0     C83467   6.870   4.442   5.514  0.6471 -0.2277  0.1330
  633MOL0    Cl83468   6.769   4.591   5.512  0.5152 -0.1180 -0.4927
  633MOL0     C83469   6.682   3.736   5.336 -0.1363 -0.1921 -0.6625
  633MOL0     C83470   6.639   3.688   5.217 -0.3972 -0.6419 -0.6906
  633MOL0     O83471   6.448   3.375   5.124  0.3414  0.2911 -0.0792
  633MOL0     C83472   6.367   3.528   4.818  1.1226  0.0305  0.6919
  633MOL0     C83473   6.330   3.500   4.681  0.1858 -0.0301 -0.3396
  633MOL0     N83474   5.889   2.875   4.197  0.2143  0.1091  0.0152
  633MOL0     N83475   5.810   2.923   4.118 -0.3409 -0.4345 -0.2838
  633MOL0     C83476   5.845   2.693   3.320 -0.7818 -0.1376 -0.6887
  633MOL0     C83477   5.886   2.560   3.291  0.9769 -0.0125 -0.1669
  633MOL0     C83478   5.841   2.132   3.074 -0.6625  0.2837 -0.5966
  633MOL0     C83479   5.864   2.056   3.187  0.0310  0.5027 -0.8346
  633MOL0     C83480   5.880   1.920   3.175 -0.3245 -1.1079 -0.6157
  633MOL0     C83481   5.852   1.848   3.061  0.4911  0.0803  1.1845
  633MOL0     O83482   5.864   1.709   3.054  0.2323  0.2227 -0.0017
  633MOL0     C83483   5.961   1.652   2.959  0.8807  0.9104 -0.8379
  633MOL0     C83484   5.979   1.505   2.986 -0.1548  0.2393 -1.0002
  633MOL0     C83485   5.862   1.433   2.934  0.3012  0.1755 -0.0264
  633MOL0     C83486   5.864   1.289   2.987  0.3487 -0.3368  1.0145
  633MOL0     C83487   5.975   1.203   2.938  1.4314 -0.6311  0.2161
  633MOL0     C83488   6.083   1.152   2.937  0.3037 -0.0783 -0.3509
  633MOL0     C83489   5.844   1.926   2.941 -0.2673 -0.2207 -0.4467
  633MOL0     C83490   5.841   2.066   2.940 -1.0020 -1.0149  1.3990
  633MOL0     H83491   5.590   2.419   3.220  1.0263 -0.8111  0.4385
  633MOL0     H83492   5.507   2.660   3.266 -0.5556  0.7702  0.4970
  633MOL0     H83493   5.757   2.994   3.206 -1.7556 -2.4211 -0.4175
  633MOL0     H83494   5.833   2.985   3.365 -0.5946  0.1273  0.9980
  633MOL0     H83495   5.561   3.111   3.286 -0.4759 -0.3517  0.3394
  633MOL0     H83496   5.708   3.187   3.340  0.0558  0.5019 -1.7418
  633MOL0     H83497   5.505   3.036   3.506 -1.0056  0.0494  0.6972
  633MOL0     H83498   5.540   3.206   3.501  1.5851  0.3907 -0.5873
  633MOL0     H83499   5.713   2.971   3.604 -1.0878 -0.3920 -0.0050
  633MOL0     H83500   5.796   3.126   3.574 -1.6011  1.6602 -0.3808
  633MOL0     H83501   5.598   3.070   3.804 -1.7455  2.2154  0.4000
  633MOL0     H83502   5.624   3.231   3.735  0.9959  1.0904  0.5492
  633MOL0     H83503   5.848   3.191   3.764 -0.6059 -0.0307 -0.1405
  633MOL0     H83504   5.833   3.041   3.855  0.8061  0.0942 -1.2239
  633MOL0     H83505   5.903   3.218   3.985  1.0424 -2.6419  0.0195
  633MOL0     H83506   5.748   3.309   3.944 -3.0223 -0.7325  4.2703
  633MOL0     H83507   5.646   3.077   4.029 -2.0606 -1.3182  2.2401
  633MOL0     H83508   5.662   3.200   4.154 -1.2714 -0.1113 -2.1847
  633MOL0     H83509   5.918   3.201   4.261  1.1138 -0.3161 -1.7004
  633MOL0     H83510   6.091   2.844   4.355 -0.6113  0.2091 -2.6348
  633MOL0     H83511   6.028   2.954   4.475 -2.4276 -3.0018  0.1729
  633MOL0     H83512   6.212   3.069   4.245  3.1622  0.2420  0.7867
  633MOL0     H83513   6.271   2.966   4.371  0.6260 -1.5213 -0.0039
  633MOL0     H83514   6.109   3.234   4.402  1.7744  1.1013 -0.4216
  633MOL0     H83515   6.185   3.124   4.540 -0.2917  0.3358  0.8803
  633MOL0     H83516   6.339   3.260   4.316  2.4165 -2.4451  0.1986
  633MOL0     H83517   6.396   3.182   4.450  0.0707  0.1191 -1.6321
  633MOL0     H83518   6.340   3.170   4.685 -0.6346 -0.2056 -0.2696
  633MOL0     H83519   6.402   3.214   4.937 -1.5749  0.4036  2.6373
  633MOL0     H83520   6.334   3.567   5.295 -1.2523  2.3493 -0.4632
  633MOL0     H83521   6.406   3.637   5.514 -1.6155 -1.8170 -1.3431
  633MOL0     H83522   6.820   3.883   5.570 -1.9940  2.0971  0.3272
  633MOL0     H83523   6.785   3.704   5.609  1.7902  0.8169  2.0580
  633MOL0     H83524   6.829   3.888   5.790  0.9142 -1.1256 -0.8370
  633MOL0     H83525   6.688   3.781   5.812 -2.4259  0.6806 -2.5427
  633MOL0     H83526   6.623   4.000   5.875 -0.9850  0.6907 -0.6343
  633MOL0     H83527   6.558   3.995   5.712 -0.6796 -1.1120  0.7376
  633MOL0     H83528   6.789   4.137   5.839 -2.1336  1.1348  0.2094
  633MOL0     H83529   6.826   4.099   5.677  1.1733  1.1849  0.6189
  633MOL0     H83530   6.572   4.247   5.734 -0.6868 -0.1075 -0.1163
  633MOL0     H83531   6.660   4.247   5.581 -1.7913  2.3215  0.5629
  633MOL0     H83532   6.773   4.359   5.838  1.8153 -0.9640  0.0167
  633MOL0     H83533   6.689   4.451   5.721 -1.5287 -0.2846  2.4427
  633MOL0     H83534   6.945   4.468   5.706 -1.4923  0.4833  0.1471
  633MOL0     H83535   6.945   4.289   5.664 -1.4891 -1.3874  2.3872
  633MOL0     H83536   6.812   4.368   5.459  1.3186 -3.3683  3.3446
  633MOL0     H83537   6.962   4.467   5.460  0.9790  4.9674  2.4848
  633MOL0     H83538   6.778   3.785   5.351  0.4823 -1.5862  0.1037
  633MOL0     H83539   6.704   3.714   5.134 -0.6029  1.8025 -0.1595
  633MOL0     H83540   6.387   3.631   4.847  0.5139 -0.0764  1.5068
  633MOL0     H83541   6.312   3.585   4.615  1.2557 -1.7022 -2.9365
  633MOL0     H83542   5.915   2.771   3.347 -0.9221 -0.5183  0.8470
  633MOL0     H83543   5.982   2.516   3.316  0.5726  0.4889  2.5501
  633MOL0     H83544   5.870   2.103   3.284 -4.7755  0.1689 -0.1305
  633MOL0     H83545   5.922   1.884   3.268  1.8913  0.8269 -0.7798
  633MOL0     H83546   6.062   1.694   2.967  1.8015 -1.2733 -0.0802
  633MOL0     H83547   5.923   1.655   2.857  2.6304 -1.1594 -1.6285
  633MOL0     H83548   6.073   1.459   2.955  1.1010 -0.1421  2.8435
  633MOL0     H83549   5.983   1.496   3.095 -2.5917 -5.1809 -1.0361
  633MOL0     H83550   5.858   1.436   2.825 -0.0926 -2.4714 -0.1473
  633MOL0     H83551   5.772   1.484   2.970 -0.1758  0.9110 -2.1407
  633MOL0     H83552   5.857   1.267   3.094  1.0251 -3.8538  0.4753
  633MOL0     H83553   5.768   1.259   2.942 -0.3077  3.2160 -0.2773
  633MOL0     H83554   6.182   1.114   2.924 -0.1818 -2.1787  1.5391
  633MOL0     H83555   5.846   1.874   2.846  2.0753  1.7136 -1.5778
  633MOL0     H83556   5.845   2.127   2.851  0.4962  0.5665  2.4621
  634MOL0     O83557  10.462   1.980   2.182 -0.2829  0.2781  0.3890
  634MOL0     C83558  10.523   2.058   2.252 -0.1068  0.8774  0.3869
  634MOL0     O83559  10.656   2.084   2.257  0.0438 -0.7647  0.3122
  634MOL0     C83560  10.745   2.018   2.176 -0.6213 -0.2930  0.0023
  634MOL0     C83561  10.721   1.941   2.057  0.4056  0.3366 -0.7549
  634MOL0     C83562  10.824   1.880   1.984 -0.2507 -0.1265  0.7551
  634MOL0     C83563  10.955   1.906   2.022  0.8038 -0.1040  0.2339
  634MOL0     O83564  11.050   1.839   1.936 -0.4013 -0.5396  0.2970
  634MOL0     C83565  11.174   1.803   1.995  0.2532 -0.3835  0.8617
  634MOL0     C83566  11.280   1.894   1.939  0.0626 -0.1901 -0.9672
  634MOL0     C83567  11.299   1.901   1.789  0.3218 -0.0880  0.0021
  634MOL0     C83568  11.431   1.962   1.750  1.0959 -0.5010 -1.1463
  634MOL0     C83569  11.548   1.864   1.733  0.1309 -0.0710 -0.8345
  634MOL0     C83570  11.692   1.916   1.697  0.5524 -0.8149 -0.0936
  634MOL0     C83571  11.803   1.814   1.709  0.3397 -0.4140  0.5698
  634MOL0     C83572  11.847   1.750   1.837  0.0786  0.0339  0.7658
  634MOL0     N83573  11.939   1.629   1.827 -0.0976  0.3248  0.9510
  634MOL0     C83574  11.991   1.595   1.705  0.4128  0.2548 -0.5028
  634MOL0     C83575  12.090   1.509   1.732 -0.3497  0.5423 -0.5924
  634MOL0     C83576  12.164   1.440   1.625 -0.2732  0.1032  0.2163
  634MOL0     C83577  12.274   1.521   1.568  0.1208 -0.5119 -1.5332
  634MOL0     C83578  12.211   1.620   1.459 -0.1855  0.1306 -0.2119
  634MOL0     C83579  12.323   1.681   1.382  0.4077 -0.0096  0.5595
  634MOL0     O83580  12.385   1.784   1.464 -0.1690 -0.5962  0.8111
  634MOL0     C83581  12.494   1.841   1.400 -0.2790 -0.5891 -0.1487
  634MOL0     C83582  12.610   1.769   1.384  0.2740  0.2628 -0.1129
  634MOL0     C83583  12.731   1.827   1.325  0.7084  0.0953 -0.7802
  634MOL0     C83584  12.724   1.954   1.266  0.0756  0.3856 -0.2946
  634MOL0     C83585  12.842   2.003   1.211 -0.5021 -0.7706 -0.0530
  634MOL0     O83586  12.846   2.054   1.087  1.1477 -0.5234  0.3413
  634MOL0     C83587  12.931   2.154   1.035  1.5287  0.8988 -0.6633
  634MOL0     C83588  12.949   2.160   0.895 -0.6214 -0.1862  0.9598
  634MOL0     C83589  13.052   2.252   0.844 -0.5139  0.0044 -0.3482
  634MOL0     C83590  13.110   2.347   0.932  1.7197  0.3574 -0.0696
  634MOL0     O83591  13.192   2.448   0.890  0.4834  0.2478  0.6893
  634MOL0     C83592  13.197   2.579   0.946  0.1769  0.1183 -0.3009
  634MOL0     C83593  13.320   2.657   0.895 -0.0252 -0.3269 -0.4154
  634MOL0     C83594  13.341   2.663   0.741  0.5120 -0.2856 -0.6972
  634MOL0     C83595  13.474   2.732   0.709 -0.0807  0.2786 -0.6987
  634MOL0     C83596  13.542   2.667   0.586  0.1089  0.9828  0.3866
  634MOL0     C83597  13.455   2.680   0.458  0.8035  0.2571  0.5140
  634MOL0     C83598  13.417   2.835   0.429  0.3126  0.1917  0.1732
  634MOL0     C83599  13.349   2.870   0.290 -1.2923  0.3378  0.1096
  634MOL0    Cl83600  13.221   2.744   0.262  0.2313  0.3406 -0.2392
  634MOL0     C83601  13.085   2.333   1.064 -0.4188  0.7960 -0.9591
  634MOL0     C83602  13.005   2.237   1.121  0.3932  0.6311  0.0569
  634MOL0     O83603  12.934   1.999   1.294  0.1690 -0.3529 -0.5076
  634MOL0     C83604  12.599   2.021   1.280 -0.6263  0.1184  0.4552
  634MOL0     C83605  12.488   1.967   1.343 -0.6975 -0.5215  0.6555
  634MOL0     N83606  12.085   1.483   1.866  0.5931 -0.9661 -0.5952
  634MOL0     N83607  11.997   1.562   1.925 -1.1277 -0.3325  0.1611
  634MOL0     C83608  10.974   1.979   2.140 -0.0231 -0.0510  0.4945
  634MOL0     C83609  10.872   2.025   2.214 -0.5651  0.8561  0.2016
  634MOL0     C83610  10.444   2.134   2.353 -0.0947  0.4746  0.5499
  634MOL0     C83611  10.505   2.221   2.440  0.2393 -0.2982  0.3406
  634MOL0     C83612  10.442   2.276   2.555  0.1065  0.2585  0.0613
  634MOL0     C83613  10.303   2.251   2.568  0.1109  0.0168  0.7521
  634MOL0     O83614  10.223   2.299   2.659 -0.0049  0.7532  1.0840
  634MOL0     C83615  10.279   2.375   2.777  0.6649  0.0892  0.8217
  634MOL0     C83616  10.192   2.341   2.903  0.1821  0.0085 -0.1464
  634MOL0     C83617  10.261   2.431   3.002 -0.7846  1.4827  0.2994
  634MOL0     C83618  10.198   2.429   3.144 -0.2337 -0.0406  0.6870
  634MOL0     C83619  10.078   2.525   3.138 -0.0937  0.1721  0.1814
  634MOL0     C83620  10.002   2.612   3.150 -0.4510  0.2612 -0.7239
  634MOL0     C83621  10.243   2.161   2.479 -0.0489 -0.6206 -0.7092
  634MOL0     C83622  10.304   2.102   2.366  0.6193  0.6901 -0.5914
  634MOL0     H83623  10.621   1.936   2.014  0.2660 -1.1918 -0.2955
  634MOL0     H83624  10.808   1.820   1.895  1.5688  1.0693 -0.4439
  634MOL0     H83625  11.198   1.704   1.954  2.6748  2.0392 -4.5384
  634MOL0     H83626  11.164   1.810   2.104  0.2398 -2.0300  0.9886
  634MOL0     H83627  11.368   1.859   1.994  0.7872  3.8364  0.7890
  634MOL0     H83628  11.278   1.995   1.979  1.4776  0.0351 -1.4073
  634MOL0     H83629  11.216   1.958   1.746 -0.9790 -2.1777 -0.4118
  634MOL0     H83630  11.305   1.801   1.746 -1.4414  0.7336 -2.3355
  634MOL0     H83631  11.431   2.024   1.660 -0.3940 -0.3933 -1.0870
  634MOL0     H83632  11.461   2.034   1.827 -1.2684  0.4117 -0.9876
  634MOL0     H83633  11.510   1.789   1.663 -3.5189 -0.8391  1.6954
  634MOL0     H83634  11.565   1.808   1.825  2.9225 -1.2214 -1.9462
  634MOL0     H83635  11.699   2.009   1.754 -0.5367  0.0530 -1.3214
  634MOL0     H83636  11.695   1.945   1.592 -0.1378  1.9032  0.5488
  634MOL0     H83637  11.771   1.741   1.635  0.3103 -0.0282  0.1962
  634MOL0     H83638  11.883   1.877   1.668 -0.9327  1.1905  0.4269
  634MOL0     H83639  11.756   1.717   1.890 -1.2193 -1.6874 -2.2943
  634MOL0     H83640  11.896   1.824   1.901  3.1397 -1.2075 -0.0076
  634MOL0     H83641  11.975   1.631   1.604  0.2573  1.1761 -0.1601
  634MOL0     H83642  12.109   1.396   1.541  2.6799 -1.5633 -1.0062
  634MOL0     H83643  12.207   1.350   1.670  3.0428  1.1945 -0.5424
  634MOL0     H83644  12.343   1.453   1.517 -0.9263 -1.7161 -1.3882
  634MOL0     H83645  12.328   1.567   1.652  0.5926  1.9435 -3.0966
  634MOL0     H83646  12.144   1.568   1.389  0.2311 -0.4158 -0.2086
  634MOL0     H83647  12.154   1.698   1.511 -0.2604 -1.1494  1.7358
  634MOL0     H83648  12.293   1.720   1.284  0.2898 -1.2497  0.0846
  634MOL0     H83649  12.394   1.600   1.363  1.4788  0.7591  1.1514
  634MOL0     H83650  12.614   1.676   1.440 -2.2007  0.9534  1.3610
  634MOL0     H83651  12.825   1.772   1.329  2.0517  2.3352  2.5909
  634MOL0     H83652  12.896   2.101   0.820  1.3455  3.7710 -4.1279
  634MOL0     H83653  13.070   2.262   0.738 -0.8931  4.1905 -0.1606
  634MOL0     H83654  13.199   2.571   1.055 -0.2349 -1.2580 -0.3843
  634MOL0     H83655  13.104   2.629   0.916  0.7333  0.8612 -0.8371
  634MOL0     H83656  13.410   2.619   0.945 -1.1738  0.0769  2.0960
  634MOL0     H83657  13.318   2.760   0.929  0.1358 -0.1299 -0.9833
  634MOL0     H83658  13.264   2.726   0.695  0.8698  0.4458 -0.3075
  634MOL0     H83659  13.338   2.559   0.707  1.7744 -1.2783  1.9216
  634MOL0     H83660  13.470   2.839   0.688 -1.2253  0.1579 -1.1322
  634MOL0     H83661  13.536   2.726   0.799  0.3256  0.6593 -0.9440
  634MOL0     H83662  13.563   2.561   0.604 -0.6777  0.5150 -1.2658
  634MOL0     H83663  13.643   2.707   0.575  0.2830  0.4560  0.0266
  634MOL0     H83664  13.371   2.610   0.458 -0.8219  2.0846 -1.0158
  634MOL0     H83665  13.515   2.644   0.373  0.1869  0.7271 -0.1297
  634MOL0     H83666  13.342   2.852   0.507  1.8111 -1.6956  2.1677
  634MOL0     H83667  13.504   2.900   0.445  1.1406 -0.4690 -1.3604
  634MOL0     H83668  13.422   2.848   0.213 -0.8940 -3.5162  1.3655
  634MOL0     H83669  13.311   2.972   0.282 -2.1145  0.1334  1.0979
  634MOL0     H83670  13.136   2.394   1.138  4.6681 -2.8683 -0.8881
  634MOL0     H83671  12.992   2.230   1.229  0.8956  3.4942  0.3823
  634MOL0     H83672  12.581   2.119   1.236  0.1518 -0.1098 -0.4076
  634MOL0     H83673  12.403   2.030   1.367 -1.5435 -0.4197 -2.2124
  634MOL0     H83674  11.061   2.009   2.197 -1.5078 -1.5072  3.7380
  634MOL0     H83675  10.908   2.067   2.306  0.0434 -3.5022  2.1972
  634MOL0     H83676  10.610   2.251   2.437 -0.5816  3.1638 -3.4536
  634MOL0     H83677  10.492   2.353   2.611  3.4500 -0.9751 -0.9649
  634MOL0     H83678  10.278   2.480   2.749 -0.3507 -0.1874 -0.2353
  634MOL0     H83679  10.381   2.336   2.792 -0.8273 -4.3158  0.9100
  634MOL0     H83680  10.089   2.367   2.876  0.0052 -1.0151 -0.4937
  634MOL0     H83681  10.188   2.237   2.934  0.0031 -0.8798 -2.9103
  634MOL0     H83682  10.277   2.533   2.965  4.9638  1.8056  2.5993
  634MOL0     H83683  10.365   2.396   3.010 -0.9284  0.0070 -2.9366
  634MOL0     H83684  10.163   2.328   3.165 -1.6239  0.6150  1.7088
  634MOL0     H83685  10.271   2.449   3.223  0.3284 -3.9008  1.3320
  634MOL0     H83686   9.926   2.687   3.158 -2.6716 -1.8965 -0.2947
  634MOL0     H83687  10.140   2.137   2.502  0.2645  0.9644  2.8842
  634MOL0     H83688  10.257   2.026   2.304 -1.5925  0.6872  0.9529
  635MOL0     O83689   6.737   9.783   2.791  0.1524  0.6215  0.0730
  635MOL0     C83690   6.844   9.747   2.828  0.7730 -0.5649 -1.0529
  635MOL0     O83691   6.888   9.771   2.964  0.2913  0.3187  0.4849
  635MOL0     C83692   6.810   9.835   3.055 -0.5143  0.6189  0.8067
  635MOL0     C83693   6.727   9.942   3.030  0.1860  0.5913  1.0220
  635MOL0     C83694   6.652  10.008   3.128  0.5005 -0.3804 -0.1571
  635MOL0     C83695   6.662   9.962   3.261  0.5853 -0.1235  0.4096
  635MOL0     O83696   6.590  10.005   3.371  0.4543 -0.1719  0.8445
  635MOL0     C83697   6.554  10.148   3.381  0.8672 -0.1534  1.3586
  635MOL0     C83698   6.497  10.185   3.520 -1.3748  0.5881  0.4419
  635MOL0     C83699   6.381  10.091   3.571  0.6292  0.0637  0.5543
  635MOL0     C83700   6.364  10.114   3.724  0.2856 -0.6600 -0.5862
  635MOL0     C83701   6.238  10.058   3.793 -1.1052 -0.8292  0.8177
  635MOL0     C83702   6.107  10.127   3.753  0.7195 -0.6633 -0.3963
  635MOL0     C83703   6.091  10.274   3.794 -1.3476 -0.0685 -1.0549
  635MOL0     C83704   5.992  10.349   3.704 -0.0849 -0.6076  0.0619
  635MOL0     N83705   6.016  10.495   3.711  0.5409 -0.9702  0.8041
  635MOL0     C83706   5.986  10.583   3.813  0.5497 -0.0092 -0.5085
  635MOL0     C83707   6.023  10.705   3.776  0.8633  0.6396  0.1109
  635MOL0     C83708   6.048  10.835   3.856 -0.1051  0.5669  0.3874
  635MOL0     C83709   6.092  10.810   4.000 -0.0943  0.4993 -0.2868
  635MOL0     C83710   6.247  10.769   4.006  0.6651 -0.0572 -0.5401
  635MOL0     C83711   6.340  10.892   3.988 -1.6858  0.6412  0.7603
  635MOL0     O83712   6.392  10.893   3.848  1.0816  0.9681 -0.2576
  635MOL0     C83713   6.491  10.810   3.801  0.8790  0.1966 -0.8382
  635MOL0     C83714   6.460  10.723   3.699  0.0734  1.5245 -0.3861
  635MOL0     C83715   6.555  10.624   3.664 -1.6813  0.0794  0.2376
  635MOL0     C83716   6.681  10.616   3.718 -0.5654 -0.4138 -0.2056
  635MOL0     C83717   6.782  10.518   3.681 -0.9874 -0.3172 -0.5476
  635MOL0     O83718   6.917  10.556   3.695 -0.2282  0.2961  0.1913
  635MOL0     C83719   7.016  10.480   3.640  0.0180  0.0478  0.3226
  635MOL0     C83720   7.064  10.371   3.720 -0.1443 -0.8452  0.6247
  635MOL0     C83721   7.174  10.292   3.679  0.0081  0.0181  0.4210
  635MOL0     C83722   7.238  10.318   3.560 -0.5407  0.3508  1.0093
  635MOL0     O83723   7.353  10.249   3.525  0.4769 -0.0973 -0.4787
  635MOL0     C83724   7.369  10.207   3.384  0.1883  0.4657 -0.8618
  635MOL0     C83725   7.478  10.096   3.379 -0.3639  0.2371  0.9638
  635MOL0     C83726   7.431   9.975   3.447 -0.4738  0.0620 -0.7973
  635MOL0     C83727   7.531   9.856   3.454 -0.0413 -0.1668  0.2574
  635MOL0     C83728   7.494   9.774   3.583 -0.8327  0.2332  0.4220
  635MOL0     C83729   7.595   9.662   3.597 -0.6324  0.3267 -0.8477
  635MOL0     C83730   7.555   9.539   3.516 -0.1141  0.0410 -0.1792
  635MOL0     C83731   7.626   9.404   3.571  0.2701  0.1389  0.0538
  635MOL0    Cl83732   7.803   9.417   3.570 -0.0121  0.1184 -0.2586
  635MOL0     C83733   7.191  10.419   3.480  0.1835  0.3074  0.4692
  635MOL0     C83734   7.081  10.498   3.515 -0.1124 -0.1359 -0.1010
  635MOL0     O83735   6.744  10.415   3.624 -0.2853  0.2064 -0.3098
  635MOL0     C83736   6.700  10.694   3.834  0.0173  0.9314 -0.0200
  635MOL0     C83737   6.610  10.788   3.874  0.5958 -0.5590  0.2627
  635MOL0     N83738   6.061  10.692   3.647 -0.2523  0.9315 -0.9437
  635MOL0     N83739   6.061  10.569   3.612 -0.0611  0.5038 -0.4896
  635MOL0     C83740   6.745   9.849   3.284  0.4561 -0.0833  0.1121
  635MOL0     C83741   6.819   9.789   3.187 -0.0442 -0.3283 -0.6928
  635MOL0     C83742   6.916   9.661   2.741  0.5028 -0.6363  0.3190
  635MOL0     C83743   6.903   9.650   2.604  1.0092 -0.7655  0.9184
  635MOL0     C83744   6.977   9.560   2.535 -0.1372 -0.4710  0.0851
  635MOL0     C83745   7.085   9.489   2.597 -0.3334  0.8898  1.2246
  635MOL0     O83746   7.167   9.410   2.528 -0.9331 -0.5606 -1.2787
  635MOL0     C83747   7.117   9.321   2.431 -0.5619 -0.1706  0.0591
  635MOL0     C83748   7.205   9.190   2.428 -0.1536 -1.0111 -0.0094
  635MOL0     C83749   7.164   9.109   2.549 -0.8599  0.6790  0.3296
  635MOL0     C83750   7.234   8.973   2.575  0.3844  0.5261  0.5712
  635MOL0     C83751   7.258   8.902   2.444  0.1241  0.2467 -0.2866
  635MOL0     C83752   7.296   8.836   2.344 -0.2374 -0.1786 -0.4429
  635MOL0     C83753   7.109   9.509   2.735 -0.8537 -0.1095 -0.1194
  635MOL0     C83754   7.022   9.595   2.801  0.2235 -0.2247 -0.2425
  635MOL0     H83755   6.728   9.975   2.927  1.2490  1.6156  1.3314
  635MOL0     H83756   6.592  10.095   3.102 -0.2764 -0.6492  0.6675
  635MOL0     H83757   6.479  10.168   3.304 -0.1645 -0.2118  2.3195
  635MOL0     H83758   6.641  10.204   3.345  0.9628 -0.3627  1.2601
  635MOL0     H83759   6.471  10.290   3.530 -2.0275  0.4257  0.4898
  635MOL0     H83760   6.576  10.171   3.595 -2.3644 -0.8822  1.2617
  635MOL0     H83761   6.409   9.989   3.543  2.4325 -0.2218  3.0483
  635MOL0     H83762   6.295  10.122   3.511  2.0260  3.2253  0.0124
  635MOL0     H83763   6.444  10.068   3.784 -1.1607  0.8162  2.7508
  635MOL0     H83764   6.360  10.222   3.741 -0.0794 -0.7210 -0.2746
  635MOL0     H83765   6.242  10.059   3.903  0.6168 -0.7487  0.7842
  635MOL0     H83766   6.241   9.955   3.754 -0.6426 -1.5862  2.7382
  635MOL0     H83767   6.031  10.065   3.803 -1.5832  0.7619 -1.9578
  635MOL0     H83768   6.098  10.112   3.645 -0.4906  1.5181 -0.6385
  635MOL0     H83769   6.060  10.276   3.899  1.0835 -2.0673 -0.2190
  635MOL0     H83770   6.186  10.328   3.797 -1.8669  0.8467 -0.1015
  635MOL0     H83771   5.893  10.323   3.744 -1.4355  4.0453  0.2770
  635MOL0     H83772   5.995  10.309   3.602 -3.6249  4.1369 -2.3221
  635MOL0     H83773   5.948  10.566   3.914 -2.0717  3.2598 -0.7900
  635MOL0     H83774   5.955  10.893   3.855 -1.0106 -0.8161  0.7836
  635MOL0     H83775   6.123  10.895   3.803  2.2101  0.1618  2.9496
  635MOL0     H83776   6.026  10.744   4.056 -1.9315  1.6091 -1.0639
  635MOL0     H83777   6.085  10.906   4.052  0.8105  0.3802  0.0707
  635MOL0     H83778   6.259  10.748   4.113  1.4815 -0.6202 -0.7346
  635MOL0     H83779   6.272  10.676   3.955  0.5964 -0.2094 -0.2961
  635MOL0     H83780   6.420  10.872   4.059 -0.4395 -2.5808 -1.3415
  635MOL0     H83781   6.285  10.984   4.013 -1.7920  0.6156  0.6235
  635MOL0     H83782   6.367  10.725   3.643 -0.3979  1.1616  0.3572
  635MOL0     H83783   6.526  10.554   3.585  2.6370 -0.4630 -1.0881
  635MOL0     H83784   7.032  10.339   3.819 -0.0358  0.1540  0.9917
  635MOL0     H83785   7.217  10.218   3.746  1.5953  1.0475  0.5788
  635MOL0     H83786   7.395  10.295   3.325  1.0799  0.4320 -0.5325
  635MOL0     H83787   7.276  10.172   3.337 -0.7401  0.5011  0.8950
  635MOL0     H83788   7.561  10.144   3.431 -0.1265  2.3395 -1.1880
  635MOL0     H83789   7.517  10.070   3.280  1.7989  1.7755  1.3339
  635MOL0     H83790   7.347   9.940   3.386  0.1079 -4.5527  0.6452
  635MOL0     H83791   7.402  10.007   3.547  1.2218 -1.7593  0.3566
  635MOL0     H83792   7.516   9.777   3.380  5.2911  0.0307 -1.4205
  635MOL0     H83793   7.627   9.908   3.458 -0.7839  1.2012  2.0322
  635MOL0     H83794   7.392   9.736   3.579 -1.6674  2.4485 -2.6599
  635MOL0     H83795   7.508   9.841   3.669  1.0206 -1.8755  1.8846
  635MOL0     H83796   7.606   9.634   3.702  1.6173  2.5964 -0.3774
  635MOL0     H83797   7.696   9.688   3.563 -1.9252  1.1963 -4.5147
  635MOL0     H83798   7.445   9.535   3.514 -0.1574  0.8325  0.0835
  635MOL0     H83799   7.601   9.550   3.417  1.4919  0.2368  0.5592
  635MOL0     H83800   7.595   9.317   3.511  2.2903 -0.5416 -0.0843
  635MOL0     H83801   7.588   9.385   3.672  1.0471  0.5111  0.4268
  635MOL0     H83802   7.237  10.430   3.382  0.9649 -1.7990  0.5539
  635MOL0     H83803   7.046  10.576   3.448 -1.2811  0.0993  0.7610
  635MOL0     H83804   6.795  10.695   3.888 -0.0980 -0.1823  0.2333
  635MOL0     H83805   6.638  10.853   3.957  0.1363  2.0383 -1.5003
  635MOL0     H83806   6.755   9.814   3.386 -0.5083 -0.9403 -0.0627
  635MOL0     H83807   6.881   9.712   3.231  0.3533  1.3833  1.9604
  635MOL0     H83808   6.826   9.708   2.554 -3.4696 -3.7714  3.5672
  635MOL0     H83809   6.966   9.556   2.428  2.5037  3.5674 -0.5274
  635MOL0     H83810   7.141   9.370   2.336  1.3800 -2.3607 -0.6569
  635MOL0     H83811   7.011   9.298   2.442 -0.8873  0.5938 -1.2811
  635MOL0     H83812   7.177   9.136   2.336  0.9160  0.3077 -1.1561
  635MOL0     H83813   7.311   9.214   2.437  0.1392 -2.3225  0.3603
  635MOL0     H83814   7.061   9.085   2.520 -0.1537 -2.0248 -0.2513
  635MOL0     H83815   7.164   9.167   2.641 -0.3692  0.6731  0.3347
  635MOL0     H83816   7.330   9.005   2.617 -0.6269  1.3943  2.3157
  635MOL0     H83817   7.173   8.914   2.644 -1.5139  0.0964 -1.3506
  635MOL0     H83818   7.341   8.774   2.269  0.5518 -0.2484  0.0793
  635MOL0     H83819   7.187   9.452   2.784 -0.1969  0.9955  0.1611
  635MOL0     H83820   7.039   9.592   2.908 -2.0264 -0.4774  0.1685
  636MOL0     O83821   9.215   5.645   6.549 -0.6851 -0.2644  0.2382
  636MOL0     C83822   9.337   5.637   6.525  0.4861 -0.2141  0.2642
  636MOL0     O83823   9.401   5.724   6.432  0.5271  0.5721  0.0780
  636MOL0     C83824   9.331   5.840   6.435 -0.5067 -0.7827  0.3988
  636MOL0     C83825   9.315   5.905   6.307 -0.0689 -0.4244  0.1262
  636MOL0     C83826   9.226   6.014   6.289 -0.7821  0.1721 -0.1441
  636MOL0     C83827   9.178   6.078   6.394  0.2587  0.2119  0.0640
  636MOL0     O83828   9.095   6.186   6.394  0.1442  0.5142 -0.4273
  636MOL0     C83829   9.042   6.233   6.261 -0.5384  0.6312 -0.4906
  636MOL0     C83830   9.139   6.295   6.161  0.4942  0.7697  0.7764
  636MOL0     C83831   9.186   6.425   6.209 -0.3863 -0.5888  0.6936
  636MOL0     C83832   9.280   6.494   6.104  0.5171 -1.2310 -1.0067
  636MOL0     C83833   9.330   6.633   6.175  0.6848  0.3534 -0.4293
  636MOL0     C83834   9.425   6.623   6.300  0.2999 -0.8854 -0.2640
  636MOL0     C83835   9.569   6.668   6.267 -0.7693  0.8890 -0.6310
  636MOL0     C83836   9.637   6.731   6.379 -0.2715  0.2558  0.1162
  636MOL0     N83837   9.635   6.659   6.503  0.0071 -0.7080  0.5873
  636MOL0     C83838   9.724   6.562   6.531 -0.1272 -0.5273  0.0461
  636MOL0     C83839   9.697   6.518   6.651 -0.4997  0.3619  0.2809
  636MOL0     C83840   9.793   6.424   6.721 -0.4856 -0.9143  0.9193
  636MOL0     C83841   9.856   6.496   6.841  0.7136 -0.4019  0.8780
  636MOL0     C83842   9.962   6.401   6.904  0.0718  1.0522 -0.8840
  636MOL0     C83843  10.048   6.462   7.013  0.5076  0.6830 -0.2077
  636MOL0     O83844  10.154   6.366   7.044 -0.3369  0.0093  0.5437
  636MOL0     C83845  10.277   6.403   7.091  0.0154 -0.0183  0.8669
  636MOL0     C83846  10.382   6.307   7.082 -0.2013  0.0615 -0.7894
  636MOL0     C83847  10.513   6.333   7.134  0.7099  0.1241  0.6709
  636MOL0     C83848  10.541   6.461   7.183 -0.1663 -0.9180 -0.1612
  636MOL0     C83849  10.677   6.502   7.229  0.9533  0.1665  0.2945
  636MOL0     O83850  10.691   6.635   7.264  0.2946 -0.8408  0.4088
  636MOL0     C83851  10.825   6.691   7.275  1.4285 -0.2620  0.4154
  636MOL0     C83852  10.831   6.829   7.319  0.0615  0.3493 -0.4658
  636MOL0     C83853  10.947   6.902   7.338 -0.3312 -0.5601 -0.5128
  636MOL0     C83854  11.063   6.844   7.290 -0.2649  1.1244  0.0589
  636MOL0     O83855  11.185   6.905   7.283 -0.4199 -0.3812  0.3200
  636MOL0     C83856  11.307   6.830   7.261  0.9420 -0.0581  0.3170
  636MOL0     C83857  11.419   6.935   7.277  0.4229 -0.0231  0.4836
  636MOL0     C83858  11.435   7.005   7.136 -0.3823  0.3602  0.2034
  636MOL0     C83859  11.582   7.052   7.108 -0.2449  0.0688  0.2739
  636MOL0     C83860  11.619   7.180   7.171  0.0386 -0.9326 -0.3283
  636MOL0     C83861  11.712   7.171   7.290 -0.8046  0.0942 -0.7501
  636MOL0     C83862  11.857   7.136   7.260 -0.4378 -0.2188  0.2218
  636MOL0     C83863  11.944   7.251   7.190 -0.2248  0.8779  0.1109
  636MOL0    Cl83864  12.094   7.162   7.116  0.5341  0.1520 -0.5622
  636MOL0     C83865  11.058   6.708   7.247 -0.1210 -0.2361 -0.6757
  636MOL0     C83866  10.945   6.632   7.238 -0.8200 -0.0132  0.0572
  636MOL0     O83867  10.763   6.417   7.221  0.4716  0.9564  0.5055
  636MOL0     C83868  10.429   6.564   7.180 -0.0847  0.7577  1.3017
  636MOL0     C83869  10.299   6.525   7.140 -1.5143 -1.0140 -0.1440
  636MOL0     N83870   9.582   6.574   6.687 -1.0288 -0.0307 -1.2564
  636MOL0     N83871   9.550   6.662   6.602  0.4596 -0.4601 -0.4602
  636MOL0     C83872   9.217   6.037   6.519  0.1201  0.6347  0.3076
  636MOL0     C83873   9.292   5.924   6.547  0.6500 -0.0734 -0.2952
  636MOL0     C83874   9.421   5.528   6.568  0.4702 -0.6624  0.2139
  636MOL0     C83875   9.562   5.532   6.552 -0.6369 -0.8873 -0.1427
  636MOL0     C83876   9.645   5.437   6.591  0.4878 -0.2151 -0.3557
  636MOL0     C83877   9.595   5.337   6.673  0.1339  0.4916  0.3257
  636MOL0     O83878   9.675   5.226   6.677  1.1141  0.4084 -0.3479
  636MOL0     C83879   9.637   5.113   6.768  1.1184 -1.1634  0.0501
  636MOL0     C83880   9.721   4.993   6.725  0.5542  0.1117 -0.0538
  636MOL0     C83881   9.872   5.011   6.698 -0.4543 -0.1972  1.3314
  636MOL0     C83882   9.960   5.082   6.808 -0.2736  0.3956 -0.7483
  636MOL0     C83883   9.988   4.995   6.927  0.1240 -0.2217  0.3435
  636MOL0     C83884  10.017   4.924   7.021  0.3511 -1.4133  0.5604
  636MOL0     C83885   9.460   5.333   6.713  0.4261 -0.3901 -0.8905
  636MOL0     C83886   9.380   5.438   6.662  0.6115  0.2066 -0.5172
  636MOL0     H83887   9.377   5.872   6.225  1.6807  3.1069 -0.1678
  636MOL0     H83888   9.193   6.037   6.188  1.2649  0.3859 -0.8081
  636MOL0     H83889   8.960   6.303   6.277 -2.6382 -0.9827 -3.3658
  636MOL0     H83890   8.988   6.152   6.211  1.4151 -0.7813 -0.4695
  636MOL0     H83891   9.079   6.291   6.070 -0.6753  2.2979  1.4401
  636MOL0     H83892   9.222   6.225   6.146  0.5497  1.1008 -0.6053
  636MOL0     H83893   9.230   6.410   6.308 -0.3141  1.0330  0.9297
  636MOL0     H83894   9.098   6.486   6.227 -2.1901 -2.6562 -0.6302
  636MOL0     H83895   9.367   6.436   6.071  0.1930 -0.4119 -3.5532
  636MOL0     H83896   9.230   6.520   6.010  1.2252 -0.6540 -1.2401
  636MOL0     H83897   9.246   6.695   6.207 -0.1271 -0.7890 -0.3078
  636MOL0     H83898   9.379   6.697   6.101 -1.1652  2.2311 -0.1262
  636MOL0     H83899   9.428   6.527   6.353  0.0906  0.1271  1.6937
  636MOL0     H83900   9.383   6.689   6.377  0.0840 -0.4666 -0.7362
  636MOL0     H83901   9.623   6.577   6.240 -1.4077 -0.6796  2.7673
  636MOL0     H83902   9.574   6.748   6.193 -1.8544  2.2497  0.6726
  636MOL0     H83903   9.569   6.815   6.398 -2.0276 -1.3949  1.4899
  636MOL0     H83904   9.737   6.766   6.354 -1.0134  1.2603 -1.6824
  636MOL0     H83905   9.807   6.531   6.468  0.5271 -1.6321  1.4048
  636MOL0     H83906   9.866   6.388   6.648  1.7986  2.4373  1.3240
  636MOL0     H83907   9.738   6.335   6.754 -1.8788 -0.4482 -0.0478
  636MOL0     H83908   9.775   6.526   6.909 -1.9188  0.2294 -2.2981
  636MOL0     H83909   9.912   6.588   6.818  2.5825 -1.3235  1.5244
  636MOL0     H83910   9.906   6.316   6.945 -1.6843  0.8381 -3.4618
  636MOL0     H83911  10.024   6.373   6.819  1.3689  4.0167 -1.0459
  636MOL0     H83912   9.986   6.483   7.101 -0.7058  0.3655 -0.9607
  636MOL0     H83913  10.084   6.558   6.975  1.6237 -0.1967 -1.4926
  636MOL0     H83914  10.380   6.212   7.029  2.6297 -0.3637 -0.2832
  636MOL0     H83915  10.603   6.274   7.130  3.3356  3.8146 -0.1335
  636MOL0     H83916  10.729   6.865   7.333  0.0064 -0.2747  0.9376
  636MOL0     H83917  10.948   7.004   7.374 -0.0044 -0.1983 -1.5273
  636MOL0     H83918  11.315   6.782   7.163 -1.2275  0.3890 -0.1293
  636MOL0     H83919  11.309   6.749   7.335 -0.5821 -2.1122 -1.7291
  636MOL0     H83920  11.509   6.884   7.312 -1.5521 -3.0402  1.5653
  636MOL0     H83921  11.388   7.003   7.358  0.0947 -0.6393  0.8812
  636MOL0     H83922  11.359   7.082   7.120 -1.6070 -0.5163  1.5408
  636MOL0     H83923  11.418   6.929   7.060  3.0463  0.3097 -0.6806
  636MOL0     H83924  11.655   6.972   7.128 -0.0903  0.2259  0.3473
  636MOL0     H83925  11.577   7.073   7.001 -0.8127  2.6624  0.7604
  636MOL0     H83926  11.523   7.223   7.199 -0.6747 -2.0784 -0.9480
  636MOL0     H83927  11.668   7.241   7.094 -1.5802  0.8195 -0.0298
  636MOL0     H83928  11.675   7.097   7.361 -4.0155  1.5417 -0.7725
  636MOL0     H83929  11.718   7.263   7.349 -2.1377 -1.4055  1.9038
  636MOL0     H83930  11.912   7.102   7.348 -0.9390  0.3487  0.7660
  636MOL0     H83931  11.877   7.050   7.196  2.4482  0.1690  0.4466
  636MOL0     H83932  11.988   7.326   7.256  1.2465 -2.4424  3.2368
  636MOL0     H83933  11.880   7.293   7.112 -1.0567  0.5842  0.6099
  636MOL0     H83934  11.144   6.671   7.192 -0.2541  0.0154 -1.0531
  636MOL0     H83935  10.957   6.533   7.194 -2.8107  0.7232 -2.3750
  636MOL0     H83936  10.443   6.662   7.226  2.2558  0.4928  1.2610
  636MOL0     H83937  10.225   6.605   7.139 -1.5334 -1.0106  0.5921
  636MOL0     H83938   9.196   6.103   6.602  2.0986 -0.7298  2.0160
  636MOL0     H83939   9.313   5.893   6.649  1.1221  3.8587  0.9762
  636MOL0     H83940   9.620   5.619   6.522 -1.0281 -0.8175 -0.7062
  636MOL0     H83941   9.746   5.426   6.554  0.0373 -1.2630 -1.3537
  636MOL0     H83942   9.528   5.099   6.774  1.0273 -0.9242 -0.9884
  636MOL0     H83943   9.676   5.152   6.863  2.5717 -0.0743 -0.9655
  636MOL0     H83944   9.713   4.917   6.803 -1.6058 -0.6308 -0.9342
  636MOL0     H83945   9.670   4.940   6.644  0.2412  2.1104 -1.2374
  636MOL0     H83946   9.880   5.074   6.609 -0.2994 -1.1088  0.6899
  636MOL0     H83947   9.910   4.911   6.677 -2.6191 -1.1874  1.7517
  636MOL0     H83948  10.060   5.109   6.771  1.2542 -1.6106  1.5857
  636MOL0     H83949   9.897   5.161   6.850 -1.8426  0.6941 -3.4193
  636MOL0     H83950  10.030   4.860   7.106  0.8356 -0.8223  0.9476
  636MOL0     H83951   9.404   5.261   6.772  0.8624 -2.6709 -3.0928
  636MOL0     H83952   9.277   5.447   6.695 -0.4961 -1.9253 -3.0521
  637MOL0     O83953   4.191   4.553   5.851 -0.8027  0.2498 -0.2268
  637MOL0     C83954   4.250   4.479   5.933 -0.0091 -0.6181  0.3381
  637MOL0     O83955   4.197   4.430   6.055  0.2444 -0.0582 -0.1053
  637MOL0     C83956   4.063   4.452   6.070  0.2225 -0.8344  0.2823
  637MOL0     C83957   4.026   4.553   6.160 -0.4070 -0.6000  0.0530
  637MOL0     C83958   3.897   4.569   6.196 -0.5813 -0.3736  0.1570
  637MOL0     C83959   3.795   4.493   6.139  0.5353  0.5911  0.6446
  637MOL0     O83960   3.660   4.495   6.172  0.4694  0.9123 -0.4627
  637MOL0     C83961   3.605   4.616   6.216  0.1247  0.7270 -0.4159
  637MOL0     C83962   3.453   4.615   6.195  0.4714  0.0869  0.8031
  637MOL0     C83963   3.374   4.740   6.219  0.1352  0.9520 -1.3758
  637MOL0     C83964   3.415   4.866   6.157 -0.3380  0.6185  0.0551
  637MOL0     C83965   3.336   4.978   6.206 -0.1953  0.3016 -0.4297
  637MOL0     C83966   3.262   5.037   6.089 -0.3676  0.6339 -0.8329
  637MOL0     C83967   3.153   5.142   6.131 -0.6390  0.0319 -0.0102
  637MOL0     C83968   3.020   5.071   6.166  0.9696 -0.0644  0.8055
  637MOL0     N83969   2.917   5.166   6.224  0.2557  0.5544  0.3283
  637MOL0     C83970   2.848   5.257   6.144 -0.5819 -0.1125  0.3617
  637MOL0     C83971   2.780   5.335   6.239  0.2047 -0.4898  0.4142
  637MOL0     C83972   2.714   5.462   6.198 -0.3268 -0.7388  0.7674
  637MOL0     C83973   2.791   5.589   6.220 -0.5526 -0.8428 -1.2842
  637MOL0     C83974   2.833   5.619   6.363 -0.1757  0.4021  0.6971
  637MOL0     C83975   2.914   5.738   6.384  0.0862 -0.4854  0.5689
  637MOL0     O83976   2.970   5.706   6.511 -0.2385  0.5882 -0.0571
  637MOL0     C83977   3.066   5.791   6.562  0.3686  0.2247  0.3178
  637MOL0     C83978   3.103   5.913   6.511  0.4393  0.7569 -0.6522
  637MOL0     C83979   3.190   5.994   6.590  0.1887 -0.3792  0.3840
  637MOL0     C83980   3.244   5.953   6.708 -0.0968 -0.2842  0.5424
  637MOL0     C83981   3.341   6.037   6.790  0.4038  0.4140  1.2628
  637MOL0     O83982   3.362   6.003   6.922  0.3477 -0.2673  0.3901
  637MOL0     C83983   3.476   6.045   6.982 -0.1907 -0.3162 -0.5952
  637MOL0     C83984   3.605   6.002   6.946  0.0976  0.3578  0.5004
  637MOL0     C83985   3.710   6.055   6.996  0.1554 -0.0643 -0.1117
  637MOL0     C83986   3.704   6.159   7.104  0.2826 -0.4033 -0.1876
  637MOL0     O83987   3.810   6.220   7.157  0.5734  0.4850  0.3706
  637MOL0     C83988   3.900   6.278   7.053  0.7763 -0.4736 -0.6239
  637MOL0     C83989   3.837   6.398   6.977 -0.0637 -0.8926 -0.2516
  637MOL0     C83990   3.833   6.367   6.823 -0.2876 -0.9015  0.5894
  637MOL0     C83991   3.796   6.488   6.731  0.4819 -0.1752  0.6062
  637MOL0     C83992   3.901   6.601   6.726 -0.1717 -1.2442  0.1367
  637MOL0     C83993   3.870   6.710   6.620  0.2469 -0.0323 -0.6065
  637MOL0     C83994   3.944   6.837   6.644 -0.0152  0.9917  0.4458
  637MOL0     C83995   3.921   6.907   6.779 -0.0516 -0.4309 -1.0279
  637MOL0    Cl83996   3.994   7.065   6.774  0.0818 -0.1437  0.0536
  637MOL0     C83997   3.579   6.187   7.157  0.0974 -0.1035  0.1117
  637MOL0     C83998   3.469   6.134   7.088 -0.2090  0.0564 -0.3622
  637MOL0     O83999   3.398   6.131   6.737  0.8366 -0.0226 -0.5007
  637MOL0     C84000   3.191   5.836   6.763 -0.2982  0.0656 -1.5380
  637MOL0     C84001   3.112   5.760   6.688  0.3405  0.1971  0.6941
  637MOL0     N84002   2.803   5.295   6.372 -0.3399  0.7358 -0.2657
  637MOL0     N84003   2.898   5.199   6.360 -0.2227  0.0746  0.4231
  637MOL0     C84004   3.831   4.390   6.047  0.2453 -0.5967  0.1669
  637MOL0     C84005   3.970   4.372   6.009  1.1330  0.1975 -0.5534
  637MOL0     C84006   4.382   4.433   5.877  0.8926 -1.0557 -0.4112
  637MOL0     C84007   4.422   4.475   5.746  0.2557 -0.6764  0.3069
  637MOL0     C84008   4.553   4.447   5.700 -0.4672 -0.0212  0.4001
  637MOL0     C84009   4.645   4.389   5.791  0.1477  0.0470  0.0543
  637MOL0     O84010   4.780   4.382   5.767 -0.6068 -0.0057  0.0023
  637MOL0     C84011   4.829   4.311   5.652 -1.0086 -0.7972 -0.6540
  637MOL0     C84012   4.789   4.165   5.634  0.0625  1.3640  0.6784
  637MOL0     C84013   4.833   4.087   5.514 -0.8004  0.2728  0.9398
  637MOL0     C84014   4.976   4.135   5.471 -0.1948  0.9330  1.0076
  637MOL0     C84015   5.039   4.042   5.376 -1.3151  0.4387 -0.6657
  637MOL0     C84016   5.092   3.959   5.302  0.4943 -0.8973 -0.6495
  637MOL0     C84017   4.611   4.364   5.922  0.7333  0.8398 -0.6132
  637MOL0     C84018   4.478   4.369   5.967 -0.0880  0.1699  1.2046
  637MOL0     H84019   4.106   4.611   6.206 -0.7738  0.2499 -0.3656
  637MOL0     H84020   3.879   4.621   6.289  0.8155  0.4229 -0.0063
  637MOL0     H84021   3.655   4.700   6.167  0.7256  0.0872 -0.9163
  637MOL0     H84022   3.615   4.616   6.325 -0.4613 -2.6158 -0.2524
  637MOL0     H84023   3.406   4.544   6.264 -1.1164  0.0839 -0.2415
  637MOL0     H84024   3.428   4.596   6.091  1.6733  1.2934  0.2642
  637MOL0     H84025   3.378   4.754   6.327 -1.0986  0.7326 -1.2836
  637MOL0     H84026   3.270   4.718   6.192 -1.5051  1.1575  3.7087
  637MOL0     H84027   3.516   4.885   6.194 -0.7684  1.0257  1.0601
  637MOL0     H84028   3.420   4.857   6.049  0.3706  0.1196  0.1198
  637MOL0     H84029   3.406   5.042   6.260 -0.2119  0.3100 -0.4180
  637MOL0     H84030   3.267   4.943   6.284  3.7909 -1.5055  2.6522
  637MOL0     H84031   3.217   4.963   6.022  0.8327  0.3617 -1.3655
  637MOL0     H84032   3.336   5.079   6.020  0.2253  0.2448 -0.4392
  637MOL0     H84033   3.194   5.200   6.214 -0.3147  0.0437 -0.1787
  637MOL0     H84034   3.134   5.209   6.047 -0.2510 -0.0368 -0.1556
  637MOL0     H84035   3.033   4.987   6.235 -2.6801 -1.8615 -0.4712
  637MOL0     H84036   2.970   5.045   6.073  0.8886 -1.0267  1.1012
  637MOL0     H84037   2.837   5.255   6.037  1.2489  0.0027  0.1422
  637MOL0     H84038   2.618   5.470   6.248 -2.0841 -3.1175 -1.9337
  637MOL0     H84039   2.695   5.452   6.090 -2.4781 -2.7161  1.2714
  637MOL0     H84040   2.724   5.670   6.189 -2.9414 -2.3453 -0.3872
  637MOL0     H84041   2.879   5.586   6.155  0.2855 -2.1433 -0.1343
  637MOL0     H84042   2.749   5.621   6.434  0.5656  0.4911  1.5918
  637MOL0     H84043   2.894   5.531   6.382  1.6125  0.6984 -2.7906
  637MOL0     H84044   2.857   5.832   6.385 -0.7653 -0.9692  2.9591
  637MOL0     H84045   3.003   5.734   6.321  0.6316 -0.5688  1.3331
  637MOL0     H84046   3.068   5.950   6.414  1.6076  1.1219 -0.9440
  637MOL0     H84047   3.209   6.095   6.556  0.8220 -1.0959 -1.5510
  637MOL0     H84048   3.632   5.930   6.870 -1.2304  1.3565 -0.9767
  637MOL0     H84049   3.811   6.023   6.972  0.3645 -0.1954  0.9139
  637MOL0     H84050   3.943   6.201   6.987  1.6687 -1.7850  1.3995
  637MOL0     H84051   3.983   6.312   7.116 -0.1412  1.6254 -0.4979
  637MOL0     H84052   3.883   6.494   7.004 -0.6758 -0.8539  0.7086
  637MOL0     H84053   3.733   6.400   7.011  0.5290  1.8262  1.7186
  637MOL0     H84054   3.764   6.283   6.805 -2.4101  0.9520 -0.4146
  637MOL0     H84055   3.934   6.332   6.799 -0.4888 -2.7898  2.1977
  637MOL0     H84056   3.759   6.448   6.636  0.5792 -1.9535  1.2785
  637MOL0     H84057   3.703   6.525   6.774 -0.7193 -4.1028  1.8605
  637MOL0     H84058   3.990   6.550   6.687 -1.2105 -1.2022 -2.4691
  637MOL0     H84059   3.925   6.643   6.824  1.6183  0.8062 -1.0832
  637MOL0     H84060   3.762   6.720   6.623 -0.0093 -1.8828 -1.8910
  637MOL0     H84061   3.889   6.679   6.517 -2.8851 -1.2434 -0.9067
  637MOL0     H84062   4.050   6.817   6.630 -0.5173 -0.2706 -2.0665
  637MOL0     H84063   3.930   6.904   6.559  2.7116  0.3711 -0.5799
  637MOL0     H84064   3.973   6.857   6.861 -1.6162  0.6792  0.7112
  637MOL0     H84065   3.820   6.928   6.813  0.4167 -1.6052  1.2587
  637MOL0     H84066   3.567   6.261   7.235  3.7518 -0.4082  1.1418
  637MOL0     H84067   3.366   6.158   7.114 -0.0878  1.8426 -1.3730
  637MOL0     H84068   3.215   5.801   6.863 -5.1117 -1.1667 -0.5856
  637MOL0     H84069   3.069   5.667   6.721 -1.3746  1.1097  1.1888
  637MOL0     H84070   3.753   4.328   6.004 -1.2084  0.4157  1.2739
  637MOL0     H84071   3.994   4.290   5.941 -1.7477  0.1856 -1.6746
  637MOL0     H84072   4.373   4.553   5.689  2.8970 -0.4764 -1.9423
  637MOL0     H84073   4.589   4.481   5.604  2.0131  0.5555  1.4585
  637MOL0     H84074   4.936   4.299   5.667 -1.5793 -2.7687  2.8694
  637MOL0     H84075   4.817   4.373   5.562  3.4897  0.1232 -0.8185
  637MOL0     H84076   4.810   4.105   5.723  0.2701  2.4446  1.3782
  637MOL0     H84077   4.682   4.174   5.612  0.0787  0.8032  0.3506
  637MOL0     H84078   4.771   4.112   5.427  1.0057 -1.2724 -0.9143
  637MOL0     H84079   4.818   3.982   5.540 -2.3324  0.0631 -0.6392
  637MOL0     H84080   4.969   4.232   5.421  1.7634  1.2812  1.3484
  637MOL0     H84081   5.052   4.155   5.547  1.0663  1.1786 -0.2732
  637MOL0     H84082   5.132   3.887   5.233  1.4355 -1.6489  0.6241
  637MOL0     H84083   4.693   4.323   5.979  0.6012 -2.0201 -2.2773
  637MOL0     H84084   4.451   4.339   6.068  0.2054  2.0021  1.8855
  638MOL0     O84085   1.616   1.308   3.608  0.2393 -1.1728  0.0017
  638MOL0     C84086   1.533   1.393   3.634  1.1625 -0.8654  0.0556
  638MOL0     O84087   1.527   1.473   3.751 -0.7899  0.8570  0.6146
  638MOL0     C84088   1.636   1.472   3.825 -0.0530  0.3175  0.3148
  638MOL0     C84089   1.701   1.354   3.875  0.1860  0.4052 -0.4207
  638MOL0     C84090   1.813   1.374   3.950 -0.6382 -0.9385  0.3658
  638MOL0     C84091   1.855   1.497   3.989  0.8450  0.5365  0.7385
  638MOL0     O84092   1.968   1.518   4.068  0.3642 -0.1424  0.4281
  638MOL0     C84093   2.080   1.427   4.057  0.0447 -1.0803 -0.7455
  638MOL0     C84094   2.208   1.475   4.139  0.1527  0.4771  0.0561
  638MOL0     C84095   2.331   1.379   4.126  0.1805 -0.4118 -1.3315
  638MOL0     C84096   2.314   1.249   4.213 -0.2298  0.5445  0.1846
  638MOL0     C84097   2.453   1.168   4.209  0.0900 -1.0241 -0.0746
  638MOL0     C84098   2.462   1.067   4.314  0.5284  0.2586  0.8921
  638MOL0     C84099   2.598   0.980   4.305  0.4785  0.9722 -0.3927
  638MOL0     C84100   2.573   0.866   4.204 -0.9382  0.5303  0.3106
  638MOL0     N84101   2.677   0.761   4.222 -0.4739 -0.3113 -0.0899
  638MOL0     C84102   2.676   0.655   4.316 -0.4140  0.6909  0.7861
  638MOL0     C84103   2.800   0.600   4.308 -0.7717 -0.0017 -0.1407
  638MOL0     C84104   2.856   0.472   4.379  0.2128 -1.0297 -0.4662
  638MOL0     C84105   2.782   0.445   4.514 -0.6799  0.4371 -1.1840
  638MOL0     C84106   2.864   0.349   4.605 -0.0877  0.1877  0.5603
  638MOL0     C84107   2.809   0.349   4.740 -0.0245  0.6917 -0.7492
  638MOL0     O84108   2.713   0.241   4.750 -0.9017  0.0308 -0.1509
  638MOL0     C84109   2.725   0.156   4.858  0.0209  0.2037 -0.3057
  638MOL0     C84110   2.670   0.029   4.838 -0.2441  0.5222  0.1890
  638MOL0     C84111   2.697  -0.072   4.933 -0.5895 -0.0264  0.1759
  638MOL0     C84112   2.766  -0.042   5.047 -0.3723  0.5642 -0.4437
  638MOL0     C84113   2.786  -0.148   5.145 -0.1361  1.1385  0.2725
  638MOL0     O84114   2.716  -0.273   5.132  0.3388 -0.7249  0.2726
  638MOL0     C84115   2.751  -0.390   5.191 -0.2873 -0.4953  0.8676
  638MOL0     C84116   2.846  -0.407   5.291 -0.0676  0.5072 -0.8582
  638MOL0     C84117   2.878  -0.537   5.343  0.1949  0.4985 -0.4260
  638MOL0     C84118   2.818  -0.648   5.293 -0.8764 -0.2261  0.2331
  638MOL0     O84119   2.848  -0.771   5.352 -0.0367 -0.2664 -0.4080
  638MOL0     C84120   2.855  -0.880   5.265 -0.2266  0.1754 -0.5255
  638MOL0     C84121   2.917  -0.998   5.337  0.3210  0.7366 -0.8711
  638MOL0     C84122   2.826  -1.067   5.429 -0.6498  0.3187 -0.6861
  638MOL0     C84123   2.903  -1.203   5.458 -0.4347 -0.0847  0.7030
  638MOL0     C84124   2.812  -1.291   5.548  0.8473  0.7486  0.2574
  638MOL0     C84125   2.737  -1.211   5.657  0.0925 -0.6551 -0.1459
  638MOL0     C84126   2.662  -1.305   5.744  0.5741  0.2014 -0.7331
  638MOL0     C84127   2.642  -1.239   5.880  0.0921  0.2213  0.6802
  638MOL0    Cl84128   2.539  -1.350   5.981 -0.3237  0.2701  0.1897
  638MOL0     C84129   2.718  -0.626   5.193  0.0631  0.8455  0.3416
  638MOL0     C84130   2.680  -0.497   5.148  0.7040 -0.3535  0.1857
  638MOL0     O84131   2.884  -0.126   5.220  0.1214  0.3168 -0.1778
  638MOL0     C84132   2.805   0.090   5.077  0.5322 -0.2610  0.6814
  638MOL0     C84133   2.789   0.194   4.979  0.7195  0.3386  0.4813
  638MOL0     N84134   2.875   0.679   4.223 -0.3557  0.4689 -0.4336
  638MOL0     N84135   2.811   0.776   4.170  0.1197  0.1815 -0.3446
  638MOL0     C84136   1.795   1.608   3.942  0.2191 -0.9709 -0.0228
  638MOL0     C84137   1.681   1.594   3.863  0.0961 -0.8088 -0.4106
  638MOL0     C84138   1.416   1.405   3.546  0.5927 -0.2382  0.0501
  638MOL0     C84139   1.417   1.370   3.408 -0.5058  0.5818  0.2912
  638MOL0     C84140   1.296   1.369   3.343  0.4924  0.2777 -0.9927
  638MOL0     C84141   1.181   1.421   3.397  0.2438  0.7531 -0.0271
  638MOL0     O84142   1.063   1.436   3.321  0.0003  0.1431 -0.4205
  638MOL0     C84143   0.955   1.511   3.363  0.7431 -0.0777  0.8194
  638MOL0     C84144   0.876   1.555   3.236 -1.0509  0.0218  0.7570
  638MOL0     C84145   0.779   1.667   3.254  0.1933  0.4880  0.5186
  638MOL0     C84146   0.714   1.687   3.110 -0.3261  0.2594  0.6021
  638MOL0     C84147   0.630   1.581   3.055 -0.8157  1.3041  0.1209
  638MOL0     C84148   0.564   1.490   3.009  0.8187 -0.5982  0.0409
  638MOL0     C84149   1.182   1.462   3.527 -0.2582  0.5218  0.1129
  638MOL0     C84150   1.294   1.443   3.614  0.1664 -0.1006  0.1504
  638MOL0     H84151   1.668   1.253   3.851 -0.1160  0.2346  0.6424
  638MOL0     H84152   1.875   1.286   3.967  0.0828 -0.5114  0.0073
  638MOL0     H84153   2.105   1.405   3.953  0.5924 -0.3931 -0.7707
  638MOL0     H84154   2.055   1.330   4.102  0.6724 -1.9310 -2.1765
  638MOL0     H84155   2.181   1.499   4.243  0.4271 -0.9527  0.4697
  638MOL0     H84156   2.236   1.572   4.095  0.3233 -0.3487 -1.7349
  638MOL0     H84157   2.415   1.431   4.173  0.1460 -1.6450  0.1730
  638MOL0     H84158   2.356   1.365   4.020 -2.3646  1.0716 -2.1948
  638MOL0     H84159   2.288   1.267   4.318  0.5314 -0.0940  0.4879
  638MOL0     H84160   2.242   1.186   4.160  3.0100 -0.6085 -3.3196
  638MOL0     H84161   2.526   1.245   4.233 -1.0867 -0.5476  2.3258
  638MOL0     H84162   2.472   1.121   4.112 -3.1365 -1.4683 -0.6104
  638MOL0     H84163   2.373   1.008   4.295  2.4126 -2.9918  1.4102
  638MOL0     H84164   2.450   1.117   4.411  2.5563 -2.2651  2.5979
  638MOL0     H84165   2.689   1.036   4.280  1.0772 -1.0550 -3.3872
  638MOL0     H84166   2.605   0.941   4.407  0.9535  0.9961 -0.4128
  638MOL0     H84167   2.583   0.893   4.098  3.0140 -0.0282  0.3609
  638MOL0     H84168   2.476   0.818   4.218 -0.5780 -1.5429 -3.2316
  638MOL0     H84169   2.599   0.614   4.381 -0.8149 -1.0465 -0.7064
  638MOL0     H84170   2.963   0.481   4.400 -0.0756  0.7820  0.4609
  638MOL0     H84171   2.832   0.385   4.317 -1.2929 -1.3333  0.4666
  638MOL0     H84172   2.687   0.400   4.483 -0.8208 -0.7970  0.8533
  638MOL0     H84173   2.771   0.540   4.567  1.6491  0.5258 -0.7397
  638MOL0     H84174   2.853   0.254   4.552  0.3589 -0.2495  1.2286
  638MOL0     H84175   2.973   0.358   4.615  0.3394 -2.4265 -0.7676
  638MOL0     H84176   2.757   0.440   4.771 -0.2553 -0.6428  3.4414
  638MOL0     H84177   2.900   0.343   4.801  2.1961  2.8939 -3.5847
  638MOL0     H84178   2.612   0.009   4.748 -0.4676  1.8975 -0.0038
  638MOL0     H84179   2.666  -0.175   4.915  1.5290 -0.5400 -0.8514
  638MOL0     H84180   2.908  -0.324   5.324 -1.3105  2.9763 -4.1713
  638MOL0     H84181   2.939  -0.557   5.431 -1.2779  0.5062  0.6191
  638MOL0     H84182   2.906  -0.849   5.173  0.7672 -1.1475 -0.4563
  638MOL0     H84183   2.756  -0.913   5.232 -0.3632  2.0043 -2.1262
  638MOL0     H84184   2.986  -0.945   5.404 -1.6858  3.5362 -0.8423
  638MOL0     H84185   2.976  -1.056   5.266  0.3555  1.0532 -1.1081
  638MOL0     H84186   2.734  -1.085   5.372  0.0897 -1.6789 -1.3178
  638MOL0     H84187   2.803  -1.007   5.518 -1.3092  0.5055 -0.9741
  638MOL0     H84188   2.927  -1.259   5.367 -0.9871 -1.4642  1.3614
  638MOL0     H84189   2.997  -1.181   5.509 -1.3232  2.0583  1.5259
  638MOL0     H84190   2.858  -1.384   5.581  1.4784  2.0543  3.4789
  638MOL0     H84191   2.731  -1.327   5.485  1.0502 -1.7848  1.3493
  638MOL0     H84192   2.669  -1.154   5.593  1.2458 -2.6075 -3.3064
  638MOL0     H84193   2.791  -1.133   5.712 -0.5619 -0.6031  0.4370
  638MOL0     H84194   2.567  -1.332   5.695  1.2845  0.4484 -2.2981
  638MOL0     H84195   2.711  -1.401   5.764 -1.0508  0.2408  5.6541
  638MOL0     H84196   2.597  -1.145   5.849 -2.0366 -2.2802 -5.6666
  638MOL0     H84197   2.737  -1.222   5.931  1.6345 -2.1087 -1.1665
  638MOL0     H84198   2.660  -0.711   5.160  3.9561 -2.0991  0.2993
  638MOL0     H84199   2.602  -0.473   5.076 -1.4882 -0.2808  2.4206
  638MOL0     H84200   2.856   0.087   5.173  2.9105 -3.1600 -0.5198
  638MOL0     H84201   2.819   0.298   4.991 -0.9924  0.8973  0.0922
  638MOL0     H84202   1.829   1.704   3.980 -0.5276 -0.6535 -0.1388
  638MOL0     H84203   1.637   1.684   3.822  0.3617 -0.3465  0.2854
  638MOL0     H84204   1.504   1.341   3.350 -0.4359  0.9667  0.1994
  638MOL0     H84205   1.291   1.363   3.235 -1.7086  4.0725 -1.2645
  638MOL0     H84206   0.979   1.604   3.416 -0.7652  0.1685  1.1178
  638MOL0     H84207   0.902   1.434   3.421 -0.3886  0.8187  1.0134
  638MOL0     H84208   0.957   1.586   3.168 -0.5153 -2.9904 -0.1282
  638MOL0     H84209   0.836   1.463   3.193  1.7159 -1.4156  1.0142
  638MOL0     H84210   0.826   1.764   3.270 -1.5644  2.1697 -3.1617
  638MOL0     H84211   0.708   1.644   3.334 -1.1898  2.6020 -0.0137
  638MOL0     H84212   0.661   1.783   3.103 -1.9299 -0.6625 -1.0596
  638MOL0     H84213   0.799   1.690   3.041  0.5292  0.0645  1.6334
  638MOL0     H84214   0.499   1.407   2.991 -3.3485  1.8798  2.1691
  638MOL0     H84215   1.095   1.496   3.582  0.0829 -1.7617  2.2778
  638MOL0     H84216   1.288   1.471   3.719  1.5763  2.6747 -0.4038
  639MOL0     O84217   5.716   2.367   2.295 -0.4116  0.5133  0.4037
  639MOL0     C84218   5.638   2.295   2.229 -0.2115 -0.3461  0.1120
  639MOL0     O84219   5.675   2.178   2.164  0.6097 -0.8893 -0.4455
  639MOL0     C84220   5.796   2.117   2.188 -0.3932  0.1345  0.4640
  639MOL0     C84221   5.793   1.971   2.197 -0.9910 -0.2474 -0.1753
  639MOL0     C84222   5.917   1.899   2.214  0.1759  0.4360  0.5115
  639MOL0     C84223   6.037   1.969   2.217 -0.6501  0.7516 -0.7694
  639MOL0     O84224   6.159   1.914   2.260  0.8685 -0.1325 -0.0340
  639MOL0     C84225   6.149   1.847   2.393 -0.4859  0.5954  1.1163
  639MOL0     C84226   6.251   1.908   2.493  0.6384  1.2703  0.6786
  639MOL0     C84227   6.239   2.059   2.519 -0.1712  0.4804 -0.6446
  639MOL0     C84228   6.119   2.103   2.593  0.6571  0.6123  0.3801
  639MOL0     C84229   6.116   2.254   2.598  0.6389  0.0068  0.0674
  639MOL0     C84230   5.985   2.301   2.661 -0.1303  0.5012 -0.4577
  639MOL0     C84231   5.853   2.261   2.586 -1.0748  1.3601  0.1033
  639MOL0     C84232   5.723   2.328   2.634 -0.6593  0.2245  0.7131
  639MOL0     N84233   5.716   2.479   2.653 -1.0227  0.2614 -0.1609
  639MOL0     C84234   5.796   2.560   2.746 -0.3518  0.1022 -0.5599
  639MOL0     C84235   5.733   2.670   2.765  0.5392 -0.4491 -0.6753
  639MOL0     C84236   5.781   2.790   2.841 -0.3400  0.1135 -0.0682
  639MOL0     C84237   5.664   2.886   2.893 -0.2524 -0.5273  0.4045
  639MOL0     C84238   5.725   3.027   2.890  0.0063 -0.1611  0.0345
  639MOL0     C84239   5.630   3.122   2.962  0.0464 -0.4429  0.1248
  639MOL0     O84240   5.695   3.249   2.965  0.3755 -0.3069 -0.5649
  639MOL0     C84241   5.692   3.343   2.863  0.4628  0.1254  0.3828
  639MOL0     C84242   5.795   3.434   2.875  0.6901  0.5923  1.1978
  639MOL0     C84243   5.805   3.525   2.776  1.2799 -0.5709 -1.0160
  639MOL0     C84244   5.721   3.530   2.664 -0.3821 -0.1492 -0.0850
  639MOL0     C84245   5.737   3.630   2.563  0.4893  0.6805 -0.3198
  639MOL0     O84246   5.644   3.638   2.465 -0.2006  0.5825 -0.2225
  639MOL0     C84247   5.656   3.728   2.362  0.5738  0.2646 -0.0433
  639MOL0     C84248   5.670   3.682   2.223 -0.2609  0.2530  0.3839
  639MOL0     C84249   5.681   3.773   2.113  0.3589 -0.4161 -0.7356
  639MOL0     C84250   5.687   3.902   2.150  0.5240 -0.0559 -0.5995
  639MOL0     O84251   5.697   4.011   2.062  0.2598  0.1612 -0.5334
  639MOL0     C84252   5.740   3.981   1.927 -0.1262 -1.2355  0.2232
  639MOL0     C84253   5.763   4.110   1.866 -0.9160  0.7490 -0.3227
  639MOL0     C84254   5.846   4.097   1.742  1.1964 -0.0734 -0.7516
  639MOL0     C84255   5.763   4.033   1.629 -0.7911 -0.0334  0.5074
  639MOL0     C84256   5.840   4.003   1.506 -1.0902 -0.0425 -0.2694
  639MOL0     C84257   5.768   3.952   1.385  1.0617  0.1113 -0.0356
  639MOL0     C84258   5.734   3.800   1.400 -0.5941 -0.7011 -1.3619
  639MOL0     C84259   5.698   3.722   1.277 -0.3293  1.0693  0.5139
  639MOL0    Cl84260   5.521   3.727   1.236  0.2137 -0.3914  0.4836
  639MOL0     C84261   5.659   3.947   2.283  0.8425 -0.0115  0.5154
  639MOL0     C84262   5.657   3.863   2.388 -0.5206  0.4891 -0.2021
  639MOL0     O84263   5.822   3.713   2.579 -0.0960 -0.3230 -0.2152
  639MOL0     C84264   5.620   3.429   2.654  0.3483 -0.4981  0.6626
  639MOL0     C84265   5.600   3.335   2.754 -0.5323 -0.1376 -0.2437
  639MOL0     N84266   5.608   2.663   2.696 -0.2005 -0.3086 -0.0907
  639MOL0     N84267   5.603   2.556   2.634  0.1721  0.3192 -0.3923
  639MOL0     C84268   6.037   2.102   2.223 -0.8247 -0.0904 -0.1963
  639MOL0     C84269   5.923   2.178   2.200 -0.7438  0.6554  0.5797
  639MOL0     C84270   5.487   2.321   2.236 -0.3113 -0.3464  0.9246
  639MOL0     C84271   5.393   2.229   2.185  0.3251 -0.2363 -0.2474
  639MOL0     C84272   5.259   2.266   2.173  0.2150 -0.3168  0.2634
  639MOL0     C84273   5.212   2.386   2.217  0.3837  0.3545  0.4429
  639MOL0     O84274   5.078   2.396   2.195  0.7909  0.4308  0.0448
  639MOL0     C84275   5.019   2.530   2.189  1.2473 -0.6607  0.1506
  639MOL0     C84276   4.868   2.527   2.215 -0.8648 -0.3182  0.3045
  639MOL0     C84277   4.795   2.656   2.194  0.4621  0.1928 -0.6607
  639MOL0     C84278   4.642   2.639   2.204  0.1495 -0.9646  0.2876
  639MOL0     C84279   4.563   2.763   2.224 -0.1826 -0.3062  1.2401
  639MOL0     C84280   4.509   2.870   2.248  0.0900  0.4047  0.7255
  639MOL0     C84281   5.298   2.479   2.272 -1.1110 -0.6122 -0.3534
  639MOL0     C84282   5.439   2.448   2.280 -0.7316  0.3576 -0.5746
  639MOL0     H84283   5.698   1.919   2.186 -0.3970 -1.4703  0.2010
  639MOL0     H84284   5.896   1.794   2.229 -1.0095  0.4998 -0.5292
  639MOL0     H84285   6.171   1.739   2.398  4.5055  1.1755 -1.7006
  639MOL0     H84286   6.047   1.852   2.432 -0.5237  0.5042  1.0321
  639MOL0     H84287   6.346   1.894   2.440 -0.5757  0.9273 -1.5334
  639MOL0     H84288   6.248   1.854   2.587 -2.6565  0.4552  0.2278
  639MOL0     H84289   6.242   2.104   2.420  0.8896  1.7087 -0.0893
  639MOL0     H84290   6.325   2.096   2.576 -0.3664  0.2411 -0.1903
  639MOL0     H84291   6.030   2.052   2.556  1.4844 -1.8568  1.5942
  639MOL0     H84292   6.129   2.072   2.697 -0.7192  2.5494  1.1528
  639MOL0     H84293   6.111   2.301   2.500  1.0147  0.7248  0.3841
  639MOL0     H84294   6.197   2.299   2.657  0.2252 -0.0439  0.6870
  639MOL0     H84295   5.991   2.410   2.648 -0.2996  0.5155 -0.4136
  639MOL0     H84296   5.977   2.282   2.768  0.6612  2.9813  0.1134
  639MOL0     H84297   5.864   2.304   2.485  0.9201  0.1903 -0.2337
  639MOL0     H84298   5.843   2.152   2.586 -1.8065  1.4048  1.9965
  639MOL0     H84299   5.711   2.282   2.732  3.7188  0.7755  1.7204
  639MOL0     H84300   5.639   2.302   2.570  1.5707  3.0539 -3.9057
  639MOL0     H84301   5.886   2.525   2.796 -1.3588 -1.8981 -0.0450
  639MOL0     H84302   5.848   2.846   2.775 -1.5728 -0.0990 -1.5297
  639MOL0     H84303   5.841   2.759   2.928 -0.3303  4.7742  1.8864
  639MOL0     H84304   5.633   2.857   2.994 -1.8348 -0.4802 -0.0339
  639MOL0     H84305   5.576   2.892   2.829 -0.7450  0.1995  1.1348
  639MOL0     H84306   5.819   3.020   2.946 -0.0387 -2.5692 -0.0723
  639MOL0     H84307   5.745   3.059   2.788 -1.5309 -0.4219 -0.3801
  639MOL0     H84308   5.611   3.087   3.064 -0.0037  0.5273  0.4532
  639MOL0     H84309   5.536   3.128   2.907 -1.0287  1.0532  1.9899
  639MOL0     H84310   5.867   3.426   2.955  0.6673 -3.4772  1.0398
  639MOL0     H84311   5.893   3.586   2.760  0.8408  0.3881  0.0759
  639MOL0     H84312   5.659   3.580   2.187 -1.0897  1.9711 -4.9810
  639MOL0     H84313   5.690   3.740   2.010  0.6834 -2.4581 -0.0992
  639MOL0     H84314   5.673   3.922   1.865 -1.3407  1.3853 -1.1360
  639MOL0     H84315   5.829   3.918   1.927 -1.3421 -3.1004  2.2487
  639MOL0     H84316   5.823   4.163   1.941  2.8691 -0.1034 -2.5007
  639MOL0     H84317   5.667   4.160   1.848 -0.7885  1.6143  1.2093
  639MOL0     H84318   5.934   4.036   1.762  1.0514  0.0090  0.1789
  639MOL0     H84319   5.868   4.198   1.706  4.2676  0.4105  2.0172
  639MOL0     H84320   5.711   3.943   1.665 -1.3124  1.0842  2.7313
  639MOL0     H84321   5.686   4.105   1.601  0.8565  2.4296  1.8853
  639MOL0     H84322   5.923   3.938   1.533 -0.2766  1.6610  1.5219
  639MOL0     H84323   5.879   4.101   1.480  0.2223 -0.5672 -0.3568
  639MOL0     H84324   5.831   3.956   1.295 -1.2175  1.2347 -1.6659
  639MOL0     H84325   5.685   4.022   1.374  1.7920  0.9326 -0.5081
  639MOL0     H84326   5.813   3.749   1.456  0.3789  0.2604 -1.8172
  639MOL0     H84327   5.652   3.791   1.472  1.6777 -0.6458  1.4072
  639MOL0     H84328   5.737   3.619   1.285 -2.0715  0.3843  0.5073
  639MOL0     H84329   5.762   3.748   1.192  0.2241 -0.4318  0.4312
  639MOL0     H84330   5.660   4.054   2.300  2.7686 -0.0179  0.6589
  639MOL0     H84331   5.643   3.892   2.492 -3.7260 -1.0484 -0.0576
  639MOL0     H84332   5.555   3.422   2.566  1.0156 -1.3791  0.2240
  639MOL0     H84333   5.513   3.270   2.757  0.5618 -1.6352  0.8383
  639MOL0     H84334   6.129   2.159   2.229 -1.5121  0.8497  2.9374
  639MOL0     H84335   5.925   2.285   2.178  1.5384  0.5590  0.1074
  639MOL0     H84336   5.432   2.134   2.147 -0.4601 -0.5388 -0.3100
  639MOL0     H84337   5.195   2.202   2.113 -0.6170  0.9786 -0.2571
  639MOL0     H84338   5.033   2.570   2.088 -0.1154  0.5433  0.4126
  639MOL0     H84339   5.066   2.598   2.261 -1.0639  0.9680  0.2486
  639MOL0     H84340   4.832   2.451   2.145  3.8707 -0.2003 -2.6859
  639MOL0     H84341   4.857   2.501   2.321 -0.3152  3.3000  1.3688
  639MOL0     H84342   4.810   2.695   2.093  0.7722 -2.1015 -1.5693
  639MOL0     H84343   4.821   2.733   2.267 -0.7768 -0.7663  0.8796
  639MOL0     H84344   4.601   2.578   2.123  0.2173 -0.0565 -0.4359
  639MOL0     H84345   4.623   2.579   2.294 -0.7086  0.0775  0.8156
  639MOL0     H84346   4.459   2.963   2.267  0.9968  1.2249 -0.7487
  639MOL0     H84347   5.265   2.577   2.306 -0.7443 -0.1204 -1.3666
  639MOL0     H84348   5.518   2.512   2.317 -2.0098  0.9285  1.3303
  640MOL0     O84349   3.709   5.170   3.040 -0.2005  0.8305  0.4691
  640MOL0     C84350   3.678   5.055   3.058  0.8499  0.6452 -0.3591
  640MOL0     O84351   3.607   4.978   2.978  0.2320 -0.0010 -0.4321
  640MOL0     C84352   3.575   5.018   2.854 -1.4873 -0.0471  0.7129
  640MOL0     C84353   3.459   5.096   2.833  0.9957 -0.2453 -0.0730
  640MOL0     C84354   3.424   5.146   2.708  0.4141 -0.5155 -1.0099
  640MOL0     C84355   3.500   5.107   2.593  0.2525 -0.3512 -1.4037
  640MOL0     O84356   3.489   5.150   2.466 -0.1621  0.0591  0.1241
  640MOL0     C84357   3.360   5.221   2.449 -0.9939  0.2418 -0.1702
  640MOL0     C84358   3.337   5.258   2.305  0.0821  0.1289 -0.5301
  640MOL0     C84359   3.275   5.136   2.224 -0.6165 -0.7046 -1.2653
  640MOL0     C84360   3.242   5.172   2.075 -0.3966  0.0925  0.3200
  640MOL0     C84361   3.377   5.215   1.998  0.3190  0.1110  0.4131
  640MOL0     C84362   3.350   5.248   1.850 -0.9936  0.2001 -1.3299
  640MOL0     C84363   3.472   5.319   1.781  1.1533 -1.7476 -0.5952
  640MOL0     C84364   3.427   5.363   1.641  0.3158  0.1710 -0.0653
  640MOL0     N84365   3.393   5.249   1.553  0.3280 -0.0160 -0.3899
  640MOL0     C84366   3.480   5.175   1.481  0.4741 -1.7301  0.6526
  640MOL0     C84367   3.403   5.078   1.426  0.7881 -0.2848  0.9762
  640MOL0     C84368   3.458   4.958   1.355  0.2557 -0.4698  0.0941
  640MOL0     C84369   3.372   4.907   1.243  0.5887  1.0335  1.0028
  640MOL0     C84370   3.369   4.991   1.109  0.4158  0.2040 -0.1322
  640MOL0     C84371   3.303   5.133   1.113 -0.0611  0.4668  0.9049
  640MOL0     O84372   3.349   5.216   1.004  0.0285  0.3800  0.7427
  640MOL0     C84373   3.271   5.328   0.960 -0.3441  0.5094 -0.3437
  640MOL0     C84374   3.324   5.412   0.856  0.3875 -0.0645  0.5123
  640MOL0     C84375   3.249   5.513   0.799  0.6860 -0.3428  0.1053
  640MOL0     C84376   3.118   5.541   0.849 -0.3767 -0.5896  0.4016
  640MOL0     C84377   3.045   5.657   0.787  0.3536  0.4218  0.1636
  640MOL0     O84378   3.098   5.725   0.686  0.1663 -0.1432 -0.1096
  640MOL0     C84379   3.057   5.840   0.631 -0.3408 -0.5616 -0.2374
  640MOL0     C84380   3.128   5.894   0.525  0.2247  0.4509  0.8183
  640MOL0     C84381   3.087   6.007   0.453  0.0427 -0.2497  0.0125
  640MOL0     C84382   2.985   6.096   0.499 -0.0503  0.4671 -0.4028
  640MOL0     O84383   2.953   6.212   0.434  0.5681 -0.1428 -0.8508
  640MOL0     C84384   2.856   6.311   0.482 -0.0524  0.3658 -0.0447
  640MOL0     C84385   2.830   6.424   0.383 -0.3822  0.8552 -0.8066
  640MOL0     C84386   2.794   6.379   0.249  0.4448  0.3004  0.1237
  640MOL0     C84387   2.747   6.502   0.178 -0.2688 -1.1346  0.3486
  640MOL0     C84388   2.725   6.467   0.028 -0.4064  0.6734  1.0539
  640MOL0     C84389   2.700   6.585  -0.063 -0.8048 -0.2962  0.1932
  640MOL0     C84390   2.708   6.546  -0.220  0.3506  0.6249 -0.6712
  640MOL0     C84391   2.656   6.659  -0.304 -0.2017 -0.0085  0.3368
  640MOL0    Cl84392   2.471   6.663  -0.292 -0.1077  0.2671 -0.6988
  640MOL0     C84393   2.929   6.051   0.623  0.8828  0.6801 -0.4401
  640MOL0     C84394   2.954   5.921   0.686  0.0700  0.4847  0.1443
  640MOL0     O84395   2.933   5.675   0.837 -0.0796 -0.1434  1.0509
  640MOL0     C84396   3.076   5.474   0.965 -0.4598 -0.2226 -0.5328
  640MOL0     C84397   3.149   5.374   1.019  0.3816  0.2149 -0.2627
  640MOL0     N84398   3.276   5.104   1.447 -0.0649  0.8269  0.1607
  640MOL0     N84399   3.274   5.197   1.531  0.6329  0.1574  0.0183
  640MOL0     C84400   3.623   5.031   2.615 -0.0838 -0.3397  0.0704
  640MOL0     C84401   3.652   4.982   2.741 -0.2333 -0.2259 -1.0202
  640MOL0     C84402   3.735   4.997   3.179 -0.1639 -0.9475 -1.0756
  640MOL0     C84403   3.696   4.872   3.234  0.8186 -0.2041 -0.7378
  640MOL0     C84404   3.740   4.833   3.357  0.5375 -0.3756 -0.4924
  640MOL0     C84405   3.834   4.917   3.427 -0.5844  1.1435  0.9924
  640MOL0     O84406   3.896   4.878   3.544 -0.1516 -0.2240 -0.5043
  640MOL0     C84407   3.872   4.746   3.597  0.3790 -0.8870  0.2688
  640MOL0     C84408   3.956   4.645   3.520 -0.5367  0.0959 -0.7974
  640MOL0     C84409   3.979   4.512   3.586  0.0479 -0.5308  0.0962
  640MOL0     C84410   3.851   4.426   3.597  1.1299 -0.2831 -0.4180
  640MOL0     C84411   3.776   4.455   3.712  0.6275 -1.3850 -0.3053
  640MOL0     C84412   3.709   4.481   3.822 -0.2039 -0.8325  0.4305
  640MOL0     C84413   3.877   5.034   3.369  0.1823  0.1902 -1.0533
  640MOL0     C84414   3.830   5.071   3.248  0.0594  0.6822  0.7931
  640MOL0     H84415   3.407   5.119   2.925 -0.9261 -2.3843 -0.5513
  640MOL0     H84416   3.358   5.232   2.716  2.5221  1.0062  2.0562
  640MOL0     H84417   3.376   5.322   2.487 -0.0711  1.1773 -2.8296
  640MOL0     H84418   3.270   5.175   2.492  0.2694 -2.2832 -0.0266
  640MOL0     H84419   3.433   5.291   2.264  1.3747 -2.9614 -0.2519
  640MOL0     H84420   3.269   5.344   2.303  0.2421  0.3662  1.6185
  640MOL0     H84421   3.189   5.093   2.276 -0.9046  0.3852 -0.8075
  640MOL0     H84422   3.355   5.062   2.220  0.3681 -0.3476  4.1150
  640MOL0     H84423   3.192   5.088   2.027  3.3222 -1.4554 -1.1978
  640MOL0     H84424   3.174   5.257   2.063  0.9339  1.0049 -1.0799
  640MOL0     H84425   3.457   5.142   2.016  0.6805  0.4917  0.3678
  640MOL0     H84426   3.409   5.312   2.037 -4.5300  2.2898 -0.2710
  640MOL0     H84427   3.257   5.306   1.852 -0.4510  1.2412  2.5593
  640MOL0     H84428   3.331   5.158   1.791  3.9047 -3.1191  1.4775
  640MOL0     H84429   3.504   5.404   1.842 -0.4137 -2.0554  0.7339
  640MOL0     H84430   3.562   5.257   1.778  0.6552 -3.3271  4.9987
  640MOL0     H84431   3.510   5.421   1.601 -0.0417  0.7416  0.0005
  640MOL0     H84432   3.334   5.421   1.636 -0.3799 -0.7985  1.2248
  640MOL0     H84433   3.586   5.188   1.462 -0.3845  2.5069 -3.2088
  640MOL0     H84434   3.459   4.879   1.431  3.3103 -0.1241  0.5544
  640MOL0     H84435   3.564   4.964   1.328  0.6117 -1.0558  1.2598
  640MOL0     H84436   3.277   4.888   1.294  0.4124  0.1784  0.3648
  640MOL0     H84437   3.412   4.810   1.214  0.3185  1.4941 -1.0209
  640MOL0     H84438   3.474   5.002   1.081  1.0778 -0.8548  1.7547
  640MOL0     H84439   3.318   4.944   1.024 -0.1252 -1.1586  0.9181
  640MOL0     H84440   3.323   5.179   1.210  3.1452 -2.3243  1.7869
  640MOL0     H84441   3.194   5.124   1.112 -0.1857  1.5940  2.1763
  640MOL0     H84442   3.412   5.380   0.800 -0.6867  2.3346 -2.8931
  640MOL0     H84443   3.288   5.550   0.704  1.9333 -1.8510 -0.0078
  640MOL0     H84444   3.209   5.837   0.479 -2.7887 -1.6456 -2.3592
  640MOL0     H84445   3.116   6.019   0.349 -0.7213 -2.0389 -0.4485
  640MOL0     H84446   2.880   6.366   0.574 -0.9840  0.4095  0.1896
  640MOL0     H84447   2.765   6.257   0.509  0.5693 -2.3674 -2.8892
  640MOL0     H84448   2.920   6.485   0.375 -1.1623  2.0475 -0.7794
  640MOL0     H84449   2.754   6.485   0.432  0.9491  1.4145  0.6089
  640MOL0     H84450   2.710   6.309   0.252  0.9311 -0.2792  0.6079
  640MOL0     H84451   2.884   6.333   0.208 -2.0944 -4.3713 -0.9562
  640MOL0     H84452   2.647   6.539   0.205 -0.5891 -1.5036 -0.2943
  640MOL0     H84453   2.807   6.590   0.202  0.6510 -1.5508 -0.3936
  640MOL0     H84454   2.637   6.405   0.011 -1.6770  2.5903  0.4171
  640MOL0     H84455   2.810   6.411  -0.013 -0.6877  3.0151 -3.2581
  640MOL0     H84456   2.778   6.662  -0.055 -1.4279  0.8641 -3.1707
  640MOL0     H84457   2.601   6.628  -0.046 -2.1958 -4.0392  2.7011
  640MOL0     H84458   2.809   6.505  -0.234 -1.6974 -4.5206 -2.8605
  640MOL0     H84459   2.643   6.464  -0.249  0.1670  0.9866 -1.3139
  640MOL0     H84460   2.687   6.650  -0.409  3.5011  1.7828  1.1511
  640MOL0     H84461   2.707   6.751  -0.274 -0.9145  1.6516 -3.0471
  640MOL0     H84462   2.857   6.119   0.667 -0.6563 -0.2907 -1.3235
  640MOL0     H84463   2.905   5.886   0.776 -0.6323 -2.0223 -1.1177
  640MOL0     H84464   2.980   5.506   1.005 -0.0645 -2.3786  2.4955
  640MOL0     H84465   3.115   5.330   1.112 -0.3761 -3.7414 -2.2226
  640MOL0     H84466   3.679   5.014   2.524  1.8098  0.6136  1.0110
  640MOL0     H84467   3.746   4.928   2.754  0.5244  1.0977 -0.8512
  640MOL0     H84468   3.627   4.808   3.180  0.7766  0.9838 -2.1337
  640MOL0     H84469   3.718   4.735   3.398  0.1985 -0.6356 -1.2835
  640MOL0     H84470   3.764   4.728   3.599  0.4891 -1.5869  0.3102
  640MOL0     H84471   3.902   4.739   3.702  0.9587 -0.8663  0.1123
  640MOL0     H84472   3.915   4.638   3.419  0.6507  2.3084 -1.5025
  640MOL0     H84473   4.053   4.693   3.502 -0.1361  0.4848  1.9937
  640MOL0     H84474   4.025   4.545   3.679 -0.2392  3.1766 -0.8868
  640MOL0     H84475   4.052   4.459   3.523 -1.3165 -1.3366 -0.8745
  640MOL0     H84476   3.785   4.432   3.510  2.6216 -1.9195 -1.7242
  640MOL0     H84477   3.877   4.319   3.597 -1.5421 -1.0557  1.3530
  640MOL0     H84478   3.648   4.511   3.905 -1.7106 -1.6325 -0.3450
  640MOL0     H84479   3.950   5.100   3.415  0.7278 -2.3724  2.1562
  640MOL0     H84480   3.875   5.163   3.213  2.2635 -0.7442 -0.3897
  641MOL0     O84481   2.905   3.143  10.606  0.1317  0.0539 -0.0862
  641MOL0     C84482   2.946   3.133  10.494  0.1159  0.3713  0.3182
  641MOL0     O84483   2.881   3.050  10.393 -1.1484 -0.3101 -0.6015
  641MOL0     C84484   2.748   3.021  10.411  0.3230  0.6449 -0.1531
  641MOL0     C84485   2.654   3.104  10.465 -0.6464  0.6633 -0.2349
  641MOL0     C84486   2.530   3.057  10.495 -0.0392  0.2041 -0.4262
  641MOL0     C84487   2.482   2.936  10.456  0.0757 -0.0979 -0.3634
  641MOL0     O84488   2.356   2.902  10.501 -0.0892 -0.9265  0.1229
  641MOL0     C84489   2.301   2.779  10.459  0.0976  0.1255 -0.5217
  641MOL0     C84490   2.165   2.762  10.518  0.6384 -0.7843 -0.1581
  641MOL0     C84491   2.177   2.755  10.665  0.3048  0.8286 -0.0336
  641MOL0     C84492   2.046   2.713  10.726 -0.8650  0.4407  0.1545
  641MOL0     C84493   2.027   2.710  10.884 -0.7681 -0.0597 -0.1367
  641MOL0     C84494   2.001   2.849  10.945 -0.1988 -0.2034  0.6719
  641MOL0     C84495   2.138   2.921  10.974 -0.0167 -0.1560  0.4236
  641MOL0     C84496   2.140   3.063  10.911  0.2848  0.0571  0.0821
  641MOL0     N84497   2.251   3.150  10.950  0.0586 -0.6360  1.0076
  641MOL0     C84498   2.378   3.132  10.913  0.8541  0.2289 -0.2942
  641MOL0     C84499   2.439   3.245  10.949  0.2417  0.1702 -0.0948
  641MOL0     C84500   2.590   3.246  10.965  0.1658  0.1660 -0.2744
  641MOL0     C84501   2.645   3.265  10.823 -0.4429  0.3792 -0.1253
  641MOL0     C84502   2.600   3.391  10.754 -1.0503 -0.8230 -0.0690
  641MOL0     C84503   2.628   3.515  10.846  0.1151  0.2342  0.2230
  641MOL0     O84504   2.759   3.523  10.905  0.3425  0.5767 -0.0573
  641MOL0     C84505   2.873   3.551  10.838 -0.2765  0.4094  0.6223
  641MOL0     C84506   2.874   3.584  10.693 -0.4930  1.6504 -0.3465
  641MOL0     C84507   3.000   3.609  10.633  0.2118  0.4902 -0.4278
  641MOL0     C84508   3.122   3.620  10.711 -0.4244  0.5350  0.2015
  641MOL0     C84509   3.253   3.646  10.644  0.3661 -0.4252 -1.6074
  641MOL0     O84510   3.356   3.675  10.724  0.0346  0.0616 -0.4394
  641MOL0     C84511   3.481   3.693  10.669  0.5574  0.6530  0.5122
  641MOL0     C84512   3.574   3.584  10.676  0.0905  0.7108  0.7853
  641MOL0     C84513   3.689   3.601  10.600 -0.1745 -0.3205 -0.0398
  641MOL0     C84514   3.723   3.722  10.535 -0.4448 -0.2135  1.1955
  641MOL0     O84515   3.847   3.754  10.487 -0.7346  0.4531 -0.0587
  641MOL0     C84516   3.892   3.714  10.359  0.2986  0.4670  0.3170
  641MOL0     C84517   4.010   3.632  10.381 -0.1616 -0.9155 -0.5230
  641MOL0     C84518   4.124   3.721  10.427  0.6682  0.7667 -0.1424
  641MOL0     C84519   4.107   3.797  10.561  0.2640  1.0912  0.5723
  641MOL0     C84520   4.232   3.888  10.594  0.0248  0.1856  0.3405
  641MOL0     C84521   4.230   3.921  10.741 -0.0189  0.4771 -0.4075
  641MOL0     C84522   4.333   4.040  10.777  1.6916  0.4049  0.6144
  641MOL0     C84523   4.476   3.990  10.749 -0.1068  0.2161  0.9345
  641MOL0    Cl84524   4.591   4.122  10.775  0.4217  0.2972  0.3370
  641MOL0     C84525   3.633   3.831  10.548  0.8959 -0.4365 -0.2231
  641MOL0     C84526   3.506   3.812  10.604 -0.0044 -0.3238 -0.2023
  641MOL0     O84527   3.252   3.663  10.524  0.1437  0.6332 -0.3252
  641MOL0     C84528   3.119   3.586  10.850 -0.3260 -1.0381  0.9881
  641MOL0     C84529   2.998   3.544  10.910 -0.0168  0.0444 -1.0521
  641MOL0     N84530   2.352   3.341  10.993 -0.3738  0.4268 -0.1833
  641MOL0     N84531   2.234   3.279  10.985  0.1572 -0.3786  0.5173
  641MOL0     C84532   2.568   2.851  10.388 -0.2739  0.5690 -0.6952
  641MOL0     C84533   2.700   2.896  10.360  0.0395 -0.3938  0.5179
  641MOL0     C84534   3.079   3.179  10.449  0.4924  0.2563 -0.5291
  641MOL0     C84535   3.119   3.173  10.318 -0.2894  0.0965  0.2634
  641MOL0     C84536   3.233   3.233  10.269 -1.3444 -0.4957  0.1309
  641MOL0     C84537   3.319   3.296  10.362 -0.0608  0.8372 -0.5216
  641MOL0     O84538   3.444   3.348  10.331 -0.5785 -0.0559 -0.4274
  641MOL0     C84539   3.541   3.262  10.264 -1.6863  0.2446  0.2527
  641MOL0     C84540   3.600   3.160  10.370  0.3284  0.3866 -0.2411
  641MOL0     C84541   3.679   3.231  10.485  0.1966  0.2210  0.1734
  641MOL0     C84542   3.747   3.117  10.569  0.1577  0.2113  0.3251
  641MOL0     C84543   3.817   3.176  10.679 -0.4500 -0.3849 -0.5788
  641MOL0     C84544   3.863   3.225  10.784 -1.4271  1.0172 -0.4046
  641MOL0     C84545   3.273   3.317  10.494  0.2328  0.3731 -0.8499
  641MOL0     C84546   3.152   3.261  10.547  0.3307  0.5154  1.5810
  641MOL0     H84547   2.687   3.203  10.497 -0.0806  1.0572 -1.9662
  641MOL0     H84548   2.461   3.115  10.555  0.3755 -0.7623  1.0207
  641MOL0     H84549   2.370   2.706  10.501 -0.4402  0.9429  1.9513
  641MOL0     H84550   2.295   2.767  10.351 -0.0622 -0.2024 -0.4766
  641MOL0     H84551   2.124   2.674  10.467  2.4110  0.0425 -3.3021
  641MOL0     H84552   2.102   2.847  10.489  1.2553 -0.6991 -1.3131
  641MOL0     H84553   2.214   2.847  10.711  3.1514 -1.5491  2.9224
  641MOL0     H84554   2.247   2.673  10.685 -3.8713 -2.9899  0.4901
  641MOL0     H84555   1.966   2.778  10.689 -3.0285 -2.9194 -1.5902
  641MOL0     H84556   2.028   2.612  10.690  0.1018 -0.0620  1.0294
  641MOL0     H84557   2.097   2.661  10.951  1.8140  1.4495 -1.5867
  641MOL0     H84558   1.940   2.646  10.904 -1.7008  1.2801  0.2170
  641MOL0     H84559   1.951   2.831  11.041  0.8897  0.4141  1.3698
  641MOL0     H84560   1.926   2.908  10.891  1.4449  0.3989 -1.0673
  641MOL0     H84561   2.151   2.927  11.083 -2.4088 -0.1729  0.7531
  641MOL0     H84562   2.225   2.861  10.944 -0.1922 -0.8841  1.3142
  641MOL0     H84563   2.050   3.123  10.928 -1.2908 -1.2663 -2.8080
  641MOL0     H84564   2.145   3.056  10.802  2.7685  2.3197 -0.0252
  641MOL0     H84565   2.426   3.039  10.882  0.4255  0.1224 -0.6637
  641MOL0     H84566   2.624   3.149  11.002  0.3330  0.0064 -0.8378
  641MOL0     H84567   2.615   3.321  11.040 -1.8986 -1.0653  1.8057
  641MOL0     H84568   2.622   3.179  10.759 -2.7223 -0.5114  1.7247
  641MOL0     H84569   2.752   3.262  10.843  0.5026 -0.2869 -4.3899
  641MOL0     H84570   2.666   3.415  10.670  0.6099  0.8251  1.5838
  641MOL0     H84571   2.495   3.399  10.726 -0.5492 -2.1672 -2.6321
  641MOL0     H84572   2.555   3.509  10.926  1.1105 -2.4542  1.0142
  641MOL0     H84573   2.611   3.600  10.779  1.0576 -0.2217 -0.6189
  641MOL0     H84574   2.778   3.581  10.642 -1.3530  0.4225  1.2365
  641MOL0     H84575   3.012   3.630  10.527  1.8921  0.1771 -0.3230
  641MOL0     H84576   3.551   3.489  10.724  2.1160  0.5648  1.5658
  641MOL0     H84577   3.769   3.527  10.600 -0.2910 -0.5340 -2.3698
  641MOL0     H84578   3.908   3.800  10.294 -0.7241  1.5292  1.4127
  641MOL0     H84579   3.820   3.649  10.309  0.8932 -1.0973  1.3932
  641MOL0     H84580   4.040   3.586  10.287  3.7056 -0.1244  0.1385
  641MOL0     H84581   3.993   3.553  10.455 -1.6736  3.5662  4.5502
  641MOL0     H84582   4.149   3.787  10.342  0.7571 -2.1480 -2.5450
  641MOL0     H84583   4.213   3.659  10.429  2.8611  3.2744 -4.1679
  641MOL0     H84584   4.021   3.864  10.568 -0.0159  0.8126 -0.1571
  641MOL0     H84585   4.095   3.727  10.644 -0.3920  1.9627  1.2316
  641MOL0     H84586   4.230   3.982  10.540 -1.0909  1.3440  2.2754
  641MOL0     H84587   4.321   3.832  10.562  0.6174 -0.1863  2.4261
  641MOL0     H84588   4.245   3.827  10.794 -0.9885  0.3125 -0.3935
  641MOL0     H84589   4.127   3.948  10.770  0.3619  3.5067 -1.4628
  641MOL0     H84590   4.307   4.131  10.722 -3.0211 -0.4852  0.9720
  641MOL0     H84591   4.317   4.064  10.882 -3.2532  3.9359 -0.6028
  641MOL0     H84592   4.487   3.950  10.648  2.4074 -0.5171  1.4421
  641MOL0     H84593   4.506   3.909  10.816 -4.0647 -3.0404 -0.7950
  641MOL0     H84594   3.656   3.929  10.507  2.0342 -0.9689 -0.8830
  641MOL0     H84595   3.441   3.899  10.597  0.6102  0.2301  0.7406
  641MOL0     H84596   3.210   3.608  10.904 -0.0863  2.2708 -0.5640
  641MOL0     H84597   2.995   3.508  11.012 -4.2249 -1.3238 -1.4672
  641MOL0     H84598   2.527   2.763  10.339  0.0823  0.0559 -0.0851
  641MOL0     H84599   2.765   2.827  10.308  1.9227  1.6044  0.0831
  641MOL0     H84600   3.060   3.114  10.248  1.8267 -0.3035 -1.3162
  641MOL0     H84601   3.269   3.230  10.166 -1.7936 -1.8690 -0.0187
  641MOL0     H84602   3.624   3.327  10.234 -1.5795 -0.0941 -0.1894
  641MOL0     H84603   3.511   3.209  10.173 -0.6277  0.4676 -0.2367
  641MOL0     H84604   3.516   3.103  10.410  2.8213 -2.2082  1.7154
  641MOL0     H84605   3.652   3.086  10.308 -1.2577 -0.9802 -0.0087
  641MOL0     H84606   3.614   3.306  10.530  0.9566  2.7184 -2.5999
  641MOL0     H84607   3.767   3.273  10.435  0.4751 -2.8947 -2.3009
  641MOL0     H84608   3.673   3.040  10.595 -1.9407  2.2722  0.8291
  641MOL0     H84609   3.830   3.081  10.508  2.1099  1.3459  2.2075
  641MOL0     H84610   3.902   3.253  10.880 -0.1879 -0.2639 -0.5022
  641MOL0     H84611   3.326   3.383  10.562 -0.0033  0.8310 -1.1034
  641MOL0     H84612   3.114   3.267  10.649 -2.1766  0.0381  0.7467
  642MOL0     O84613   3.182  10.301   6.080  0.5967 -0.3407  0.2927
  642MOL0     C84614   3.135  10.257   5.976 -0.0281  0.4200 -0.3690
  642MOL0     O84615   3.134  10.319   5.848  0.1291  0.2447  0.1530
  642MOL0     C84616   3.202  10.443   5.839 -0.2876  0.4211  0.1177
  642MOL0     C84617   3.335  10.457   5.877 -0.7053 -0.0835 -0.8890
  642MOL0     C84618   3.387  10.588   5.901 -0.7218  0.9865 -1.0288
  642MOL0     C84619   3.318  10.703   5.870  1.0878  0.2895  0.8876
  642MOL0     O84620   3.370  10.826   5.898  0.6696  0.5873 -0.5742
  642MOL0     C84621   3.273  10.925   5.933  0.4795 -0.4833  0.6387
  642MOL0     C84622   3.355  11.041   5.993  0.4658  0.2985 -0.9671
  642MOL0     C84623   3.469  11.106   5.903  0.2007 -0.0195 -0.3651
  642MOL0     C84624   3.417  11.127   5.765 -0.4256  0.3686  0.0305
  642MOL0     C84625   3.528  11.190   5.670  0.6366 -0.4879  0.0129
  642MOL0     C84626   3.458  11.294   5.577  0.2439 -0.0960  0.3824
  642MOL0     C84627   3.380  11.231   5.461 -0.1349 -0.0714 -0.4757
  642MOL0     C84628   3.338  11.334   5.357 -0.4781  0.0588 -0.4791
  642MOL0     N84629   3.449  11.353   5.258  0.1071  0.3643  0.8823
  642MOL0     C84630   3.480  11.279   5.141  0.3106 -0.2045 -1.3686
  642MOL0     C84631   3.598  11.327   5.094  0.0133 -0.0133 -0.0334
  642MOL0     C84632   3.679  11.253   4.987 -0.0111  0.4846 -0.2480
  642MOL0     C84633   3.635  11.295   4.848  0.1264  0.8690  0.3403
  642MOL0     C84634   3.722  11.229   4.743  0.1845  0.7944  0.5004
  642MOL0     C84635   3.655  11.244   4.599  0.0880  0.7374  0.5054
  642MOL0     O84636   3.533  11.175   4.597  0.7538  0.3386 -0.0217
  642MOL0     C84637   3.487  11.157   4.471  0.2077 -0.1255  0.1396
  642MOL0     C84638   3.348  11.194   4.439  0.6105 -0.5406 -0.5812
  642MOL0     C84639   3.289  11.198   4.314  0.5863 -1.0359  0.9620
  642MOL0     C84640   3.359  11.142   4.205  0.7212 -0.0183  0.0656
  642MOL0     C84641   3.302  11.140   4.072  0.4321  0.0446  0.0066
  642MOL0     O84642   3.157  11.162   4.068  0.8037  0.3514 -0.4333
  642MOL0     C84643   3.085  11.155   3.949 -1.0106  0.5241  0.5913
  642MOL0     C84644   3.142  11.187   3.829  0.8889 -0.0055  0.2611
  642MOL0     C84645   3.084  11.174   3.708 -1.1910  0.4491  0.1856
  642MOL0     C84646   2.949  11.116   3.696 -0.4762  0.9408 -0.6363
  642MOL0     O84647   2.894  11.083   3.579 -0.0963 -0.0767  0.8001
  642MOL0     C84648   2.979  11.085   3.451 -0.1752 -0.7286 -0.8343
  642MOL0     C84649   2.924  11.023   3.324 -0.1126 -0.2826 -0.1129
  642MOL0     C84650   2.778  11.069   3.305  0.6348 -0.1920 -0.4625
  642MOL0     C84651   2.705  10.992   3.196 -0.2814  0.1290  0.8374
  642MOL0     C84652   2.590  11.083   3.143 -0.3928 -0.4620 -0.7597
  642MOL0     C84653   2.611  11.153   3.003 -0.2105  0.1625 -0.3015
  642MOL0     C84654   2.723  11.259   3.003 -0.5580  0.5636  0.0057
  642MOL0     C84655   2.673  11.387   3.074 -0.2785 -0.6210 -0.3120
  642MOL0    Cl84656   2.817  11.509   3.059 -0.1116 -0.1445 -0.1760
  642MOL0     C84657   2.884  11.080   3.812 -1.5392  0.0128  0.4186
  642MOL0     C84658   2.956  11.102   3.937  0.1299  0.4370  0.3041
  642MOL0     O84659   3.380  11.118   3.979  0.0776  0.8141  0.0925
  642MOL0     C84660   3.500  11.113   4.219 -0.4634  0.5848 -0.7708
  642MOL0     C84661   3.562  11.127   4.352 -0.0307 -1.1417  1.0501
  642MOL0     N84662   3.635  11.435   5.165  0.1488  1.2191 -0.1755
  642MOL0     N84663   3.547  11.457   5.258  0.3915 -0.5844 -0.6640
  642MOL0     C84664   3.192  10.683   5.802 -0.9919 -0.4616  1.0675
  642MOL0     C84665   3.138  10.554   5.788  0.1852 -0.5752  0.4169
  642MOL0     C84666   3.050  10.138   5.985 -0.0069 -0.1420  0.0925
  642MOL0     C84667   3.009  10.073   6.109  0.4145 -0.3748  0.0347
  642MOL0     C84668   2.954   9.945   6.116 -0.2775 -0.6889 -0.0927
  642MOL0     C84669   2.929   9.879   5.991  0.5510 -0.3350  0.5193
  642MOL0     O84670   2.870   9.756   5.997 -0.0972  0.2127  0.8898
  642MOL0     C84671   2.854   9.684   5.878  0.7000  0.5172 -0.3023
  642MOL0     C84672   2.776   9.549   5.909  0.2037 -0.7316  1.0815
  642MOL0     C84673   2.848   9.454   5.994 -0.2549  0.0314 -0.1390
  642MOL0     C84674   2.914   9.349   5.903 -0.1506 -0.9568  0.3610
  642MOL0     C84675   2.828   9.231   5.889 -0.2311  0.0548 -0.1754
  642MOL0     C84676   2.752   9.134   5.885 -0.2627  1.3031 -0.6496
  642MOL0     C84677   2.964   9.939   5.873 -0.7544  0.3817 -0.2694
  642MOL0     C84678   3.013  10.070   5.871  0.6590  1.0716  0.5355
  642MOL0     H84679   3.403  10.381   5.916  1.6547  0.9377 -2.7763
  642MOL0     H84680   3.468  10.601   5.972 -1.1241 -1.6599  0.0038
  642MOL0     H84681   3.205  10.879   6.005  0.6067 -2.1084 -0.2312
  642MOL0     H84682   3.220  10.956   5.842  0.7381  0.9705  0.9652
  642MOL0     H84683   3.401  10.996   6.080 -0.0968 -2.0769 -1.8235
  642MOL0     H84684   3.302  11.131   6.028  2.3759  1.2606 -0.4229
  642MOL0     H84685   3.553  11.036   5.906  0.8262  0.7084 -0.3275
  642MOL0     H84686   3.499  11.203   5.944  2.3778  0.2658 -2.3637
  642MOL0     H84687   3.390  11.024   5.738  1.0149 -1.0927  3.5385
  642MOL0     H84688   3.324  11.185   5.765 -1.5332 -1.1474  3.4803
  642MOL0     H84689   3.581  11.106   5.623 -1.8459 -1.7011 -0.7887
  642MOL0     H84690   3.593  11.247   5.737  2.0046 -1.6523 -0.2649
  642MOL0     H84691   3.541  11.353   5.537  0.1664  0.4881  1.0643
  642MOL0     H84692   3.393  11.352   5.642 -0.3039  0.9341 -1.0402
  642MOL0     H84693   3.437  11.145   5.423  0.4578  0.0382  0.1351
  642MOL0     H84694   3.283  11.197   5.499  0.7609 -1.8030  0.4241
  642MOL0     H84695   3.310  11.425   5.411  1.6174 -0.1365  1.0755
  642MOL0     H84696   3.250  11.292   5.308 -1.9278  1.4218  0.8224
  642MOL0     H84697   3.431  11.187   5.110 -0.3811 -0.3022 -0.0662
  642MOL0     H84698   3.675  11.143   4.994 -1.0333  0.5073 -0.2915
  642MOL0     H84699   3.782  11.288   4.994 -0.4312  1.5456  1.0688
  642MOL0     H84700   3.648  11.399   4.818  1.7601 -0.1868 -3.2893
  642MOL0     H84701   3.531  11.268   4.830  0.1539  2.4340 -2.8523
  642MOL0     H84702   3.821  11.275   4.739 -0.1512  1.4555 -2.0730
  642MOL0     H84703   3.733  11.121   4.758 -0.0176  1.0682  3.1234
  642MOL0     H84704   3.719  11.201   4.520 -3.6466 -0.3064 -2.2095
  642MOL0     H84705   3.646  11.349   4.571  2.9246  0.6221 -1.3465
  642MOL0     H84706   3.295  11.253   4.514  1.5961 -0.3096 -0.0490
  642MOL0     H84707   3.185  11.230   4.304  0.4567 -1.0873  2.0002
  642MOL0     H84708   3.244  11.224   3.827  1.1716 -0.7828 -0.2648
  642MOL0     H84709   3.145  11.198   3.621  1.4264 -2.0547  1.1440
  642MOL0     H84710   3.083  11.056   3.467  0.6527  2.5972  0.6127
  642MOL0     H84711   2.994  11.190   3.427  2.4827 -0.5454  1.2152
  642MOL0     H84712   2.928  10.915   3.343 -0.9050 -0.2237  0.4503
  642MOL0     H84713   2.983  11.036   3.233  2.2105 -2.0252  1.0374
  642MOL0     H84714   2.788  11.177   3.292 -0.5792  0.0390  0.3575
  642MOL0     H84715   2.729  11.060   3.403  3.5975 -2.4316  0.9782
  642MOL0     H84716   2.760  10.962   3.106 -1.1914 -1.3492  0.7381
  642MOL0     H84717   2.676  10.899   3.246  0.1073 -0.5050 -0.0805
  642MOL0     H84718   2.573  11.160   3.218  1.9247 -1.9912  1.4784
  642MOL0     H84719   2.502  11.019   3.131 -0.0003 -0.8203 -1.8883
  642MOL0     H84720   2.521  11.214   2.986 -0.4927  0.6277  2.4008
  642MOL0     H84721   2.618  11.088   2.915  0.1248  1.5171 -1.3267
  642MOL0     H84722   2.807  11.221   3.062 -1.2813 -2.5313 -0.7859
  642MOL0     H84723   2.762  11.282   2.904 -1.0492 -0.5483 -0.4655
  642MOL0     H84724   2.642  11.368   3.177  2.5046 -0.4093  0.6191
  642MOL0     H84725   2.585  11.425   3.021  0.3531  0.1239 -0.8399
  642MOL0     H84726   2.797  11.017   3.798  0.6316 -2.8371 -1.5640
  642MOL0     H84727   2.914  11.070   4.032 -1.2229  1.6999  0.1589
  642MOL0     H84728   3.562  11.098   4.131  0.0709 -0.3057 -0.2567
  642MOL0     H84729   3.664  11.088   4.354 -0.4275 -2.7181 -2.4103
  642MOL0     H84730   3.145  10.772   5.762 -0.7631 -0.6523  0.3617
  642MOL0     H84731   3.039  10.546   5.743  1.2823 -0.0531 -2.2344
  642MOL0     H84732   3.032  10.131   6.198 -1.0366  2.7338 -1.4739
  642MOL0     H84733   2.922   9.887   6.202  1.3460 -0.7796  0.4707
  642MOL0     H84734   2.941   9.649   5.821 -1.6616 -2.2476 -2.5287
  642MOL0     H84735   2.783   9.743   5.820  0.7466 -1.4294 -2.4546
  642MOL0     H84736   2.678   9.575   5.950 -0.2641  0.7513 -0.8346
  642MOL0     H84737   2.758   9.510   5.808  1.9153  1.5834 -0.2206
  642MOL0     H84738   2.784   9.407   6.070  1.7811  2.5163  3.4474
  642MOL0     H84739   2.931   9.503   6.047 -0.1695  0.2900 -0.5086
  642MOL0     H84740   2.946   9.381   5.803  2.6307 -1.7161  0.9014
  642MOL0     H84741   3.010   9.323   5.949 -0.4871 -0.6406  1.2525
  642MOL0     H84742   2.693   9.044   5.885 -1.1711  1.8564  1.3968
  642MOL0     H84743   2.962   9.886   5.778  3.7754  0.4130 -0.5862
  642MOL0     H84744   3.031  10.098   5.768 -0.3299  1.0558  0.3481
  643MOL0     O84745   5.921   8.234   9.554  0.0902  0.8243  0.2946
  643MOL0     C84746   5.875   8.288   9.648 -0.1641 -0.4536 -0.1668
  643MOL0     O84747   5.752   8.262   9.699  0.1294  1.5717 -0.2096
  643MOL0     C84748   5.657   8.200   9.619  0.1560  1.0287  0.1994
  643MOL0     C84749   5.627   8.060   9.630 -0.8026  0.6857 -0.7439
  643MOL0     C84750   5.548   8.004   9.539  0.0723  0.2709  0.2847
  643MOL0     C84751   5.478   8.081   9.438 -0.8054 -0.2067 -0.2083
  643MOL0     O84752   5.399   8.027   9.344 -0.1639  0.0048  0.2608
  643MOL0     C84753   5.322   7.917   9.388 -0.1417  0.3546  0.1046
  643MOL0     C84754   5.206   7.888   9.297  0.3875  0.2726  0.9034
  643MOL0     C84755   5.221   7.781   9.200  0.0843 -0.1812  0.1924
  643MOL0     C84756   5.109   7.789   9.089  0.0737  0.7504  0.0453
  643MOL0     C84757   5.143   7.699   8.967  0.4525 -0.0338  0.2582
  643MOL0     C84758   5.171   7.558   9.010 -0.0015  0.7147 -0.4111
  643MOL0     C84759   5.182   7.453   8.893 -0.8051  0.0637 -0.4679
  643MOL0     C84760   5.059   7.400   8.828  0.0032 -0.9095  0.3950
  643MOL0     N84761   5.100   7.297   8.727  0.2668 -0.9688  0.0742
  643MOL0     C84762   5.097   7.308   8.591  0.4338 -0.0485  1.8873
  643MOL0     C84763   5.099   7.180   8.540 -0.0991 -1.0025  0.9688
  643MOL0     C84764   5.048   7.140   8.396 -0.9300 -0.8516 -0.3890
  643MOL0     C84765   5.163   7.132   8.294 -0.2420  1.2282 -0.1996
  643MOL0     C84766   5.260   7.253   8.297 -0.5319 -0.6607 -0.1060
  643MOL0     C84767   5.389   7.226   8.229  0.1173 -0.4435 -0.3100
  643MOL0     O84768   5.366   7.232   8.085 -1.0649 -0.1930  0.1521
  643MOL0     C84769   5.424   7.131   8.012 -0.2745 -0.0109 -1.1610
  643MOL0     C84770   5.438   6.997   8.051  0.4641 -0.3372  0.2590
  643MOL0     C84771   5.484   6.896   7.969  0.0631  0.6968 -0.6111
  643MOL0     C84772   5.546   6.945   7.850  0.2162 -0.4218 -0.1620
  643MOL0     C84773   5.617   6.858   7.769  0.0138  0.8080 -0.3115
  643MOL0     O84774   5.716   6.920   7.685  0.7876  0.3246 -0.2229
  643MOL0     C84775   5.771   6.871   7.573  0.2263  0.8676 -0.1650
  643MOL0     C84776   5.707   6.780   7.494 -0.1312  0.3666 -0.3518
  643MOL0     C84777   5.765   6.735   7.372  0.3995 -0.6852 -0.2835
  643MOL0     C84778   5.888   6.789   7.335  1.1957 -0.3770 -0.4203
  643MOL0     O84779   5.938   6.755   7.213  0.6065 -0.1928 -0.0157
  643MOL0     C84780   5.855   6.694   7.116 -0.6680 -0.0390  0.3042
  643MOL0     C84781   5.916   6.690   6.977  0.3151 -0.4725 -0.1970
  643MOL0     C84782   5.927   6.835   6.925 -0.0276  0.4885  0.2954
  643MOL0     C84783   5.954   6.848   6.772  0.8371 -0.3134  1.3433
  643MOL0     C84784   6.071   6.755   6.725  0.0101  0.0087  0.0437
  643MOL0     C84785   6.072   6.754   6.575  0.1072 -1.2494 -0.3381
  643MOL0     C84786   6.182   6.666   6.516  0.9561  0.0796  0.3187
  643MOL0     C84787   6.152   6.513   6.540  1.4518 -0.8517  0.2578
  643MOL0    Cl84788   5.985   6.456   6.506  0.1987 -0.2925 -0.1334
  643MOL0     C84789   5.960   6.871   7.418  0.6975  0.1801  0.2086
  643MOL0     C84790   5.898   6.912   7.543  0.3273 -0.1845  0.2951
  643MOL0     O84791   5.582   6.740   7.766 -0.2916 -0.5089  0.0567
  643MOL0     C84792   5.532   7.075   7.807  0.6185 -0.6049  0.2227
  643MOL0     C84793   5.469   7.166   7.890 -0.3912  0.2991 -0.2756
  643MOL0     N84794   5.111   7.096   8.648  0.5770 -0.2505 -0.8888
  643MOL0     N84795   5.111   7.165   8.762  0.0245 -0.1634  0.6224
  643MOL0     C84796   5.506   8.215   9.430 -0.3266 -0.8723 -0.2176
  643MOL0     C84797   5.592   8.277   9.524 -0.6045  0.0543 -0.3993
  643MOL0     C84798   5.969   8.377   9.717 -0.5854  0.0807  0.0512
  643MOL0     C84799   6.087   8.419   9.656  0.3896  1.2124  0.0996
  643MOL0     C84800   6.168   8.508   9.715  0.0147 -0.5248  0.3766
  643MOL0     C84801   6.132   8.563   9.839 -0.9809 -1.1227  0.1241
  643MOL0     O84802   6.215   8.665   9.873 -0.7159 -0.3759  0.2425
  643MOL0     C84803   6.233   8.707  10.004  0.6556 -1.1436 -0.2320
  643MOL0     C84804   6.337   8.823  10.020  0.0834  0.3873 -0.7795
  643MOL0     C84805   6.340   8.878  10.165  0.5004  0.8369  0.1784
  643MOL0     C84806   6.422   9.003  10.182 -0.5236  0.1218 -0.4089
  643MOL0     C84807   6.380   9.071  10.303  0.1099 -0.2309 -0.4297
  643MOL0     C84808   6.339   9.142  10.390 -0.5205  0.1913  0.0146
  643MOL0     C84809   6.015   8.519   9.903 -1.0450 -0.0322 -0.8657
  643MOL0     C84810   5.932   8.426   9.841 -0.3629  0.1353 -0.5279
  643MOL0     H84811   5.674   8.009   9.714 -0.2326  0.0447 -1.4401
  643MOL0     H84812   5.531   7.897   9.542  0.8186  0.1329  3.6894
  643MOL0     H84813   5.283   7.950   9.485 -2.5561 -3.6688  0.7591
  643MOL0     H84814   5.388   7.831   9.406 -0.1320  0.4764  0.6701
  643MOL0     H84815   5.175   7.974   9.238 -2.6448 -1.1854  0.1948
  643MOL0     H84816   5.119   7.857   9.355  0.2854 -2.9335 -0.7258
  643MOL0     H84817   5.219   7.681   9.243  1.6752 -0.9049 -1.3120
  643MOL0     H84818   5.316   7.788   9.147 -0.4235 -0.7000 -0.8224
  643MOL0     H84819   5.015   7.751   9.131 -0.5456  0.9247 -1.1428
  643MOL0     H84820   5.092   7.891   9.055  1.6984  0.4428 -1.8846
  643MOL0     H84821   5.230   7.746   8.921  1.4976 -0.2233  1.9219
  643MOL0     H84822   5.061   7.710   8.896 -0.8936 -1.8730  1.4428
  643MOL0     H84823   5.094   7.521   9.079  0.3645  0.3313 -0.2097
  643MOL0     H84824   5.266   7.547   9.063 -0.3062 -4.0433 -0.4400
  643MOL0     H84825   5.234   7.509   8.815 -1.2172  0.6549 -0.3242
  643MOL0     H84826   5.257   7.378   8.921 -1.0261 -1.3864 -3.3643
  643MOL0     H84827   5.011   7.488   8.785  1.4533  0.9485  2.3106
  643MOL0     H84828   4.995   7.364   8.909 -0.0754  1.1215  1.3044
  643MOL0     H84829   5.064   7.389   8.526 -1.2609 -2.1683 -0.0660
  643MOL0     H84830   4.978   7.214   8.357  0.4462  0.4694 -0.4578
  643MOL0     H84831   5.006   7.039   8.403  1.8000 -2.1047 -0.5850
  643MOL0     H84832   5.121   7.124   8.193 -1.3792  0.1938  0.3240
  643MOL0     H84833   5.230   7.048   8.315 -0.7825 -0.0673 -3.1204
  643MOL0     H84834   5.215   7.345   8.259  2.5521  0.4353 -1.3941
  643MOL0     H84835   5.290   7.279   8.399 -0.6503  0.1894 -0.2826
  643MOL0     H84836   5.437   7.139   8.273 -0.9385 -1.0912 -0.4131
  643MOL0     H84837   5.457   7.310   8.249 -1.8030  0.8471  1.2197
  643MOL0     H84838   5.403   6.979   8.153 -0.0279  0.7468  0.2937
  643MOL0     H84839   5.480   6.788   7.984 -1.5519  0.8494  0.3498
  643MOL0     H84840   5.613   6.732   7.521 -0.0760 -1.0425 -2.4444
  643MOL0     H84841   5.703   6.667   7.315 -0.9467 -0.0407  0.3613
  643MOL0     H84842   5.758   6.745   7.120 -0.6670  0.0253 -0.4586
  643MOL0     H84843   5.854   6.592   7.158  2.5149  0.8340  2.9247
  643MOL0     H84844   5.848   6.643   6.906  4.0133 -0.2229 -4.3768
  643MOL0     H84845   6.009   6.633   6.977  0.3279 -0.5753  2.1053
  643MOL0     H84846   6.015   6.881   6.970 -0.2877 -0.6478  2.1149
  643MOL0     H84847   5.836   6.886   6.958  0.3727  0.8224  0.9219
  643MOL0     H84848   5.857   6.831   6.725  0.1818  3.0008  1.2035
  643MOL0     H84849   5.980   6.951   6.744  3.7190 -0.6915  2.3529
  643MOL0     H84850   6.056   6.653   6.762  5.2135 -0.8249  0.6670
  643MOL0     H84851   6.164   6.783   6.776 -0.5630 -1.6794  2.1914
  643MOL0     H84852   6.076   6.858   6.542  0.5980 -0.6608  1.4759
  643MOL0     H84853   5.976   6.719   6.533 -0.4785 -1.6067  1.2295
  643MOL0     H84854   6.184   6.694   6.411 -3.2641  0.2883  0.1052
  643MOL0     H84855   6.275   6.683   6.571  1.6181  1.5339 -1.1873
  643MOL0     H84856   6.177   6.504   6.646 -2.7314  2.4239  1.8060
  643MOL0     H84857   6.209   6.453   6.468  0.9479  0.2726 -1.1191
  643MOL0     H84858   6.063   6.900   7.399  0.2731  0.5142 -1.8475
  643MOL0     H84859   5.958   6.970   7.613 -0.7479  0.9952  0.2650
  643MOL0     H84860   5.570   7.131   7.722 -3.8554  1.7739 -0.5225
  643MOL0     H84861   5.461   7.269   7.856 -2.1833 -0.0970 -1.2220
  643MOL0     H84862   5.451   8.271   9.356  1.0679  2.6244  1.1562
  643MOL0     H84863   5.600   8.383   9.503 -0.8578 -0.2453 -2.1700
  643MOL0     H84864   6.111   8.384   9.557  2.2090  0.2800  0.8279
  643MOL0     H84865   6.255   8.539   9.658 -0.7878 -0.8922 -1.0959
  643MOL0     H84866   6.257   8.628  10.076  1.9353 -1.2342 -0.7303
  643MOL0     H84867   6.136   8.755  10.019  1.5005  1.3934 -2.1272
  643MOL0     H84868   6.438   8.788   9.994 -0.3038 -0.5793 -1.0273
  643MOL0     H84869   6.310   8.891   9.938 -1.9491 -0.5651 -0.9578
  643MOL0     H84870   6.373   8.805  10.239 -0.4603 -1.0412 -1.1560
  643MOL0     H84871   6.236   8.908  10.180 -0.3353 -1.3916 -0.8156
  643MOL0     H84872   6.528   8.978  10.191  0.3112  2.4152 -2.4945
  643MOL0     H84873   6.429   9.075  10.099  4.1842  1.0704  0.4969
  643MOL0     H84874   6.312   9.220  10.458 -2.1984  0.4000 -0.8292
  643MOL0     H84875   5.985   8.540  10.005 -0.9489 -0.9688 -0.6367
  643MOL0     H84876   5.848   8.375   9.888  0.0785 -0.5187 -0.4378
  644MOL0     O84877   4.352  11.190   9.974 -0.7609  0.1013 -0.6653
  644MOL0     C84878   4.251  11.200   9.906  0.1203  0.1023  0.6057
  644MOL0     O84879   4.137  11.118   9.913 -0.6339 -0.1565 -0.3466
  644MOL0     C84880   4.127  11.040  10.032  0.6660  0.4701  0.4465
  644MOL0     C84881   4.077  11.104  10.147  0.3208  0.1285  0.8956
  644MOL0     C84882   4.070  11.035  10.270 -0.1298 -0.6418 -0.6052
  644MOL0     C84883   4.117  10.900  10.272 -0.6494 -0.6053 -0.1026
  644MOL0     O84884   4.120  10.831  10.387 -0.3079  0.7113  0.1209
  644MOL0     C84885   4.037  10.713  10.401  0.2176  0.2940 -0.6743
  644MOL0     C84886   4.033  10.665  10.541  0.1296  0.1362 -0.3112
  644MOL0     C84887   3.953  10.763  10.628  0.8511  0.9112  0.3812
  644MOL0     C84888   3.802  10.743  10.616 -0.6574 -0.0397  0.0142
  644MOL0     C84889   3.720  10.826  10.708  0.4770 -0.0124 -0.2053
  644MOL0     C84890   3.724  10.771  10.851 -0.0292 -1.3788  0.3367
  644MOL0     C84891   3.589  10.801  10.925 -1.1269 -0.2299 -0.1636
  644MOL0     C84892   3.587  10.721  11.063  0.2004 -0.3447 -0.0624
  644MOL0     N84893   3.610  10.818  11.180  0.0092 -0.6536 -0.3226
  644MOL0     C84894   3.521  10.821  11.287  0.2868  0.1359 -0.4608
  644MOL0     C84895   3.580  10.916  11.365 -0.0506 -1.3524  0.2765
  644MOL0     C84896   3.544  10.962  11.499  0.2233  0.2469 -0.0764
  644MOL0     C84897   3.419  11.056  11.490  0.0693  0.6106 -0.5156
  644MOL0     C84898   3.471  11.198  11.481  0.7183  0.1863  0.0499
  644MOL0     C84899   3.379  11.322  11.487  0.4846 -0.4156 -0.6314
  644MOL0     O84900   3.354  11.376  11.356 -0.2661 -0.2995 -0.3008
  644MOL0     C84901   3.443  11.475  11.301  0.8017  0.4448 -0.0919
  644MOL0     C84902   3.566  11.497  11.351 -0.1889  0.2989 -0.5912
  644MOL0     C84903   3.656  11.582  11.290 -0.0881 -0.9021  0.1628
  644MOL0     C84904   3.617  11.655  11.176 -0.0015 -0.0368 -0.4018
  644MOL0     C84905   3.711  11.744  11.105 -0.2844 -0.7357  0.1590
  644MOL0     O84906   3.844  11.748  11.146  0.1387 -0.4474 -0.1758
  644MOL0     C84907   3.954  11.767  11.053 -0.1751 -0.0868 -0.2388
  644MOL0     C84908   3.965  11.700  10.932  0.5326  0.0152  0.0539
  644MOL0     C84909   4.082  11.699  10.864 -1.3416 -0.4339  0.3550
  644MOL0     C84910   4.182  11.798  10.885 -0.3560 -0.2387  0.7332
  644MOL0     O84911   4.294  11.791  10.804 -0.0558 -0.2041 -0.2610
  644MOL0     C84912   4.364  11.922  10.774  1.0580 -0.0429 -0.0169
  644MOL0     C84913   4.295  11.969  10.641  0.0719 -0.0529 -0.2320
  644MOL0     C84914   4.180  12.064  10.654 -0.4286 -0.2619 -0.7739
  644MOL0     C84915   4.220  12.209  10.697 -0.7732 -0.2904  0.2709
  644MOL0     C84916   4.285  12.289  10.583 -0.3271 -0.4200 -0.1139
  644MOL0     C84917   4.295  12.443  10.590 -0.3588  0.1903 -0.2889
  644MOL0     C84918   4.425  12.490  10.509  0.0793 -0.2933 -0.6645
  644MOL0     C84919   4.436  12.639  10.508 -0.1430 -0.1554 -0.3024
  644MOL0    Cl84920   4.460  12.707  10.668  0.0854 -0.0176  0.0652
  644MOL0     C84921   4.173  11.874  11.009 -0.1094 -0.6532 -0.5258
  644MOL0     C84922   4.062  11.856  11.091 -0.5290 -0.1996  0.4760
  644MOL0     O84923   3.673  11.783  10.994 -0.2765 -0.1640 -0.9407
  644MOL0     C84924   3.493  11.626  11.120  1.0154  0.6028 -0.1689
  644MOL0     C84925   3.411  11.532  11.177  0.5633  1.2505 -0.7091
  644MOL0     N84926   3.689  10.970  11.298 -0.1045  0.7345  0.7608
  644MOL0     N84927   3.703  10.909  11.187 -0.5377 -1.1162 -0.0987
  644MOL0     C84928   4.164  10.833  10.158 -0.6125  0.2731  0.5881
  644MOL0     C84929   4.171  10.902  10.035  0.7162 -1.0219  0.0093
  644MOL0     C84930   4.256  11.305   9.799  0.5281 -0.6356 -0.0807
  644MOL0     C84931   4.373  11.383   9.782  0.7532  0.4535  0.1536
  644MOL0     C84932   4.379  11.481   9.678 -0.3463  0.3944  0.2750
  644MOL0     C84933   4.262  11.517   9.603 -0.7462  0.0318  0.0567
  644MOL0     O84934   4.260  11.616   9.507  0.7310 -0.2173 -0.1526
  644MOL0     C84935   4.361  11.712   9.488 -0.2642 -0.6257  0.1209
  644MOL0     C84936   4.321  11.797   9.368 -0.4239  1.0559  0.6720
  644MOL0     C84937   4.171  11.853   9.374 -0.7293  0.1882  0.3404
  644MOL0     C84938   4.151  11.971   9.470 -0.9602 -0.0906 -0.2950
  644MOL0     C84939   4.014  12.005   9.447  0.3161 -0.9734 -0.1967
  644MOL0     C84940   3.907  12.051   9.408  0.5440 -0.0668 -0.1976
  644MOL0     C84941   4.154  11.436   9.627  0.3318 -0.1965  0.3690
  644MOL0     C84942   4.140  11.336   9.725  0.6366 -0.2072  0.5342
  644MOL0     H84943   4.050  11.207  10.127  1.8410  0.5695  0.9293
  644MOL0     H84944   4.055  11.092  10.361  2.9202 -1.5650  0.5829
  644MOL0     H84945   4.072  10.634  10.333  1.8557 -0.1466  0.6189
  644MOL0     H84946   3.934  10.738  10.374  0.8655  3.3553 -0.6999
  644MOL0     H84947   4.135  10.649  10.576 -0.0674  1.6125  1.0354
  644MOL0     H84948   3.978  10.571  10.547 -2.0553  1.4258  0.8722
  644MOL0     H84949   3.974  10.870  10.622 -0.9739  1.2644 -0.5731
  644MOL0     H84950   3.978  10.725  10.727  1.6646 -0.2410 -0.2371
  644MOL0     H84951   3.774  10.779  10.516 -0.1303  3.9129  1.1195
  644MOL0     H84952   3.777  10.637  10.625  2.4780 -1.0919 -1.9682
  644MOL0     H84953   3.616  10.798  10.684  0.3999  1.4780 -1.7666
  644MOL0     H84954   3.743  10.932  10.708  0.1441  0.1454 -3.3093
  644MOL0     H84955   3.811  10.818  10.898 -1.2287  1.2320  0.1700
  644MOL0     H84956   3.740  10.663  10.858  2.2158 -1.1878 -1.0021
  644MOL0     H84957   3.562  10.906  10.933 -1.3896  0.1306 -3.9510
  644MOL0     H84958   3.509  10.747  10.873 -1.7130 -0.7085  1.1879
  644MOL0     H84959   3.665  10.644  11.069 -0.4520 -0.9095  1.7136
  644MOL0     H84960   3.489  10.676  11.080  0.2391 -0.7428 -0.8422
  644MOL0     H84961   3.433  10.765  11.316 -0.5303 -1.2617 -4.8682
  644MOL0     H84962   3.631  11.005  11.548  1.9691 -4.6049  1.6928
  644MOL0     H84963   3.528  10.876  11.565 -0.4213  0.0878 -0.4280
  644MOL0     H84964   3.351  11.056  11.576 -1.1887  2.8951 -1.4099
  644MOL0     H84965   3.352  11.038  11.405 -1.6219 -0.9764  1.0531
  644MOL0     H84966   3.548  11.213  11.558  3.0455  1.3764 -2.3509
  644MOL0     H84967   3.518  11.203  11.383  2.0507 -1.5025  0.5333
  644MOL0     H84968   3.432  11.393  11.551  1.4862 -2.4414  0.8861
  644MOL0     H84969   3.281  11.304  11.532  0.2951  2.4205  0.2948
  644MOL0     H84970   3.609  11.437  11.431 -0.5579 -0.1815 -0.7504
  644MOL0     H84971   3.751  11.596  11.341  2.5477 -1.6242 -3.9682
  644MOL0     H84972   3.888  11.625  10.915  0.2751 -0.0453  1.3798
  644MOL0     H84973   4.088  11.635  10.777  1.8649  2.7202 -2.0889
  644MOL0     H84974   4.470  11.909  10.753  1.7484  2.0433  1.6812
  644MOL0     H84975   4.338  12.002  10.845  0.2977 -1.4876  1.3937
  644MOL0     H84976   4.251  11.884  10.590 -1.3617  0.7283 -0.3482
  644MOL0     H84977   4.355  12.004  10.557 -0.4317 -0.1989 -0.6579
  644MOL0     H84978   4.118  12.013  10.728 -1.2082 -1.9563 -2.5227
  644MOL0     H84979   4.124  12.062  10.560  1.1105 -1.2975 -1.7009
  644MOL0     H84980   4.125  12.259  10.718 -1.5644 -0.4733 -2.4623
  644MOL0     H84981   4.286  12.221  10.784 -0.4840  0.3823 -0.0307
  644MOL0     H84982   4.252  12.261  10.483  1.2889 -1.8729 -0.2818
  644MOL0     H84983   4.387  12.251  10.590  0.1062  0.2524 -2.1325
  644MOL0     H84984   4.304  12.477  10.694 -1.9382  1.9810 -0.6676
  644MOL0     H84985   4.204  12.480  10.543 -1.1141 -1.5502 -0.2436
  644MOL0     H84986   4.519  12.456  10.554  0.4348 -0.9905 -1.8620
  644MOL0     H84987   4.434  12.447  10.409 -1.5631 -1.4713 -0.3435
  644MOL0     H84988   4.343  12.679  10.466 -0.1377  0.2171  0.0481
  644MOL0     H84989   4.514  12.673  10.439  0.5810 -1.6289 -0.2663
  644MOL0     H84990   4.261  11.932  11.031  0.2090 -1.9106  1.9257
  644MOL0     H84991   4.064  11.891  11.194 -0.5178 -4.4367  2.1254
  644MOL0     H84992   3.454  11.694  11.046 -4.1515 -0.3011  1.2859
  644MOL0     H84993   3.317  11.510  11.127  1.1963  1.9448 -2.2776
  644MOL0     H84994   4.204  10.734  10.176  1.9202  1.0120 -0.3555
  644MOL0     H84995   4.204  10.856   9.943 -0.6463 -3.4652  0.6586
  644MOL0     H84996   4.459  11.363   9.844  0.2346 -1.5254  0.3233
  644MOL0     H84997   4.475  11.531   9.673 -0.6870  0.9536 -2.7195
  644MOL0     H84998   4.448  11.652   9.459 -1.4994 -0.3771 -5.0454
  644MOL0     H84999   4.387  11.769   9.577 -2.1182 -2.7408  2.1375
  644MOL0     H85000   4.390  11.881   9.353  2.6118 -1.2440  0.8985
  644MOL0     H85001   4.337  11.731   9.282 -0.4956  2.8426 -0.7902
  644MOL0     H85002   4.099  11.777   9.406 -0.0091 -0.2915  0.8439
  644MOL0     H85003   4.153  11.877   9.269  1.1377 -0.0786 -0.0780
  644MOL0     H85004   4.163  11.949   9.576 -2.5157  1.3053  0.2222
  644MOL0     H85005   4.217  12.054   9.445 -2.4110  0.0676 -4.5433
  644MOL0     H85006   3.815  12.090   9.371 -0.4960  1.8825  3.8243
  644MOL0     H85007   4.077  11.443   9.551  0.5929  0.3874  0.1595
  644MOL0     H85008   4.046  11.286   9.744 -0.5231  1.0937 -1.3903
  645MOL0     O85009   3.008   4.149   1.784  0.4526 -0.2982  0.5272
  645MOL0     C85010   3.033   4.221   1.688  0.5456  1.6499  0.6199
  645MOL0     O85011   3.008   4.352   1.693  0.3594 -0.0383 -0.2763
  645MOL0     C85012   2.917   4.399   1.785 -0.6499 -0.4387 -0.9502
  645MOL0     C85013   2.795   4.443   1.737 -0.7659 -0.1902  0.6433
  645MOL0     C85014   2.714   4.522   1.812  0.0699  0.5261 -0.8759
  645MOL0     C85015   2.753   4.555   1.945  0.6931  0.3202  0.4022
  645MOL0     O85016   2.664   4.624   2.017  0.2483 -1.1221 -0.4557
  645MOL0     C85017   2.694   4.707   2.125 -0.1515 -0.4387  0.6178
  645MOL0     C85018   2.584   4.815   2.153 -0.3458  0.3339  0.6176
  645MOL0     C85019   2.535   4.906   2.026 -0.3642  0.0660  0.6324
  645MOL0     C85020   2.405   4.980   2.057  0.1421  0.8912  0.7589
  645MOL0     C85021   2.401   5.083   2.176  0.7110  0.7984 -0.7835
  645MOL0     C85022   2.263   5.150   2.186 -0.1594 -0.5282  0.4363
  645MOL0     C85023   2.238   5.261   2.082 -1.4328  0.4744  0.4041
  645MOL0     C85024   2.314   5.385   2.099 -0.6401 -0.1603  0.7584
  645MOL0     N85025   2.264   5.480   1.999 -0.3615 -1.5483  0.5554
  645MOL0     C85026   2.282   5.457   1.871  1.0358 -0.6232  0.8146
  645MOL0     C85027   2.227   5.574   1.803  0.5075  1.0620 -0.3141
  645MOL0     C85028   2.224   5.610   1.654 -0.5628 -0.1800  1.1517
  645MOL0     C85029   2.350   5.687   1.592  0.1250  0.2307 -0.4695
  645MOL0     C85030   2.479   5.609   1.613  0.2566  0.6444  0.4214
  645MOL0     C85031   2.576   5.608   1.489  0.2841 -0.3727  1.1344
  645MOL0     O85032   2.609   5.744   1.462  0.0822 -0.8498  0.9633
  645MOL0     C85033   2.622   5.780   1.325  0.2246 -0.1754  0.2693
  645MOL0     C85034   2.518   5.758   1.233  0.1205  0.7054  0.4210
  645MOL0     C85035   2.516   5.816   1.109 -0.8441 -0.4694 -0.6163
  645MOL0     C85036   2.639   5.886   1.062 -0.4913  0.0470 -0.2719
  645MOL0     C85037   2.631   5.961   0.932 -0.6910 -0.6082 -0.6431
  645MOL0     O85038   2.508   5.968   0.877  0.7397  0.2368 -0.0513
  645MOL0     C85039   2.487   6.061   0.771 -0.1702 -1.0485  0.0844
  645MOL0     C85040   2.432   6.189   0.798  0.9106  0.0320  0.0999
  645MOL0     C85041   2.400   6.281   0.701 -0.5536 -0.3170 -0.5177
  645MOL0     C85042   2.453   6.259   0.575 -0.3259  0.1208  0.1145
  645MOL0     O85043   2.440   6.345   0.470  0.0702 -0.5661 -0.7052
  645MOL0     C85044   2.331   6.438   0.468  0.3528 -0.0223  0.6238
  645MOL0     C85045   2.334   6.496   0.328 -1.1263 -0.6972 -0.3995
  645MOL0     C85046   2.312   6.396   0.217  0.2489 -0.2445  0.0049
  645MOL0     C85047   2.317   6.459   0.077  0.3837  0.8397 -1.1128
  645MOL0     C85048   2.293   6.359  -0.034 -0.0891 -0.0447  0.4653
  645MOL0     C85049   2.164   6.297  -0.044 -0.5582  0.7175 -0.4582
  645MOL0     C85050   2.141   6.229  -0.170 -0.1251  0.7194  0.3688
  645MOL0     C85051   2.202   6.088  -0.163  0.7586  0.4579  0.5807
  645MOL0    Cl85052   2.099   5.963  -0.077  0.4693 -0.4277  0.0552
  645MOL0     C85053   2.510   6.130   0.550 -0.3399 -0.3569 -0.2518
  645MOL0     C85054   2.525   6.031   0.647 -0.1264 -0.3962 -0.1905
  645MOL0     O85055   2.732   6.021   0.885  0.2763 -0.2029 -0.2331
  645MOL0     C85056   2.739   5.905   1.159 -0.9178  0.1172  0.4974
  645MOL0     C85057   2.732   5.851   1.282 -0.1242  0.5821 -0.0405
  645MOL0     N85058   2.173   5.646   1.908 -0.4558 -0.9304  0.3917
  645MOL0     N85059   2.189   5.590   2.027 -0.2493  0.5284  0.4190
  645MOL0     C85060   2.871   4.507   2.002 -0.2611  0.1686 -0.0756
  645MOL0     C85061   2.959   4.433   1.917  0.0891  0.7281  0.4120
  645MOL0     C85062   3.089   4.163   1.569  0.4109  0.4506  0.0114
  645MOL0     C85063   3.167   4.043   1.571 -0.5928 -0.0453  0.0080
  645MOL0     C85064   3.222   3.999   1.445  0.9044  1.1406  0.2051
  645MOL0     C85065   3.202   4.056   1.319  0.0118  0.0680 -0.0658
  645MOL0     O85066   3.246   4.002   1.202 -0.0870  0.4333 -0.0456
  645MOL0     C85067   3.346   4.079   1.134 -0.2465 -0.7564 -0.5710
  645MOL0     C85068   3.478   4.010   1.113 -0.7359  0.5782  0.1682
  645MOL0     C85069   3.549   4.051   0.984  0.1383  0.5294  0.3339
  645MOL0     C85070   3.635   3.939   0.922  0.5308 -1.2573 -0.1751
  645MOL0     C85071   3.549   3.854   0.848 -0.2362 -0.4707 -0.0246
  645MOL0     C85072   3.488   3.778   0.783  0.4644  0.3843  0.0619
  645MOL0     C85073   3.135   4.171   1.312  0.5096 -0.1047 -0.1765
  645MOL0     C85074   3.083   4.224   1.438  0.6327  0.0005  0.1666
  645MOL0     H85075   2.765   4.420   1.636  2.0175 -2.1654  0.1251
  645MOL0     H85076   2.615   4.558   1.787  0.6259  2.3488 -0.5880
  645MOL0     H85077   2.792   4.749   2.101 -0.2608 -1.2054 -1.3514
  645MOL0     H85078   2.697   4.648   2.217  0.8516 -0.1999  0.7485
  645MOL0     H85079   2.627   4.888   2.222 -0.5373  1.7301 -0.6995
  645MOL0     H85080   2.493   4.770   2.193 -0.6124 -0.1129 -0.4628
  645MOL0     H85081   2.517   4.844   1.937  0.0654  3.9156 -2.3725
  645MOL0     H85082   2.612   4.980   2.003 -1.7481  0.9468 -1.5038
  645MOL0     H85083   2.357   5.014   1.965  0.5044 -1.7387 -0.4937
  645MOL0     H85084   2.339   4.903   2.098  0.2718  1.7158  2.6344
  645MOL0     H85085   2.488   5.150   2.177  2.4870 -1.3502 -1.8620
  645MOL0     H85086   2.418   5.030   2.270 -0.7174  1.4546 -0.1307
  645MOL0     H85087   2.261   5.200   2.283  0.3233  1.8153 -0.7036
  645MOL0     H85088   2.182   5.079   2.166 -0.2998 -0.2151 -0.1038
  645MOL0     H85089   2.265   5.223   1.984 -1.0713  4.2430 -1.1189
  645MOL0     H85090   2.131   5.284   2.084 -1.7233 -0.7498  2.1173
  645MOL0     H85091   2.421   5.367   2.084 -1.0744 -1.7571 -0.7443
  645MOL0     H85092   2.302   5.423   2.200  0.2478  0.2305  0.7361
  645MOL0     H85093   2.320   5.371   1.818  0.2665  0.3279 -1.4300
  645MOL0     H85094   2.145   5.682   1.634  1.3039  1.5994 -0.2669
  645MOL0     H85095   2.191   5.522   1.598 -0.4050 -1.4142  2.9141
  645MOL0     H85096   2.366   5.777   1.652  2.0535 -2.0872  2.8457
  645MOL0     H85097   2.329   5.717   1.490 -1.6487 -0.1914 -0.2546
  645MOL0     H85098   2.530   5.652   1.700 -0.1559  1.1151  0.4335
  645MOL0     H85099   2.448   5.505   1.623 -1.4423  1.2903  2.5913
  645MOL0     H85100   2.523   5.544   1.417  1.3208 -3.0171  2.5850
  645MOL0     H85101   2.676   5.567   1.502  0.4115 -0.7219 -0.6919
  645MOL0     H85102   2.425   5.718   1.272  1.4043 -2.5100  0.4909
  645MOL0     H85103   2.427   5.806   1.048 -0.9765  2.1214 -0.9535
  645MOL0     H85104   2.401   6.213   0.900  1.0994  1.9632 -0.2548
  645MOL0     H85105   2.348   6.373   0.726 -1.3739 -1.0070  0.3261
  645MOL0     H85106   2.334   6.517   0.543 -0.0827 -1.5497  2.3302
  645MOL0     H85107   2.235   6.393   0.495 -0.4124  2.2825  1.9969
  645MOL0     H85108   2.432   6.544   0.317 -1.4067  0.0850  0.3920
  645MOL0     H85109   2.264   6.579   0.311 -2.5109 -2.0303 -1.5162
  645MOL0     H85110   2.212   6.360   0.241  1.6279 -2.3486  3.4271
  645MOL0     H85111   2.382   6.313   0.230 -2.4106 -2.3172  2.2498
  645MOL0     H85112   2.236   6.532   0.084  0.5490  1.4989 -4.5595
  645MOL0     H85113   2.416   6.502   0.058  0.3705  1.3285 -0.1116
  645MOL0     H85114   2.380   6.293  -0.028 -1.3424 -1.9497 -1.2326
  645MOL0     H85115   2.310   6.421  -0.122  0.6332  1.1553  1.4099
  645MOL0     H85116   2.084   6.370  -0.028 -2.0025 -1.1149  1.1559
  645MOL0     H85117   2.154   6.218   0.031 -0.6568 -2.6236 -3.7016
  645MOL0     H85118   2.034   6.224  -0.190 -0.6489 -2.1737  3.1036
  645MOL0     H85119   2.201   6.278  -0.248 -0.0077  0.4093  0.2634
  645MOL0     H85120   2.303   6.091  -0.121  1.9400 -0.4952 -1.9918
  645MOL0     H85121   2.224   6.054  -0.265 -1.8380  0.9251 -0.1941
  645MOL0     H85122   2.549   6.114   0.450 -1.9060 -0.8434 -0.8171
  645MOL0     H85123   2.571   5.934   0.628  0.5807 -0.0857 -0.0856
  645MOL0     H85124   2.823   5.962   1.121 -1.4971  1.9474  1.8196
  645MOL0     H85125   2.812   5.859   1.356 -2.1040  1.3073  2.1522
  645MOL0     H85126   2.902   4.531   2.103  2.6283 -1.5523 -0.4615
  645MOL0     H85127   3.062   4.417   1.947 -0.3386 -0.9780  1.1246
  645MOL0     H85128   3.193   3.998   1.666  1.5018  1.1643  0.0513
  645MOL0     H85129   3.276   3.905   1.437 -2.2485 -0.6666 -1.6834
  645MOL0     H85130   3.373   4.165   1.196  0.3241 -1.9850  0.9654
  645MOL0     H85131   3.303   4.106   1.037  0.3105  0.6981 -0.4397
  645MOL0     H85132   3.544   4.020   1.200  0.2167 -1.5124 -0.2523
  645MOL0     H85133   3.462   3.902   1.110  1.0946  0.2467  0.8605
  645MOL0     H85134   3.612   4.139   1.001 -1.6478  1.9536 -0.1324
  645MOL0     H85135   3.488   4.084   0.900  1.1743 -1.0182 -1.0926
  645MOL0     H85136   3.716   3.991   0.870  1.6407 -4.2617 -1.7067
  645MOL0     H85137   3.687   3.878   0.997 -0.5884  0.4011  2.0489
  645MOL0     H85138   3.432   3.701   0.735  0.4786 -0.9371  2.0542
  645MOL0     H85139   3.100   4.208   1.216  2.1105  0.9588 -0.3942
  645MOL0     H85140   3.008   4.301   1.423 -0.2966 -0.4498  2.1350
  646MOL0     O85141   8.343  11.171  10.263 -0.7427  0.7412  0.0474
  646MOL0     C85142   8.390  11.277  10.317  1.5353  0.4424 -0.1630
  646MOL0     O85143   8.407  11.311  10.450 -1.0348 -0.3429 -0.8089
  646MOL0     C85144   8.328  11.242  10.546 -0.4820  1.7717 -0.2341
  646MOL0     C85145   8.302  11.306  10.665  0.7943 -0.1148  0.5591
  646MOL0     C85146   8.195  11.279  10.753 -0.7957  0.4328  0.2882
  646MOL0     C85147   8.136  11.154  10.743  0.0691  0.3506  0.4720
  646MOL0     O85148   8.062  11.106  10.851 -0.3236 -0.9124 -0.1585
  646MOL0     C85149   7.963  11.011  10.829  0.6676  0.7311  0.5607
  646MOL0     C85150   7.884  11.011  10.960  0.2034 -0.4846  0.5168
  646MOL0     C85151   7.808  11.136  10.986 -0.4337  0.2047 -0.0959
  646MOL0     C85152   7.768  11.142  11.139 -0.2067 -0.0447 -1.0936
  646MOL0     C85153   7.640  11.232  11.165 -1.0757 -0.4708 -0.0197
  646MOL0     C85154   7.634  11.263  11.312  0.2827  0.0081 -0.5578
  646MOL0     C85155   7.515  11.360  11.351 -0.8076  0.7242  1.3850
  646MOL0     C85156   7.531  11.384  11.508  0.3284  0.3373  0.2123
  646MOL0     N85157   7.402  11.452  11.531 -0.9271 -0.7016 -0.9042
  646MOL0     C85158   7.282  11.396  11.584  0.2963 -0.7852  0.9628
  646MOL0     C85159   7.195  11.494  11.614  0.0403 -1.1482  0.2621
  646MOL0     C85160   7.047  11.495  11.664 -0.1686  0.9151 -0.4984
  646MOL0     C85161   6.940  11.531  11.561  0.5195  0.3740  0.4351
  646MOL0     C85162   6.813  11.443  11.549  0.6266  0.4668  0.0760
  646MOL0     C85163   6.711  11.469  11.665  0.7355 -0.0302 -0.8440
  646MOL0     O85164   6.666  11.611  11.670 -1.0048 -0.2562  0.5529
  646MOL0     C85165   6.536  11.621  11.715  0.3674 -0.0781 -0.0912
  646MOL0     C85166   6.459  11.731  11.671 -0.1361  0.2825 -1.2215
  646MOL0     C85167   6.331  11.769  11.708 -0.5034  0.9650 -0.6062
  646MOL0     C85168   6.252  11.677  11.778 -0.7668  0.7320 -0.2957
  646MOL0     C85169   6.120  11.704  11.812 -0.0127 -0.3714 -0.1686
  646MOL0     O85170   6.089  11.834  11.832 -0.3053 -1.2202 -0.8535
  646MOL0     C85171   5.962  11.858  11.854  0.6462 -0.9041 -0.7543
  646MOL0     C85172   5.937  11.980  11.924 -0.9835  0.3006  0.5352
  646MOL0     C85173   5.807  12.003  11.963 -0.4208  0.0875 -0.2749
  646MOL0     C85174   5.694  11.931  11.920  1.1612  0.4432 -0.3019
  646MOL0     O85175   5.564  11.963  11.967 -0.1544  0.6229  0.4082
  646MOL0     C85176   5.456  11.891  11.918 -0.5180  0.2853 -0.0727
  646MOL0     C85177   5.315  11.949  11.961 -1.0985  0.5235 -0.8997
  646MOL0     C85178   5.321  12.103  11.944 -0.2710 -0.4067 -0.5268
  646MOL0     C85179   5.192  12.175  11.973 -0.7483 -0.5542 -0.0923
  646MOL0     C85180   5.194  12.326  11.945 -0.5282  0.1169  0.8002
  646MOL0     C85181   5.054  12.386  11.936  0.5124 -1.2698 -0.5622
  646MOL0     C85182   4.947  12.328  11.848  0.2722 -0.1349 -0.7373
  646MOL0     C85183   4.839  12.441  11.822 -1.0020 -0.4489 -0.2077
  646MOL0    Cl85184   4.706  12.371  11.738 -0.2022 -0.1604  0.1274
  646MOL0     C85185   5.717  11.830  11.833  0.8971  1.8611  0.6318
  646MOL0     C85186   5.849  11.796  11.798  0.7420 -0.1287  0.7244
  646MOL0     O85187   6.048  11.609  11.842  0.2812  0.3723 -0.3543
  646MOL0     C85188   6.319  11.557  11.816 -0.1770  0.2475  0.1645
  646MOL0     C85189   6.463  11.526  11.786 -0.5535  0.4128  0.3899
  646MOL0     N85190   7.272  11.614  11.600 -0.1539 -0.1743  0.1820
  646MOL0     N85191   7.383  11.588  11.541  0.3830  0.8475 -0.2763
  646MOL0     C85192   8.172  11.074  10.640  0.0334 -0.0706  1.1489
  646MOL0     C85193   8.257  11.115  10.534 -0.2338  0.3003  0.1306
  646MOL0     C85194   8.425  11.398  10.239  0.4908 -0.1896 -0.8537
  646MOL0     C85195   8.491  11.506  10.294  0.3557  0.4851 -0.8426
  646MOL0     C85196   8.537  11.610  10.212  0.0235  0.0970  0.6662
  646MOL0     C85197   8.501  11.620  10.080 -0.1163  0.0115  0.5043
  646MOL0     O85198   8.543  11.723  10.001  0.3275  0.6805 -0.0011
  646MOL0     C85199   8.494  11.846  10.054 -0.5684 -1.3978  0.7180
  646MOL0     C85200   8.544  11.958   9.968 -0.7900 -0.7170  1.3460
  646MOL0     C85201   8.695  11.992   9.985 -0.4337  0.0295 -0.4957
  646MOL0     C85202   8.715  12.063  10.119  0.8244 -0.1659 -0.2619
  646MOL0     C85203   8.654  12.197  10.123  0.5818  0.6101 -0.3313
  646MOL0     C85204   8.605  12.307  10.118 -0.3150 -0.1972 -0.1135
  646MOL0     C85205   8.415  11.527  10.033 -0.2911 -1.1612  0.3433
  646MOL0     C85206   8.389  11.418  10.108  0.1041 -0.0819  0.3095
  646MOL0     H85207   8.349  11.402  10.686  0.7561  0.3706 -1.4033
  646MOL0     H85208   8.160  11.337  10.838 -1.9821  0.0282  0.0842
  646MOL0     H85209   7.997  10.908  10.814 -2.4891 -0.4150  0.5242
  646MOL0     H85210   7.906  11.042  10.741  0.2099  2.8756  1.5602
  646MOL0     H85211   7.947  10.992  11.047  4.2522 -0.5890 -2.1876
  646MOL0     H85212   7.805  10.935  10.954  0.3386 -0.5352 -2.3679
  646MOL0     H85213   7.720  11.137  10.922 -0.6547  2.1622  0.1831
  646MOL0     H85214   7.859  11.229  10.959 -1.7819  0.8003 -0.6740
  646MOL0     H85215   7.734  11.048  11.183  0.5138  1.3154  2.6995
  646MOL0     H85216   7.853  11.164  11.204 -0.0657 -1.9939 -0.5586
  646MOL0     H85217   7.549  11.179  11.134 -0.1636 -0.8716 -2.1532
  646MOL0     H85218   7.647  11.323  11.105  0.3332  1.8835  3.3902
  646MOL0     H85219   7.721  11.319  11.347 -2.0671  2.4906  1.8587
  646MOL0     H85220   7.628  11.170  11.370 -3.5679  0.1614 -0.4521
  646MOL0     H85221   7.511  11.450  11.289  2.4859 -0.0290 -0.1359
  646MOL0     H85222   7.423  11.307  11.326 -0.3987  0.1664  1.0392
  646MOL0     H85223   7.615  11.448  11.537  0.6598 -0.1174  0.2569
  646MOL0     H85224   7.534  11.292  11.567 -2.8052 -0.4774 -0.6796
  646MOL0     H85225   7.260  11.291  11.595  0.9303 -0.9709  0.5493
  646MOL0     H85226   7.039  11.582  11.729  1.0965  1.0325 -0.4654
  646MOL0     H85227   7.021  11.411  11.729 -1.3684  3.4050  2.4658
  646MOL0     H85228   6.985  11.530  11.461 -2.2021  0.7125 -0.8742
  646MOL0     H85229   6.902  11.632  11.574  1.0243  0.7939 -1.0785
  646MOL0     H85230   6.761  11.468  11.456 -0.4493 -3.2182 -0.4808
  646MOL0     H85231   6.840  11.338  11.535 -2.9577 -0.9729  2.3968
  646MOL0     H85232   6.758  11.438  11.759  0.3382  1.0933 -0.2509
  646MOL0     H85233   6.625  11.403  11.655 -0.3063  1.5072 -2.7443
  646MOL0     H85234   6.512  11.803  11.609  2.3983 -0.8889 -0.5659
  646MOL0     H85235   6.275  11.850  11.662 -2.1563  0.0500 -0.3018
  646MOL0     H85236   6.024  12.026  11.970 -2.6574  1.3087  2.8735
  646MOL0     H85237   5.796  12.093  12.023 -0.4859 -1.3870  2.0787
  646MOL0     H85238   5.466  11.793  11.966  0.0114  0.1274 -0.5063
  646MOL0     H85239   5.461  11.892  11.809 -1.4775  3.2833 -0.1896
  646MOL0     H85240   5.279  11.919  12.059 -1.1949  1.1619 -0.7328
  646MOL0     H85241   5.235  11.915  11.894 -3.1612 -0.4030  1.8600
  646MOL0     H85242   5.357  12.135  11.845 -3.6373  0.6409 -1.5704
  646MOL0     H85243   5.387  12.134  12.026 -1.3132  1.4760 -0.3460
  646MOL0     H85244   5.121  12.128  11.904 -1.2354  1.5643 -1.1318
  646MOL0     H85245   5.157  12.162  12.075 -0.3511 -0.3657  0.0713
  646MOL0     H85246   5.249  12.351  11.853  2.1872 -1.4359  1.8646
  646MOL0     H85247   5.243  12.380  12.026 -0.5257 -1.5505  1.9523
  646MOL0     H85248   5.072  12.490  11.907 -0.7562 -1.1870 -1.1035
  646MOL0     H85249   5.001  12.390  12.031 -2.0697 -1.4946 -1.9128
  646MOL0     H85250   4.993  12.301  11.753 -0.0443 -2.0250 -0.3828
  646MOL0     H85251   4.898  12.241  11.891  2.9759 -1.6576 -0.4761
  646MOL0     H85252   4.879  12.522  11.760 -3.3065  0.6201 -0.4135
  646MOL0     H85253   4.824  12.486  11.921  1.8551 -0.4686  0.3276
  646MOL0     H85254   5.635  11.767  11.801  1.0677  2.8509 -2.1039
  646MOL0     H85255   5.864  11.701  11.748  0.1017  0.8596 -1.4676
  646MOL0     H85256   6.254  11.482  11.859  0.2269  1.8196  3.8962
  646MOL0     H85257   6.495  11.431  11.826  0.4674  1.4144  2.0798
  646MOL0     H85258   8.146  10.969  10.647  4.9631 -1.5356  1.1877
  646MOL0     H85259   8.279  11.039  10.460  0.9016 -0.7293  1.4773
  646MOL0     H85260   8.523  11.504  10.397  4.3920 -1.6794 -1.9304
  646MOL0     H85261   8.605  11.684  10.254  1.2186 -1.0417  0.8115
  646MOL0     H85262   8.505  11.874  10.159 -3.9158  1.4377  0.4994
  646MOL0     H85263   8.385  11.847  10.046 -0.6529  2.4608  0.4374
  646MOL0     H85264   8.534  11.931   9.863 -2.9515  3.8026  0.1724
  646MOL0     H85265   8.485  12.050   9.972 -1.7209 -1.2282 -0.0009
  646MOL0     H85266   8.736  12.045   9.898 -0.4477  0.1246 -0.4444
  646MOL0     H85267   8.756  11.903  10.003  0.0844  0.1823 -1.4384
  646MOL0     H85268   8.678  12.006  10.205  0.9631 -1.9012 -1.2960
  646MOL0     H85269   8.820  12.074  10.146  0.4744 -0.3448  1.2618
  646MOL0     H85270   8.554  12.400  10.133  1.3897  0.8820 -0.6725
  646MOL0     H85271   8.380  11.549   9.933  1.2248  1.1702  0.2568
  646MOL0     H85272   8.334  11.339  10.059 -0.7310 -1.4749  3.2663
  647MOL0     O85273   6.621   9.453   9.643  0.2335 -0.2591 -0.2245
  647MOL0     C85274   6.581   9.500   9.751  0.4622  0.5614 -0.2852
  647MOL0     O85275   6.480   9.442   9.836  0.0409  0.1340 -0.3208
  647MOL0     C85276   6.433   9.317   9.808  0.0613  0.2144  0.3762
  647MOL0     C85277   6.306   9.292   9.857  0.3300 -0.6379  0.7450
  647MOL0     C85278   6.232   9.184   9.819 -0.9998  0.5696 -0.5381
  647MOL0     C85279   6.281   9.077   9.743  0.0001  0.1984  0.4715
  647MOL0     O85280   6.210   8.960   9.714  0.8555  0.3032 -0.0722
  647MOL0     C85281   6.221   8.914   9.585 -0.4787  1.1023  0.9368
  647MOL0     C85282   6.093   8.843   9.519 -0.1811 -0.1010 -0.4576
  647MOL0     C85283   5.960   8.909   9.546 -0.0470  0.2796 -0.5462
  647MOL0     C85284   5.884   8.848   9.665  1.0704  0.8372  0.5062
  647MOL0     C85285   5.794   8.727   9.626  0.6218 -0.2947  0.2201
  647MOL0     C85286   5.684   8.771   9.530  0.4242  0.3340  0.1180
  647MOL0     C85287   5.556   8.685   9.559 -0.2276  0.0890  1.1095
  647MOL0     C85288   5.462   8.678   9.439 -0.1280 -0.4215 -0.5822
  647MOL0     N85289   5.342   8.610   9.468  0.7546  0.5797  0.0112
  647MOL0     C85290   5.235   8.664   9.548  0.0504 -0.4559  0.3129
  647MOL0     C85291   5.127   8.595   9.496 -1.0506 -0.5700  0.0063
  647MOL0     C85292   4.988   8.613   9.547  0.0459 -0.2880 -0.4945
  647MOL0     C85293   4.985   8.614   9.706  0.3079  0.7156 -0.0873
  647MOL0     C85294   4.845   8.608   9.754  0.7114  0.1358 -0.1484
  647MOL0     C85295   4.785   8.469   9.774  0.3503  0.8085  0.4171
  647MOL0     O85296   4.656   8.470   9.840 -0.5300 -0.3539  0.5921
  647MOL0     C85297   4.593   8.351   9.873 -0.6599 -0.5273  0.7120
  647MOL0     C85298   4.472   8.360   9.940  0.5723  0.5836 -0.4879
  647MOL0     C85299   4.401   8.246   9.977  0.1230  0.7952 -1.5591
  647MOL0     C85300   4.452   8.118   9.951 -0.6386 -0.3702  0.5081
  647MOL0     C85301   4.384   7.987   9.999 -0.6829  0.7805  0.0148
  647MOL0     O85302   4.288   8.018  10.093  0.3648 -0.1875  0.3634
  647MOL0     C85303   4.195   7.932  10.136 -0.3093 -0.3760  0.7555
  647MOL0     C85304   4.132   7.829  10.062  0.5307  0.2076 -0.4547
  647MOL0     C85305   4.044   7.742  10.128 -0.0951 -0.6499 -0.1294
  647MOL0     C85306   3.994   7.769  10.256  0.0050 -0.5842  0.0826
  647MOL0     O85307   3.889   7.683  10.287  0.6909 -0.6972 -0.1348
  647MOL0     C85308   3.817   7.702  10.403  0.8463  0.0962 -0.2223
  647MOL0     C85309   3.769   7.573  10.467 -0.0544 -0.1872 -0.6965
  647MOL0     C85310   3.892   7.524  10.554  0.0523 -0.0059 -0.2787
  647MOL0     C85311   3.882   7.585  10.697 -0.1394 -0.1505  0.4837
  647MOL0     C85312   3.800   7.500  10.782  0.5356  0.8294  0.2241
  647MOL0     C85313   3.849   7.522  10.931 -0.0357 -0.6948  0.7380
  647MOL0     C85314   3.776   7.428  11.008 -0.3166  0.1024 -0.1105
  647MOL0     C85315   3.752   7.470  11.155 -0.5681  0.6431  0.0552
  647MOL0    Cl85316   3.654   7.352  11.240  0.2308  0.4216 -0.0659
  647MOL0     C85317   4.044   7.885  10.324  0.7835  0.2446  0.0483
  647MOL0     C85318   4.137   7.971  10.256 -0.4514  0.4421 -0.7599
  647MOL0     O85319   4.416   7.876   9.960  0.0450 -0.1694 -0.4925
  647MOL0     C85320   4.582   8.103   9.891 -0.8301  0.0554  0.8359
  647MOL0     C85321   4.657   8.221   9.865  0.3185  0.3921  0.3181
  647MOL0     N85322   5.166   8.504   9.403  1.4676  0.6187  0.6740
  647MOL0     N85323   5.282   8.531   9.372 -0.5045  1.2021 -0.2286
  647MOL0     C85324   6.418   9.095   9.707 -0.5887  0.2268  1.0057
  647MOL0     C85325   6.494   9.208   9.733 -0.2210 -0.4399  0.6716
  647MOL0     C85326   6.644   9.629   9.808  0.0407 -0.3321 -0.0912
  647MOL0     C85327   6.760   9.689   9.748 -0.3272  0.1482 -0.6348
  647MOL0     C85328   6.817   9.802   9.810  0.9976 -0.6685  0.2243
  647MOL0     C85329   6.761   9.854   9.925  0.3317  0.6963 -0.0527
  647MOL0     O85330   6.815   9.967   9.975  0.0333 -0.5350  0.3809
  647MOL0     C85331   6.770  10.009  10.105  0.0544  0.2080  0.2623
  647MOL0     C85332   6.857  10.124  10.142  1.0451 -0.8583  0.0487
  647MOL0     C85333   6.800  10.260  10.092  0.7185 -0.1145 -0.5065
  647MOL0     C85334   6.889  10.386  10.102  0.5629 -0.1058 -0.5725
  647MOL0     C85335   6.851  10.504  10.023 -0.7152  0.0019 -0.4227
  647MOL0     C85336   6.819  10.600   9.958  0.2888  1.5168  0.3525
  647MOL0     C85337   6.654   9.787   9.987  0.3585  0.1273  0.4019
  647MOL0     C85338   6.594   9.689   9.923  0.7171  0.5602  0.0439
  647MOL0     H85339   6.251   9.355   9.926 -3.5978 -3.3151  0.3798
  647MOL0     H85340   6.130   9.154   9.842 -1.1103  1.4289  0.1484
  647MOL0     H85341   6.295   8.834   9.586 -2.0016 -0.3614  0.9221
  647MOL0     H85342   6.251   9.002   9.527  2.5998 -1.4574 -1.6917
  647MOL0     H85343   6.086   8.739   9.552  1.3015  0.2997  1.3004
  647MOL0     H85344   6.099   8.848   9.410  0.9273 -0.5957 -0.4309
  647MOL0     H85345   5.901   8.883   9.457  1.5080 -3.4238 -0.6741
  647MOL0     H85346   5.963   9.017   9.567  2.5581 -0.0233  1.0391
  647MOL0     H85347   5.952   8.828   9.747  2.0852  6.7482  1.6005
  647MOL0     H85348   5.816   8.926   9.703 -0.1592  0.2345 -0.3678
  647MOL0     H85349   5.762   8.675   9.717 -2.3162  3.5388  1.6637
  647MOL0     H85350   5.851   8.648   9.577  3.1877  0.5847  1.6003
  647MOL0     H85351   5.725   8.752   9.431 -1.5049 -2.2884 -0.2801
  647MOL0     H85352   5.653   8.877   9.530 -0.9134  0.0462 -2.7446
  647MOL0     H85353   5.579   8.581   9.586 -4.2627 -0.5791  2.7288
  647MOL0     H85354   5.493   8.719   9.641 -3.3079 -3.0132  0.2581
  647MOL0     H85355   5.522   8.649   9.352  1.7943 -1.9541  1.1397
  647MOL0     H85356   5.434   8.783   9.430  1.1399 -0.0793 -0.7470
  647MOL0     H85357   5.235   8.744   9.621  0.8683  0.4255 -0.6283
  647MOL0     H85358   4.922   8.536   9.506 -2.1812 -0.4513  2.9015
  647MOL0     H85359   4.943   8.706   9.510  0.4751  2.0705  4.1088
  647MOL0     H85360   5.045   8.700   9.735  0.2281  0.3575  1.1937
  647MOL0     H85361   5.037   8.530   9.752 -1.8116 -0.7722 -0.2427
  647MOL0     H85362   4.827   8.657   9.850  2.0165  0.4296 -0.0401
  647MOL0     H85363   4.786   8.672   9.688 -2.4791 -2.2449  0.1488
  647MOL0     H85364   4.851   8.401   9.829  3.6780  2.0647 -1.7264
  647MOL0     H85365   4.778   8.423   9.675 -0.8950 -1.0260  1.2963
  647MOL0     H85366   4.418   8.454   9.947  1.6930  1.1469  1.3170
  647MOL0     H85367   4.295   8.256   9.999  0.5704 -0.7410  2.0477
  647MOL0     H85368   4.175   7.799   9.967  0.0228  1.4695 -1.0977
  647MOL0     H85369   4.008   7.657  10.071 -0.2201 -1.4558  1.1122
  647MOL0     H85370   3.728   7.762  10.384  0.6789 -0.6779 -2.0038
  647MOL0     H85371   3.860   7.774  10.474 -1.7487  2.8802 -1.2759
  647MOL0     H85372   3.747   7.506  10.383  0.2504 -1.5462  0.2673
  647MOL0     H85373   3.680   7.566  10.530  1.4843  1.6620  1.8541
  647MOL0     H85374   3.987   7.549  10.506  1.7032 -2.3160  1.5687
  647MOL0     H85375   3.890   7.415  10.564  0.7810  0.1124  1.5797
  647MOL0     H85376   3.981   7.608  10.738  0.6013  0.1379 -1.3427
  647MOL0     H85377   3.837   7.684  10.689  4.3243  2.0116 -2.4939
  647MOL0     H85378   3.809   7.398  10.745 -0.4341  1.2398 -1.2169
  647MOL0     H85379   3.695   7.530  10.776  0.2985  0.7054  2.7882
  647MOL0     H85380   3.830   7.627  10.959 -1.0014 -0.0956 -1.8477
  647MOL0     H85381   3.955   7.500  10.944 -0.2216 -2.9412 -1.0680
  647MOL0     H85382   3.675   7.424  10.965 -0.5606 -3.4509  0.4942
  647MOL0     H85383   3.817   7.328  10.993  1.1410  0.4105  1.5552
  647MOL0     H85384   3.710   7.570  11.159  2.2004  1.8564  2.3228
  647MOL0     H85385   3.853   7.481  11.197 -0.3924 -1.9285  0.5158
  647MOL0     H85386   4.009   7.918  10.422  0.4088  2.7176 -0.8454
  647MOL0     H85387   4.154   8.070  10.299 -1.3325  0.1184  0.4035
  647MOL0     H85388   4.618   8.002   9.871 -2.0636 -1.0811  3.7670
  647MOL0     H85389   4.756   8.209   9.820  0.0132 -1.8440  0.0977
  647MOL0     H85390   6.459   9.005   9.663 -1.9858 -0.9420  1.9860
  647MOL0     H85391   6.594   9.216   9.692 -0.4133  1.7249  0.4798
  647MOL0     H85392   6.808   9.654   9.658  3.6262 -0.3940  1.4454
  647MOL0     H85393   6.892   9.866   9.766 -0.7726  2.2829  1.2207
  647MOL0     H85394   6.779   9.925  10.175  0.4029 -0.3530 -0.4430
  647MOL0     H85395   6.664  10.038  10.104 -0.1878 -0.6526 -0.2471
  647MOL0     H85396   6.860  10.138  10.250  3.2062 -1.2403  0.0790
  647MOL0     H85397   6.962  10.101  10.125  0.4192 -1.8577 -3.0643
  647MOL0     H85398   6.704  10.280  10.140  0.1662 -0.3522 -1.4806
  647MOL0     H85399   6.780  10.239   9.987  0.7612  0.1331 -0.5650
  647MOL0     H85400   6.875  10.420  10.205 -2.4859  1.6550 -1.4420
  647MOL0     H85401   6.991  10.354  10.081 -0.2625 -3.2021 -0.3387
  647MOL0     H85402   6.771  10.665   9.887  0.7027  0.4402 -0.9531
  647MOL0     H85403   6.612   9.826  10.079 -0.8886 -1.0517  0.3520
  647MOL0     H85404   6.505   9.642   9.962 -0.2882  2.8594  0.6910
  648MOL0     O85405   5.782   0.788   5.269  0.3775 -0.1542 -0.5620
  648MOL0     C85406   5.764   0.759   5.151  0.4213 -0.2302  0.4858
  648MOL0     O85407   5.796   0.831   5.046  0.2704  0.0590 -0.6896
  648MOL0     C85408   5.882   0.941   5.051  0.6003  0.1237  0.1632
  648MOL0     C85409   5.876   1.043   5.155 -0.0642 -0.1769 -0.0637
  648MOL0     C85410   5.966   1.149   5.151  0.1821 -0.1056 -1.1327
  648MOL0     C85411   6.057   1.164   5.046  0.1450  0.6532 -0.5038
  648MOL0     O85412   6.152   1.269   5.037 -0.1705  1.1139  0.2770
  648MOL0     C85413   6.209   1.322   5.156 -0.3701  0.2862 -0.0127
  648MOL0     C85414   6.343   1.253   5.187 -0.4324  0.1725 -0.7298
  648MOL0     C85415   6.449   1.288   5.077 -0.1433 -0.9513  0.2986
  648MOL0     C85416   6.583   1.215   5.102  0.1645  0.2477  0.4316
  648MOL0     C85417   6.677   1.260   4.995  0.0706  0.7953  0.0559
  648MOL0     C85418   6.636   1.199   4.858 -1.1620 -0.1089 -2.3050
  648MOL0     C85419   6.748   1.214   4.751  0.3300  0.5346 -0.5777
  648MOL0     C85420   6.709   1.151   4.612  0.0625 -0.3238  0.5059
  648MOL0     N85421   6.742   1.004   4.608  0.3799  0.2900 -0.6690
  648MOL0     C85422   6.874   0.955   4.600  0.0761  0.4436 -0.8521
  648MOL0     C85423   6.859   0.819   4.582  0.1804  0.6984 -0.6887
  648MOL0     C85424   6.971   0.716   4.564  0.2603  0.4082 -0.1260
  648MOL0     C85425   7.096   0.749   4.646  0.5485  0.4221 -0.0668
  648MOL0     C85426   7.210   0.653   4.632 -0.2569 -0.2640  0.1941
  648MOL0     C85427   7.344   0.729   4.663  0.2592  0.8731  0.0242
  648MOL0     O85428   7.351   0.742   4.800  0.7669 -0.3082 -0.7459
  648MOL0     C85429   7.355   0.872   4.843  0.3164  0.1972 -0.4714
  648MOL0     C85430   7.248   0.933   4.897  0.2978  0.7536 -0.0225
  648MOL0     C85431   7.252   1.073   4.929  0.7864  0.5148  0.7814
  648MOL0     C85432   7.373   1.145   4.933  0.5043  0.3142  0.9158
  648MOL0     C85433   7.388   1.293   4.964  0.4381 -0.2771 -0.3412
  648MOL0     O85434   7.510   1.350   4.999  0.1539 -0.6032  0.5084
  648MOL0     C85435   7.597   1.299   5.084 -0.1767  0.6104 -0.6887
  648MOL0     C85436   7.575   1.239   5.208  0.4286 -0.6782  0.9720
  648MOL0     C85437   7.680   1.181   5.290 -0.5433 -0.5202  0.4931
  648MOL0     C85438   7.810   1.196   5.252 -0.8121 -0.1872 -0.4680
  648MOL0     O85439   7.913   1.145   5.330 -0.8460 -0.1881 -0.4890
  648MOL0     C85440   8.048   1.153   5.293 -0.1174 -0.0961 -0.3466
  648MOL0     C85441   8.126   1.070   5.400 -0.2889 -0.9598  0.4797
  648MOL0     C85442   8.268   1.039   5.356 -0.4385  0.0842 -0.4472
  648MOL0     C85443   8.338   0.935   5.446  0.1299  1.1995  0.3338
  648MOL0     C85444   8.490   0.915   5.403  0.0073  0.8569  0.5533
  648MOL0     C85445   8.536   0.774   5.436 -0.3025 -0.6182 -0.7916
  648MOL0     C85446   8.505   0.742   5.582  0.0377 -0.2495  0.1270
  648MOL0     C85447   8.577   0.616   5.621 -0.3928  0.0005 -0.4014
  648MOL0    Cl85448   8.508   0.486   5.528  0.2510  0.0739 -0.4165
  648MOL0     C85449   7.830   1.258   5.131 -0.1905 -1.1132 -1.5137
  648MOL0     C85450   7.727   1.307   5.047 -0.7125 -1.0870  0.5801
  648MOL0     O85451   7.278   1.347   4.980  0.8315 -0.8470 -0.6458
  648MOL0     C85452   7.480   1.075   4.879 -0.0768 -0.9618 -0.2066
  648MOL0     C85453   7.480   0.944   4.830 -0.1195 -0.2307  0.2835
  648MOL0     N85454   6.719   0.790   4.581 -0.7150  0.3468  0.7544
  648MOL0     N85455   6.655   0.902   4.609  0.9924  0.3187 -0.7116
  648MOL0     C85456   6.063   1.065   4.952  0.7619  0.4158  0.9075
  648MOL0     C85457   5.970   0.959   4.947 -0.3398  0.1116  0.0380
  648MOL0     C85458   5.696   0.631   5.127 -0.0559  0.8238 -0.1763
  648MOL0     C85459   5.674   0.543   5.236  0.1749 -0.4316  0.0314
  648MOL0     C85460   5.628   0.410   5.202  0.5696 -0.8527  1.3142
  648MOL0     C85461   5.602   0.369   5.071 -0.3317 -0.1961 -0.0712
  648MOL0     O85462   5.560   0.248   5.023 -0.2149  0.2041  0.1312
  648MOL0     C85463   5.470   0.187   5.113 -0.3670  0.1832 -0.7658
  648MOL0     C85464   5.530   0.066   5.184  0.1561 -0.4270 -0.4362
  648MOL0     C85465   5.585  -0.053   5.118  0.1041 -0.3985  0.1143
  648MOL0     C85466   5.733  -0.036   5.090  0.1890 -0.1190  0.0278
  648MOL0     C85467   5.799  -0.122   4.996 -0.3207 -0.0465 -1.3513
  648MOL0     C85468   5.845  -0.204   4.923 -1.0822 -0.6008  0.9592
  648MOL0     C85469   5.601   0.468   4.973  0.1179  0.9927 -0.5170
  648MOL0     C85470   5.647   0.595   4.997  0.0743  0.4764  0.8242
  648MOL0     H85471   5.811   1.026   5.240 -0.7082  1.9576 -0.0859
  648MOL0     H85472   5.947   1.220   5.230  0.3251 -0.5440 -0.6959
  648MOL0     H85473   6.134   1.311   5.235  1.3194  1.4525  1.8385
  648MOL0     H85474   6.225   1.430   5.146  2.2345 -0.2165 -2.4756
  648MOL0     H85475   6.319   1.146   5.184  0.8330 -0.3354  2.6310
  648MOL0     H85476   6.375   1.282   5.287 -0.1980 -4.8485  0.9133
  648MOL0     H85477   6.489   1.389   5.086  1.7546 -1.6301 -0.0250
  648MOL0     H85478   6.405   1.277   4.978 -2.9462  2.9176  0.8889
  648MOL0     H85479   6.626   1.233   5.201  0.6135 -2.4455  0.7905
  648MOL0     H85480   6.563   1.108   5.103 -1.3907  0.5104  1.1096
  648MOL0     H85481   6.781   1.234   5.018 -0.3611 -0.0660  1.1314
  648MOL0     H85482   6.671   1.369   4.981  1.1261  0.7972 -0.4743
  648MOL0     H85483   6.544   1.246   4.823 -2.4781 -1.8178 -1.3062
  648MOL0     H85484   6.625   1.094   4.885 -2.8040  0.7312  0.7302
  648MOL0     H85485   6.767   1.321   4.736 -0.7390  0.8307 -0.0107
  648MOL0     H85486   6.840   1.169   4.789  1.8785  1.7545 -2.6809
  648MOL0     H85487   6.757   1.203   4.528 -0.8030 -1.0652 -0.4693
  648MOL0     H85488   6.601   1.158   4.598  0.1714 -0.5328 -0.5041
  648MOL0     H85489   6.955   1.026   4.611  0.0226  0.3188  0.5327
  648MOL0     H85490   7.009   0.704   4.462 -0.2212  1.5180 -0.4421
  648MOL0     H85491   6.938   0.618   4.599  1.4021  1.3673  4.1286
  648MOL0     H85492   7.051   0.745   4.746 -0.6391  0.8140 -0.5583
  648MOL0     H85493   7.117   0.856   4.637 -0.6972  0.8747  1.7437
  648MOL0     H85494   7.197   0.559   4.687  2.6801 -1.2002 -0.5599
  648MOL0     H85495   7.225   0.639   4.525  1.7886  0.9046  0.2943
  648MOL0     H85496   7.338   0.829   4.618  3.8702  1.5184  0.7076
  648MOL0     H85497   7.430   0.677   4.620 -0.2860  0.6444 -0.8282
  648MOL0     H85498   7.161   0.877   4.930  2.0563 -0.9925  1.9809
  648MOL0     H85499   7.167   1.129   4.969 -0.1116 -1.6824  2.1195
  648MOL0     H85500   7.471   1.225   5.234  0.4920 -0.7329  1.2063
  648MOL0     H85501   7.656   1.144   5.389 -1.3960 -0.5233  0.2942
  648MOL0     H85502   8.086   1.251   5.262 -0.6392 -0.1895 -1.3020
  648MOL0     H85503   8.056   1.108   5.194 -2.7140 -1.4339 -0.0251
  648MOL0     H85504   8.073   0.975   5.402 -1.7855 -0.2424 -1.5404
  648MOL0     H85505   8.131   1.123   5.495  2.1722  1.9146 -1.0553
  648MOL0     H85506   8.334   1.125   5.371  1.9022 -1.9089  1.5139
  648MOL0     H85507   8.271   1.012   5.250  1.0087 -3.7196  0.3751
  648MOL0     H85508   8.333   0.958   5.553 -2.5214 -0.0995  0.5661
  648MOL0     H85509   8.281   0.842   5.440  0.0903  1.3046 -3.3965
  648MOL0     H85510   8.551   0.991   5.452  4.0369 -3.3857  2.9193
  648MOL0     H85511   8.509   0.937   5.297  0.2085  1.6623  0.7507
  648MOL0     H85512   8.645   0.776   5.426  0.0037  1.3842  1.8567
  648MOL0     H85513   8.499   0.697   5.368 -2.0077 -2.0830  1.6491
  648MOL0     H85514   8.520   0.822   5.655 -0.9777  2.3356 -2.3581
  648MOL0     H85515   8.401   0.714   5.601 -0.0027  0.9052  1.8742
  648MOL0     H85516   8.581   0.598   5.729  0.8369 -3.1371 -0.8550
  648MOL0     H85517   8.681   0.620   5.587 -0.8759 -0.4274 -2.0267
  648MOL0     H85518   7.933   1.278   5.102  0.1192 -2.4818 -1.4114
  648MOL0     H85519   7.763   1.373   4.969  2.3006 -1.6836  1.3005
  648MOL0     H85520   7.573   1.130   4.881 -0.6191 -0.0046  1.7444
  648MOL0     H85521   7.576   0.900   4.807  0.1142 -0.2088  1.1964
  648MOL0     H85522   6.141   1.081   4.878 -0.6866  0.5256 -0.6449
  648MOL0     H85523   5.957   0.884   4.870 -1.6117 -0.6528  0.9541
  648MOL0     H85524   5.684   0.588   5.334 -1.1958 -1.5830  0.7294
  648MOL0     H85525   5.612   0.335   5.279  3.5716 -2.6626  0.3507
  648MOL0     H85526   5.386   0.145   5.056  0.0231  1.3500 -2.2576
  648MOL0     H85527   5.431   0.253   5.191  1.1383 -0.8701  0.9586
  648MOL0     H85528   5.601   0.104   5.257  0.7318 -1.6404 -0.3437
  648MOL0     H85529   5.446   0.025   5.242 -0.0272  1.0697  0.4066
  648MOL0     H85530   5.529  -0.083   5.029 -0.1990 -0.5348  0.3490
  648MOL0     H85531   5.586  -0.131   5.195  0.7831  0.0651  0.5893
  648MOL0     H85532   5.738   0.063   5.043 -0.9178  0.1948  0.5170
  648MOL0     H85533   5.785  -0.040   5.186  0.4050  0.5918 -0.0557
  648MOL0     H85534   5.890  -0.280   4.863 -2.1821 -0.4280 -0.1459
  648MOL0     H85535   5.568   0.456   4.871 -0.0817  0.5501 -0.4035
  648MOL0     H85536   5.652   0.662   4.911 -1.1937  0.0065  0.3595
  649MOL0     O85537   3.708   3.333   5.731 -0.2486  0.9761  0.4376
  649MOL0     C85538   3.779   3.435   5.725  0.3684  0.7262  0.2368
  649MOL0     O85539   3.738   3.548   5.658  0.4315 -0.4034 -0.3342
  649MOL0     C85540   3.618   3.558   5.593 -0.3650  0.1295 -0.4568
  649MOL0     C85541   3.616   3.576   5.449 -0.6150 -0.2460 -0.2156
  649MOL0     C85542   3.500   3.582   5.378  0.2265 -0.5160 -0.2730
  649MOL0     C85543   3.379   3.568   5.445 -0.0953 -0.7658  0.3947
  649MOL0     O85544   3.249   3.574   5.391 -0.0620  0.1292  0.0220
  649MOL0     C85545   3.239   3.625   5.253  1.0897  0.8765  0.1980
  649MOL0     C85546   3.097   3.663   5.219 -0.3147  0.4253  0.2222
  649MOL0     C85547   3.071   3.807   5.274 -0.5022 -0.0176 -0.5392
  649MOL0     C85548   2.930   3.873   5.239 -0.4225  0.2971 -0.2205
  649MOL0     C85549   2.812   3.812   5.311  1.0990  0.1295  0.0945
  649MOL0     C85550   2.686   3.901   5.326  0.7654 -0.1812  0.1145
  649MOL0     C85551   2.568   3.812   5.380  0.3844 -0.2381 -1.2105
  649MOL0     C85552   2.531   3.702   5.268 -0.3682 -0.1372 -0.3244
  649MOL0     N85553   2.527   3.757   5.129  0.9306  0.7078  0.5054
  649MOL0     C85554   2.412   3.822   5.076 -0.4497  1.0156 -0.6275
  649MOL0     C85555   2.453   3.849   4.950  0.9826 -0.5085  0.8925
  649MOL0     C85556   2.380   3.934   4.849  0.4429  0.7735 -0.0410
  649MOL0     C85557   2.367   3.872   4.706 -0.1785  0.1478 -0.8955
  649MOL0     C85558   2.278   3.965   4.614 -0.7203 -0.6138  0.0487
  649MOL0     C85559   2.339   3.963   4.473  0.3255  0.1850 -0.0617
  649MOL0     O85560   2.346   3.839   4.402 -0.2160  0.4091  0.1877
  649MOL0     C85561   2.248   3.766   4.360  0.6438 -1.2159  0.0426
  649MOL0     C85562   2.274   3.647   4.291  0.3131  0.3555 -0.1616
  649MOL0     C85563   2.170   3.570   4.236  0.5214  0.1039 -0.4433
  649MOL0     C85564   2.035   3.618   4.237 -0.4657 -0.3392  0.9644
  649MOL0     C85565   1.941   3.525   4.173 -0.3692  0.3847 -0.4865
  649MOL0     O85566   1.976   3.387   4.171  1.3756 -0.0508 -0.0726
  649MOL0     C85567   1.864   3.297   4.165 -0.0892 -0.0248 -0.4948
  649MOL0     C85568   1.745   3.326   4.234 -0.7000  0.8737 -0.2126
  649MOL0     C85569   1.646   3.233   4.233  0.0355 -0.3590 -0.3808
  649MOL0     C85570   1.657   3.110   4.160  0.2468 -0.3334  0.1168
  649MOL0     O85571   1.551   3.036   4.161  0.8778 -0.4572  0.1571
  649MOL0     C85572   1.539   2.918   4.069 -0.7323  0.0850 -0.3069
  649MOL0     C85573   1.426   2.834   4.121  0.1397 -0.0137  0.0201
  649MOL0     C85574   1.450   2.687   4.099 -0.3737  0.2533  0.7468
  649MOL0     C85575   1.387   2.598   4.207  0.7211 -0.8145 -1.1234
  649MOL0     C85576   1.386   2.450   4.150 -1.5951  0.5980 -0.2273
  649MOL0     C85577   1.526   2.407   4.159 -0.7752 -0.1019  0.0042
  649MOL0     C85578   1.561   2.265   4.135 -0.6001 -0.1751 -0.9955
  649MOL0     C85579   1.700   2.226   4.182  0.3486  0.2985 -0.1349
  649MOL0    Cl85580   1.818   2.323   4.085  0.4805  0.3515 -0.0636
  649MOL0     C85581   1.781   3.081   4.109  0.8818  0.4646  0.3121
  649MOL0     C85582   1.887   3.168   4.114 -0.2328  0.3526  0.6381
  649MOL0     O85583   1.843   3.576   4.126  1.0676  1.0131  0.7401
  649MOL0     C85584   2.011   3.744   4.292 -0.1772 -0.4473 -0.3387
  649MOL0     C85585   2.112   3.822   4.355  0.0879 -0.0841 -1.7173
  649MOL0     N85586   2.577   3.789   4.921 -0.3674  0.1656  0.5182
  649MOL0     N85587   2.622   3.735   5.039  0.3548  0.0883 -0.2812
  649MOL0     C85588   3.381   3.545   5.586  0.7763 -0.0958  0.3715
  649MOL0     C85589   3.495   3.538   5.659 -0.5132 -0.9939  0.7945
  649MOL0     C85590   3.894   3.442   5.813  0.6336 -0.1429 -0.3831
  649MOL0     C85591   3.918   3.347   5.921 -0.1748 -0.0281 -0.2187
  649MOL0     C85592   4.035   3.356   6.000 -0.4670  1.1169  0.0746
  649MOL0     C85593   4.134   3.447   5.977 -0.1163 -0.4354 -0.7204
  649MOL0     O85594   4.249   3.455   6.047 -0.8703 -0.2375  0.0195
  649MOL0     C85595   4.274   3.379   6.169 -0.1659  1.4247  0.2278
  649MOL0     C85596   4.311   3.229   6.139 -0.0026  0.0324  0.0982
  649MOL0     C85597   4.448   3.199   6.080 -0.3279  0.2341 -0.5833
  649MOL0     C85598   4.514   3.293   5.979  0.0544  0.4315 -0.3303
  649MOL0     C85599   4.636   3.229   5.927  0.2626 -0.3986  0.3667
  649MOL0     C85600   4.726   3.152   5.895 -0.6695 -0.1517  0.0657
  649MOL0     C85601   4.106   3.548   5.880 -0.2897  0.4443  0.0194
  649MOL0     C85602   3.988   3.547   5.794  0.6632 -0.7916  0.1696
  649MOL0     H85603   3.712   3.580   5.398 -0.2763  1.8189  0.5213
  649MOL0     H85604   3.504   3.567   5.271  2.5905  1.4271 -0.5597
  649MOL0     H85605   3.267   3.539   5.192 -2.4269 -0.3870  0.1537
  649MOL0     H85606   3.309   3.708   5.240  0.6698  1.2735  0.4329
  649MOL0     H85607   3.026   3.583   5.246 -1.6604  1.2825 -0.6399
  649MOL0     H85608   3.099   3.667   5.109  0.5818 -0.7367  0.1827
  649MOL0     H85609   3.156   3.868   5.243 -0.4042 -0.6197 -1.5012
  649MOL0     H85610   3.092   3.802   5.382 -0.0289 -3.1834 -0.6885
  649MOL0     H85611   2.935   3.974   5.282 -0.6117  0.1899  0.0548
  649MOL0     H85612   2.916   3.884   5.131 -0.0144  0.8344 -0.2216
  649MOL0     H85613   2.845   3.779   5.410 -0.6543  1.3771  1.1559
  649MOL0     H85614   2.785   3.723   5.253 -1.3132 -0.5272  2.0387
  649MOL0     H85615   2.658   3.953   5.235  0.1934 -1.8293 -0.6858
  649MOL0     H85616   2.706   3.976   5.404  1.5211 -1.6210  1.3714
  649MOL0     H85617   2.594   3.759   5.472 -0.0284 -2.8452 -2.5176
  649MOL0     H85618   2.484   3.881   5.389  0.7726  0.2878 -1.4852
  649MOL0     H85619   2.434   3.666   5.303 -0.9855  1.6075 -0.1578
  649MOL0     H85620   2.603   3.620   5.265  3.1611  2.7287 -0.2490
  649MOL0     H85621   2.313   3.838   5.116 -0.2328  2.8662 -0.7548
  649MOL0     H85622   2.443   4.023   4.848  3.2628 -1.0973 -0.7699
  649MOL0     H85623   2.284   3.955   4.896  2.1529  1.9761  3.1784
  649MOL0     H85624   2.316   3.775   4.710 -1.5276  0.8321 -1.0451
  649MOL0     H85625   2.466   3.857   4.662  0.3407  0.6822  0.0663
  649MOL0     H85626   2.174   3.930   4.611 -0.3345 -1.7617 -0.4198
  649MOL0     H85627   2.284   4.065   4.657 -1.0987 -1.0453  1.1340
  649MOL0     H85628   2.445   3.985   4.489  1.0939 -2.5889 -0.8749
  649MOL0     H85629   2.283   4.036   4.413  2.9321  3.4088  1.0893
  649MOL0     H85630   2.376   3.609   4.295  0.1829 -1.2113 -5.1126
  649MOL0     H85631   2.199   3.473   4.198  1.5614  0.3348 -0.2762
  649MOL0     H85632   1.731   3.412   4.298  1.5509 -0.7808  2.7357
  649MOL0     H85633   1.550   3.264   4.272 -1.6359 -0.6806 -3.8476
  649MOL0     H85634   1.635   2.865   4.073 -0.4845  0.5659  0.0871
  649MOL0     H85635   1.529   2.950   3.965  1.7347 -0.2169 -0.6920
  649MOL0     H85636   1.336   2.879   4.078 -0.1069 -1.5022 -1.1160
  649MOL0     H85637   1.411   2.849   4.228  2.4435  0.9841  0.2369
  649MOL0     H85638   1.554   2.660   4.116 -0.7852 -2.1715 -0.1665
  649MOL0     H85639   1.414   2.668   3.997  2.4156  0.5122 -0.3614
  649MOL0     H85640   1.432   2.605   4.306 -3.9515 -1.5515  1.2933
  649MOL0     H85641   1.286   2.636   4.218  0.8611 -0.4151 -1.2124
  649MOL0     H85642   1.346   2.448   4.048 -1.1024 -3.2003 -0.4890
  649MOL0     H85643   1.316   2.402   4.219 -2.9081  0.2156 -1.7484
  649MOL0     H85644   1.563   2.439   4.258 -1.4129  1.6052 -0.2743
  649MOL0     H85645   1.589   2.462   4.088 -3.3611  0.1697 -2.2266
  649MOL0     H85646   1.478   2.207   4.178 -1.1652  1.5466  0.3322
  649MOL0     H85647   1.560   2.246   4.027  1.5736  3.7065 -1.8673
  649MOL0     H85648   1.713   2.118   4.172  0.3645  0.3143 -0.2780
  649MOL0     H85649   1.719   2.256   4.286  0.3799  1.7186 -0.5283
  649MOL0     H85650   1.806   2.988   4.058 -0.0601  0.3185  0.0985
  649MOL0     H85651   1.985   3.143   4.073  0.0397  1.0673  0.8356
  649MOL0     H85652   1.910   3.782   4.286 -0.0246 -0.2704 -2.2216
  649MOL0     H85653   2.092   3.910   4.414  0.4525 -2.5751  2.5906
  649MOL0     H85654   3.296   3.515   5.648  0.8726 -0.0175  0.5417
  649MOL0     H85655   3.503   3.516   5.765 -0.4612 -0.6173  0.8713
  649MOL0     H85656   3.860   3.259   5.946  0.2553 -0.0900  0.6194
  649MOL0     H85657   4.044   3.274   6.071  2.4960  1.2978  0.0510
  649MOL0     H85658   4.197   3.389   6.246 -3.3955 -1.2860 -2.3314
  649MOL0     H85659   4.363   3.424   6.215  1.0871 -2.8144  2.5052
  649MOL0     H85660   4.293   3.176   6.233  0.8410 -0.4629 -0.0137
  649MOL0     H85661   4.246   3.185   6.062  0.7648  1.5337 -1.4547
  649MOL0     H85662   4.435   3.106   6.025 -2.7043  2.0397 -3.4040
  649MOL0     H85663   4.506   3.184   6.171 -0.8772 -3.2888 -0.6948
  649MOL0     H85664   4.439   3.306   5.900 -1.3359 -2.0368  0.4643
  649MOL0     H85665   4.546   3.386   6.027  0.8204 -0.5320  1.0690
  649MOL0     H85666   4.782   3.067   5.861 -1.3758 -0.0472 -1.4487
  649MOL0     H85667   4.172   3.633   5.868  3.1477 -1.5937  2.4792
  649MOL0     H85668   3.977   3.632   5.727  4.1116  0.5131  1.0386
  650MOL0     O85669   6.848   0.721   0.164  0.2683  0.0093  0.5057
  650MOL0     C85670   6.763   0.655   0.216  0.4118  0.5029 -0.6183
  650MOL0     O85671   6.723   0.529   0.175  0.2677 -0.8393  0.7990
  650MOL0     C85672   6.786   0.469   0.067 -0.1652 -0.0579 -0.1851
  650MOL0     C85673   6.926   0.463   0.055  0.3886  0.1051 -0.8342
  650MOL0     C85674   6.985   0.398  -0.052  0.0984  0.3876 -0.7215
  650MOL0     C85675   6.910   0.339  -0.150 -0.1938 -0.4621 -0.3639
  650MOL0     O85676   6.956   0.280  -0.260 -0.7287 -0.6801  0.3514
  650MOL0     C85677   7.077   0.337  -0.317  0.8810 -1.2043 -0.3603
  650MOL0     C85678   7.190   0.244  -0.289 -0.7335 -0.8179 -0.2425
  650MOL0     C85679   7.276   0.245  -0.409 -0.2497  0.7831 -0.0000
  650MOL0     C85680   7.396   0.158  -0.363 -1.2227 -0.2132  0.1046
  650MOL0     C85681   7.497   0.130  -0.484 -0.0896 -0.4310 -0.2500
  650MOL0     C85682   7.583   0.254  -0.531 -0.6318  1.8894  0.1807
  650MOL0     C85683   7.683   0.297  -0.424  0.5815 -0.0677 -0.2044
  650MOL0     C85684   7.811   0.363  -0.490 -0.3178  0.3152 -1.9303
  650MOL0     N85685   7.780   0.481  -0.574 -0.2285 -0.3372 -0.0032
  650MOL0     C85686   7.800   0.495  -0.712  0.2025 -0.6248  0.2067
  650MOL0     C85687   7.744   0.621  -0.740  0.5315 -0.1314 -1.1404
  650MOL0     C85688   7.714   0.686  -0.875  0.8618  0.3596 -0.1217
  650MOL0     C85689   7.739   0.833  -0.878 -0.7446 -0.1551  0.1425
  650MOL0     C85690   7.889   0.871  -0.847 -0.4598 -0.5312 -0.8549
  650MOL0     C85691   7.904   1.020  -0.875 -0.4729 -0.6198 -0.1235
  650MOL0     O85692   7.913   1.032  -1.023 -1.1039  0.0795 -0.1420
  650MOL0     C85693   7.907   1.163  -1.084 -0.9993  0.8064  0.5589
  650MOL0     C85694   8.005   1.256  -1.064  0.0479  1.1170 -0.1946
  650MOL0     C85695   7.994   1.382  -1.120 -1.3324 -0.2541  0.2431
  650MOL0     C85696   7.894   1.412  -1.210 -1.1833 -0.0402  0.0103
  650MOL0     C85697   7.904   1.539  -1.289 -0.1678 -0.2961 -0.8844
  650MOL0     O85698   7.795   1.556  -1.370  0.3229 -0.0703  0.7219
  650MOL0     C85699   7.776   1.658  -1.452 -0.3708  0.3030  0.0846
  650MOL0     C85700   7.643   1.708  -1.459  0.3235  0.2313 -0.6312
  650MOL0     C85701   7.598   1.806  -1.551 -0.5167 -0.5691 -0.1686
  650MOL0     C85702   7.702   1.876  -1.620 -0.5807  0.3289 -0.1580
  650MOL0     O85703   7.678   1.962  -1.725 -0.1185  0.4265  0.3915
  650MOL0     C85704   7.784   2.061  -1.776  0.4089  0.4193  0.3156
  650MOL0     C85705   7.706   2.180  -1.833 -0.5007 -0.1718  0.8101
  650MOL0     C85706   7.794   2.301  -1.870 -0.5837 -0.2209 -0.0670
  650MOL0     C85707   7.701   2.407  -1.929 -0.5701  0.6966 -0.3481
  650MOL0     C85708   7.766   2.545  -1.949  0.3662  0.1163 -0.5648
  650MOL0     C85709   7.846   2.548  -2.072 -0.1191 -0.9781 -0.1320
  650MOL0     C85710   7.903   2.687  -2.090  0.0103  0.5744  0.1614
  650MOL0     C85711   7.809   2.776  -2.165  0.8096 -0.2867  0.5440
  650MOL0    Cl85712   7.886   2.929  -2.197  0.3288 -0.7936  0.1430
  650MOL0     C85713   7.839   1.829  -1.604 -0.2409  1.0567  0.6434
  650MOL0     C85714   7.874   1.718  -1.525  0.2331 -0.5388 -1.3615
  650MOL0     O85715   7.991   1.623  -1.268 -0.0616  0.5221  0.5007
  650MOL0     C85716   7.789   1.322  -1.217 -0.1952  0.5826  0.3065
  650MOL0     C85717   7.796   1.194  -1.161 -0.3822  1.0164  0.0451
  650MOL0     N85718   7.689   0.661  -0.614  0.4964 -0.3402 -1.4302
  650MOL0     N85719   7.706   0.579  -0.514 -0.1114  0.2431  0.5550
  650MOL0     C85720   6.771   0.352  -0.143  0.1686  0.9008  0.1636
  650MOL0     C85721   6.716   0.405  -0.025  0.7275  0.1926  0.5182
  650MOL0     C85722   6.690   0.715   0.337  0.9237 -0.5760  0.6181
  650MOL0     C85723   6.568   0.658   0.394 -0.3746  0.5467 -0.0269
  650MOL0     C85724   6.485   0.732   0.476  0.4929  0.4954  0.7318
  650MOL0     C85725   6.527   0.862   0.526  0.3020  0.0454 -0.0621
  650MOL0     O85726   6.452   0.929   0.609  0.2312  0.0998 -0.2791
  650MOL0     C85727   6.466   0.880   0.744  0.4322  0.0163  0.7722
  650MOL0     C85728   6.351   0.791   0.795 -0.2696  0.3714 -0.9546
  650MOL0     C85729   6.209   0.849   0.768  0.4648 -0.1929  0.3777
  650MOL0     C85730   6.096   0.751   0.809  0.5857  0.4983  0.7195
  650MOL0     C85731   5.969   0.816   0.768  0.8592  0.3694 -0.8686
  650MOL0     C85732   5.860   0.874   0.742  0.5287  0.1837  0.0724
  650MOL0     C85733   6.640   0.919   0.470  0.0554  0.0663 -0.4326
  650MOL0     C85734   6.722   0.847   0.382  0.9652  0.1356  0.1229
  650MOL0     H85735   6.975   0.502   0.143  1.0312 -0.9961 -0.6835
  650MOL0     H85736   7.092   0.399  -0.071  0.2310  0.1013 -0.0096
  650MOL0     H85737   7.101   0.437  -0.279 -0.1572 -1.4559  1.0051
  650MOL0     H85738   7.063   0.351  -0.424 -0.1785 -1.3413 -0.2455
  650MOL0     H85739   7.148   0.148  -0.257  0.4890 -0.5051  2.5436
  650MOL0     H85740   7.247   0.276  -0.202  0.0005  0.6591 -1.2046
  650MOL0     H85741   7.314   0.341  -0.444 -1.2311  0.8646 -0.8891
  650MOL0     H85742   7.228   0.209  -0.500  1.5130  1.0816 -1.0810
  650MOL0     H85743   7.447   0.216  -0.285 -0.4605 -2.8556  1.6878
  650MOL0     H85744   7.363   0.064  -0.318  3.1007 -1.4331  1.2279
  650MOL0     H85745   7.437   0.091  -0.567 -1.4310  0.0933  0.4574
  650MOL0     H85746   7.559   0.043  -0.458 -0.5810 -0.5348  0.6066
  650MOL0     H85747   7.514   0.336  -0.554 -2.1733 -0.0308 -2.8233
  650MOL0     H85748   7.644   0.242  -0.621  0.7368  3.3893  0.8641
  650MOL0     H85749   7.637   0.376  -0.364  2.0601  1.5750 -1.1259
  650MOL0     H85750   7.689   0.207  -0.362  0.5398  0.6228  0.8173
  650MOL0     H85751   7.863   0.292  -0.555 -0.2941 -0.8469 -0.6933
  650MOL0     H85752   7.875   0.386  -0.405 -2.7594 -3.4672  1.2929
  650MOL0     H85753   7.850   0.419  -0.772  1.1649  1.5318 -1.8986
  650MOL0     H85754   7.610   0.674  -0.908  0.8805  2.2974 -1.0031
  650MOL0     H85755   7.772   0.627  -0.947  0.8225 -0.8443  0.7949
  650MOL0     H85756   7.686   0.902  -0.812 -1.1901  1.4112 -1.7902
  650MOL0     H85757   7.713   0.869  -0.977 -2.7262  2.2384  1.4345
  650MOL0     H85758   7.893   0.848  -0.740 -2.2551  3.3690  0.2111
  650MOL0     H85759   7.963   0.806  -0.895  1.1289  0.4313  0.1971
  650MOL0     H85760   7.983   1.064  -0.814 -2.5229 -0.3611  2.5045
  650MOL0     H85761   7.820   1.084  -0.847 -1.1376 -2.2933  1.9112
  650MOL0     H85762   8.085   1.233  -0.994  1.1496  0.3469 -1.6384
  650MOL0     H85763   8.068   1.460  -1.106 -1.8910  0.6283 -1.4069
  650MOL0     H85764   7.579   1.655  -1.389  1.3419 -0.6596 -0.3342
  650MOL0     H85765   7.497   1.846  -1.557  0.5475  2.2712 -0.9101
  650MOL0     H85766   7.845   2.013  -1.853 -0.0055  0.9477 -0.3429
  650MOL0     H85767   7.834   2.117  -1.696 -1.3715  3.2019 -0.3981
  650MOL0     H85768   7.629   2.207  -1.760 -1.2796  1.2363 -0.4759
  650MOL0     H85769   7.653   2.139  -1.919 -1.2064 -0.0181  1.1656
  650MOL0     H85770   7.861   2.263  -1.947 -1.1972  2.8634 -2.3147
  650MOL0     H85771   7.832   2.333  -1.773 -3.2656 -1.3564  1.4885
  650MOL0     H85772   7.658   2.371  -2.023 -1.9163 -1.5623  1.0380
  650MOL0     H85773   7.615   2.420  -1.862 -2.5542  0.3013 -2.6622
  650MOL0     H85774   7.825   2.581  -1.864  1.6411  2.5018 -2.3207
  650MOL0     H85775   7.681   2.613  -1.949 -0.5059 -0.8602  2.3362
  650MOL0     H85776   7.799   2.526  -2.168 -0.6588  1.0945 -0.3994
  650MOL0     H85777   7.936   2.490  -2.052  2.1627  2.3771  0.0743
  650MOL0     H85778   7.929   2.723  -1.990  0.7094 -0.3105  0.3152
  650MOL0     H85779   7.997   2.679  -2.146 -0.9182  0.9705 -1.5199
  650MOL0     H85780   7.725   2.798  -2.097 -1.1755  4.2377 -2.8188
  650MOL0     H85781   7.771   2.733  -2.258  1.2252  0.2635  0.1154
  650MOL0     H85782   7.929   1.873  -1.646  0.4650  0.1049  1.1116
  650MOL0     H85783   7.975   1.686  -1.505  0.0945  0.9684  2.7227
  650MOL0     H85784   7.711   1.345  -1.289  1.4055  1.6797 -1.1448
  650MOL0     H85785   7.715   1.124  -1.175 -1.8902  2.8265 -0.6624
  650MOL0     H85786   6.706   0.313  -0.221  0.1067  1.3992 -0.0360
  650MOL0     H85787   6.607   0.405  -0.022  0.6069  2.7424 -0.6183
  650MOL0     H85788   6.541   0.553   0.380  1.2632 -0.1373  1.6958
  650MOL0     H85789   6.394   0.681   0.506  1.6231 -1.3851  1.1229
  650MOL0     H85790   6.471   0.968   0.809 -0.1742 -1.1469  2.4722
  650MOL0     H85791   6.556   0.821   0.762 -0.0436 -0.4873  1.5270
  650MOL0     H85792   6.355   0.693   0.747 -2.1033  1.2826 -3.1245
  650MOL0     H85793   6.342   0.786   0.904  0.0344  1.4579 -0.8675
  650MOL0     H85794   6.193   0.854   0.660 -2.1134 -2.1721  0.5676
  650MOL0     H85795   6.192   0.950   0.808  1.0962 -0.8171  2.3126
  650MOL0     H85796   6.117   0.652   0.770  1.5860  0.3379  1.5914
  650MOL0     H85797   6.085   0.738   0.917  3.8226 -2.1041  0.8976
  650MOL0     H85798   5.774   0.923   0.703 -2.7902 -3.5157  1.9812
  650MOL0     H85799   6.668   1.021   0.495 -3.1615  0.9397  0.0626
  650MOL0     H85800   6.812   0.896   0.347  0.1548  2.7382  1.4186
  651MOL0     O85801   0.713   8.697   9.136 -0.7460 -0.7701  0.0043
  651MOL0     C85802   0.721   8.664   9.257 -0.5953  0.8003 -0.7264
  651MOL0     O85803   0.748   8.756   9.365  0.2487 -0.1721  0.1967
  651MOL0     C85804   0.714   8.888   9.355 -0.2048 -0.3698  0.5208
  651MOL0     C85805   0.634   8.960   9.257 -0.2807 -0.6034  0.3949
  651MOL0     C85806   0.638   9.101   9.243 -0.1331 -0.8340  0.2022
  651MOL0     C85807   0.700   9.183   9.328  0.3650 -0.1194 -0.0614
  651MOL0     O85808   0.695   9.319   9.323  0.3738 -0.9012  0.1758
  651MOL0     C85809   0.569   9.378   9.280 -0.2888 -0.4010  0.2511
  651MOL0     C85810   0.579   9.524   9.300 -0.2540  0.2326 -0.1011
  651MOL0     C85811   0.446   9.592   9.241  0.1313  1.0647  0.0309
  651MOL0     C85812   0.465   9.748   9.211  0.0998  0.4724 -0.1986
  651MOL0     C85813   0.330   9.835   9.179 -0.3485 -0.2997  0.2347
  651MOL0     C85814   0.225   9.858   9.284 -0.1513  0.2823  0.5784
  651MOL0     C85815   0.080   9.873   9.213 -0.0830  0.1711 -0.3500
  651MOL0     C85816   0.031  10.014   9.171  0.5620 -1.4510  0.1467
  651MOL0     N85817  -0.022  10.108   9.274  0.1707  0.1954 -0.0761
  651MOL0     C85818  -0.103  10.081   9.383 -0.2805  1.3989  0.9292
  651MOL0     C85819  -0.144  10.196   9.425  1.4547 -0.7978  0.2643
  651MOL0     C85820  -0.243  10.218   9.537  0.0047  0.3116 -0.5166
  651MOL0     C85821  -0.388  10.214   9.484  1.2406  0.4174 -0.8712
  651MOL0     C85822  -0.480  10.250   9.605  0.6168  0.7612 -0.7086
  651MOL0     C85823  -0.631  10.251   9.589  0.5589 -1.1221 -0.4718
  651MOL0     O85824  -0.709  10.296   9.709  0.6295  0.0681  0.7967
  651MOL0     C85825  -0.737  10.433   9.744 -0.2499 -0.9252  0.6729
  651MOL0     C85826  -0.792  10.530   9.663  1.0870 -0.0734 -0.1011
  651MOL0     C85827  -0.813  10.661   9.693 -0.3297 -1.4746 -0.1832
  651MOL0     C85828  -0.779  10.702   9.821 -0.7823 -0.4432  0.4214
  651MOL0     C85829  -0.786  10.839   9.854  0.2486  1.0718 -0.3623
  651MOL0     O85830  -0.775  10.933   9.758 -0.6677 -0.5972 -0.8239
  651MOL0     C85831  -0.829  11.051   9.801 -1.1600  0.5681 -0.4844
  651MOL0     C85832  -0.732  11.147   9.805 -0.3245  0.0639  0.9183
  651MOL0     C85833  -0.756  11.269   9.860 -0.4963 -0.5985  0.6057
  651MOL0     C85834  -0.891  11.310   9.890  0.0355 -0.7171 -0.1599
  651MOL0     O85835  -0.923  11.446   9.921 -0.0756 -0.7631 -0.1580
  651MOL0     C85836  -0.830  11.555   9.910 -0.2776  0.1072  0.0888
  651MOL0     C85837  -0.901  11.686   9.893 -0.3679  0.3979  0.2381
  651MOL0     C85838  -0.809  11.805   9.908  0.0185 -0.0288 -0.3556
  651MOL0     C85839  -0.890  11.936   9.924 -0.2621 -0.5081  0.6891
  651MOL0     C85840  -0.797  12.047   9.861  0.5088  0.5706  1.4398
  651MOL0     C85841  -0.868  12.174   9.844  0.0589 -0.5366  0.1203
  651MOL0     C85842  -0.788  12.271   9.750 -0.1487 -0.0830 -0.6992
  651MOL0     C85843  -0.844  12.412   9.719 -0.2268 -0.5300  0.8130
  651MOL0    Cl85844  -0.835  12.528   9.862 -0.0230  0.0822 -0.3621
  651MOL0     C85845  -0.992  11.209   9.864 -0.1237 -1.6924 -0.5381
  651MOL0     C85846  -0.959  11.090   9.825 -0.0511  0.2179 -0.4730
  651MOL0     O85847  -0.809  10.850   9.976  0.5005  0.3360  0.4656
  651MOL0     C85848  -0.735  10.599   9.918 -0.0266 -0.1643 -0.2170
  651MOL0     C85849  -0.707  10.469   9.873 -0.0503 -0.1583 -0.0459
  651MOL0     N85850  -0.079  10.294   9.356  0.0195 -0.1243  0.2362
  651MOL0     N85851   0.002  10.240   9.274 -0.3329  0.4691 -0.6477
  651MOL0     C85852   0.782   9.116   9.428 -0.2011  0.1907  1.0538
  651MOL0     C85853   0.790   8.973   9.441 -0.2818  0.0602  0.3268
  651MOL0     C85854   0.712   8.518   9.293 -0.4350  0.0717  0.2883
  651MOL0     C85855   0.738   8.475   9.420  1.1958 -0.1475 -0.0135
  651MOL0     C85856   0.753   8.338   9.452  0.2927 -0.1523 -0.6518
  651MOL0     C85857   0.732   8.232   9.367  0.3967 -0.2086 -0.5460
  651MOL0     O85858   0.758   8.105   9.411  1.3897 -0.0851  0.0295
  651MOL0     C85859   0.811   8.011   9.322  0.0625  0.9050  0.6646
  651MOL0     C85860   0.931   7.944   9.389 -0.4485  0.4737 -0.2608
  651MOL0     C85861   0.903   7.864   9.517  0.4535 -0.1484 -0.4390
  651MOL0     C85862   1.032   7.846   9.612  0.1987 -0.4000  0.0859
  651MOL0     C85863   1.131   7.761   9.557  0.6677  0.3114  0.2238
  651MOL0     C85864   1.204   7.671   9.526 -0.7492 -0.4020 -0.1523
  651MOL0     C85865   0.689   8.269   9.237  0.9321  0.1217  0.7960
  651MOL0     C85866   0.691   8.410   9.197  0.3420 -0.1051 -0.1484
  651MOL0     H85867   0.576   8.902   9.185 -0.1975 -0.4961  0.2388
  651MOL0     H85868   0.582   9.134   9.156  0.4386 -0.8810 -0.1861
  651MOL0     H85869   0.482   9.325   9.320 -3.9602  1.9171 -3.7976
  651MOL0     H85870   0.566   9.371   9.171 -0.1010  1.4224  0.1071
  651MOL0     H85871   0.659   9.561   9.236 -0.6798  2.0835  0.3774
  651MOL0     H85872   0.601   9.555   9.403 -0.1506 -2.7631  0.8626
  651MOL0     H85873   0.359   9.574   9.305  1.4486  0.4651  1.7198
  651MOL0     H85874   0.428   9.548   9.142 -1.9923  1.1448  0.3453
  651MOL0     H85875   0.513   9.780   9.304 -1.5624 -2.6128  1.9096
  651MOL0     H85876   0.543   9.754   9.134  0.2513  0.7667 -0.0266
  651MOL0     H85877   0.287   9.765   9.106  1.0941 -0.0939 -0.8661
  651MOL0     H85878   0.359   9.924   9.123  0.1918 -0.8979 -0.4554
  651MOL0     H85879   0.238   9.940   9.355 -1.7688  2.7872 -1.8316
  651MOL0     H85880   0.227   9.760   9.333  0.1657 -1.6187 -2.8923
  651MOL0     H85881   0.067   9.814   9.122 -2.3634  1.6307 -1.0589
  651MOL0     H85882   0.010   9.840   9.290  2.0057  0.7110  1.9108
  651MOL0     H85883  -0.056  10.009   9.104  0.8631  1.3258 -0.5763
  651MOL0     H85884   0.111  10.069   9.121  0.6215  0.0717  1.8239
  651MOL0     H85885  -0.120   9.983   9.426 -0.4137  0.3784 -1.3017
  651MOL0     H85886  -0.230  10.312   9.590  0.7218 -0.8469  1.4760
  651MOL0     H85887  -0.229  10.138   9.611 -0.1857  2.7809  2.3410
  651MOL0     H85888  -0.408  10.110   9.455  4.0787 -0.1781 -0.9977
  651MOL0     H85889  -0.393  10.266   9.388  1.6500 -0.9509 -1.6598
  651MOL0     H85890  -0.454  10.179   9.684  1.5158  2.0301  0.1816
  651MOL0     H85891  -0.458  10.348   9.648 -1.5731  0.8650  0.2821
  651MOL0     H85892  -0.675  10.160   9.548 -1.2560 -0.4066 -0.1866
  651MOL0     H85893  -0.646  10.321   9.506  2.8937 -1.5529 -1.3430
  651MOL0     H85894  -0.820  10.504   9.561 -1.1426  0.8177  0.2168
  651MOL0     H85895  -0.833  10.736   9.616 -0.5677  0.5604  1.7585
  651MOL0     H85896  -0.629  11.117   9.789 -0.7052 -0.8009 -0.0085
  651MOL0     H85897  -0.673  11.323   9.902 -1.5884 -1.6659  4.5993
  651MOL0     H85898  -0.752  11.552   9.833  1.2691  0.1632  1.5943
  651MOL0     H85899  -0.781  11.568  10.006  3.3526 -0.3058 -1.5374
  651MOL0     H85900  -0.980  11.696   9.968 -0.5164  4.3280 -0.2179
  651MOL0     H85901  -0.953  11.693   9.797 -0.0230  0.3678  0.0475
  651MOL0     H85902  -0.744  11.813   9.820  0.0008  1.5926 -0.2581
  651MOL0     H85903  -0.749  11.796   9.998  0.2594  2.8402 -0.1236
  651MOL0     H85904  -0.986  11.938   9.872 -0.0217 -0.4268  0.2404
  651MOL0     H85905  -0.916  11.950  10.029  0.3012  0.5773  0.7019
  651MOL0     H85906  -0.762  12.014   9.763  0.9569 -0.7552  2.0355
  651MOL0     H85907  -0.707  12.048   9.921  2.7935 -1.2068 -1.6553
  651MOL0     H85908  -0.889  12.191   9.950 -1.6189 -0.5663 -0.1813
  651MOL0     H85909  -0.963  12.151   9.797 -1.0368 -1.0878  2.4574
  651MOL0     H85910  -0.689  12.292   9.791 -0.1582 -0.4347 -0.4950
  651MOL0     H85911  -0.766  12.224   9.654 -3.3162 -1.0275 -1.0822
  651MOL0     H85912  -0.950  12.398   9.696 -1.2812 -2.0051  5.4733
  651MOL0     H85913  -0.803  12.456   9.628 -3.9608 -1.9442 -1.8071
  651MOL0     H85914  -1.094  11.232   9.893 -0.8241 -0.6699 -3.4090
  651MOL0     H85915  -1.032  11.012   9.806 -1.7244  1.5662  0.1427
  651MOL0     H85916  -0.717  10.623  10.022  2.0238  1.8150 -0.9410
  651MOL0     H85917  -0.655  10.401   9.940  0.6068  3.0218  2.9382
  651MOL0     H85918   0.860   9.170   9.481 -0.7875  0.3178  1.8170
  651MOL0     H85919   0.863   8.956   9.518 -1.3391 -0.6038  1.2162
  651MOL0     H85920   0.738   8.553   9.496 -1.7670  1.5300 -1.5900
  651MOL0     H85921   0.804   8.314   9.545  0.4304 -1.6864 -1.0877
  651MOL0     H85922   0.836   8.054   9.225  1.0853 -2.1148 -0.5004
  651MOL0     H85923   0.736   7.936   9.295 -1.8521  2.9778 -0.1442
  651MOL0     H85924   0.988   7.875   9.326  0.2666 -0.5676  1.4684
  651MOL0     H85925   1.008   8.018   9.410 -1.8718  1.7075  0.7801
  651MOL0     H85926   0.851   7.771   9.494 -0.6847  1.1047 -3.4904
  651MOL0     H85927   0.827   7.923   9.570 -1.1337 -3.0405  0.7058
  651MOL0     H85928   1.081   7.943   9.626  2.1416 -1.3354  0.1501
  651MOL0     H85929   0.997   7.794   9.702  2.4952 -4.2757 -1.0298
  651MOL0     H85930   1.277   7.596   9.502 -1.1933 -1.5924  1.9314
  651MOL0     H85931   0.671   8.195   9.161  3.4513 -2.4846  2.5259
  651MOL0     H85932   0.669   8.436   9.094 -0.5376  1.2564  0.3522
  652MOL0     O85933   1.550   1.789   6.636 -0.1192  0.6419  0.0208
  652MOL0     C85934   1.518   1.737   6.530 -1.1682 -0.8334 -0.0030
  652MOL0     O85935   1.612   1.703   6.428  0.0554  0.2194 -0.0997
  652MOL0     C85936   1.740   1.733   6.453  0.1907 -0.5621  0.0249
  652MOL0     C85937   1.787   1.863   6.432  0.5646 -0.1221  0.8838
  652MOL0     C85938   1.915   1.898   6.437 -0.7198  0.6964 -0.2810
  652MOL0     C85939   2.008   1.799   6.482  0.4420  0.6462  0.6561
  652MOL0     O85940   2.139   1.840   6.499 -0.0682 -0.9614 -1.2061
  652MOL0     C85941   2.211   1.867   6.383 -0.4589 -1.0108  0.7835
  652MOL0     C85942   2.297   1.747   6.351  0.3437 -0.5439  0.3685
  652MOL0     C85943   2.420   1.735   6.437 -0.2754 -0.1918  0.0138
  652MOL0     C85944   2.408   1.727   6.590 -1.0818  0.5760  0.2457
  652MOL0     C85945   2.544   1.733   6.655  0.8753 -0.2880  0.0039
  652MOL0     C85946   2.529   1.751   6.805 -0.0532  0.5874  0.0805
  652MOL0     C85947   2.666   1.774   6.856  0.1756 -1.1336 -0.0740
  652MOL0     C85948   2.647   1.791   7.008 -0.5069  0.9133 -0.3899
  652MOL0     N85949   2.568   1.912   7.043  0.5980  0.7793  1.2545
  652MOL0     C85950   2.635   2.032   7.028  0.0339  0.1692  1.1058
  652MOL0     C85951   2.553   2.116   7.095  0.2837  0.4082 -0.0562
  652MOL0     C85952   2.577   2.261   7.092 -0.5898 -0.5503  0.1670
  652MOL0     C85953   2.673   2.300   7.200 -1.3603  0.4876 -0.1075
  652MOL0     C85954   2.664   2.448   7.242  0.5151 -0.9942 -0.1856
  652MOL0     C85955   2.757   2.486   7.362  0.0368  0.1728 -0.5781
  652MOL0     O85956   2.778   2.384   7.464 -0.2343 -0.3509 -0.2351
  652MOL0     C85957   2.854   2.424   7.573  0.1941 -0.5000  1.0422
  652MOL0     C85958   2.923   2.321   7.633 -0.4286 -0.4460  0.2245
  652MOL0     C85959   3.011   2.355   7.738 -0.0458 -0.3446  0.6259
  652MOL0     C85960   3.050   2.485   7.765  0.5550 -0.3819  0.3470
  652MOL0     C85961   3.160   2.523   7.856  0.4949  0.2360  0.1757
  652MOL0     O85962   3.206   2.437   7.945 -0.2060 -0.7850 -0.1610
  652MOL0     C85963   3.301   2.475   8.036 -0.6146 -0.8786 -0.6855
  652MOL0     C85964   3.305   2.606   8.102 -0.0624  0.5880  0.0987
  652MOL0     C85965   3.405   2.624   8.193  0.4529  0.1063 -0.0937
  652MOL0     C85966   3.502   2.533   8.221  0.7380 -0.1632 -0.0459
  652MOL0     O85967   3.595   2.574   8.310 -0.8280  0.0074  0.1602
  652MOL0     C85968   3.702   2.480   8.343 -0.0491 -0.8315  0.4141
  652MOL0     C85969   3.808   2.560   8.425 -0.8559 -0.4515 -1.0585
  652MOL0     C85970   3.790   2.578   8.580  0.6752  0.6584  0.0740
  652MOL0     C85971   3.796   2.448   8.660 -0.7560 -0.2643 -0.2084
  652MOL0     C85972   3.928   2.365   8.653 -0.6107 -1.0126  0.2392
  652MOL0     C85973   4.063   2.416   8.711  0.2181  1.1642 -0.6151
  652MOL0     C85974   4.109   2.547   8.658 -0.3656 -0.9262  0.6361
  652MOL0     C85975   4.263   2.576   8.682  0.0623 -1.1944  0.1949
  652MOL0    Cl85976   4.318   2.730   8.613 -0.3107 -0.3421 -0.0896
  652MOL0     C85977   3.498   2.408   8.154  0.5310 -0.4770  0.9264
  652MOL0     C85978   3.402   2.381   8.056  0.4465 -0.0510 -1.1305
  652MOL0     O85979   3.223   2.624   7.818  0.1987 -0.0447 -1.4760
  652MOL0     C85980   2.982   2.584   7.701  0.4197 -0.2417  0.3629
  652MOL0     C85981   2.884   2.561   7.607 -0.5022  0.6780  0.2437
  652MOL0     N85982   2.440   2.053   7.142 -0.0046 -0.1211 -1.3582
  652MOL0     N85983   2.451   1.927   7.117  0.3292  0.3854  0.8380
  652MOL0     C85984   1.962   1.670   6.504 -0.2107  0.8356 -0.9741
  652MOL0     C85985   1.824   1.640   6.489 -0.2702  0.2108  0.0230
  652MOL0     C85986   1.372   1.705   6.520 -0.4623 -0.0395 -0.0509
  652MOL0     C85987   1.282   1.737   6.626 -0.3652  0.4486  0.2531
  652MOL0     C85988   1.149   1.723   6.612  0.4699 -0.5882 -0.7263
  652MOL0     C85989   1.094   1.650   6.510 -0.2045 -0.2642  1.6488
  652MOL0     O85990   0.960   1.625   6.525 -0.5914  0.1818 -0.0091
  652MOL0     C85991   0.887   1.556   6.430  0.6689 -0.3874 -0.2306
  652MOL0     C85992   0.805   1.647   6.336  0.1665 -0.1592 -0.1084
  652MOL0     C85993   0.884   1.723   6.231  0.2059  0.7202 -0.8059
  652MOL0     C85994   0.955   1.859   6.276  0.5479  0.0443  0.1832
  652MOL0     C85995   1.082   1.880   6.202  0.1585  0.5124  0.2541
  652MOL0     C85996   1.177   1.894   6.136 -0.1989  1.4839 -0.1804
  652MOL0     C85997   1.180   1.620   6.398  0.1959  0.7159 -0.1431
  652MOL0     C85998   1.317   1.643   6.402  0.5944  0.1761 -0.0817
  652MOL0     H85999   1.722   1.931   6.378  1.7877  0.9736  0.7300
  652MOL0     H86000   1.940   2.002   6.420  0.6462  0.1800 -1.6292
  652MOL0     H86001   2.275   1.953   6.402 -1.2743 -0.5201  1.3820
  652MOL0     H86002   2.149   1.896   6.297  1.1143  0.7780  0.1871
  652MOL0     H86003   2.314   1.743   6.243 -3.1008 -0.7541 -0.2823
  652MOL0     H86004   2.244   1.651   6.359 -0.8515 -0.0108 -0.8543
  652MOL0     H86005   2.469   1.832   6.426 -0.9620  0.9730  4.8668
  652MOL0     H86006   2.483   1.650   6.407  0.5877  0.8167 -1.1160
  652MOL0     H86007   2.351   1.817   6.613 -1.1127  0.6526 -0.1263
  652MOL0     H86008   2.346   1.640   6.616 -1.3084 -0.0707 -2.2165
  652MOL0     H86009   2.592   1.814   6.600  0.8257 -1.0225 -1.1630
  652MOL0     H86010   2.598   1.641   6.631  1.8204  0.5922 -1.4355
  652MOL0     H86011   2.479   1.665   6.851  0.6073  0.2929  0.2773
  652MOL0     H86012   2.467   1.839   6.824 -1.4986 -0.5813  1.0121
  652MOL0     H86013   2.717   1.685   6.819 -1.0942 -1.8288 -0.2277
  652MOL0     H86014   2.712   1.857   6.800  2.0089 -1.7767  0.4096
  652MOL0     H86015   2.745   1.805   7.055 -1.0497 -0.3810  1.1927
  652MOL0     H86016   2.599   1.706   7.056  1.9852  0.4132  1.4299
  652MOL0     H86017   2.731   2.064   6.989 -1.0892  0.9407 -1.1955
  652MOL0     H86018   2.485   2.319   7.101 -0.7745 -0.5702 -1.3415
  652MOL0     H86019   2.629   2.282   6.998  3.0685 -0.5246  1.9903
  652MOL0     H86020   2.770   2.280   7.155 -2.1118 -1.6828 -0.9054
  652MOL0     H86021   2.657   2.227   7.280  1.4464  0.5318  0.5724
  652MOL0     H86022   2.693   2.506   7.154  2.5641 -0.1675  0.9543
  652MOL0     H86023   2.563   2.487   7.259  1.2244 -0.0571  2.2191
  652MOL0     H86024   2.714   2.579   7.399 -1.2328  1.1014 -3.9364
  652MOL0     H86025   2.860   2.509   7.333  0.3872 -0.4773  0.1348
  652MOL0     H86026   2.907   2.218   7.605 -0.0761  0.3525 -3.3183
  652MOL0     H86027   3.070   2.280   7.790 -2.2847 -3.4278 -0.9883
  652MOL0     H86028   3.229   2.684   8.098  0.0844  0.9210  2.5063
  652MOL0     H86029   3.399   2.722   8.240 -1.5103 -0.1888  0.3619
  652MOL0     H86030   3.751   2.440   8.254  2.2494  2.5171 -0.0065
  652MOL0     H86031   3.685   2.402   8.418  0.7021 -3.0889 -1.6237
  652MOL0     H86032   3.804   2.660   8.380  0.4562 -0.8108 -2.0538
  652MOL0     H86033   3.902   2.513   8.395  0.4083  1.3717 -0.1372
  652MOL0     H86034   3.697   2.635   8.588  2.1094  2.8344  3.5163
  652MOL0     H86035   3.866   2.649   8.612  1.5665 -0.2108 -0.0687
  652MOL0     H86036   3.768   2.474   8.763  1.3070  0.8627  0.1183
  652MOL0     H86037   3.714   2.380   8.635 -0.9503  0.5797 -1.9645
  652MOL0     H86038   3.940   2.337   8.548 -1.1441 -2.7334  0.6101
  652MOL0     H86039   3.908   2.272   8.706 -0.7111 -0.7242  0.7088
  652MOL0     H86040   4.136   2.340   8.683 -1.0984  0.1597 -1.4253
  652MOL0     H86041   4.062   2.422   8.820 -2.9869  0.0102 -0.4962
  652MOL0     H86042   4.099   2.553   8.549  3.6527 -2.3581  0.0269
  652MOL0     H86043   4.053   2.630   8.701  0.1604  0.0374 -0.4815
  652MOL0     H86044   4.322   2.490   8.647 -2.7499 -3.2436  0.1207
  652MOL0     H86045   4.283   2.584   8.789  0.7165 -1.9058  0.1369
  652MOL0     H86046   3.580   2.341   8.176  4.0809  2.8098 -0.9771
  652MOL0     H86047   3.404   2.292   7.995  3.8302 -1.7917  1.2470
  652MOL0     H86048   3.001   2.689   7.721 -0.4772  0.8659 -3.5875
  652MOL0     H86049   2.838   2.640   7.548  0.4189  0.4532 -0.8081
  652MOL0     H86050   2.033   1.600   6.547 -0.2514  0.6010 -1.2875
  652MOL0     H86051   1.794   1.539   6.515 -0.0499 -0.1500 -1.0895
  652MOL0     H86052   1.322   1.778   6.718 -0.4312  2.6202 -0.6115
  652MOL0     H86053   1.085   1.742   6.698  2.2643  2.2993  0.1029
  652MOL0     H86054   0.816   1.498   6.490  0.6780  0.4160  0.5918
  652MOL0     H86055   0.951   1.485   6.378  0.0177 -1.6267  0.6015
  652MOL0     H86056   0.748   1.578   6.273  0.1078 -1.8959  1.7609
  652MOL0     H86057   0.738   1.705   6.399 -1.4391 -2.3279  0.2588
  652MOL0     H86058   0.830   1.745   6.139 -0.5592 -0.9257 -0.7783
  652MOL0     H86059   0.959   1.653   6.194 -0.1683 -0.8458  1.2586
  652MOL0     H86060   0.876   1.934   6.262 -4.0538 -4.2583  0.1623
  652MOL0     H86061   0.968   1.854   6.384 -1.1804  0.8199  0.4559
  652MOL0     H86062   1.255   1.914   6.064 -2.1817  1.0089 -2.6146
  652MOL0     H86063   1.152   1.562   6.311  0.6715 -0.0456  0.1975
  652MOL0     H86064   1.375   1.619   6.314 -1.5411 -1.1942 -1.1946
  653MOL0     O86065   3.283  10.159   6.771  0.1888 -0.3218  0.2351
  653MOL0     C86066   3.269  10.239   6.672 -0.7910  0.6054  0.0005
  653MOL0     O86067   3.353  10.344   6.633  0.1958  0.4435 -0.1594
  653MOL0     C86068   3.469  10.349   6.715  0.3911  0.4872  0.5722
  653MOL0     C86069   3.577  10.284   6.669 -0.2843 -0.2446 -0.1450
  653MOL0     C86070   3.680  10.263   6.771 -0.2055  0.1527  0.1021
  653MOL0     C86071   3.675  10.315   6.899 -0.1152  0.6298  0.4289
  653MOL0     O86072   3.771  10.285   6.995  0.3799 -0.4785  0.1687
  653MOL0     C86073   3.777  10.384   7.106 -1.2918  0.5696 -0.5436
  653MOL0     C86074   3.917  10.386   7.177 -1.1851  0.2705  0.8101
  653MOL0     C86075   3.992  10.520   7.141  0.6060 -0.3163 -0.2188
  653MOL0     C86076   4.140  10.533   7.182 -0.2239  0.8863 -0.7160
  653MOL0     C86077   4.217  10.657   7.122 -0.1854 -0.4723 -0.3950
  653MOL0     C86078   4.235  10.646   6.975  0.4967 -0.0050 -0.2938
  653MOL0     C86079   4.336  10.756   6.928  0.4265  0.3990  0.0524
  653MOL0     C86080   4.305  10.797   6.778  0.2576 -0.2209 -0.1710
  653MOL0     N86081   4.375  10.712   6.684  0.2819 -0.2003 -0.1378
  653MOL0     C86082   4.323  10.591   6.646 -0.4759  0.5223  1.1818
  653MOL0     C86083   4.423  10.543   6.569 -0.3308 -0.1459  0.4302
  653MOL0     C86084   4.406  10.417   6.483  0.1968 -0.4157  0.0889
  653MOL0     C86085   4.486  10.419   6.360 -0.8851  0.4547 -0.2130
  653MOL0     C86086   4.461  10.304   6.262  0.0134  0.5084  1.1256
  653MOL0     C86087   4.463  10.166   6.312 -1.0789  0.8391  0.7429
  653MOL0     O86088   4.448  10.066   6.208 -0.0482  0.0553  0.6587
  653MOL0     C86089   4.429   9.936   6.230  0.0791  0.0345 -0.7953
  653MOL0     C86090   4.413   9.878   6.348 -0.3336  0.0794 -0.1161
  653MOL0     C86091   4.395   9.732   6.352 -0.3143  0.6137 -0.2238
  653MOL0     C86092   4.402   9.652   6.238  0.3420  0.4238 -0.9220
  653MOL0     C86093   4.383   9.506   6.253 -0.3062  0.5549 -0.7495
  653MOL0     O86094   4.353   9.461   6.384  0.8945 -0.4213 -0.7054
  653MOL0     C86095   4.346   9.327   6.414  0.1555  0.0403 -0.0648
  653MOL0     C86096   4.427   9.225   6.351  0.4888 -0.6586 -0.5497
  653MOL0     C86097   4.426   9.095   6.393  0.1464 -0.1724 -0.2475
  653MOL0     C86098   4.331   9.053   6.485  0.6186 -0.1267  0.1839
  653MOL0     O86099   4.328   8.925   6.527 -0.3314  0.0755 -0.6996
  653MOL0     C86100   4.242   8.882   6.635 -0.2280  0.4711 -0.5114
  653MOL0     C86101   4.274   8.741   6.680  0.8799  0.0878  0.4445
  653MOL0     C86102   4.417   8.719   6.724  0.5381  0.1220 -0.3806
  653MOL0     C86103   4.441   8.569   6.767 -0.7363 -1.0921  0.0026
  653MOL0     C86104   4.570   8.545   6.848 -0.1496  0.3225  0.7907
  653MOL0     C86105   4.605   8.393   6.844  0.7152 -0.2200 -0.1143
  653MOL0     C86106   4.704   8.361   6.951  0.0731  0.5640 -0.1513
  653MOL0     C86107   4.726   8.213   6.956  0.1429  0.4320 -0.0416
  653MOL0    Cl86108   4.820   8.190   7.109  0.4311 -0.7582 -0.3694
  653MOL0     C86109   4.261   9.155   6.554  0.4320 -0.4029 -0.0468
  653MOL0     C86110   4.265   9.288   6.518 -0.5272  0.0746 -0.8475
  653MOL0     O86111   4.396   9.436   6.155 -0.3836 -0.0524  0.4931
  653MOL0     C86112   4.412   9.719   6.116  0.3532  0.5405  0.0092
  653MOL0     C86113   4.426   9.856   6.114 -0.5148  0.4005 -0.6454
  653MOL0     N86114   4.527  10.634   6.562  0.4604 -0.1210 -0.6277
  653MOL0     N86115   4.494  10.738   6.626 -0.0825 -1.1967  1.0893
  653MOL0     C86116   3.553  10.380   6.938 -0.9499  0.3394  0.0059
  653MOL0     C86117   3.454  10.396   6.848 -0.3454 -0.5498  0.4376
  653MOL0     C86118   3.149  10.228   6.599  0.3575 -0.2864  1.0762
  653MOL0     C86119   3.039  10.167   6.663  0.8116  0.0970 -0.3465
  653MOL0     C86120   2.910  10.194   6.613 -0.3507 -0.1769  0.3906
  653MOL0     C86121   2.891  10.264   6.493 -0.4562  0.8722 -0.9238
  653MOL0     O86122   2.753  10.276   6.449 -0.1466 -0.6516  0.2327
  653MOL0     C86123   2.732  10.360   6.328  1.0855 -0.2050  0.2628
  653MOL0     C86124   2.754  10.507   6.375  0.2765  0.7526  0.6335
  653MOL0     C86125   2.730  10.607   6.256 -0.0190 -0.7136 -0.2847
  653MOL0     C86126   2.844  10.707   6.243 -0.6515  0.1777  0.1146
  653MOL0     C86127   2.966  10.630   6.211  1.0194 -0.1135 -0.3704
  653MOL0     C86128   3.077  10.578   6.180 -0.4674 -0.1222 -0.1597
  653MOL0     C86129   3.011  10.294   6.421 -0.1553  0.3310  0.2285
  653MOL0     C86130   3.140  10.281   6.469  0.1112  0.4668 -0.8430
  653MOL0     H86131   3.588  10.246   6.568  3.0690 -2.0649  0.7640
  653MOL0     H86132   3.765  10.197   6.755  0.4763  0.4183  2.3565
  653MOL0     H86133   3.707  10.365   7.188 -2.0582  0.2742 -1.2483
  653MOL0     H86134   3.753  10.480   7.059  0.2045  1.3143  0.1365
  653MOL0     H86135   3.983  10.307   7.138  2.5277  2.5178  2.0618
  653MOL0     H86136   3.908  10.388   7.286  1.3620  0.2805  1.0917
  653MOL0     H86137   3.937  10.606   7.181  2.0122 -0.3092  1.8942
  653MOL0     H86138   3.982  10.531   7.033 -1.2744  2.3392  0.1342
  653MOL0     H86139   4.144  10.533   7.292  1.3745  0.6443 -0.7517
  653MOL0     H86140   4.198  10.447   7.149 -0.7647 -0.3222  1.3249
  653MOL0     H86141   4.317  10.658   7.167 -0.4997 -2.8757  0.5458
  653MOL0     H86142   4.166  10.749   7.153 -1.1014 -1.7643  2.3143
  653MOL0     H86143   4.130  10.654   6.944 -1.0045 -2.0621  3.5819
  653MOL0     H86144   4.269  10.548   6.941 -2.2149 -1.3737  0.6757
  653MOL0     H86145   4.324  10.849   6.986  0.6236  0.5674 -0.1739
  653MOL0     H86146   4.444  10.735   6.933  0.3390 -0.6236 -1.5194
  653MOL0     H86147   4.357  10.891   6.760 -2.1683  1.0976 -0.7798
  653MOL0     H86148   4.197  10.813   6.768  0.7755  4.1732 -0.3816
  653MOL0     H86149   4.223  10.553   6.661 -1.5389  0.8130 -3.7305
  653MOL0     H86150   4.303  10.421   6.446  0.2232 -0.7563 -0.0247
  653MOL0     H86151   4.424  10.321   6.532 -1.6077 -2.2802 -2.6288
  653MOL0     H86152   4.592  10.411   6.386 -0.5962 -1.1146 -1.7051
  653MOL0     H86153   4.463  10.516   6.313 -0.6499  1.4869  1.7079
  653MOL0     H86154   4.370  10.331   6.207 -0.2386 -0.2092  1.1790
  653MOL0     H86155   4.542  10.308   6.189 -2.0716  1.1645 -1.2644
  653MOL0     H86156   4.387  10.151   6.390  0.6357  2.7333  2.9454
  653MOL0     H86157   4.556  10.154   6.369 -1.2327 -1.6560  0.5427
  653MOL0     H86158   4.415   9.912   6.451 -1.5717 -1.1268  0.3386
  653MOL0     H86159   4.385   9.684   6.449 -2.2200  1.1117 -0.1333
  653MOL0     H86160   4.501   9.251   6.275  0.6431  0.2984 -0.0803
  653MOL0     H86161   4.492   9.017   6.356  0.0515  0.8849 -2.8044
  653MOL0     H86162   4.138   8.902   6.610 -0.3196  0.7965  0.1160
  653MOL0     H86163   4.270   8.950   6.715 -3.7921  1.1403  0.3302
  653MOL0     H86164   4.246   8.680   6.593  1.0120  0.7458 -0.0708
  653MOL0     H86165   4.214   8.710   6.766 -0.4685  2.4344  0.4257
  653MOL0     H86166   4.445   8.785   6.807 -2.1204  1.3437 -0.3719
  653MOL0     H86167   4.488   8.739   6.643  0.3276 -0.0392 -0.6041
  653MOL0     H86168   4.355   8.541   6.828  0.9249  0.4054  3.2911
  653MOL0     H86169   4.440   8.516   6.671  0.9573  3.3684 -2.8182
  653MOL0     H86170   4.554   8.576   6.951  0.0178  1.6301  0.4396
  653MOL0     H86171   4.652   8.605   6.806 -1.9906  1.6826 -1.0333
  653MOL0     H86172   4.634   8.349   6.748 -3.0094 -0.4102 -1.3292
  653MOL0     H86173   4.514   8.334   6.863  3.0630 -4.4476 -0.7545
  653MOL0     H86174   4.799   8.412   6.933 -0.9659  1.5628 -3.6022
  653MOL0     H86175   4.660   8.381   7.050 -0.8527 -1.7997 -0.0337
  653MOL0     H86176   4.783   8.188   6.866  0.0344  0.0955 -0.0188
  653MOL0     H86177   4.637   8.151   6.967 -0.3384  0.7973 -1.6074
  653MOL0     H86178   4.200   9.121   6.638  0.7975 -2.2051 -0.4505
  653MOL0     H86179   4.218   9.372   6.569  3.3725  1.8380  0.2062
  653MOL0     H86180   4.417   9.656   6.028 -2.5157  0.6564 -0.3411
  653MOL0     H86181   4.440   9.905   6.018 -0.1381  1.3829 -0.1117
  653MOL0     H86182   3.513  10.394   7.038 -0.8042 -1.9118  0.4345
  653MOL0     H86183   3.355  10.417   6.887  0.6529  3.1983  1.4657
  653MOL0     H86184   3.035  10.114   6.757 -0.7567  0.4943 -0.1592
  653MOL0     H86185   2.831  10.169   6.683  1.8444 -0.6177  2.8532
  653MOL0     H86186   2.630  10.342   6.293 -0.2738 -0.7739  4.0660
  653MOL0     H86187   2.788  10.333   6.238  1.6850 -0.4014  0.6942
  653MOL0     H86188   2.683  10.525   6.456  1.4896  5.3700  0.9729
  653MOL0     H86189   2.855  10.521   6.417  1.6052 -1.0442 -1.7118
  653MOL0     H86190   2.632  10.653   6.270 -0.8938 -2.7925  0.6638
  653MOL0     H86191   2.733  10.557   6.159  3.1246 -0.8994 -0.2080
  653MOL0     H86192   2.824  10.775   6.159  3.4508  0.5694 -0.7531
  653MOL0     H86193   2.863  10.768   6.332 -0.8503 -1.4027  1.2798
  653MOL0     H86194   3.177  10.570   6.141 -0.8760 -1.1174 -1.0536
  653MOL0     H86195   2.996  10.318   6.316 -1.2840  0.3323  0.3752
  653MOL0     H86196   3.226  10.311   6.410 -0.7434  1.6972 -1.5026
  654MOL0     O86197   4.805   1.377   3.974 -0.2797 -0.3756 -0.2692
  654MOL0     C86198   4.848   1.299   4.059 -0.6431  0.1253  0.9945
  654MOL0     O86199   4.805   1.174   4.080  0.0272  0.2858 -0.7262
  654MOL0     C86200   4.720   1.098   4.000 -0.9419  0.3378  0.6231
  654MOL0     C86201   4.621   1.152   3.911  0.2128 -0.2863  0.0530
  654MOL0     C86202   4.550   1.069   3.818 -1.1353  0.3810 -0.5843
  654MOL0     C86203   4.587   0.935   3.809  0.2468 -1.0290 -0.3391
  654MOL0     O86204   4.525   0.861   3.712  0.5206  0.3861 -0.6168
  654MOL0     C86205   4.500   0.717   3.740 -0.1131  0.3917 -0.3058
  654MOL0     C86206   4.399   0.698   3.857  0.6670  0.8908 -0.0469
  654MOL0     C86207   4.282   0.789   3.874  0.1845 -0.3156 -0.8712
  654MOL0     C86208   4.184   0.785   3.755 -0.7307 -0.0233  0.2987
  654MOL0     C86209   4.072   0.875   3.788 -0.3914 -0.0743 -0.5456
  654MOL0     C86210   3.967   0.902   3.693  0.4169  0.6560 -0.1099
  654MOL0     C86211   4.017   0.961   3.561 -0.2275  0.4173  0.6999
  654MOL0     C86212   3.886   0.998   3.486 -0.0033 -0.5798 -0.1354
  654MOL0     N86213   3.908   1.045   3.352 -0.1585 -0.4887 -0.4993
  654MOL0     C86214   3.915   1.175   3.307 -0.1296 -0.3317 -0.1316
  654MOL0     C86215   3.932   1.169   3.170 -0.2290 -0.4740 -0.7323
  654MOL0     C86216   3.920   1.290   3.084  0.1535  0.4846  0.0226
  654MOL0     C86217   3.770   1.329   3.052 -0.0374  0.3600  0.0473
  654MOL0     C86218   3.772   1.470   2.996  0.4055  0.1433 -0.1529
  654MOL0     C86219   3.634   1.530   2.945 -0.6989 -0.7152  0.3135
  654MOL0     O86220   3.600   1.459   2.823  0.4680 -0.3806  0.0844
  654MOL0     C86221   3.474   1.499   2.799 -0.5269 -0.1281 -0.8008
  654MOL0     C86222   3.359   1.432   2.844  0.2203 -0.3282 -1.1356
  654MOL0     C86223   3.234   1.488   2.840  0.3633  0.5974 -0.9561
  654MOL0     C86224   3.215   1.608   2.771 -0.3005  0.0882 -0.6347
  654MOL0     C86225   3.085   1.667   2.764 -0.0768  0.0697 -0.8655
  654MOL0     O86226   2.979   1.613   2.828 -0.8077  0.4858 -0.0592
  654MOL0     C86227   2.863   1.672   2.787  0.1873 -0.3502  0.4400
  654MOL0     C86228   2.811   1.790   2.846  0.1227  1.2051 -0.5724
  654MOL0     C86229   2.700   1.846   2.805 -0.5007 -0.3789 -1.0203
  654MOL0     C86230   2.633   1.796   2.694 -0.4182 -0.1272  0.2307
  654MOL0     O86231   2.534   1.877   2.656 -0.7697  0.3822  0.0416
  654MOL0     C86232   2.493   1.864   2.515  0.3651  0.8701 -0.0823
  654MOL0     C86233   2.402   1.984   2.480  0.6075  0.6892 -0.8000
  654MOL0     C86234   2.293   1.935   2.395 -0.0026  0.5178  0.5989
  654MOL0     C86235   2.352   1.898   2.255  0.7710 -0.3127 -0.0010
  654MOL0     C86236   2.268   1.798   2.185  0.7655 -0.1448 -0.6282
  654MOL0     C86237   2.281   1.767   2.032 -0.0916 -0.5441 -0.3824
  654MOL0     C86238   2.414   1.708   1.998  0.2563 -0.5691  0.5802
  654MOL0     C86239   2.428   1.699   1.842  0.0552  0.1832  0.4370
  654MOL0    Cl86240   2.604   1.687   1.820  0.2638 -0.1632  0.5693
  654MOL0     C86241   2.685   1.686   2.628  0.2236  1.2378  0.0018
  654MOL0     C86242   2.800   1.620   2.674  0.0931 -0.2075  0.2609
  654MOL0     O86243   3.084   1.772   2.704  0.2764  0.8387  0.0330
  654MOL0     C86244   3.331   1.671   2.711 -0.3104 -0.1559 -0.1685
  654MOL0     C86245   3.456   1.621   2.732 -0.2501 -1.4573  0.5213
  654MOL0     N86246   3.931   1.044   3.131 -0.2990  0.0704  0.3801
  654MOL0     N86247   3.926   0.971   3.236 -0.1598  0.0868  0.6090
  654MOL0     C86248   4.693   0.887   3.891  0.6145 -1.1901 -0.0394
  654MOL0     C86249   4.755   0.969   3.991 -0.8318  1.0176 -0.0577
  654MOL0     C86250   4.960   1.351   4.142  0.5232  0.3974  0.3094
  654MOL0     C86251   5.015   1.480   4.123  0.8540 -0.0933 -0.4427
  654MOL0     C86252   5.088   1.540   4.223  0.3422  1.3376 -2.0829
  654MOL0     C86253   5.131   1.466   4.340  0.9889  0.2402 -0.7379
  654MOL0     O86254   5.202   1.530   4.441  0.0132  0.2567 -0.1170
  654MOL0     C86255   5.346   1.521   4.421  0.5118  0.1841 -0.3630
  654MOL0     C86256   5.424   1.468   4.541  0.5758 -0.9949  0.2998
  654MOL0     C86257   5.504   1.577   4.613 -0.1512  0.1182 -0.0165
  654MOL0     C86258   5.408   1.679   4.684  0.7295  0.3083 -0.1050
  654MOL0     C86259   5.374   1.646   4.823 -0.7531  0.1089  0.0651
  654MOL0     C86260   5.339   1.622   4.940  0.3164  0.9380  0.5800
  654MOL0     C86261   5.086   1.333   4.355  0.8335 -0.3192  0.2305
  654MOL0     C86262   5.001   1.274   4.257 -0.5716  0.0478  0.3904
  654MOL0     H86263   4.597   1.258   3.914  1.8319  0.3130 -3.4366
  654MOL0     H86264   4.483   1.095   3.737 -2.2767 -3.3080 -1.0067
  654MOL0     H86265   4.594   0.663   3.753 -0.6453 -0.8284 -1.3297
  654MOL0     H86266   4.448   0.677   3.652 -0.6816 -0.6816  0.4941
  654MOL0     H86267   4.460   0.712   3.946  0.6952  1.7160 -0.1927
  654MOL0     H86268   4.356   0.597   3.862 -3.7768  2.2528 -3.5717
  654MOL0     H86269   4.308   0.894   3.890 -1.8487  0.7326 -3.6084
  654MOL0     H86270   4.232   0.746   3.961  1.1693  0.6441  0.2035
  654MOL0     H86271   4.244   0.820   3.670 -1.6990 -0.8168 -0.7383
  654MOL0     H86272   4.156   0.684   3.724  0.6178 -0.7007  1.2207
  654MOL0     H86273   4.129   0.966   3.810  0.8156 -1.4167  2.5904
  654MOL0     H86274   4.025   0.837   3.880 -0.5273 -2.0186 -1.3760
  654MOL0     H86275   3.893   0.964   3.745  1.5323 -1.2239  4.1253
  654MOL0     H86276   3.916   0.808   3.673 -1.2196  1.1464  1.4839
  654MOL0     H86277   4.086   1.045   3.567  0.0783  0.4073 -1.5548
  654MOL0     H86278   4.076   0.879   3.519  1.0037  0.2468  2.6538
  654MOL0     H86279   3.841   1.085   3.536  2.0681  0.1427  0.5577
  654MOL0     H86280   3.810   0.919   3.488 -1.3802  0.5815 -2.3155
  654MOL0     H86281   3.911   1.271   3.357 -0.6287 -0.1976 -0.4139
  654MOL0     H86282   3.981   1.288   2.993  0.3623  1.8915  0.1154
  654MOL0     H86283   3.958   1.375   3.141 -0.6744  0.0251  1.3014
  654MOL0     H86284   3.704   1.329   3.140 -0.2167  4.3627  0.0639
  654MOL0     H86285   3.714   1.267   2.981 -1.6848 -0.8990  2.3084
  654MOL0     H86286   3.803   1.539   3.075 -1.4765  1.4378 -0.4696
  654MOL0     H86287   3.848   1.475   2.918 -1.4805 -2.2716 -2.3488
  654MOL0     H86288   3.657   1.634   2.919  1.2555 -0.1512  3.6207
  654MOL0     H86289   3.561   1.522   3.026 -0.4199  3.2621  1.1926
  654MOL0     H86290   3.382   1.339   2.896 -1.7626  1.2191  2.9136
  654MOL0     H86291   3.160   1.416   2.875  3.3738 -0.6716  3.6498
  654MOL0     H86292   2.852   1.835   2.936 -3.2778 -0.9819  2.2964
  654MOL0     H86293   2.687   1.941   2.856 -1.2777 -0.0440 -1.8189
  654MOL0     H86294   2.434   1.773   2.508 -1.1310  1.6521  1.5952
  654MOL0     H86295   2.580   1.865   2.449  0.5377 -0.6044  0.0956
  654MOL0     H86296   2.453   2.064   2.425  0.3982  0.3266 -1.5306
  654MOL0     H86297   2.360   2.017   2.576 -1.7400  1.5507 -2.0498
  654MOL0     H86298   2.220   2.014   2.377  1.1464  1.7166  1.0607
  654MOL0     H86299   2.236   1.853   2.440  0.2162  0.4693  0.7902
  654MOL0     H86300   2.364   1.987   2.193 -2.5753 -0.0302 -0.4062
  654MOL0     H86301   2.449   1.849   2.264  0.2604 -1.3662 -0.1098
  654MOL0     H86302   2.162   1.826   2.189  1.4677  2.9043 -0.8649
  654MOL0     H86303   2.278   1.698   2.228 -0.6431 -0.2725 -0.5406
  654MOL0     H86304   2.268   1.865   1.985  1.0344 -0.1430  0.0993
  654MOL0     H86305   2.205   1.694   2.005  0.8011 -2.1643  1.2279
  654MOL0     H86306   2.487   1.782   2.031 -1.1516  0.0878  2.3887
  654MOL0     H86307   2.430   1.613   2.051 -2.8143 -2.8112 -2.1322
  654MOL0     H86308   2.385   1.786   1.791  0.0749  0.7153  1.3139
  654MOL0     H86309   2.386   1.607   1.798  0.0914  1.3785 -2.3393
  654MOL0     H86310   2.623   1.649   2.547  1.9749 -2.6910  0.2685
  654MOL0     H86311   2.846   1.536   2.623  3.8408  2.3573 -1.0392
  654MOL0     H86312   3.328   1.759   2.647 -0.6298  0.5397  0.7796
  654MOL0     H86313   3.553   1.662   2.705  1.5066 -3.6595  2.9757
  654MOL0     H86314   4.746   0.797   3.860  0.4066 -0.7627 -1.7091
  654MOL0     H86315   4.822   0.935   4.068  1.3926  3.0643 -0.9948
  654MOL0     H86316   4.970   1.545   4.049  1.5074  3.3800  2.0116
  654MOL0     H86317   5.105   1.647   4.215 -4.2268  2.5673  0.8208
  654MOL0     H86318   5.387   1.618   4.389 -0.1921 -0.1533 -2.5057
  654MOL0     H86319   5.365   1.457   4.335  1.6678  0.1936 -0.1309
  654MOL0     H86320   5.370   1.407   4.614  0.2591  0.6164  1.4878
  654MOL0     H86321   5.497   1.398   4.501  2.7416 -0.9313  3.7876
  654MOL0     H86322   5.571   1.623   4.540 -0.1754  1.3781  0.7236
  654MOL0     H86323   5.558   1.521   4.689  4.7309  3.2195 -0.7466
  654MOL0     H86324   5.458   1.776   4.680 -2.9960  2.4479  0.6625
  654MOL0     H86325   5.322   1.690   4.618  1.9070 -0.2205 -1.8077
  654MOL0     H86326   5.317   1.614   5.044  0.7807  3.2279  0.8931
  654MOL0     H86327   5.111   1.274   4.442  1.2743 -2.6414 -1.3607
  654MOL0     H86328   4.961   1.176   4.282  2.5495 -1.6544 -0.7378
  655MOL0     O86329   6.163   1.031   3.276  0.5650  0.2227 -1.2249
  655MOL0     C86330   6.267   1.057   3.331 -0.6238  0.3269  0.8669
  655MOL0     O86331   6.383   0.974   3.329 -0.4539 -0.3817  0.3615
  655MOL0     C86332   6.369   0.853   3.260 -0.1320 -0.5201 -0.2636
  655MOL0     C86333   6.363   0.847   3.115 -0.3220 -0.0676 -0.3187
  655MOL0     C86334   6.382   0.728   3.046  0.2532 -0.3638  1.6715
  655MOL0     C86335   6.395   0.608   3.122  0.4634 -0.1305 -0.4697
  655MOL0     O86336   6.405   0.496   3.048  0.3166  0.2011  1.0896
  655MOL0     C86337   6.347   0.375   3.093  0.0073  0.4243 -0.0894
  655MOL0     C86338   6.462   0.280   3.143  0.3080 -0.5349  0.6546
  655MOL0     C86339   6.414   0.141   3.186 -1.1144 -0.8959 -0.1570
  655MOL0     C86340   6.512   0.027   3.169  0.8086  0.2034 -0.2592
  655MOL0     C86341   6.557  -0.052   3.297 -0.3962 -0.2917  0.3478
  655MOL0     C86342   6.679  -0.146   3.287  0.9022  1.0317 -0.0657
  655MOL0     C86343   6.805  -0.089   3.206 -0.8334 -0.0135  0.6015
  655MOL0     C86344   6.878   0.029   3.267 -0.8891 -0.0931  0.5152
  655MOL0     N86345   6.967  -0.007   3.378  0.6349 -1.2974  0.0388
  655MOL0     C86346   7.079  -0.076   3.362 -0.1428  0.4284  0.1444
  655MOL0     C86347   7.134  -0.078   3.488 -0.6478  0.1439 -0.3825
  655MOL0     C86348   7.257  -0.159   3.514 -0.0290  0.6829 -0.9482
  655MOL0     C86349   7.220  -0.301   3.555  0.2187  0.0391 -0.4022
  655MOL0     C86350   7.356  -0.355   3.592 -0.9025 -0.3527  0.0567
  655MOL0     C86351   7.357  -0.508   3.615  0.5586  0.0998  0.0491
  655MOL0     O86352   7.453  -0.533   3.721 -0.9496  0.1100  0.2102
  655MOL0     C86353   7.516  -0.656   3.719  0.0329  0.3930 -0.2856
  655MOL0     C86354   7.483  -0.749   3.825 -0.0887  0.4390 -0.1016
  655MOL0     C86355   7.559  -0.867   3.835 -0.0729  0.5384 -0.2169
  655MOL0     C86356   7.655  -0.903   3.734 -0.0591  0.1150 -0.0667
  655MOL0     C86357   7.738  -1.030   3.745 -0.3978  0.2752 -0.3506
  655MOL0     O86358   7.825  -1.054   3.641 -0.4929 -0.3812  0.3709
  655MOL0     C86359   7.870  -1.181   3.609  0.5768 -0.2898 -0.0039
  655MOL0     C86360   7.969  -1.181   3.516  0.2368  0.6316 -0.1513
  655MOL0     C86361   8.030  -1.300   3.469 -0.1135 -0.3015 -0.1849
  655MOL0     C86362   7.970  -1.421   3.504 -0.0836 -0.2460  0.7684
  655MOL0     O86363   8.031  -1.532   3.456  0.0504 -0.2709  0.4077
  655MOL0     C86364   7.975  -1.564   3.331  1.6003  0.3509 -0.4356
  655MOL0     C86365   8.053  -1.688   3.281 -0.3904  0.0996 -0.3643
  655MOL0     C86366   8.010  -1.738   3.140  0.2361 -0.2167 -0.3725
  655MOL0     C86367   8.124  -1.823   3.090 -0.0997  0.1269  0.4769
  655MOL0     C86368   8.093  -1.931   2.994 -0.4069  0.2474  1.1412
  655MOL0     C86369   8.206  -2.039   2.978 -0.0817  0.9233 -0.4514
  655MOL0     C86370   8.159  -2.139   2.872 -0.3745  0.6911 -0.3529
  655MOL0     C86371   8.266  -2.241   2.823  0.6981  0.5160  0.0138
  655MOL0    Cl86372   8.375  -2.298   2.951  0.2541 -0.1270  0.3964
  655MOL0     C86373   7.854  -1.423   3.586 -1.0139 -1.1540 -0.2337
  655MOL0     C86374   7.801  -1.300   3.632 -0.9858  0.5812 -0.5007
  655MOL0     O86375   7.727  -1.099   3.838  0.0067 -0.6145  0.1402
  655MOL0     C86376   7.662  -0.821   3.623 -0.5056  0.6455  0.6800
  655MOL0     C86377   7.602  -0.698   3.625  0.3528  0.4832  0.1250
  655MOL0     N86378   7.056  -0.006   3.578 -0.3012  0.2134  0.8387
  655MOL0     N86379   6.959   0.039   3.510  0.5340  0.0700  0.4143
  655MOL0     C86380   6.385   0.612   3.258 -0.4767 -0.3823 -0.1996
  655MOL0     C86381   6.376   0.726   3.322 -0.6217 -0.7959 -0.1223
  655MOL0     C86382   6.283   1.179   3.416  0.1553 -0.0186 -0.1019
  655MOL0     C86383   6.374   1.195   3.529  0.3204 -1.1682 -0.4026
  655MOL0     C86384   6.371   1.314   3.592 -0.0492  0.2477 -0.8303
  655MOL0     C86385   6.257   1.401   3.584  0.1796  0.0024  0.5551
  655MOL0     O86386   6.246   1.508   3.666 -0.4403  0.7800 -0.1314
  655MOL0     C86387   6.340   1.539   3.767  0.5831  0.0135  1.0763
  655MOL0     C86388   6.460   1.615   3.718  0.6186 -0.5839 -0.1350
  655MOL0     C86389   6.436   1.764   3.702  0.1096 -0.1014  0.1917
  655MOL0     C86390   6.555   1.832   3.641 -0.3722 -0.1544 -0.3034
  655MOL0     C86391   6.516   1.942   3.549 -0.1573  0.1232 -0.0133
  655MOL0     C86392   6.490   2.030   3.468  0.3275 -0.0156 -1.8194
  655MOL0     C86393   6.166   1.385   3.482  0.2916  0.1582 -0.4684
  655MOL0     C86394   6.180   1.278   3.394 -0.4984 -0.0302  0.2784
  655MOL0     H86395   6.355   0.940   3.059  2.3409 -0.0029 -0.7087
  655MOL0     H86396   6.393   0.734   2.938 -2.5101 -1.7478  1.2056
  655MOL0     H86397   6.286   0.328   3.016 -5.3095  0.6027  3.4617
  655MOL0     H86398   6.270   0.399   3.167 -1.4177  3.3489 -2.3173
  655MOL0     H86399   6.527   0.333   3.213 -2.0929 -0.1183  2.7371
  655MOL0     H86400   6.511   0.246   3.051 -0.8919 -1.3051  0.2656
  655MOL0     H86401   6.315   0.124   3.143 -1.4126  0.8856 -0.2159
  655MOL0     H86402   6.386   0.139   3.291 -0.1729  0.5983  0.1576
  655MOL0     H86403   6.469  -0.036   3.091  0.3199 -0.6481  0.6667
  655MOL0     H86404   6.603   0.070   3.127  0.5152 -0.3046 -1.4519
  655MOL0     H86405   6.482  -0.121   3.335  0.6931 -0.5912  2.0640
  655MOL0     H86406   6.586   0.018   3.376  1.1172  0.1535 -0.5536
  655MOL0     H86407   6.638  -0.228   3.228  0.1372  1.5326 -0.2448
  655MOL0     H86408   6.702  -0.189   3.385  0.9773 -1.9788 -1.3208
  655MOL0     H86409   6.879  -0.157   3.162  0.6399  1.5365  0.5534
  655MOL0     H86410   6.766  -0.051   3.111  0.3371  0.1066  0.1533
  655MOL0     H86411   6.796   0.096   3.296  0.0767  0.8921  1.0537
  655MOL0     H86412   6.938   0.088   3.197 -2.8267  0.9961 -0.3219
  655MOL0     H86413   7.120  -0.126   3.275  0.6364  1.5333 -0.1517
  655MOL0     H86414   7.321  -0.104   3.583 -1.1073 -0.2567  0.8761
  655MOL0     H86415   7.314  -0.164   3.420 -0.8953  0.6616 -1.4874
  655MOL0     H86416   7.160  -0.352   3.479  0.4432  0.8144 -1.1243
  655MOL0     H86417   7.158  -0.297   3.644 -0.2891 -0.5248 -0.7239
  655MOL0     H86418   7.431  -0.335   3.515  0.4816 -3.3983  0.4566
  655MOL0     H86419   7.386  -0.307   3.686  1.3220  1.8981 -1.6601
  655MOL0     H86420   7.384  -0.563   3.524  0.6078  1.9865 -1.1404
  655MOL0     H86421   7.261  -0.543   3.653  1.4108  0.7408  3.0044
  655MOL0     H86422   7.415  -0.730   3.907  1.3030 -0.2603  1.2741
  655MOL0     H86423   7.550  -0.921   3.928 -1.0443  0.3481 -0.4137
  655MOL0     H86424   8.002  -1.084   3.481 -1.1034  1.2257  0.1674
  655MOL0     H86425   8.100  -1.316   3.387 -0.3729  0.8420 -0.6406
  655MOL0     H86426   7.970  -1.476   3.267 -1.9033  1.9527  1.7246
  655MOL0     H86427   7.872  -1.602   3.339  1.0364  1.2849 -2.5168
  655MOL0     H86428   8.035  -1.776   3.344  1.2022  0.7135  1.0302
  655MOL0     H86429   8.162  -1.680   3.285 -0.2156 -1.8281 -0.6791
  655MOL0     H86430   7.994  -1.659   3.066  0.4713 -1.9146 -2.3278
  655MOL0     H86431   7.916  -1.793   3.146  0.3416 -0.3687 -0.0718
  655MOL0     H86432   8.197  -1.756   3.044 -0.8782 -0.6429 -2.1067
  655MOL0     H86433   8.162  -1.878   3.177  2.6463 -1.5351 -1.6124
  655MOL0     H86434   8.057  -1.883   2.903 -0.1374  0.0684  0.9380
  655MOL0     H86435   8.001  -1.976   3.034 -1.0668 -1.9123 -2.3385
  655MOL0     H86436   8.221  -2.088   3.075 -0.5556 -0.9896 -1.3025
  655MOL0     H86437   8.307  -2.001   2.958  1.0600 -3.0362 -3.6125
  655MOL0     H86438   8.076  -2.200   2.906  0.4248  0.2784  0.9307
  655MOL0     H86439   8.160  -2.083   2.777  1.1293  1.1664 -0.0920
  655MOL0     H86440   8.330  -2.195   2.747 -0.5929 -0.8317 -1.9950
  655MOL0     H86441   8.223  -2.332   2.780 -1.5998  0.6295  1.8619
  655MOL0     H86442   7.811  -1.517   3.618 -3.4194 -0.0007  0.1176
  655MOL0     H86443   7.702  -1.314   3.674  0.0374 -0.1748  1.8115
  655MOL0     H86444   7.727  -0.851   3.542 -0.0092  2.9607  0.1401
  655MOL0     H86445   7.613  -0.624   3.547  2.8840  1.8047  1.5924
  655MOL0     H86446   6.383   0.520   3.316 -0.2216  1.1775  2.4374
  655MOL0     H86447   6.348   0.725   3.426 -2.4204 -0.9426 -0.5750
  655MOL0     H86448   6.433   1.109   3.558  2.0591 -0.5614 -1.9283
  655MOL0     H86449   6.445   1.339   3.667  1.2107 -0.0785 -1.9287
  655MOL0     H86450   6.374   1.448   3.817 -1.4209 -0.8309  1.0056
  655MOL0     H86451   6.291   1.596   3.847  0.4292  0.1561  0.8804
  655MOL0     H86452   6.538   1.609   3.794 -1.0336  3.1184  2.1306
  655MOL0     H86453   6.499   1.569   3.627  0.7589 -1.1512  0.2001
  655MOL0     H86454   6.409   1.818   3.793 -1.1356 -1.3802  0.6124
  655MOL0     H86455   6.354   1.761   3.630 -0.2355 -2.3445  0.5979
  655MOL0     H86456   6.629   1.849   3.720 -3.3267  0.7913  2.4705
  655MOL0     H86457   6.611   1.762   3.579  1.8939  0.4465  0.9587
  655MOL0     H86458   6.480   2.114   3.402 -1.5873 -0.9498 -2.7930
  655MOL0     H86459   6.086   1.453   3.454  1.0394  1.6535  0.8897
  655MOL0     H86460   6.105   1.271   3.316  1.7839 -1.1362 -1.9240
  656MOL0     O86461   4.573   3.928   7.744 -0.2696  0.4478  0.2794
  656MOL0     C86462   4.682   3.884   7.789  0.4103  0.5202 -0.4155
  656MOL0     O86463   4.742   3.934   7.913  0.3517  0.7955  0.2143
  656MOL0     C86464   4.690   4.040   7.981  0.4342  0.6310 -0.4762
  656MOL0     C86465   4.642   4.162   7.920 -0.1249 -0.3510  0.0208
  656MOL0     C86466   4.601   4.272   7.997 -0.7109 -1.0426  0.0067
  656MOL0     C86467   4.599   4.267   8.140  0.4872 -0.3768 -0.0485
  656MOL0     O86468   4.558   4.365   8.231  0.4645 -0.5440  0.3194
  656MOL0     C86469   4.584   4.507   8.189  0.5497  1.0312 -0.9522
  656MOL0     C86470   4.576   4.590   8.314  1.4782  0.0786 -0.0433
  656MOL0     C86471   4.427   4.607   8.356  0.1706 -0.6098 -0.2767
  656MOL0     C86472   4.409   4.655   8.494 -0.0252  0.0339  0.1623
  656MOL0     C86473   4.358   4.543   8.585  0.0613 -0.5107  0.6810
  656MOL0     C86474   4.285   4.621   8.705  0.2922  0.2714  0.3529
  656MOL0     C86475   4.226   4.506   8.793 -0.9401 -0.2357  0.3494
  656MOL0     C86476   4.329   4.398   8.837  0.3529 -0.3512  0.9152
  656MOL0     N86477   4.271   4.341   8.959  0.1969  0.7005  0.0572
  656MOL0     C86478   4.227   4.205   8.977  0.0791 -0.7584 -0.2879
  656MOL0     C86479   4.177   4.196   9.099 -0.4848 -0.2880 -0.5686
  656MOL0     C86480   4.095   4.085   9.143  0.1554 -0.0480  0.1332
  656MOL0     C86481   4.184   3.954   9.154  1.1084  0.0418  0.0310
  656MOL0     C86482   4.106   3.822   9.176 -0.0623  0.9943 -0.4429
  656MOL0     C86483   4.193   3.696   9.211  0.3089 -0.2145 -0.0020
  656MOL0     O86484   4.266   3.645   9.096 -0.1985 -0.5311 -0.7441
  656MOL0     C86485   4.341   3.528   9.120 -0.2164  0.7277  0.1901
  656MOL0     C86486   4.372   3.473   9.243  0.8909 -0.2889 -0.2331
  656MOL0     C86487   4.437   3.352   9.247  0.8591  0.3504 -0.6517
  656MOL0     C86488   4.503   3.304   9.136  0.3474 -0.2545 -0.7524
  656MOL0     C86489   4.584   3.179   9.158 -0.4460 -0.2815  1.2517
  656MOL0     O86490   4.647   3.143   9.039 -0.7794 -1.4949  0.0913
  656MOL0     C86491   4.728   3.031   9.042  0.3214 -0.7226  0.8093
  656MOL0     C86492   4.857   3.024   9.084  0.7124 -0.6161 -0.2030
  656MOL0     C86493   4.935   2.903   9.071  1.3686 -0.5450 -0.4975
  656MOL0     C86494   4.873   2.788   9.012 -0.1502 -0.5017 -0.2809
  656MOL0     O86495   4.949   2.680   9.015 -0.3599  0.5363 -0.7302
  656MOL0     C86496   5.019   2.651   8.892 -0.2704  1.4053 -0.6239
  656MOL0     C86497   5.115   2.524   8.898  0.2290  0.2122 -0.3069
  656MOL0     C86498   5.049   2.394   8.934  0.1826 -0.2623  0.4106
  656MOL0     C86499   5.111   2.347   9.071  0.7319  0.4130  0.0466
  656MOL0     C86500   5.079   2.440   9.183  0.0138  0.0963 -0.5038
  656MOL0     C86501   4.921   2.446   9.219  0.3945 -0.0002  0.1394
  656MOL0     C86502   4.894   2.513   9.352 -0.0228 -0.2400 -0.0957
  656MOL0     C86503   4.759   2.587   9.333 -0.9876  0.0968 -0.0777
  656MOL0    Cl86504   4.630   2.474   9.299  0.2293  0.2022 -0.0503
  656MOL0     C86505   4.741   2.796   8.965  0.5186 -0.4227  0.5157
  656MOL0     C86506   4.668   2.918   8.985 -0.0249  0.2200  0.1729
  656MOL0     O86507   4.592   3.115   9.258 -0.5590  0.4604 -0.7262
  656MOL0     C86508   4.493   3.372   9.015  0.2382  0.5169 -0.4811
  656MOL0     C86509   4.412   3.482   9.006  0.3606 -0.9527  0.5381
  656MOL0     N86510   4.186   4.322   9.160  0.4375  0.2026 -1.3321
  656MOL0     N86511   4.249   4.406   9.079 -0.2442  0.1100 -0.5171
  656MOL0     C86512   4.625   4.140   8.193 -0.2498 -0.5578  0.4501
  656MOL0     C86513   4.657   4.031   8.116  0.6904  0.9465  0.1502
  656MOL0     C86514   4.740   3.769   7.727 -0.2802 -0.2163  0.8730
  656MOL0     C86515   4.842   3.688   7.775  0.2241  0.0259 -0.0132
  656MOL0     C86516   4.898   3.587   7.701 -0.7414  0.2047 -0.2315
  656MOL0     C86517   4.847   3.549   7.580 -1.1031 -0.3851 -0.2500
  656MOL0     O86518   4.901   3.453   7.496 -0.5610  0.3050 -0.3366
  656MOL0     C86519   5.042   3.455   7.481  0.0732  1.1256 -0.2651
  656MOL0     C86520   5.097   3.344   7.386 -0.2914 -0.5409 -0.6277
  656MOL0     C86521   5.240   3.292   7.425 -0.1015 -0.2898  0.1220
  656MOL0     C86522   5.261   3.243   7.570 -0.8065 -0.2523  0.1795
  656MOL0     C86523   5.407   3.242   7.602 -0.2669 -0.4392  0.0940
  656MOL0     C86524   5.530   3.238   7.608 -0.1201 -0.1261 -0.5144
  656MOL0     C86525   4.746   3.624   7.528  0.0295 -0.8748  1.2011
  656MOL0     C86526   4.687   3.725   7.598 -0.0775 -0.2663  0.6157
  656MOL0     H86527   4.627   4.160   7.812 -2.1655 -1.9445  0.2756
  656MOL0     H86528   4.572   4.367   7.952  1.9766  0.4800  1.2526
  656MOL0     H86529   4.499   4.549   8.134 -1.4171  2.3278  2.7517
  656MOL0     H86530   4.681   4.517   8.139  0.6370  0.7396 -0.8426
  656MOL0     H86531   4.613   4.690   8.290  2.3529 -0.3034 -0.3517
  656MOL0     H86532   4.634   4.539   8.392 -1.6866  0.6339  2.9252
  656MOL0     H86533   4.353   4.530   8.333 -1.8280  1.2557 -0.3280
  656MOL0     H86534   4.396   4.691   8.292  1.2678  2.1521  2.5759
  656MOL0     H86535   4.497   4.713   8.526 -1.4457  1.5196  1.5964
  656MOL0     H86536   4.343   4.742   8.487 -0.5296 -0.3167  0.4447
  656MOL0     H86537   4.445   4.485   8.615  2.0404  0.8179 -2.0133
  656MOL0     H86538   4.288   4.480   8.529 -3.0592  0.4797  3.1550
  656MOL0     H86539   4.198   4.677   8.670  0.0297  1.6005  2.8971
  656MOL0     H86540   4.353   4.681   8.768 -1.7875  0.5674  2.4552
  656MOL0     H86541   4.198   4.556   8.886  1.3795 -0.3272  1.1516
  656MOL0     H86542   4.131   4.459   8.767 -0.8123 -0.0554 -0.4787
  656MOL0     H86543   4.423   4.440   8.874  0.8244 -1.5002  1.0563
  656MOL0     H86544   4.344   4.320   8.763 -0.8415  1.3401 -1.2299
  656MOL0     H86545   4.232   4.128   8.901  0.7544 -1.0243  0.0209
  656MOL0     H86546   4.033   4.061   9.056 -0.5427 -3.6440  1.4380
  656MOL0     H86547   4.042   4.104   9.236 -0.5002 -0.1022 -0.2259
  656MOL0     H86548   4.260   3.965   9.232 -0.4157 -1.5996  1.8790
  656MOL0     H86549   4.236   3.958   9.058  1.5171  3.3185  0.2809
  656MOL0     H86550   4.031   3.838   9.254  0.6879 -1.5071  0.8927
  656MOL0     H86551   4.052   3.807   9.083 -1.5821  0.6398  0.4656
  656MOL0     H86552   4.123   3.619   9.248 -0.1268 -0.5001 -1.3611
  656MOL0     H86553   4.260   3.725   9.292 -3.9201  1.0570  3.4898
  656MOL0     H86554   4.334   3.510   9.338  1.8554 -0.2156  0.1322
  656MOL0     H86555   4.454   3.303   9.342  2.9948  2.1478 -0.0223
  656MOL0     H86556   4.904   3.111   9.130 -2.5983 -0.6554  3.8492
  656MOL0     H86557   5.034   2.900   9.116  1.1836 -0.7642 -0.0965
  656MOL0     H86558   5.072   2.739   8.854 -0.8602  2.0457  0.0250
  656MOL0     H86559   4.940   2.623   8.821  1.0196 -1.1658 -1.1783
  656MOL0     H86560   5.201   2.548   8.961  0.2477 -1.4419  0.3375
  656MOL0     H86561   5.152   2.521   8.796 -0.8640  3.3579 -0.9158
  656MOL0     H86562   5.064   2.313   8.862 -1.3197 -0.3235  0.1350
  656MOL0     H86563   4.941   2.409   8.937  0.2838  0.3660  2.7124
  656MOL0     H86564   5.063   2.255   9.107  1.6356  0.4208  1.3485
  656MOL0     H86565   5.219   2.341   9.055  1.1490  1.8757  1.9503
  656MOL0     H86566   5.115   2.542   9.170  1.1915 -0.1538  0.5387
  656MOL0     H86567   5.137   2.410   9.272 -1.0317 -0.4211  0.0190
  656MOL0     H86568   4.871   2.349   9.221 -1.3853  0.8754  1.7982
  656MOL0     H86569   4.879   2.507   9.138  4.2456  0.7482 -1.5241
  656MOL0     H86570   4.885   2.447   9.439 -0.8822 -0.5532 -0.4109
  656MOL0     H86571   4.974   2.584   9.378 -2.9510  3.2439  0.3118
  656MOL0     H86572   4.771   2.658   9.251  4.2787  0.6494  0.8225
  656MOL0     H86573   4.744   2.655   9.417  4.5510  0.9132  0.5968
  656MOL0     H86574   4.680   2.717   8.922 -0.5056 -1.5964  3.8111
  656MOL0     H86575   4.569   2.933   8.943 -0.0973  1.9127  0.8454
  656MOL0     H86576   4.529   3.333   8.920 -0.7010  0.7693 -0.9560
  656MOL0     H86577   4.417   3.539   8.915  0.0006 -0.3535  0.8875
  656MOL0     H86578   4.609   4.109   8.296  1.3824  0.4693  1.0586
  656MOL0     H86579   4.664   3.935   8.166 -0.8031  0.7047 -0.0404
  656MOL0     H86580   4.879   3.724   7.871 -0.8381  4.3616 -1.0150
  656MOL0     H86581   4.982   3.540   7.752 -0.9547 -0.3918 -0.4252
  656MOL0     H86582   5.078   3.434   7.583 -0.2600 -1.8827 -0.6839
  656MOL0     H86583   5.070   3.555   7.449 -0.0288  1.2621  0.0655
  656MOL0     H86584   5.027   3.261   7.398  0.1614 -1.0322 -1.3486
  656MOL0     H86585   5.104   3.379   7.283 -1.8638  1.2446 -0.1857
  656MOL0     H86586   5.293   3.381   7.391  0.7772 -0.9649 -0.3562
  656MOL0     H86587   5.250   3.202   7.363 -3.2602  0.7626 -2.1412
  656MOL0     H86588   5.230   3.317   7.644  1.1034 -0.1873  0.9764
  656MOL0     H86589   5.223   3.141   7.582  2.8857 -1.7479  0.6618
  656MOL0     H86590   5.637   3.231   7.604 -0.0894  0.6430 -3.7037
  656MOL0     H86591   4.695   3.586   7.440  0.3967  0.6919  0.2785
  656MOL0     H86592   4.603   3.764   7.541  0.2150 -3.4897 -2.2995
  657MOL0     O86593   8.482   9.505   1.599  0.0509  0.2835 -0.2549
  657MOL0     C86594   8.532   9.502   1.706 -0.6592  0.2747  0.3800
  657MOL0     O86595   8.543   9.615   1.785  0.2136  0.4364 -0.4559
  657MOL0     C86596   8.467   9.726   1.747  1.4869  0.1754  0.0750
  657MOL0     C86597   8.533   9.851   1.719  0.0802  0.2655 -0.2897
  657MOL0     C86598   8.479   9.972   1.702  0.4506 -0.0605  0.8758
  657MOL0     C86599   8.333   9.966   1.697 -0.2398 -0.2502  1.1632
  657MOL0     O86600   8.258  10.078   1.666 -0.5069 -0.3597 -0.2147
  657MOL0     C86601   8.322  10.203   1.639 -0.3246  0.6270  0.2387
  657MOL0     C86602   8.229  10.322   1.628  0.7169  0.6774  0.5834
  657MOL0     C86603   8.122  10.308   1.525 -0.4031 -0.2862  0.6843
  657MOL0     C86604   8.171  10.360   1.391 -0.2149 -0.0922  0.5542
  657MOL0     C86605   8.052  10.359   1.299 -0.2202  0.1556  1.0764
  657MOL0     C86606   8.073  10.390   1.150 -0.1385  0.6163 -0.0768
  657MOL0     C86607   7.943  10.384   1.075 -0.0165 -0.5728 -0.3091
  657MOL0     C86608   7.830  10.476   1.127 -0.2036 -0.2226 -0.6249
  657MOL0     N86609   7.866  10.612   1.142  0.1363 -0.1354  0.2938
  657MOL0     C86610   7.862  10.694   1.030 -0.5403  1.3013  0.4237
  657MOL0     C86611   7.858  10.817   1.084 -0.5964 -0.1387 -0.0064
  657MOL0     C86612   7.832  10.942   0.997 -0.1599  0.0275  0.1232
  657MOL0     C86613   7.834  11.076   1.074 -0.1497  0.4275  0.3520
  657MOL0     C86614   7.975  11.138   1.059 -0.3522  0.2104  0.2679
  657MOL0     C86615   7.990  11.267   1.141 -0.4533 -0.4305 -0.2760
  657MOL0     O86616   7.934  11.371   1.057 -0.6423  0.7694 -0.0710
  657MOL0     C86617   7.934  11.481   1.133  0.2461 -0.5064  0.0584
  657MOL0     C86618   7.816  11.539   1.181 -0.1644  0.6092  1.1157
  657MOL0     C86619   7.811  11.645   1.270  0.6105  0.3707 -0.6503
  657MOL0     C86620   7.930  11.716   1.297 -1.1383  0.8788  0.8547
  657MOL0     C86621   7.927  11.829   1.390  0.0406  0.9286 -0.2428
  657MOL0     O86622   7.811  11.891   1.409 -0.6714 -0.4184  1.2887
  657MOL0     C86623   7.802  11.997   1.491 -0.8525  0.2935  0.7536
  657MOL0     C86624   7.799  12.006   1.625 -0.6137  0.4180 -1.7131
  657MOL0     C86625   7.795  12.122   1.701 -0.9977  0.0261  0.9656
  657MOL0     C86626   7.763  12.243   1.636  1.0121  0.2617 -0.3714
  657MOL0     O86627   7.748  12.367   1.698  0.3564 -0.3251  0.3757
  657MOL0     C86628   7.755  12.363   1.841  0.0822 -0.5293 -0.0902
  657MOL0     C86629   7.745  12.509   1.902 -0.7634 -0.7688  1.1001
  657MOL0     C86630   7.838  12.617   1.839 -0.1041  0.3536  0.6170
  657MOL0     C86631   7.828  12.751   1.910 -0.4566  0.6401 -0.2664
  657MOL0     C86632   7.927  12.840   1.845  0.2749 -0.0588 -0.4129
  657MOL0     C86633   7.889  12.995   1.873  0.2089 -0.4839 -0.2694
  657MOL0     C86634   8.003  13.080   1.810 -0.1842  0.4066 -0.8125
  657MOL0     C86635   8.139  13.044   1.848 -0.5746 -1.1603  0.2912
  657MOL0    Cl86636   8.167  13.082   2.030  0.3380  0.0837 -0.1457
  657MOL0     C86637   7.750  12.250   1.497 -0.3659  0.0532 -1.0464
  657MOL0     C86638   7.782  12.128   1.424  0.0320  0.0601  0.0126
  657MOL0     O86639   8.041  11.864   1.430 -0.3591 -0.5052  0.1482
  657MOL0     C86640   8.055  11.657   1.248  0.8578 -0.1962  0.2854
  657MOL0     C86641   8.057  11.539   1.166  0.3396 -0.2102 -0.0503
  657MOL0     N86642   7.882  10.809   1.222  0.2207  0.2736  0.8508
  657MOL0     N86643   7.880  10.684   1.257  0.5380  0.1295 -1.2210
  657MOL0     C86644   8.260   9.857   1.721  0.1594  0.7251 -0.0304
  657MOL0     C86645   8.324   9.735   1.756 -0.4883 -0.5161 -0.5018
  657MOL0     C86646   8.586   9.370   1.750  0.1321  0.6186 -0.2571
  657MOL0     C86647   8.650   9.361   1.868  0.7059  0.6041 -0.8091
  657MOL0     C86648   8.703   9.250   1.938 -0.4192  0.0274 -0.0702
  657MOL0     C86649   8.713   9.134   1.856  1.0121 -0.1512 -0.0067
  657MOL0     O86650   8.772   9.016   1.893 -0.5902  0.3344 -0.2091
  657MOL0     C86651   8.763   8.987   2.031  0.5596 -0.7665 -0.0486
  657MOL0     C86652   8.791   8.843   2.066 -0.2341  0.7794 -0.3334
  657MOL0     C86653   8.930   8.800   2.008  0.3901 -0.2341  0.0895
  657MOL0     C86654   9.048   8.834   2.110  0.1523  0.0205  0.0154
  657MOL0     C86655   9.033   8.754   2.229 -1.1181 -0.2606 -0.8896
  657MOL0     C86656   9.020   8.696   2.337 -0.4708  0.8995  0.1007
  657MOL0     C86657   8.651   9.141   1.729 -0.0371 -1.1516  0.1889
  657MOL0     C86658   8.585   9.250   1.671 -0.3528 -0.4925  0.5727
  657MOL0     H86659   8.641   9.840   1.716  0.0806  0.4493 -1.5763
  657MOL0     H86660   8.540  10.059   1.678 -0.0695  1.0021  3.1158
  657MOL0     H86661   8.373  10.202   1.542 -0.3745  1.3581  0.1928
  657MOL0     H86662   8.393  10.223   1.720 -1.3683  0.2666  1.2607
  657MOL0     H86663   8.287  10.414   1.621  0.4840  0.7016 -2.2202
  657MOL0     H86664   8.174  10.340   1.721 -0.5547  0.5836 -0.1262
  657MOL0     H86665   8.032  10.360   1.557  0.8090  4.8032 -3.0107
  657MOL0     H86666   8.096  10.203   1.506 -0.8159  0.0752 -0.8617
  657MOL0     H86667   8.217  10.457   1.410  2.4738 -1.2552  0.5311
  657MOL0     H86668   8.256  10.310   1.341  0.3909  0.1483  1.3279
  657MOL0     H86669   7.982  10.435   1.333  2.5249  2.5280  1.7940
  657MOL0     H86670   8.011  10.258   1.296  2.1636 -0.8857  0.6150
  657MOL0     H86671   8.141  10.312   1.115 -1.6585 -0.3020 -1.0732
  657MOL0     H86672   8.129  10.483   1.134  1.3311  0.2534  2.4628
  657MOL0     H86673   7.963  10.416   0.972 -0.9438  1.4907  0.1118
  657MOL0     H86674   7.904  10.282   1.065 -2.7370  0.5341 -2.5078
  657MOL0     H86675   7.793  10.429   1.219  4.2453 -0.3116  1.3591
  657MOL0     H86676   7.747  10.472   1.056  1.6680  0.2046 -2.9367
  657MOL0     H86677   7.853  10.654   0.929 -1.5362 -1.1322  1.3930
  657MOL0     H86678   7.730  10.934   0.957 -0.7244  3.4604  0.6020
  657MOL0     H86679   7.900  10.953   0.913  0.4941  4.6261  0.9885
  657MOL0     H86680   7.818  11.062   1.181  1.3379 -1.5497  0.3753
  657MOL0     H86681   7.761  11.143   1.027  1.0755  2.1290  0.7957
  657MOL0     H86682   8.053  11.066   1.084  0.7693  2.2976  3.2841
  657MOL0     H86683   7.988  11.169   0.955 -0.6712 -0.1370  0.1212
  657MOL0     H86684   8.097  11.287   1.135  0.2648 -3.9391 -4.6438
  657MOL0     H86685   7.957  11.274   1.245  1.6330  0.1730  0.4041
  657MOL0     H86686   7.727  11.482   1.157 -0.2988  0.8172  1.1173
  657MOL0     H86687   7.713  11.681   1.300  1.0196 -0.4775  1.9255
  657MOL0     H86688   7.808  11.916   1.686  0.4067  2.0294  0.6662
  657MOL0     H86689   7.795  12.127   1.810 -0.0094 -1.0844  1.0427
  657MOL0     H86690   7.840  12.309   1.884 -1.0655 -1.4967  1.0768
  657MOL0     H86691   7.665  12.311   1.877 -2.0746  2.0979 -1.2447
  657MOL0     H86692   7.749  12.504   2.011 -2.3012 -2.9449  1.1257
  657MOL0     H86693   7.644  12.545   1.878  0.2209  2.3438  1.2318
  657MOL0     H86694   7.825  12.634   1.731  2.4983 -1.5065 -0.0713
  657MOL0     H86695   7.945  12.594   1.845 -0.0090  0.8202  0.7325
  657MOL0     H86696   7.726  12.792   1.909 -1.2993 -0.9531  3.3449
  657MOL0     H86697   7.846  12.735   2.017 -1.5558  1.4780  0.0649
  657MOL0     H86698   7.942  12.816   1.740 -2.2942  2.0847 -1.4087
  657MOL0     H86699   8.018  12.813   1.899  0.1780  3.7258  2.0775
  657MOL0     H86700   7.866  13.028   1.975  2.7209  2.2888 -0.4862
  657MOL0     H86701   7.799  13.011   1.814  1.6867  1.3096 -2.1587
  657MOL0     H86702   7.999  13.075   1.701  0.1522 -3.0470 -0.7901
  657MOL0     H86703   7.990  13.187   1.831  2.5300  1.3280 -3.1515
  657MOL0     H86704   8.204  13.113   1.794 -2.1162  1.2190  1.3428
  657MOL0     H86705   8.165  12.942   1.817  0.0220 -0.3631 -2.0288
  657MOL0     H86706   7.739  12.350   1.457 -0.2359 -0.9307 -3.7028
  657MOL0     H86707   7.757  12.126   1.318 -0.6361 -0.5935  0.1722
  657MOL0     H86708   8.146  11.712   1.270 -0.2253  1.3633  1.0237
  657MOL0     H86709   8.149  11.487   1.139  1.8582  1.4751  1.6647
  657MOL0     H86710   8.153   9.869   1.706 -0.4979 -1.0295  2.6062
  657MOL0     H86711   8.269   9.645   1.780 -0.0606 -0.8901 -0.9097
  657MOL0     H86712   8.658   9.445   1.937 -0.0213 -1.2987  1.7359
  657MOL0     H86713   8.743   9.249   2.038  1.6691 -3.6057 -0.7959
  657MOL0     H86714   8.658   8.994   2.059  0.5453 -2.6316  0.5104
  657MOL0     H86715   8.814   9.056   2.099 -0.9917  1.9951 -1.5166
  657MOL0     H86716   8.799   8.832   2.174  0.6739 -4.0575 -0.6667
  657MOL0     H86717   8.714   8.784   2.014  0.2008  0.1271 -0.2483
  657MOL0     H86718   8.965   8.856   1.920  0.3025  2.2898  1.5514
  657MOL0     H86719   8.929   8.696   1.976  1.7622 -0.8075  1.7780
  657MOL0     H86720   9.131   8.800   2.047 -0.7652 -1.5660 -0.3924
  657MOL0     H86721   9.062   8.941   2.132  1.1618  0.0204 -0.5568
  657MOL0     H86722   9.014   8.645   2.431 -1.9435 -1.9681 -1.4277
  657MOL0     H86723   8.657   9.047   1.676 -1.4416 -0.4752 -1.2329
  657MOL0     H86724   8.549   9.251   1.569 -0.8577 -0.4393  0.7501
  658MOL0     O86725   1.357   0.872  10.052 -0.0766 -0.4374 -0.5598
  658MOL0     C86726   1.354   0.793  10.140  0.3372 -0.5569  0.4170
  658MOL0     O86727   1.275   0.802  10.251 -0.2369 -0.3897 -0.3795
  658MOL0     C86728   1.166   0.888  10.269  0.3548  0.0833 -0.6276
  658MOL0     C86729   1.090   0.961  10.177  0.0404  0.4994 -0.6258
  658MOL0     C86730   0.978   1.031  10.197 -0.1256  0.0619  0.1771
  658MOL0     C86731   0.920   1.030  10.322 -0.7526  0.6003 -0.6821
  658MOL0     O86732   0.805   1.086  10.349  0.2611  0.3219  0.1109
  658MOL0     C86733   0.766   1.204  10.268  0.1990 -0.1642  0.3968
  658MOL0     C86734   0.677   1.308  10.347 -0.1257  0.1841  0.8204
  658MOL0     C86735   0.741   1.338  10.486  0.3191 -0.1629 -0.6133
  658MOL0     C86736   0.642   1.402  10.589  0.0561 -0.3530  0.6066
  658MOL0     C86737   0.694   1.395  10.736  0.2601 -0.1772  0.1310
  658MOL0     C86738   0.793   1.498  10.772 -0.5689  0.4013  0.3469
  658MOL0     C86739   0.729   1.639  10.779  0.6012 -0.9322  0.3340
  658MOL0     C86740   0.830   1.742  10.843  0.3052 -0.2117 -0.6562
  658MOL0     N86741   0.965   1.728  10.789 -0.1462  0.2933 -0.4480
  658MOL0     C86742   1.072   1.683  10.855  0.6274 -0.5703  0.0019
  658MOL0     C86743   1.175   1.702  10.774 -0.2376  0.2384 -0.4607
  658MOL0     C86744   1.310   1.637  10.800  1.6131 -0.5076 -0.6783
  658MOL0     C86745   1.373   1.689  10.925 -0.3558 -0.4637  0.9495
  658MOL0     C86746   1.527   1.656  10.918 -0.6986  0.0746 -0.4919
  658MOL0     C86747   1.594   1.712  11.044 -0.3107  0.5180  0.5115
  658MOL0     O86748   1.704   1.628  11.078  0.3766  0.2270 -0.1502
  658MOL0     C86749   1.826   1.660  11.029  0.5060 -0.6511  0.2837
  658MOL0     C86750   1.902   1.737  11.111 -0.0849 -0.7599 -0.3554
  658MOL0     C86751   2.032   1.779  11.075  0.3490 -0.6559 -0.4842
  658MOL0     C86752   2.074   1.749  10.946 -0.2835 -1.1061 -0.3187
  658MOL0     C86753   2.207   1.805  10.900  0.5214 -0.4383  0.1998
  658MOL0     O86754   2.298   1.832  11.000 -0.0063 -0.6381  0.2915
  658MOL0     C86755   2.425   1.850  10.948  0.2045  0.7153 -0.8047
  658MOL0     C86756   2.466   1.965  10.881 -0.6087  0.0127 -0.4046
  658MOL0     C86757   2.584   1.964  10.810 -0.3847  0.9493 -0.1854
  658MOL0     C86758   2.674   1.861  10.834  0.1714  0.1552 -0.2245
  658MOL0     O86759   2.804   1.876  10.788 -0.0835  0.2385 -0.4232
  658MOL0     C86760   2.891   1.947  10.876  1.1075 -0.2513 -1.0165
  658MOL0     C86761   2.953   2.065  10.799  1.5964  0.0158 -1.1011
  658MOL0     C86762   3.044   2.156  10.881  0.1456  0.6118  0.2292
  658MOL0     C86763   3.097   2.282  10.807  0.0876  0.0607 -0.7866
  658MOL0     C86764   3.196   2.362  10.894  0.3753 -0.3778 -0.7553
  658MOL0     C86765   3.131   2.419  11.015  0.6110 -0.6544 -0.9435
  658MOL0     C86766   3.217   2.530  11.085  0.5111  0.3911  0.1829
  658MOL0     C86767   3.201   2.655  11.006 -0.0317  0.0586 -0.4864
  658MOL0    Cl86768   3.343   2.748  11.050 -0.3255 -0.2317  0.2066
  658MOL0     C86769   2.641   1.758  10.921  0.5659  0.3325  0.9760
  658MOL0     C86770   2.515   1.746  10.967  0.4521  0.7681 -0.2673
  658MOL0     O86771   2.232   1.810  10.782  0.4368  0.2067  0.2700
  658MOL0     C86772   2.000   1.655  10.864 -0.7935 -0.5975  0.5073
  658MOL0     C86773   1.871   1.622  10.904 -1.4748 -0.1695 -0.0948
  658MOL0     N86774   1.134   1.760  10.655 -0.2437 -0.1583 -0.0445
  658MOL0     N86775   1.002   1.780  10.669 -0.8561  0.0378 -0.4776
  658MOL0     C86776   1.000   0.971  10.427  0.0989  0.5420  0.0059
  658MOL0     C86777   1.115   0.904  10.403 -0.1911 -0.2722  1.1084
  658MOL0     C86778   1.461   0.678  10.131  0.7349 -0.2485 -0.3160
  658MOL0     C86779   1.471   0.580  10.230 -0.8988 -0.2067 -0.2598
  658MOL0     C86780   1.584   0.496  10.234 -0.6687  0.2666  0.0618
  658MOL0     C86781   1.685   0.502  10.138 -0.3144 -0.3898 -0.1722
  658MOL0     O86782   1.792   0.414  10.146  0.4394 -0.5073  0.3721
  658MOL0     C86783   1.925   0.469  10.107 -0.5633 -0.5079 -0.2037
  658MOL0     C86784   1.988   0.582  10.197  1.0423  0.1697  0.0852
  658MOL0     C86785   2.007   0.528  10.339  0.5183  0.1173 -0.0046
  658MOL0     C86786   2.072   0.620  10.438 -0.7153  0.0329  0.3810
  658MOL0     C86787   2.216   0.631  10.416  0.3426  0.1447  0.3918
  658MOL0     C86788   2.327   0.653  10.388 -0.6839  0.7748 -0.8577
  658MOL0     C86789   1.671   0.595  10.037  0.7898 -0.7576 -0.8779
  658MOL0     C86790   1.562   0.681  10.037  0.9089 -0.1949  0.5668
  658MOL0     H86791   1.133   0.972  10.077  1.0741  1.1815 -0.1333
  658MOL0     H86792   0.937   1.081  10.109  2.6849  1.8533 -0.2559
  658MOL0     H86793   0.714   1.179  10.175  0.5330  2.1680 -0.4919
  658MOL0     H86794   0.860   1.252  10.239 -0.1856  0.1000 -0.4466
  658MOL0     H86795   0.586   1.248  10.361 -0.9429  1.4796  1.1824
  658MOL0     H86796   0.660   1.398  10.287 -1.5417 -1.3089 -1.1613
  658MOL0     H86797   0.822   1.411  10.483  0.5054 -0.0167  3.1779
  658MOL0     H86798   0.779   1.244  10.528  0.7571 -0.3869 -1.4904
  658MOL0     H86799   0.613   1.502  10.555  0.0250 -0.9039 -1.1229
  658MOL0     H86800   0.554   1.338  10.586  0.4933 -0.9364 -0.7500
  658MOL0     H86801   0.743   1.302  10.768  0.3690  0.0734  0.6994
  658MOL0     H86802   0.609   1.401  10.806  1.2584  0.0374  1.3592
  658MOL0     H86803   0.860   1.513  10.687 -3.6288  2.0847 -2.0358
  658MOL0     H86804   0.843   1.451  10.856  2.9496 -0.5617 -2.0730
  658MOL0     H86805   0.707   1.677  10.678  2.6153 -1.3133 -0.2828
  658MOL0     H86806   0.634   1.634  10.833 -0.2506 -0.0721 -1.0234
  658MOL0     H86807   0.831   1.710  10.948 -1.5748 -0.5584 -0.6980
  658MOL0     H86808   0.797   1.846  10.835 -2.2909 -0.9197 -0.2793
  658MOL0     H86809   1.069   1.630  10.950  2.6348 -0.1696  0.3483
  658MOL0     H86810   1.374   1.656  10.713 -0.2842  5.7237 -1.2408
  658MOL0     H86811   1.299   1.531  10.821 -2.4349  0.0187  0.7417
  658MOL0     H86812   1.329   1.650  11.017  0.8586  1.2111  2.3025
  658MOL0     H86813   1.363   1.797  10.935 -1.7638 -0.6050  1.2963
  658MOL0     H86814   1.541   1.548  10.914  1.8803  0.3645 -1.0532
  658MOL0     H86815   1.584   1.689  10.831  0.4361 -0.0323  0.1928
  658MOL0     H86816   1.520   1.712  11.125  1.8942  0.3168  2.6498
  658MOL0     H86817   1.625   1.816  11.037  1.9192 -0.1011  0.4275
  658MOL0     H86818   1.859   1.777  11.202  2.6091  2.8847 -0.4277
  658MOL0     H86819   2.098   1.829  11.145 -2.6474 -0.9635  2.8059
  658MOL0     H86820   2.415   2.060  10.879  2.6087  1.8578 -1.2874
  658MOL0     H86821   2.620   2.059  10.771 -1.7855  2.2703  1.5455
  658MOL0     H86822   2.963   1.874  10.913  0.1400 -1.9315 -2.3140
  658MOL0     H86823   2.841   1.992  10.963 -0.6711  1.2844 -2.7168
  658MOL0     H86824   2.879   2.128  10.750  0.2170 -1.2789 -0.7683
  658MOL0     H86825   3.008   2.026  10.712  1.2348  1.5496 -2.0505
  658MOL0     H86826   3.131   2.105  10.923  0.0519 -0.0009 -0.3175
  658MOL0     H86827   2.978   2.196  10.959 -0.5652  5.5166 -2.4649
  658MOL0     H86828   3.138   2.251  10.710 -3.7849  0.0104 -2.5801
  658MOL0     H86829   3.014   2.343  10.772  0.9419  0.7756 -1.6073
  658MOL0     H86830   3.244   2.437  10.831 -2.8449  1.2941 -1.3817
  658MOL0     H86831   3.273   2.288  10.920  1.9497  0.7706 -1.9233
  658MOL0     H86832   3.120   2.340  11.090  0.8243 -1.6026 -1.8987
  658MOL0     H86833   3.030   2.455  10.996 -0.3610 -2.2391  0.8625
  658MOL0     H86834   3.181   2.555  11.186  2.3145  0.7308  0.7791
  658MOL0     H86835   3.325   2.517  11.093  1.0180  2.9524 -1.3120
  658MOL0     H86836   3.113   2.708  11.044 -0.9821 -2.4189  0.9759
  658MOL0     H86837   3.182   2.646  10.899  0.3150  2.4277 -0.8185
  658MOL0     H86838   2.700   1.669  10.937  3.0004  1.3882 -1.4257
  658MOL0     H86839   2.477   1.651  11.006  0.8840  0.7005 -0.0033
  658MOL0     H86840   2.031   1.614  10.769 -2.6730  2.5869 -1.6695
  658MOL0     H86841   1.810   1.569  10.832 -1.0417  1.3808 -1.6690
  658MOL0     H86842   0.951   0.977  10.524  3.4514  2.2486  1.7666
  658MOL0     H86843   1.168   0.854  10.483  3.3100  0.7162 -0.4281
  658MOL0     H86844   1.389   0.575  10.301 -0.0108 -2.5385  0.7130
  658MOL0     H86845   1.589   0.429  10.319  0.2170  1.0941  0.6900
  658MOL0     H86846   1.914   0.511  10.007  0.9967 -1.6378 -0.8901
  658MOL0     H86847   2.001   0.391  10.099 -1.4790 -1.4315 -0.1940
  658MOL0     H86848   2.088   0.612  10.163  1.0339  0.8214  0.6178
  658MOL0     H86849   1.931   0.674  10.212  0.5418 -0.4781  2.7402
  658MOL0     H86850   2.071   0.439  10.345 -0.2066 -0.3533  4.3951
  658MOL0     H86851   1.902   0.502  10.355 -0.3383  3.2015 -0.0460
  658MOL0     H86852   2.030   0.721  10.433 -2.1042 -0.4530  1.5157
  658MOL0     H86853   2.058   0.575  10.537 -2.6490 -1.8260 -0.6604
  658MOL0     H86854   2.427   0.674  10.358  0.6690  3.8164  4.5883
  658MOL0     H86855   1.745   0.626   9.964  1.9223  0.3483  0.6655
  658MOL0     H86856   1.556   0.755   9.958 -1.6904 -1.5837 -0.6696
  659MOL0     O86857   5.050   3.597   8.319  0.2364  0.2144  0.0403
  659MOL0     C86858   5.066   3.510   8.229 -0.4645  1.0057 -1.2993
  659MOL0     O86859   4.982   3.416   8.190 -0.2368 -0.0772 -0.1204
  659MOL0     C86860   4.877   3.399   8.279 -0.5129 -0.0100  0.2776
  659MOL0     C86861   4.895   3.302   8.375 -0.2996 -1.0145 -0.0285
  659MOL0     C86862   4.786   3.274   8.456 -0.1385 -0.7118 -0.4897
  659MOL0     C86863   4.667   3.343   8.445 -0.0399 -0.4251 -1.2410
  659MOL0     O86864   4.549   3.314   8.514 -0.6954 -0.7244 -0.6215
  659MOL0     C86865   4.568   3.236   8.632 -1.0415 -0.8200 -0.1393
  659MOL0     C86866   4.436   3.218   8.707 -0.6024 -0.1891  0.7986
  659MOL0     C86867   4.331   3.134   8.632 -0.0846  0.1620 -0.1690
  659MOL0     C86868   4.189   3.120   8.677  0.7158  0.8166 -0.2051
  659MOL0     C86869   4.172   3.009   8.791 -0.3591 -0.0920 -0.7579
  659MOL0     C86870   4.026   2.994   8.840  0.6363 -0.4591 -0.2657
  659MOL0     C86871   4.025   2.874   8.932  0.2997  0.9444  0.5078
  659MOL0     C86872   3.894   2.861   9.007  0.2354 -0.5408 -0.6044
  659MOL0     N86873   3.886   2.723   9.081  0.1524 -0.8616 -0.0087
  659MOL0     C86874   3.846   2.610   9.016  0.0663  1.0460  0.4615
  659MOL0     C86875   3.855   2.512   9.107  0.0878  0.2231 -0.1466
  659MOL0     C86876   3.813   2.374   9.088 -1.0882  0.0397 -0.4961
  659MOL0     C86877   3.666   2.352   9.135 -0.1896  0.6337 -0.2816
  659MOL0     C86878   3.639   2.384   9.282  0.1819 -0.2853  0.8520
  659MOL0     C86879   3.487   2.362   9.310 -0.0734  0.8989 -0.4235
  659MOL0     O86880   3.453   2.431   9.434  0.5641  0.0392 -0.0328
  659MOL0     C86881   3.333   2.420   9.497 -0.0036  0.0999 -0.4726
  659MOL0     C86882   3.333   2.377   9.630  0.8707 -0.7146  0.6201
  659MOL0     C86883   3.228   2.380   9.715  1.0035  0.1568  0.6494
  659MOL0     C86884   3.099   2.409   9.666  0.3493 -0.2486 -0.2543
  659MOL0     C86885   2.979   2.398   9.747 -0.0983 -0.2680 -0.8203
  659MOL0     O86886   2.869   2.391   9.673  0.0590 -0.5996  0.0721
  659MOL0     C86887   2.742   2.365   9.718 -0.4108  0.3134  0.1329
  659MOL0     C86888   2.633   2.440   9.663 -0.1739  0.4350  0.4716
  659MOL0     C86889   2.504   2.413   9.707  0.0319 -0.7037 -0.4839
  659MOL0     C86890   2.483   2.316   9.812 -0.2720 -0.0413 -0.6046
  659MOL0     O86891   2.355   2.292   9.834 -0.0800 -0.1824 -0.5659
  659MOL0     C86892   2.306   2.159   9.840  0.3469 -0.1494 -0.2494
  659MOL0     C86893   2.169   2.156   9.770  0.4472 -0.2584  0.8538
  659MOL0     C86894   2.190   2.123   9.620  0.1788 -0.5333 -0.2817
  659MOL0     C86895   2.283   2.220   9.543  0.0687  0.4678 -1.0594
  659MOL0     C86896   2.313   2.183   9.404  0.0747 -0.1418 -0.3194
  659MOL0     C86897   2.411   2.288   9.348  1.1756  0.0366  0.5086
  659MOL0     C86898   2.464   2.255   9.216  0.7868  0.6422 -0.0151
  659MOL0     C86899   2.551   2.370   9.156 -0.5817  0.9993 -0.4798
  659MOL0    Cl86900   2.441   2.504   9.095  0.3075 -0.0974  0.0008
  659MOL0     C86901   2.593   2.248   9.867  0.9391 -0.6518 -0.7477
  659MOL0     C86902   2.718   2.272   9.824 -1.5205  0.9663  0.2944
  659MOL0     O86903   2.987   2.386   9.872 -0.3926 -0.2050 -0.5139
  659MOL0     C86904   3.091   2.437   9.528  0.1099 -0.4919  0.8626
  659MOL0     C86905   3.206   2.450   9.451  0.2778 -0.2740 -0.3765
  659MOL0     N86906   3.916   2.571   9.226  0.6913 -0.3828  0.3728
  659MOL0     N86907   3.923   2.699   9.207  0.8956  1.2674 -0.4736
  659MOL0     C86908   4.660   3.447   8.348  0.6908  1.0178 -0.6448
  659MOL0     C86909   4.759   3.467   8.254 -0.7863 -0.0277 -0.0596
  659MOL0     C86910   5.197   3.521   8.158  0.4090  0.8736  0.3203
  659MOL0     C86911   5.282   3.630   8.192 -0.2162 -0.1349  0.2767
  659MOL0     C86912   5.406   3.649   8.126  0.3571 -1.2414 -0.0197
  659MOL0     C86913   5.446   3.569   8.024  0.0333  0.4793  0.9271
  659MOL0     O86914   5.575   3.598   7.972  0.0124  0.2752  0.2941
  659MOL0     C86915   5.633   3.511   7.873 -0.2870  0.3862  1.1064
  659MOL0     C86916   5.693   3.386   7.932 -0.3207 -0.4392  0.8612
  659MOL0     C86917   5.790   3.417   8.041  0.6495  0.3774  0.4019
  659MOL0     C86918   5.821   3.301   8.124  0.1051 -0.7483  0.5088
  659MOL0     C86919   5.882   3.192   8.039 -0.3616 -0.0346  0.6835
  659MOL0     C86920   5.945   3.100   7.985  0.3495 -0.0229  0.8666
  659MOL0     C86921   5.358   3.459   7.986  0.2091  0.6005 -0.3654
  659MOL0     C86922   5.234   3.443   8.048  0.7133  1.0170 -0.5783
  659MOL0     H86923   4.992   3.255   8.388 -0.0346 -0.7139 -0.8465
  659MOL0     H86924   4.821   3.199   8.526  2.9692 -1.2845 -2.4510
  659MOL0     H86925   4.637   3.279   8.705 -0.1430 -3.4230  0.6666
  659MOL0     H86926   4.603   3.135   8.610 -2.4975 -0.9960 -1.8556
  659MOL0     H86927   4.395   3.317   8.731 -0.0800  0.3712 -0.5123
  659MOL0     H86928   4.471   3.166   8.796  1.3921 -0.2335  0.0425
  659MOL0     H86929   4.367   3.035   8.603 -1.4626 -0.5975  0.6170
  659MOL0     H86930   4.313   3.181   8.535  0.7663  0.5160 -0.1627
  659MOL0     H86931   4.153   3.216   8.715  0.8650  1.9878 -2.8078
  659MOL0     H86932   4.127   3.093   8.591  1.6882 -0.3005 -0.5729
  659MOL0     H86933   4.239   3.051   8.867 -0.1240 -1.1874 -0.3394
  659MOL0     H86934   4.220   2.917   8.756 -1.6798 -0.4053 -1.7945
  659MOL0     H86935   3.967   2.977   8.749 -2.3892 -0.6167  1.5906
  659MOL0     H86936   3.999   3.095   8.874 -3.1176 -1.3147 -0.2705
  659MOL0     H86937   4.050   2.787   8.870 -1.1429 -0.2365  1.5374
  659MOL0     H86938   4.108   2.894   9.000  1.1287  1.3576 -0.5935
  659MOL0     H86939   3.809   2.859   8.939 -0.0630  0.5114 -0.2720
  659MOL0     H86940   3.877   2.949   9.070  3.1834  1.3666 -2.2336
  659MOL0     H86941   3.797   2.619   8.919 -1.2453  4.5320  1.3217
  659MOL0     H86942   3.884   2.313   9.145  0.1845  1.8230 -0.0920
  659MOL0     H86943   3.826   2.362   8.980 -0.0333  4.6191 -1.0784
  659MOL0     H86944   3.631   2.249   9.126  1.6331 -0.0083 -0.3914
  659MOL0     H86945   3.596   2.416   9.079 -3.7934 -1.1905  1.7633
  659MOL0     H86946   3.692   2.319   9.353 -0.6977  0.8741  2.6261
  659MOL0     H86947   3.660   2.489   9.305  0.3837  1.2279 -4.6591
  659MOL0     H86948   3.477   2.254   9.320 -0.7981  1.0643  0.9619
  659MOL0     H86949   3.419   2.376   9.225  0.0276 -0.9608 -0.8607
  659MOL0     H86950   3.422   2.334   9.674  0.8122 -1.5007 -0.0079
  659MOL0     H86951   3.242   2.342   9.816  1.3300 -2.6194 -0.3626
  659MOL0     H86952   2.639   2.520   9.590  0.5286 -2.8431 -3.4112
  659MOL0     H86953   2.427   2.469   9.654  0.4229  1.7661  1.3884
  659MOL0     H86954   2.290   2.144   9.947  3.0514  0.5754  0.3313
  659MOL0     H86955   2.374   2.085   9.799  0.2353  0.3470 -1.3857
  659MOL0     H86956   2.105   2.241   9.795 -0.8639 -1.6677  2.5250
  659MOL0     H86957   2.104   2.081   9.815  0.7413 -0.7120  0.5309
  659MOL0     H86958   2.094   2.112   9.568  0.7529 -0.7890 -1.3129
  659MOL0     H86959   2.232   2.022   9.618 -2.0148 -1.5481  0.8874
  659MOL0     H86960   2.233   2.317   9.551 -1.5924 -0.4483  0.6099
  659MOL0     H86961   2.380   2.223   9.594  1.2309 -2.1999 -2.8778
  659MOL0     H86962   2.224   2.192   9.341 -1.2850  0.2571  1.5645
  659MOL0     H86963   2.368   2.088   9.397  2.2783  0.8499  2.0254
  659MOL0     H86964   2.491   2.310   9.420  2.4488  0.6833 -1.0309
  659MOL0     H86965   2.350   2.378   9.333  1.5974  0.4821  1.3768
  659MOL0     H86966   2.514   2.159   9.229 -0.8541 -0.1911  0.3218
  659MOL0     H86967   2.388   2.236   9.140 -0.8042  3.5411  0.7229
  659MOL0     H86968   2.609   2.336   9.069 -0.5997  1.5591 -0.7184
  659MOL0     H86969   2.626   2.403   9.228 -1.9405 -1.6542  2.4117
  659MOL0     H86970   2.581   2.161   9.931 -1.8203 -2.7386 -3.8071
  659MOL0     H86971   2.805   2.219   9.863 -0.5594  1.2754 -1.3240
  659MOL0     H86972   3.002   2.470   9.475  1.1386  1.1239  0.0498
  659MOL0     H86973   3.204   2.479   9.346 -1.6291 -1.2248 -0.6431
  659MOL0     H86974   4.568   3.501   8.330  0.9744  2.0526  0.8308
  659MOL0     H86975   4.763   3.547   8.181  1.2066  0.5630  0.6065
  659MOL0     H86976   5.255   3.710   8.261 -0.5659  2.3480 -2.5599
  659MOL0     H86977   5.466   3.732   8.163 -1.0418  0.3022 -1.0899
  659MOL0     H86978   5.705   3.574   7.821 -2.2514 -0.3561 -2.9166
  659MOL0     H86979   5.553   3.482   7.804 -0.1068  1.0691  0.6038
  659MOL0     H86980   5.605   3.332   7.968 -1.0522 -1.0622 -1.6537
  659MOL0     H86981   5.746   3.327   7.856  0.6084  2.9351 -1.3101
  659MOL0     H86982   5.729   3.484   8.102 -2.3021 -1.4795 -0.2794
  659MOL0     H86983   5.887   3.457   8.012  0.3846 -0.9776 -2.7927
  659MOL0     H86984   5.898   3.339   8.193 -0.1092 -2.2250  1.6339
  659MOL0     H86985   5.731   3.269   8.177  0.0123 -0.2948  0.6238
  659MOL0     H86986   6.007   3.018   7.954  2.0557  1.2989  0.6075
  659MOL0     H86987   5.383   3.396   7.902 -0.9695  0.7744 -0.8580
  659MOL0     H86988   5.155   3.374   8.020 -0.8636  2.9157 -1.0395
  660MOL0     O86989   4.629   1.820  10.877  0.9217  0.0434 -0.4443
  660MOL0     C86990   4.601   1.723  10.803 -0.5544  0.6507 -0.4435
  660MOL0     O86991   4.495   1.637  10.827  1.0518 -0.0579 -0.7642
  660MOL0     C86992   4.442   1.630  10.957 -0.9275  0.1417 -0.7324
  660MOL0     C86993   4.470   1.513  11.035  0.0582 -0.0405  0.0503
  660MOL0     C86994   4.410   1.487  11.160  0.3861 -0.0049  0.3148
  660MOL0     C86995   4.326   1.586  11.207  0.1032 -0.4599 -0.0139
  660MOL0     O86996   4.266   1.576  11.333  0.2624  0.2758  0.3452
  660MOL0     C86997   4.125   1.592  11.347  0.3885  0.4536  0.5422
  660MOL0     C86998   4.072   1.483  11.436  0.6161 -0.5808  0.5451
  660MOL0     C86999   4.114   1.492  11.581  0.2194  0.3654 -0.2881
  660MOL0     C87000   4.085   1.369  11.667  0.3027 -0.3457 -0.5732
  660MOL0     C87001   4.093   1.403  11.818  0.5458  0.6875  0.1565
  660MOL0     C87002   4.237   1.410  11.882 -1.0089  0.1031  0.2254
  660MOL0     C87003   4.230   1.395  12.044 -0.1496 -0.2204  1.3075
  660MOL0     C87004   4.374   1.389  12.102 -0.2244 -0.9191 -1.0783
  660MOL0     N87005   4.370   1.343  12.244 -0.0790 -1.1275  0.1181
  660MOL0     C87006   4.434   1.240  12.297 -0.9232  0.9560 -0.2863
  660MOL0     C87007   4.373   1.204  12.408 -0.2821  0.4674  0.2784
  660MOL0     C87008   4.420   1.094  12.508  0.2836 -0.5966  0.1528
  660MOL0     C87009   4.521   1.130  12.615  1.0724  0.3115 -0.1523
  660MOL0     C87010   4.498   1.028  12.741 -0.2029 -0.3831  0.4913
  660MOL0     C87011   4.371   1.041  12.828 -0.6739 -0.8499 -0.4805
  660MOL0     O87012   4.365   1.184  12.865  0.5064  0.0861  0.4085
  660MOL0     C87013   4.237   1.246  12.854 -0.1939  0.0651  0.6403
  660MOL0     C87014   4.220   1.370  12.796 -1.2918  0.7164 -0.2628
  660MOL0     C87015   4.097   1.426  12.791 -0.2563 -0.6167 -0.3345
  660MOL0     C87016   3.986   1.357  12.835  0.7021  0.0136 -0.4198
  660MOL0     C87017   3.847   1.423  12.823  0.3540  0.1740 -0.4992
  660MOL0     O87018   3.740   1.357  12.876  0.5218 -0.4046  0.1410
  660MOL0     C87019   3.617   1.416  12.860  0.3712 -0.7289  0.1982
  660MOL0     C87020   3.596   1.537  12.915  0.0165 -0.7423 -0.3984
  660MOL0     C87021   3.481   1.599  12.887  0.3297  0.6595  0.7047
  660MOL0     C87022   3.381   1.542  12.802 -0.0769  0.2851  0.3346
  660MOL0     O87023   3.272   1.615  12.774  0.6143  0.2018 -0.7161
  660MOL0     C87024   3.275   1.675  12.647 -0.8661  1.1367  0.0590
  660MOL0     C87025   3.155   1.756  12.617  0.1582  0.0258  0.2789
  660MOL0     C87026   3.098   1.835  12.734 -0.8457 -0.8882  0.8453
  660MOL0     C87027   3.205   1.952  12.765  0.5014  0.0948 -0.2886
  660MOL0     C87028   3.184   2.004  12.910  0.0882 -0.0783 -0.4560
  660MOL0     C87029   3.286   2.110  12.955 -0.1389  1.0789  0.5108
  660MOL0     C87030   3.288   2.224  12.853 -0.7232  0.4576 -0.6223
  660MOL0     C87031   3.409   2.223  12.760  1.2636 -0.5090 -1.0954
  660MOL0    Cl87032   3.369   2.298  12.601 -0.9101  0.2554  0.2189
  660MOL0     C87033   3.401   1.417  12.754  0.9295  0.8340 -0.1655
  660MOL0     C87034   3.518   1.351  12.790 -0.0594  0.2346 -0.0686
  660MOL0     O87035   3.843   1.528  12.765  0.6203 -0.5526  0.5169
  660MOL0     C87036   4.002   1.233  12.894 -0.4629  0.0821  0.7572
  660MOL0     C87037   4.123   1.183  12.909 -1.1060  0.1098 -0.3671
  660MOL0     N87038   4.283   1.306  12.435 -0.4567  0.7368 -0.5874
  660MOL0     N87039   4.286   1.389  12.335 -0.4672  0.3642 -0.2364
  660MOL0     C87040   4.302   1.707  11.130  0.3912  0.5478  0.1088
  660MOL0     C87041   4.364   1.735  11.010  0.5750  0.2002  0.6350
  660MOL0     C87042   4.680   1.683  10.682 -0.6768 -0.2354  0.4272
  660MOL0     C87043   4.761   1.774  10.618 -0.4956  0.1654 -0.0153
  660MOL0     C87044   4.830   1.732  10.498 -0.1082 -0.7291 -0.7941
  660MOL0     C87045   4.815   1.607  10.441  0.1422  0.4335  1.3171
  660MOL0     O87046   4.893   1.571  10.332  0.3660  0.2719  0.0128
  660MOL0     C87047   4.877   1.661  10.216 -0.5203  0.1940 -0.0367
  660MOL0     C87048   4.983   1.771  10.198 -0.9495 -0.2465 -1.5474
  660MOL0     C87049   5.123   1.718  10.222  0.0954 -0.3069 -0.2298
  660MOL0     C87050   5.230   1.818  10.179 -0.2885 -0.8577  1.0940
  660MOL0     C87051   5.242   1.846  10.031 -0.0985 -0.4039 -0.4686
  660MOL0     C87052   5.236   1.873   9.910  0.0672 -0.4722 -0.4100
  660MOL0     C87053   4.723   1.518  10.503 -0.3808  0.1852  0.0790
  660MOL0     C87054   4.658   1.559  10.621  0.3743 -0.1387 -0.0994
  660MOL0     H87055   4.533   1.444  10.980 -0.3995 -0.0171 -0.5163
  660MOL0     H87056   4.407   1.391  11.210 -1.4337  0.6758  1.5884
  660MOL0     H87057   4.085   1.584  11.245  5.1564 -1.8835 -1.4785
  660MOL0     H87058   4.106   1.691  11.389 -0.2259  0.0620  1.2028
  660MOL0     H87059   4.099   1.386  11.391  0.0307 -1.0436  1.1685
  660MOL0     H87060   3.963   1.492  11.437  0.7470  1.2839  0.6733
  660MOL0     H87061   4.066   1.577  11.629  1.2359  0.0653  1.3195
  660MOL0     H87062   4.219   1.521  11.575  0.9088 -2.1040 -5.2304
  660MOL0     H87063   3.983   1.343  11.636 -0.7405  0.6336  1.7770
  660MOL0     H87064   4.158   1.290  11.648  2.1082 -0.4910  5.1528
  660MOL0     H87065   4.045   1.325  11.878  1.4825  1.9806  2.7815
  660MOL0     H87066   4.034   1.492  11.841 -1.7475 -1.1192  1.7744
  660MOL0     H87067   4.291   1.497  11.843 -0.8020 -0.0605  0.1449
  660MOL0     H87068   4.297   1.325  11.848  3.4221  2.8902  0.3604
  660MOL0     H87069   4.161   1.471  12.083 -1.3284 -0.5238 -0.0752
  660MOL0     H87070   4.195   1.294  12.066 -2.0967  0.2861  0.7373
  660MOL0     H87071   4.409   1.493  12.102  1.9054 -1.4818  2.7234
  660MOL0     H87072   4.436   1.326  12.038 -0.0892 -1.4675 -0.4215
  660MOL0     H87073   4.515   1.180  12.256 -3.6630 -3.7473  0.5523
  660MOL0     H87074   4.456   1.005  12.456  0.1707 -0.9142  0.6218
  660MOL0     H87075   4.327   1.059  12.552  0.9282  0.0387  2.1260
  660MOL0     H87076   4.505   1.236  12.637  0.5857  0.8250 -2.6830
  660MOL0     H87077   4.622   1.124  12.574 -0.1010  1.0628 -3.4519
  660MOL0     H87078   4.502   0.922  12.711 -0.2879 -0.2655  0.0575
  660MOL0     H87079   4.584   1.037  12.809 -1.2828  1.2675  1.6908
  660MOL0     H87080   4.387   0.978  12.916  1.3946  0.8952  0.5028
  660MOL0     H87081   4.290   1.012  12.761 -2.2583  0.3576  0.8087
  660MOL0     H87082   4.309   1.420  12.758 -1.0477  1.9302  1.7769
  660MOL0     H87083   4.089   1.523  12.743 -2.8267 -1.6688 -2.3084
  660MOL0     H87084   3.675   1.586  12.971  0.6229 -3.5212  1.3587
  660MOL0     H87085   3.451   1.690  12.938 -2.1602  0.4995 -0.3062
  660MOL0     H87086   3.284   1.608  12.562  0.4009  2.7194 -1.1269
  660MOL0     H87087   3.362   1.740  12.632  1.9980 -2.4174 -0.0568
  660MOL0     H87088   3.072   1.689  12.594 -1.1901  0.2521  3.7432
  660MOL0     H87089   3.172   1.816  12.527 -1.9573 -1.5993 -1.3149
  660MOL0     H87090   3.080   1.765  12.816 -1.0579 -0.6303  1.0210
  660MOL0     H87091   3.002   1.879  12.707 -0.0595  1.3380  1.4493
  660MOL0     H87092   3.309   1.917  12.758  0.2912 -0.7841  0.7515
  660MOL0     H87093   3.186   2.038  12.700 -4.0845 -0.3299  0.1578
  660MOL0     H87094   3.197   1.920  12.979  2.7708 -0.8655 -1.7951
  660MOL0     H87095   3.083   2.040  12.934 -0.3547 -0.7094 -1.3164
  660MOL0     H87096   3.384   2.065  12.973 -0.0961  1.7821  2.1902
  660MOL0     H87097   3.262   2.147  13.054 -1.7707  1.3486  0.0387
  660MOL0     H87098   3.202   2.208  12.788  0.9467 -2.0855 -2.3892
  660MOL0     H87099   3.270   2.323  12.897  1.1189  1.3015 -1.6123
  660MOL0     H87100   3.419   2.115  12.744  0.0963 -0.4269 -2.7386
  660MOL0     H87101   3.492   2.265  12.816 -0.3866 -0.8041  1.7704
  660MOL0     H87102   3.329   1.385  12.680  1.9724 -1.5856 -0.2362
  660MOL0     H87103   3.539   1.258  12.739  2.7468  0.2018  0.9727
  660MOL0     H87104   3.914   1.178  12.926 -1.4215 -0.3727 -2.3707
  660MOL0     H87105   4.137   1.099  12.977 -0.7376  1.8333  1.8257
  660MOL0     H87106   4.245   1.788  11.173 -1.0352 -2.2867  4.2371
  660MOL0     H87107   4.365   1.833  10.963  0.1434  0.5209  1.2760
  660MOL0     H87108   4.766   1.873  10.662 -3.5485  1.3386 -2.0296
  660MOL0     H87109   4.894   1.804  10.447 -0.0870  0.7882  1.2656
  660MOL0     H87110   4.785   1.717  10.199 -0.0269  0.2248 -3.1251
  660MOL0     H87111   4.884   1.590  10.133 -1.6592  1.0960 -0.9421
  660MOL0     H87112   4.975   1.794  10.092 -0.7182 -0.0120 -1.5139
  660MOL0     H87113   4.952   1.851  10.266 -0.7302 -0.6621 -0.9451
  660MOL0     H87114   5.145   1.627  10.164 -3.4346 -3.2302  2.5203
  660MOL0     H87115   5.132   1.682  10.325  1.6970 -2.8042 -1.1248
  660MOL0     H87116   5.214   1.913  10.230 -1.0602  0.7176 -1.8830
  660MOL0     H87117   5.324   1.776  10.217  0.6899 -0.7660 -1.1048
  660MOL0     H87118   5.258   1.920   9.816 -1.6122 -2.8349 -2.1148
  660MOL0     H87119   4.700   1.415  10.477 -1.4985 -0.3301  2.7700
  660MOL0     H87120   4.579   1.492  10.654  2.2673 -2.5050 -0.0590
  661MOL0     O87121   0.474   8.490   8.156 -0.1275 -0.3143 -0.4737
  661MOL0     C87122   0.453   8.499   8.277 -0.2301  0.3447  1.0984
  661MOL0     O87123   0.330   8.539   8.325  0.2581  0.0808  0.8267
  661MOL0     C87124   0.227   8.577   8.248 -0.5146 -0.6311 -0.5322
  661MOL0     C87125   0.158   8.503   8.155  0.4653 -0.1401 -0.0872
  661MOL0     C87126   0.071   8.570   8.062 -0.8310  0.3974 -0.4139
  661MOL0     C87127   0.048   8.705   8.062  1.2334  0.2909 -0.2976
  661MOL0     O87128  -0.027   8.748   7.959  0.2975  0.0669  0.5571
  661MOL0     C87129  -0.025   8.875   7.891 -0.0036  0.1303 -0.1170
  661MOL0     C87130  -0.105   8.844   7.772  0.2310 -1.2854 -0.0456
  661MOL0     C87131  -0.160   8.964   7.691 -0.5419  0.5469  0.6295
  661MOL0     C87132  -0.264   8.913   7.588 -0.0620  0.0197 -0.4622
  661MOL0     C87133  -0.269   9.004   7.465 -0.6386 -0.1220 -0.8399
  661MOL0     C87134  -0.409   8.997   7.398  0.3882 -0.1009  0.4971
  661MOL0     C87135  -0.396   9.045   7.247 -0.6616  0.0092 -0.7085
  661MOL0     C87136  -0.536   9.061   7.182 -0.3673  0.5573 -0.4111
  661MOL0     N87137  -0.631   9.141   7.258  0.2529  0.2749  0.1644
  661MOL0     C87138  -0.608   9.254   7.322  0.7341 -0.7047 -0.4675
  661MOL0     C87139  -0.724   9.282   7.381  0.2534  0.0222 -0.0515
  661MOL0     C87140  -0.769   9.412   7.453 -0.5936  0.5206  0.3162
  661MOL0     C87141  -0.810   9.514   7.344 -0.0368  0.0625 -0.8297
  661MOL0     C87142  -0.862   9.652   7.400 -0.7702  0.4642 -1.1447
  661MOL0     C87143  -0.901   9.749   7.295  0.6687 -0.3691 -0.5728
  661MOL0     O87144  -0.801   9.762   7.192  0.5795  0.2545  0.3658
  661MOL0     C87145  -0.852   9.778   7.067 -0.7437 -0.3277  0.6449
  661MOL0     C87146  -0.844   9.669   6.979 -0.4251 -0.6571  0.1557
  661MOL0     C87147  -0.879   9.691   6.849 -0.4894 -0.2101 -0.2442
  661MOL0     C87148  -0.935   9.804   6.802  0.6547 -0.0796  0.4850
  661MOL0     C87149  -0.980   9.820   6.660 -0.3538 -0.2343  0.1570
  661MOL0     O87150  -0.981   9.948   6.622 -1.2645 -0.4348  0.3655
  661MOL0     C87151  -0.999   9.980   6.488  0.5344  0.3919  0.7078
  661MOL0     C87152  -1.108  10.067   6.452  0.7586  0.6471  0.0938
  661MOL0     C87153  -1.137  10.091   6.317 -0.4331  0.0901  0.5507
  661MOL0     C87154  -1.059  10.035   6.215 -0.8600 -0.2831  1.0102
  661MOL0     O87155  -1.077  10.080   6.087  0.1798  0.7146 -0.4584
  661MOL0     C87156  -1.196  10.038   6.026  0.9718 -0.4960  0.3505
  661MOL0     C87157  -1.227  10.147   5.916 -0.4483  0.8116 -0.0073
  661MOL0     C87158  -1.355  10.118   5.829  0.2224 -0.0315  0.1182
  661MOL0     C87159  -1.467  10.061   5.908 -0.5550  0.1781 -0.3064
  661MOL0     C87160  -1.512  10.157   6.020 -0.2971  0.3319 -0.5046
  661MOL0     C87161  -1.622  10.251   5.964  0.6609  0.1640 -0.3294
  661MOL0     C87162  -1.757  10.187   5.930  0.0596 -0.0708 -0.2092
  661MOL0     C87163  -1.805  10.225   5.794  0.4820 -0.0154  0.3338
  661MOL0    Cl87164  -1.962  10.139   5.754  0.1468  0.2469 -0.2166
  661MOL0     C87165  -0.953   9.951   6.248 -0.0159 -0.2866  0.1391
  661MOL0     C87166  -0.924   9.920   6.387  0.3138 -0.2400 -0.2959
  661MOL0     O87167  -1.011   9.721   6.596  0.4178  0.0965  0.6459
  661MOL0     C87168  -0.944   9.904   6.891  0.0981  0.4789 -0.1351
  661MOL0     C87169  -0.897   9.898   7.026  0.3881 -0.0448 -0.3152
  661MOL0     N87170  -0.812   9.193   7.353  0.7788  0.1876 -0.4043
  661MOL0     N87171  -0.764   9.109   7.277 -0.3453 -0.0938 -0.5458
  661MOL0     C87172   0.113   8.783   8.159  0.5127  0.6107 -0.3390
  661MOL0     C87173   0.195   8.709   8.253 -0.1667 -2.1253  0.4517
  661MOL0     C87174   0.567   8.461   8.373 -1.8616 -0.6956 -0.4252
  661MOL0     C87175   0.565   8.511   8.502 -0.9740  0.6339 -0.9704
  661MOL0     C87176   0.662   8.489   8.597 -0.3283  0.2524 -0.3772
  661MOL0     C87177   0.769   8.413   8.559  0.6860 -0.0740 -0.4344
  661MOL0     O87178   0.891   8.400   8.634  0.6058 -0.1230  0.9485
  661MOL0     C87179   0.888   8.444   8.769 -0.3294 -0.2521  0.8142
  661MOL0     C87180   1.007   8.387   8.845 -0.1147  0.0003  0.0496
  661MOL0     C87181   0.991   8.232   8.849 -0.6821 -0.2907 -0.6195
  661MOL0     C87182   1.068   8.178   8.966  0.2350 -0.2721 -0.5170
  661MOL0     C87183   1.160   8.071   8.926 -0.7406 -0.7681  0.1651
  661MOL0     C87184   1.235   7.990   8.886  0.1451  0.0449 -0.3957
  661MOL0     C87185   0.777   8.364   8.431  0.4789 -0.0650 -0.3599
  661MOL0     C87186   0.681   8.387   8.339 -0.7127  0.9886  0.4402
  661MOL0     H87187   0.171   8.395   8.144 -0.1679 -0.0849 -1.4909
  661MOL0     H87188   0.042   8.512   7.975 -1.3232  1.6738 -1.1385
  661MOL0     H87189   0.074   8.912   7.865 -1.2786  3.0151 -1.2891
  661MOL0     H87190  -0.079   8.949   7.950 -0.9440 -1.5906  1.2787
  661MOL0     H87191  -0.196   8.810   7.821 -1.3070  0.2157 -1.7015
  661MOL0     H87192  -0.079   8.768   7.696 -2.7651  0.0632 -2.6268
  661MOL0     H87193  -0.074   9.007   7.640  1.7777 -1.0300  2.9208
  661MOL0     H87194  -0.196   9.036   7.765 -0.7703  0.1768  0.8824
  661MOL0     H87195  -0.240   8.811   7.555 -1.3485  0.3893 -2.7951
  661MOL0     H87196  -0.361   8.901   7.635 -1.2477  0.7973 -2.5672
  661MOL0     H87197  -0.201   8.961   7.391 -1.2858 -0.1675 -1.4182
  661MOL0     H87198  -0.250   9.110   7.484 -3.4801  0.1963  0.8507
  661MOL0     H87199  -0.481   9.056   7.454 -0.2784 -0.3973 -0.0260
  661MOL0     H87200  -0.439   8.892   7.389 -1.1236  0.2577  1.1314
  661MOL0     H87201  -0.347   9.143   7.243  3.0380 -1.4099  2.9008
  661MOL0     H87202  -0.334   8.974   7.192  0.2076  0.0411  0.1983
  661MOL0     H87203  -0.574   8.960   7.162  0.3308  0.2251 -0.0948
  661MOL0     H87204  -0.528   9.109   7.083 -2.8962  1.8807 -0.0385
  661MOL0     H87205  -0.516   9.310   7.330  1.8355 -2.5779  0.6676
  661MOL0     H87206  -0.684   9.446   7.514 -0.0099  0.7551 -0.6116
  661MOL0     H87207  -0.849   9.393   7.525  0.7618 -1.1500  1.4671
  661MOL0     H87208  -0.874   9.475   7.265  0.8372 -0.7583 -1.1446
  661MOL0     H87209  -0.720   9.536   7.287  0.8618 -1.5295 -0.0867
  661MOL0     H87210  -0.950   9.637   7.464 -0.6128  0.0767 -1.0186
  661MOL0     H87211  -0.782   9.690   7.464 -0.3916 -1.1227 -0.6413
  661MOL0     H87212  -0.918   9.843   7.349  0.1502  0.4717 -2.1142
  661MOL0     H87213  -0.992   9.710   7.250  0.1655  0.4562 -0.3079
  661MOL0     H87214  -0.805   9.572   7.008 -2.5996 -0.5293  4.2386
  661MOL0     H87215  -0.883   9.607   6.780 -1.7490  0.6631 -1.2934
  661MOL0     H87216  -1.188  10.097   6.519  0.1203 -0.7766  0.0178
  661MOL0     H87217  -1.223  10.149   6.283  1.1770  0.4949 -3.2891
  661MOL0     H87218  -1.276  10.041   6.101  0.8175  2.8095  0.1968
  661MOL0     H87219  -1.192   9.936   5.985  2.1496 -0.7698  1.0886
  661MOL0     H87220  -1.132  10.151   5.862 -0.6994  2.0957 -0.3874
  661MOL0     H87221  -1.233  10.240   5.973  1.3778  0.5500  0.7045
  661MOL0     H87222  -1.314  10.054   5.750  2.3645  1.7883 -0.3679
  661MOL0     H87223  -1.388  10.213   5.785 -2.3113  0.0842  2.0372
  661MOL0     H87224  -1.548  10.036   5.839  0.8650  0.9667 -2.3530
  661MOL0     H87225  -1.437   9.967   5.955 -2.9154 -0.1018  0.7794
  661MOL0     H87226  -1.432  10.217   6.064  0.3578 -1.4795  0.9256
  661MOL0     H87227  -1.555  10.106   6.107 -0.2825 -0.5900 -1.0236
  661MOL0     H87228  -1.582  10.298   5.873  1.5114 -1.2033 -0.7047
  661MOL0     H87229  -1.640  10.326   6.041  0.2088 -1.0449  0.7808
  661MOL0     H87230  -1.757  10.081   5.959  0.8754  0.9603  4.3944
  661MOL0     H87231  -1.828  10.214   6.009  2.7532 -0.9055  2.7179
  661MOL0     H87232  -1.727  10.195   5.724  2.1279  2.8462  0.7675
  661MOL0     H87233  -1.818  10.334   5.789 -0.7344  0.0682  3.3232
  661MOL0     H87234  -0.893   9.902   6.171  1.4914 -2.2852  2.4538
  661MOL0     H87235  -0.838   9.864   6.422 -1.3048 -0.4362  3.9250
  661MOL0     H87236  -0.984  10.002   6.864  0.3534  0.7753  0.5498
  661MOL0     H87237  -0.895   9.983   7.094  3.0039 -1.8418  2.0610
  661MOL0     H87238   0.083   8.888   8.156 -1.5281  0.0610 -0.5036
  661MOL0     H87239   0.243   8.765   8.332 -1.8818  2.7329 -1.6074
  661MOL0     H87240   0.474   8.561   8.534 -2.7352 -1.8943 -1.6701
  661MOL0     H87241   0.643   8.533   8.694  0.1308 -1.1144  0.3603
  661MOL0     H87242   0.791   8.428   8.816 -0.5847  2.5593  1.4226
  661MOL0     H87243   0.908   8.551   8.780  3.6303 -0.9380  1.8392
  661MOL0     H87244   1.112   8.417   8.834  1.3910 -3.3983  3.1932
  661MOL0     H87245   0.990   8.432   8.943  0.2956  3.3747 -1.2686
  661MOL0     H87246   1.029   8.182   8.759  2.2533  3.4388 -1.7295
  661MOL0     H87247   0.884   8.210   8.855 -0.5522 -2.4815 -3.7868
  661MOL0     H87248   1.127   8.259   9.009  0.9357 -0.7540 -0.5643
  661MOL0     H87249   0.986   8.141   9.029  0.2378 -0.0712 -0.3922
  661MOL0     H87250   1.300   7.910   8.856 -0.4818 -0.0471 -1.5589
  661MOL0     H87251   0.863   8.306   8.399 -0.5422 -0.3862 -2.7200
  661MOL0     H87252   0.705   8.342   8.243 -1.8105  3.0292 -0.8686
  662MOL0     O87253   6.293   7.825   2.120 -0.2208  0.9301  0.3818
  662MOL0     C87254   6.368   7.790   2.030  0.5666  0.5183  1.1389
  662MOL0     O87255   6.491   7.841   1.997 -0.3084 -0.6223 -0.0689
  662MOL0     C87256   6.553   7.937   2.077 -0.0012  0.4004  0.2611
  662MOL0     C87257   6.515   7.990   2.202 -0.2522  0.5955  0.7974
  662MOL0     C87258   6.557   8.108   2.249 -0.2358  0.1918 -0.6544
  662MOL0     C87259   6.667   8.173   2.185  1.4859  0.5989  0.1416
  662MOL0     O87260   6.719   8.284   2.240 -0.3999 -0.2382 -0.7439
  662MOL0     C87261   6.745   8.292   2.381 -0.9974  0.3961 -0.6647
  662MOL0     C87262   6.667   8.391   2.468  0.0686 -0.2511  0.3325
  662MOL0     C87263   6.607   8.310   2.593  1.1634 -0.4187  0.9597
  662MOL0     C87264   6.713   8.262   2.693  0.8022  0.1010  0.5741
  662MOL0     C87265   6.646   8.206   2.823 -0.3620 -0.1543 -0.4557
  662MOL0     C87266   6.748   8.143   2.915 -0.6198 -1.1200  0.5832
  662MOL0     C87267   6.681   8.039   3.012 -0.8257 -0.3726 -1.5654
  662MOL0     C87268   6.780   8.003   3.118 -0.4123  0.3641  0.9852
  662MOL0     N87269   6.721   7.902   3.197 -0.3654 -0.2409  0.3821
  662MOL0     C87270   6.681   7.926   3.327 -0.2652 -0.0364 -0.2102
  662MOL0     C87271   6.640   7.810   3.378  0.3777  0.9138 -0.1205
  662MOL0     C87272   6.591   7.782   3.529 -0.1172  0.3444 -0.1462
  662MOL0     C87273   6.708   7.750   3.626  0.1038 -0.1319 -0.5032
  662MOL0     C87274   6.661   7.810   3.763  0.0310 -0.6363  1.0599
  662MOL0     C87275   6.577   7.722   3.850  0.0134  0.2963  0.7846
  662MOL0     O87276   6.535   7.805   3.958 -0.3934 -0.3029 -0.6310
  662MOL0     C87277   6.591   7.787   4.084 -0.4960 -0.6439  0.0730
  662MOL0     C87278   6.700   7.705   4.119  0.6264  0.0065 -0.4051
  662MOL0     C87279   6.734   7.688   4.255 -0.6125 -0.3517  0.3942
  662MOL0     C87280   6.666   7.749   4.352  0.1553  0.2272 -0.1800
  662MOL0     C87281   6.702   7.728   4.495 -0.4165  0.5571  0.0189
  662MOL0     O87282   6.648   7.821   4.578 -0.3674 -0.1666  0.1354
  662MOL0     C87283   6.674   7.829   4.710  0.3694  0.5157 -0.5590
  662MOL0     C87284   6.798   7.812   4.766  0.0148  0.6147  0.4886
  662MOL0     C87285   6.819   7.813   4.907  0.3155  0.2847  0.4715
  662MOL0     C87286   6.707   7.827   4.996 -0.3184 -0.2275  0.9021
  662MOL0     O87287   6.742   7.854   5.124 -0.1167 -0.2864  0.0681
  662MOL0     C87288   6.641   7.890   5.218 -0.1374 -1.0648 -0.1253
  662MOL0     C87289   6.726   7.952   5.333 -0.8202  0.2282 -1.6734
  662MOL0     C87290   6.793   8.093   5.307  0.8631  0.5974 -0.7333
  662MOL0     C87291   6.861   8.166   5.424 -0.0404  0.0659 -0.7793
  662MOL0     C87292   6.938   8.287   5.372 -0.3312  1.3986 -0.1023
  662MOL0     C87293   7.069   8.303   5.449  0.0700  0.0386  0.0454
  662MOL0     C87294   7.125   8.445   5.422  0.2224 -0.6857  0.8841
  662MOL0     C87295   7.072   8.544   5.540  0.1293 -0.2101  0.6934
  662MOL0    Cl87296   7.132   8.704   5.481 -0.1578  0.2992  0.2470
  662MOL0     C87297   6.585   7.826   4.936  0.2958 -0.1310 -0.4523
  662MOL0     C87298   6.568   7.822   4.800  0.7797 -0.8765 -0.4760
  662MOL0     O87299   6.786   7.643   4.526  0.3672  0.5302  0.7896
  662MOL0     C87300   6.558   7.835   4.315 -0.3803 -0.8137 -0.1395
  662MOL0     C87301   6.533   7.865   4.185  0.4111 -1.0023 -0.3863
  662MOL0     N87302   6.638   7.718   3.270  0.4145 -0.3914 -1.1165
  662MOL0     N87303   6.682   7.774   3.165  0.5746 -0.7842  0.6162
  662MOL0     C87304   6.714   8.124   2.063  0.0889 -1.0618  0.3551
  662MOL0     C87305   6.656   8.006   2.008 -0.2015 -1.3262  0.6876
  662MOL0     C87306   6.310   7.703   1.921  0.1247 -0.4379  0.0490
  662MOL0     C87307   6.170   7.681   1.924 -0.8275 -0.3089  0.0784
  662MOL0     C87308   6.114   7.584   1.844 -0.8793  0.2983  0.2835
  662MOL0     C87309   6.197   7.527   1.745 -0.1481 -0.0837 -0.1897
  662MOL0     O87310   6.158   7.424   1.661  0.3764 -0.0498 -0.1662
  662MOL0     C87311   6.076   7.320   1.719  0.0696  0.2759  0.3319
  662MOL0     C87312   6.032   7.238   1.593  0.2217 -0.5599  0.4050
  662MOL0     C87313   6.128   7.122   1.556 -0.4603  0.0730  0.8545
  662MOL0     C87314   6.108   6.996   1.629 -0.2226  0.5904 -0.6071
  662MOL0     C87315   6.235   6.936   1.684  1.3612 -0.2053  0.7831
  662MOL0     C87316   6.328   6.869   1.719  0.4419 -0.8677 -0.5961
  662MOL0     C87317   6.328   7.562   1.721  0.2481  0.0507 -0.2999
  662MOL0     C87318   6.384   7.646   1.817 -0.2558 -0.2043  0.6578
  662MOL0     H87319   6.456   7.923   2.264  3.5384 -2.5548  1.3698
  662MOL0     H87320   6.514   8.153   2.338  2.7478  2.5185 -0.2375
  662MOL0     H87321   6.850   8.322   2.383 -1.0254  0.6122  2.3785
  662MOL0     H87322   6.754   8.188   2.415  3.7985  0.8850  0.2638
  662MOL0     H87323   6.588   8.441   2.412  1.7544  1.9445 -0.2202
  662MOL0     H87324   6.725   8.480   2.495 -0.8795  1.4185 -2.6657
  662MOL0     H87325   6.548   8.226   2.557  1.2767 -1.3926  2.9390
  662MOL0     H87326   6.539   8.372   2.651  1.8336  1.7128 -0.4116
  662MOL0     H87327   6.765   8.174   2.651 -0.0427 -1.3308  2.3756
  662MOL0     H87328   6.787   8.340   2.710 -1.0044  2.0113 -0.0196
  662MOL0     H87329   6.580   8.129   2.784  1.3480 -2.8159  1.5686
  662MOL0     H87330   6.580   8.285   2.862 -2.3330 -1.0028 -1.9430
  662MOL0     H87331   6.805   8.224   2.960 -0.4768 -0.5029 -0.6701
  662MOL0     H87332   6.820   8.088   2.854 -1.4306 -0.6911 -0.7856
  662MOL0     H87333   6.588   8.084   3.048 -0.4371  1.2180 -2.4434
  662MOL0     H87334   6.654   7.942   2.969 -1.1149 -1.1162  0.2140
  662MOL0     H87335   6.815   8.083   3.184  0.4591 -0.5292  1.6311
  662MOL0     H87336   6.871   7.956   3.078 -0.7844 -0.2627  0.8575
  662MOL0     H87337   6.693   8.015   3.388 -0.1908 -0.6216  0.6321
  662MOL0     H87338   6.506   7.713   3.525 -0.3547  0.5392  1.1755
  662MOL0     H87339   6.546   7.877   3.561 -1.4194  0.2072 -1.4352
  662MOL0     H87340   6.795   7.812   3.603 -0.3967  1.2694  1.1752
  662MOL0     H87341   6.744   7.648   3.647  2.3311  1.3654  4.2744
  662MOL0     H87342   6.752   7.836   3.819 -1.1564  1.7167  2.0246
  662MOL0     H87343   6.610   7.906   3.751 -2.9917 -1.9271  2.6443
  662MOL0     H87344   6.628   7.634   3.891 -0.5799  1.0570  3.2832
  662MOL0     H87345   6.486   7.704   3.793 -0.1433  0.4528  0.9886
  662MOL0     H87346   6.766   7.657   4.049  2.2996 -0.4679  1.4140
  662MOL0     H87347   6.824   7.632   4.276  1.4558  1.5313 -2.5584
  662MOL0     H87348   6.876   7.797   4.692  1.1190  1.9970  1.3067
  662MOL0     H87349   6.918   7.800   4.949  0.8064  0.0173 -0.7453
  662MOL0     H87350   6.591   7.809   5.271 -4.4446  2.5267  2.0425
  662MOL0     H87351   6.559   7.950   5.178  0.6112 -1.2272 -2.0173
  662MOL0     H87352   6.811   7.884   5.351 -0.3920  1.3347  0.9282
  662MOL0     H87353   6.669   7.940   5.425 -1.1782 -1.3914 -2.0682
  662MOL0     H87354   6.724   8.165   5.263  0.3699  1.5049  1.3976
  662MOL0     H87355   6.865   8.089   5.225 -0.5379 -1.9457 -1.9456
  662MOL0     H87356   6.783   8.198   5.495 -2.5372 -1.9869 -2.4133
  662MOL0     H87357   6.934   8.094   5.462 -0.9261  0.2014  1.3555
  662MOL0     H87358   6.862   8.365   5.369 -1.2749  0.4764 -2.0329
  662MOL0     H87359   6.949   8.273   5.264 -1.0189  2.1071 -0.2759
  662MOL0     H87360   7.132   8.223   5.408  0.0408  0.7654 -1.5021
  662MOL0     H87361   7.058   8.293   5.557  0.9695 -1.6135  0.0148
  662MOL0     H87362   7.233   8.430   5.411  0.3196 -2.0041  2.9874
  662MOL0     H87363   7.101   8.493   5.327  3.2588  1.5716  1.1118
  662MOL0     H87364   7.125   8.513   5.630 -0.6358 -4.3621 -0.1016
  662MOL0     H87365   6.964   8.541   5.557  0.1995  0.1909  1.2065
  662MOL0     H87366   6.501   7.814   5.003  1.6945 -2.5775  1.0080
  662MOL0     H87367   6.469   7.820   4.755  1.0464  1.3051 -1.2868
  662MOL0     H87368   6.501   7.879   4.396 -1.0088 -1.0197 -0.4646
  662MOL0     H87369   6.441   7.916   4.161 -2.0035 -2.5393  4.3300
  662MOL0     H87370   6.789   8.187   2.016  0.5000  0.1030  2.4583
  662MOL0     H87371   6.688   7.984   1.907  1.3096 -2.0026  1.2785
  662MOL0     H87372   6.116   7.731   2.004 -2.3410 -0.0090 -1.0881
  662MOL0     H87373   6.010   7.552   1.854 -0.7720 -0.1324  0.0314
  662MOL0     H87374   5.990   7.360   1.773 -0.2791 -0.0970  0.0669
  662MOL0     H87375   6.128   7.257   1.792 -0.0853  0.8700  0.9575
  662MOL0     H87376   5.933   7.192   1.595  0.4146 -1.4370 -2.8789
  662MOL0     H87377   6.019   7.315   1.516  3.3588  0.4069  0.6904
  662MOL0     H87378   6.229   7.161   1.572 -0.8298  2.5214 -1.8445
  662MOL0     H87379   6.131   7.089   1.452 -1.7679 -1.0826  1.1651
  662MOL0     H87380   6.052   7.014   1.721  1.6528 -0.3206  0.7607
  662MOL0     H87381   6.051   6.924   1.569  0.2357 -1.5867  1.4239
  662MOL0     H87382   6.413   6.810   1.747 -1.1904 -2.5613  1.0674
  662MOL0     H87383   6.379   7.546   1.627  0.2872  0.4666 -0.3540
  662MOL0     H87384   6.490   7.670   1.817 -0.4632  1.0838 -1.9498
  663MOL0     O87385   2.625   7.840   6.258  0.3478 -0.4170 -0.3570
  663MOL0     C87386   2.712   7.755   6.277  0.1649 -0.1778 -0.5600
  663MOL0     O87387   2.702   7.653   6.372  0.2715 -0.0591 -0.1324
  663MOL0     C87388   2.578   7.639   6.437  0.2115  0.3664 -0.6087
  663MOL0     C87389   2.458   7.624   6.368 -0.6618  0.3843  0.2150
  663MOL0     C87390   2.339   7.612   6.445  0.0818  0.1608 -0.2290
  663MOL0     C87391   2.338   7.627   6.583  0.1411 -0.7788 -0.5762
  663MOL0     O87392   2.222   7.655   6.649  0.0552  0.4521 -0.4124
  663MOL0     C87393   2.091   7.631   6.590 -0.6532  1.1302 -0.8736
  663MOL0     C87394   1.982   7.630   6.695 -0.4938  0.6051 -0.0737
  663MOL0     C87395   1.984   7.503   6.782  0.2916 -0.4976  0.8857
  663MOL0     C87396   1.921   7.382   6.712  0.0990 -1.5004  0.4750
  663MOL0     C87397   1.915   7.260   6.800  0.0744  0.5649  0.0842
  663MOL0     C87398   1.882   7.133   6.723  0.0591  0.0403  1.0988
  663MOL0     C87399   1.747   7.122   6.646  0.0979 -0.9878  0.6177
  663MOL0     C87400   1.719   6.978   6.603  0.8198 -0.4498  1.0100
  663MOL0     N87401   1.835   6.909   6.552  0.1917  0.1821  0.3786
  663MOL0     C87402   1.898   6.937   6.429  0.0158 -0.2388  0.4834
  663MOL0     C87403   2.008   6.855   6.433  0.8601 -0.0677  0.1549
  663MOL0     C87404   2.120   6.845   6.329  0.3611  0.8474  0.4566
  663MOL0     C87405   2.210   6.964   6.340 -0.2834 -0.9616  0.9937
  663MOL0     C87406   2.172   7.076   6.244 -0.1470  0.0601  0.5903
  663MOL0     C87407   2.273   7.200   6.260  0.3338 -0.3786  0.2634
  663MOL0     O87408   2.249   7.317   6.172 -0.2495 -0.0606  0.0040
  663MOL0     C87409   2.314   7.317   6.054 -0.7157  0.6671 -0.1652
  663MOL0     C87410   2.361   7.208   5.977  0.0383 -0.1072 -0.2360
  663MOL0     C87411   2.416   7.235   5.855  0.0179 -0.4998  0.4804
  663MOL0     C87412   2.402   7.366   5.800 -0.6180  0.1267  0.1062
  663MOL0     C87413   2.464   7.380   5.669  0.1250  0.0557  0.6737
  663MOL0     O87414   2.509   7.511   5.651  0.4156 -0.5829 -0.2664
  663MOL0     C87415   2.568   7.566   5.545  0.7626  0.1964  0.8029
  663MOL0     C87416   2.643   7.498   5.452  0.1172 -0.8171  0.4500
  663MOL0     C87417   2.719   7.570   5.354  0.0517 -0.4339 -0.2088
  663MOL0     C87418   2.713   7.707   5.348  0.3591  0.2184  0.6223
  663MOL0     O87419   2.779   7.768   5.243 -0.3848 -0.0613  0.0847
  663MOL0     C87420   2.785   7.908   5.236 -0.1381 -0.7857 -0.3455
  663MOL0     C87421   2.860   7.956   5.107 -0.4297 -0.1280  0.1305
  663MOL0     C87422   3.018   7.931   5.122  0.9753 -0.5138  0.4070
  663MOL0     C87423   3.083   7.961   4.987  0.3859 -0.3380  0.4143
  663MOL0     C87424   3.240   7.960   4.994  0.1979 -1.6693 -0.3554
  663MOL0     C87425   3.297   8.021   4.862  0.1264  0.6549 -0.1578
  663MOL0     C87426   3.451   8.015   4.876 -0.0734  0.0906  0.3762
  663MOL0     C87427   3.497   7.878   4.841  0.1085  0.3632 -0.2192
  663MOL0    Cl87428   3.667   7.871   4.821 -0.4199 -0.3237 -0.2034
  663MOL0     C87429   2.636   7.769   5.439 -0.5192 -0.2644 -0.8766
  663MOL0     C87430   2.564   7.702   5.531  0.4204  0.0179  0.4447
  663MOL0     O87431   2.473   7.286   5.584  0.0893  0.3378  0.4573
  663MOL0     C87432   2.352   7.473   5.871  0.3281  0.1343 -0.3516
  663MOL0     C87433   2.313   7.451   6.007  0.1722  0.1661 -0.8256
  663MOL0     N87434   2.000   6.793   6.557 -0.1850  0.2962  0.4917
  663MOL0     N87435   1.893   6.817   6.625 -0.1967  0.2240 -0.5634
  663MOL0     C87436   2.458   7.625   6.658 -0.0925 -0.1819  1.3832
  663MOL0     C87437   2.573   7.620   6.580 -0.5988 -0.5430  0.4872
  663MOL0     C87438   2.842   7.760   6.197 -0.6769 -0.1498  0.5631
  663MOL0     C87439   2.935   7.654   6.202  0.3393  0.4782 -0.3873
  663MOL0     C87440   3.063   7.663   6.142  0.4584 -0.0389  0.2697
  663MOL0     C87441   3.101   7.780   6.078 -0.3709 -0.2280  0.2418
  663MOL0     O87442   3.230   7.776   6.042  0.5256  0.5056  0.2423
  663MOL0     C87443   3.307   7.895   6.019  1.1013 -0.2699 -0.6194
  663MOL0     C87444   3.446   7.857   6.082 -0.2276  0.3574 -0.2989
  663MOL0     C87445   3.548   7.768   6.006  0.6007  0.2948  0.8544
  663MOL0     C87446   3.688   7.784   6.062 -0.3406  0.7139  1.2014
  663MOL0     C87447   3.772   7.672   6.013  0.6855  0.1941  0.5125
  663MOL0     C87448   3.857   7.595   5.992 -0.1124  0.4164  0.9147
  663MOL0     C87449   3.009   7.886   6.060  0.6064  0.0958 -0.7347
  663MOL0     C87450   2.879   7.873   6.117  0.5046  0.0535 -0.0536
  663MOL0     H87451   2.438   7.615   6.262 -1.8096  2.4134  0.2021
  663MOL0     H87452   2.258   7.592   6.376  1.9466 -0.7357 -2.2580
  663MOL0     H87453   2.076   7.544   6.526  1.1089  1.5061 -1.8593
  663MOL0     H87454   2.078   7.721   6.529 -0.5920  1.3092 -0.6266
  663MOL0     H87455   1.887   7.653   6.647 -2.1347 -0.5389  2.4116
  663MOL0     H87456   1.997   7.718   6.759  0.5141  1.8371 -1.9201
  663MOL0     H87457   1.910   7.526   6.858 -1.2889 -1.1549 -0.3904
  663MOL0     H87458   2.083   7.493   6.828  0.2881 -2.4366  0.5651
  663MOL0     H87459   1.820   7.404   6.677  0.2910  3.8393  2.3177
  663MOL0     H87460   1.979   7.372   6.620  2.9973  1.4758  1.7582
  663MOL0     H87461   1.843   7.280   6.880 -0.1555  2.1908 -0.4893
  663MOL0     H87462   2.008   7.244   6.855 -0.8337 -0.4579  1.3819
  663MOL0     H87463   1.896   7.060   6.803 -2.1257 -1.1193  0.4827
  663MOL0     H87464   1.964   7.117   6.652 -1.2920 -1.6636 -0.1609
  663MOL0     H87465   1.672   7.156   6.718  0.4450 -0.8867  0.9391
  663MOL0     H87466   1.739   7.187   6.559  1.8664 -0.5862  0.7137
  663MOL0     H87467   1.645   6.979   6.523 -0.6578  3.0226  2.2173
  663MOL0     H87468   1.682   6.914   6.684  0.0793  0.5488  1.4803
  663MOL0     H87469   1.870   7.010   6.354 -0.7816 -2.4967 -1.5391
  663MOL0     H87470   2.092   6.818   6.227  0.1230 -0.4861  0.8513
  663MOL0     H87471   2.179   6.761   6.366 -2.3189 -1.9242 -1.0404
  663MOL0     H87472   2.309   6.919   6.331 -0.4970 -1.8964  2.7742
  663MOL0     H87473   2.182   7.008   6.437 -2.7662  0.2211 -0.1629
  663MOL0     H87474   2.188   7.047   6.140 -2.5432 -0.2685  0.2632
  663MOL0     H87475   2.066   7.100   6.252 -0.6078 -1.7121  0.2155
  663MOL0     H87476   2.377   7.167   6.266  0.4927  0.2651  1.8670
  663MOL0     H87477   2.261   7.232   6.365  0.6913 -2.7365  1.0733
  663MOL0     H87478   2.366   7.110   6.023  2.9315  0.2395  0.3401
  663MOL0     H87479   2.454   7.148   5.801 -2.5366 -0.5168 -1.4832
  663MOL0     H87480   2.651   7.391   5.462 -1.0262 -0.8348  1.2910
  663MOL0     H87481   2.773   7.518   5.275  3.0255 -0.3632  1.6028
  663MOL0     H87482   2.826   7.963   5.322 -0.0770  1.3746 -1.6809
  663MOL0     H87483   2.683   7.946   5.231 -1.1291 -2.3613  3.6247
  663MOL0     H87484   2.855   8.064   5.088 -1.1191 -0.0276  0.8485
  663MOL0     H87485   2.814   7.912   5.018 -4.8733  0.7776  1.7406
  663MOL0     H87486   3.053   7.830   5.146 -1.0540 -0.5697  3.7497
  663MOL0     H87487   3.064   7.998   5.195  2.1558  0.0732 -0.8287
  663MOL0     H87488   3.049   7.888   4.913  2.3951 -0.1098 -0.7922
  663MOL0     H87489   3.044   8.057   4.953  1.1985 -0.7465 -1.8104
  663MOL0     H87490   3.269   7.855   4.999  1.5271 -1.4108 -1.9888
  663MOL0     H87491   3.279   8.018   5.078 -1.4256 -2.8517  1.3328
  663MOL0     H87492   3.276   8.126   4.838  1.0939  1.4530  2.1756
  663MOL0     H87493   3.262   7.963   4.776  0.1188  1.3510 -0.6288
  663MOL0     H87494   3.486   8.091   4.806  0.5498  1.2707  1.8983
  663MOL0     H87495   3.496   8.053   4.969 -0.5500 -0.5875  0.8893
  663MOL0     H87496   3.454   7.844   4.746 -0.6341 -0.3484  0.3533
  663MOL0     H87497   3.480   7.806   4.921 -0.6725  0.0759 -0.6324
  663MOL0     H87498   2.638   7.877   5.445  4.0237 -0.1889  0.3180
  663MOL0     H87499   2.490   7.754   5.590 -1.4314 -0.2094 -1.5704
  663MOL0     H87500   2.343   7.569   5.822 -0.5242 -0.3444 -1.1714
  663MOL0     H87501   2.285   7.535   6.070  0.6439  0.7125 -1.3249
  663MOL0     H87502   2.447   7.656   6.761 -0.5107  1.3639  0.9114
  663MOL0     H87503   2.669   7.618   6.631  0.2275 -1.3636 -1.0279
  663MOL0     H87504   2.900   7.560   6.243 -1.4406  0.7284 -1.2497
  663MOL0     H87505   3.122   7.572   6.142 -3.7672 -3.1241  2.5444
  663MOL0     H87506   3.257   7.976   6.072 -2.9183 -3.0221  0.2361
  663MOL0     H87507   3.317   7.917   5.912  0.6906 -0.0481 -0.6132
  663MOL0     H87508   3.489   7.957   6.074  2.4243 -0.8859 -3.9650
  663MOL0     H87509   3.433   7.818   6.183  0.8217 -4.3260 -1.7294
  663MOL0     H87510   3.542   7.804   5.903 -0.4651 -1.5821  0.2074
  663MOL0     H87511   3.516   7.663   6.003 -0.7864  0.7014 -1.9219
  663MOL0     H87512   3.719   7.882   6.025 -1.6210  0.2244 -1.4058
  663MOL0     H87513   3.692   7.789   6.171 -0.1495 -2.4412  1.4320
  663MOL0     H87514   3.937   7.527   5.971 -0.6731 -0.6185  2.0556
  663MOL0     H87515   3.031   7.975   6.002  0.9544 -0.1556 -0.9951
  663MOL0     H87516   2.816   7.960   6.102  0.0119 -0.1565  0.7745
  664MOL0     O87517   1.482   8.444   2.585 -0.5212  0.4614 -0.3437
  664MOL0     C87518   1.444   8.560   2.598 -0.2795 -0.9071  0.2410
  664MOL0     O87519   1.312   8.599   2.604  0.6729 -0.8153  0.3471
  664MOL0     C87520   1.203   8.517   2.603  0.4860  0.1441  0.3921
  664MOL0     C87521   1.078   8.573   2.594  0.5316 -0.7106 -0.1149
  664MOL0     C87522   0.966   8.502   2.583  0.4808  0.3410  0.3305
  664MOL0     C87523   0.957   8.362   2.581  0.4620  0.5310  0.7703
  664MOL0     O87524   0.840   8.293   2.573 -0.2354  0.0686  0.3603
  664MOL0     C87525   0.767   8.315   2.689 -0.1618  0.5653 -0.4343
  664MOL0     C87526   0.643   8.223   2.686  0.1545  0.7849  0.1568
  664MOL0     C87527   0.678   8.074   2.652  0.1154  1.0530  0.4264
  664MOL0     C87528   0.797   8.031   2.736 -0.3805  0.2163 -0.3023
  664MOL0     C87529   0.827   7.873   2.725  1.1047 -0.0600 -0.0908
  664MOL0     C87530   0.835   7.827   2.581  0.6015 -0.6935  0.8728
  664MOL0     C87531   0.977   7.875   2.520  0.6688 -0.8596  0.3958
  664MOL0     C87532   1.088   7.795   2.568  0.0811 -0.1992  0.4107
  664MOL0     N87533   1.209   7.862   2.518  0.3431 -0.2663 -0.7238
  664MOL0     C87534   1.260   7.876   2.390  0.5860 -0.2494 -0.4315
  664MOL0     C87535   1.347   7.975   2.398 -0.0375  0.2951  0.2964
  664MOL0     C87536   1.361   8.054   2.269 -0.0384 -0.7374 -1.1447
  664MOL0     C87537   1.479   8.004   2.183  0.3951 -0.0859 -0.2866
  664MOL0     C87538   1.610   7.997   2.252 -0.3450 -0.0837  0.2243
  664MOL0     C87539   1.660   8.135   2.306  0.0269  0.1875 -0.2920
  664MOL0     O87540   1.646   8.239   2.210  0.2767 -0.0534  0.9240
  664MOL0     C87541   1.727   8.233   2.095 -0.0165 -0.8465  0.4824
  664MOL0     C87542   1.851   8.173   2.087 -0.2645 -0.7355  0.8469
  664MOL0     C87543   1.925   8.180   1.975 -0.9472 -0.0528 -0.9792
  664MOL0     C87544   1.878   8.246   1.859  0.0100 -0.6033  1.1371
  664MOL0     C87545   1.963   8.268   1.734  0.8873 -0.8704 -0.3127
  664MOL0     O87546   1.907   8.337   1.622 -0.0042 -1.3314  0.0218
  664MOL0     C87547   1.994   8.366   1.525 -0.2737 -0.1070  0.9090
  664MOL0     C87548   2.085   8.468   1.551 -1.3909  0.1296  0.2200
  664MOL0     C87549   2.189   8.497   1.455 -0.0931  0.7325 -0.1664
  664MOL0     C87550   2.194   8.430   1.336  0.7436 -0.0091  0.3672
  664MOL0     O87551   2.298   8.456   1.255 -0.0754 -0.1577 -0.7638
  664MOL0     C87552   2.305   8.414   1.120  0.4315  0.3257  0.2653
  664MOL0     C87553   2.368   8.266   1.117 -0.2233  0.3199 -0.2036
  664MOL0     C87554   2.509   8.251   1.168 -0.3600 -0.8139 -0.1121
  664MOL0     C87555   2.595   8.375   1.131  0.4483  0.4235  0.2623
  664MOL0     C87556   2.749   8.342   1.123  0.9577  0.5718  0.0826
  664MOL0     C87557   2.848   8.410   1.229  0.3660 -0.0699 -0.1510
  664MOL0     C87558   2.817   8.384   1.380  0.7333 -0.7267 -0.6920
  664MOL0     C87559   2.923   8.437   1.471  0.1857  0.9090 -0.2859
  664MOL0    Cl87560   3.083   8.381   1.418 -0.0471 -0.5154 -0.0809
  664MOL0     C87561   2.092   8.339   1.312 -0.1172  0.0734 -0.3480
  664MOL0     C87562   1.987   8.310   1.405 -0.5515  1.4195  0.0247
  664MOL0     O87563   2.070   8.217   1.745  0.9208  0.8646  0.3669
  664MOL0     C87564   1.749   8.313   1.868  1.2997 -0.6803  1.2596
  664MOL0     C87565   1.671   8.294   1.981 -0.9707  0.8539  0.3043
  664MOL0     N87566   1.358   8.024   2.532  0.8751 -0.0579 -0.4505
  664MOL0     N87567   1.275   7.952   2.604 -0.7142  0.4183  0.5373
  664MOL0     C87568   1.082   8.296   2.603 -1.4335  0.4785 -0.1507
  664MOL0     C87569   1.200   8.376   2.605  0.2036  0.1860 -0.6624
  664MOL0     C87570   1.546   8.673   2.593 -0.2019 -0.2209  0.5901
  664MOL0     C87571   1.680   8.647   2.564 -0.4741  0.0513  0.0026
  664MOL0     C87572   1.778   8.758   2.567  0.3016  0.9310 -0.2403
  664MOL0     C87573   1.733   8.885   2.564  0.5230  0.0217  0.0329
  664MOL0     O87574   1.827   8.975   2.543 -0.9024  0.0283 -0.3511
  664MOL0     C87575   1.807   9.063   2.431  0.7361  0.2482 -0.2101
  664MOL0     C87576   1.918   9.038   2.327  0.0328  0.8764 -0.0029
  664MOL0     C87577   1.901   9.095   2.176  1.1160 -0.0428 -0.3191
  664MOL0     C87578   2.008   9.043   2.079  0.3570  0.0020 -0.3992
  664MOL0     C87579   1.982   8.906   2.048 -0.8467 -0.7525 -0.2426
  664MOL0     C87580   1.938   8.795   2.026 -0.9664 -0.7549 -0.1490
  664MOL0     C87581   1.599   8.909   2.573  0.3036 -0.6704  0.4839
  664MOL0     C87582   1.512   8.809   2.599 -0.2161  0.7112  0.8962
  664MOL0     H87583   1.060   8.680   2.587 -2.6415 -1.1844 -1.1422
  664MOL0     H87584   0.875   8.556   2.559 -1.7902 -0.9134  4.8984
  664MOL0     H87585   0.753   8.424   2.693 -1.8381  0.3460  0.4234
  664MOL0     H87586   0.829   8.288   2.775 -0.5733 -0.5842 -0.4856
  664MOL0     H87587   0.575   8.263   2.609  1.9847  1.6969 -1.0509
  664MOL0     H87588   0.592   8.222   2.783 -1.6679 -2.3085 -0.6941
  664MOL0     H87589   0.694   8.059   2.545 -0.6765 -0.9621  0.5413
  664MOL0     H87590   0.597   8.003   2.673 -0.2365  0.8573 -1.4151
  664MOL0     H87591   0.885   8.078   2.691 -0.4200  0.6870  0.1059
  664MOL0     H87592   0.777   8.061   2.839  0.3785  0.7948 -0.3156
  664MOL0     H87593   0.747   7.829   2.784  0.8661  2.3083  1.5056
  664MOL0     H87594   0.919   7.841   2.774  3.4850  2.7036 -2.3365
  664MOL0     H87595   0.742   7.869   2.542  1.1101 -0.9198 -0.6478
  664MOL0     H87596   0.829   7.719   2.565 -2.2905 -0.3985 -0.8174
  664MOL0     H87597   0.973   7.864   2.411  1.5920  4.8819 -0.5418
  664MOL0     H87598   0.992   7.983   2.514  1.6636 -1.0620 -2.4023
  664MOL0     H87599   1.084   7.701   2.511  0.3873 -0.2325  0.4437
  664MOL0     H87600   1.092   7.770   2.674 -0.0557 -4.0059 -0.3325
  664MOL0     H87601   1.240   7.822   2.299  0.1571  2.9522 -2.3992
  664MOL0     H87602   1.371   8.157   2.305  0.6831 -0.3299 -2.4401
  664MOL0     H87603   1.267   8.050   2.215 -1.5983  0.9016  1.2624
  664MOL0     H87604   1.485   8.080   2.106 -1.6042  3.5280  2.7856
  664MOL0     H87605   1.433   7.914   2.141 -2.4497  1.2470 -0.1902
  664MOL0     H87606   1.595   7.934   2.341 -3.2087  1.7233  1.1513
  664MOL0     H87607   1.689   7.951   2.193  0.9640 -1.8149  3.0930
  664MOL0     H87608   1.762   8.136   2.346 -0.4798 -0.6151  1.1267
  664MOL0     H87609   1.604   8.160   2.397 -1.4955  1.0062 -1.4178
  664MOL0     H87610   1.890   8.115   2.169 -0.3454 -0.7774  0.8556
  664MOL0     H87611   2.024   8.138   1.992 -0.7055  1.6182  2.8465
  664MOL0     H87612   2.082   8.524   1.644 -0.3984  1.0433 -0.2747
  664MOL0     H87613   2.258   8.576   1.485 -0.7625  0.8752  1.0793
  664MOL0     H87614   2.365   8.487   1.064  0.7711  0.7359  1.1425
  664MOL0     H87615   2.205   8.423   1.078  0.6131 -0.5124 -0.3670
  664MOL0     H87616   2.369   8.230   1.014 -1.9592 -3.2593  0.8478
  664MOL0     H87617   2.305   8.193   1.169 -0.0335 -0.2117 -0.7005
  664MOL0     H87618   2.552   8.157   1.133  2.1578  0.5697 -0.9451
  664MOL0     H87619   2.516   8.244   1.277  0.7575 -0.6418 -0.1660
  664MOL0     H87620   2.566   8.412   1.033  0.4037  0.2480  0.2083
  664MOL0     H87621   2.576   8.459   1.199  2.4295  0.7754  0.4546
  664MOL0     H87622   2.781   8.373   1.023  2.4604 -2.6040 -0.5584
  664MOL0     H87623   2.761   8.234   1.121 -1.5478  0.2023  1.2982
  664MOL0     H87624   2.842   8.518   1.214 -0.5171  0.2208  2.0126
  664MOL0     H87625   2.948   8.379   1.197  0.4290 -0.7661  0.6981
  664MOL0     H87626   2.719   8.421   1.412  1.0436 -2.2423  2.3819
  664MOL0     H87627   2.817   8.277   1.398 -0.2508 -0.5024  0.7628
  664MOL0     H87628   2.898   8.403   1.572  0.2175 -1.0078 -0.8831
  664MOL0     H87629   2.916   8.546   1.464  1.0233  1.1170  1.4976
  664MOL0     H87630   2.103   8.266   1.233  0.5397 -0.3590  0.1300
  664MOL0     H87631   1.908   8.238   1.383 -1.8825  2.8221  0.0532
  664MOL0     H87632   1.718   8.386   1.794 -0.2103  1.7708  4.0944
  664MOL0     H87633   1.570   8.333   1.979 -1.4522 -0.2706  1.1100
  664MOL0     H87634   1.091   8.188   2.595  1.9002  0.6410 -0.2239
  664MOL0     H87635   1.292   8.319   2.618  0.7043  1.2708  0.8839
  664MOL0     H87636   1.717   8.545   2.564  0.5378  0.3962 -1.3592
  664MOL0     H87637   1.886   8.750   2.561  0.5617  0.0929  3.1927
  664MOL0     H87638   1.809   9.167   2.466  3.1511 -0.7656  3.1907
  664MOL0     H87639   1.713   9.037   2.381  1.8153 -0.0695 -2.1712
  664MOL0     H87640   2.014   9.074   2.366  0.0336  0.9617 -0.0842
  664MOL0     H87641   1.944   8.932   2.312 -1.5612  0.6549 -1.5464
  664MOL0     H87642   1.897   9.204   2.179 -2.8889 -0.0492  0.8577
  664MOL0     H87643   1.804   9.058   2.139  1.6624 -0.7969 -1.0301
  664MOL0     H87644   2.011   9.101   1.987 -3.3504 -0.7758 -1.1483
  664MOL0     H87645   2.107   9.066   2.121  1.4662 -0.4706 -2.5802
  664MOL0     H87646   1.878   8.706   2.014 -2.7467  0.0379  2.1227
  664MOL0     H87647   1.571   9.013   2.558  1.1397 -0.7771 -2.3318
  664MOL0     H87648   1.412   8.843   2.626 -0.3128  3.2389 -2.1562
  665MOL0     O87649   5.441   7.167   1.218  0.2285 -0.2408  0.2637
  665MOL0     C87650   5.418   7.062   1.155 -0.4759  0.0948  0.1505
  665MOL0     O87651   5.405   6.938   1.219  0.7439 -0.2170 -0.4012
  665MOL0     C87652   5.418   6.936   1.355  0.8774  0.3107 -1.8699
  665MOL0     C87653   5.521   6.863   1.405 -1.4770 -0.6662 -0.2917
  665MOL0     C87654   5.546   6.865   1.539  0.1862  0.7477  0.7106
  665MOL0     C87655   5.457   6.937   1.624 -0.0831  0.0268  1.0960
  665MOL0     O87656   5.469   6.916   1.755  0.0147 -0.6005 -0.2119
  665MOL0     C87657   5.469   7.024   1.847  0.7322  0.6488 -0.5198
  665MOL0     C87658   5.394   6.996   1.981  1.2761 -0.0116  0.8431
  665MOL0     C87659   5.253   6.954   1.954 -0.3056  0.0386  0.5516
  665MOL0     C87660   5.178   6.920   2.078 -0.2056 -0.5248  0.1452
  665MOL0     C87661   5.129   6.775   2.083 -0.3459  0.1595  0.1206
  665MOL0     C87662   5.047   6.749   2.215  0.2269 -0.8855  0.2662
  665MOL0     C87663   5.023   6.597   2.252  0.2315  0.1476  0.7749
  665MOL0     C87664   4.936   6.607   2.374  0.4556 -0.1319  0.7160
  665MOL0     N87665   4.984   6.689   2.491  0.7003  0.0368  1.1396
  665MOL0     C87666   5.093   6.650   2.568 -0.2948 -0.1811  0.3235
  665MOL0     C87667   5.104   6.750   2.658 -0.0139  0.2146  0.3570
  665MOL0     C87668   5.195   6.746   2.776  0.0063  0.0167  1.0390
  665MOL0     C87669   5.129   6.713   2.907 -0.4698 -0.2124  0.5757
  665MOL0     C87670   5.068   6.574   2.921  0.8631  0.2060 -0.0414
  665MOL0     C87671   5.101   6.515   3.055  0.2843 -0.6395  0.6895
  665MOL0     O87672   5.024   6.396   3.073 -1.0368  0.9388 -0.4228
  665MOL0     C87673   5.020   6.358   3.202 -0.6000 -0.6422 -1.1941
  665MOL0     C87674   5.046   6.219   3.235  1.8043  0.4542  0.0149
  665MOL0     C87675   5.018   6.167   3.366  0.0553  0.1833 -0.4163
  665MOL0     C87676   4.975   6.254   3.464  0.1602 -0.8243 -0.1455
  665MOL0     C87677   4.957   6.213   3.604 -1.0301  0.1787 -0.2145
  665MOL0     O87678   4.871   6.286   3.675 -0.1659 -0.0268  0.5724
  665MOL0     C87679   4.867   6.280   3.808 -0.2550 -0.1913 -0.1384
  665MOL0     C87680   4.770   6.202   3.873  0.0626  1.3408  0.4446
  665MOL0     C87681   4.754   6.207   4.012  0.9106  0.6349 -0.0611
  665MOL0     C87682   4.865   6.258   4.087  0.0919 -0.5777  0.7121
  665MOL0     O87683   4.897   6.231   4.215  0.1540 -0.6272  0.4228
  665MOL0     C87684   4.894   6.094   4.258  0.2249  0.7235  0.4631
  665MOL0     C87685   4.929   6.081   4.404  0.3292 -0.3370 -0.7461
  665MOL0     C87686   4.839   5.975   4.461  0.7526 -0.9949  0.5774
  665MOL0     C87687   4.885   5.920   4.595 -0.6299  0.7564  0.4923
  665MOL0     C87688   4.782   5.823   4.645  0.2166  0.1244 -0.3215
  665MOL0     C87689   4.763   5.690   4.571  0.5730  0.5753  0.0798
  665MOL0     C87690   4.898   5.611   4.551  0.8083  1.2712 -0.5114
  665MOL0     C87691   4.906   5.522   4.425  0.8133 -0.3567 -0.4125
  665MOL0    Cl87692   4.779   5.401   4.434 -0.3070 -0.1347  0.3878
  665MOL0     C87693   4.960   6.329   4.020 -1.2707 -0.0694 -1.4104
  665MOL0     C87694   4.957   6.345   3.884 -0.2014  0.1030  0.3703
  665MOL0     O87695   5.048   6.139   3.653 -0.0766 -0.8009 -0.9233
  665MOL0     C87696   4.932   6.380   3.418  0.9715 -0.0879 -1.1256
  665MOL0     C87697   4.960   6.438   3.295  0.1417 -0.6328 -0.5684
  665MOL0     N87698   5.015   6.847   2.625  0.1668 -0.7799 -0.5340
  665MOL0     N87699   4.939   6.813   2.527  0.1843  0.1181  0.0018
  665MOL0     C87700   5.346   7.001   1.573  0.1112  0.4821  0.0394
  665MOL0     C87701   5.320   6.993   1.443  0.1715 -1.0126 -0.2775
  665MOL0     C87702   5.408   7.071   1.009  0.5177  0.0564 -0.5758
  665MOL0     C87703   5.351   6.969   0.929 -0.5611  0.3737  0.8594
  665MOL0     C87704   5.346   6.993   0.786 -0.6409 -0.3133  0.2456
  665MOL0     C87705   5.405   7.106   0.723  0.0158  1.0700 -0.3672
  665MOL0     O87706   5.411   7.100   0.591  0.4943  0.2438 -0.3765
  665MOL0     C87707   5.484   7.190   0.511 -0.0382 -0.5039 -0.7577
  665MOL0     C87708   5.397   7.298   0.441 -0.0593  0.7326  0.8209
  665MOL0     C87709   5.291   7.359   0.531 -0.7856 -0.2575 -0.5166
  665MOL0     C87710   5.194   7.447   0.455 -0.8976  0.5349 -0.1395
  665MOL0     C87711   5.173   7.570   0.531 -0.1682  0.7264 -0.4146
  665MOL0     C87712   5.164   7.665   0.613 -0.1706 -0.2714  1.2176
  665MOL0     C87713   5.471   7.198   0.804 -0.2059 -0.1373 -0.8378
  665MOL0     C87714   5.468   7.174   0.942 -0.4945  0.5737 -0.6965
  665MOL0     H87715   5.586   6.808   1.339  1.5554  2.2952 -0.0647
  665MOL0     H87716   5.619   6.795   1.577 -2.3628 -3.0785 -0.7427
  665MOL0     H87717   5.410   7.102   1.797 -3.5983 -1.5148  0.7247
  665MOL0     H87718   5.566   7.057   1.884  0.2832  0.3846  0.9814
  665MOL0     H87719   5.384   7.085   2.044 -1.0185  0.5419 -0.2027
  665MOL0     H87720   5.428   6.908   2.037 -1.4592 -1.4340  0.4403
  665MOL0     H87721   5.253   6.868   1.887 -0.1257  1.1815 -0.9874
  665MOL0     H87722   5.198   7.032   1.899 -2.6240 -1.6348  0.3396
  665MOL0     H87723   5.229   6.946   2.171 -1.1991 -1.0960  0.8794
  665MOL0     H87724   5.085   6.978   2.081  0.4342  0.5195  0.4256
  665MOL0     H87725   5.215   6.707   2.080 -0.8774 -0.4702 -1.2884
  665MOL0     H87726   5.068   6.768   1.993 -0.4029  5.5091 -0.6347
  665MOL0     H87727   4.948   6.794   2.205  1.2366  2.3249  2.8739
  665MOL0     H87728   5.102   6.799   2.295  3.0287  0.0624 -2.0526
  665MOL0     H87729   4.986   6.539   2.167 -0.2467  1.7064 -0.1153
  665MOL0     H87730   5.123   6.556   2.268  1.0532  1.2476 -1.1723
  665MOL0     H87731   4.924   6.504   2.407  1.2899  0.2352  2.2564
  665MOL0     H87732   4.836   6.641   2.346  0.2221  2.5911  4.1883
  665MOL0     H87733   5.152   6.559   2.561 -0.0676 -0.2161  2.1283
  665MOL0     H87734   5.243   6.844   2.787  0.3610 -0.1510  0.9955
  665MOL0     H87735   5.274   6.674   2.753  1.1764  2.2768 -3.1421
  665MOL0     H87736   5.055   6.792   2.921 -1.4090 -0.8375 -0.7237
  665MOL0     H87737   5.208   6.727   2.982  0.4930  0.1046 -0.4653
  665MOL0     H87738   4.961   6.579   2.904  1.0952  0.1002 -1.7054
  665MOL0     H87739   5.106   6.508   2.842  0.2480  1.5077 -1.4689
  665MOL0     H87740   5.060   6.588   3.125 -3.7780 -2.5592  0.6187
  665MOL0     H87741   5.206   6.493   3.073  0.3436  0.8879  2.4800
  665MOL0     H87742   5.073   6.151   3.155 -2.0683  2.8621 -3.6980
  665MOL0     H87743   5.024   6.061   3.386 -1.1218  0.6110  2.7747
  665MOL0     H87744   4.694   6.147   3.818  1.9323  1.2357 -2.2075
  665MOL0     H87745   4.671   6.153   4.056  0.3928 -0.8970 -2.7258
  665MOL0     H87746   4.951   6.023   4.197 -2.3356  1.0352 -2.5415
  665MOL0     H87747   4.791   6.060   4.245  0.0350  2.3551 -3.6158
  665MOL0     H87748   4.906   6.173   4.459  1.9892 -1.0821  1.3230
  665MOL0     H87749   5.036   6.062   4.411  0.7204  0.5567 -3.3351
  665MOL0     H87750   4.807   5.901   4.387 -2.5147 -0.3511  1.1648
  665MOL0     H87751   4.741   6.025   4.461 -0.4730 -3.2004 -1.7707
  665MOL0     H87752   4.985   5.880   4.579 -1.6725 -1.0640 -2.1334
  665MOL0     H87753   4.887   6.007   4.661 -1.7273  0.4098  1.0154
  665MOL0     H87754   4.677   5.855   4.650 -0.2588 -0.9810 -2.2323
  665MOL0     H87755   4.805   5.794   4.748  0.4202  2.7041  0.4392
  665MOL0     H87756   4.731   5.710   4.468  2.5260  0.0039 -0.6758
  665MOL0     H87757   4.695   5.623   4.625  0.9384  0.0359 -0.1276
  665MOL0     H87758   4.983   5.679   4.539  2.5204 -0.1201  2.6533
  665MOL0     H87759   4.915   5.544   4.635 -0.6874 -1.0666 -1.9667
  665MOL0     H87760   5.003   5.471   4.426 -1.0373 -4.3862  2.9537
  665MOL0     H87761   4.896   5.590   4.340 -0.1830  0.2386  0.1560
  665MOL0     H87762   5.031   6.375   4.088 -0.8367 -2.1531 -0.3732
  665MOL0     H87763   5.039   6.397   3.835  0.5703  0.5145  2.0437
  665MOL0     H87764   4.885   6.444   3.493 -0.0223 -0.2321 -1.6086
  665MOL0     H87765   4.938   6.542   3.273  0.2400 -0.3303  0.7231
  665MOL0     H87766   5.282   7.051   1.645  3.4336  2.5706  1.7701
  665MOL0     H87767   5.230   7.039   1.403  0.3743 -0.8180 -0.5148
  665MOL0     H87768   5.307   6.873   0.954  2.2142 -1.6964 -1.4428
  665MOL0     H87769   5.315   6.913   0.720 -0.7747  0.0326 -0.1144
  665MOL0     H87770   5.544   7.133   0.439  1.6224 -0.0410  0.2284
  665MOL0     H87771   5.563   7.240   0.567 -1.6772  2.5248 -0.9294
  665MOL0     H87772   5.472   7.371   0.407  0.0305 -1.3535 -4.2734
  665MOL0     H87773   5.345   7.264   0.352 -1.2687  0.1142  1.7381
  665MOL0     H87774   5.341   7.408   0.614  1.3581 -2.2985 -0.4776
  665MOL0     H87775   5.235   7.276   0.576 -0.2779 -0.0089  0.5806
  665MOL0     H87776   5.227   7.469   0.353 -1.9816  0.5227 -0.5010
  665MOL0     H87777   5.098   7.398   0.436 -1.1467  1.4027 -1.1816
  665MOL0     H87778   5.158   7.749   0.679  1.8463 -0.0488  1.1864
  665MOL0     H87779   5.531   7.287   0.786  2.0040 -0.6024  3.0079
  665MOL0     H87780   5.526   7.234   1.010  0.5104 -1.6095  0.4947
  666MOL0     O87781   8.194   6.920   3.404 -0.0913 -0.2106  0.4618
  666MOL0     C87782   8.166   7.034   3.457  1.2074 -0.9923 -0.0324
  666MOL0     O87783   8.120   7.143   3.392 -0.1426  0.2352  0.1085
  666MOL0     C87784   8.133   7.156   3.252 -0.2664 -0.2866 -0.2160
  666MOL0     C87785   8.015   7.210   3.178 -0.3697 -0.3717 -1.3598
  666MOL0     C87786   8.021   7.219   3.049  0.7960 -0.3348  1.0093
  666MOL0     C87787   8.128   7.176   2.968  0.2208  0.6352 -0.3724
  666MOL0     O87788   8.107   7.178   2.830 -0.8471  0.3804 -0.5067
  666MOL0     C87789   8.186   7.095   2.748  0.0176 -0.2843  0.2465
  666MOL0     C87790   8.145   7.137   2.604 -0.9959 -0.0698 -0.3161
  666MOL0     C87791   8.217   7.272   2.564  0.3619 -0.0841  0.0285
  666MOL0     C87792   8.165   7.333   2.423  0.9447 -0.6618 -0.2049
  666MOL0     C87793   8.252   7.449   2.396 -0.5090 -0.0401  0.4515
  666MOL0     C87794   8.253   7.494   2.247  0.8026  0.4051  0.8082
  666MOL0     C87795   8.349   7.597   2.225 -0.7059  0.6812 -0.4288
  666MOL0     C87796   8.490   7.540   2.211 -0.2161 -0.5825  0.6932
  666MOL0     N87797   8.586   7.643   2.165 -0.5221 -0.3181 -0.3974
  666MOL0     C87798   8.580   7.702   2.040 -0.0889 -1.0582  0.3186
  666MOL0     C87799   8.673   7.797   2.045  0.2603  0.1829 -0.0903
  666MOL0     C87800   8.700   7.914   1.955 -0.0771 -0.6704 -0.0888
  666MOL0     C87801   8.837   7.914   1.883 -0.8654  0.8318  0.1868
  666MOL0     C87802   8.897   7.774   1.843  0.8067  0.0642 -0.5053
  666MOL0     C87803   9.023   7.796   1.762  0.0640  0.0557  0.2154
  666MOL0     O87804   9.117   7.902   1.816  0.5058  0.0555 -0.5544
  666MOL0     C87805   9.141   7.998   1.731 -0.2417  0.2200 -0.2496
  666MOL0     C87806   9.100   8.128   1.764  0.2155 -0.0372 -0.3021
  666MOL0     C87807   9.118   8.234   1.675 -0.5038 -0.1247  0.6318
  666MOL0     C87808   9.171   8.204   1.546 -0.3028 -0.3207  0.2087
  666MOL0     C87809   9.163   8.302   1.439  0.2362 -0.9674 -0.8294
  666MOL0     O87810   9.203   8.258   1.309  0.2541  0.1131  0.1810
  666MOL0     C87811   9.118   8.296   1.211  0.9081  0.3058 -1.0675
  666MOL0     C87812   9.139   8.427   1.152 -0.8563  1.8126 -0.1691
  666MOL0     C87813   9.050   8.465   1.053 -0.5796  0.1811  0.9818
  666MOL0     C87814   8.944   8.389   1.014  0.0724 -0.2363  0.2249
  666MOL0     O87815   8.856   8.464   0.928 -0.5571 -0.0789 -0.8833
  666MOL0     C87816   8.751   8.392   0.861  0.2345 -0.5239  0.4094
  666MOL0     C87817   8.698   8.472   0.740  0.4071 -0.8080  0.4504
  666MOL0     C87818   8.798   8.488   0.623  0.5758  0.1179 -0.5376
  666MOL0     C87819   8.803   8.362   0.536 -0.4931  0.1627  0.2168
  666MOL0     C87820   8.895   8.386   0.413 -0.3165  0.4600  0.3453
  666MOL0     C87821   8.878   8.268   0.313 -0.9863  0.0491 -0.8539
  666MOL0     C87822   8.970   8.308   0.192  0.4472  0.2129  0.0098
  666MOL0     C87823   8.944   8.203   0.078 -0.0671  0.1804  0.0716
  666MOL0    Cl87824   9.084   8.216  -0.035  0.1163  0.5058 -0.0338
  666MOL0     C87825   8.928   8.261   1.066 -0.7926  0.6453 -0.2836
  666MOL0     C87826   9.015   8.209   1.166 -0.0747 -0.4274 -0.2096
  666MOL0     O87827   9.124   8.420   1.463 -0.2825 -0.2625 -0.1126
  666MOL0     C87828   9.224   8.069   1.526 -0.1541  0.0771  0.7409
  666MOL0     C87829   9.211   7.968   1.616 -0.1532 -0.7466 -0.3876
  666MOL0     N87830   8.745   7.774   2.157  0.3843  0.9890 -0.0614
  666MOL0     N87831   8.691   7.680   2.236  0.5190 -0.7064 -0.0352
  666MOL0     C87832   8.233   7.114   3.031  0.1204 -0.8225 -0.5534
  666MOL0     C87833   8.237   7.103   3.173  0.3836  0.3014 -0.1002
  666MOL0     C87834   8.160   7.041   3.606 -0.3434  0.1815 -0.6555
  666MOL0     C87835   8.066   7.126   3.685 -0.0035  0.1750  0.2125
  666MOL0     C87836   8.068   7.121   3.829 -0.4148  0.2342  0.5306
  666MOL0     C87837   8.142   7.034   3.898 -0.3643 -0.1409  0.3946
  666MOL0     O87838   8.116   7.031   4.030 -0.5875 -0.8334  0.4205
  666MOL0     C87839   8.161   6.921   4.107 -0.3473  0.3580  0.6117
  666MOL0     C87840   8.099   6.788   4.074 -0.3825 -0.5064 -0.7435
  666MOL0     C87841   7.952   6.780   4.054 -0.0320 -0.0776  0.9107
  666MOL0     C87842   7.900   6.640   4.027 -0.5431 -0.8487 -0.4931
  666MOL0     C87843   7.927   6.597   3.894 -1.2849  1.5371 -0.0162
  666MOL0     C87844   7.956   6.562   3.782 -0.4456  0.6868  0.1068
  666MOL0     C87845   8.220   6.940   3.825  0.0378  0.2217  0.1776
  666MOL0     C87846   8.237   6.949   3.684 -0.1884 -0.2055  0.4140
  666MOL0     H87847   7.926   7.218   3.239  0.2938 -1.9014 -0.1176
  666MOL0     H87848   7.928   7.235   2.995  0.5766  1.4219  1.8580
  666MOL0     H87849   8.181   6.988   2.771  1.1399 -0.5206 -0.5178
  666MOL0     H87850   8.294   7.109   2.755  0.2748 -1.6369 -0.5552
  666MOL0     H87851   8.037   7.145   2.591 -0.6827  1.0312 -3.0095
  666MOL0     H87852   8.172   7.069   2.523 -1.5335 -0.4482 -0.1786
  666MOL0     H87853   8.325   7.257   2.569  0.6398  1.6490 -0.3171
  666MOL0     H87854   8.178   7.343   2.637 -2.1065  1.2481 -2.4231
  666MOL0     H87855   8.179   7.253   2.350  0.7625  0.0515 -1.0356
  666MOL0     H87856   8.063   7.367   2.444  0.1982 -2.3450 -0.9631
  666MOL0     H87857   8.353   7.428   2.433 -0.0911  0.3278 -0.4408
  666MOL0     H87858   8.227   7.529   2.467  0.5060 -0.1278  0.9298
  666MOL0     H87859   8.152   7.527   2.219  0.1311 -1.7247  0.4968
  666MOL0     H87860   8.282   7.402   2.196 -2.9337  0.0658 -1.0627
  666MOL0     H87861   8.329   7.654   2.134 -0.2257  3.0264  0.8378
  666MOL0     H87862   8.355   7.665   2.310 -0.7778 -0.0562  0.1730
  666MOL0     H87863   8.478   7.461   2.137  0.2105  0.6417 -0.7260
  666MOL0     H87864   8.514   7.496   2.309 -0.1783 -0.0136  0.9432
  666MOL0     H87865   8.513   7.702   1.955  1.4070  0.5388 -0.9444
  666MOL0     H87866   8.683   8.003   2.017  2.4258  0.0106 -0.2613
  666MOL0     H87867   8.618   7.918   1.883  0.5231  0.9947 -0.7466
  666MOL0     H87868   8.900   7.959   1.961  0.9873 -3.7451  1.6486
  666MOL0     H87869   8.827   7.982   1.798 -0.8827  2.3547  1.3453
  666MOL0     H87870   8.929   7.725   1.935 -3.9160  1.8706  2.4601
  666MOL0     H87871   8.824   7.709   1.793  0.3559  0.6090 -0.5690
  666MOL0     H87872   8.981   7.831   1.667  0.0122  2.3012  1.0109
  666MOL0     H87873   9.080   7.704   1.743 -2.3417 -1.8530  1.5826
  666MOL0     H87874   9.049   8.149   1.857  1.2252  1.6256 -0.0739
  666MOL0     H87875   9.084   8.331   1.710  0.1609  0.0394  0.8351
  666MOL0     H87876   9.226   8.488   1.175 -0.4617  1.2244 -0.0761
  666MOL0     H87877   9.063   8.560   1.002  0.5056 -0.4947 -0.0797
  666MOL0     H87878   8.668   8.383   0.931  1.2343 -1.9768  1.4747
  666MOL0     H87879   8.772   8.286   0.842  1.8599 -0.0845 -0.4601
  666MOL0     H87880   8.683   8.575   0.776 -1.7170 -1.1604  0.6966
  666MOL0     H87881   8.604   8.425   0.713  2.0644 -2.0143 -4.1768
  666MOL0     H87882   8.897   8.514   0.661  0.8669 -0.0071 -1.2077
  666MOL0     H87883   8.767   8.566   0.553  1.3412  0.2027 -0.7835
  666MOL0     H87884   8.838   8.274   0.591  1.2353 -0.6792 -2.0717
  666MOL0     H87885   8.702   8.336   0.502 -0.4508 -1.0064  0.9401
  666MOL0     H87886   8.999   8.394   0.446 -0.2784 -1.1390  0.6604
  666MOL0     H87887   8.869   8.482   0.367  3.3395  1.6121  0.4133
  666MOL0     H87888   8.773   8.259   0.285 -1.6791 -0.7309  1.6912
  666MOL0     H87889   8.918   8.174   0.353  1.8504  1.9110  1.0360
  666MOL0     H87890   8.946   8.412   0.169 -5.3838 -0.6952  0.5610
  666MOL0     H87891   9.075   8.296   0.221 -0.0426  0.2729  1.9670
  666MOL0     H87892   8.853   8.227   0.022 -1.6854 -0.6748  2.1996
  666MOL0     H87893   8.921   8.108   0.127 -1.8736 -0.1134 -1.2369
  666MOL0     H87894   8.837   8.209   1.035 -0.1621  0.8708 -2.6607
  666MOL0     H87895   8.997   8.112   1.210  1.0474 -0.2817  0.6074
  666MOL0     H87896   9.280   8.037   1.439  2.0848 -0.1912  2.1834
  666MOL0     H87897   9.263   7.873   1.603  1.6110 -0.0484  1.0353
  666MOL0     H87898   8.311   7.069   2.970 -0.1944 -0.4942 -1.2041
  666MOL0     H87899   8.327   7.053   3.208 -0.4408 -1.4143 -0.3476
  666MOL0     H87900   8.000   7.201   3.644 -0.6935 -0.3336  0.3740
  666MOL0     H87901   8.019   7.202   3.882  2.0116  4.3036 -2.8074
  666MOL0     H87902   8.130   6.934   4.211 -2.6762  0.7127 -0.0589
  666MOL0     H87903   8.268   6.903   4.099 -0.2154  0.7523  1.4511
  666MOL0     H87904   8.147   6.743   3.986 -0.5634 -2.4054  0.0983
  666MOL0     H87905   8.119   6.721   4.157 -0.6175 -0.8576 -0.9664
  666MOL0     H87906   7.921   6.849   3.975  0.4046 -0.1858  0.6426
  666MOL0     H87907   7.910   6.799   4.154 -2.3978  0.1474 -0.0603
  666MOL0     H87908   7.923   6.563   4.101  0.5919  0.7775  0.9134
  666MOL0     H87909   7.793   6.643   4.053 -0.4022  3.5482  0.3818
  666MOL0     H87910   7.999   6.551   3.685 -0.9051 -2.0210  0.1296
  666MOL0     H87911   8.280   6.871   3.883 -0.2616 -0.9549 -0.8799
  666MOL0     H87912   8.310   6.877   3.647  2.9053  3.5308 -1.4504
  667MOL0     O87913  10.530   0.508   6.363 -0.2684  0.2127 -0.8745
  667MOL0     C87914  10.645   0.524   6.318  0.3393 -0.6278 -0.9406
  667MOL0     O87915  10.737   0.617   6.360 -0.4349  0.2826 -0.2088
  667MOL0     C87916  10.727   0.676   6.478  0.3761 -0.3502 -0.3487
  667MOL0     C87917  10.734   0.601   6.592  0.5419  0.4246  0.7136
  667MOL0     C87918  10.740   0.651   6.722  0.2043  0.1404  0.2227
  667MOL0     C87919  10.755   0.788   6.735 -0.4603  0.3413 -1.4592
  667MOL0     O87920  10.787   0.843   6.861  0.0863  0.6455 -0.5060
  667MOL0     C87921  10.668   0.867   6.940 -0.2815 -0.7609 -0.8283
  667MOL0     C87922  10.682   0.991   7.028  0.0993  0.5737  0.1862
  667MOL0     C87923  10.556   1.020   7.099 -0.0988  0.3415  0.3114
  667MOL0     C87924  10.575   1.135   7.206 -0.7564  0.4854 -0.8597
  667MOL0     C87925  10.437   1.163   7.269  0.1898  0.4092 -0.7536
  667MOL0     C87926  10.473   1.240   7.405 -0.4115 -0.9335  0.1627
  667MOL0     C87927  10.355   1.296   7.482 -0.4486 -0.3297 -1.2487
  667MOL0     C87928  10.393   1.366   7.620 -0.1672 -0.3009 -0.3792
  667MOL0     N87929  10.281   1.372   7.717  0.9245  0.6624 -0.2561
  667MOL0     C87930  10.285   1.370   7.856 -0.2777  0.5797 -0.1323
  667MOL0     C87931  10.163   1.419   7.900 -0.5849 -0.2869  1.0911
  667MOL0     C87932  10.145   1.478   8.037 -0.5863  0.8018  1.0072
  667MOL0     C87933  10.058   1.385   8.122  0.4797 -0.6300 -0.2469
  667MOL0     C87934  10.070   1.430   8.277 -0.0145  0.2846  0.8709
  667MOL0     C87935  10.201   1.389   8.343  0.0433  0.5120  0.3943
  667MOL0     O87936  10.250   1.495   8.428 -0.5470  0.6467 -0.2888
  667MOL0     C87937  10.264   1.481   8.562 -1.3613  0.3552  0.1959
  667MOL0     C87938  10.188   1.556   8.653 -0.4127 -0.4829  0.4281
  667MOL0     C87939  10.214   1.569   8.786 -1.3691 -0.2148  0.0209
  667MOL0     C87940  10.310   1.480   8.844 -0.3290 -0.4669  0.4186
  667MOL0     C87941  10.325   1.480   8.991 -0.0561 -0.5769 -0.0796
  667MOL0     O87942  10.244   1.565   9.066 -0.4648 -0.4255 -0.1145
  667MOL0     C87943  10.271   1.573   9.198  0.8878  0.0756 -1.1560
  667MOL0     C87944  10.395   1.591   9.258  0.3117 -0.0278  0.2224
  667MOL0     C87945  10.414   1.580   9.399 -0.7616 -0.2901 -0.3006
  667MOL0     C87946  10.293   1.580   9.473  0.0521  0.1429 -0.0307
  667MOL0     O87947  10.294   1.586   9.612 -0.5192 -0.7742  0.2657
  667MOL0     C87948  10.285   1.455   9.678  0.5189 -0.0198 -0.0539
  667MOL0     C87949  10.270   1.462   9.828  0.7941 -0.3235 -0.5899
  667MOL0     C87950  10.353   1.348   9.896  0.0180 -0.8445  0.0048
  667MOL0     C87951  10.324   1.345  10.052  0.5929  0.2147 -1.9121
  667MOL0     C87952  10.420   1.248  10.121 -0.3478 -0.7632  0.3361
  667MOL0     C87953  10.367   1.175  10.249  0.2744 -0.6253  0.1605
  667MOL0     C87954  10.444   1.055  10.307  0.0453 -0.3320  0.2653
  667MOL0     C87955  10.385   1.049  10.449  0.3437 -0.7104 -0.1231
  667MOL0    Cl87956  10.213   1.028  10.455  0.2009 -0.4867  0.3294
  667MOL0     C87957  10.177   1.565   9.417  0.7829 -0.2190 -0.3594
  667MOL0     C87958  10.163   1.566   9.282 -0.2271 -0.6839 -0.0218
  667MOL0     O87959  10.412   1.402   9.037 -0.9700  0.4913  0.4361
  667MOL0     C87960  10.384   1.394   8.755 -0.5174  0.3735  0.2593
  667MOL0     C87961  10.364   1.393   8.615  0.5005  0.2587  0.0012
  667MOL0     N87962  10.082   1.435   7.785  0.2432 -0.6077  0.3913
  667MOL0     N87963  10.148   1.399   7.679 -0.7480  0.0457 -0.1550
  667MOL0     C87964  10.736   0.876   6.622 -0.2597  0.5009 -0.0105
  667MOL0     C87965  10.724   0.816   6.493 -1.3378  1.0812  0.0861
  667MOL0     C87966  10.679   0.458   6.190  1.0238  0.1893  0.3317
  667MOL0     C87967  10.809   0.474   6.127  0.8418 -0.3991 -0.6234
  667MOL0     C87968  10.835   0.414   6.005  0.4509  0.2508  0.6410
  667MOL0     C87969  10.734   0.332   5.946 -0.5743 -0.1702  0.1218
  667MOL0     O87970  10.756   0.269   5.828 -0.4094  0.6955 -0.0232
  667MOL0     C87971  10.856   0.310   5.737 -0.3844  0.5829 -0.5386
  667MOL0     C87972  10.860   0.231   5.606  1.0891 -0.0600 -0.0513
  667MOL0     C87973  10.760   0.281   5.498  0.2304 -0.0347 -0.7251
  667MOL0     C87974  10.712   0.186   5.390 -0.4249  0.5598 -1.0085
  667MOL0     C87975  10.830   0.130   5.325  0.1099 -0.1361  0.1797
  667MOL0     C87976  10.935   0.106   5.274 -0.4360  0.4330  0.3886
  667MOL0     C87977  10.612   0.303   6.021 -0.2197 -0.5446  1.2174
  667MOL0     C87978  10.590   0.369   6.134  0.1322 -0.3588 -0.4172
  667MOL0     H87979  10.735   0.494   6.577  3.8465  0.7625 -3.5111
  667MOL0     H87980  10.757   0.593   6.812  1.8477 -0.4481 -0.4425
  667MOL0     H87981  10.656   0.786   7.012 -1.1425  0.7647  0.8099
  667MOL0     H87982  10.579   0.876   6.877 -1.2264 -1.3515  0.3854
  667MOL0     H87983  10.715   1.078   6.970 -1.4347  1.8995  1.2186
  667MOL0     H87984  10.756   0.965   7.104  0.2675  1.6305  0.3977
  667MOL0     H87985  10.508   0.938   7.153  0.6609  0.6820  1.5617
  667MOL0     H87986  10.491   1.058   7.020  0.1720 -1.2434 -0.7076
  667MOL0     H87987  10.661   1.114   7.271 -1.2687  0.0853 -0.2999
  667MOL0     H87988  10.611   1.235   7.180  1.3061  0.9251  2.9511
  667MOL0     H87989  10.367   1.081   7.287 -0.0193  1.4392  5.1011
  667MOL0     H87990  10.381   1.223   7.197 -4.6722  0.5285  2.6677
  667MOL0     H87991  10.547   1.316   7.383  2.2133 -2.8502  1.7840
  667MOL0     H87992  10.536   1.175   7.466  1.7704 -1.2303 -2.2352
  667MOL0     H87993  10.291   1.367   7.429 -1.8744 -0.9194 -0.3759
  667MOL0     H87994  10.290   1.215   7.515 -0.0265 -0.0650  0.3435
  667MOL0     H87995  10.422   1.470   7.600  1.4383 -0.5779  0.3434
  667MOL0     H87996  10.481   1.316   7.660  0.5755  0.7803 -0.6094
  667MOL0     H87997  10.378   1.370   7.912 -1.6463  1.0011  2.2673
  667MOL0     H87998  10.112   1.582   8.049  1.0783  1.4467  0.3406
  667MOL0     H87999  10.248   1.491   8.070  0.5029 -0.9593 -1.4209
  667MOL0     H88000  10.086   1.280   8.105  2.1698  0.0587 -2.0150
  667MOL0     H88001   9.956   1.399   8.087  0.5410  0.9270  0.1131
  667MOL0     H88002  10.055   1.538   8.281  2.9498  0.7905  0.2852
  667MOL0     H88003   9.990   1.381   8.335 -0.4740  1.2695  1.0973
  667MOL0     H88004  10.272   1.365   8.262  0.7957 -2.0360  1.7196
  667MOL0     H88005  10.175   1.304   8.406 -3.9661 -0.1064 -1.7634
  667MOL0     H88006  10.113   1.624   8.614 -0.3420 -0.5125  0.2378
  667MOL0     H88007  10.169   1.644   8.850 -0.1594  2.4327 -2.0058
  667MOL0     H88008  10.486   1.612   9.203  0.1342  2.0730  0.6368
  667MOL0     H88009  10.507   1.592   9.454 -0.7020  0.4455 -0.5533
  667MOL0     H88010  10.372   1.392   9.656 -0.7998 -3.0158  2.4339
  667MOL0     H88011  10.198   1.413   9.625  0.5196 -0.1368  0.0362
  667MOL0     H88012  10.166   1.449   9.857  0.7757 -2.9754 -1.5669
  667MOL0     H88013  10.309   1.557   9.865  1.7600 -0.6641 -0.6920
  667MOL0     H88014  10.460   1.346   9.873  0.6518 -1.8888  2.6551
  667MOL0     H88015  10.312   1.256   9.854 -0.5292 -0.7190  0.2519
  667MOL0     H88016  10.318   1.444  10.100  1.0737 -0.2101 -0.9498
  667MOL0     H88017  10.229   1.294  10.067  1.0358  0.4320  3.2599
  667MOL0     H88018  10.511   1.306  10.139  0.9384 -1.6205 -2.7820
  667MOL0     H88019  10.461   1.174  10.052  3.2880 -0.7838  2.2523
  667MOL0     H88020  10.267   1.139  10.220  0.5309 -2.5333  1.4652
  667MOL0     H88021  10.351   1.256  10.320  0.4107 -1.9885  1.8174
  667MOL0     H88022  10.421   0.968  10.244  0.9851  1.0907 -2.1870
  667MOL0     H88023  10.552   1.071  10.314  0.0954 -0.5494  0.0464
  667MOL0     H88024  10.411   1.145  10.493 -3.2771  1.8972 -3.0769
  667MOL0     H88025  10.430   0.971  10.511  1.6812  1.7884  2.2615
  667MOL0     H88026  10.088   1.579   9.477  1.2527  0.5333  0.1899
  667MOL0     H88027  10.063   1.558   9.240 -0.4929  1.0330  0.2320
  667MOL0     H88028  10.462   1.336   8.803 -0.8132 -0.3653 -0.1308
  667MOL0     H88029  10.432   1.349   8.543  2.2224  0.2013  1.5834
  667MOL0     H88030  10.742   0.984   6.614 -1.2323  0.5708  0.1553
  667MOL0     H88031  10.722   0.876   6.402 -1.7325  0.9451  0.0021
  667MOL0     H88032  10.893   0.535   6.158  0.0585  0.4472 -0.0981
  667MOL0     H88033  10.929   0.419   5.950 -0.7146 -1.8760 -1.7946
  667MOL0     H88034  10.953   0.288   5.783  0.2499  2.5615 -0.8030
  667MOL0     H88035  10.866   0.418   5.721 -1.1022  1.1675  2.4351
  667MOL0     H88036  10.956   0.239   5.555  0.8182  1.5438 -0.3684
  667MOL0     H88037  10.834   0.125   5.618 -0.9038  0.4639  0.6372
  667MOL0     H88038  10.800   0.363   5.437  1.8288 -2.6874 -3.4696
  667MOL0     H88039  10.665   0.321   5.536 -1.6949 -3.3843 -1.5856
  667MOL0     H88040  10.649   0.103   5.423  0.1563 -0.8427 -3.1823
  667MOL0     H88041  10.644   0.228   5.315 -2.3291 -0.8922 -0.1899
  667MOL0     H88042  11.029   0.087   5.226  1.1612  3.3621  2.0557
  667MOL0     H88043  10.542   0.228   5.988  1.5556 -1.1992 -1.2875
  667MOL0     H88044  10.488   0.357   6.169 -0.2986 -1.3369 -1.9201
  668MOL0     O88045   4.149   3.743   6.449  0.4700 -0.7685  0.6109
  668MOL0     C88046   4.111   3.704   6.555  0.2415  0.5365  0.1470
  668MOL0     O88047   3.982   3.667   6.587  0.5481  0.9372 -0.4508
  668MOL0     C88048   3.887   3.658   6.493  1.8247  0.2188 -0.2191
  668MOL0     C88049   3.752   3.698   6.524 -0.1816  0.6210 -0.5217
  668MOL0     C88050   3.650   3.685   6.424 -0.9695 -0.5928 -0.4178
  668MOL0     C88051   3.677   3.619   6.306  0.0825 -0.3075 -0.2842
  668MOL0     O88052   3.576   3.617   6.213  0.1142  0.5094 -0.2257
  668MOL0     C88053   3.513   3.487   6.190 -1.2931  0.1617 -0.4482
  668MOL0     C88054   3.363   3.501   6.158  0.2289 -0.5105 -0.1792
  668MOL0     C88055   3.317   3.502   6.012 -0.3668  0.0398  0.5676
  668MOL0     C88056   3.173   3.459   5.989 -0.9283 -0.2437 -0.7380
  668MOL0     C88057   3.135   3.448   5.850  0.1970 -0.6318  0.5481
  668MOL0     C88058   2.998   3.380   5.837 -0.0280  0.1527 -0.5308
  668MOL0     C88059   2.936   3.402   5.705  1.0280  1.0842  0.2720
  668MOL0     C88060   2.799   3.344   5.677 -0.0712 -0.5833  0.7337
  668MOL0     N88061   2.684   3.419   5.738 -0.0339 -0.1444  0.3047
  668MOL0     C88062   2.601   3.380   5.839 -0.1229 -0.3190  0.1484
  668MOL0     C88063   2.512   3.480   5.853  0.7863 -0.5644 -0.4464
  668MOL0     C88064   2.380   3.490   5.932 -0.3929 -0.5239  0.3279
  668MOL0     C88065   2.356   3.390   6.046 -0.3886 -0.5044  0.1039
  668MOL0     C88066   2.365   3.458   6.181 -0.7475 -0.3342 -0.0454
  668MOL0     C88067   2.240   3.545   6.213 -0.6358  0.2337 -0.1347
  668MOL0     O88068   2.113   3.466   6.203 -0.1683 -0.1797  0.1423
  668MOL0     C88069   2.063   3.440   6.326 -0.1125  0.7376  0.7080
  668MOL0     C88070   2.132   3.416   6.454 -0.0561 -1.4075 -0.2959
  668MOL0     C88071   2.060   3.381   6.564  0.1939  0.9068 -0.5922
  668MOL0     C88072   1.919   3.357   6.561 -0.5241  1.1192 -0.8656
  668MOL0     C88073   1.853   3.303   6.682 -1.0837  0.8979 -0.0896
  668MOL0     O88074   1.914   3.297   6.806  0.1681 -0.7375  0.0199
  668MOL0     C88075   1.831   3.255   6.901 -0.7594  0.3773  0.4888
  668MOL0     C88076   1.793   3.334   7.003  0.0589 -1.1491 -0.3702
  668MOL0     C88077   1.681   3.309   7.089  0.4371  0.7302  0.3473
  668MOL0     C88078   1.618   3.183   7.072 -0.7359  0.6754 -0.5691
  668MOL0     O88079   1.514   3.153   7.157 -0.0319 -0.5446 -0.6874
  668MOL0     C88080   1.482   3.023   7.200 -0.6866  0.1929  1.4995
  668MOL0     C88081   1.427   3.019   7.337 -0.1028  0.3664  0.2181
  668MOL0     C88082   1.299   3.096   7.356 -0.2622  0.3826  0.1564
  668MOL0     C88083   1.267   3.070   7.503  0.4192 -0.1248 -0.0086
  668MOL0     C88084   1.124   3.063   7.535  0.9210 -0.3199  0.4068
  668MOL0     C88085   1.109   3.054   7.690  0.0497 -0.0078 -0.0839
  668MOL0     C88086   0.980   2.975   7.717  0.0500 -0.1116  0.2679
  668MOL0     C88087   0.983   2.966   7.872  0.7408  0.7390  0.5052
  668MOL0    Cl88088   0.818   2.911   7.925 -0.4647  0.2374  0.0209
  668MOL0     C88089   1.680   3.090   6.984 -0.5181  0.8350 -0.5942
  668MOL0     C88090   1.777   3.123   6.896  0.2068 -0.3414 -0.2227
  668MOL0     O88091   1.739   3.259   6.658 -0.8817  0.7695  0.3986
  668MOL0     C88092   1.853   3.378   6.439  0.2763  0.0231 -0.3121
  668MOL0     C88093   1.926   3.409   6.318 -0.2174 -0.1290 -0.1182
  668MOL0     N88094   2.554   3.582   5.760 -0.0245 -0.0664 -1.4740
  668MOL0     N88095   2.662   3.548   5.698 -0.3569  0.3382  0.4843
  668MOL0     C88096   3.808   3.571   6.276  0.2270 -0.3089 -0.0002
  668MOL0     C88097   3.912   3.589   6.365 -0.3175 -0.8441 -0.8922
  668MOL0     C88098   4.202   3.691   6.664 -0.2682  0.1909 -0.0707
  668MOL0     C88099   4.338   3.678   6.632  0.0902 -0.2101 -0.1675
  668MOL0     C88100   4.432   3.655   6.738  0.5538  0.3935  0.6085
  668MOL0     C88101   4.397   3.658   6.873 -0.0298  0.5464 -0.2761
  668MOL0     O88102   4.483   3.638   6.971 -0.6891 -0.0186 -0.7964
  668MOL0     C88103   4.622   3.654   6.948  0.5709 -1.0295  0.3609
  668MOL0     C88104   4.713   3.648   7.078  0.7309  0.5172  0.3123
  668MOL0     C88105   4.727   3.509   7.131 -0.4280 -0.7032 -0.4063
  668MOL0     C88106   4.597   3.455   7.190  0.8241  0.9130 -0.8984
  668MOL0     C88107   4.631   3.347   7.296  0.6961 -0.0924  0.9514
  668MOL0     C88108   4.662   3.274   7.387  0.9544 -0.0539  0.0353
  668MOL0     C88109   4.257   3.655   6.898 -0.9626 -0.5151 -0.5147
  668MOL0     C88110   4.169   3.674   6.798  0.0932  0.2460 -0.6525
  668MOL0     H88111   3.738   3.753   6.617 -1.7784  3.6052 -2.3759
  668MOL0     H88112   3.550   3.725   6.436 -1.2920 -1.7809  1.1414
  668MOL0     H88113   3.524   3.431   6.283  0.2681  0.3487 -0.4871
  668MOL0     H88114   3.554   3.433   6.104  0.0287  0.7480 -0.2075
  668MOL0     H88115   3.336   3.590   6.216 -0.4640 -0.9382  0.1560
  668MOL0     H88116   3.310   3.415   6.198  1.4423 -0.7375  1.0433
  668MOL0     H88117   3.385   3.430   5.965 -0.7591 -1.3063  1.9531
  668MOL0     H88118   3.339   3.600   5.969  1.2425  0.7109  2.7339
  668MOL0     H88119   3.174   3.356   6.026  0.6782  0.2479  0.7267
  668MOL0     H88120   3.109   3.510   6.061  1.7569 -0.4598  2.0247
  668MOL0     H88121   3.196   3.376   5.794  1.1402  0.5506  0.0167
  668MOL0     H88122   3.127   3.541   5.793 -2.9949 -1.9802 -1.5152
  668MOL0     H88123   2.935   3.424   5.915  1.1162 -3.2631  2.5470
  668MOL0     H88124   3.013   3.274   5.859 -0.9967  0.0200 -0.4482
  668MOL0     H88125   2.945   3.505   5.669  0.7424  0.9338 -0.2391
  668MOL0     H88126   2.991   3.344   5.630 -2.7890 -1.3010 -0.9996
  668MOL0     H88127   2.795   3.241   5.715 -1.6496  0.4799  3.7922
  668MOL0     H88128   2.789   3.350   5.568 -1.6648 -0.1266  0.8810
  668MOL0     H88129   2.604   3.292   5.903 -0.7567  1.1149  2.2662
  668MOL0     H88130   2.297   3.483   5.861  0.2913 -1.4663 -0.4148
  668MOL0     H88131   2.378   3.591   5.973 -0.7621 -2.2314  5.2163
  668MOL0     H88132   2.425   3.306   6.052  0.3435  0.0803 -0.0506
  668MOL0     H88133   2.257   3.344   6.033  0.0831 -2.4188  2.5013
  668MOL0     H88134   2.385   3.379   6.255 -2.0832 -0.8310 -0.1886
  668MOL0     H88135   2.451   3.525   6.179  0.6448 -2.0249 -2.2988
  668MOL0     H88136   2.242   3.626   6.139  1.4418 -0.1145 -0.5052
  668MOL0     H88137   2.249   3.591   6.312  2.7777 -0.5775  0.0528
  668MOL0     H88138   2.238   3.438   6.460 -0.4126  1.9774 -3.1779
  668MOL0     H88139   2.112   3.366   6.658  0.1618 -0.6685 -0.8079
  668MOL0     H88140   1.831   3.436   7.006  0.2047 -1.2068 -0.2236
  668MOL0     H88141   1.638   3.389   7.148 -1.8680  0.3948 -0.7610
  668MOL0     H88142   1.571   2.962   7.217 -0.3369  0.1154 -0.3796
  668MOL0     H88143   1.413   2.971   7.133 -2.0494  0.8188  2.3701
  668MOL0     H88144   1.496   3.062   7.410  1.2428 -0.5494 -0.4669
  668MOL0     H88145   1.396   2.919   7.367 -4.2922  1.3578 -0.1331
  668MOL0     H88146   1.228   3.058   7.283 -0.1359 -0.8183  0.6358
  668MOL0     H88147   1.331   3.200   7.343 -1.3905  0.4763 -2.5484
  668MOL0     H88148   1.312   2.980   7.545  2.3359  1.6694  2.0430
  668MOL0     H88149   1.310   3.149   7.565 -0.1221 -1.9827  2.8980
  668MOL0     H88150   1.089   2.969   7.492  0.7929 -0.2094  0.2652
  668MOL0     H88151   1.063   3.148   7.501 -0.6657  0.1848  4.0274
  668MOL0     H88152   1.101   3.159   7.720  2.7595 -0.2508  1.8306
  668MOL0     H88153   1.194   2.999   7.731 -0.1065  0.0288  0.2909
  668MOL0     H88154   0.898   3.025   7.663 -0.0450 -2.1106 -1.5815
  668MOL0     H88155   0.995   2.870   7.690  1.2264 -0.5705  2.4694
  668MOL0     H88156   0.997   3.068   7.911  0.2999  0.4354  1.4843
  668MOL0     H88157   1.056   2.897   7.915 -1.9628 -2.5427  0.2294
  668MOL0     H88158   1.635   2.993   6.971 -0.9470  0.9833 -0.2596
  668MOL0     H88159   1.816   3.047   6.828 -1.3756 -0.4598 -1.0427
  668MOL0     H88160   1.746   3.359   6.438 -0.1440  2.1555  0.5245
  668MOL0     H88161   1.883   3.405   6.219  2.8061  0.6815 -1.6068
  668MOL0     H88162   3.816   3.523   6.179 -1.7047  0.9545 -0.8754
  668MOL0     H88163   4.016   3.558   6.361  0.0623 -0.7621  3.3569
  668MOL0     H88164   4.375   3.692   6.531 -2.3501 -0.7032 -1.1870
  668MOL0     H88165   4.535   3.636   6.709  1.0080  0.6031  2.0092
  668MOL0     H88166   4.632   3.753   6.901  1.6453 -1.2122  0.1729
  668MOL0     H88167   4.662   3.581   6.877 -1.1114  0.8320 -2.7259
  668MOL0     H88168   4.807   3.692   7.045 -0.0460  2.0493  0.0671
  668MOL0     H88169   4.680   3.719   7.154  0.3271  0.5500  0.1130
  668MOL0     H88170   4.805   3.506   7.208  1.0136 -0.9032 -1.8443
  668MOL0     H88171   4.773   3.432   7.069  0.4945  1.2461 -2.2305
  668MOL0     H88172   4.558   3.541   7.245 -1.0894  2.6038 -4.5336
  668MOL0     H88173   4.517   3.414   7.128 -0.9516  0.3014  1.6722
  668MOL0     H88174   4.694   3.214   7.469  0.3308  0.3436  0.5749
  668MOL0     H88175   4.212   3.669   6.996  1.0188  1.6382  0.1737
  668MOL0     H88176   4.069   3.657   6.835  1.1585 -0.5788  2.1337
  669MOL0     O88177   3.248   1.149   5.654 -0.3963 -0.4909  0.3974
  669MOL0     C88178   3.149   1.211   5.618  0.5505  0.3642 -0.4437
  669MOL0     O88179   3.108   1.223   5.488 -0.8302 -0.6597 -0.6750
  669MOL0     C88180   3.186   1.160   5.396  0.4269 -0.2182 -0.0279
  669MOL0     C88181   3.250   1.232   5.303 -1.5935 -0.2508 -0.0778
  669MOL0     C88182   3.337   1.185   5.209 -0.2775 -0.4340 -0.8524
  669MOL0     C88183   3.376   1.055   5.209 -0.7389  0.6095 -0.3691
  669MOL0     O88184   3.482   0.998   5.137 -0.7582  0.2289  0.6174
  669MOL0     C88185   3.455   0.991   4.993 -0.4139  0.1131 -0.2445
  669MOL0     C88186   3.492   0.845   4.948 -0.0434 -0.0280 -0.2883
  669MOL0     C88187   3.430   0.738   5.038  0.6038  0.2707 -0.3474
  669MOL0     C88188   3.456   0.604   4.982 -0.0032  0.8270  0.5116
  669MOL0     C88189   3.459   0.505   5.106  0.1987  0.5394  0.8426
  669MOL0     C88190   3.595   0.488   5.188 -0.0490 -0.5270 -0.2313
  669MOL0     C88191   3.595   0.360   5.265  0.3721 -0.0140  0.2869
  669MOL0     C88192   3.715   0.343   5.356 -0.3569  0.1067  0.9137
  669MOL0     N88193   3.740   0.454   5.443  0.8086  0.6519  0.7371
  669MOL0     C88194   3.652   0.514   5.521  0.1478 -0.0336 -0.0004
  669MOL0     C88195   3.713   0.625   5.566  0.2142  0.0165 -0.0106
  669MOL0     C88196   3.657   0.724   5.670  0.9335 -0.1796 -0.5268
  669MOL0     C88197   3.609   0.846   5.587  0.1776 -0.2915 -0.4738
  669MOL0     C88198   3.635   0.982   5.643 -0.4027 -0.8961 -0.4144
  669MOL0     C88199   3.538   1.007   5.764 -1.6196 -0.9940 -0.0592
  669MOL0     O88200   3.565   1.143   5.806 -0.1326 -0.1075  0.0588
  669MOL0     C88201   3.541   1.175   5.937  0.8048 -0.1600  0.2436
  669MOL0     C88202   3.602   1.290   5.992 -0.5797  0.0247 -0.0252
  669MOL0     C88203   3.582   1.324   6.127 -0.5447  0.4473  0.0584
  669MOL0     C88204   3.515   1.242   6.214  0.3673 -0.6086 -0.2949
  669MOL0     C88205   3.504   1.275   6.360 -0.2382 -0.6281  0.3852
  669MOL0     O88206   3.520   1.408   6.382 -0.5192  0.1611  0.0321
  669MOL0     C88207   3.494   1.468   6.504 -0.2594 -0.7258  0.2624
  669MOL0     C88208   3.389   1.438   6.582  0.5093 -0.9282  0.3683
  669MOL0     C88209   3.373   1.507   6.699  0.4270  0.1518  0.6523
  669MOL0     C88210   3.454   1.606   6.746  0.1478 -0.1745  0.0171
  669MOL0     O88211   3.420   1.671   6.859 -0.0214  0.5882 -0.3534
  669MOL0     C88212   3.518   1.755   6.926  0.9158 -0.4282 -0.3496
  669MOL0     C88213   3.488   1.784   7.075  0.2152  0.9707 -0.3468
  669MOL0     C88214   3.428   1.662   7.149 -0.2024 -0.3690 -0.3381
  669MOL0     C88215   3.516   1.537   7.123 -0.2213 -0.0081 -0.6297
  669MOL0     C88216   3.475   1.422   7.214 -0.4960 -0.6775  0.2683
  669MOL0     C88217   3.331   1.377   7.183 -0.2431  0.3891 -0.1428
  669MOL0     C88218   3.299   1.256   7.270 -0.1273 -0.3096 -0.5990
  669MOL0     C88219   3.157   1.223   7.301 -1.5143  0.3920 -0.2620
  669MOL0    Cl88220   3.079   1.330   7.416 -0.2615  0.6181 -0.1561
  669MOL0     C88221   3.565   1.640   6.662 -0.7783 -0.3874  1.3985
  669MOL0     C88222   3.584   1.569   6.543 -0.7580 -0.3053 -0.7843
  669MOL0     O88223   3.466   1.192   6.438  0.2124 -0.1220 -0.5006
  669MOL0     C88224   3.454   1.130   6.160  0.4920  0.3763  0.3955
  669MOL0     C88225   3.466   1.091   6.032 -0.3038 -0.4312 -0.1821
  669MOL0     N88226   3.839   0.630   5.518 -0.0353 -0.1615  0.4761
  669MOL0     N88227   3.844   0.538   5.431  0.2193  0.1349  0.2671
  669MOL0     C88228   3.322   0.976   5.307 -0.3317  0.1065  0.3461
  669MOL0     C88229   3.233   1.028   5.406 -0.2699  0.2147  0.6542
  669MOL0     C88230   3.067   1.255   5.731 -1.1039 -0.1900 -0.1126
  669MOL0     C88231   3.122   1.265   5.861 -0.4233  0.0996  0.3810
  669MOL0     C88232   3.046   1.284   5.970  0.7100  0.0615 -0.5452
  669MOL0     C88233   2.915   1.299   5.964  0.8582  0.3631  0.9364
  669MOL0     O88234   2.844   1.331   6.077  0.2201  0.7557 -0.0923
  669MOL0     C88235   2.711   1.390   6.072  0.2406 -0.0548  1.0326
  669MOL0     C88236   2.647   1.425   6.202  0.6162 -0.6773  0.2449
  669MOL0     C88237   2.630   1.300   6.296 -0.4070 -0.8629  0.0552
  669MOL0     C88238   2.545   1.341   6.423  0.2795 -0.0220 -0.3570
  669MOL0     C88239   2.545   1.229   6.508  0.3102 -0.0975  0.7126
  669MOL0     C88240   2.565   1.130   6.573 -0.1454  0.1195  0.8059
  669MOL0     C88241   2.858   1.310   5.835  0.8600 -0.7462  0.2681
  669MOL0     C88242   2.933   1.268   5.722  0.1645 -0.3443 -0.4157
  669MOL0     H88243   3.241   1.340   5.301  3.2808  0.5703  3.4534
  669MOL0     H88244   3.371   1.270   5.151 -2.0284  3.1018  2.8203
  669MOL0     H88245   3.516   1.058   4.932 -2.1983 -0.4235 -2.7923
  669MOL0     H88246   3.353   1.025   4.969 -1.9216 -3.2240  0.8246
  669MOL0     H88247   3.601   0.842   4.943 -0.0010  1.8461 -1.8820
  669MOL0     H88248   3.449   0.824   4.849  2.4238 -3.5818 -0.7985
  669MOL0     H88249   3.321   0.747   5.046 -0.1410 -5.2231 -0.2312
  669MOL0     H88250   3.477   0.745   5.137  2.1179  2.2232 -1.1377
  669MOL0     H88251   3.368   0.583   4.922 -2.6666 -0.3272  4.4521
  669MOL0     H88252   3.552   0.604   4.929  0.4572 -3.1955  1.0562
  669MOL0     H88253   3.428   0.411   5.061 -0.5039 -0.0132  2.4063
  669MOL0     H88254   3.375   0.523   5.173  0.1791  2.6599  0.3246
  669MOL0     H88255   3.593   0.567   5.263  0.6619 -0.7782  0.0614
  669MOL0     H88256   3.681   0.491   5.121 -0.1518 -0.7707 -0.3786
  669MOL0     H88257   3.509   0.354   5.333 -0.0502 -1.5308 -0.3281
  669MOL0     H88258   3.595   0.268   5.206 -4.4628 -1.3784  1.9692
  669MOL0     H88259   3.799   0.319   5.290 -2.0637  1.7613 -2.0406
  669MOL0     H88260   3.705   0.252   5.416 -0.4880  0.1127  0.8999
  669MOL0     H88261   3.556   0.475   5.553  1.3455 -0.8119  3.0780
  669MOL0     H88262   3.739   0.751   5.737  1.3071 -0.5043 -0.8468
  669MOL0     H88263   3.574   0.684   5.729 -0.2783  1.3329 -1.1431
  669MOL0     H88264   3.501   0.831   5.579 -0.2262  1.8004  0.3644
  669MOL0     H88265   3.640   0.841   5.482  1.5918  2.1303 -0.2496
  669MOL0     H88266   3.741   1.003   5.660 -0.5309  2.1429 -2.5831
  669MOL0     H88267   3.605   1.049   5.562  1.9333 -0.1326 -0.7001
  669MOL0     H88268   3.549   0.927   5.838  2.5039 -2.3433 -1.7719
  669MOL0     H88269   3.432   1.008   5.737 -1.0160 -2.1164 -2.8964
  669MOL0     H88270   3.662   1.356   5.931 -2.1339 -0.1960 -1.9217
  669MOL0     H88271   3.634   1.414   6.156  1.1911 -0.8051  1.0692
  669MOL0     H88272   3.308   1.374   6.549  0.4373 -0.7936  0.2855
  669MOL0     H88273   3.283   1.492   6.757 -1.5812 -0.2808 -2.3107
  669MOL0     H88274   3.549   1.852   6.887  1.3669 -0.7416 -0.7875
  669MOL0     H88275   3.613   1.703   6.909  1.3733 -0.0045  0.8035
  669MOL0     H88276   3.419   1.867   7.094  2.3391  2.6766  0.3183
  669MOL0     H88277   3.581   1.811   7.127  0.0602 -1.1252  1.1357
  669MOL0     H88278   3.329   1.643   7.105 -0.3938  0.3644 -0.2236
  669MOL0     H88279   3.416   1.684   7.255  1.5197  1.5121 -0.4912
  669MOL0     H88280   3.514   1.495   7.022 -0.2469 -3.0212  0.5065
  669MOL0     H88281   3.618   1.569   7.147 -0.3671 -1.2642  2.0444
  669MOL0     H88282   3.486   1.442   7.321 -2.9575 -3.4927  1.2240
  669MOL0     H88283   3.542   1.340   7.187 -1.2570 -1.3670  0.4324
  669MOL0     H88284   3.316   1.363   7.076 -3.6794 -0.3980  0.3205
  669MOL0     H88285   3.263   1.458   7.213 -2.7727 -0.8954 -2.1437
  669MOL0     H88286   3.357   1.170   7.235  0.8828  0.4737 -0.8878
  669MOL0     H88287   3.339   1.275   7.370 -0.4715  2.4303 -0.9202
  669MOL0     H88288   3.165   1.123   7.346 -0.1817  0.4716 -0.2796
  669MOL0     H88289   3.097   1.200   7.212 -2.3849 -1.3778  0.7209
  669MOL0     H88290   3.638   1.714   6.692  3.1044 -2.5602 -1.8213
  669MOL0     H88291   3.664   1.594   6.475 -1.1447 -1.6076 -1.7625
  669MOL0     H88292   3.391   1.057   6.210  0.6840 -1.4477 -1.8336
  669MOL0     H88293   3.407   1.003   6.009 -0.8802 -0.9829  2.8975
  669MOL0     H88294   3.327   0.868   5.306 -1.2901  0.0519 -0.2810
  669MOL0     H88295   3.190   0.961   5.480  2.0968  0.7741  2.6694
  669MOL0     H88296   3.230   1.265   5.871 -0.2879  2.3441 -0.6548
  669MOL0     H88297   3.092   1.289   6.068  0.2498  0.7022 -0.3618
  669MOL0     H88298   2.636   1.322   6.029  1.9011 -0.3234 -1.6890
  669MOL0     H88299   2.723   1.476   6.005 -2.0441 -1.6297 -1.6191
  669MOL0     H88300   2.705   1.494   6.264 -0.9231  0.1163  0.8523
  669MOL0     H88301   2.550   1.474   6.189  1.2589  0.4626 -0.3957
  669MOL0     H88302   2.721   1.243   6.318  0.9231 -0.9631 -4.6449
  669MOL0     H88303   2.578   1.232   6.228  0.5305 -2.2935  0.7173
  669MOL0     H88304   2.582   1.426   6.480 -3.6163  1.6403 -0.0409
  669MOL0     H88305   2.444   1.369   6.393  0.6722  1.8486 -0.0473
  669MOL0     H88306   2.583   1.044   6.634 -0.9104  1.3057  2.8191
  669MOL0     H88307   2.750   1.322   5.824  1.0019  1.0311  0.4882
  669MOL0     H88308   2.869   1.241   5.639 -1.9113 -0.2900  1.0881
  670MOL0     O88309   8.587   3.376  11.378  1.1591 -0.5519  0.2747
  670MOL0     C88310   8.674   3.290  11.354 -1.3502 -0.0153  0.8343
  670MOL0     O88311   8.649   3.160  11.301  0.1292 -0.1059  0.0951
  670MOL0     C88312   8.523   3.117  11.284 -0.1781  0.8238  0.6204
  670MOL0     C88313   8.484   3.059  11.158  0.4454  0.7146 -0.0389
  670MOL0     C88314   8.348   3.015  11.138 -0.2206  0.3617 -0.2500
  670MOL0     C88315   8.257   3.043  11.234  0.7570  0.0849 -0.8864
  670MOL0     O88316   8.123   3.007  11.226 -0.0548 -0.3817 -0.0543
  670MOL0     C88317   8.072   2.909  11.131 -0.2124 -0.1615  0.7086
  670MOL0     C88318   7.950   2.850  11.193  0.6365  1.0410 -0.2234
  670MOL0     C88319   7.820   2.935  11.186 -0.2550 -0.0996 -0.5516
  670MOL0     C88320   7.766   2.960  11.051  0.1888 -0.0297 -0.0126
  670MOL0     C88321   7.643   3.053  11.061  0.1417 -0.1507 -0.9214
  670MOL0     C88322   7.608   3.076  10.917  0.5028 -0.5957 -0.1786
  670MOL0     C88323   7.455   3.084  10.884  0.6728 -0.0227  0.1701
  670MOL0     C88324   7.385   3.195  10.952  0.4538 -0.9634  0.6937
  670MOL0     N88325   7.454   3.321  10.916  0.7723  0.0253 -0.1729
  670MOL0     C88326   7.442   3.387  10.796  0.8567 -0.3334 -1.4184
  670MOL0     C88327   7.531   3.482  10.799 -0.2289  0.1919  0.4210
  670MOL0     C88328   7.581   3.558  10.681 -0.1325  0.3501 -0.0285
  670MOL0     C88329   7.582   3.710  10.711  0.2158  0.6286  0.4977
  670MOL0     C88330   7.722   3.745  10.774  0.4630 -0.0953 -0.0500
  670MOL0     C88331   7.731   3.890  10.787 -1.1389 -0.7074 -0.0821
  670MOL0     O88332   7.866   3.937  10.802  0.1809  0.0782 -0.1291
  670MOL0     C88333   7.910   4.073  10.784  0.1854  1.4256  0.3107
  670MOL0     C88334   7.820   4.174  10.752  0.0452  0.1655 -0.0659
  670MOL0     C88335   7.876   4.302  10.744 -0.4500  1.2384  0.4332
  670MOL0     C88336   8.020   4.331  10.748  0.4141  0.1009  0.5656
  670MOL0     C88337   8.079   4.462  10.705 -0.1520 -0.1895 -0.3434
  670MOL0     O88338   7.997   4.568  10.675 -0.6214 -0.7742  0.8843
  670MOL0     C88339   8.041   4.682  10.615  0.2450  0.4578 -0.8620
  670MOL0     C88340   7.952   4.789  10.643  0.2464 -0.1169 -0.0535
  670MOL0     C88341   7.982   4.919  10.595 -0.1915 -0.1212 -1.1245
  670MOL0     C88342   8.100   4.938  10.523 -0.4471 -0.5689  0.2003
  670MOL0     O88343   8.122   5.062  10.466 -0.9686 -0.2921 -0.4883
  670MOL0     C88344   8.106   5.098  10.331  0.2388  0.7043  0.1364
  670MOL0     C88345   8.059   5.250  10.326 -0.4184  0.0535 -0.6085
  670MOL0     C88346   7.963   5.280  10.207  0.4751 -1.2066  0.8458
  670MOL0     C88347   7.900   5.425  10.223  1.0836  0.3549 -0.6540
  670MOL0     C88348   7.794   5.469  10.118 -0.6790 -0.4343 -1.1929
  670MOL0     C88349   7.768   5.617  10.143 -0.3495  0.3322 -0.8617
  670MOL0     C88350   7.880   5.709  10.072  0.1478 -0.7202 -0.0459
  670MOL0     C88351   7.847   5.850  10.119 -1.0659 -0.2872  0.2470
  670MOL0    Cl88352   7.990   5.941  10.088  0.2466 -0.4017  0.4331
  670MOL0     C88353   8.192   4.834  10.500  0.2218  0.2598  0.0922
  670MOL0     C88354   8.153   4.704  10.533 -0.6791  0.2813  1.1099
  670MOL0     O88355   8.203   4.465  10.697 -0.0058  0.1499  0.0608
  670MOL0     C88356   8.101   4.226  10.777 -0.8311  1.2739  0.3534
  670MOL0     C88357   8.052   4.098  10.793  0.3937 -0.4135  0.1483
  670MOL0     N88358   7.595   3.474  10.922 -0.6469  0.4883  0.4797
  670MOL0     N88359   7.536   3.382  10.994  0.0498  0.0593  0.4188
  670MOL0     C88360   8.289   3.101  11.357 -0.0514 -0.9458 -0.3019
  670MOL0     C88361   8.421   3.137  11.383 -0.0279  0.3472 -0.4407
  670MOL0     C88362   8.815   3.320  11.384 -0.5256 -0.1589  0.4897
  670MOL0     C88363   8.853   3.448  11.442 -0.8092  1.0839 -0.4634
  670MOL0     C88364   8.988   3.477  11.469  0.2331 -0.2073  0.2751
  670MOL0     C88365   9.084   3.387  11.442  0.0367  0.0382  0.2495
  670MOL0     O88366   9.211   3.425  11.480  0.2706  0.2838  0.1390
  670MOL0     C88367   9.325   3.351  11.424 -0.1748  0.3653  0.5736
  670MOL0     C88368   9.342   3.400  11.279  0.7421 -0.2416  0.3390
  670MOL0     C88369   9.413   3.528  11.295  0.1449  0.2664  0.0178
  670MOL0     C88370   9.460   3.584  11.160 -0.2154  0.1169  0.8134
  670MOL0     C88371   9.346   3.651  11.088 -0.5015 -0.6340  0.0613
  670MOL0     C88372   9.264   3.718  11.025 -0.3241 -0.1833  0.3909
  670MOL0     C88373   9.047   3.262  11.381  0.0882 -0.5144  0.5463
  670MOL0     C88374   8.917   3.236  11.347 -0.1320 -0.4274 -0.0846
  670MOL0     H88375   8.564   3.055  11.085  3.2976 -1.2355  2.8796
  670MOL0     H88376   8.318   2.954  11.053  1.2064 -2.8350  1.3443
  670MOL0     H88377   8.137   2.824  11.108 -0.9367 -0.6461  0.4333
  670MOL0     H88378   8.053   2.955  11.033  2.3444 -2.6039 -1.0856
  670MOL0     H88379   7.962   2.823  11.298 -2.3363  1.7075  0.3964
  670MOL0     H88380   7.930   2.758  11.136  3.3194  1.0622 -1.3199
  670MOL0     H88381   7.842   3.027  11.241 -1.6303  0.4097 -0.8112
  670MOL0     H88382   7.747   2.881  11.248 -0.9819  0.3089 -1.0306
  670MOL0     H88383   7.843   3.002  10.986  0.1217 -0.9200 -0.6839
  670MOL0     H88384   7.739   2.861  11.012 -2.5973  0.3518  0.7075
  670MOL0     H88385   7.674   3.150  11.100  1.1533 -0.2932 -1.3395
  670MOL0     H88386   7.560   3.008  11.116 -2.4477  3.0101 -1.9692
  670MOL0     H88387   7.635   2.983  10.866 -1.8665 -0.7081 -1.3503
  670MOL0     H88388   7.662   3.168  10.892  1.0599 -1.2073 -1.2953
  670MOL0     H88389   7.440   3.083  10.776 -2.1798  2.8560  0.4056
  670MOL0     H88390   7.408   2.992  10.921 -2.0635  1.0283 -0.4609
  670MOL0     H88391   7.381   3.192  11.062 -1.7260  1.2016  0.7446
  670MOL0     H88392   7.284   3.182  10.912  1.7905 -2.1027 -2.6196
  670MOL0     H88393   7.378   3.344  10.719 -0.8541 -1.3592  0.4590
  670MOL0     H88394   7.510   3.542  10.599  0.9148 -2.7247 -0.4710
  670MOL0     H88395   7.681   3.517  10.662  0.2491  1.4714 -0.5742
  670MOL0     H88396   7.498   3.743  10.773  1.0083  4.2013 -0.1322
  670MOL0     H88397   7.569   3.765  10.618 -1.1207  1.4117  1.1087
  670MOL0     H88398   7.741   3.703  10.873 -0.6033  0.1607  0.2780
  670MOL0     H88399   7.801   3.714  10.706  1.1352 -0.9054  1.0714
  670MOL0     H88400   7.666   3.939  10.860  0.7452  1.6347  0.1488
  670MOL0     H88401   7.686   3.941  10.701  0.2580 -0.2661 -0.5783
  670MOL0     H88402   7.719   4.155  10.717  0.4383 -1.5337 -0.3670
  670MOL0     H88403   7.809   4.382  10.715 -2.7458 -0.2076  1.4148
  670MOL0     H88404   7.860   4.770  10.698  1.2770 -0.3514  1.6608
  670MOL0     H88405   7.909   5.000  10.602  0.6889  0.7423 -1.6662
  670MOL0     H88406   8.040   5.031  10.274  0.4917 -0.3611  1.0782
  670MOL0     H88407   8.207   5.093  10.289 -0.4032 -0.0505 -1.3984
  670MOL0     H88408   8.153   5.303  10.310 -0.0933 -0.3216  0.0588
  670MOL0     H88409   8.019   5.284  10.422 -1.2219 -1.4700 -0.3757
  670MOL0     H88410   7.878   5.212  10.202 -1.3295  0.8385  2.0963
  670MOL0     H88411   8.009   5.270  10.108  0.6254  0.4614  0.7139
  670MOL0     H88412   7.863   5.436  10.325  3.0541 -0.3109  0.1618
  670MOL0     H88413   7.988   5.489  10.223  2.0883 -0.9918 -0.6994
  670MOL0     H88414   7.702   5.411  10.119 -1.1072  0.2142  0.2285
  670MOL0     H88415   7.841   5.461  10.020  0.3193  0.7671 -0.8444
  670MOL0     H88416   7.776   5.634  10.251  1.5997 -1.8074 -0.6084
  670MOL0     H88417   7.662   5.627  10.117 -1.1213  0.4156  1.9718
  670MOL0     H88418   7.977   5.696  10.121  0.7898  0.9638 -0.8009
  670MOL0     H88419   7.885   5.703   9.963 -1.1304  1.9609 -0.3352
  670MOL0     H88420   7.831   5.849  10.227 -0.7941 -2.6286  0.3132
  670MOL0     H88421   7.768   5.891  10.056  2.0935  2.0530 -2.6122
  670MOL0     H88422   8.287   4.863  10.455 -1.2840  1.2657 -2.7266
  670MOL0     H88423   8.215   4.618  10.510 -3.4925 -1.5345 -0.1992
  670MOL0     H88424   8.209   4.239  10.775 -0.8874  1.7072 -1.1115
  670MOL0     H88425   8.105   4.007  10.821 -0.5699 -0.3767  2.2897
  670MOL0     H88426   8.217   3.114  11.437  2.0052 -1.0137  1.6457
  670MOL0     H88427   8.454   3.182  11.476 -1.0935  3.2857 -1.3809
  670MOL0     H88428   8.775   3.517  11.471 -1.6784  0.3642 -1.0714
  670MOL0     H88429   9.013   3.575  11.508  3.1091 -0.2585 -1.1828
  670MOL0     H88430   9.310   3.243  11.434 -0.0925  0.3576  0.6155
  670MOL0     H88431   9.417   3.375  11.479  0.4445  2.6085 -1.3064
  670MOL0     H88432   9.393   3.318  11.228 -0.2841 -0.2732 -0.6510
  670MOL0     H88433   9.248   3.407  11.225  0.1303 -0.4175  1.3613
  670MOL0     H88434   9.499   3.515  11.361  0.5201 -0.2657 -0.5728
  670MOL0     H88435   9.351   3.601  11.349 -1.1455  1.8488 -3.2798
  670MOL0     H88436   9.533   3.664  11.174 -0.5039  0.5468 -0.0627
  670MOL0     H88437   9.515   3.511  11.101  1.5116  1.4477  0.7126
  670MOL0     H88438   9.183   3.756  10.966 -1.5074  1.2782  2.7893
  670MOL0     H88439   9.127   3.194  11.354 -0.2206 -0.0980 -1.5232
  670MOL0     H88440   8.886   3.144  11.299 -2.1126  0.1986 -0.1084
  671MOL0     O88441   1.187   1.957   3.906  0.1840 -0.2628  0.2987
  671MOL0     C88442   1.189   1.836   3.923  1.0562 -0.2041 -0.3196
  671MOL0     O88443   1.123   1.739   3.851  0.2144 -0.0786 -0.2938
  671MOL0     C88444   1.024   1.769   3.770  0.5433 -0.8140  0.2415
  671MOL0     C88445   1.030   1.787   3.633 -0.2624  1.5413 -0.0708
  671MOL0     C88446   0.911   1.799   3.555 -0.0757 -0.1529 -0.2527
  671MOL0     C88447   0.786   1.785   3.619  0.5635  1.0150 -0.2065
  671MOL0     O88448   0.674   1.779   3.532  0.4725 -0.6338  0.2188
  671MOL0     C88449   0.559   1.855   3.571  0.7068  0.4448  0.7140
  671MOL0     C88450   0.445   1.842   3.461  0.8992 -0.1882 -0.5039
  671MOL0     C88451   0.344   1.726   3.491  0.1889 -0.1683 -0.2793
  671MOL0     C88452   0.263   1.691   3.360  0.1289  0.1335  0.0187
  671MOL0     C88453   0.141   1.779   3.342  0.7182  0.1041 -0.7526
  671MOL0     C88454   0.068   1.732   3.214  0.4169 -0.4347  0.4535
  671MOL0     C88455  -0.058   1.816   3.208  0.3859  0.2336 -0.1108
  671MOL0     C88456  -0.113   1.819   3.070 -1.2188 -0.1499 -0.5680
  671MOL0     N88457  -0.150   1.689   3.009 -0.1363  0.1037  0.0808
  671MOL0     C88458  -0.232   1.593   3.071 -0.6692  0.7750 -0.5839
  671MOL0     C88459  -0.249   1.489   2.977  0.1681 -1.1052 -0.6034
  671MOL0     C88460  -0.325   1.371   2.991  1.0006 -0.5906  0.2336
  671MOL0     C88461  -0.252   1.256   3.055 -1.2793  0.2827  0.3250
  671MOL0     C88462  -0.331   1.129   3.072  0.1724  0.3804 -0.5950
  671MOL0     C88463  -0.398   1.077   2.945 -0.4284 -0.0289 -0.0701
  671MOL0     O88464  -0.437   0.935   2.960  0.0230  0.8189 -0.6117
  671MOL0     C88465  -0.358   0.824   2.923  0.3492  0.4640  0.5465
  671MOL0     C88466  -0.222   0.834   2.878  0.5679 -0.7510 -0.1229
  671MOL0     C88467  -0.158   0.720   2.832 -0.1796  0.2043 -0.1913
  671MOL0     C88468  -0.232   0.596   2.809 -0.1061  0.4674 -0.7479
  671MOL0     C88469  -0.175   0.480   2.727  0.5894 -0.4876  0.0799
  671MOL0     O88470  -0.237   0.434   2.613 -0.0476 -0.7284 -0.2870
  671MOL0     C88471  -0.177   0.326   2.556 -0.1204 -0.3062 -0.4301
  671MOL0     C88472  -0.083   0.330   2.446 -0.4690  1.0040 -0.6055
  671MOL0     C88473  -0.040   0.209   2.385  0.0581 -0.2623 -0.3517
  671MOL0     C88474  -0.074   0.083   2.442 -0.0437  0.1676 -0.4489
  671MOL0     O88475  -0.050  -0.037   2.374 -0.0256 -0.3600 -0.0703
  671MOL0     C88476  -0.004  -0.056   2.232  0.6439  0.0205 -1.4752
  671MOL0     C88477  -0.025  -0.199   2.189  0.2148 -0.7862  0.4497
  671MOL0     C88478  -0.161  -0.211   2.124 -0.8821 -0.0202  0.9226
  671MOL0     C88479  -0.204  -0.352   2.117 -0.0119 -0.6809 -0.2928
  671MOL0     C88480  -0.341  -0.363   2.053  0.2073  0.5429  0.0710
  671MOL0     C88481  -0.375  -0.502   2.019  1.1953  0.0314  0.8917
  671MOL0     C88482  -0.298  -0.554   1.898 -0.1644  0.3066  0.2568
  671MOL0     C88483  -0.218  -0.680   1.930  0.0471 -0.0982  0.5579
  671MOL0    Cl88484  -0.105  -0.730   1.787 -0.1758  0.0988  0.2049
  671MOL0     C88485  -0.156   0.082   2.546 -1.4414 -1.0452  0.7050
  671MOL0     C88486  -0.207   0.198   2.607  0.1359 -0.1702 -0.0699
  671MOL0     O88487  -0.082   0.420   2.784  0.1585 -0.4009  0.4100
  671MOL0     C88488  -0.372   0.596   2.846 -0.2796 -0.1975  0.3304
  671MOL0     C88489  -0.438   0.702   2.906  0.1958 -0.3935 -0.2587
  671MOL0     N88490  -0.177   1.529   2.865  0.2957  0.1469  0.1009
  671MOL0     N88491  -0.119   1.641   2.887 -0.5510  0.5154 -0.4642
  671MOL0     C88492   0.776   1.787   3.762 -0.7393  0.6490  0.0459
  671MOL0     C88493   0.895   1.771   3.832  0.0949 -0.3772  0.2850
  671MOL0     C88494   1.267   1.785   4.039 -0.1039 -0.6160 -0.0460
  671MOL0     C88495   1.278   1.651   4.059  1.0218  0.9733 -1.2452
  671MOL0     C88496   1.382   1.595   4.142  0.3096 -0.5726 -0.3125
  671MOL0     C88497   1.449   1.681   4.237  0.8639 -0.2360  0.2195
  671MOL0     O88498   1.535   1.643   4.336 -0.2119 -0.1966 -1.3633
  671MOL0     C88499   1.611   1.523   4.328 -0.6176 -0.2668  0.5582
  671MOL0     C88500   1.699   1.504   4.457 -0.8794 -0.2607  0.7847
  671MOL0     C88501   1.822   1.403   4.438  0.0451 -1.2746  1.2492
  671MOL0     C88502   1.773   1.262   4.390 -0.3506 -0.6539  0.6665
  671MOL0     C88503   1.678   1.208   4.495 -0.7052  0.8606 -0.0100
  671MOL0     C88504   1.610   1.145   4.576  0.7522  0.0464 -0.6301
  671MOL0     C88505   1.426   1.825   4.215  0.3513  0.6190 -0.5273
  671MOL0     C88506   1.337   1.875   4.116 -0.5689  0.1935 -0.7331
  671MOL0     H88507   1.131   1.781   3.596 -0.7498 -0.4762 -1.1554
  671MOL0     H88508   0.919   1.813   3.448 -1.2726  1.3992 -0.1697
  671MOL0     H88509   0.588   1.960   3.581 -0.7347  1.1639 -1.7416
  671MOL0     H88510   0.510   1.819   3.662  0.0207 -1.3646 -0.3071
  671MOL0     H88511   0.489   1.837   3.361  0.7562 -1.1641 -0.5236
  671MOL0     H88512   0.391   1.937   3.452 -1.0887 -1.2767 -0.6909
  671MOL0     H88513   0.265   1.754   3.562  0.7553 -3.0976  1.6711
  671MOL0     H88514   0.387   1.637   3.539 -0.6564 -0.6007 -0.3174
  671MOL0     H88515   0.332   1.693   3.275 -0.3666  2.1736 -0.3762
  671MOL0     H88516   0.225   1.588   3.366 -3.3187  1.3193  1.1605
  671MOL0     H88517   0.190   1.877   3.344 -2.5056  1.8862 -1.2221
  671MOL0     H88518   0.072   1.773   3.427  0.2199  0.3720 -1.1304
  671MOL0     H88519   0.042   1.626   3.224 -2.4602  0.0800 -0.7212
  671MOL0     H88520   0.131   1.742   3.125 -0.5312 -0.3202 -0.2101
  671MOL0     H88521  -0.135   1.779   3.277  0.1893  0.9453  0.0579
  671MOL0     H88522  -0.047   1.921   3.238 -2.5580  0.6575 -0.1703
  671MOL0     H88523  -0.035   1.867   3.010  2.8279 -1.7276  2.8580
  671MOL0     H88524  -0.205   1.878   3.067 -2.0870 -1.4911 -1.0138
  671MOL0     H88525  -0.273   1.597   3.172  0.0089 -3.7367  0.0892
  671MOL0     H88526  -0.361   1.345   2.891 -2.6156 -3.9997  2.1545
  671MOL0     H88527  -0.410   1.395   3.055 -0.9923  1.4604 -2.9072
  671MOL0     H88528  -0.212   1.285   3.153 -1.4873 -2.4703  1.3223
  671MOL0     H88529  -0.155   1.236   3.009 -1.3713 -0.3618  0.4088
  671MOL0     H88530  -0.269   1.051   3.116 -0.6848 -0.3556 -0.6550
  671MOL0     H88531  -0.414   1.145   3.142 -0.6253  2.5044 -1.9045
  671MOL0     H88532  -0.331   1.093   2.860 -0.5068  2.0904  0.2089
  671MOL0     H88533  -0.491   1.133   2.936  0.1207  1.4248  2.2025
  671MOL0     H88534  -0.157   0.920   2.873  2.8038 -2.4156 -2.0258
  671MOL0     H88535  -0.052   0.724   2.808  0.5607  0.2923  2.7525
  671MOL0     H88536  -0.052   0.430   2.415  2.0023  1.0358  1.5626
  671MOL0     H88537   0.023   0.206   2.297  2.3463  6.6358  0.4304
  671MOL0     H88538   0.104  -0.042   2.224  0.6064 -0.8343 -5.5766
  671MOL0     H88539  -0.056   0.012   2.163  0.5360  1.0016 -0.4772
  671MOL0     H88540  -0.018  -0.271   2.271  0.8745 -2.1083 -0.7387
  671MOL0     H88541   0.051  -0.222   2.114 -1.4281  0.5629 -1.7408
  671MOL0     H88542  -0.151  -0.157   2.029  1.1829 -0.9130  0.5708
  671MOL0     H88543  -0.242  -0.162   2.178 -1.5998  1.0893 -1.0459
  671MOL0     H88544  -0.133  -0.405   2.052 -0.7250 -2.5537  0.3728
  671MOL0     H88545  -0.203  -0.402   2.214  1.8740 -3.0408 -1.4290
  671MOL0     H88546  -0.340  -0.310   1.958  2.0413  2.2642  0.9948
  671MOL0     H88547  -0.418  -0.318   2.117 -1.8140  2.7404 -3.5632
  671MOL0     H88548  -0.483  -0.507   2.001  1.4580  0.3975 -0.9814
  671MOL0     H88549  -0.362  -0.568   2.105  1.4077 -0.5336  0.4299
  671MOL0     H88550  -0.380  -0.567   1.827 -1.6006  0.6649  1.7758
  671MOL0     H88551  -0.225  -0.484   1.858  1.3478 -2.8258 -2.9363
  671MOL0     H88552  -0.293  -0.753   1.960 -1.2338  1.3610  1.0467
  671MOL0     H88553  -0.164  -0.660   2.023 -2.2931  5.0614  1.1421
  671MOL0     H88554  -0.195  -0.015   2.574 -1.1462 -1.9848 -1.8768
  671MOL0     H88555  -0.284   0.200   2.683 -0.6675 -0.3078 -0.8683
  671MOL0     H88556  -0.430   0.511   2.812  2.6157 -1.5367 -1.6141
  671MOL0     H88557  -0.545   0.696   2.923  0.5138 -3.1493  1.5063
  671MOL0     H88558   0.684   1.800   3.819  0.4562  2.7774  1.6462
  671MOL0     H88559   0.903   1.782   3.940  2.3282  0.3386  0.1104
  671MOL0     H88560   1.228   1.576   3.999  0.0904  0.2951  0.3073
  671MOL0     H88561   1.396   1.489   4.165 -2.2723 -1.2225 -1.3799
  671MOL0     H88562   1.665   1.521   4.233  0.1174 -2.9575  0.9502
  671MOL0     H88563   1.533   1.447   4.315 -1.6332  0.7336  0.6370
  671MOL0     H88564   1.729   1.601   4.499 -0.1596 -0.0474 -0.1841
  671MOL0     H88565   1.623   1.473   4.529 -1.7294  0.1502  0.0863
  671MOL0     H88566   1.874   1.393   4.533  0.5924 -1.2597  0.9528
  671MOL0     H88567   1.898   1.440   4.369 -1.4392 -0.6840 -0.1195
  671MOL0     H88568   1.721   1.274   4.295 -1.8223  1.7162  1.6912
  671MOL0     H88569   1.858   1.196   4.367  2.3618  2.3229  1.4736
  671MOL0     H88570   1.541   1.098   4.642  1.7224 -2.2478 -1.1653
  671MOL0     H88571   1.498   1.891   4.263  3.1715 -2.8514  0.4241
  671MOL0     H88572   1.322   1.981   4.098 -1.8902  0.4646  1.5937
  672MOL0     O88573  10.386   3.278   8.566  0.1324  0.2771 -0.2784
  672MOL0     C88574  10.393   3.324   8.676 -0.2298  0.1890  0.4954
  672MOL0     O88575  10.331   3.273   8.786  0.3393  0.3254 -0.2884
  672MOL0     C88576  10.249   3.165   8.776  0.0574 -0.5246  0.3949
  672MOL0     C88577  10.281   3.050   8.712  0.1494 -0.3070 -0.2520
  672MOL0     C88578  10.198   2.941   8.725 -0.8650 -0.4953  0.0867
  672MOL0     C88579  10.075   2.946   8.793  0.3344  0.1441 -0.8486
  672MOL0     O88580   9.975   2.848   8.794  0.3898 -0.1183 -0.2701
  672MOL0     C88581  10.000   2.748   8.694 -0.1717 -1.0894 -0.1437
  672MOL0     C88582   9.885   2.659   8.696 -0.6952  0.7019 -0.1443
  672MOL0     C88583   9.871   2.572   8.825 -0.0890  0.3779 -0.6710
  672MOL0     C88584   9.784   2.620   8.947  0.1613 -0.5533 -0.2938
  672MOL0     C88585   9.778   2.530   9.078  0.0286 -0.4324  0.6399
  672MOL0     C88586   9.778   2.381   9.037 -1.2633 -0.2359  0.8660
  672MOL0     C88587   9.746   2.291   9.163 -0.4236  0.5075 -0.4501
  672MOL0     C88588   9.596   2.274   9.183  0.4899  0.4913  0.2798
  672MOL0     N88589   9.569   2.189   9.304 -0.3685  0.3925  0.1147
  672MOL0     C88590   9.461   2.209   9.385  0.5690  0.4048 -0.5371
  672MOL0     C88591   9.484   2.144   9.500  0.2503 -0.1475  0.5489
  672MOL0     C88592   9.398   2.133   9.621  0.0208  0.3409 -0.3689
  672MOL0     C88593   9.362   1.986   9.653  0.4340  0.1997 -0.4036
  672MOL0     C88594   9.261   1.977   9.770 -1.5081  1.2048 -0.0725
  672MOL0     C88595   9.280   1.842   9.846 -0.2797  0.5769 -0.2736
  672MOL0     O88596   9.264   1.723   9.766  0.0036 -0.7478 -0.5657
  672MOL0     C88597   9.303   1.601   9.822  0.6017 -0.0849 -0.2098
  672MOL0     C88598   9.430   1.568   9.853 -0.8846  0.7605  0.3655
  672MOL0     C88599   9.460   1.456   9.934  0.4451  0.3032  0.7143
  672MOL0     C88600   9.360   1.370   9.979 -0.0737 -0.3131  0.6745
  672MOL0     C88601   9.387   1.239  10.043  0.0796 -0.1060 -0.1229
  672MOL0     O88602   9.517   1.226  10.099  0.0061 -0.2465 -0.0692
  672MOL0     C88603   9.568   1.109  10.152  0.7844  0.6036  0.2566
  672MOL0     C88604   9.541   0.978  10.098  0.2929 -0.1240  0.2381
  672MOL0     C88605   9.612   0.871  10.149  0.0185 -0.5263 -0.8346
  672MOL0     C88606   9.704   0.886  10.254  0.0025 -0.3922 -0.8857
  672MOL0     O88607   9.742   0.766  10.300 -0.1863  0.6621 -0.4080
  672MOL0     C88608   9.788   0.757  10.439 -0.1909  0.8991 -0.9694
  672MOL0     C88609   9.779   0.599  10.486 -0.6045 -1.0198 -0.1032
  672MOL0     C88610   9.643   0.532  10.470 -0.3370  0.3748  0.2830
  672MOL0     C88611   9.530   0.613  10.509 -0.1046  0.3978  0.4341
  672MOL0     C88612   9.383   0.550  10.502 -0.6020 -1.2297  0.7972
  672MOL0     C88613   9.286   0.638  10.420  0.2664  0.0062  0.1414
  672MOL0     C88614   9.148   0.589  10.353 -0.0539  0.5943  0.5994
  672MOL0     C88615   9.173   0.472  10.254  0.7389 -0.6702  0.4721
  672MOL0    Cl88616   9.025   0.422  10.167 -0.0328  0.1485  0.0955
  672MOL0     C88617   9.720   1.014  10.319  0.8952  0.0494 -0.0924
  672MOL0     C88618   9.659   1.129  10.258 -0.5386  0.2397 -1.0231
  672MOL0     O88619   9.304   1.149  10.036 -0.1400 -0.9531 -0.2056
  672MOL0     C88620   9.223   1.400   9.938  0.5137 -0.2273 -0.5056
  672MOL0     C88621   9.200   1.513   9.856  0.2095  0.1815 -0.5334
  672MOL0     N88622   9.606   2.082   9.484 -0.1859  1.3086 -0.3674
  672MOL0     N88623   9.655   2.117   9.376  0.2092  0.1689  0.2820
  672MOL0     C88624  10.060   3.060   8.874  0.0746  0.2768  0.1696
  672MOL0     C88625  10.140   3.168   8.857 -0.2138  0.1575 -0.0790
  672MOL0     C88626  10.470   3.448   8.698  0.2089 -0.1716  0.4899
  672MOL0     C88627  10.410   3.554   8.776 -0.6873  0.4501  0.1931
  672MOL0     C88628  10.485   3.673   8.781  0.5538  0.1757  0.8526
  672MOL0     C88629  10.608   3.690   8.710 -0.4743  1.0069  1.0403
  672MOL0     O88630  10.668   3.811   8.746  0.5892  0.7310  0.4833
  672MOL0     C88631  10.802   3.820   8.688  0.3438  0.8296 -0.6339
  672MOL0     C88632  10.845   3.961   8.700  0.3739 -1.2294 -0.0100
  672MOL0     C88633  10.996   3.977   8.645  1.0685 -0.4354  0.9903
  672MOL0     C88634  10.973   4.032   8.502 -0.5990  0.3161 -0.2146
  672MOL0     C88635  11.095   4.060   8.428 -1.2422  0.5334  0.3999
  672MOL0     C88636  11.195   4.063   8.357  0.1311 -0.7168 -0.4661
  672MOL0     C88637  10.668   3.583   8.637 -0.2270  0.0129 -0.2309
  672MOL0     C88638  10.594   3.462   8.631  0.8966  0.7896 -0.0298
  672MOL0     H88639  10.375   3.045   8.659  0.1251  1.4606 -0.5240
  672MOL0     H88640  10.228   2.850   8.674 -0.2696  0.9217 -2.2660
  672MOL0     H88641  10.087   2.689   8.724 -0.1750 -0.5572  0.9558
  672MOL0     H88642  10.021   2.786   8.593  0.3791 -2.9812 -0.7871
  672MOL0     H88643   9.900   2.591   8.612  2.0008 -1.7492  2.0935
  672MOL0     H88644   9.789   2.711   8.686 -1.2923 -0.2910  0.3129
  672MOL0     H88645   9.970   2.549   8.866 -0.2468 -1.9182 -1.4758
  672MOL0     H88646   9.837   2.477   8.785  0.5009  0.7006 -1.9825
  672MOL0     H88647   9.833   2.712   8.981  3.6913 -0.9589 -3.6187
  672MOL0     H88648   9.683   2.644   8.914  0.9667  3.9038 -0.2160
  672MOL0     H88649   9.691   2.554   9.139  1.3030  0.1181  2.3299
  672MOL0     H88650   9.869   2.539   9.138 -0.0346  1.4766  0.4922
  672MOL0     H88651   9.879   2.360   9.001 -2.0488 -1.0155 -1.0309
  672MOL0     H88652   9.711   2.361   8.953  3.0874 -0.2323 -3.0549
  672MOL0     H88653   9.802   2.200   9.141 -1.3548  0.2871 -2.0727
  672MOL0     H88654   9.786   2.329   9.257 -0.9049  1.5455 -0.6450
  672MOL0     H88655   9.541   2.234   9.097  1.1720  0.0951  0.0176
  672MOL0     H88656   9.555   2.373   9.203 -2.8538 -0.4560 -1.1932
  672MOL0     H88657   9.378   2.276   9.366  2.2054  2.8373  0.3690
  672MOL0     H88658   9.304   2.186   9.606 -1.3014 -0.8768  2.7841
  672MOL0     H88659   9.456   2.176   9.703  3.0153  0.7560 -2.5008
  672MOL0     H88660   9.452   1.925   9.661  1.3543  1.0895 -2.8355
  672MOL0     H88661   9.312   1.944   9.564 -1.5675  1.8418 -0.1469
  672MOL0     H88662   9.272   2.058   9.843  3.2058  0.5873  0.2133
  672MOL0     H88663   9.163   1.983   9.723 -1.4613 -2.5812 -0.9225
  672MOL0     H88664   9.203   1.825   9.922  1.4503 -1.5309  1.1118
  672MOL0     H88665   9.378   1.844   9.894  0.6245  1.7309 -2.0896
  672MOL0     H88666   9.511   1.633   9.821  0.5366 -0.2247  1.7787
  672MOL0     H88667   9.561   1.432   9.964  0.9611 -1.1408 -1.8753
  672MOL0     H88668   9.480   0.962  10.010 -3.3156  1.2380  2.2839
  672MOL0     H88669   9.581   0.772  10.116  0.9847 -2.0793  2.4899
  672MOL0     H88670   9.717   0.821  10.493 -2.6559 -1.4529 -1.1789
  672MOL0     H88671   9.889   0.794  10.461 -0.6875  0.8793  1.7222
  672MOL0     H88672   9.796   0.594  10.594 -2.3126  2.6558  0.4727
  672MOL0     H88673   9.858   0.533  10.449  0.2103  0.4807 -1.1666
  672MOL0     H88674   9.640   0.436  10.522 -3.3578 -0.6161 -1.4729
  672MOL0     H88675   9.648   0.511  10.362 -0.3414 -3.0462  0.8440
  672MOL0     H88676   9.550   0.647  10.611 -2.6197  1.3333  0.6880
  672MOL0     H88677   9.536   0.705  10.450 -1.5213  0.3689  0.2092
  672MOL0     H88678   9.348   0.538  10.605  1.0061  0.1224  1.5620
  672MOL0     H88679   9.394   0.453  10.454 -1.4131 -1.0234  0.1930
  672MOL0     H88680   9.332   0.681  10.331  2.2602 -3.1530 -0.4903
  672MOL0     H88681   9.262   0.725  10.483  0.2081 -0.1955  0.3996
  672MOL0     H88682   9.080   0.556  10.432  0.5524 -0.7370  0.5913
  672MOL0     H88683   9.100   0.669  10.297 -1.4538  0.0126  0.9273
  672MOL0     H88684   9.188   0.382  10.315 -1.6967 -0.3819  1.6239
  672MOL0     H88685   9.259   0.485  10.189 -0.0249 -1.1727 -0.6660
  672MOL0     H88686   9.790   1.032  10.400  1.5391 -0.0655 -0.6148
  672MOL0     H88687   9.695   1.228  10.283  4.9440 -1.5662 -0.5176
  672MOL0     H88688   9.141   1.337   9.971 -0.2454  0.3448 -1.2704
  672MOL0     H88689   9.098   1.542   9.835  0.4079  0.2052 -1.5412
  672MOL0     H88690   9.974   3.070   8.939  0.4091  1.7021  0.4503
  672MOL0     H88691  10.130   3.253   8.924  1.3429 -1.0256  1.7344
  672MOL0     H88692  10.321   3.544   8.838  0.7112 -1.0769  2.1040
  672MOL0     H88693  10.445   3.758   8.836  2.2524  0.7383  1.2891
  672MOL0     H88694  10.802   3.801   8.580 -0.9705 -1.6956 -0.2663
  672MOL0     H88695  10.873   3.751   8.735 -0.2078  1.0717  0.5969
  672MOL0     H88696  10.782   4.030   8.643  1.9062  0.1655 -0.1249
  672MOL0     H88697  10.845   3.998   8.803  0.0400 -2.3600  0.4114
  672MOL0     H88698  11.043   3.878   8.646  0.0631 -0.9997  4.4999
  672MOL0     H88699  11.042   4.054   8.707  2.6294 -2.5269  2.5662
  672MOL0     H88700  10.907   3.961   8.451 -1.6547 -0.2366  1.8039
  672MOL0     H88701  10.911   4.122   8.506 -0.1064  0.6477 -0.0450
  672MOL0     H88702  11.277   4.038   8.293  0.2675  1.4761 -1.2522
  672MOL0     H88703  10.770   3.595   8.603 -0.1201 -1.3453 -0.4461
  672MOL0     H88704  10.627   3.373   8.579 -2.3044  0.6379 -2.0541
  673MOL0     O88705   9.664   2.606  10.622  0.7033 -1.1558  0.4450
  673MOL0     C88706   9.661   2.536  10.519 -0.3676 -0.3247 -0.1870
  673MOL0     O88707   9.619   2.572  10.400  0.3834 -0.8827 -0.1796
  673MOL0     C88708   9.614   2.712  10.372 -0.1085  0.7189 -0.0293
  673MOL0     C88709   9.722   2.775  10.319 -0.3982  0.4908  1.0632
  673MOL0     C88710   9.726   2.909  10.297  1.2097 -1.4618 -0.0501
  673MOL0     C88711   9.624   2.987  10.357  0.5409  0.2443  0.1002
  673MOL0     O88712   9.636   3.118  10.356 -0.2538 -0.6817 -0.0846
  673MOL0     C88713   9.510   3.188  10.319 -0.3222  0.1823 -0.0585
  673MOL0     C88714   9.531   3.329  10.297 -0.6366 -0.0857 -0.3103
  673MOL0     C88715   9.629   3.353  10.186  0.0173  0.0803  1.1616
  673MOL0     C88716   9.678   3.505  10.184 -0.4789  0.4401 -0.4792
  673MOL0     C88717   9.693   3.563  10.048 -0.4073 -0.5295  1.2052
  673MOL0     C88718   9.804   3.526   9.951 -0.2607  0.3143  0.0347
  673MOL0     C88719   9.952   3.538  10.001 -0.6565  1.0877  0.2459
  673MOL0     C88720  10.038   3.484   9.891  0.7383 -0.4030 -0.5307
  673MOL0     N88721  10.182   3.519   9.891  0.3790 -0.2264 -0.7043
  673MOL0     C88722  10.289   3.436   9.917  0.5805  0.9562 -0.1078
  673MOL0     C88723  10.389   3.508   9.862 -0.6178 -0.8982  0.3470
  673MOL0     C88724  10.531   3.456   9.848 -0.5045  0.1093  0.4044
  673MOL0     C88725  10.593   3.526   9.714 -1.0229  0.2345  0.6616
  673MOL0     C88726  10.733   3.467   9.692 -0.0433  0.9839  0.2752
  673MOL0     C88727  10.787   3.473   9.554 -0.0396  0.7639  0.3181
  673MOL0     O88728  10.869   3.357   9.533 -0.2682 -0.0612 -0.1558
  673MOL0     C88729  10.983   3.401   9.482  0.6160  0.4158 -0.3992
  673MOL0     C88730  11.074   3.451   9.575  0.3453  0.5069 -0.7289
  673MOL0     C88731  11.204   3.480   9.524 -0.3236 -0.1350 -0.6202
  673MOL0     C88732  11.243   3.465   9.391  0.1750 -0.1539  0.1490
  673MOL0     C88733  11.374   3.472   9.342 -0.5480  0.0101  0.1523
  673MOL0     O88734  11.373   3.527   9.216 -1.0108 -0.1857  0.6607
  673MOL0     C88735  11.488   3.578   9.155 -0.3787 -0.3093  0.3158
  673MOL0     C88736  11.617   3.531   9.182 -0.8197 -0.8086 -0.5746
  673MOL0     C88737  11.737   3.584   9.125  0.2386  1.0240  0.2388
  673MOL0     C88738  11.733   3.697   9.048 -1.1445  1.1820  0.1845
  673MOL0     O88739  11.840   3.740   8.965 -0.0636  0.3031 -0.1846
  673MOL0     C88740  11.918   3.630   8.919  0.1173  0.0257 -0.2270
  673MOL0     C88741  12.019   3.696   8.818 -0.6587 -0.0347 -0.7415
  673MOL0     C88742  12.126   3.585   8.787  0.2397  0.0191 -0.4182
  673MOL0     C88743  12.233   3.631   8.689 -0.2371 -0.3999  0.3651
  673MOL0     C88744  12.300   3.767   8.733  0.2035  1.2020  0.8259
  673MOL0     C88745  12.359   3.766   8.875  0.9268 -0.2356  0.3455
  673MOL0     C88746  12.453   3.654   8.893  0.2936 -0.1859  0.3576
  673MOL0     C88747  12.580   3.695   8.957  0.4778  0.0552  0.0455
  673MOL0    Cl88748  12.546   3.747   9.124  0.1062 -0.1198 -0.3469
  673MOL0     C88749  11.604   3.751   9.024 -0.0454  0.3717  0.1047
  673MOL0     C88750  11.482   3.693   9.069 -0.0324  0.1599  0.1207
  673MOL0     O88751  11.468   3.474   9.423  0.1439  0.3200 -0.0733
  673MOL0     C88752  11.141   3.416   9.304  0.8650 -0.4081  0.3379
  673MOL0     C88753  11.009   3.396   9.346 -0.7386  0.1039  0.4619
  673MOL0     N88754  10.336   3.629   9.811  0.3368  0.1686 -0.3599
  673MOL0     N88755  10.214   3.647   9.848 -0.2625 -0.8382  1.0322
  673MOL0     C88756   9.512   2.931  10.416 -0.8992 -0.0286 -0.0582
  673MOL0     C88757   9.503   2.793  10.404  0.5688  0.1328 -0.1613
  673MOL0     C88758   9.727   2.407  10.526 -0.0557 -0.6614 -0.4722
  673MOL0     C88759   9.704   2.311  10.433  1.0204  0.7794  0.1801
  673MOL0     C88760   9.764   2.189  10.443 -0.5806  0.5399  0.2309
  673MOL0     C88761   9.850   2.155  10.551 -0.1350 -0.2043  1.5899
  673MOL0     O88762   9.903   2.027  10.552  0.5722  0.1369 -0.1246
  673MOL0     C88763   9.804   1.937  10.599  0.0476 -0.4764 -0.5980
  673MOL0     C88764   9.845   1.792  10.592  0.3869 -0.8852 -0.3419
  673MOL0     C88765   9.736   1.682  10.623 -0.0783  0.4010 -0.0450
  673MOL0     C88766   9.622   1.673  10.518 -0.4643 -0.1590 -0.1487
  673MOL0     C88767   9.570   1.536  10.519  0.0964  1.0911 -0.2557
  673MOL0     C88768   9.510   1.428  10.516  1.0393  0.5917  0.6882
  673MOL0     C88769   9.877   2.255  10.641  0.4831 -0.2156  0.2585
  673MOL0     C88770   9.815   2.382  10.637 -0.1408 -0.5049 -0.0735
  673MOL0     H88771   9.808   2.713  10.294 -0.2216  0.5813  1.4482
  673MOL0     H88772   9.815   2.965  10.270  1.6257 -1.6621  0.8873
  673MOL0     H88773   9.453   3.189  10.412  3.0161  0.9764  2.1387
  673MOL0     H88774   9.457   3.144  10.234  0.1693 -0.9333  0.1922
  673MOL0     H88775   9.552   3.374  10.394 -0.7093 -2.6271  0.9573
  673MOL0     H88776   9.435   3.367  10.261 -1.8243  0.0232  2.7168
  673MOL0     H88777   9.581   3.331  10.090 -0.3583  1.6611  0.9564
  673MOL0     H88778   9.716   3.288  10.185 -0.0817 -0.0958 -1.0104
  673MOL0     H88779   9.597   3.568  10.223 -2.2398 -1.1697 -1.3639
  673MOL0     H88780   9.771   3.504  10.241 -1.8936 -0.5781  1.9684
  673MOL0     H88781   9.712   3.670  10.064  0.2891 -0.5835  0.7882
  673MOL0     H88782   9.597   3.561   9.996 -0.9722  0.2143  2.1825
  673MOL0     H88783   9.781   3.586   9.862  3.6149  2.5482  0.3442
  673MOL0     H88784   9.795   3.422   9.919 -1.7853  0.9237 -1.7495
  673MOL0     H88785   9.981   3.642  10.020  2.2568  0.4357 -0.0651
  673MOL0     H88786   9.977   3.470  10.084  0.0698 -1.4709 -1.9352
  673MOL0     H88787  10.000   3.522   9.796  1.2586 -1.4676 -1.1871
  673MOL0     H88788  10.027   3.376   9.901 -3.3206  0.0345  1.4840
  673MOL0     H88789  10.288   3.333   9.953  0.8176  1.7592  2.4175
  673MOL0     H88790  10.529   3.346   9.844  2.1449 -0.0294  0.6000
  673MOL0     H88791  10.589   3.485   9.936  0.5701 -0.0380 -0.2323
  673MOL0     H88792  10.605   3.635   9.717  0.2977  0.1139  3.4542
  673MOL0     H88793  10.533   3.502   9.627 -0.9329  0.0852  0.6411
  673MOL0     H88794  10.804   3.521   9.755 -0.2057  1.9612 -0.3452
  673MOL0     H88795  10.735   3.360   9.714  2.1507 -0.0272 -3.8411
  673MOL0     H88796  10.831   3.572   9.537  2.2288 -0.4981 -1.7786
  673MOL0     H88797  10.705   3.478   9.483  1.1798 -3.3353 -1.6344
  673MOL0     H88798  11.062   3.457   9.683 -1.2625 -0.8631 -0.8065
  673MOL0     H88799  11.281   3.501   9.597 -1.8881  0.7145  0.8570
  673MOL0     H88800  11.629   3.445   9.248  1.2793  0.0659  0.2682
  673MOL0     H88801  11.826   3.521   9.129 -1.2199 -1.1922 -0.5857
  673MOL0     H88802  11.866   3.546   8.872  1.1489 -2.4595  2.7225
  673MOL0     H88803  11.983   3.602   9.003  3.5840  2.4190 -1.8456
  673MOL0     H88804  12.053   3.792   8.860  0.5235 -0.7690  0.0684
  673MOL0     H88805  11.968   3.722   8.725  1.0200  0.6332 -1.5222
  673MOL0     H88806  12.089   3.493   8.742 -2.2183 -0.5412  2.4627
  673MOL0     H88807  12.166   3.566   8.887  0.9297  0.8593 -0.5121
  673MOL0     H88808  12.307   3.550   8.685  2.9289  2.2082  1.3313
  673MOL0     H88809  12.199   3.637   8.585 -1.4971  1.0706  0.8323
  673MOL0     H88810  12.226   3.846   8.716 -0.2663  0.3594 -1.3250
  673MOL0     H88811  12.388   3.786   8.671  0.6375 -1.3149  0.5760
  673MOL0     H88812  12.281   3.762   8.951  0.8732  1.1647  0.4013
  673MOL0     H88813  12.405   3.865   8.877 -0.9766  0.7132 -0.1985
  673MOL0     H88814  12.409   3.585   8.966  2.2881  1.0276  2.8812
  673MOL0     H88815  12.478   3.600   8.801 -1.9520 -1.9225  0.6809
  673MOL0     H88816  12.626   3.780   8.906  0.9939 -0.7243 -0.8255
  673MOL0     H88817  12.658   3.618   8.956  0.0094 -0.4440 -1.6483
  673MOL0     H88818  11.587   3.836   8.960 -3.4448  0.2243  0.6382
  673MOL0     H88819  11.381   3.724   9.046  0.5906  2.1275 -0.1648
  673MOL0     H88820  11.168   3.396   9.201  1.6951 -3.3783  1.0313
  673MOL0     H88821  10.937   3.350   9.279  0.3396 -0.9996  0.0355
  673MOL0     H88822   9.426   2.988  10.448 -0.2564 -0.0173  1.7273
  673MOL0     H88823   9.406   2.747  10.421  0.7044 -1.1768 -2.5662
  673MOL0     H88824   9.615   2.322  10.371 -2.0801  4.0830  4.5765
  673MOL0     H88825   9.741   2.116  10.366  1.2746 -0.9628  1.0347
  673MOL0     H88826   9.705   1.947  10.554 -0.6159 -1.5176  0.5798
  673MOL0     H88827   9.795   1.958  10.706 -1.0450 -1.1080 -0.5498
  673MOL0     H88828   9.872   1.776  10.487  1.0188 -0.6184 -0.2251
  673MOL0     H88829   9.939   1.784  10.648  0.7868  3.8352  0.0115
  673MOL0     H88830   9.700   1.701  10.724  1.2080 -1.8097  0.8968
  673MOL0     H88831   9.778   1.581  10.618 -3.5504 -1.4215  2.9699
  673MOL0     H88832   9.537   1.738  10.537  0.8639  1.8234 -0.7175
  673MOL0     H88833   9.656   1.683  10.414  1.9058 -0.3303  0.5606
  673MOL0     H88834   9.438   1.350  10.508  0.2756  1.5183 -4.6187
  673MOL0     H88835   9.946   2.225  10.719 -0.5807 -0.1034  1.2829
  673MOL0     H88836   9.840   2.463  10.705 -0.5237 -0.6302  0.2201
  674MOL0     O88837   4.488   5.736   4.967 -0.8804 -0.5327 -0.5101
  674MOL0     C88838   4.614   5.713   4.966 -0.8119 -0.4997 -0.3891
  674MOL0     O88839   4.713   5.797   5.007 -0.0206 -1.1003  0.2834
  674MOL0     C88840   4.686   5.912   5.067 -0.5485  0.6942  0.4053
  674MOL0     C88841   4.674   5.919   5.210  0.0958 -0.2092  0.9009
  674MOL0     C88842   4.651   6.045   5.266 -0.7393 -0.8885 -0.0402
  674MOL0     C88843   4.639   6.155   5.183 -0.5426 -0.0484 -0.6447
  674MOL0     O88844   4.609   6.283   5.217  0.5287 -0.6286  1.2304
  674MOL0     C88845   4.473   6.326   5.194  0.1889 -0.0600  0.1941
  674MOL0     C88846   4.433   6.397   5.325 -0.1077  1.4866  0.5981
  674MOL0     C88847   4.407   6.296   5.432  0.2348 -0.9942 -0.1939
  674MOL0     C88848   4.277   6.328   5.498  0.1794 -0.8846 -0.7840
  674MOL0     C88849   4.252   6.235   5.611  0.2522  0.3747 -0.8123
  674MOL0     C88850   4.346   6.279   5.728 -0.3008  0.1961  0.3307
  674MOL0     C88851   4.328   6.194   5.853 -0.0092 -0.2625  0.5314
  674MOL0     C88852   4.193   6.224   5.925  0.5057 -0.1377 -0.4369
  674MOL0     N88853   4.169   6.150   6.047  0.3367 -0.1686 -0.8416
  674MOL0     C88854   4.245   6.162   6.165  0.4898 -0.8968  0.8844
  674MOL0     C88855   4.176   6.086   6.255  0.2200  0.4756  0.2870
  674MOL0     C88856   4.207   6.070   6.409  0.7307 -0.4004 -0.4256
  674MOL0     C88857   4.160   6.196   6.491 -0.2122  0.4366  0.1447
  674MOL0     C88858   4.292   6.280   6.531  0.0587 -0.3258  0.7113
  674MOL0     C88859   4.257   6.413   6.607 -0.3206  0.4294 -0.1873
  674MOL0     O88860   4.169   6.483   6.524 -0.4056 -0.1346 -0.1591
  674MOL0     C88861   4.209   6.561   6.417  0.5488  0.1911 -0.4950
  674MOL0     C88862   4.332   6.608   6.398  0.3199 -0.4112  0.2655
  674MOL0     C88863   4.350   6.718   6.313  0.5242 -0.0494 -0.9432
  674MOL0     C88864   4.249   6.767   6.221 -0.2983 -0.4843 -0.6110
  674MOL0     C88865   4.279   6.882   6.129 -0.4569 -0.0614  0.6624
  674MOL0     O88866   4.190   6.955   6.079  0.5206 -0.1772  0.7365
  674MOL0     C88867   4.217   7.067   6.015 -0.8201  0.5800  1.2959
  674MOL0     C88868   4.204   7.194   6.074 -0.4356 -1.1414 -0.1862
  674MOL0     C88869   4.201   7.313   5.995  0.0913  0.3451  1.4195
  674MOL0     C88870   4.234   7.294   5.858  0.4781 -0.8500  0.7340
  674MOL0     O88871   4.233   7.398   5.764  0.9570  0.7317 -0.8100
  674MOL0     C88872   4.117   7.418   5.685 -0.0178 -0.0862  0.2138
  674MOL0     C88873   4.149   7.507   5.568 -0.1600  0.6062 -0.3886
  674MOL0     C88874   4.260   7.443   5.493  0.6295 -0.8551  1.5869
  674MOL0     C88875   4.302   7.531   5.369  0.2388  0.8296 -0.0062
  674MOL0     C88876   4.207   7.589   5.260 -0.1446 -0.1257 -0.8634
  674MOL0     C88877   4.275   7.681   5.153 -0.2743 -0.5912 -0.3391
  674MOL0     C88878   4.157   7.739   5.087  0.3336 -0.0157  0.0657
  674MOL0     C88879   4.204   7.825   4.969  0.4260 -0.8841 -0.3729
  674MOL0    Cl88880   4.273   7.735   4.834  0.1942 -0.2591 -0.1210
  674MOL0     C88881   4.271   7.163   5.805  0.2693 -0.1883  0.6298
  674MOL0     C88882   4.277   7.059   5.890  0.0912  0.4086  0.4962
  674MOL0     O88883   4.400   6.898   6.113  0.3840  0.1219 -0.1410
  674MOL0     C88884   4.126   6.700   6.240  1.3362  0.5677  0.8453
  674MOL0     C88885   4.099   6.601   6.339 -0.3849 -0.0823 -0.2035
  674MOL0     N88886   4.073   6.028   6.191  0.1987 -1.2656 -0.0009
  674MOL0     N88887   4.067   6.059   6.066 -0.4610 -0.5023  0.7285
  674MOL0     C88888   4.666   6.146   5.048  0.4870  0.1783 -0.1012
  674MOL0     C88889   4.684   6.028   4.990  1.1837  0.6972  1.5355
  674MOL0     C88890   4.649   5.578   4.906  0.6156 -0.5126 -0.6032
  674MOL0     C88891   4.772   5.525   4.913 -0.1443 -0.0348 -0.4363
  674MOL0     C88892   4.804   5.395   4.867 -0.6206  0.4051 -0.0585
  674MOL0     C88893   4.713   5.318   4.800 -0.5507  0.6509  0.3336
  674MOL0     O88894   4.760   5.197   4.752 -0.1830 -0.8912 -0.0476
  674MOL0     C88895   4.701   5.134   4.644 -0.3949  0.4625 -0.7664
  674MOL0     C88896   4.674   4.989   4.682 -0.1868  0.5588  0.1895
  674MOL0     C88897   4.526   4.968   4.740  0.1434 -0.6223 -0.5638
  674MOL0     C88898   4.488   4.811   4.743  1.1405 -0.6293 -0.5294
  674MOL0     C88899   4.572   4.731   4.829 -0.3299  0.0139 -0.3398
  674MOL0     C88900   4.639   4.666   4.909  0.5814  0.0721 -0.3408
  674MOL0     C88901   4.584   5.374   4.786  0.8304  0.4199  0.2970
  674MOL0     C88902   4.551   5.503   4.836 -0.1392 -0.7928  0.2150
  674MOL0     H88903   4.668   5.824   5.263 -0.5981  0.8102  2.7701
  674MOL0     H88904   4.646   6.060   5.373  1.4934 -2.9935  0.4504
  674MOL0     H88905   4.403   6.248   5.164  1.0298 -1.1040  0.8952
  674MOL0     H88906   4.461   6.398   5.112 -2.8877 -1.3422 -0.6272
  674MOL0     H88907   4.345   6.449   5.288  1.0973  1.9867 -1.7234
  674MOL0     H88908   4.500   6.475   5.361 -0.3257  1.5273  0.9225
  674MOL0     H88909   4.482   6.303   5.510 -1.1833  0.9804  1.0796
  674MOL0     H88910   4.404   6.194   5.390 -2.1004 -0.8848 -0.4351
  674MOL0     H88911   4.269   6.431   5.535  2.4848 -0.5110 -1.1641
  674MOL0     H88912   4.196   6.308   5.427 -2.1502  3.4085  0.2475
  674MOL0     H88913   4.285   6.139   5.572  2.2915  1.5308 -2.1068
  674MOL0     H88914   4.147   6.226   5.641  0.4461  2.9737  0.9930
  674MOL0     H88915   4.331   6.386   5.747  1.9215  1.1009 -2.3351
  674MOL0     H88916   4.450   6.279   5.694  0.6243  3.9545  2.5440
  674MOL0     H88917   4.338   6.088   5.826  2.7075  0.1015 -0.1548
  674MOL0     H88918   4.415   6.207   5.918 -0.3513 -1.0303  1.1765
  674MOL0     H88919   4.106   6.206   5.862 -2.4695  0.6927  3.0894
  674MOL0     H88920   4.199   6.328   5.957 -2.4144 -0.1081  0.2843
  674MOL0     H88921   4.328   6.225   6.197  1.9690 -0.3095 -3.3708
  674MOL0     H88922   4.316   6.067   6.414  0.7301  0.0447  0.0360
  674MOL0     H88923   4.156   5.979   6.442 -1.5461  1.4913  1.6654
  674MOL0     H88924   4.109   6.155   6.579  0.9380 -0.3163  0.4885
  674MOL0     H88925   4.102   6.268   6.434  0.8058  1.8298  0.7920
  674MOL0     H88926   4.365   6.226   6.592  1.4956 -0.2134 -0.8057
  674MOL0     H88927   4.345   6.314   6.441 -2.9476  1.1027 -0.6757
  674MOL0     H88928   4.341   6.474   6.643 -1.5100  0.5983  2.5464
  674MOL0     H88929   4.200   6.369   6.689 -1.1928 -1.2936 -1.6425
  674MOL0     H88930   4.405   6.569   6.468  0.1279 -1.9809 -0.3794
  674MOL0     H88931   4.442   6.776   6.313 -0.9631  2.4794  0.6551
  674MOL0     H88932   4.186   7.207   6.180 -0.3610 -1.1366 -0.1737
  674MOL0     H88933   4.207   7.414   6.036  2.0473  0.3040  1.3455
  674MOL0     H88934   4.055   7.474   5.754 -0.5920 -2.5278  1.8075
  674MOL0     H88935   4.080   7.325   5.640  1.6343 -0.7192  0.0855
  674MOL0     H88936   4.158   7.612   5.597 -0.0375  1.3113 -2.8371
  674MOL0     H88937   4.063   7.519   5.502  1.2575  1.4573 -2.1596
  674MOL0     H88938   4.223   7.346   5.458  0.4799 -0.6924  1.2900
  674MOL0     H88939   4.348   7.436   5.557  1.5078  2.2346  0.8994
  674MOL0     H88940   4.342   7.629   5.400 -0.0034  0.6050  1.0561
  674MOL0     H88941   4.391   7.491   5.320  1.6011  1.7946  1.5394
  674MOL0     H88942   4.125   7.642   5.309 -1.6131 -4.8695  2.5723
  674MOL0     H88943   4.157   7.510   5.203  3.8256 -1.9628 -2.1850
  674MOL0     H88944   4.331   7.614   5.087 -0.6494 -1.6074  0.3566
  674MOL0     H88945   4.339   7.760   5.195 -2.4562  1.3473 -0.4670
  674MOL0     H88946   4.099   7.663   5.034 -1.7122  1.5782 -0.1423
  674MOL0     H88947   4.091   7.804   5.146 -3.0387 -2.0000 -1.2257
  674MOL0     H88948   4.283   7.895   4.999 -0.7074 -0.6897  2.4836
  674MOL0     H88949   4.117   7.872   4.924 -0.4108 -0.3492  1.6909
  674MOL0     H88950   4.298   7.156   5.700  0.7918  1.6051  0.6059
  674MOL0     H88951   4.308   6.964   5.848 -0.9573 -0.0292  0.6864
  674MOL0     H88952   4.040   6.732   6.182  0.5241 -3.4471 -0.5079
  674MOL0     H88953   4.012   6.539   6.360 -0.4351 -0.3545 -1.1807
  674MOL0     H88954   4.652   6.228   4.978 -0.5503  1.8401  1.9250
  674MOL0     H88955   4.681   6.014   4.883  0.6291  1.6550  1.4083
  674MOL0     H88956   4.859   5.577   4.952 -0.0826  0.2006 -0.8868
  674MOL0     H88957   4.905   5.358   4.879 -0.6251  1.0331  2.5030
  674MOL0     H88958   4.760   5.138   4.552  1.5103 -3.0047  0.1426
  674MOL0     H88959   4.609   5.183   4.612 -0.6926 -1.1158 -2.5072
  674MOL0     H88960   4.683   4.930   4.591 -1.3054 -1.9859  1.6040
  674MOL0     H88961   4.735   4.942   4.760 -2.3617 -1.5188  0.7584
  674MOL0     H88962   4.445   5.005   4.676 -1.3574 -1.0256  1.0441
  674MOL0     H88963   4.519   5.019   4.836  2.5299  2.8091 -1.9800
  674MOL0     H88964   4.387   4.796   4.781  1.8509  1.4906  2.6802
  674MOL0     H88965   4.493   4.775   4.640  1.4851  2.9783 -1.9167
  674MOL0     H88966   4.693   4.589   4.959  0.6881 -1.0248 -2.0383
  674MOL0     H88967   4.499   5.315   4.754  1.0701  1.5828 -2.8754
  674MOL0     H88968   4.448   5.537   4.823  0.7757  1.7783 -0.9390
  675MOL0     O88969   0.112  11.417   3.034 -0.3302 -0.0005 -0.0997
  675MOL0     C88970   0.144  11.456   3.144 -0.4900  0.2318  0.0263
  675MOL0     O88971   0.150  11.378   3.252 -0.4175  0.0010 -0.2152
  675MOL0     C88972   0.178  11.250   3.243 -0.1375 -0.7892  0.1756
  675MOL0     C88973   0.285  11.195   3.174  0.0571 -0.0351  0.5795
  675MOL0     C88974   0.327  11.058   3.198 -0.3646 -0.2452 -0.0458
  675MOL0     C88975   0.249  10.978   3.286 -0.0505  1.1535  0.3277
  675MOL0     O88976   0.283  10.847   3.286  0.2742  0.1062  0.4627
  675MOL0     C88977   0.173  10.758   3.279 -0.0895 -1.3169 -0.3544
  675MOL0     C88978   0.213  10.633   3.193 -0.1183 -0.4426 -0.0146
  675MOL0     C88979   0.311  10.536   3.260 -0.8605  0.4350  0.3185
  675MOL0     C88980   0.370  10.434   3.154 -0.2467  0.3255 -0.4205
  675MOL0     C88981   0.258  10.338   3.105  0.5133 -0.5906 -0.2029
  675MOL0     C88982   0.235  10.209   3.190  0.3524  0.1812 -0.2121
  675MOL0     C88983   0.110  10.132   3.129 -0.1662  0.0505 -0.1074
  675MOL0     C88984   0.104   9.979   3.180  0.0570 -1.0011 -0.7376
  675MOL0     N88985   0.058   9.969   3.315 -0.1791  0.3490 -0.2992
  675MOL0     C88986  -0.068   9.990   3.360 -0.4317 -0.3166 -0.1392
  675MOL0     C88987  -0.056   9.994   3.493 -0.3980 -0.3714 -0.2161
  675MOL0     C88988  -0.186  10.014   3.569 -0.0793  0.9981 -0.3625
  675MOL0     C88989  -0.221  10.150   3.600  0.3385 -0.8327 -0.1082
  675MOL0     C88990  -0.372  10.160   3.643  0.1645  0.1012  0.0923
  675MOL0     C88991  -0.440  10.056   3.730 -0.9660  0.9787 -0.7566
  675MOL0     O88992  -0.580  10.081   3.766 -0.5628  0.2253  0.1726
  675MOL0     C88993  -0.609  10.167   3.866 -0.0592 -0.2361 -0.1268
  675MOL0     C88994  -0.516  10.232   3.948 -0.1738  0.1905 -0.0560
  675MOL0     C88995  -0.566  10.324   4.042 -0.0350 -0.4156  0.3739
  675MOL0     C88996  -0.701  10.337   4.068 -0.4241 -0.0884  0.5034
  675MOL0     C88997  -0.741  10.425   4.169  1.1041 -0.5962 -0.4034
  675MOL0     O88998  -0.862  10.404   4.227 -1.1154 -0.0802  0.2643
  675MOL0     C88999  -0.901  10.474   4.334 -0.8386 -0.2393  1.2926
  675MOL0     C89000  -0.956  10.600   4.312  0.1586  0.9822 -0.1520
  675MOL0     C89001  -0.987  10.684   4.419  0.3402 -0.2568  0.1867
  675MOL0     C89002  -0.983  10.633   4.543 -0.2984 -0.6354 -1.3899
  675MOL0     O89003  -1.016  10.713   4.649 -0.0025  0.1476  0.3442
  675MOL0     C89004  -1.157  10.729   4.675  0.5916  0.8861  0.7081
  675MOL0     C89005  -1.190  10.868   4.636  1.0396  0.4773  0.3888
  675MOL0     C89006  -1.334  10.905   4.636  0.2765  0.2521  0.1773
  675MOL0     C89007  -1.399  10.925   4.770 -0.2214 -0.2313  0.6504
  675MOL0     C89008  -1.542  10.968   4.744  1.1834  0.0251 -0.0490
  675MOL0     C89009  -1.593  11.051   4.868  0.9857  0.1078 -0.0609
  675MOL0     C89010  -1.626  10.964   4.989  0.3831  0.2908 -0.1522
  675MOL0     C89011  -1.706  11.042   5.098 -0.0573 -1.0779 -0.6678
  675MOL0    Cl89012  -1.787  10.933   5.226  0.2966 -0.4772  0.3731
  675MOL0     C89013  -0.919  10.507   4.567  0.5044 -1.0944 -0.3947
  675MOL0     C89014  -0.883  10.425   4.460  0.5155 -0.4842  0.0791
  675MOL0     O89015  -0.668  10.515   4.206 -0.3868  0.7588  0.7286
  675MOL0     C89016  -0.795  10.274   3.984 -0.5338 -0.9694 -0.9457
  675MOL0     C89017  -0.746  10.188   3.885  0.4821 -0.4180  0.0152
  675MOL0     N89018   0.065   9.944   3.539 -0.7473 -0.1771  0.3287
  675MOL0     N89019   0.130   9.921   3.427  0.3049  0.1404  0.0383
  675MOL0     C89020   0.153  11.042   3.355 -0.2782  0.0863  0.1979
  675MOL0     C89021   0.112  11.175   3.335 -0.4803  0.0092 -0.0619
  675MOL0     C89022   0.159  11.608   3.153 -0.7190 -0.3371  1.3614
  675MOL0     C89023   0.199  11.662   3.271  0.6956  0.1661 -0.0201
  675MOL0     C89024   0.203  11.798   3.292 -0.1332  0.4854 -0.3891
  675MOL0     C89025   0.164  11.889   3.195  0.9462  0.0027  0.2413
  675MOL0     O89026   0.176  12.019   3.216  0.4314 -0.1092 -0.4640
  675MOL0     C89027   0.072  12.100   3.167 -1.1702  0.1442 -0.4002
  675MOL0     C89028   0.069  12.235   3.232 -0.1360  0.5265  0.1600
  675MOL0     C89029  -0.006  12.233   3.362 -0.6822  0.6546 -0.1108
  675MOL0     C89030   0.056  12.161   3.473  0.3121  0.6772 -0.1736
  675MOL0     C89031   0.164  12.225   3.538 -0.3304  0.0067 -0.3342
  675MOL0     C89032   0.269  12.259   3.596  0.1143  0.1836 -0.1027
  675MOL0     C89033   0.122  11.833   3.072 -0.7301 -1.4205  0.0452
  675MOL0     C89034   0.121  11.694   3.056  0.2131 -0.3102  0.8404
  675MOL0     H89035   0.336  11.256   3.100 -3.2638  1.6545 -0.5430
  675MOL0     H89036   0.413  11.020   3.144  0.9575  0.6204  1.3870
  675MOL0     H89037   0.098  10.812   3.221  1.8589  0.3414 -1.4574
  675MOL0     H89038   0.142  10.722   3.378  1.1120 -1.5669 -0.0522
  675MOL0     H89039   0.249  10.662   3.093 -0.5159 -3.1994 -1.0377
  675MOL0     H89040   0.125  10.575   3.163  0.4278 -0.6313 -1.3560
  675MOL0     H89041   0.243  10.494   3.335 -4.0081 -2.2845 -3.5505
  675MOL0     H89042   0.388  10.608   3.288 -0.8752  0.9548 -0.8972
  675MOL0     H89043   0.418  10.505   3.086  3.2842 -1.9653 -0.6019
  675MOL0     H89044   0.458  10.380   3.191  0.1430  1.7186  0.7615
  675MOL0     H89045   0.271  10.307   3.001  0.0201 -0.1743 -0.3955
  675MOL0     H89046   0.167  10.398   3.091  0.9262 -0.3373 -2.0814
  675MOL0     H89047   0.214  10.224   3.296  2.4719 -3.6750  0.9706
  675MOL0     H89048   0.320  10.140   3.190  0.3916  0.1482  2.3489
  675MOL0     H89049   0.015  10.185   3.146 -0.2411 -0.3233  0.7057
  675MOL0     H89050   0.134  10.129   3.022  2.1327  0.0115  0.3720
  675MOL0     H89051   0.206   9.938   3.185  1.7283  2.8925  1.4304
  675MOL0     H89052   0.036   9.920   3.118 -0.7387  0.1170 -0.9419
  675MOL0     H89053  -0.163  10.008   3.311 -3.3559 -0.9890  4.6162
  675MOL0     H89054  -0.179   9.965   3.667  2.0394  1.0155 -0.4590
  675MOL0     H89055  -0.262   9.969   3.505  1.7669  2.5371 -3.8857
  675MOL0     H89056  -0.196  10.221   3.522  0.7461  1.5417  2.0567
  675MOL0     H89057  -0.155  10.188   3.679 -0.4602  0.5800 -0.0890
  675MOL0     H89058  -0.395  10.240   3.714  3.7877 -1.3083  3.2048
  675MOL0     H89059  -0.424  10.179   3.549  0.0958  1.6398  0.4121
  675MOL0     H89060  -0.392  10.051   3.828 -0.5021  5.0836 -0.6008
  675MOL0     H89061  -0.431   9.959   3.679  0.6997  1.4543 -1.4254
  675MOL0     H89062  -0.408  10.219   3.950 -0.0903 -0.1639  4.4533
  675MOL0     H89063  -0.502  10.403   4.081  1.4844 -1.0976 -0.6156
  675MOL0     H89064  -0.961  10.638   4.211 -0.0274 -1.9792 -1.3489
  675MOL0     H89065  -1.015  10.785   4.394 -0.6692 -0.5750 -0.0122
  675MOL0     H89066  -1.164  10.702   4.781  2.9624 -2.0935  0.2282
  675MOL0     H89067  -1.211  10.645   4.632  2.2466 -0.4126  1.0378
  675MOL0     H89068  -1.160  10.904   4.537  0.3162  0.5607  0.1935
  675MOL0     H89069  -1.131  10.929   4.705  2.6192  1.0441 -1.3718
  675MOL0     H89070  -1.367  10.820   4.576  2.1210  1.5412 -2.8984
  675MOL0     H89071  -1.333  10.997   4.576  1.6251 -0.9365 -1.7448
  675MOL0     H89072  -1.396  10.831   4.827 -3.2375 -0.0422  1.3056
  675MOL0     H89073  -1.359  11.009   4.827 -2.0195  0.7731  0.5282
  675MOL0     H89074  -1.598  10.876   4.728  0.5333  0.1508  1.3138
  675MOL0     H89075  -1.550  11.036   4.659  1.7564  1.6566  1.1291
  675MOL0     H89076  -1.683  11.108   4.844 -0.6583 -1.8625  1.0006
  675MOL0     H89077  -1.523  11.132   4.888 -0.8837  2.3477 -2.0480
  675MOL0     H89078  -1.688  10.887   4.941  0.9255  0.1256 -0.5919
  675MOL0     H89079  -1.535  10.917   5.026  0.1333 -1.1855 -1.3168
  675MOL0     H89080  -1.786  11.101   5.054 -2.4761 -0.0647  4.3540
  675MOL0     H89081  -1.640  11.110   5.153 -0.7856 -1.1101  0.2679
  675MOL0     H89082  -0.885  10.485   4.668 -1.1856  2.1246  1.0139
  675MOL0     H89083  -0.841  10.326   4.476  0.3668 -0.3178  1.7167
  675MOL0     H89084  -0.900  10.298   3.994 -0.2773  0.9546 -2.5306
  675MOL0     H89085  -0.811  10.135   3.815 -2.9682 -1.3604  3.5908
  675MOL0     H89086   0.087  10.978   3.413  1.0350  0.0059  1.6413
  675MOL0     H89087   0.036  11.222   3.396  2.3532  1.8097  2.3446
  675MOL0     H89088   0.225  11.603   3.358  0.6594 -3.2997 -2.1748
  675MOL0     H89089   0.221  11.837   3.391  2.7843  3.4308 -1.8900
  675MOL0     H89090  -0.021  12.043   3.175  0.4081 -2.5058  0.0980
  675MOL0     H89091   0.098  12.127   3.065  1.0195  2.6241  0.7018
  675MOL0     H89092   0.175  12.263   3.237  1.1324 -2.9327 -2.5578
  675MOL0     H89093   0.019  12.300   3.161 -2.4141 -0.7073  0.5496
  675MOL0     H89094  -0.106  12.192   3.344 -0.1100 -0.1950 -1.4670
  675MOL0     H89095  -0.029  12.336   3.393 -0.0023  1.0556 -0.9126
  675MOL0     H89096  -0.018  12.136   3.549  1.1519 -3.2229 -0.4618
  675MOL0     H89097   0.090  12.061   3.443  1.0896  1.3300 -1.5870
  675MOL0     H89098   0.360  12.303   3.632  1.3928 -1.4357 -1.1694
  675MOL0     H89099   0.109  11.882   2.976 -3.2360 -0.6536  0.7160
  675MOL0     H89100   0.093  11.658   2.958  2.6308 -0.8965  0.2803
  676MOL0     O89101   0.834   4.775   0.347  0.1545  0.0265 -0.5967
  676MOL0     C89102   0.818   4.870   0.422  0.7887 -0.4320 -0.8701
  676MOL0     O89103   0.694   4.909   0.467  0.3582 -0.5734 -0.7311
  676MOL0     C89104   0.574   4.862   0.422  0.9225  0.4592 -1.2939
  676MOL0     C89105   0.548   4.738   0.368  0.4095 -0.0384 -0.2145
  676MOL0     C89106   0.416   4.691   0.360  0.4356  0.2451 -0.0885
  676MOL0     C89107   0.302   4.773   0.385 -0.2547 -0.1169  0.1079
  676MOL0     O89108   0.175   4.730   0.353 -0.4254  0.1517  0.0247
  676MOL0     C89109   0.077   4.824   0.323 -0.2374 -0.9822  0.3339
  676MOL0     C89110   0.084   4.894   0.180  0.4993  0.9016 -0.0911
  676MOL0     C89111   0.083   4.799   0.058  0.1788  0.7279 -0.1767
  676MOL0     C89112   0.216   4.726   0.043 -0.3894  0.0726 -0.2269
  676MOL0     C89113   0.249   4.673  -0.100 -0.7193  0.0785  0.6719
  676MOL0     C89114   0.141   4.572  -0.146 -0.2832 -0.2938  0.2563
  676MOL0     C89115   0.188   4.497  -0.270  0.3651  0.7146  0.5460
  676MOL0     C89116   0.064   4.441  -0.352 -0.5921 -0.6418  0.8494
  676MOL0     N89117   0.042   4.511  -0.474 -0.0216  0.5354 -0.1561
  676MOL0     C89118  -0.003   4.634  -0.484  1.3098  0.0575  0.4583
  676MOL0     C89119  -0.020   4.655  -0.618  0.2631 -0.2611 -0.6777
  676MOL0     C89120  -0.030   4.794  -0.685  0.4290  0.1247 -0.2221
  676MOL0     C89121   0.096   4.838  -0.769  0.7251  0.6672 -0.4490
  676MOL0     C89122   0.056   4.932  -0.874 -0.8798 -0.3644  0.4421
  676MOL0     C89123   0.188   4.984  -0.952 -0.2465 -0.0360 -1.2846
  676MOL0     O89124   0.143   5.101  -1.001 -0.0092  0.0415  0.0671
  676MOL0     C89125   0.204   5.166  -1.107  0.2876  0.1346  0.2677
  676MOL0     C89126   0.317   5.116  -1.175 -0.0374  0.2065  0.1513
  676MOL0     C89127   0.369   5.178  -1.287 -0.1495 -0.5334  0.2171
  676MOL0     C89128   0.297   5.291  -1.337 -0.3358  1.1011 -0.1761
  676MOL0     C89129   0.338   5.354  -1.464  0.7968 -0.5993 -0.7966
  676MOL0     O89130   0.286   5.479  -1.490 -0.1490  0.4903  0.3863
  676MOL0     C89131   0.310   5.576  -1.583  0.7200 -0.1687  0.6519
  676MOL0     C89132   0.236   5.698  -1.572  0.1478 -0.2515 -0.3700
  676MOL0     C89133   0.262   5.799  -1.655 -0.1154  0.2797  0.3492
  676MOL0     C89134   0.365   5.787  -1.752 -0.4503 -0.6161 -1.0530
  676MOL0     O89135   0.396   5.902  -1.823  0.5387 -0.7291 -0.1360
  676MOL0     C89136   0.485   5.911  -1.930  0.2718 -0.2359  0.3045
  676MOL0     C89137   0.420   5.879  -2.062 -0.1521  0.1015 -0.2578
  676MOL0     C89138   0.533   5.874  -2.171 -0.1352 -0.2969 -0.3909
  676MOL0     C89139   0.467   5.794  -2.288  0.0870 -0.0787  0.5270
  676MOL0     C89140   0.335   5.859  -2.345 -0.6368 -0.7774 -0.3373
  676MOL0     C89141   0.309   5.794  -2.479 -0.2806 -0.5068  0.0034
  676MOL0     C89142   0.193   5.871  -2.557 -0.6650  1.1271  0.0065
  676MOL0     C89143   0.159   5.821  -2.699  0.4606  0.0718  0.0774
  676MOL0    Cl89144   0.148   5.637  -2.709  0.3327  0.0204  0.2499
  676MOL0     C89145   0.433   5.672  -1.769  0.0520 -1.1130  0.3920
  676MOL0     C89146   0.412   5.567  -1.681 -1.0268 -0.4822 -0.0396
  676MOL0     O89147   0.416   5.295  -1.537 -0.0299 -0.0351 -0.0070
  676MOL0     C89148   0.194   5.345  -1.265 -0.8358 -0.0123 -0.4701
  676MOL0     C89149   0.152   5.284  -1.146  0.2388 -1.3287  0.0249
  676MOL0     N89150  -0.005   4.537  -0.680  0.2560 -0.2439 -0.6009
  676MOL0     N89151   0.031   4.445  -0.592 -0.4708 -0.1004 -0.1012
  676MOL0     C89152   0.333   4.900   0.433 -1.2089  0.3522 -0.1950
  676MOL0     C89153   0.465   4.938   0.470 -0.1800 -0.6745 -0.4515
  676MOL0     C89154   0.938   4.940   0.462 -0.4817 -0.5427  0.8321
  676MOL0     C89155   1.063   4.915   0.405  0.3895 -0.5781  0.4533
  676MOL0     C89156   1.167   5.008   0.432  0.6464 -0.8846 -0.6471
  676MOL0     C89157   1.161   5.107   0.533  0.5393  0.3633  1.0100
  676MOL0     O89158   1.271   5.168   0.569  0.2761  0.3924 -0.7795
  676MOL0     C89159   1.309   5.136   0.702 -0.8768  0.7283 -0.1837
  676MOL0     C89160   1.440   5.194   0.743 -0.1246  0.4026  0.2246
  676MOL0     C89161   1.497   5.105   0.855 -0.3721 -0.1012  0.7272
  676MOL0     C89162   1.640   5.150   0.900 -0.1162 -1.3513  0.4678
  676MOL0     C89163   1.677   5.078   1.016 -0.6548 -0.4357  0.8542
  676MOL0     C89164   1.713   4.989   1.093  0.7830 -0.0026 -0.7000
  676MOL0     C89165   1.039   5.132   0.588  1.0374 -0.6489  0.8707
  676MOL0     C89166   0.933   5.051   0.546  0.0058  0.4548  0.4528
  676MOL0     H89167   0.624   4.666   0.339  0.0072 -0.1214 -1.0958
  676MOL0     H89168   0.393   4.591   0.325  0.9945  0.6655 -1.7643
  676MOL0     H89169   0.073   4.906   0.396 -0.8659  0.7443 -1.5625
  676MOL0     H89170  -0.025   4.784   0.325 -1.4706  1.9205  0.3402
  676MOL0     H89171   0.185   4.936   0.176  1.4340 -0.9311  2.3100
  676MOL0     H89172   0.002   4.967   0.179  0.4885  0.9228 -1.9125
  676MOL0     H89173   0.085   4.864  -0.030  2.9820  0.3631 -0.4907
  676MOL0     H89174  -0.010   4.742   0.060 -1.3223  2.7860 -3.1822
  676MOL0     H89175   0.295   4.796   0.070 -0.4584 -0.4289  1.3764
  676MOL0     H89176   0.222   4.653   0.124 -1.5672  2.5173  2.2343
  676MOL0     H89177   0.341   4.616  -0.085 -0.9621  0.3497  3.7234
  676MOL0     H89178   0.258   4.750  -0.178 -3.0865  1.7719  1.9591
  676MOL0     H89179   0.043   4.617  -0.162  0.3363  1.0120  0.0089
  676MOL0     H89180   0.128   4.503  -0.062 -0.6940 -0.6053 -0.0625
  676MOL0     H89181   0.246   4.555  -0.342 -4.0234  1.3141 -2.8857
  676MOL0     H89182   0.250   4.410  -0.248  2.5152  2.2987  1.1035
  676MOL0     H89183  -0.028   4.425  -0.296 -3.0233 -0.8891 -2.8347
  676MOL0     H89184   0.096   4.340  -0.379  2.1196  1.0992 -3.7502
  676MOL0     H89185  -0.026   4.703  -0.404 -1.6446 -0.8654  0.5280
  676MOL0     H89186  -0.057   4.872  -0.613 -1.0186  1.4084 -2.0723
  676MOL0     H89187  -0.118   4.791  -0.750  0.4610 -1.1115 -0.2302
  676MOL0     H89188   0.161   4.752  -0.786  1.6653  1.5172 -1.3392
  676MOL0     H89189   0.147   4.903  -0.697 -0.3988  1.1194 -0.0560
  676MOL0     H89190  -0.008   4.873  -0.940  0.1398 -2.0373  0.8864
  676MOL0     H89191  -0.003   5.013  -0.831  0.8690 -0.6871  3.8020
  676MOL0     H89192   0.215   4.910  -1.028  1.3380 -1.5136  0.6052
  676MOL0     H89193   0.266   4.998  -0.877 -1.9564  2.2423  0.2210
  676MOL0     H89194   0.378   5.037  -1.133  2.2523  1.3594 -0.8618
  676MOL0     H89195   0.453   5.135  -1.341 -0.3483 -1.8186  0.9088
  676MOL0     H89196   0.159   5.710  -1.497 -1.1045  0.1944 -1.6808
  676MOL0     H89197   0.195   5.884  -1.652 -0.5833  0.2651 -3.7516
  676MOL0     H89198   0.574   5.850  -1.916 -0.6912 -2.1355 -1.4155
  676MOL0     H89199   0.499   6.020  -1.927 -4.2325  0.6528 -1.8608
  676MOL0     H89200   0.349   5.958  -2.085 -0.0492 -0.0795 -1.2300
  676MOL0     H89201   0.362   5.786  -2.065  0.8908 -0.5444 -1.5974
  676MOL0     H89202   0.617   5.816  -2.130  0.3698  1.9237  1.9974
  676MOL0     H89203   0.571   5.971  -2.203 -3.4744  0.8981 -1.1270
  676MOL0     H89204   0.540   5.775  -2.367 -0.1597 -1.5868  0.6276
  676MOL0     H89205   0.443   5.691  -2.261 -2.0889  0.2088 -0.0889
  676MOL0     H89206   0.362   5.963  -2.364  4.7294 -1.5991  0.9919
  676MOL0     H89207   0.247   5.849  -2.281 -2.0000  1.8489 -1.6487
  676MOL0     H89208   0.283   5.688  -2.470 -4.0680  0.1015 -1.8842
  676MOL0     H89209   0.399   5.811  -2.539  2.8460  1.2889  4.6143
  676MOL0     H89210   0.101   5.868  -2.498  0.4457 -0.2589  1.7457
  676MOL0     H89211   0.220   5.974  -2.582  2.4720  0.9995  2.2677
  676MOL0     H89212   0.238   5.861  -2.763  1.1105  4.3813  3.1257
  676MOL0     H89213   0.061   5.862  -2.724 -0.2645 -0.6007  1.6793
  676MOL0     H89214   0.510   5.668  -1.845 -1.4627 -0.0185 -1.2991
  676MOL0     H89215   0.469   5.475  -1.685  0.5193  0.4659 -2.2989
  676MOL0     H89216   0.140   5.434  -1.297 -1.2230 -0.5954 -1.4901
  676MOL0     H89217   0.072   5.337  -1.095  0.8255  0.7594 -1.1137
  676MOL0     H89218   0.255   4.971   0.457 -1.7442 -0.1667 -0.3988
  676MOL0     H89219   0.493   5.029   0.523  4.0103 -1.3342 -1.1984
  676MOL0     H89220   1.071   4.834   0.333  1.8852 -0.9089  0.9700
  676MOL0     H89221   1.265   5.001   0.385  0.7198 -0.2930 -0.5918
  676MOL0     H89222   1.322   5.028   0.714  2.8011  0.5441 -3.5867
  676MOL0     H89223   1.237   5.174   0.775 -1.5884  1.7684 -1.3860
  676MOL0     H89224   1.502   5.212   0.655 -0.8568  1.0478 -0.1736
  676MOL0     H89225   1.416   5.292   0.784  0.7503  0.7972 -0.1932
  676MOL0     H89226   1.498   5.002   0.815 -2.3508  0.0016  0.2902
  676MOL0     H89227   1.425   5.096   0.937 -1.0046 -1.5895  0.0630
  676MOL0     H89228   1.707   5.133   0.815 -2.8663  1.2019 -2.4924
  676MOL0     H89229   1.641   5.258   0.917  0.6908 -0.8322 -2.3816
  676MOL0     H89230   1.761   4.920   1.159  0.8669  0.3841 -0.3490
  676MOL0     H89231   1.020   5.196   0.674  5.6926  1.4499  0.6587
  676MOL0     H89232   0.843   5.078   0.601 -0.6887 -1.4083  0.3147
  677MOL0     O89233   0.674   4.903   7.804  0.0833 -0.5946 -0.2278
  677MOL0     C89234   0.658   4.783   7.785 -0.1593 -0.6553 -0.0350
  677MOL0     O89235   0.682   4.709   7.668  0.4781 -0.4983  0.0699
  677MOL0     C89236   0.737   4.762   7.561  0.4812  0.2384 -0.0941
  677MOL0     C89237   0.835   4.865   7.561 -0.8404 -0.2380 -0.0861
  677MOL0     C89238   0.873   4.927   7.443  0.6818 -0.5940  0.2530
  677MOL0     C89239   0.836   4.874   7.315 -0.3328  0.3873 -0.3025
  677MOL0     O89240   0.881   4.942   7.205  0.0814  0.9759 -0.1104
  677MOL0     C89241   0.845   4.896   7.076  0.0156 -0.2493 -0.2271
  677MOL0     C89242   0.951   4.959   6.981  0.6435 -0.0323 -0.0134
  677MOL0     C89243   0.946   5.116   6.994 -0.1944  0.9057  0.2625
  677MOL0     C89244   1.030   5.186   6.881 -0.1126 -1.3330 -0.8808
  677MOL0     C89245   1.015   5.343   6.883 -0.2501 -0.1666 -0.3587
  677MOL0     C89246   1.119   5.413   6.791 -0.0220 -0.8678  0.3382
  677MOL0     C89247   1.102   5.378   6.637 -0.2552 -0.2791  0.1822
  677MOL0     C89248   1.210   5.436   6.549  0.0715 -0.4950 -0.0441
  677MOL0     N89249   1.233   5.580   6.565  0.3346  0.0927 -0.8054
  677MOL0     C89250   1.356   5.647   6.564  0.5044 -0.1514  0.4169
  677MOL0     C89251   1.328   5.782   6.559  0.1741 -0.2901 -0.1266
  677MOL0     C89252   1.441   5.889   6.556  0.3224 -0.7798  0.0707
  677MOL0     C89253   1.473   5.924   6.411  0.8488  0.5638 -0.0705
  677MOL0     C89254   1.548   6.051   6.407 -0.1917 -0.5281  0.7301
  677MOL0     C89255   1.451   6.172   6.404 -0.6718  0.2089  0.1153
  677MOL0     O89256   1.524   6.291   6.415  0.5863 -0.6157 -0.2855
  677MOL0     C89257   1.528   6.360   6.546  0.0092 -0.3469  1.1318
  677MOL0     C89258   1.600   6.481   6.545 -0.0670  0.6006 -0.1109
  677MOL0     C89259   1.613   6.562   6.660 -0.4017  0.2835  0.7744
  677MOL0     C89260   1.534   6.534   6.771 -1.1008 -0.3586  0.6563
  677MOL0     C89261   1.522   6.625   6.877 -0.9176  0.7767 -0.0865
  677MOL0     O89262   1.546   6.752   6.837 -0.5827  0.2641  0.1932
  677MOL0     C89263   1.551   6.847   6.941  0.2324  0.7863 -0.2775
  677MOL0     C89264   1.444   6.923   6.974  0.1717  0.1487  0.2143
  677MOL0     C89265   1.447   7.012   7.076 -0.2167 -0.3832  0.8597
  677MOL0     C89266   1.565   7.031   7.155  0.5515  0.4795 -0.0417
  677MOL0     O89267   1.565   7.136   7.247  0.3898  0.2593 -0.4146
  677MOL0     C89268   1.681   7.165   7.330  0.1474  0.0287 -0.9096
  677MOL0     C89269   1.664   7.310   7.373 -0.0908 -0.0503 -0.6012
  677MOL0     C89270   1.794   7.368   7.440 -0.1618 -0.4547  0.8045
  677MOL0     C89271   1.759   7.506   7.499 -0.8007  0.1225  0.0062
  677MOL0     C89272   1.879   7.607   7.489 -0.2267 -0.4893 -0.1844
  677MOL0     C89273   1.847   7.749   7.555  0.1271  0.3563  1.2428
  677MOL0     C89274   1.963   7.851   7.545 -0.0308  0.6909  0.2316
  677MOL0     C89275   1.922   7.977   7.620  0.9198  0.5039 -0.5650
  677MOL0    Cl89276   2.033   8.092   7.538  0.0274 -0.2012 -0.0658
  677MOL0     C89277   1.669   6.957   7.112 -0.5119 -0.2267 -0.9082
  677MOL0     C89278   1.660   6.857   7.017 -0.3946  0.0109 -0.0954
  677MOL0     O89279   1.513   6.579   6.992 -0.3211 -0.7046  0.9124
  677MOL0     C89280   1.456   6.418   6.775 -0.4234  0.6618  0.0534
  677MOL0     C89281   1.454   6.332   6.659  0.2761 -0.6402  0.7173
  677MOL0     N89282   1.191   5.797   6.538  0.5168  0.3629  0.2676
  677MOL0     N89283   1.134   5.678   6.548  0.1108 -0.2536 -0.2134
  677MOL0     C89284   0.757   4.763   7.314 -0.7683 -0.1951 -0.1258
  677MOL0     C89285   0.714   4.711   7.436  1.1449  0.5395  0.3952
  677MOL0     C89286   0.598   4.698   7.889  0.3541 -0.2971 -0.2685
  677MOL0     C89287   0.602   4.561   7.882  0.6162  0.8416 -1.0724
  677MOL0     C89288   0.515   4.485   7.964  0.2001  0.1999 -0.4599
  677MOL0     C89289   0.457   4.533   8.078  0.0666 -0.3548 -0.1005
  677MOL0     O89290   0.365   4.473   8.159 -0.2175  0.2294 -0.1392
  677MOL0     C89291   0.315   4.334   8.132 -0.8735 -0.6952  0.4408
  677MOL0     C89292   0.211   4.314   8.231 -0.8358  0.5820 -0.6039
  677MOL0     C89293   0.233   4.177   8.297 -0.4567  0.0189 -0.3086
  677MOL0     C89294   0.106   4.121   8.349  0.2757 -0.8955 -0.1584
  677MOL0     C89295   0.052   4.204   8.460  1.4270 -0.8587  0.5721
  677MOL0     C89296  -0.007   4.270   8.552  0.0028 -0.1951 -0.2495
  677MOL0     C89297   0.477   4.668   8.102 -0.4498 -0.0387 -0.3712
  677MOL0     C89298   0.544   4.750   8.007  1.5725 -0.3471  0.2390
  677MOL0     H89299   0.870   4.903   7.657 -2.8356 -0.9110  0.9523
  677MOL0     H89300   0.942   5.011   7.440 -2.8487  2.7232  2.3402
  677MOL0     H89301   0.745   4.924   7.040  0.3918 -1.3988 -2.3178
  677MOL0     H89302   0.853   4.787   7.074  0.4858 -0.2564 -3.3376
  677MOL0     H89303   0.925   4.944   6.876  1.9475  1.1158 -0.5342
  677MOL0     H89304   1.047   4.908   6.994  0.6602  0.2160  0.9642
  677MOL0     H89305   0.975   5.144   7.096  2.9638 -0.5744 -0.1278
  677MOL0     H89306   0.841   5.147   6.983 -0.1488  0.6010 -1.2370
  677MOL0     H89307   1.136   5.163   6.889 -0.3562 -2.0051  0.8995
  677MOL0     H89308   0.993   5.150   6.784 -0.9318 -2.1845 -0.2679
  677MOL0     H89309   1.024   5.381   6.986  1.8961 -0.5976 -0.3453
  677MOL0     H89310   0.919   5.363   6.834 -0.2532 -1.2700 -0.8277
  677MOL0     H89311   1.220   5.389   6.825 -0.2902  0.8811  2.5794
  677MOL0     H89312   1.108   5.521   6.806  3.5427 -0.2834 -0.4498
  677MOL0     H89313   1.096   5.270   6.619 -0.4136 -0.5149  1.5241
  677MOL0     H89314   1.009   5.429   6.610 -0.8872 -1.2615  0.4246
  677MOL0     H89315   1.211   5.402   6.445  0.0506  3.0649 -1.3341
  677MOL0     H89316   1.300   5.385   6.585 -1.1812 -1.0439  2.5788
  677MOL0     H89317   1.456   5.605   6.563  0.3670 -0.4708 -0.0983
  677MOL0     H89318   1.529   5.862   6.614 -0.3954 -5.1024 -0.5085
  677MOL0     H89319   1.388   5.970   6.607 -0.4765 -2.4119  1.9312
  677MOL0     H89320   1.379   5.920   6.354  1.5106  0.7299 -1.2140
  677MOL0     H89321   1.533   5.842   6.370  1.7275  1.4239 -0.5553
  677MOL0     H89322   1.622   6.061   6.487 -1.3293  2.3698  1.5697
  677MOL0     H89323   1.603   6.055   6.313 -0.0285  0.5092  0.8537
  677MOL0     H89324   1.378   6.161   6.485 -0.1851 -0.6428  0.4643
  677MOL0     H89325   1.398   6.178   6.309  1.4931 -0.3243 -1.2075
  677MOL0     H89326   1.640   6.520   6.452 -0.7511 -1.5040 -1.3611
  677MOL0     H89327   1.684   6.644   6.648 -0.2194  0.5241  3.0670
  677MOL0     H89328   1.355   6.916   6.913  0.6946  0.9851 -0.6720
  677MOL0     H89329   1.364   7.079   7.096  0.4493 -0.0733  2.7895
  677MOL0     H89330   1.776   7.141   7.281 -1.3591 -1.5723 -3.2916
  677MOL0     H89331   1.686   7.106   7.422 -0.7741 -1.8067 -1.9728
  677MOL0     H89332   1.578   7.331   7.437  0.3071 -2.8377  0.9799
  677MOL0     H89333   1.642   7.370   7.284 -0.1240 -0.7367 -1.0603
  677MOL0     H89334   1.868   7.389   7.363 -1.5074 -1.4464 -0.8328
  677MOL0     H89335   1.838   7.304   7.518 -2.2566  0.3724  2.7945
  677MOL0     H89336   1.678   7.555   7.445  0.6010  1.5329 -0.9451
  677MOL0     H89337   1.729   7.495   7.604 -0.0211  0.8323  0.3288
  677MOL0     H89338   1.877   7.616   7.380 -0.2405  2.3861 -0.0350
  677MOL0     H89339   1.972   7.561   7.524  1.3426  1.9456 -0.8806
  677MOL0     H89340   1.822   7.731   7.660 -1.4628  3.2412  1.4550
  677MOL0     H89341   1.756   7.790   7.511 -0.6236 -1.6279  0.8198
  677MOL0     H89342   2.055   7.812   7.588  0.6037  0.3211 -1.3857
  677MOL0     H89343   1.984   7.870   7.439 -0.6588 -1.2035 -0.2764
  677MOL0     H89344   1.932   7.959   7.727 -2.0153 -0.3806 -0.3506
  677MOL0     H89345   1.815   7.996   7.603  0.6579 -1.6712 -1.6112
  677MOL0     H89346   1.769   6.970   7.154  0.6251 -0.4533 -3.3415
  677MOL0     H89347   1.749   6.797   7.002 -0.7274 -1.0211  1.7054
  677MOL0     H89348   1.395   6.379   6.855 -3.7916 -0.3620 -2.7356
  677MOL0     H89349   1.395   6.242   6.671 -0.4633 -0.2357  0.1643
  677MOL0     H89350   0.727   4.732   7.215  0.9841  1.2953 -1.1830
  677MOL0     H89351   0.651   4.622   7.440  0.0355  1.3236  0.8383
  677MOL0     H89352   0.653   4.503   7.806  3.2189 -1.9645  2.4115
  677MOL0     H89353   0.507   4.378   7.948  3.6550 -0.7789  2.9040
  677MOL0     H89354   0.394   4.261   8.147  0.7476  1.0802  0.8675
  677MOL0     H89355   0.275   4.317   8.031  2.0004  3.6527 -1.7351
  677MOL0     H89356   0.233   4.387   8.309 -1.3545 -0.5997  0.6901
  677MOL0     H89357   0.112   4.308   8.184 -0.0516 -1.0198 -2.1727
  677MOL0     H89358   0.307   4.183   8.378  2.5595 -0.8289 -2.8219
  677MOL0     H89359   0.270   4.100   8.229 -0.2723 -1.4198  1.3388
  677MOL0     H89360   0.024   4.121   8.276 -0.4220  0.1468  0.6016
  677MOL0     H89361   0.115   4.014   8.371  0.7958 -0.7835  0.1904
  677MOL0     H89362  -0.053   4.326   8.630 -1.1590  0.4852 -1.3767
  677MOL0     H89363   0.426   4.703   8.191 -1.3401 -0.2082 -0.7945
  677MOL0     H89364   0.538   4.855   8.035 -0.7894 -0.8930  2.1241
  678MOL0     O89365   9.620   1.535   1.466  0.2161  0.5820  0.9161
  678MOL0     C89366   9.719   1.490   1.417 -0.2748 -0.2051  0.3789
  678MOL0     O89367   9.843   1.494   1.472 -0.5230 -0.4963 -0.3747
  678MOL0     C89368   9.863   1.531   1.602  0.3678  0.0858  0.1982
  678MOL0     C89369   9.923   1.437   1.692 -0.3163 -0.6394 -0.2205
  678MOL0     C89370   9.954   1.467   1.824  0.9119 -0.2253  0.0166
  678MOL0     C89371   9.920   1.591   1.882  0.0931  0.0176 -0.0206
  678MOL0     O89372   9.944   1.629   2.013 -0.3094 -0.6791  0.3784
  678MOL0     C89373   9.912   1.531   2.113  0.4462 -0.0180  0.3342
  678MOL0     C89374   9.926   1.585   2.256  0.9851 -0.1964 -0.2224
  678MOL0     C89375  10.073   1.644   2.273  0.5693  0.1828  0.5461
  678MOL0     C89376  10.086   1.705   2.416  0.4531  0.0233 -0.3427
  678MOL0     C89377  10.226   1.739   2.444 -0.4737  0.6779 -0.2712
  678MOL0     C89378  10.232   1.811   2.581 -0.5652 -0.9833 -0.7505
  678MOL0     C89379  10.378   1.847   2.632  0.8577  0.2915 -0.1036
  678MOL0     C89380  10.383   1.943   2.747  0.7172  0.4216 -0.3519
  678MOL0     N89381  10.315   1.889   2.865 -0.6601  0.1094 -0.1571
  678MOL0     C89382  10.181   1.912   2.900 -0.4376 -0.2832  1.1413
  678MOL0     C89383  10.159   1.851   3.015  0.5085  0.5228 -0.2562
  678MOL0     C89384  10.038   1.834   3.106 -0.7581 -1.2864  0.2056
  678MOL0     C89385   9.987   1.976   3.146  0.3956  0.1389  0.3710
  678MOL0     C89386   9.874   1.967   3.251 -1.5947  0.6914  0.4144
  678MOL0     C89387   9.839   2.100   3.324  1.3268 -0.2871  0.8446
  678MOL0     O89388   9.916   2.111   3.450  0.8265 -0.0418 -0.2776
  678MOL0     C89389   9.899   2.229   3.517  0.6843 -1.1211 -1.2720
  678MOL0     C89390   9.901   2.354   3.459  0.2395  0.1616 -0.5659
  678MOL0     C89391   9.888   2.472   3.536  0.5167 -0.1096  0.0962
  678MOL0     C89392   9.870   2.465   3.674  0.9771 -0.0568  0.1468
  678MOL0     C89393   9.848   2.585   3.758 -0.4849 -0.1005  0.2729
  678MOL0     O89394   9.850   2.557   3.886 -1.2889  0.4348  0.2352
  678MOL0     C89395   9.842   2.661   3.973 -0.2863 -1.3215  0.2890
  678MOL0     C89396   9.952   2.714   4.043  0.5890  0.2744  0.0540
  678MOL0     C89397   9.923   2.817   4.132  1.0637 -0.5610 -0.1136
  678MOL0     C89398   9.789   2.854   4.168  0.0155  0.8464  0.1957
  678MOL0     O89399   9.749   2.933   4.272  0.4973 -0.0154  0.8842
  678MOL0     C89400   9.842   3.004   4.337 -0.7835  0.1400  0.0410
  678MOL0     C89401   9.791   3.084   4.451 -0.3714  0.1199  0.9789
  678MOL0     C89402   9.752   3.009   4.578 -0.2598  0.0442 -0.2511
  678MOL0     C89403   9.606   2.950   4.566  0.1211 -0.4272 -0.1351
  678MOL0     C89404   9.583   2.877   4.699 -0.4709  0.0640 -0.0913
  678MOL0     C89405   9.469   2.779   4.697  0.4548 -0.4510  0.6644
  678MOL0     C89406   9.435   2.706   4.827  0.2323  0.3994 -0.3053
  678MOL0     C89407   9.291   2.651   4.822 -0.1056  0.4506  0.3514
  678MOL0    Cl89408   9.182   2.798   4.847 -0.4607  0.1085  0.1791
  678MOL0     C89409   9.692   2.810   4.090  0.9981 -0.0394 -0.2401
  678MOL0     C89410   9.716   2.718   3.986 -0.5185 -0.7924  0.5398
  678MOL0     O89411   9.833   2.699   3.705 -0.6717  0.6697 -0.0838
  678MOL0     C89412   9.873   2.337   3.738 -1.0145  1.1213 -0.5440
  678MOL0     C89413   9.880   2.218   3.655 -0.1962 -0.2390 -0.8211
  678MOL0     N89414  10.272   1.771   3.041  0.8511  0.1642  1.4770
  678MOL0     N89415  10.358   1.791   2.949 -0.0162 -0.6483  0.0136
  678MOL0     C89416   9.860   1.686   1.798 -0.2260  0.4838  0.4144
  678MOL0     C89417   9.818   1.647   1.662 -1.0115  0.6695 -0.1636
  678MOL0     C89418   9.713   1.449   1.277 -0.2289 -0.3113  1.2216
  678MOL0     C89419   9.591   1.455   1.203 -0.5951  0.9367  1.0263
  678MOL0     C89420   9.585   1.410   1.074  0.8019 -0.2461  0.2282
  678MOL0     C89421   9.696   1.360   1.008 -0.3068  0.2389  0.9001
  678MOL0     O89422   9.690   1.340   0.872  0.1593 -0.4226  0.4493
  678MOL0     C89423   9.799   1.278   0.809  0.2073  0.2733  1.0958
  678MOL0     C89424   9.754   1.250   0.661  0.8744 -0.0416  0.3222
  678MOL0     C89425   9.862   1.181   0.577 -0.7482  0.3557  0.6169
  678MOL0     C89426   9.812   1.122   0.450 -0.5825 -0.4762  0.2902
  678MOL0     C89427   9.741   1.221   0.372 -0.0288 -0.3332 -0.0032
  678MOL0     C89428   9.679   1.303   0.305 -0.4149  0.2682 -0.1663
  678MOL0     C89429   9.813   1.338   1.079 -0.7561 -0.6240 -0.2068
  678MOL0     C89430   9.822   1.386   1.210 -0.2895 -0.6235  0.4440
  678MOL0     H89431   9.959   1.346   1.645  1.6943 -0.3834  0.7258
  678MOL0     H89432   9.994   1.394   1.893  1.6184  0.3248  0.2105
  678MOL0     H89433   9.984   1.450   2.100 -0.6910 -1.1613  0.9593
  678MOL0     H89434   9.809   1.493   2.106  0.9012 -1.3643  0.6372
  678MOL0     H89435   9.918   1.508   2.333 -3.6994  1.3091  1.1182
  678MOL0     H89436   9.843   1.655   2.262  0.0061 -1.3579  0.2007
  678MOL0     H89437  10.094   1.733   2.213  2.9096 -1.8708 -1.9353
  678MOL0     H89438  10.144   1.565   2.247 -2.2120 -2.7710  1.2052
  678MOL0     H89439  10.020   1.792   2.410 -0.7645 -0.8891 -0.4667
  678MOL0     H89440  10.053   1.634   2.493 -0.2528 -0.0689 -0.7320
  678MOL0     H89441  10.280   1.794   2.367 -0.0175  0.7931  0.1226
  678MOL0     H89442  10.273   1.640   2.448  0.8482  1.2805 -0.0032
  678MOL0     H89443  10.192   1.741   2.655 -0.7259 -0.6468 -0.5197
  678MOL0     H89444  10.168   1.899   2.584 -2.8049 -2.5362 -0.7717
  678MOL0     H89445  10.414   1.755   2.678 -3.3248 -0.6314  1.8014
  678MOL0     H89446  10.438   1.888   2.550  2.2394  1.0488  1.2348
  678MOL0     H89447  10.343   2.042   2.723 -0.1551  0.4040  0.9470
  678MOL0     H89448  10.485   1.950   2.784  1.7667  0.4856 -3.0274
  678MOL0     H89449  10.112   1.963   2.834 -2.8830 -2.9349  1.4390
  678MOL0     H89450  10.074   1.778   3.193  1.7638  0.8359  0.6654
  678MOL0     H89451   9.967   1.773   3.050  0.7160 -1.6887 -1.2848
  678MOL0     H89452   9.961   2.037   3.059  2.2050  1.6714  0.8383
  678MOL0     H89453  10.068   2.029   3.199 -0.3600  3.7994 -1.7828
  678MOL0     H89454   9.777   1.931   3.217 -1.8412  0.1947  1.6022
  678MOL0     H89455   9.910   1.893   3.323  2.4085  1.2053 -0.7862
  678MOL0     H89456   9.730   2.105   3.323  1.1484 -0.9644 -3.1924
  678MOL0     H89457   9.857   2.176   3.248 -3.1858 -0.0707 -0.3069
  678MOL0     H89458   9.905   2.349   3.350 -1.8117 -3.1249 -0.6305
  678MOL0     H89459   9.884   2.558   3.470  1.4647 -0.0978  0.0433
  678MOL0     H89460  10.051   2.679   4.018  0.3878  1.6867 -3.3502
  678MOL0     H89461  10.001   2.858   4.195 -1.5539  1.5632  1.9724
  678MOL0     H89462   9.883   3.071   4.261 -2.6254  0.1317 -1.0100
  678MOL0     H89463   9.914   2.940   4.389 -1.5942  1.6449  3.2735
  678MOL0     H89464   9.701   3.139   4.423  0.2982  0.0259 -1.6334
  678MOL0     H89465   9.867   3.155   4.485  1.2444 -2.9185  4.4674
  678MOL0     H89466   9.743   3.081   4.660 -3.0586 -1.9063  1.3248
  678MOL0     H89467   9.830   2.933   4.593 -1.8686 -2.2463 -2.5678
  678MOL0     H89468   9.540   3.037   4.556  0.2852 -0.3921 -0.9966
  678MOL0     H89469   9.586   2.877   4.488 -0.0875 -0.6060  0.0829
  678MOL0     H89470   9.556   2.938   4.787 -0.3240 -3.6797  2.7968
  678MOL0     H89471   9.675   2.825   4.727  2.1775  2.5145 -3.3599
  678MOL0     H89472   9.464   2.705   4.616 -3.6011  0.2546  0.0486
  678MOL0     H89473   9.385   2.846   4.675 -0.1200 -1.2221  0.4921
  678MOL0     H89474   9.499   2.620   4.843 -1.5530 -1.1051 -0.8600
  678MOL0     H89475   9.438   2.771   4.915  0.0305 -0.1316  0.1003
  678MOL0     H89476   9.266   2.575   4.896 -0.9218 -3.2725 -3.3926
  678MOL0     H89477   9.275   2.602   4.725  2.5797  0.1474 -0.0003
  678MOL0     H89478   9.590   2.844   4.107  0.2940 -2.1948  0.1988
  678MOL0     H89479   9.639   2.663   3.934 -0.0115 -0.5778 -0.4746
  678MOL0     H89480   9.859   2.311   3.842  1.9458  1.7391  0.1276
  678MOL0     H89481   9.878   2.121   3.704  0.3301  0.5499  0.8471
  678MOL0     H89482   9.829   1.778   1.846  3.1353  1.9586  0.0531
  678MOL0     H89483   9.749   1.709   1.606 -0.4928  0.5640 -0.9354
  678MOL0     H89484   9.498   1.504   1.232 -1.1465  2.6278 -2.9715
  678MOL0     H89485   9.486   1.414   1.031  1.1614 -0.5354 -0.6574
  678MOL0     H89486   9.832   1.186   0.857 -0.4180 -0.5281  0.0528
  678MOL0     H89487   9.879   1.352   0.802 -0.9760  1.5621  0.6122
  678MOL0     H89488   9.666   1.184   0.661  1.7898 -1.4878 -3.4036
  678MOL0     H89489   9.718   1.343   0.617 -1.5627 -1.8302 -1.7461
  678MOL0     H89490   9.919   1.111   0.639  0.1488  0.0081 -0.5583
  678MOL0     H89491   9.938   1.250   0.540 -1.1158  0.3589 -0.1493
  678MOL0     H89492   9.899   1.100   0.388 -1.4789  0.6429 -1.4380
  678MOL0     H89493   9.747   1.035   0.466 -0.4555 -1.3073 -2.9310
  678MOL0     H89494   9.626   1.386   0.262 -0.5388 -0.3262 -1.1859
  678MOL0     H89495   9.910   1.309   1.040  0.4785  2.1094  0.5630
  678MOL0     H89496   9.919   1.360   1.253  0.5841  0.0001 -1.0600
  679MOL0     O89497   8.303   6.415   3.877  0.1989  0.7673  0.6904
  679MOL0     C89498   8.357   6.515   3.831 -0.4524  0.5252 -0.3702
  679MOL0     O89499   8.439   6.603   3.901 -0.2249 -0.0280 -0.3001
  679MOL0     C89500   8.455   6.579   4.032  0.2201  0.4335 -0.1341
  679MOL0     C89501   8.587   6.576   4.070  0.5168  0.4084 -0.3695
  679MOL0     C89502   8.626   6.570   4.208  0.9071 -0.0875  0.3098
  679MOL0     C89503   8.518   6.532   4.298  0.2589  0.7542 -0.3352
  679MOL0     O89504   8.540   6.504   4.436  0.0008  0.2631  0.4654
  679MOL0     C89505   8.650   6.546   4.504  0.7946 -0.5326 -0.6925
  679MOL0     C89506   8.629   6.667   4.590 -0.0570  0.7916 -0.3261
  679MOL0     C89507   8.516   6.634   4.691 -0.7083  0.3693 -0.0094
  679MOL0     C89508   8.542   6.689   4.828  0.3391  0.5834  0.4823
  679MOL0     C89509   8.652   6.608   4.898 -0.1918  0.1757 -0.1973
  679MOL0     C89510   8.698   6.669   5.022  0.5588  0.2385 -0.4447
  679MOL0     C89511   8.811   6.588   5.093  0.1439  0.3196 -0.6047
  679MOL0     C89512   8.942   6.603   5.018 -0.3958 -0.5377  0.4817
  679MOL0     N89513   9.052   6.573   5.103  0.3819  0.6352  0.0985
  679MOL0     C89514   9.133   6.659   5.159  0.6545 -0.2354 -0.5250
  679MOL0     C89515   9.236   6.595   5.192 -0.0666  0.9985 -0.0303
  679MOL0     C89516   9.362   6.645   5.263  0.4725  0.0118 -0.4709
  679MOL0     C89517   9.399   6.559   5.390  0.2368  0.3532  0.4892
  679MOL0     C89518   9.321   6.578   5.520  0.4818  0.7470 -0.4699
  679MOL0     C89519   9.223   6.694   5.537 -0.6312 -0.7445  0.0078
  679MOL0     O89520   9.166   6.696   5.669  1.3045  0.0250  0.1261
  679MOL0     C89521   9.131   6.812   5.733  0.1158  0.0435  0.0876
  679MOL0     C89522   9.074   6.794   5.857  0.2672  0.0403 -0.9868
  679MOL0     C89523   9.013   6.901   5.922  0.0244 -0.2361 -0.5197
  679MOL0     C89524   9.009   7.031   5.866  0.8927 -0.7531 -1.0824
  679MOL0     C89525   8.937   7.146   5.926 -0.0896  0.5198 -0.6098
  679MOL0     O89526   8.944   7.269   5.869  0.2250  0.6789  0.3132
  679MOL0     C89527   8.913   7.387   5.941 -0.3377 -0.2408  1.1097
  679MOL0     C89528   8.848   7.490   5.865 -0.1846  0.0668  0.1937
  679MOL0     C89529   8.817   7.618   5.929 -0.3195  0.1037  0.2423
  679MOL0     C89530   8.865   7.632   6.058  0.2253 -0.2043 -1.3156
  679MOL0     O89531   8.832   7.750   6.118 -0.6164 -0.1930  0.6017
  679MOL0     C89532   8.817   7.765   6.256 -0.1048  0.7337  0.5765
  679MOL0     C89533   8.724   7.873   6.303 -0.1907 -0.6255 -0.0807
  679MOL0     C89534   8.764   8.023   6.261  0.6104  0.5475 -0.0988
  679MOL0     C89535   8.673   8.121   6.336  0.7278 -0.0324  0.7623
  679MOL0     C89536   8.710   8.265   6.301 -0.1280  0.4844 -0.2603
  679MOL0     C89537   8.603   8.359   6.355 -0.6670 -0.9237 -0.7747
  679MOL0     C89538   8.652   8.506   6.365  0.4266  0.2360 -0.2598
  679MOL0     C89539   8.542   8.599   6.381  0.6433 -0.6667  0.2225
  679MOL0    Cl89540   8.454   8.589   6.231  0.3761 -0.4065  0.2548
  679MOL0     C89541   8.949   7.542   6.128  0.2778 -0.5557  0.8441
  679MOL0     C89542   8.961   7.418   6.068 -0.0514  1.2965 -0.4400
  679MOL0     O89543   8.879   7.120   6.026  0.7917  0.1300 -0.7557
  679MOL0     C89544   9.079   7.058   5.747 -0.6834  0.2538  1.6897
  679MOL0     C89545   9.137   6.947   5.680  0.5398  0.5791 -0.7960
  679MOL0     N89546   9.211   6.462   5.167 -0.2563 -0.5399  0.0361
  679MOL0     N89547   9.104   6.443   5.110  0.6363 -0.1035  1.0683
  679MOL0     C89548   8.385   6.533   4.251  0.5066 -0.8796 -0.1005
  679MOL0     C89549   8.360   6.543   4.117 -0.3185  0.2046 -0.3291
  679MOL0     C89550   8.349   6.529   3.687 -1.2407  1.5701 -0.6014
  679MOL0     C89551   8.447   6.611   3.619  0.9549 -0.8436 -1.0635
  679MOL0     C89552   8.437   6.623   3.484 -0.5058  0.3816 -0.6953
  679MOL0     C89553   8.344   6.557   3.410  0.1310 -0.1348 -0.2308
  679MOL0     O89554   8.321   6.560   3.271  0.0819  0.1259  0.1263
  679MOL0     C89555   8.394   6.659   3.194  0.0700 -0.0292 -0.7113
  679MOL0     C89556   8.334   6.661   3.056  0.2193  0.1679 -0.5371
  679MOL0     C89557   8.435   6.712   2.950 -0.2157 -0.1709  0.9444
  679MOL0     C89558   8.369   6.733   2.820  0.4738  0.6279  0.1294
  679MOL0     C89559   8.438   6.843   2.755  1.8918 -0.3354  0.3186
  679MOL0     C89560   8.511   6.921   2.708  0.5902  0.5515 -0.1732
  679MOL0     C89561   8.271   6.467   3.475  0.1688 -0.4570 -0.5549
  679MOL0     C89562   8.268   6.441   3.615 -0.1564  0.5936 -0.9867
  679MOL0     H89563   8.669   6.592   4.001  0.1653  3.8058 -0.1637
  679MOL0     H89564   8.726   6.561   4.249 -0.0394  1.7382  3.3922
  679MOL0     H89565   8.742   6.565   4.448  0.7541  1.0555 -0.2692
  679MOL0     H89566   8.669   6.461   4.569  1.1788  1.7573  2.4448
  679MOL0     H89567   8.585   6.749   4.533 -2.5017  0.0209  0.3269
  679MOL0     H89568   8.727   6.696   4.628  0.4477  1.6271 -2.1442
  679MOL0     H89569   8.503   6.527   4.710 -1.1339  0.4260  0.0459
  679MOL0     H89570   8.423   6.679   4.654 -1.4771 -0.7135  0.5140
  679MOL0     H89571   8.565   6.796   4.818 -1.5176  0.9184 -0.6908
  679MOL0     H89572   8.449   6.693   4.885 -0.8318 -1.2991 -1.1797
  679MOL0     H89573   8.738   6.589   4.832 -0.0675 -0.1970  0.0679
  679MOL0     H89574   8.606   6.516   4.936  1.8183 -0.7062  0.2270
  679MOL0     H89575   8.611   6.669   5.089  1.2437 -2.0851  0.5682
  679MOL0     H89576   8.728   6.771   4.997  1.4744 -0.0697 -0.6593
  679MOL0     H89577   8.824   6.635   5.191  1.1590 -0.0593 -0.5353
  679MOL0     H89578   8.794   6.481   5.107  1.0694 -0.0148 -1.8036
  679MOL0     H89579   8.931   6.705   4.980 -5.2933 -0.9453  0.1298
  679MOL0     H89580   8.946   6.544   4.926 -4.0229 -0.4736  0.1135
  679MOL0     H89581   9.119   6.767   5.159  0.7012 -0.2160  1.0470
  679MOL0     H89582   9.363   6.753   5.282 -2.8807  0.1346 -0.5010
  679MOL0     H89583   9.446   6.620   5.197  0.0168 -1.6663 -0.4427
  679MOL0     H89584   9.504   6.572   5.416 -0.8598  3.9923  4.3189
  679MOL0     H89585   9.378   6.458   5.356  1.2944  0.7977 -1.6375
  679MOL0     H89586   9.287   6.475   5.530  1.7668  0.1230 -2.1917
  679MOL0     H89587   9.397   6.593   5.598  0.6447 -1.3144 -0.1755
  679MOL0     H89588   9.141   6.677   5.466 -1.1639  0.8660  0.1927
  679MOL0     H89589   9.271   6.787   5.508  0.3193 -1.9146 -2.5102
  679MOL0     H89590   9.081   6.695   5.901  2.8737  0.1784 -0.9382
  679MOL0     H89591   8.972   6.900   6.023  0.9550  0.7881 -0.1058
  679MOL0     H89592   8.828   7.480   5.759 -1.4699 -0.2147  0.4555
  679MOL0     H89593   8.776   7.703   5.877  2.1951  1.7530  0.7395
  679MOL0     H89594   8.916   7.781   6.299  0.0624 -1.4434  1.1396
  679MOL0     H89595   8.776   7.676   6.307 -1.2811  1.2359  0.5520
  679MOL0     H89596   8.712   7.872   6.411  1.4434  0.6905  0.1465
  679MOL0     H89597   8.621   7.851   6.274 -0.6192  3.4633 -2.4272
  679MOL0     H89598   8.763   8.051   6.156  4.8541  1.8168  0.0022
  679MOL0     H89599   8.864   8.041   6.302 -0.3104  1.3152  1.9564
  679MOL0     H89600   8.568   8.115   6.307  0.4073  0.3088  1.8151
  679MOL0     H89601   8.690   8.109   6.444  2.1778  3.7483  1.0999
  679MOL0     H89602   8.699   8.255   6.193 -0.8988 -1.1675 -0.0573
  679MOL0     H89603   8.807   8.295   6.340  0.1902  2.0823 -2.1565
  679MOL0     H89604   8.572   8.312   6.449 -0.8366  1.7728  0.6320
  679MOL0     H89605   8.522   8.369   6.283 -0.0135  3.0256 -1.2175
  679MOL0     H89606   8.715   8.518   6.453  0.2039 -3.1909  0.4951
  679MOL0     H89607   8.712   8.530   6.277  1.7452 -3.4235 -0.5104
  679MOL0     H89608   8.583   8.701   6.384 -0.5432 -0.1541 -0.0023
  679MOL0     H89609   8.484   8.574   6.471 -3.3812 -1.9175 -2.4487
  679MOL0     H89610   8.983   7.565   6.228  1.2016 -1.0767  0.6618
  679MOL0     H89611   9.006   7.332   6.115 -1.2297  0.3280 -1.0180
  679MOL0     H89612   9.093   7.149   5.689  2.9054 -1.4736 -0.5359
  679MOL0     H89613   9.191   6.969   5.589  2.5234 -2.1816 -0.4048
  679MOL0     H89614   8.302   6.516   4.320 -1.5081 -1.1246 -2.4683
  679MOL0     H89615   8.256   6.533   4.088  0.1946 -0.9092 -1.8727
  679MOL0     H89616   8.522   6.659   3.680  0.8398 -2.2607  0.2600
  679MOL0     H89617   8.513   6.693   3.449 -0.0526  1.0363  1.4303
  679MOL0     H89618   8.503   6.649   3.189 -0.0118 -1.3273 -0.3353
  679MOL0     H89619   8.365   6.758   3.231  1.3904  0.3330 -0.5933
  679MOL0     H89620   8.304   6.559   3.029  1.8842 -0.2259 -0.9707
  679MOL0     H89621   8.245   6.725   3.048 -0.1039 -0.4299 -2.2005
  679MOL0     H89622   8.519   6.644   2.933  0.9584  1.5804 -0.7244
  679MOL0     H89623   8.472   6.808   2.987 -0.8178 -0.3344  1.9952
  679MOL0     H89624   8.369   6.638   2.766 -2.2513  0.8752 -0.4544
  679MOL0     H89625   8.261   6.752   2.823  0.3688  0.1847  3.7494
  679MOL0     H89626   8.591   6.990   2.688  2.0729 -0.4000  2.0580
  679MOL0     H89627   8.202   6.408   3.415  0.1111  1.7189 -2.7676
  679MOL0     H89628   8.221   6.354   3.660  0.9855 -0.0334 -0.9577
  680MOL0     O89629   7.325   3.563   2.359  0.4285  0.0889  0.2991
  680MOL0     C89630   7.302   3.440   2.339 -0.1447 -0.4421 -0.5260
  680MOL0     O89631   7.388   3.339   2.331 -0.3880  0.0396 -0.2060
  680MOL0     C89632   7.525   3.364   2.366 -0.5221 -0.2799  0.0770
  680MOL0     C89633   7.559   3.404   2.499 -0.0534  0.5744 -0.9531
  680MOL0     C89634   7.692   3.405   2.529 -0.5794 -0.6292  0.3075
  680MOL0     C89635   7.780   3.403   2.424 -0.6335 -1.0069  0.0481
  680MOL0     O89636   7.915   3.418   2.459 -0.3473 -0.6973 -0.6902
  680MOL0     C89637   8.024   3.435   2.362 -0.0887  0.1747  1.5394
  680MOL0     C89638   8.160   3.476   2.420 -0.4510  0.1439  0.4488
  680MOL0     C89639   8.233   3.344   2.501  0.7106 -0.0889  0.1688
  680MOL0     C89640   8.275   3.379   2.643  0.3015  0.2228  0.1047
  680MOL0     C89641   8.341   3.268   2.736  0.7441  0.1360  0.5289
  680MOL0     C89642   8.480   3.240   2.688 -0.9014  0.3911  0.5078
  680MOL0     C89643   8.579   3.359   2.696  0.5735  0.4777  0.5433
  680MOL0     C89644   8.727   3.332   2.657 -0.1086 -0.1250 -0.1402
  680MOL0     N89645   8.818   3.442   2.688  0.2734  0.2766 -0.1812
  680MOL0     C89646   8.852   3.529   2.590 -0.0529  0.6591  0.3391
  680MOL0     C89647   8.939   3.606   2.654  0.3540 -0.1931 -0.3189
  680MOL0     C89648   9.005   3.724   2.588 -0.1774  0.8610 -0.7215
  680MOL0     C89649   8.898   3.829   2.545  0.1463 -0.2653  0.6666
  680MOL0     C89650   8.847   3.906   2.674 -0.5482  0.6795 -0.4270
  680MOL0     C89651   8.736   3.831   2.743  0.5981  0.2522  0.0899
  680MOL0     O89652   8.633   3.778   2.646 -0.7425 -0.1279 -0.6392
  680MOL0     C89653   8.519   3.741   2.714  0.2734 -1.4017  1.2438
  680MOL0     C89654   8.513   3.668   2.834  0.0112  0.9333  0.6186
  680MOL0     C89655   8.392   3.631   2.896  0.5137  0.1473 -0.0463
  680MOL0     C89656   8.276   3.667   2.819  0.0525  0.3061 -0.4593
  680MOL0     C89657   8.140   3.644   2.876 -0.3208  0.6541 -0.7546
  680MOL0     O89658   8.037   3.733   2.856  0.1959 -0.9481  0.5501
  680MOL0     C89659   7.912   3.701   2.902 -0.1557  1.0305 -0.3788
  680MOL0     C89660   7.847   3.596   2.845 -0.0097  0.3736 -0.3079
  680MOL0     C89661   7.727   3.553   2.901  0.0898 -0.4728  0.1559
  680MOL0     C89662   7.675   3.622   3.023  0.9038  0.1055 -0.5948
  680MOL0     O89663   7.571   3.558   3.085  0.3873  0.0582  0.2429
  680MOL0     C89664   7.554   3.575   3.226 -0.2898  0.8781 -0.5431
  680MOL0     C89665   7.464   3.469   3.294  0.5811  0.3439  0.3344
  680MOL0     C89666   7.439   3.498   3.437  0.5877 -0.0743 -0.4515
  680MOL0     C89667   7.319   3.428   3.482  0.5902 -0.4666 -0.8337
  680MOL0     C89668   7.189   3.486   3.427  0.3765  0.9805  0.3937
  680MOL0     C89669   7.083   3.377   3.418  0.2141 -1.2883 -0.3569
  680MOL0     C89670   7.104   3.297   3.287 -0.4401  0.5195 -0.3503
  680MOL0     C89671   6.986   3.195   3.262 -0.1285  0.3136  0.5210
  680MOL0    Cl89672   7.005   3.065   3.376  0.2889  0.2518  0.1416
  680MOL0     C89673   7.742   3.729   3.070 -0.7143  0.4587 -0.2466
  680MOL0     C89674   7.858   3.771   3.005 -0.3942  1.5918 -0.1161
  680MOL0     O89675   8.120   3.541   2.944  0.1604 -0.3887  0.3910
  680MOL0     C89676   8.276   3.739   2.706 -0.1483 -0.5400  0.2930
  680MOL0     C89677   8.400   3.774   2.652 -0.2509 -0.5229  0.3719
  680MOL0     N89678   8.943   3.574   2.786 -0.3939  0.3567  0.2607
  680MOL0     N89679   8.878   3.459   2.806 -1.2106 -0.7325 -0.9662
  680MOL0     C89680   7.740   3.376   2.285 -0.4503  0.4302  0.1757
  680MOL0     C89681   7.613   3.354   2.263  0.0918 -0.6227 -0.3859
  680MOL0     C89682   7.164   3.401   2.335  0.0495 -0.0839 -0.2969
  680MOL0     C89683   7.070   3.492   2.273  0.0576  0.5474 -0.7192
  680MOL0     C89684   6.937   3.452   2.260  0.9166 -0.0020  0.0934
  680MOL0     C89685   6.894   3.324   2.298 -0.1837  0.0145 -0.4167
  680MOL0     O89686   6.771   3.265   2.294 -0.6734 -0.4791  0.5192
  680MOL0     C89687   6.711   3.303   2.169  0.4272  0.4048  0.7156
  680MOL0     C89688   6.600   3.210   2.116 -0.0586  0.5088  0.3856
  680MOL0     C89689   6.660   3.093   2.016 -0.0507  0.3108  0.5939
  680MOL0     C89690   6.680   3.155   1.878  0.6089  0.6040  0.5667
  680MOL0     C89691   6.768   3.064   1.797  0.4739  0.4188  0.5514
  680MOL0     C89692   6.831   2.978   1.739 -0.9440 -0.0238 -0.4951
  680MOL0     C89693   6.990   3.235   2.358 -0.0120 -0.8728 -0.0271
  680MOL0     C89694   7.117   3.280   2.389 -0.2404  0.5221  0.6292
  680MOL0     H89695   7.477   3.412   2.570  2.1596  0.2161  1.7868
  680MOL0     H89696   7.738   3.400   2.627  1.3191  1.3878 -0.4023
  680MOL0     H89697   7.990   3.514   2.294 -0.0755  2.1973  3.7533
  680MOL0     H89698   8.044   3.347   2.300  1.4087  1.2543  0.4097
  680MOL0     H89699   8.147   3.561   2.487  1.8292 -0.6040  1.9704
  680MOL0     H89700   8.227   3.508   2.339 -0.3860 -0.4726  0.2497
  680MOL0     H89701   8.322   3.308   2.449  0.5147  1.6804 -1.4515
  680MOL0     H89702   8.168   3.256   2.511  2.1905 -0.9621  3.2313
  680MOL0     H89703   8.346   3.461   2.636  1.1291 -0.5664 -1.1467
  680MOL0     H89704   8.187   3.418   2.695  0.8464  1.0091  0.4570
  680MOL0     H89705   8.285   3.174   2.737  2.7556 -1.1062  1.1910
  680MOL0     H89706   8.359   3.297   2.840  3.7934  1.2026 -0.2018
  680MOL0     H89707   8.478   3.189   2.591  2.7666 -0.9165  0.9375
  680MOL0     H89708   8.528   3.165   2.752  1.6703  0.7291 -0.8885
  680MOL0     H89709   8.546   3.434   2.624 -0.8195 -0.3921  0.2274
  680MOL0     H89710   8.578   3.403   2.796  3.6024  1.4730  0.2270
  680MOL0     H89711   8.747   3.314   2.551 -0.5914  0.4615 -0.3369
  680MOL0     H89712   8.760   3.248   2.719  2.9609  1.6610  0.8385
  680MOL0     H89713   8.811   3.516   2.490 -0.9124 -1.8165  0.9335
  680MOL0     H89714   9.054   3.690   2.497 -0.5580 -1.1938 -0.2127
  680MOL0     H89715   9.080   3.770   2.652  1.5866 -0.5364 -1.6865
  680MOL0     H89716   8.822   3.771   2.491  1.1777 -2.2653  1.2704
  680MOL0     H89717   8.950   3.897   2.478  0.4936  2.3665  3.4068
  680MOL0     H89718   8.918   3.936   2.752 -0.8023 -0.6045  0.3281
  680MOL0     H89719   8.798   3.992   2.628  0.0785  0.3276 -1.8153
  680MOL0     H89720   8.684   3.911   2.797 -0.1971  0.2493 -0.6543
  680MOL0     H89721   8.767   3.751   2.811 -3.5909  0.4869  2.6086
  680MOL0     H89722   8.600   3.621   2.879  0.3594 -0.4680 -1.3846
  680MOL0     H89723   8.389   3.569   2.985 -0.8899  0.0247 -0.1634
  680MOL0     H89724   7.891   3.545   2.760 -0.9050 -0.2297 -0.4194
  680MOL0     H89725   7.682   3.458   2.877 -1.6025  0.1723  0.6187
  680MOL0     H89726   7.494   3.667   3.234 -1.7662 -0.1509  6.0000
  680MOL0     H89727   7.647   3.579   3.283  0.1302  3.4241 -1.2634
  680MOL0     H89728   7.505   3.369   3.277 -0.0304 -0.0468  1.1118
  680MOL0     H89729   7.376   3.476   3.230  2.6382  3.3180 -2.4636
  680MOL0     H89730   7.436   3.605   3.460 -1.1533 -0.1595 -0.1560
  680MOL0     H89731   7.534   3.469   3.482  0.6607  1.2892  0.3219
  680MOL0     H89732   7.333   3.323   3.458 -1.2030 -1.2351  1.2325
  680MOL0     H89733   7.317   3.422   3.591 -0.5507  1.0159 -0.7359
  680MOL0     H89734   7.200   3.542   3.333 -3.4047  2.4891  0.6734
  680MOL0     H89735   7.151   3.559   3.499 -1.5686  0.6667 -0.2601
  680MOL0     H89736   6.982   3.418   3.430 -0.9690 -4.0953 -0.1415
  680MOL0     H89737   7.088   3.324   3.513 -1.5620  2.9695  2.3913
  680MOL0     H89738   7.115   3.359   3.198  1.1027 -1.0275 -1.3000
  680MOL0     H89739   7.195   3.239   3.305 -0.9679 -0.5313 -0.9676
  680MOL0     H89740   7.003   3.143   3.168 -1.8728  0.1631  0.2512
  680MOL0     H89741   6.884   3.236   3.267  0.5418  2.5180 -1.9788
  680MOL0     H89742   7.697   3.787   3.150  1.0187 -0.9321  1.8704
  680MOL0     H89743   7.913   3.856   3.045 -0.8698  1.6921  0.3288
  680MOL0     H89744   8.189   3.762   2.646 -0.0883 -2.1437 -0.4443
  680MOL0     H89745   8.392   3.828   2.559  0.5417  0.6540  0.9588
  680MOL0     H89746   7.815   3.377   2.206 -0.7156  1.3654 -0.0725
  680MOL0     H89747   7.582   3.332   2.161  2.3204  2.0870 -1.7793
  680MOL0     H89748   7.094   3.595   2.245  0.6083  0.6066 -0.0411
  680MOL0     H89749   6.859   3.518   2.222  0.4756 -1.6281 -1.9915
  680MOL0     H89750   6.782   3.318   2.086 -1.1129  4.7951 -0.0777
  680MOL0     H89751   6.683   3.409   2.172  0.6611  0.4870  0.2976
  680MOL0     H89752   6.562   3.165   2.209  1.1511 -0.8540  0.2393
  680MOL0     H89753   6.520   3.259   2.059  0.4954  0.2874 -0.5985
  680MOL0     H89754   6.587   3.011   2.013  0.3002 -0.0694  1.7804
  680MOL0     H89755   6.759   3.055   2.044  0.3264  1.4032  0.7652
  680MOL0     H89756   6.581   3.144   1.833  0.1946  2.3051  1.0115
  680MOL0     H89757   6.729   3.252   1.882  2.8023 -0.4486  0.9270
  680MOL0     H89758   6.893   2.911   1.682  1.9484  0.4571  1.8427
  680MOL0     H89759   6.959   3.137   2.393  2.9239 -1.9322 -0.1962
  680MOL0     H89760   7.188   3.206   2.426  1.8482  0.9879 -2.1162
  681MOL0     O89761   7.097   6.038   5.884 -0.1279  0.0701 -0.2586
  681MOL0     C89762   7.196   5.983   5.930 -0.2342 -0.3324  0.6922
  681MOL0     O89763   7.224   5.853   5.934 -0.4146  0.5319 -0.2859
  681MOL0     C89764   7.148   5.752   5.871 -0.7229 -0.0699 -0.3673
  681MOL0     C89765   7.014   5.733   5.897 -0.5388 -0.1478 -0.1314
  681MOL0     C89766   6.944   5.620   5.848  0.0054 -0.8217 -0.2539
  681MOL0     C89767   7.017   5.535   5.760 -1.2748 -0.5616  0.0259
  681MOL0     O89768   6.969   5.419   5.704 -0.9680 -0.5767  0.1982
  681MOL0     C89769   6.859   5.431   5.613  0.4809  0.0316 -0.6662
  681MOL0     C89770   6.835   5.292   5.549  0.9976  0.4375  0.8478
  681MOL0     C89771   6.771   5.185   5.639  0.6995 -0.0250  0.1813
  681MOL0     C89772   6.633   5.213   5.700 -0.2871 -0.1056  0.7210
  681MOL0     C89773   6.575   5.091   5.769 -0.1002  0.4795 -0.6504
  681MOL0     C89774   6.433   5.094   5.841  0.2937  0.6989  0.4092
  681MOL0     C89775   6.427   5.163   5.976 -0.0941  0.8344 -0.9869
  681MOL0     C89776   6.332   5.287   5.978  0.4180  0.7113 -0.2881
  681MOL0     N89777   6.196   5.249   5.938  0.4728  0.4129 -0.4222
  681MOL0     C89778   6.098   5.170   5.994 -0.3058 -0.2665 -0.0357
  681MOL0     C89779   5.991   5.181   5.914 -0.6669  0.2047 -1.3946
  681MOL0     C89780   5.858   5.117   5.934 -0.1654  0.1919 -0.2382
  681MOL0     C89781   5.857   5.009   6.035 -0.3982 -0.4616  0.1048
  681MOL0     C89782   5.727   4.934   6.020 -0.0040  0.1063  0.5065
  681MOL0     C89783   5.600   5.005   6.078 -0.7654 -0.6980 -0.2172
  681MOL0     O89784   5.496   4.915   6.075  0.4503  0.5050 -0.1152
  681MOL0     C89785   5.388   4.926   6.161  0.4603  0.9733 -0.3872
  681MOL0     C89786   5.316   4.807   6.177  0.2029 -0.3028 -0.1878
  681MOL0     C89787   5.191   4.811   6.241  0.6217 -0.7235 -1.6351
  681MOL0     C89788   5.136   4.930   6.285 -0.2875  0.8358  0.3317
  681MOL0     C89789   5.008   4.921   6.352  0.8065 -0.6984 -1.2699
  681MOL0     O89790   4.953   5.044   6.384 -0.3080  0.2218 -0.1827
  681MOL0     C89791   4.826   5.036   6.441  0.2012  0.0085 -0.0072
  681MOL0     C89792   4.807   5.050   6.584  0.6357  0.2578  0.5557
  681MOL0     C89793   4.677   5.041   6.634 -0.4393  0.3155  0.0265
  681MOL0     C89794   4.567   5.017   6.549  0.7241 -0.8331 -0.8932
  681MOL0     O89795   4.429   5.020   6.584 -0.2120 -0.3759 -1.1059
  681MOL0     C89796   4.390   5.035   6.722  0.4233 -0.6336  1.1006
  681MOL0     C89797   4.402   4.902   6.801 -0.6033  0.9362  1.3974
  681MOL0     C89798   4.311   4.787   6.753 -0.4727 -0.0806 -1.1706
  681MOL0     C89799   4.310   4.669   6.853 -0.4369 -0.9503  0.0304
  681MOL0     C89800   4.172   4.585   6.843 -0.2292 -0.6359  1.0952
  681MOL0     C89801   4.183   4.515   6.718  1.0473 -0.6752  1.1489
  681MOL0     C89802   4.050   4.447   6.679  0.1968 -0.5698  1.1814
  681MOL0     C89803   4.019   4.455   6.535  0.0318  0.7468 -0.3577
  681MOL0    Cl89804   3.840   4.412   6.505 -0.0458 -0.0679  0.2456
  681MOL0     C89805   4.593   4.996   6.412 -0.1216 -0.2988 -0.0274
  681MOL0     C89806   4.721   5.007   6.354 -0.1047 -0.0234 -0.9895
  681MOL0     O89807   4.965   4.814   6.384  0.3614 -0.2771 -0.4476
  681MOL0     C89808   5.220   5.041   6.281  0.0794 -0.7420 -0.4410
  681MOL0     C89809   5.346   5.047   6.223  0.2620 -0.5875 -0.5468
  681MOL0     N89810   6.029   5.259   5.809  1.4347  0.6503  0.1443
  681MOL0     N89811   6.149   5.298   5.817 -0.1566 -0.4251 -0.1111
  681MOL0     C89812   7.150   5.549   5.735 -1.1185  0.3004  0.7580
  681MOL0     C89813   7.216   5.662   5.790  0.2457  0.3267 -0.7276
  681MOL0     C89814   7.297   6.071   5.989 -0.1672  0.7380  0.6186
  681MOL0     C89815   7.429   6.019   5.998  0.5560  0.2042 -0.7688
  681MOL0     C89816   7.533   6.099   6.053  0.8961  0.7021 -1.1106
  681MOL0     C89817   7.506   6.232   6.097 -0.6828  0.3836  0.5524
  681MOL0     O89818   7.618   6.311   6.119 -0.4217 -1.5911  0.0874
  681MOL0     C89819   7.643   6.336   6.265 -0.4285  0.4668  0.5115
  681MOL0     C89820   7.785   6.368   6.303 -0.6716  0.0936 -0.0086
  681MOL0     C89821   7.849   6.498   6.246  0.4493 -0.7005 -0.3242
  681MOL0     C89822   7.849   6.628   6.348 -0.3397 -0.2683  0.1486
  681MOL0     C89823   7.716   6.666   6.392  0.9215 -0.0088 -0.9604
  681MOL0     C89824   7.598   6.697   6.427 -0.9508  0.1757  0.0044
  681MOL0     C89825   7.378   6.282   6.080  0.9092 -0.7046 -0.1927
  681MOL0     C89826   7.272   6.205   6.034 -0.8097  0.6259  0.0289
  681MOL0     H89827   6.967   5.810   5.958 -0.1753  0.4103 -0.5477
  681MOL0     H89828   6.842   5.595   5.875 -0.7916  0.5097 -1.8601
  681MOL0     H89829   6.872   5.498   5.528  1.8362  2.1043  1.0938
  681MOL0     H89830   6.772   5.467   5.669  2.6420  0.1056  2.9191
  681MOL0     H89831   6.927   5.258   5.501  0.6020  1.0533 -0.3977
  681MOL0     H89832   6.764   5.312   5.467 -0.3703  1.2492  2.1852
  681MOL0     H89833   6.841   5.161   5.720 -1.8029 -0.0391  2.4790
  681MOL0     H89834   6.764   5.092   5.582 -0.8196 -0.0302  0.3475
  681MOL0     H89835   6.619   5.306   5.755  1.7579  0.9519 -0.4161
  681MOL0     H89836   6.565   5.219   5.615  2.7968  1.7397 -1.8539
  681MOL0     H89837   6.654   5.058   5.838 -0.2398 -0.0169 -0.7242
  681MOL0     H89838   6.575   5.008   5.698  0.4212 -0.2182  0.1403
  681MOL0     H89839   6.396   4.992   5.858 -0.4975  1.2259  2.1802
  681MOL0     H89840   6.364   5.132   5.765  1.2623 -1.1262 -1.4726
  681MOL0     H89841   6.396   5.089   6.051  1.3187 -1.7909 -2.8172
  681MOL0     H89842   6.522   5.211   6.000 -0.1781  0.6683 -0.3113
  681MOL0     H89843   6.369   5.365   5.912  2.3998  0.8559  0.9224
  681MOL0     H89844   6.325   5.322   6.082 -1.2699  1.2097 -0.5271
  681MOL0     H89845   6.110   5.114   6.086  1.3833  0.6944  0.3785
  681MOL0     H89846   5.824   5.068   5.843  1.5375 -0.8704 -0.3415
  681MOL0     H89847   5.789   5.198   5.958  0.1215  1.4671 -3.3576
  681MOL0     H89848   5.863   5.046   6.138 -0.3244 -0.2388  0.0201
  681MOL0     H89849   5.933   4.935   6.009 -1.3993 -1.0708 -1.2703
  681MOL0     H89850   5.710   4.897   5.918  0.0794 -4.9894  2.0558
  681MOL0     H89851   5.741   4.842   6.077 -4.9253 -1.5027 -0.3430
  681MOL0     H89852   5.583   5.093   6.015 -0.7007 -1.5164 -1.4198
  681MOL0     H89853   5.623   5.033   6.181  0.1173 -1.7722 -0.1025
  681MOL0     H89854   5.367   4.715   6.149  1.9075 -0.8559  3.9469
  681MOL0     H89855   5.137   4.719   6.261 -2.0320  1.4559  2.6991
  681MOL0     H89856   4.894   5.066   6.646  1.7672  2.4565 -1.4547
  681MOL0     H89857   4.657   5.047   6.741 -0.3074  1.6683 -0.0066
  681MOL0     H89858   4.288   5.074   6.712  0.5370 -0.4593  0.5598
  681MOL0     H89859   4.436   5.115   6.781  0.0069  0.2612  0.2377
  681MOL0     H89860   4.379   4.911   6.908 -3.2164  0.1771  0.9668
  681MOL0     H89861   4.504   4.868   6.781 -1.5982  0.4307 -4.3670
  681MOL0     H89862   4.342   4.746   6.657  1.9959  2.0781 -1.4179
  681MOL0     H89863   4.209   4.825   6.741 -0.3320  0.4334 -0.8079
  681MOL0     H89864   4.392   4.600   6.828  0.0720 -1.4912  2.8646
  681MOL0     H89865   4.326   4.695   6.958  1.5316 -2.2186  0.1128
  681MOL0     H89866   4.084   4.648   6.822  2.7554  3.1870 -1.3413
  681MOL0     H89867   4.160   4.520   6.930  2.5479  1.1865  3.0207
  681MOL0     H89868   4.252   4.430   6.726 -1.1750 -2.5309  1.6249
  681MOL0     H89869   4.220   4.583   6.641  1.0141  1.7885  3.1821
  681MOL0     H89870   4.073   4.342   6.700 -1.1554 -1.1917 -0.2089
  681MOL0     H89871   3.968   4.485   6.741  0.8263 -0.5360  1.9948
  681MOL0     H89872   4.076   4.391   6.467  0.6735  1.8712 -0.9020
  681MOL0     H89873   4.024   4.560   6.505 -6.7751  1.8945  0.7825
  681MOL0     H89874   4.511   4.991   6.341  2.7344  1.5463 -3.8245
  681MOL0     H89875   4.748   4.992   6.250  2.9962  2.1225 -0.6365
  681MOL0     H89876   5.177   5.133   6.318 -0.4978 -1.0375 -0.3622
  681MOL0     H89877   5.393   5.143   6.204  1.2711 -1.2155 -1.3480
  681MOL0     H89878   7.204   5.471   5.683 -0.7459  0.2644  1.1963
  681MOL0     H89879   7.321   5.679   5.766  0.5363 -0.2934  0.0826
  681MOL0     H89880   7.462   5.934   5.940  2.9895 -0.3595  1.2136
  681MOL0     H89881   7.632   6.055   6.049  0.9519  0.6928  0.1260
  681MOL0     H89882   7.610   6.247   6.319 -0.1576  1.0553  1.6824
  681MOL0     H89883   7.577   6.422   6.284  0.1720  1.6340 -2.2324
  681MOL0     H89884   7.789   6.370   6.413  1.2503 -1.2012 -0.0055
  681MOL0     H89885   7.831   6.280   6.258 -0.6202  0.9265 -1.6433
  681MOL0     H89886   7.801   6.527   6.152 -0.8427  1.9173  1.0357
  681MOL0     H89887   7.953   6.469   6.233  0.6588  0.3038 -0.9321
  681MOL0     H89888   7.916   6.597   6.428 -1.7309 -2.0370  0.6905
  681MOL0     H89889   7.893   6.711   6.292 -0.4171 -0.8634 -0.8160
  681MOL0     H89890   7.500   6.717   6.467  0.6729  1.3984  3.8768
  681MOL0     H89891   7.369   6.390   6.079  0.8048 -0.6863  1.0756
  681MOL0     H89892   7.172   6.247   6.036 -0.0844  2.4339  0.8181
  682MOL0     O89893   6.126   8.649   9.216 -0.3893 -0.3867 -0.5282
  682MOL0     C89894   6.114   8.688   9.103  0.2337  0.2809 -0.0980
  682MOL0     O89895   6.006   8.677   9.022  0.4369  0.1638 -0.4977
  682MOL0     C89896   5.877   8.637   9.043  0.9640 -0.1657 -0.9074
  682MOL0     C89897   5.813   8.613   9.175 -0.5796  0.4227  0.4103
  682MOL0     C89898   5.701   8.532   9.196  0.2264 -0.2905  0.8963
  682MOL0     C89899   5.650   8.477   9.078 -0.0986 -0.2234 -0.0088
  682MOL0     O89900   5.548   8.385   9.095 -0.2501  0.9962 -0.6731
  682MOL0     C89901   5.419   8.440   9.067 -1.1277 -0.4415 -0.3883
  682MOL0     C89902   5.311   8.328   9.040 -0.7055 -0.0524 -0.2741
  682MOL0     C89903   5.330   8.287   8.891  1.1280  0.6719  0.3358
  682MOL0     C89904   5.232   8.185   8.840  0.8318  0.2694 -0.2199
  682MOL0     C89905   5.267   8.161   8.690  1.0657  0.1022 -0.5170
  682MOL0     C89906   5.172   8.062   8.629  0.1258  0.3946 -0.5287
  682MOL0     C89907   5.194   8.044   8.474  0.6732 -0.6711  0.6273
  682MOL0     C89908   5.111   8.138   8.382  0.5223 -0.1823  0.9628
  682MOL0     N89909   5.184   8.135   8.251  0.6816 -0.4629 -0.0488
  682MOL0     C89910   5.278   8.231   8.207 -0.6421 -0.2428  0.1555
  682MOL0     C89911   5.347   8.178   8.101 -0.6631  1.0022  0.2666
  682MOL0     C89912   5.430   8.263   8.014  0.2747  0.4091  1.0035
  682MOL0     C89913   5.413   8.257   7.859 -0.4843  0.2200 -0.3408
  682MOL0     C89914   5.542   8.265   7.782  0.2827  0.4656 -0.4751
  682MOL0     C89915   5.513   8.291   7.631 -0.3425  0.1468 -0.2317
  682MOL0     O89916   5.574   8.422   7.599  0.8041 -0.4161  0.1081
  682MOL0     C89917   5.625   8.448   7.474  0.1467  0.1395  0.6714
  682MOL0     C89918   5.738   8.381   7.431 -0.3308  0.5233  0.0755
  682MOL0     C89919   5.803   8.400   7.311 -0.9792 -0.4700  0.4503
  682MOL0     C89920   5.733   8.488   7.216 -0.3886  0.2783  0.4030
  682MOL0     C89921   5.800   8.514   7.087 -0.4297 -0.4345 -0.6356
  682MOL0     O89922   5.762   8.618   7.016  0.3298  0.4609  0.0369
  682MOL0     C89923   5.820   8.647   6.891  0.5341  1.3463 -0.0145
  682MOL0     C89924   5.733   8.647   6.782 -0.4267 -0.2861  0.7518
  682MOL0     C89925   5.776   8.685   6.661 -0.5342  0.8478 -0.2915
  682MOL0     C89926   5.901   8.745   6.644  0.3743  0.5874  0.0311
  682MOL0     O89927   5.947   8.816   6.531  1.1559  0.4642  0.2972
  682MOL0     C89928   5.864   8.856   6.418  0.5250  0.5306 -0.5662
  682MOL0     C89929   5.883   8.768   6.288 -0.1659  0.3372  1.1021
  682MOL0     C89930   5.827   8.629   6.317  0.7759 -0.6859  0.2443
  682MOL0     C89931   5.871   8.526   6.223 -1.7179  0.1993 -0.6941
  682MOL0     C89932   5.786   8.406   6.177 -0.0646  0.4313 -0.0813
  682MOL0     C89933   5.878   8.306   6.104 -0.0619  1.0733 -0.6910
  682MOL0     C89934   5.808   8.177   6.038  0.2955  0.8013 -0.1952
  682MOL0     C89935   5.869   8.111   5.916 -0.9929 -0.4559  0.8873
  682MOL0    Cl89936   5.921   8.245   5.792 -0.0788 -0.2938  0.1125
  682MOL0     C89937   5.991   8.736   6.752  0.6302 -0.0661  0.6581
  682MOL0     C89938   5.951   8.684   6.877 -0.6307 -0.0742  1.1164
  682MOL0     O89939   5.886   8.431   7.050 -0.1585  0.5514  0.3208
  682MOL0     C89940   5.613   8.553   7.258 -0.5029 -0.6726 -0.7289
  682MOL0     C89941   5.554   8.524   7.378 -0.5423 -0.5683  0.3619
  682MOL0     N89942   5.291   8.053   8.088  0.3785 -0.3676  0.5268
  682MOL0     N89943   5.200   8.025   8.176 -0.5686 -0.8476  0.1246
  682MOL0     C89944   5.708   8.491   8.943  0.4697  0.4045 -0.3043
  682MOL0     C89945   5.819   8.568   8.932 -0.3450 -1.2342 -0.8736
  682MOL0     C89946   6.236   8.735   9.036  0.8673  0.1011 -0.2426
  682MOL0     C89947   6.246   8.726   8.894  0.6490  0.1794  0.6048
  682MOL0     C89948   6.367   8.748   8.840 -0.0146 -0.5677 -0.7829
  682MOL0     C89949   6.476   8.767   8.919 -0.0703  0.7734  1.1024
  682MOL0     O89950   6.597   8.774   8.853  0.4323 -0.9938  1.2091
  682MOL0     C89951   6.715   8.790   8.924 -0.4231  0.1871 -0.3819
  682MOL0     C89952   6.841   8.756   8.840  0.2771 -0.1280 -0.3119
  682MOL0     C89953   6.842   8.617   8.778  0.8159 -0.3038  0.2590
  682MOL0     C89954   6.832   8.511   8.893 -0.1236 -0.3304  0.6120
  682MOL0     C89955   6.892   8.388   8.831  0.0194 -1.4329 -0.4345
  682MOL0     C89956   6.942   8.288   8.791 -0.4995  0.1172  0.2517
  682MOL0     C89957   6.467   8.790   9.056  1.1714 -0.0838  0.6797
  682MOL0     C89958   6.343   8.775   9.116 -0.4326  0.4135  0.4120
  682MOL0     H89959   5.868   8.637   9.265 -1.5647  0.5465  0.9977
  682MOL0     H89960   5.662   8.500   9.292 -1.0617  2.3590  1.3410
  682MOL0     H89961   5.435   8.495   8.974  1.4836 -0.3754  0.0304
  682MOL0     H89962   5.394   8.506   9.150 -0.5565 -1.1414  0.3528
  682MOL0     H89963   5.215   8.378   9.045 -0.5629  0.5102 -2.1766
  682MOL0     H89964   5.336   8.243   9.105  1.4070  0.4431 -0.3390
  682MOL0     H89965   5.430   8.248   8.872  2.4645  2.7884  2.4311
  682MOL0     H89966   5.323   8.382   8.837 -1.0262  0.4156  0.0728
  682MOL0     H89967   5.245   8.090   8.892 -0.5131  1.7664  3.1729
  682MOL0     H89968   5.124   8.200   8.856  0.0282 -3.0928 -1.6525
  682MOL0     H89969   5.372   8.131   8.688  2.4736  4.3680 -1.4279
  682MOL0     H89970   5.267   8.258   8.639  0.8244 -1.7931 -4.5584
  682MOL0     H89971   5.063   8.071   8.641 -0.4637 -3.3303 -1.8138
  682MOL0     H89972   5.189   7.968   8.682 -0.7127  0.2841 -0.4292
  682MOL0     H89973   5.300   8.057   8.451  0.3495  2.4681  0.5041
  682MOL0     H89974   5.146   7.954   8.434 -0.6557  0.9872 -1.8327
  682MOL0     H89975   5.107   8.237   8.428 -0.7591 -0.8305  2.3454
  682MOL0     H89976   5.007   8.105   8.372  0.3236  0.2958  1.4180
  682MOL0     H89977   5.303   8.324   8.257  0.5913 -0.8746  0.7654
  682MOL0     H89978   5.535   8.240   8.037  0.0776  0.5019  2.0482
  682MOL0     H89979   5.401   8.365   8.038  0.3125  0.4435  0.9081
  682MOL0     H89980   5.351   8.340   7.823  1.2920  0.9218 -1.9768
  682MOL0     H89981   5.358   8.165   7.835  2.4198 -1.8987  0.5253
  682MOL0     H89982   5.609   8.346   7.812  0.8429  1.6969 -4.5235
  682MOL0     H89983   5.579   8.165   7.805  0.3763  0.5405 -0.3038
  682MOL0     H89984   5.405   8.298   7.616 -0.6641 -1.4988  1.0285
  682MOL0     H89985   5.559   8.215   7.568 -0.1575 -0.0924  0.1924
  682MOL0     H89986   5.759   8.294   7.492  0.4279 -0.5734 -1.6982
  682MOL0     H89987   5.900   8.359   7.286 -0.9641 -0.5009  0.5572
  682MOL0     H89988   5.628   8.624   6.795 -1.1936  0.8494 -2.5011
  682MOL0     H89989   5.706   8.686   6.578 -0.0202 -2.3904 -0.8850
  682MOL0     H89990   5.891   8.957   6.385  1.0286  1.1607  1.6034
  682MOL0     H89991   5.764   8.850   6.463  1.6497 -1.8041  1.9306
  682MOL0     H89992   5.991   8.765   6.269 -0.4989 -2.3815 -1.1006
  682MOL0     H89993   5.834   8.803   6.197 -0.1647  0.0136  0.9769
  682MOL0     H89994   5.718   8.636   6.319  0.8727  1.5400  2.2918
  682MOL0     H89995   5.852   8.602   6.420  1.9385 -0.4827  0.0345
  682MOL0     H89996   5.898   8.568   6.125  2.5794  1.0107  0.5946
  682MOL0     H89997   5.964   8.480   6.258 -1.9520 -0.3306 -0.7740
  682MOL0     H89998   5.717   8.449   6.104 -0.0645  0.5086 -0.0353
  682MOL0     H89999   5.731   8.362   6.261 -0.5028 -1.7583 -1.4329
  682MOL0     H90000   5.956   8.271   6.172 -1.8233  0.1363  0.9511
  682MOL0     H90001   5.932   8.364   6.029  0.2260  1.0287 -0.5210
  682MOL0     H90002   5.772   8.099   6.105  1.4511  0.5614  0.1575
  682MOL0     H90003   5.713   8.219   6.002  2.5201  3.8997 -3.0291
  682MOL0     H90004   5.804   8.048   5.855 -0.2631  0.6164 -1.0821
  682MOL0     H90005   5.954   8.052   5.951  0.8118  1.0596 -0.7146
  682MOL0     H90006   6.096   8.762   6.739  0.4234  1.0813  1.1714
  682MOL0     H90007   6.015   8.680   6.964  0.9361 -0.5958 -0.0121
  682MOL0     H90008   5.556   8.614   7.188 -5.3652 -1.7858  1.8461
  682MOL0     H90009   5.463   8.567   7.419  1.4177  2.0693  2.2819
  682MOL0     H90010   5.672   8.436   8.857 -4.6967  1.6594  0.7032
  682MOL0     H90011   5.852   8.583   8.830  0.2879 -3.8441 -1.1196
  682MOL0     H90012   6.160   8.699   8.833  1.5288 -1.5369  0.0613
  682MOL0     H90013   6.398   8.757   8.737  4.7152  4.5728  0.5915
  682MOL0     H90014   6.706   8.711   8.999  0.3950 -0.5303 -1.0229
  682MOL0     H90015   6.724   8.889   8.971  0.6280  0.6923 -1.5884
  682MOL0     H90016   6.843   8.837   8.766  1.5062  0.4937  0.3766
  682MOL0     H90017   6.936   8.758   8.894  1.3222 -3.8350 -1.7020
  682MOL0     H90018   6.932   8.608   8.715 -0.3919 -1.8468 -1.3664
  682MOL0     H90019   6.764   8.605   8.702  1.8400  3.0123 -1.4912
  682MOL0     H90020   6.880   8.542   8.987 -1.1285 -1.0025  1.3720
  682MOL0     H90021   6.725   8.504   8.914 -0.0095  0.7633  1.6515
  682MOL0     H90022   6.963   8.188   8.759 -0.9487 -0.5062  1.7985
  682MOL0     H90023   6.546   8.816   9.126  1.3154  0.0323  0.4748
  682MOL0     H90024   6.332   8.780   9.224 -1.0934  0.3470  0.3503
  683MOL0     O90025   7.440   4.787   9.881 -0.3750  0.7328  0.0026
  683MOL0     C90026   7.494   4.836   9.786  0.8161  0.4804  0.7916
  683MOL0     O90027   7.468   4.796   9.654 -0.5253 -0.1429 -0.2973
  683MOL0     C90028   7.423   4.672   9.629  0.6404 -0.0426  0.3692
  683MOL0     C90029   7.365   4.656   9.496 -0.2422  0.7404  0.5464
  683MOL0     C90030   7.310   4.533   9.458 -0.0918  0.0954 -0.0015
  683MOL0     C90031   7.311   4.421   9.542 -0.1879 -0.0923 -0.3175
  683MOL0     O90032   7.253   4.306   9.484  0.2136 -0.1999  0.6516
  683MOL0     C90033   7.163   4.227   9.554  0.2399  0.7860  0.3238
  683MOL0     C90034   7.095   4.139   9.447  0.5370  0.6191  0.0403
  683MOL0     C90035   6.997   4.028   9.492  0.4290 -0.4131 -0.0485
  683MOL0     C90036   7.043   3.935   9.597  0.5006  0.0716  0.8683
  683MOL0     C90037   6.920   3.890   9.678 -0.1493  0.3515 -0.4725
  683MOL0     C90038   6.805   3.828   9.605  0.0937  0.2172  0.5465
  683MOL0     C90039   6.849   3.697   9.533 -0.4471 -0.1155  0.6953
  683MOL0     C90040   6.736   3.622   9.461 -0.0524  0.3311  0.2116
  683MOL0     N90041   6.808   3.526   9.370  0.0633 -0.0427 -0.4115
  683MOL0     C90042   6.768   3.500   9.238 -0.5164  0.0413 -0.2093
  683MOL0     C90043   6.850   3.389   9.208  0.1233 -0.6616  0.9868
  683MOL0     C90044   6.865   3.336   9.073  0.0530 -0.8467 -0.2546
  683MOL0     C90045   6.989   3.232   9.053 -0.5470  0.5365  0.4215
  683MOL0     C90046   6.969   3.093   9.116 -0.4235  0.4624  0.1314
  683MOL0     C90047   6.871   2.989   9.042  0.0104 -0.9774 -0.0417
  683MOL0     O90048   6.832   3.044   8.913  0.7399  1.0035 -0.2840
  683MOL0     C90049   6.907   3.013   8.801  0.3078 -0.1420  0.3301
  683MOL0     C90050   6.882   3.075   8.676 -0.5029  0.1774 -0.5740
  683MOL0     C90051   6.946   3.043   8.554  0.1584  0.5646 -0.1642
  683MOL0     C90052   7.040   2.937   8.555 -0.3857 -0.3916  0.4585
  683MOL0     C90053   7.090   2.898   8.425 -0.4242  0.5443  0.6144
  683MOL0     O90054   7.159   2.791   8.436  0.5435  1.0393  0.1162
  683MOL0     C90055   7.230   2.722   8.341 -0.0597  0.2882  0.8225
  683MOL0     C90056   7.296   2.612   8.394 -0.1783 -0.1944 -0.5088
  683MOL0     C90057   7.366   2.520   8.312 -0.4230  0.0773  0.1965
  683MOL0     C90058   7.377   2.543   8.169 -1.2236 -1.1111 -0.5175
  683MOL0     O90059   7.440   2.448   8.088  0.2031  0.3414 -0.0760
  683MOL0     C90060   7.515   2.498   7.974  0.4633  0.1442  0.0956
  683MOL0     C90061   7.653   2.431   7.943  0.5296 -0.2046  0.3595
  683MOL0     C90062   7.649   2.274   7.915  0.5324 -0.1236 -1.2246
  683MOL0     C90063   7.620   2.191   8.029 -0.0872  0.4846 -0.8597
  683MOL0     C90064   7.649   2.037   8.008 -0.6846 -0.0168  0.2609
  683MOL0     C90065   7.573   1.954   8.106  0.0423  1.1361 -0.1993
  683MOL0     C90066   7.651   1.945   8.240 -0.9097  0.1000 -0.4615
  683MOL0     C90067   7.646   1.814   8.318 -0.3776  0.0527 -0.0701
  683MOL0    Cl90068   7.726   1.686   8.226  0.1764 -0.2213 -0.1599
  683MOL0     C90069   7.318   2.658   8.121 -0.4380 -0.9157  0.0996
  683MOL0     C90070   7.242   2.751   8.199 -0.3318  0.4776  0.6399
  683MOL0     O90071   7.069   2.965   8.322 -0.3988 -1.0765  0.4330
  683MOL0     C90072   7.070   2.865   8.675  0.1366 -0.4743  0.0701
  683MOL0     C90073   7.007   2.908   8.797 -0.8477 -0.7400 -0.1564
  683MOL0     N90074   6.924   3.354   9.322 -0.1473  0.2449  0.4038
  683MOL0     N90075   6.894   3.424   9.418  0.1278 -0.6215 -0.6195
  683MOL0     C90076   7.365   4.426   9.674  0.3925 -0.1465  0.0513
  683MOL0     C90077   7.423   4.559   9.713  0.4066  0.2596 -0.1052
  683MOL0     C90078   7.589   4.952   9.801 -0.6394 -0.0612 -1.0346
  683MOL0     C90079   7.625   5.028   9.688 -0.5275 -0.5188 -0.7676
  683MOL0     C90080   7.726   5.128   9.701  0.4871 -0.1613 -0.0738
  683MOL0     C90081   7.784   5.159   9.827 -0.3696 -0.2485  0.1381
  683MOL0     O90082   7.876   5.254   9.855  0.5839  0.1222  0.5194
  683MOL0     C90083   7.966   5.286   9.749  0.1884 -0.1842  0.4086
  683MOL0     C90084   8.109   5.313   9.804  0.2084  0.8657  0.7404
  683MOL0     C90085   8.137   5.454   9.863 -0.1893  0.4234 -0.6108
  683MOL0     C90086   8.134   5.554   9.749 -0.6947 -0.0085  0.8753
  683MOL0     C90087   8.173   5.685   9.796  0.2413  0.4308 -0.2164
  683MOL0     C90088   8.221   5.785   9.844 -0.1184  0.0182  0.3614
  683MOL0     C90089   7.723   5.090   9.940 -0.2026 -0.7784  0.3948
  683MOL0     C90090   7.635   4.980   9.924 -0.6829  0.1843  0.6130
  683MOL0     H90091   7.362   4.746   9.436  1.7091  0.2362 -0.3861
  683MOL0     H90092   7.250   4.521   9.369 -0.2213 -0.3797  0.1468
  683MOL0     H90093   7.086   4.297   9.586 -0.7756 -1.0708  2.1940
  683MOL0     H90094   7.208   4.172   9.637 -1.1153  0.9471  1.1964
  683MOL0     H90095   7.174   4.084   9.394 -2.3935 -3.1251 -0.8670
  683MOL0     H90096   7.032   4.209   9.391 -3.3025 -0.6616  2.3837
  683MOL0     H90097   6.976   3.964   9.405  0.6241 -0.4857 -0.0412
  683MOL0     H90098   6.910   4.081   9.531  0.9126  0.1166  0.3272
  683MOL0     H90099   7.081   3.845   9.547 -1.0760 -1.3505  2.0763
  683MOL0     H90100   7.104   3.976   9.678 -1.4341 -1.2456  3.1437
  683MOL0     H90101   6.874   3.979   9.719 -2.1081 -0.0917 -1.5772
  683MOL0     H90102   6.955   3.825   9.759 -1.8194 -0.7682 -0.5883
  683MOL0     H90103   6.770   3.899   9.530 -0.8184 -0.0881  0.6737
  683MOL0     H90104   6.714   3.824   9.666 -1.1526  3.3446 -0.9390
  683MOL0     H90105   6.927   3.704   9.457  0.8893 -3.6783  1.5472
  683MOL0     H90106   6.890   3.631   9.610 -1.5970 -0.7327  0.8131
  683MOL0     H90107   6.690   3.696   9.395  3.0968  1.0002 -1.4373
  683MOL0     H90108   6.662   3.572   9.523  0.5339  0.8216  1.3299
  683MOL0     H90109   6.706   3.554   9.166  1.6397 -0.7553 -2.8634
  683MOL0     H90110   6.885   3.417   9.002 -2.5309 -1.0555 -1.3408
  683MOL0     H90111   6.765   3.310   9.036 -0.3728 -2.8016  2.0092
  683MOL0     H90112   7.075   3.281   9.099 -1.7258  3.0391  0.1407
  683MOL0     H90113   7.021   3.222   8.949  2.1884 -0.2263  1.2587
  683MOL0     H90114   7.069   3.051   9.125  0.2194  0.8518 -3.6556
  683MOL0     H90115   6.946   3.098   9.223  1.4181 -1.8937  0.7238
  683MOL0     H90116   6.793   2.994   9.119 -0.3497 -1.6293 -0.3516
  683MOL0     H90117   6.921   2.892   9.043 -0.0023 -0.9956 -0.6530
  683MOL0     H90118   6.802   3.147   8.667 -0.4525  0.6533  2.1370
  683MOL0     H90119   6.923   3.108   8.470 -1.2011  2.7406  1.7757
  683MOL0     H90120   7.282   2.608   8.502 -0.1708  3.8126 -0.1971
  683MOL0     H90121   7.421   2.432   8.343  1.2304  0.7235 -0.7489
  683MOL0     H90122   7.535   2.606   7.979  1.2387 -0.0005  0.2545
  683MOL0     H90123   7.448   2.489   7.888 -1.3911  3.2403  1.0238
  683MOL0     H90124   7.728   2.450   8.022  1.5787  2.6102 -1.1444
  683MOL0     H90125   7.692   2.470   7.848 -0.1575 -3.7807 -1.5300
  683MOL0     H90126   7.746   2.239   7.878 -0.0187 -2.1026 -0.9206
  683MOL0     H90127   7.588   2.251   7.827  1.7132  0.5724 -2.2664
  683MOL0     H90128   7.678   2.217   8.118 -0.4304 -2.8501  0.4671
  683MOL0     H90129   7.518   2.195   8.071  0.8616  0.1276  1.6784
  683MOL0     H90130   7.758   2.032   8.004 -0.6498  0.9887 -2.3280
  683MOL0     H90131   7.608   2.011   7.910 -0.2247  2.7801 -0.7721
  683MOL0     H90132   7.569   1.855   8.060 -0.1584  1.5020 -0.9727
  683MOL0     H90133   7.469   1.975   8.133 -0.4510 -2.4096  1.2968
  683MOL0     H90134   7.756   1.970   8.220 -0.7199 -0.7826 -0.6102
  683MOL0     H90135   7.606   2.019   8.307 -2.4103 -0.7785 -0.4730
  683MOL0     H90136   7.540   1.798   8.335 -0.3328 -1.2280 -0.8160
  683MOL0     H90137   7.698   1.830   8.413  1.4352  4.0379 -1.5055
  683MOL0     H90138   7.320   2.691   8.018  0.5239  0.5744  0.5673
  683MOL0     H90139   7.197   2.832   8.143 -1.9031 -2.0994 -2.0940
  683MOL0     H90140   7.145   2.787   8.666  0.4132 -0.0778 -1.4962
  683MOL0     H90141   7.047   2.873   8.892  2.7088  0.8838 -0.8718
  683MOL0     H90142   7.374   4.344   9.744  6.3865  1.4870  1.8421
  683MOL0     H90143   7.449   4.560   9.819 -2.0992  2.3085  0.6037
  683MOL0     H90144   7.573   5.018   9.594  0.6591 -1.5317 -1.3422
  683MOL0     H90145   7.761   5.187   9.617 -0.7322 -1.4641 -1.5709
  683MOL0     H90146   7.927   5.370   9.690  1.5528 -1.3700 -2.3684
  683MOL0     H90147   7.967   5.204   9.677 -2.0720  1.4196 -1.6480
  683MOL0     H90148   8.114   5.249   9.893  1.2884 -0.1782 -0.0376
  683MOL0     H90149   8.196   5.290   9.741  1.0399  1.4403  1.6503
  683MOL0     H90150   8.235   5.470   9.910 -1.6148  0.2471  2.6276
  683MOL0     H90151   8.063   5.482   9.938 -0.9044 -0.4578 -0.9799
  683MOL0     H90152   8.211   5.537   9.672 -0.4938  0.0839  1.0537
  683MOL0     H90153   8.038   5.566   9.698 -1.2468  0.5961  2.0122
  683MOL0     H90154   8.252   5.885   9.866  0.2739  0.5307 -2.1852
  683MOL0     H90155   7.750   5.122  10.040 -1.9670 -0.4636  0.8042
  683MOL0     H90156   7.600   4.920  10.008 -0.2745 -0.1267  0.5628
  684MOL0     O90157   9.065  10.460   2.073  0.5020 -0.1451  0.0872
  684MOL0     C90158   9.092  10.577   2.109 -0.8789  0.1466  0.0455
  684MOL0     O90159   9.144  10.679   2.028  0.9333 -0.5828 -0.1433
  684MOL0     C90160   9.156  10.665   1.890 -0.5206  0.2330  0.0705
  684MOL0     C90161   9.119  10.565   1.801  0.8020 -0.2207  0.0767
  684MOL0     C90162   9.133  10.585   1.663  0.8887  0.9429  1.1189
  684MOL0     C90163   9.194  10.690   1.600 -0.0629 -0.4589 -0.3477
  684MOL0     O90164   9.204  10.692   1.468  0.1892 -0.7856  0.0443
  684MOL0     C90165   9.212  10.816   1.405  0.0574  0.1634 -0.7533
  684MOL0     C90166   9.208  10.815   1.250  0.4040  1.2032  0.6000
  684MOL0     C90167   9.321  10.734   1.173  0.9901 -0.7981 -0.3477
  684MOL0     C90168   9.263  10.684   1.032  0.5439 -0.1035 -0.1141
  684MOL0     C90169   9.373  10.592   0.972  0.2502  0.0953 -0.3975
  684MOL0     C90170   9.314  10.534   0.850  0.4721  0.0791  0.1125
  684MOL0     C90171   9.420  10.450   0.784 -0.3051 -1.2691 -0.3729
  684MOL0     C90172   9.368  10.406   0.643  0.0103 -0.5106  0.0601
  684MOL0     N90173   9.476  10.335   0.577 -0.3264  0.3801  0.5939
  684MOL0     C90174   9.549  10.227   0.619 -0.1510  0.1706  0.5206
  684MOL0     C90175   9.645  10.201   0.530 -0.0476  0.9459  0.1369
  684MOL0     C90176   9.765  10.101   0.529 -0.7152  0.2392  0.7865
  684MOL0     C90177   9.818  10.083   0.389 -0.0141 -0.5326  0.4792
  684MOL0     C90178   9.929  10.182   0.341 -0.9487 -0.0767  0.3797
  684MOL0     C90179   9.994  10.125   0.205 -0.8106 -0.7050  0.0011
  684MOL0     O90180  10.014   9.992   0.231  0.8588  0.7633  0.1965
  684MOL0     C90181  10.111   9.934   0.307 -0.6353 -0.1668 -0.8543
  684MOL0     C90182  10.097   9.799   0.352 -0.1346 -0.7792  0.6039
  684MOL0     C90183  10.190   9.726   0.430  0.0210 -0.7467  0.4697
  684MOL0     C90184  10.317   9.780   0.451  0.1418  0.6669 -0.1290
  684MOL0     C90185  10.418   9.710   0.539 -0.0831  0.3608 -0.7352
  684MOL0     O90186  10.528   9.790   0.592 -0.2630 -0.0610  0.2896
  684MOL0     C90187  10.614   9.721   0.673  0.3331  0.0499  0.7604
  684MOL0     C90188  10.588   9.718   0.815  1.1612 -0.1510  0.7592
  684MOL0     C90189  10.679   9.656   0.897 -0.1662 -0.0122  0.8250
  684MOL0     C90190  10.793   9.588   0.854  0.5970  0.4402 -0.4063
  684MOL0     O90191  10.870   9.529   0.956 -0.3272 -0.2245  0.9883
  684MOL0     C90192  10.918   9.398   0.930  0.4653  1.3587 -1.1913
  684MOL0     C90193  10.949   9.324   1.070  1.1989 -0.3877  0.3619
  684MOL0     C90194  10.966   9.181   1.034  0.5428 -1.1765  0.4680
  684MOL0     C90195  11.057   9.110   1.126 -0.2221  0.3960 -0.5103
  684MOL0     C90196  10.999   9.091   1.276  0.1256  0.0766  0.5437
  684MOL0     C90197  10.869   9.014   1.272 -0.6231 -0.6457 -0.7169
  684MOL0     C90198  10.834   8.957   1.414  0.7516 -0.1644 -0.6185
  684MOL0     C90199  10.681   8.966   1.447  0.1779 -0.5190 -0.4493
  684MOL0    Cl90200  10.626   9.135   1.442  0.4905  0.2544 -0.1009
  684MOL0     C90201  10.820   9.602   0.718  0.1346  0.0039 -0.0320
  684MOL0     C90202  10.737   9.663   0.629  0.4363 -1.4329  0.0317
  684MOL0     O90203  10.409   9.588   0.572  0.1544  0.0703  0.9322
  684MOL0     C90204  10.337   9.910   0.399  0.4378  0.1643 -0.0551
  684MOL0     C90205  10.241   9.981   0.325  0.1612 -0.4949  0.2736
  684MOL0     N90206   9.628  10.293   0.425  0.1595  0.2422  0.4559
  684MOL0     N90207   9.529  10.366   0.457 -0.3183 -0.1122  0.0699
  684MOL0     C90208   9.237  10.794   1.691  0.2491 -0.0194 -0.1727
  684MOL0     C90209   9.217  10.780   1.835 -0.9705 -0.4661 -0.8699
  684MOL0     C90210   9.041  10.632   2.237 -0.0529  0.2529 -0.1875
  684MOL0     C90211   8.948  10.553   2.312  0.2921  0.3360  0.4179
  684MOL0     C90212   8.874  10.595   2.417  0.0600 -0.4724 -0.2105
  684MOL0     C90213   8.906  10.713   2.469  1.0844 -0.4965 -0.7507
  684MOL0     O90214   8.828  10.752   2.582  0.0313  0.2598  0.9708
  684MOL0     C90215   8.855  10.871   2.651 -0.5916  0.1188  0.0691
  684MOL0     C90216   8.760  10.875   2.768 -0.3854 -0.8249 -0.7711
  684MOL0     C90217   8.776  11.010   2.850 -0.0874 -0.3178  0.6472
  684MOL0     C90218   8.652  11.046   2.932  0.0009 -0.0190 -0.1993
  684MOL0     C90219   8.513  11.060   2.871 -0.7569 -0.5944 -0.3398
  684MOL0     C90220   8.396  11.081   2.834  0.3283 -0.3956 -0.6985
  684MOL0     C90221   9.019  10.787   2.424  0.1211 -0.3231 -0.1892
  684MOL0     C90222   9.085  10.749   2.308 -0.7556  0.2030  0.7520
  684MOL0     H90223   9.069  10.475   1.836  1.2075 -0.5277 -0.1279
  684MOL0     H90224   9.092  10.515   1.592  0.5424 -0.6451  2.8106
  684MOL0     H90225   9.300  10.877   1.432 -0.7382  2.7725 -3.4373
  684MOL0     H90226   9.125  10.870   1.442 -0.5487 -0.6556 -0.9701
  684MOL0     H90227   9.195  10.917   1.212 -1.7463 -0.4454 -3.7408
  684MOL0     H90228   9.106  10.780   1.230  0.5893  0.6663  0.5713
  684MOL0     H90229   9.348  10.643   1.226  2.1781  0.3671  1.1420
  684MOL0     H90230   9.410  10.798   1.168 -0.1300  0.7574 -1.9622
  684MOL0     H90231   9.174  10.626   1.057  0.1043  1.0958  1.3255
  684MOL0     H90232   9.237  10.773   0.974 -2.3976  1.1727  2.7823
  684MOL0     H90233   9.400  10.523   1.052  0.1969  2.4111  1.7455
  684MOL0     H90234   9.460  10.656   0.956  0.9541 -0.6244  0.4483
  684MOL0     H90235   9.291  10.612   0.778  2.7467  0.2365 -0.5251
  684MOL0     H90236   9.215  10.492   0.867 -0.9166  2.5200 -1.4234
  684MOL0     H90237   9.518  10.496   0.776 -1.4161  1.2207 -0.5681
  684MOL0     H90238   9.430  10.359   0.844 -0.2710 -0.4258  0.9527
  684MOL0     H90239   9.329  10.479   0.572 -0.2216  1.0313  1.6866
  684MOL0     H90240   9.280  10.347   0.670 -1.5461  0.8531 -1.7518
  684MOL0     H90241   9.549  10.176   0.715  2.5685 -1.8298 -0.4042
  684MOL0     H90242   9.715  10.009   0.558  1.0194 -1.5542 -1.5466
  684MOL0     H90243   9.845  10.127   0.600  0.2335 -5.1781  2.1191
  684MOL0     H90244   9.749  10.096   0.305  4.3190 -0.4169 -3.4852
  684MOL0     H90245   9.843   9.977   0.376 -0.7106 -0.6518  0.0517
  684MOL0     H90246   9.885  10.281   0.326  0.4072  0.6251  0.9295
  684MOL0     H90247  10.001  10.189   0.423 -2.3314 -1.4938  1.7847
  684MOL0     H90248  10.080  10.182   0.167 -1.2117  2.1471  2.9111
  684MOL0     H90249   9.923  10.122   0.122 -2.3700 -0.4965  1.3002
  684MOL0     H90250  10.001   9.752   0.335  1.7164 -5.2194  1.1640
  684MOL0     H90251  10.154   9.629   0.462 -2.0135 -0.5255 -0.9151
  684MOL0     H90252  10.492   9.744   0.859 -0.0524 -1.7450 -0.7913
  684MOL0     H90253  10.656   9.661   1.003  2.3046  2.3996  1.3882
  684MOL0     H90254  11.011   9.401   0.873  1.1805  0.7311 -0.0924
  684MOL0     H90255  10.839   9.334   0.888  1.1304 -0.0511 -0.3780
  684MOL0     H90256  10.872   9.336   1.147 -0.8122  2.4682 -1.8382
  684MOL0     H90257  11.049   9.364   1.091  1.2809  0.3430 -1.2456
  684MOL0     H90258  11.016   9.167   0.938  0.6542  0.6498  0.2346
  684MOL0     H90259  10.863   9.147   1.020  0.0696 -0.0149  1.0053
  684MOL0     H90260  11.072   9.015   1.074  0.2628  1.1780 -1.8393
  684MOL0     H90261  11.154   9.159   1.134 -0.8594  1.3868  2.8586
  684MOL0     H90262  10.968   9.191   1.309  4.3301  1.7299  0.0480
  684MOL0     H90263  11.060   9.036   1.347 -2.1111 -0.4223  2.2037
  684MOL0     H90264  10.881   8.921   1.216 -2.0814 -0.3106 -1.6409
  684MOL0     H90265  10.790   9.077   1.228 -1.3663  2.3777  4.1689
  684MOL0     H90266  10.866   8.853   1.415  0.6291 -0.2011  0.4484
  684MOL0     H90267  10.887   9.010   1.494  1.8093 -0.6967 -0.9506
  684MOL0     H90268  10.657   8.922   1.545 -1.8951  1.5598  0.0747
  684MOL0     H90269  10.632   8.914   1.364  0.7889 -1.6163 -0.1373
  684MOL0     H90270  10.917   9.565   0.685  1.6845  2.8696  0.9869
  684MOL0     H90271  10.769   9.670   0.526  2.2894 -0.6687  0.6294
  684MOL0     H90272  10.434   9.956   0.415  0.2745  0.7650 -0.7448
  684MOL0     H90273  10.262  10.075   0.275  2.6160 -2.1583 -2.0349
  684MOL0     H90274   9.295  10.879   1.657 -0.4849 -0.0826 -1.6833
  684MOL0     H90275   9.241  10.862   1.901  0.3060 -2.0981  0.8212
  684MOL0     H90276   8.905  10.462   2.269  0.6711 -0.5810  1.9209
  684MOL0     H90277   8.796  10.532   2.458 -0.0047 -2.5593 -3.1915
  684MOL0     H90278   8.839  10.963   2.595 -4.2090  0.5601  1.5239
  684MOL0     H90279   8.958  10.867   2.688 -0.7415 -2.3592  0.3844
  684MOL0     H90280   8.654  10.870   2.741 -2.0645  2.0388  4.1390
  684MOL0     H90281   8.771  10.794   2.841 -0.7416  0.1968  0.4595
  684MOL0     H90282   8.785  11.084   2.770  4.2203 -2.4058 -1.0929
  684MOL0     H90283   8.866  11.023   2.911  0.5149 -2.3011  0.2395
  684MOL0     H90284   8.662  10.969   3.009  0.6426 -0.1804 -0.4362
  684MOL0     H90285   8.675  11.140   2.983 -3.0073 -0.8831  3.1241
  684MOL0     H90286   8.308  11.086   2.773  0.8370  2.4794 -1.3400
  684MOL0     H90287   9.045  10.880   2.471  2.6935 -2.1754  2.3980
  684MOL0     H90288   9.160  10.817   2.269  0.2602 -0.1474  2.0463
  685MOL0     O90289   3.498   9.662   4.594 -0.4500 -0.2754 -0.0183
  685MOL0     C90290   3.607   9.663   4.533  0.0617 -0.2456 -0.0595
  685MOL0     O90291   3.718   9.746   4.551 -0.2475 -0.3602 -1.3019
  685MOL0     C90292   3.725   9.839   4.656 -0.3394  0.3046  0.4089
  685MOL0     C90293   3.835   9.834   4.744  0.4426 -0.4275  0.1627
  685MOL0     C90294   3.833   9.916   4.860  0.3247 -0.1339 -0.3068
  685MOL0     C90295   3.720   9.989   4.891 -0.4317 -0.2132  0.2337
  685MOL0     O90296   3.706  10.070   5.009  0.2621  0.3530  0.1850
  685MOL0     C90297   3.811  10.079   5.106 -0.0903 -0.2446  0.3047
  685MOL0     C90298   3.785  10.163   5.222  0.5230  0.1985 -0.2024
  685MOL0     C90299   3.684  10.091   5.308 -0.7300 -0.0745  0.3683
  685MOL0     C90300   3.654  10.178   5.431 -0.2313 -0.1320 -0.4206
  685MOL0     C90301   3.570  10.103   5.543  0.4697 -0.4504  0.2485
  685MOL0     C90302   3.589  10.180   5.675  0.3312 -0.2914  0.6955
  685MOL0     C90303   3.550  10.097   5.805  0.2500 -0.5037 -0.0519
  685MOL0     C90304   3.404  10.075   5.817  0.0395  0.3780 -0.6142
  685MOL0     N90305   3.381   9.962   5.907 -0.3467 -0.5458  0.2110
  685MOL0     C90306   3.372   9.834   5.875 -0.0286 -0.2583  0.1911
  685MOL0     C90307   3.355   9.768   5.993 -0.0803  1.1565  1.3372
  685MOL0     C90308   3.345   9.618   6.012  0.2374 -0.3783 -1.0316
  685MOL0     C90309   3.417   9.521   5.916  0.4516  0.2142  0.4229
  685MOL0     C90310   3.352   9.514   5.780  0.7339  0.5083  1.2125
  685MOL0     C90311   3.391   9.385   5.716  0.0145 -0.5099 -0.5953
  685MOL0     O90312   3.354   9.380   5.574 -0.6678  1.2348 -0.2482
  685MOL0     C90313   3.427   9.296   5.491 -0.2837 -0.4542  0.1787
  685MOL0     C90314   3.461   9.322   5.357  0.2507 -0.6949 -0.3437
  685MOL0     C90315   3.518   9.221   5.278 -0.3892  0.3769 -0.2546
  685MOL0     C90316   3.550   9.097   5.328 -0.9075 -0.3433 -0.6644
  685MOL0     C90317   3.618   9.001   5.245 -0.1827 -0.2059 -0.2469
  685MOL0     O90318   3.669   8.889   5.305 -0.1184 -0.5320  0.7063
  685MOL0     C90319   3.751   8.818   5.223  0.7304 -1.3234  0.5507
  685MOL0     C90320   3.701   8.720   5.136 -0.3559 -0.0136  0.1429
  685MOL0     C90321   3.789   8.634   5.056  0.4874  0.3233  0.1792
  685MOL0     C90322   3.927   8.661   5.057  0.1448  0.3136  0.3273
  685MOL0     O90323   4.011   8.578   4.983  1.1005  0.1391  0.0181
  685MOL0     C90324   3.956   8.538   4.850  0.5887 -1.1399 -0.3864
  685MOL0     C90325   4.086   8.532   4.751  0.4439 -0.5486 -0.3596
  685MOL0     C90326   4.133   8.669   4.707 -0.2576  1.1418 -0.0299
  685MOL0     C90327   4.203   8.761   4.811  0.8514  0.1542 -0.2188
  685MOL0     C90328   4.273   8.887   4.751  0.0231 -0.1346  0.2911
  685MOL0     C90329   4.382   8.935   4.846 -0.2238 -0.5112  0.1776
  685MOL0     C90330   4.329   9.035   4.944 -0.5055 -0.7233 -0.3748
  685MOL0     C90331   4.300   8.965   5.084 -0.2231  0.1340 -0.6500
  685MOL0    Cl90332   4.456   8.901   5.135  0.2165  0.1965  0.0656
  685MOL0     C90333   3.971   8.767   5.133 -0.3085 -0.5827  0.1907
  685MOL0     C90334   3.885   8.845   5.214  0.5441 -1.0024 -0.5755
  685MOL0     O90335   3.626   9.021   5.124  0.7047  0.2040  0.3135
  685MOL0     C90336   3.528   9.069   5.457  0.0521  0.8182  0.5551
  685MOL0     C90337   3.455   9.166   5.537 -0.6594 -0.4293 -0.2630
  685MOL0     N90338   3.351   9.864   6.092 -0.2365  0.8997 -0.2894
  685MOL0     N90339   3.365   9.975   6.042  0.0489  1.3223  0.0416
  685MOL0     C90340   3.611   9.982   4.808 -0.1673  0.1698  1.3224
  685MOL0     C90341   3.611   9.911   4.689  0.5331  0.1024  0.1868
  685MOL0     C90342   3.632   9.552   4.430  0.5003 -1.0472  0.2920
  685MOL0     C90343   3.726   9.568   4.333  0.4941  0.7690 -0.1835
  685MOL0     C90344   3.747   9.458   4.245  0.1077  0.8069  0.0299
  685MOL0     C90345   3.680   9.340   4.265 -0.7935  0.0933 -0.1358
  685MOL0     O90346   3.713   9.225   4.197  0.7072 -0.6396 -0.4984
  685MOL0     C90347   3.851   9.192   4.209 -0.5611 -0.1110  0.7727
  685MOL0     C90348   3.877   9.049   4.140  0.4750 -0.2152 -0.3091
  685MOL0     C90349   4.016   9.010   4.104 -0.3865 -0.2524  0.1464
  685MOL0     C90350   4.112   8.991   4.230 -0.0143  1.0805  0.2808
  685MOL0     C90351   4.087   8.867   4.311 -1.1006  0.2843  1.0366
  685MOL0     C90352   4.041   8.759   4.358 -1.1374  0.5061  0.6165
  685MOL0     C90353   3.604   9.318   4.376 -0.2519  0.2317  0.1706
  685MOL0     C90354   3.579   9.429   4.454  0.3702  0.6736 -0.4454
  685MOL0     H90355   3.921   9.777   4.709 -0.1297 -1.0880 -0.1990
  685MOL0     H90356   3.923   9.914   4.922  0.6042  1.3863 -0.6059
  685MOL0     H90357   3.907  10.108   5.064  0.1827 -2.7893 -1.0527
  685MOL0     H90358   3.839   9.976   5.131  1.1216 -1.6505 -5.3943
  685MOL0     H90359   3.743  10.256   5.183  0.3459 -0.0646 -0.6431
  685MOL0     H90360   3.880  10.190   5.269  2.1447 -0.8140 -2.6932
  685MOL0     H90361   3.719   9.992   5.341 -1.9771 -0.0799  1.7861
  685MOL0     H90362   3.594  10.062   5.252 -1.1426  0.9976  0.4690
  685MOL0     H90363   3.754  10.184   5.474  0.5883 -2.6585 -1.7562
  685MOL0     H90364   3.613  10.278   5.418 -1.6974 -0.2405  2.4795
  685MOL0     H90365   3.614  10.003   5.533 -0.1324 -0.5155 -3.1016
  685MOL0     H90366   3.466  10.083   5.516  0.2679  0.9731 -0.1078
  685MOL0     H90367   3.531  10.273   5.669  2.6374  1.1792 -0.6802
  685MOL0     H90368   3.694  10.212   5.678 -1.0104  4.9876  2.9625
  685MOL0     H90369   3.602  10.002   5.795 -5.1461 -4.0856  1.3771
  685MOL0     H90370   3.574  10.146   5.900 -2.2622  1.1558 -0.1523
  685MOL0     H90371   3.352  10.066   5.721  1.8328 -0.4650 -1.5617
  685MOL0     H90372   3.369  10.168   5.862 -4.1962 -1.1825 -0.3042
  685MOL0     H90373   3.395   9.797   5.775  3.6643 -3.1472  1.8580
  685MOL0     H90374   3.240   9.587   6.008 -0.7886  2.5347  0.3309
  685MOL0     H90375   3.378   9.593   6.114 -2.0503 -2.3699 -0.6882
  685MOL0     H90376   3.423   9.424   5.965  3.4698  0.3000  0.4528
  685MOL0     H90377   3.519   9.557   5.894 -0.1443  2.2912  0.8644
  685MOL0     H90378   3.245   9.531   5.793  0.6791  0.7004  0.5428
  685MOL0     H90379   3.394   9.586   5.709 -0.0211  0.8722  1.1232
  685MOL0     H90380   3.350   9.300   5.771 -0.5974  1.6359  2.5506
  685MOL0     H90381   3.501   9.384   5.711  0.2470 -0.5787  2.2980
  685MOL0     H90382   3.443   9.420   5.313  1.9835  0.4227  1.2762
  685MOL0     H90383   3.552   9.237   5.176 -0.0299 -0.7743 -0.3363
  685MOL0     H90384   3.595   8.697   5.144 -0.0146 -1.2092  1.8546
  685MOL0     H90385   3.753   8.542   5.013  1.9465 -0.8364  1.3133
  685MOL0     H90386   3.890   8.616   4.814  0.8980 -1.4560 -1.7101
  685MOL0     H90387   3.888   8.454   4.866 -4.2470  2.3646 -0.3364
  685MOL0     H90388   4.050   8.488   4.657 -0.3872  1.2178 -0.9153
  685MOL0     H90389   4.160   8.463   4.793 -0.9445 -1.9105 -0.0598
  685MOL0     H90390   4.055   8.718   4.648 -1.3465  2.2339  2.1551
  685MOL0     H90391   4.216   8.644   4.641  0.7579  1.8729  0.9370
  685MOL0     H90392   4.131   8.796   4.885  0.4518 -1.9294  0.4657
  685MOL0     H90393   4.275   8.704   4.871 -0.1506 -2.3113 -1.2187
  685MOL0     H90394   4.213   8.970   4.714  0.1294 -0.8667 -1.6646
  685MOL0     H90395   4.325   8.846   4.663 -1.6716  1.4007 -1.5006
  685MOL0     H90396   4.453   8.985   4.779  1.2526  0.3873  2.2917
  685MOL0     H90397   4.428   8.849   4.896  1.9237 -0.3373 -1.3328
  685MOL0     H90398   4.411   9.105   4.962  2.3005 -3.9802  0.5523
  685MOL0     H90399   4.241   9.084   4.902  1.7356  4.9008  0.6533
  685MOL0     H90400   4.232   8.880   5.071 -0.5636  0.7012 -3.2407
  685MOL0     H90401   4.254   9.034   5.154 -2.8542 -3.1601  1.1602
  685MOL0     H90402   4.078   8.781   5.145 -0.1324 -0.1348 -1.7082
  685MOL0     H90403   3.925   8.923   5.277  0.1063 -1.2255 -0.0084
  685MOL0     H90404   3.565   8.980   5.508 -0.9393  0.8658  1.3937
  685MOL0     H90405   3.432   9.154   5.643 -4.5945 -1.8289 -1.1066
  685MOL0     H90406   3.519  10.036   4.830 -0.4077  0.1540  0.3956
  685MOL0     H90407   3.517   9.906   4.635 -0.5533  0.8429  1.9151
  685MOL0     H90408   3.770   9.663   4.305  0.9283  0.1287 -1.7674
  685MOL0     H90409   3.809   9.469   4.156 -0.6492 -1.0278 -0.7740
  685MOL0     H90410   3.880   9.198   4.314 -1.7337  3.1404  1.0272
  685MOL0     H90411   3.901   9.267   4.148 -1.7273 -0.5670 -0.8270
  685MOL0     H90412   3.836   8.980   4.215 -2.5625  1.3624 -0.3475
  685MOL0     H90413   3.817   9.050   4.049 -0.6095  0.1978  0.3872
  685MOL0     H90414   4.060   9.091   4.046  1.8487 -0.9327  0.7811
  685MOL0     H90415   4.022   8.919   4.043 -0.9070 -0.4984  0.4559
  685MOL0     H90416   4.217   8.998   4.198  0.2595  4.2301  1.5105
  685MOL0     H90417   4.109   9.077   4.297  3.3851 -1.6019  4.3964
  685MOL0     H90418   4.005   8.660   4.376  2.7169 -1.0118  0.8137
  685MOL0     H90419   3.572   9.217   4.397  1.5804 -0.0108  2.0806
  685MOL0     H90420   3.515   9.413   4.540 -0.7351  0.6288 -1.2503
  686MOL0     O90421   2.422   2.931   1.504 -0.0749  0.4871 -0.2094
  686MOL0     C90422   2.459   3.044   1.501 -1.0178 -0.1247  0.2301
  686MOL0     O90423   2.592   3.080   1.536  0.1858 -0.2857  0.1106
  686MOL0     C90424   2.687   2.978   1.542  0.0727  0.5338  0.1791
  686MOL0     C90425   2.801   2.983   1.459 -0.8243 -0.1423 -0.0102
  686MOL0     C90426   2.893   2.877   1.469 -0.0437 -0.0479  0.4541
  686MOL0     C90427   2.884   2.787   1.573 -0.5329  0.3954  0.4957
  686MOL0     O90428   2.989   2.691   1.585  0.1419  0.0717 -0.1243
  686MOL0     C90429   2.998   2.603   1.700  0.6206  0.4566 -0.4607
  686MOL0     C90430   2.899   2.488   1.702  0.1647 -0.0981 -0.3505
  686MOL0     C90431   2.932   2.372   1.604  0.1062 -0.2015  1.1322
  686MOL0     C90432   2.896   2.398   1.453 -0.2165 -0.1095 -0.3409
  686MOL0     C90433   2.876   2.275   1.370 -0.4886  0.3332  0.4184
  686MOL0     C90434   2.856   2.300   1.222  0.0727  0.6069 -0.7338
  686MOL0     C90435   2.869   2.189   1.125 -0.7510  0.3981  0.0069
  686MOL0     C90436   2.852   2.226   0.975 -0.5844 -0.6554 -0.2018
  686MOL0     N90437   2.965   2.157   0.912  0.9716  0.1477 -0.7789
  686MOL0     C90438   3.093   2.206   0.906  0.1428  0.1156  0.0380
  686MOL0     C90439   3.154   2.118   0.813 -0.5790  0.2056  0.6931
  686MOL0     C90440   3.297   2.094   0.768  0.6072 -0.3069  0.1575
  686MOL0     C90441   3.354   1.966   0.834  0.1497  0.8373  0.2771
  686MOL0     C90442   3.506   1.941   0.808 -0.6203  0.8102 -0.3012
  686MOL0     C90443   3.562   1.824   0.877 -0.2770 -0.8647 -0.3737
  686MOL0     O90444   3.550   1.835   1.028  0.0714  0.0481 -0.2067
  686MOL0     C90445   3.634   1.911   1.103 -1.0058 -0.3390 -1.0425
  686MOL0     C90446   3.726   1.996   1.051  0.1580 -0.2129 -0.3923
  686MOL0     C90447   3.791   2.078   1.147  0.5470  0.0589  1.4769
  686MOL0     C90448   3.766   2.078   1.287 -0.8082  0.3143 -0.1942
  686MOL0     C90449   3.834   2.162   1.388  0.7770 -0.1374  0.7658
  686MOL0     O90450   3.808   2.143   1.522 -0.2548 -0.1882 -0.3059
  686MOL0     C90451   3.881   2.209   1.616 -1.0061 -0.0995 -0.3464
  686MOL0     C90452   3.809   2.219   1.737 -0.5055  0.4367 -0.4867
  686MOL0     C90453   3.854   2.294   1.848  0.1195 -0.5832  0.8567
  686MOL0     C90454   3.974   2.364   1.841 -0.7324 -0.1578 -1.0757
  686MOL0     O90455   4.000   2.434   1.958  0.1191 -0.3305  0.2557
  686MOL0     C90456   4.081   2.546   1.952 -0.9207  1.0232  0.1678
  686MOL0     C90457   4.010   2.675   1.967 -1.2310  0.7850  0.3345
  686MOL0     C90458   4.105   2.800   1.965 -1.0040 -0.5146 -0.0604
  686MOL0     C90459   4.026   2.930   2.003  0.1188  0.4190 -0.2013
  686MOL0     C90460   4.111   3.057   2.002  0.6597  0.3451  0.0688
  686MOL0     C90461   4.059   3.174   2.081  0.1461  0.4748 -0.6491
  686MOL0     C90462   4.057   3.154   2.237 -0.4447  0.5612 -0.2312
  686MOL0     C90463   3.976   3.258   2.304  0.3628 -0.3270 -0.0432
  686MOL0    Cl90464   4.067   3.411   2.282 -0.0713 -0.0548  0.1633
  686MOL0     C90465   4.047   2.364   1.731 -0.7878  0.2137 -0.3195
  686MOL0     C90466   4.000   2.294   1.616 -0.0521  0.1844 -0.5921
  686MOL0     O90467   3.915   2.244   1.335  0.3692  0.2256 -0.1386
  686MOL0     C90468   3.681   1.977   1.326 -0.2368 -0.4280 -0.6171
  686MOL0     C90469   3.618   1.890   1.242  0.9534  0.7272  0.6191
  686MOL0     N90470   3.056   2.027   0.771 -0.2604 -0.3206  0.1447
  686MOL0     N90471   2.948   2.060   0.819  0.3716 -0.4242  0.5723
  686MOL0     C90472   2.780   2.799   1.666  0.7660  1.0801  0.5136
  686MOL0     C90473   2.673   2.886   1.648 -0.6436 -0.1035  0.6271
  686MOL0     C90474   2.365   3.155   1.490 -0.7277  0.1072  0.5513
  686MOL0     C90475   2.246   3.118   1.435 -0.6920 -0.3531  0.5821
  686MOL0     C90476   2.145   3.209   1.435  0.8577  0.1266 -0.8716
  686MOL0     C90477   2.174   3.344   1.468  0.6761 -0.6219 -0.6192
  686MOL0     O90478   2.091   3.447   1.443  0.1942 -0.0742 -0.2104
  686MOL0     C90479   2.100   3.488   1.310 -0.6369  0.5136 -0.0243
  686MOL0     C90480   2.018   3.608   1.298 -0.0699  0.9020  0.5612
  686MOL0     C90481   1.982   3.616   1.146  0.6804 -0.4829 -0.0992
  686MOL0     C90482   2.104   3.588   1.046 -0.2058 -0.1645 -1.3275
  686MOL0     C90483   2.061   3.605   0.904 -0.0855 -1.3968  0.2159
  686MOL0     C90484   2.035   3.614   0.787  0.1022 -0.3221  0.5576
  686MOL0     C90485   2.303   3.389   1.494  0.3600 -0.5858 -0.4644
  686MOL0     C90486   2.399   3.287   1.513  0.3164 -0.2303 -0.8317
  686MOL0     H90487   2.808   3.058   1.381 -0.0058 -2.0226 -1.8772
  686MOL0     H90488   2.977   2.867   1.401 -0.4946 -1.1520  0.0446
  686MOL0     H90489   2.989   2.669   1.787 -1.7319 -1.3280  0.7635
  686MOL0     H90490   3.094   2.552   1.711  1.3841  2.1066  1.2069
  686MOL0     H90491   2.802   2.531   1.676  1.7613  1.3454 -4.7139
  686MOL0     H90492   2.903   2.436   1.799 -3.0063 -2.2025 -1.1912
  686MOL0     H90493   2.891   2.279   1.644  0.9130 -0.2694  1.8452
  686MOL0     H90494   3.040   2.352   1.609 -0.0515 -1.5298  0.0196
  686MOL0     H90495   2.803   2.456   1.452 -0.5188 -0.5818 -0.2371
  686MOL0     H90496   2.973   2.465   1.414  1.5717 -1.6237  0.4512
  686MOL0     H90497   2.790   2.218   1.407 -0.3394 -0.9825 -1.1335
  686MOL0     H90498   2.967   2.217   1.385 -0.8498 -0.7774 -1.4296
  686MOL0     H90499   2.924   2.380   1.188  0.5240  0.6883  0.3355
  686MOL0     H90500   2.755   2.339   1.205 -0.0693  0.2447 -0.7124
  686MOL0     H90501   2.972   2.158   1.144 -0.8605  1.2030  2.1643
  686MOL0     H90502   2.809   2.103   1.155  1.9537 -1.3281  0.8421
  686MOL0     H90503   2.865   2.335   0.970 -0.5723 -0.6627 -0.3541
  686MOL0     H90504   2.768   2.183   0.921  0.0588 -0.4676 -1.3952
  686MOL0     H90505   3.133   2.289   0.963  1.6531 -0.7214  0.2444
  686MOL0     H90506   3.365   2.171   0.807  2.0693 -2.4066  2.0063
  686MOL0     H90507   3.320   2.093   0.662 -0.4560 -3.0505 -0.1232
  686MOL0     H90508   3.308   1.873   0.800  0.5439  1.4587 -2.1283
  686MOL0     H90509   3.345   1.970   0.943 -0.2186 -0.9280  0.3334
  686MOL0     H90510   3.517   1.918   0.702 -3.3535  0.1832 -0.5116
  686MOL0     H90511   3.563   2.029   0.837  3.7350 -0.4914 -3.8202
  686MOL0     H90512   3.665   1.797   0.855 -0.3059  0.2715 -2.0427
  686MOL0     H90513   3.493   1.746   0.844 -1.8384  0.7447 -1.1087
  686MOL0     H90514   3.751   2.010   0.947  0.3845  0.3613 -0.2675
  686MOL0     H90515   3.858   2.158   1.117 -0.6799  1.3571  2.0886
  686MOL0     H90516   3.713   2.169   1.750 -1.6302  1.8270 -2.6867
  686MOL0     H90517   3.811   2.296   1.948  1.6119  0.1747  1.5250
  686MOL0     H90518   4.150   2.566   1.870  2.0851  0.8993  2.4788
  686MOL0     H90519   4.153   2.545   2.034 -0.2704  1.6495 -0.3754
  686MOL0     H90520   3.952   2.671   2.060 -0.5400  1.0568  0.7845
  686MOL0     H90521   3.949   2.677   1.877 -0.9425  1.2894  0.1469
  686MOL0     H90522   4.153   2.811   1.868  0.5620 -1.4418  0.5544
  686MOL0     H90523   4.186   2.782   2.037 -0.9258 -0.6585 -0.1838
  686MOL0     H90524   3.959   2.950   1.919  1.0633 -2.4823 -1.7686
  686MOL0     H90525   3.968   2.910   2.094  0.3056 -0.3455 -0.2429
  686MOL0     H90526   4.117   3.083   1.896  0.9347  0.3825  0.0930
  686MOL0     H90527   4.216   3.035   2.024  1.5258  2.3019 -1.7339
  686MOL0     H90528   3.954   3.190   2.056 -0.1175 -0.4535 -0.1647
  686MOL0     H90529   4.120   3.264   2.066  1.4905  0.0378  1.6144
  686MOL0     H90530   4.007   3.060   2.263  0.9917  0.5650  2.9103
  686MOL0     H90531   4.163   3.142   2.261 -0.8249 -1.0882  0.8427
  686MOL0     H90532   3.949   3.235   2.407 -0.1026 -1.1102 -0.3255
  686MOL0     H90533   3.872   3.257   2.269  0.0855  0.6695  0.7136
  686MOL0     H90534   4.132   2.430   1.721 -1.5986  1.0077 -2.5452
  686MOL0     H90535   4.068   2.300   1.531  2.5715 -0.9053  1.2548
  686MOL0     H90536   3.665   1.953   1.431  0.6145  2.1666  0.1927
  686MOL0     H90537   3.556   1.814   1.288  0.2483  1.7018  1.3433
  686MOL0     H90538   2.786   2.734   1.752  2.1245  1.6909  0.9027
  686MOL0     H90539   2.592   2.877   1.719 -0.7590 -2.3189  0.2703
  686MOL0     H90540   2.221   3.017   1.406 -0.6722 -0.3584  0.5833
  686MOL0     H90541   2.047   3.174   1.403  0.3564 -1.0571  1.6967
  686MOL0     H90542   2.070   3.396   1.258  3.1537 -1.1923  0.5255
  686MOL0     H90543   2.202   3.506   1.276 -1.0765  2.5169 -0.4080
  686MOL0     H90544   1.918   3.610   1.342 -0.5533 -0.4335 -0.4046
  686MOL0     H90545   2.071   3.698   1.330  3.8994 -0.6120 -1.0935
  686MOL0     H90546   1.921   3.700   1.111 -0.3019 -1.3538 -0.5227
  686MOL0     H90547   1.919   3.530   1.122  0.6318  0.3338 -3.2622
  686MOL0     H90548   2.188   3.650   1.078 -2.0400  2.2585 -0.9193
  686MOL0     H90549   2.138   3.486   1.064 -5.4005 -2.1013 -0.6323
  686MOL0     H90550   2.021   3.609   0.681 -0.5388  1.7977  0.5047
  686MOL0     H90551   2.321   3.494   1.513 -2.4562 -0.4267  2.2173
  686MOL0     H90552   2.498   3.314   1.550 -0.1414 -2.5677  2.5907
  687MOL0     O90553   7.271  10.801   6.958  0.5775  0.4244 -0.4023
  687MOL0     C90554   7.357  10.767   6.882 -0.3950 -0.1113  0.5352
  687MOL0     O90555   7.473  10.840   6.868  0.7680 -0.3801  0.3393
  687MOL0     C90556   7.504  10.897   6.984  0.0117 -0.8332  0.4766
  687MOL0     C90557   7.509  11.035   6.985 -0.6700  0.1722 -1.1331
  687MOL0     C90558   7.504  11.101   7.112 -0.3694 -0.3497  0.4552
  687MOL0     C90559   7.529  11.024   7.226  0.6409 -0.6898  0.5689
  687MOL0     O90560   7.530  11.087   7.344 -1.3300 -0.2483  0.0002
  687MOL0     C90561   7.653  11.071   7.424 -0.4993  0.3637  0.4485
  687MOL0     C90562   7.629  11.086   7.567  0.1870  0.3154 -0.0315
  687MOL0     C90563   7.567  10.960   7.627 -0.0146 -0.5308 -0.4511
  687MOL0     C90564   7.656  10.852   7.672  0.1784  1.0382 -0.4810
  687MOL0     C90565   7.571  10.731   7.700  0.2060 -0.3665 -0.0039
  687MOL0     C90566   7.466  10.747   7.807 -0.9820 -1.0201 -0.1723
  687MOL0     C90567   7.404  10.614   7.848  0.5828  0.8420 -0.2671
  687MOL0     C90568   7.287  10.626   7.952 -0.5937 -0.1229 -0.1171
  687MOL0     N90569   7.324  10.671   8.084  1.0810  0.8473 -0.2824
  687MOL0     C90570   7.447  10.702   8.129 -0.1488 -0.1274  1.5814
  687MOL0     C90571   7.426  10.730   8.255  0.8195 -0.5805 -1.4870
  687MOL0     C90572   7.528  10.759   8.359 -0.5698 -0.1591 -0.6650
  687MOL0     C90573   7.488  10.760   8.503 -0.9130 -0.2982  0.0752
  687MOL0     C90574   7.606  10.799   8.599  0.8540  0.2993  0.1036
  687MOL0     C90575   7.541  10.809   8.731  0.5203 -0.0962  1.3156
  687MOL0     O90576   7.626  10.838   8.838 -0.6334 -0.3329  0.0376
  687MOL0     C90577   7.712  10.730   8.878  0.4183  0.9888  0.2316
  687MOL0     C90578   7.714  10.601   8.835  0.1350 -0.5795  0.8164
  687MOL0     C90579   7.813  10.508   8.870 -0.3548  0.0432 -0.3838
  687MOL0     C90580   7.910  10.555   8.964 -0.7831  0.3671  0.8887
  687MOL0     C90581   8.018  10.464   9.013  0.2651  0.8514  0.4880
  687MOL0     O90582   8.022  10.345   8.937 -0.5945 -0.2388 -0.6688
  687MOL0     C90583   8.062  10.224   9.006 -0.3309 -1.3144 -0.0955
  687MOL0     C90584   8.030  10.198   9.135 -0.0765 -0.7503  0.0277
  687MOL0     C90585   8.062  10.077   9.199 -1.6332  0.3818  0.4043
  687MOL0     C90586   8.135   9.983   9.124 -0.3686  0.3798  0.2530
  687MOL0     O90587   8.153   9.862   9.183  0.3541  0.4966  0.4863
  687MOL0     C90588   8.211   9.749   9.122 -0.6085  0.3840 -0.0649
  687MOL0     C90589   8.220   9.634   9.222 -0.0526  0.4265 -0.1808
  687MOL0     C90590   8.272   9.509   9.161 -0.0154  0.2475  0.6397
  687MOL0     C90591   8.287   9.410   9.284  0.8232  0.3773  0.9285
  687MOL0     C90592   8.271   9.264   9.235 -0.3503 -0.3207  0.0313
  687MOL0     C90593   8.396   9.218   9.146  0.8093  0.5951 -1.0379
  687MOL0     C90594   8.344   9.079   9.093 -0.3178  0.4448  0.4692
  687MOL0     C90595   8.453   9.032   8.990  0.4505  0.4468  0.0197
  687MOL0    Cl90596   8.428   8.885   8.894 -0.6388  0.1802  0.6735
  687MOL0     C90597   8.178  10.013   8.988  0.2946 -0.7031 -0.5158
  687MOL0     C90598   8.124  10.129   8.930 -0.7791  0.5176  0.3713
  687MOL0     O90599   8.079  10.491   9.117  0.4942 -0.2146 -0.4007
  687MOL0     C90600   7.913  10.687   9.012  0.5843 -0.1896  1.0048
  687MOL0     C90601   7.808  10.768   8.978  0.4644  0.8957 -0.6344
  687MOL0     N90602   7.292  10.715   8.286  0.5459 -0.0385  0.4981
  687MOL0     N90603   7.227  10.686   8.180 -0.0615  0.6547 -0.6977
  687MOL0     C90604   7.544  10.882   7.219 -0.5594 -0.0645  0.5121
  687MOL0     C90605   7.529  10.821   7.095 -0.2429 -0.4597 -0.4362
  687MOL0     C90606   7.333  10.663   6.771  0.0461 -0.3094  0.1133
  687MOL0     C90607   7.418  10.649   6.660  0.0408  0.4740  0.1481
  687MOL0     C90608   7.405  10.547   6.568 -0.1127 -0.0985  0.8327
  687MOL0     C90609   7.292  10.457   6.577  0.6468 -0.4504  0.3313
  687MOL0     O90610   7.287  10.363   6.487 -0.1543  0.5132  1.6290
  687MOL0     C90611   7.166  10.309   6.437 -0.6820  0.1177 -0.0281
  687MOL0     C90612   7.103  10.412   6.347 -0.2093  0.6784  0.3167
  687MOL0     C90613   7.158  10.409   6.200 -0.6569 -0.9885  0.3412
  687MOL0     C90614   7.298  10.474   6.191  0.8055  0.6843 -0.0813
  687MOL0     C90615   7.421  10.397   6.196  0.5777  0.0571 -0.6101
  687MOL0     C90616   7.527  10.333   6.209  0.1464 -0.2085  0.9261
  687MOL0     C90617   7.200  10.478   6.679 -0.3249  0.1062 -0.4837
  687MOL0     C90618   7.223  10.582   6.780  0.3062 -0.1467 -0.2668
  687MOL0     H90619   7.489  11.073   6.885 -1.2348 -2.0229 -1.9129
  687MOL0     H90620   7.490  11.207   7.128  1.5893 -0.1883  1.4294
  687MOL0     H90621   7.706  11.160   7.387  0.0282 -0.7069 -1.5172
  687MOL0     H90622   7.723  10.993   7.391  1.0324  0.6075  2.8985
  687MOL0     H90623   7.564  11.174   7.567  0.7673  0.7623  0.8356
  687MOL0     H90624   7.717  11.120   7.623 -1.6854  1.9219  2.1417
  687MOL0     H90625   7.493  10.925   7.554 -1.1181  0.6564  0.0449
  687MOL0     H90626   7.520  11.001   7.717  0.8975  0.0368 -0.2243
  687MOL0     H90627   7.739  10.826   7.606  1.5431 -2.9405  2.4097
  687MOL0     H90628   7.706  10.872   7.767  0.4619 -1.3080 -0.0878
  687MOL0     H90629   7.631  10.645   7.730 -1.9635 -2.3824 -1.1412
  687MOL0     H90630   7.514  10.700   7.611 -2.2976 -0.6074  1.5923
  687MOL0     H90631   7.385  10.806   7.763 -0.1758 -0.8721 -1.5377
  687MOL0     H90632   7.505  10.808   7.889 -0.1404  0.3052 -1.4959
  687MOL0     H90633   7.375  10.569   7.753  1.1366  2.2420 -1.1253
  687MOL0     H90634   7.484  10.555   7.893  2.2273  1.9517 -1.6227
  687MOL0     H90635   7.246  10.524   7.944 -0.1055 -0.2073 -1.8819
  687MOL0     H90636   7.212  10.701   7.926 -0.4628  0.7739  1.8863
  687MOL0     H90637   7.542  10.698   8.075 -0.0610 -1.7430  1.8305
  687MOL0     H90638   7.571  10.857   8.336  1.5743 -1.3930 -2.4174
  687MOL0     H90639   7.623  10.705   8.348  0.1131  0.5290  1.4815
  687MOL0     H90640   7.453  10.663   8.539  0.4303  0.1983  3.0364
  687MOL0     H90641   7.402  10.828   8.514 -2.1046 -1.0474 -3.4248
  687MOL0     H90642   7.685  10.724   8.597  0.1403 -0.5580  2.0676
  687MOL0     H90643   7.648  10.893   8.562  0.1866  1.1372  1.3843
  687MOL0     H90644   7.475  10.723   8.744  0.3316 -0.5075 -1.7352
  687MOL0     H90645   7.472  10.893   8.729  0.9819  0.3670  3.1358
  687MOL0     H90646   7.631  10.559   8.779  0.2101 -0.9357  0.9693
  687MOL0     H90647   7.799  10.405   8.839 -1.3729  0.1579 -0.3298
  687MOL0     H90648   7.968  10.262   9.196 -1.0813 -2.2493  0.6284
  687MOL0     H90649   8.024  10.065   9.299 -3.0243 -1.1417 -0.2535
  687MOL0     H90650   8.318   9.769   9.109 -1.1863  1.6964 -4.7466
  687MOL0     H90651   8.158   9.719   9.031 -1.5110  2.3877 -0.2547
  687MOL0     H90652   8.115   9.637   9.255 -0.1605  0.9517 -0.5561
  687MOL0     H90653   8.280   9.654   9.311  1.5917 -5.4277  0.4140
  687MOL0     H90654   8.371   9.525   9.116 -1.4049 -0.9576 -3.2906
  687MOL0     H90655   8.203   9.465   9.088  1.6163 -0.7104 -0.3979
  687MOL0     H90656   8.378   9.421   9.344  1.5701 -1.6893  0.2737
  687MOL0     H90657   8.196   9.432   9.340  0.7417  0.1802  0.8766
  687MOL0     H90658   8.174   9.250   9.187 -1.1801 -2.0937  2.0540
  687MOL0     H90659   8.272   9.200   9.324 -1.9823  0.2009  0.4625
  687MOL0     H90660   8.494   9.217   9.196  1.3866  0.8224 -2.1395
  687MOL0     H90661   8.401   9.284   9.059  1.4439 -0.5910 -1.9350
  687MOL0     H90662   8.334   9.012   9.178 -5.5764  0.5637  0.2723
  687MOL0     H90663   8.250   9.084   9.038 -0.0421 -1.6474 -0.2680
  687MOL0     H90664   8.552   9.019   9.034  0.8502 -0.8257 -1.1679
  687MOL0     H90665   8.469   9.107   8.913  1.9956 -0.4748 -0.5979
  687MOL0     H90666   8.229   9.943   8.923 -3.1300 -3.2322 -0.7937
  687MOL0     H90667   8.147  10.138   8.825  0.5501 -2.6868  0.2608
  687MOL0     H90668   7.983  10.728   9.084 -0.9569  0.6771  2.0725
  687MOL0     H90669   7.784  10.866   9.018 -1.5925 -0.0121  0.5517
  687MOL0     H90670   7.566  10.824   7.308 -1.0017 -1.0333  0.0029
  687MOL0     H90671   7.538  10.714   7.080 -0.3645 -0.4558 -0.5428
  687MOL0     H90672   7.502  10.716   6.645  1.5955 -1.6378 -1.0783
  687MOL0     H90673   7.473  10.538   6.484 -1.3418 -0.8099 -0.1201
  687MOL0     H90674   7.092  10.297   6.517  0.1570  1.2462  0.9532
  687MOL0     H90675   7.190  10.221   6.377 -0.7569  0.5840 -0.7550
  687MOL0     H90676   6.999  10.379   6.348 -0.6839  1.8879 -1.9539
  687MOL0     H90677   7.096  10.514   6.387  0.5395  1.4711 -1.4630
  687MOL0     H90678   7.086  10.480   6.156 -3.0408 -0.5334  4.4372
  687MOL0     H90679   7.148  10.309   6.157 -3.1918  0.6928 -3.6757
  687MOL0     H90680   7.305  10.532   6.098  0.3875 -2.3467 -2.1365
  687MOL0     H90681   7.299  10.534   6.283  2.9608 -1.1134  1.1696
  687MOL0     H90682   7.617  10.281   6.235  0.0694  0.4068  2.5160
  687MOL0     H90683   7.119  10.408   6.701  0.0328  0.3868  1.9256
  687MOL0     H90684   7.155  10.580   6.865 -2.1463  1.0895 -2.0503
  688MOL0     O90685   2.886   3.508   2.949  0.2039  0.1467 -0.5260
  688MOL0     C90686   2.958   3.441   3.024  0.1335 -0.1670  0.1477
  688MOL0     O90687   3.090   3.401   2.997 -0.0660 -0.2835  0.6610
  688MOL0     C90688   3.150   3.413   2.867  0.4270  0.3332 -0.7950
  688MOL0     C90689   3.218   3.529   2.832 -1.3592  1.0701 -0.5036
  688MOL0     C90690   3.299   3.533   2.713  0.1551  0.7269 -0.0874
  688MOL0     C90691   3.306   3.422   2.626  0.0174 -0.3764  0.5036
  688MOL0     O90692   3.387   3.414   2.515 -0.0349 -0.3171 -0.1078
  688MOL0     C90693   3.437   3.534   2.461 -0.7862  0.2132 -0.0628
  688MOL0     C90694   3.498   3.514   2.324  0.3225  0.7492  0.0698
  688MOL0     C90695   3.552   3.650   2.265 -0.6206  0.0111 -0.6182
  688MOL0     C90696   3.569   3.633   2.115 -0.4164 -0.7224 -0.0490
  688MOL0     C90697   3.652   3.745   2.054  0.4997  0.5867 -0.4742
  688MOL0     C90698   3.665   3.714   1.906  0.1580 -0.0556 -0.2527
  688MOL0     C90699   3.763   3.611   1.848  0.7338 -0.4899  0.1246
  688MOL0     C90700   3.875   3.675   1.769 -0.3758 -0.1475  0.9648
  688MOL0     N90701   3.981   3.728   1.861 -0.1631  0.4529  0.7159
  688MOL0     C90702   4.008   3.861   1.858  0.6010 -0.5705 -0.8016
  688MOL0     C90703   4.117   3.866   1.938 -0.4318  0.0689 -0.4002
  688MOL0     C90704   4.177   3.992   1.989  0.3515  1.1130  0.7537
  688MOL0     C90705   4.304   4.045   1.930 -0.0279 -0.1056  0.6160
  688MOL0     C90706   4.429   3.953   1.930  1.2101  0.1198  0.6152
  688MOL0     C90707   4.471   3.910   2.075  0.1897  0.2549 -0.0055
  688MOL0     O90708   4.604   3.852   2.075  1.2507  0.2573  0.4476
  688MOL0     C90709   4.609   3.728   2.016  0.3334  0.9617  0.8034
  688MOL0     C90710   4.506   3.629   2.021  0.0212  0.0813  1.2007
  688MOL0     C90711   4.547   3.495   2.012 -0.0973  0.5469  0.1603
  688MOL0     C90712   4.678   3.455   1.969 -0.3255 -0.3605 -0.1435
  688MOL0     C90713   4.724   3.311   1.964 -0.5520  0.3763 -0.9021
  688MOL0     O90714   4.832   3.276   1.881 -0.0551 -0.2989  0.8328
  688MOL0     C90715   4.919   3.170   1.910 -0.9776  0.5567 -0.0109
  688MOL0     C90716   4.878   3.042   1.951 -0.0507 -0.3659  0.2424
  688MOL0     C90717   4.974   2.939   1.981  0.5984  0.3665 -0.0242
  688MOL0     C90718   5.104   2.953   1.935 -0.1690 -0.3871 -0.9119
  688MOL0     O90719   5.182   2.841   1.951 -0.0604  0.0106  0.0525
  688MOL0     C90720   5.321   2.840   1.908  0.8891  0.2730  0.3723
  688MOL0     C90721   5.370   2.693   1.947 -0.4160  0.3614  0.4348
  688MOL0     C90722   5.315   2.583   1.861 -0.5184  0.1979  0.4661
  688MOL0     C90723   5.359   2.596   1.711  0.9362  0.6249 -0.8331
  688MOL0     C90724   5.383   2.464   1.637  0.0694 -0.6544  0.4025
  688MOL0     C90725   5.415   2.498   1.491 -0.7009 -0.0900  0.0647
  688MOL0     C90726   5.444   2.361   1.424  0.0378  1.2161 -0.1868
  688MOL0     C90727   5.486   2.378   1.283  0.2347 -0.3811  0.1058
  688MOL0    Cl90728   5.370   2.427   1.173 -0.4385  0.1564  0.1749
  688MOL0     C90729   5.146   3.075   1.879 -0.6734  0.1535  0.5268
  688MOL0     C90730   5.052   3.179   1.874  0.2307  0.6639 -0.9744
  688MOL0     O90731   4.672   3.234   2.050  0.4161  0.9254  0.0566
  688MOL0     C90732   4.768   3.557   1.934 -0.0226  0.0581  0.2432
  688MOL0     C90733   4.726   3.685   1.956  0.3025 -0.0147  0.6321
  688MOL0     N90734   4.140   3.744   1.993  0.1386 -0.1692 -0.0559
  688MOL0     N90735   4.061   3.657   1.943 -0.2057 -0.3730 -0.3876
  688MOL0     C90736   3.238   3.309   2.669  0.9853 -0.3793  0.2656
  688MOL0     C90737   3.149   3.306   2.780 -0.3588 -0.5655  1.8738
  688MOL0     C90738   2.894   3.422   3.159 -0.0332  0.6707 -0.3375
  688MOL0     C90739   2.964   3.366   3.264  0.1028 -1.3229  0.1149
  688MOL0     C90740   2.909   3.355   3.392  0.8152  0.8130  0.1869
  688MOL0     C90741   2.762   3.379   3.407 -0.4616  0.7755  0.3243
  688MOL0     O90742   2.685   3.366   3.517 -0.8842 -0.5869  0.6375
  688MOL0     C90743   2.716   3.413   3.647  0.3259  0.4448 -0.6296
  688MOL0     C90744   2.761   3.562   3.650 -0.3427 -0.0864  1.1006
  688MOL0     C90745   2.663   3.662   3.592  0.3944  0.6255 -0.6321
  688MOL0     C90746   2.696   3.806   3.638 -1.0696  0.6892  0.2739
  688MOL0     C90747   2.610   3.909   3.577  0.3354 -0.5578  0.1165
  688MOL0     C90748   2.538   4.007   3.545  0.2633 -0.4086  1.5273
  688MOL0     C90749   2.694   3.418   3.297  0.6367 -0.6693  1.1026
  688MOL0     C90750   2.759   3.453   3.178 -0.2047 -0.1208 -0.3066
  688MOL0     H90751   3.226   3.617   2.894 -2.0728 -0.6757  2.2627
  688MOL0     H90752   3.348   3.629   2.702  1.3176  0.4714  2.2596
  688MOL0     H90753   3.515   3.580   2.522 -0.2145 -1.3426  0.4334
  688MOL0     H90754   3.352   3.603   2.458 -1.0131 -0.0522  0.2211
  688MOL0     H90755   3.424   3.462   2.262 -2.2772  0.3542  3.2520
  688MOL0     H90756   3.577   3.439   2.340  1.2515  1.3241 -1.5910
  688MOL0     H90757   3.648   3.660   2.316  1.2581 -1.3091 -3.5967
  688MOL0     H90758   3.491   3.737   2.291  0.9824  0.8301  0.6148
  688MOL0     H90759   3.613   3.539   2.081  0.8537  0.5722 -2.2629
  688MOL0     H90760   3.469   3.643   2.072 -1.8954  3.2310  3.5626
  688MOL0     H90761   3.741   3.725   2.114 -1.7276  0.5843  3.2003
  688MOL0     H90762   3.628   3.851   2.067 -0.5228  0.1943  1.0909
  688MOL0     H90763   3.671   3.815   1.864 -0.3549  2.2635  4.5179
  688MOL0     H90764   3.564   3.696   1.867 -0.3870  3.2310 -0.5949
  688MOL0     H90765   3.811   3.560   1.932 -2.0648 -3.0917  0.3281
  688MOL0     H90766   3.705   3.539   1.789 -0.6412  1.1085 -0.5378
  688MOL0     H90767   3.851   3.769   1.719 -1.2347 -0.8568  0.0143
  688MOL0     H90768   3.921   3.608   1.696 -1.4158  2.1462 -1.9761
  688MOL0     H90769   3.960   3.935   1.795  1.3816 -1.2405 -2.2076
  688MOL0     H90770   4.185   3.977   2.097 -1.4209 -0.0095  0.7764
  688MOL0     H90771   4.102   4.071   1.981 -1.0625 -0.0187  2.2036
  688MOL0     H90772   4.323   4.142   1.975 -0.6301 -0.2290  1.1505
  688MOL0     H90773   4.286   4.061   1.823  5.5486 -0.7776 -0.7371
  688MOL0     H90774   4.411   3.867   1.866  3.0837  0.7743 -0.8889
  688MOL0     H90775   4.505   4.005   1.872  0.6266 -0.2478 -0.5191
  688MOL0     H90776   4.391   3.855   2.126  0.9062  0.7494  1.7137
  688MOL0     H90777   4.475   4.009   2.120 -2.6337  0.8190 -0.7542
  688MOL0     H90778   4.404   3.648   2.053 -0.1725 -1.9826  1.9219
  688MOL0     H90779   4.475   3.414   2.022 -1.8529  2.0119 -0.0794
  688MOL0     H90780   4.772   3.031   1.973 -0.2507 -1.0490 -0.9859
  688MOL0     H90781   4.944   2.842   2.020 -1.6750  1.1963  0.4472
  688MOL0     H90782   5.385   2.921   1.944  1.1892  0.3763 -0.3892
  688MOL0     H90783   5.315   2.855   1.800 -2.3887 -1.5599  0.1571
  688MOL0     H90784   5.344   2.678   2.052  2.9878 -0.4414  1.2815
  688MOL0     H90785   5.480   2.697   1.944 -0.4217  0.5149  0.4208
  688MOL0     H90786   5.205   2.585   1.866 -0.5361  0.9281 -0.0528
  688MOL0     H90787   5.342   2.483   1.894  1.0846  0.4239 -0.0737
  688MOL0     H90788   5.281   2.658   1.666 -1.4102  1.3984  3.6627
  688MOL0     H90789   5.455   2.645   1.697  2.6257 -2.2016 -0.1208
  688MOL0     H90790   5.296   2.398   1.646  0.0748 -0.5839  0.9935
  688MOL0     H90791   5.462   2.405   1.683  1.9469  0.7354 -0.8972
  688MOL0     H90792   5.507   2.556   1.481  0.3476 -1.8044 -0.6967
  688MOL0     H90793   5.338   2.547   1.431 -1.0247 -3.3519 -2.4396
  688MOL0     H90794   5.524   2.311   1.479 -0.3412  1.0131  0.1849
  688MOL0     H90795   5.364   2.288   1.439  0.9091  0.2964  0.0863
  688MOL0     H90796   5.515   2.279   1.246  2.3938  1.0286 -2.2837
  688MOL0     H90797   5.573   2.444   1.279 -0.5220  0.6589 -4.3687
  688MOL0     H90798   5.253   3.093   1.872 -1.0611  2.2436 -0.9928
  688MOL0     H90799   5.085   3.278   1.844  0.1414  1.1008  0.2875
  688MOL0     H90800   4.865   3.545   1.886  0.0373 -1.2333  0.6457
  688MOL0     H90801   4.780   3.780   1.952 -1.9331  1.4427  2.3683
  688MOL0     H90802   3.240   3.219   2.607  0.2029 -1.7266  2.0895
  688MOL0     H90803   3.100   3.210   2.789  0.7773 -1.5755 -1.1324
  688MOL0     H90804   3.068   3.344   3.241  0.5485  0.8714 -0.1975
  688MOL0     H90805   2.965   3.309   3.473  1.5923  0.1584 -0.7074
  688MOL0     H90806   2.799   3.362   3.697  3.0183  2.1727 -3.0088
  688MOL0     H90807   2.624   3.401   3.704  0.5736 -0.5501 -0.4187
  688MOL0     H90808   2.792   3.591   3.751  0.5873  1.8818  0.3163
  688MOL0     H90809   2.855   3.573   3.594 -0.9884 -0.8020 -0.1617
  688MOL0     H90810   2.562   3.638   3.626  0.8678 -0.9119 -0.2326
  688MOL0     H90811   2.663   3.664   3.482 -0.1517  0.4158 -0.6362
  688MOL0     H90812   2.673   3.802   3.745 -3.5678 -0.3716 -0.2316
  688MOL0     H90813   2.803   3.826   3.625 -0.6883 -1.5921 -0.6911
  688MOL0     H90814   2.496   4.098   3.508  3.7151  0.0680 -1.8696
  688MOL0     H90815   2.589   3.435   3.319  0.8518 -0.0334  1.6351
  688MOL0     H90816   2.707   3.493   3.091  4.3771  1.8669 -2.5031
  689MOL0     O90817   0.077   3.343   3.963  0.0132 -0.5189  0.2767
  689MOL0     C90818   0.041   3.259   4.044 -0.1260  0.0783 -0.6626
  689MOL0     O90819  -0.095   3.235   4.073 -0.2034  0.4716  0.3327
  689MOL0     C90820  -0.187   3.293   3.990 -0.4680 -1.3264 -1.1546
  689MOL0     C90821  -0.228   3.236   3.873  0.1451  0.1634 -0.0736
  689MOL0     C90822  -0.344   3.289   3.809  0.8707 -0.1692  0.9354
  689MOL0     C90823  -0.413   3.400   3.854 -1.1618  0.2928 -0.5626
  689MOL0     O90824  -0.518   3.444   3.779 -0.2837 -0.3046 -0.3571
  689MOL0     C90825  -0.496   3.578   3.738 -0.2311 -0.0557 -0.1525
  689MOL0     C90826  -0.427   3.581   3.601  0.1984 -0.2336  0.3427
  689MOL0     C90827  -0.287   3.634   3.620  0.5431 -0.1992  0.3908
  689MOL0     C90828  -0.199   3.621   3.493  0.1282 -0.2584 -0.1430
  689MOL0     C90829  -0.235   3.738   3.401  0.0432  0.2549  0.9706
  689MOL0     C90830  -0.186   3.699   3.266  0.0169 -0.3315 -0.3803
  689MOL0     C90831  -0.219   3.800   3.166  0.2804 -0.5881 -0.7085
  689MOL0     C90832  -0.360   3.834   3.153  0.7596 -0.1553 -0.3685
  689MOL0     N90833  -0.386   3.922   3.040  0.1975 -0.6397 -0.6150
  689MOL0     C90834  -0.319   4.038   3.026 -0.0270  0.3290 -0.7630
  689MOL0     C90835  -0.360   4.070   2.896  0.3750  1.0947  0.8232
  689MOL0     C90836  -0.326   4.199   2.811  1.0573  0.0392  0.4023
  689MOL0     C90837  -0.264   4.170   2.674 -0.2244 -0.0985  0.5256
  689MOL0     C90838  -0.145   4.068   2.671  0.2350 -0.3957 -0.1447
  689MOL0     C90839  -0.025   4.110   2.756  0.7132  0.0597  0.2639
  689MOL0     O90840   0.022   4.234   2.713  0.0622 -0.1616  0.1424
  689MOL0     C90841   0.115   4.304   2.800 -0.6008  0.8626 -0.0559
  689MOL0     C90842   0.217   4.240   2.868 -1.0294  0.3297  0.5231
  689MOL0     C90843   0.312   4.309   2.939  0.6197  1.2796  0.2793
  689MOL0     C90844   0.295   4.452   2.948  0.1738  0.7209 -0.4069
  689MOL0     C90845   0.375   4.524   3.048 -0.1140 -0.4143  1.0470
  689MOL0     O90846   0.363   4.658   3.051 -0.1251 -0.8669 -0.1302
  689MOL0     C90847   0.366   4.731   3.170 -0.1433  0.3809  0.6848
  689MOL0     C90848   0.327   4.691   3.303  0.2933  0.6958  0.8396
  689MOL0     C90849   0.340   4.787   3.398  0.2748 -0.1971 -0.3917
  689MOL0     C90850   0.388   4.917   3.372  0.3908  0.6814  0.1095
  689MOL0     O90851   0.387   5.007   3.474  0.3419 -0.0719  0.3631
  689MOL0     C90852   0.474   5.124   3.467 -0.4664 -0.1979 -0.0693
  689MOL0     C90853   0.507   5.158   3.610 -0.2911 -0.6290 -1.2495
  689MOL0     C90854   0.385   5.236   3.667 -0.4459 -0.1339 -0.6931
  689MOL0     C90855   0.391   5.264   3.817  0.7975 -0.0045  0.5223
  689MOL0     C90856   0.337   5.140   3.897  1.2818  0.7052  0.0057
  689MOL0     C90857   0.316   5.161   4.039  1.0028  0.3015  0.0756
  689MOL0     C90858   0.229   5.290   4.068  0.7410  0.3948 -0.4789
  689MOL0     C90859   0.152   5.280   4.200  0.5042 -0.0642  0.3095
  689MOL0    Cl90860   0.081   5.432   4.274  0.5440  0.2209  0.1392
  689MOL0     C90861   0.431   4.951   3.249 -0.5207 -0.0369  0.1892
  689MOL0     C90862   0.416   4.857   3.147 -0.1477 -0.5897  0.4037
  689MOL0     O90863   0.442   4.460   3.132  0.6012 -0.1042 -0.1538
  689MOL0     C90864   0.193   4.517   2.876  0.6082 -0.8327  0.1891
  689MOL0     C90865   0.103   4.439   2.806 -0.1619  0.2110  0.5688
  689MOL0     N90866  -0.452   3.982   2.836 -0.7595  0.5506 -0.3683
  689MOL0     N90867  -0.462   3.892   2.931  0.3967  0.0662 -0.1275
  689MOL0     C90868  -0.363   3.463   3.977 -0.7476 -0.7786  0.2596
  689MOL0     C90869  -0.255   3.409   4.043  0.0309 -0.1703  0.8049
  689MOL0     C90870   0.145   3.194   4.133  0.4160 -0.6994 -0.1663
  689MOL0     C90871   0.263   3.256   4.146  1.2818 -0.1453 -0.6061
  689MOL0     C90872   0.356   3.206   4.231 -0.4184 -0.5988  0.7278
  689MOL0     C90873   0.337   3.100   4.319 -0.2112  0.6859  0.6830
  689MOL0     O90874   0.428   3.053   4.417 -0.1961  0.0523  0.8432
  689MOL0     C90875   0.563   3.099   4.407 -0.8019  0.9074  0.0264
  689MOL0     C90876   0.649   3.035   4.299 -0.1782  1.0985 -0.3631
  689MOL0     C90877   0.783   3.099   4.295  0.9269  0.7283 -0.5127
  689MOL0     C90878   0.798   3.256   4.264  0.8269  0.4891 -0.0740
  689MOL0     C90879   0.729   3.300   4.138 -0.2948 -0.4716 -0.5946
  689MOL0     C90880   0.686   3.334   4.029 -0.0707 -0.5080 -0.4553
  689MOL0     C90881   0.212   3.033   4.308 -0.2153  0.9150  0.6276
  689MOL0     C90882   0.120   3.079   4.210 -0.3980 -0.1610  0.8276
  689MOL0     H90883  -0.174   3.146   3.847  0.0629 -1.4247  4.3748
  689MOL0     H90884  -0.375   3.238   3.718 -3.7256  1.8900  1.0665
  689MOL0     H90885  -0.445   3.647   3.805  1.5548 -0.7777 -0.7116
  689MOL0     H90886  -0.596   3.621   3.721  0.5012  2.8348  2.0277
  689MOL0     H90887  -0.491   3.653   3.549  1.2024  0.8826  0.5856
  689MOL0     H90888  -0.430   3.498   3.531  1.9863 -0.8769  0.9615
  689MOL0     H90889  -0.244   3.578   3.704  0.0091 -1.0491  0.1155
  689MOL0     H90890  -0.291   3.739   3.650  1.0541  0.1489 -0.7057
  689MOL0     H90891  -0.093   3.635   3.516 -0.0152  3.2638 -0.9944
  689MOL0     H90892  -0.223   3.528   3.440  4.9142 -1.9950  0.2242
  689MOL0     H90893  -0.182   3.828   3.435 -0.5293  0.0665  2.4253
  689MOL0     H90894  -0.342   3.761   3.395 -1.0104 -4.1806 -1.5049
  689MOL0     H90895  -0.230   3.604   3.235 -1.9809  0.5138 -0.2838
  689MOL0     H90896  -0.078   3.691   3.277  0.4487  4.6670  2.1074
  689MOL0     H90897  -0.175   3.898   3.186 -2.2146  0.1189  1.9964
  689MOL0     H90898  -0.181   3.774   3.066  1.7287 -0.4832 -0.1968
  689MOL0     H90899  -0.398   3.877   3.246  3.7221  1.3537  0.2870
  689MOL0     H90900  -0.428   3.751   3.133 -0.5796  0.0739  2.6636
  689MOL0     H90901  -0.247   4.075   3.099 -2.0108 -0.0130  1.4957
  689MOL0     H90902  -0.253   4.255   2.871  1.3769  0.3213 -0.2359
  689MOL0     H90903  -0.411   4.263   2.789 -1.0407 -2.4616  0.7328
  689MOL0     H90904  -0.228   4.256   2.617  1.6669 -1.0559  0.2047
  689MOL0     H90905  -0.338   4.125   2.607  1.2968  0.2237 -1.4427
  689MOL0     H90906  -0.174   3.971   2.714 -0.9340 -0.0005 -0.0024
  689MOL0     H90907  -0.123   4.063   2.564 -0.5024  1.2394 -0.3980
  689MOL0     H90908   0.056   4.037   2.747  0.6010  0.0319 -0.6911
  689MOL0     H90909  -0.050   4.120   2.862  0.3245  1.3215  0.0728
  689MOL0     H90910   0.224   4.134   2.849  1.3885 -0.1524  3.4655
  689MOL0     H90911   0.393   4.256   2.987  0.4891  0.1719 -0.6644
  689MOL0     H90912   0.301   4.589   3.329 -1.1194  1.1484  1.2789
  689MOL0     H90913   0.297   4.767   3.496 -0.7296  2.3544 -0.2433
  689MOL0     H90914   0.425   5.206   3.414  0.2718  1.0696  1.1494
  689MOL0     H90915   0.569   5.101   3.418  0.3823  1.5524  0.6573
  689MOL0     H90916   0.600   5.216   3.615  1.0637 -2.8019  1.6878
  689MOL0     H90917   0.515   5.062   3.661  1.6826  0.2412  0.2030
  689MOL0     H90918   0.295   5.175   3.651  1.2411 -2.8690 -0.4669
  689MOL0     H90919   0.379   5.331   3.614  0.1804 -0.2323 -0.9550
  689MOL0     H90920   0.489   5.311   3.833  0.6785  0.5925 -0.3649
  689MOL0     H90921   0.320   5.345   3.837 -0.2298 -0.9664  0.8680
  689MOL0     H90922   0.397   5.051   3.875 -0.0197  0.2027 -1.7829
  689MOL0     H90923   0.237   5.124   3.856  0.7811  0.3185  1.3415
  689MOL0     H90924   0.419   5.175   4.073  3.0759 -2.4362 -4.2475
  689MOL0     H90925   0.276   5.068   4.082  1.6906  0.3024  0.7363
  689MOL0     H90926   0.290   5.381   4.067  1.0249  0.3246  2.0990
  689MOL0     H90927   0.158   5.304   3.986  1.9208  0.6137 -1.4958
  689MOL0     H90928   0.214   5.241   4.281 -2.0652 -1.6808  1.6419
  689MOL0     H90929   0.068   5.214   4.176  0.0220  1.5120 -2.8572
  689MOL0     H90930   0.460   5.048   3.209 -0.5845 -0.2591 -0.4076
  689MOL0     H90931   0.446   4.884   3.046  0.1076 -1.2030  0.3076
  689MOL0     H90932   0.180   4.623   2.894 -0.9457 -1.1567  1.0973
  689MOL0     H90933   0.025   4.489   2.751  0.5525  2.4605  1.4750
  689MOL0     H90934  -0.407   3.550   4.025  1.2082 -0.9923  2.6140
  689MOL0     H90935  -0.224   3.457   4.136  1.1414 -2.6792  1.8152
  689MOL0     H90936   0.297   3.346   4.097 -0.4475  1.4190  0.9427
  689MOL0     H90937   0.439   3.275   4.244 -2.1289  1.1693  3.2998
  689MOL0     H90938   0.611   3.089   4.505 -0.1241  1.5278 -0.2332
  689MOL0     H90939   0.559   3.206   4.387 -4.1979  0.8054 -0.4612
  689MOL0     H90940   0.659   2.928   4.316  0.9252  1.2795  0.2083
  689MOL0     H90941   0.606   3.047   4.199  0.1197 -0.3979 -0.6936
  689MOL0     H90942   0.836   3.059   4.208  0.4935  0.4458 -0.6472
  689MOL0     H90943   0.835   3.066   4.386 -1.1485 -2.5842 -0.3393
  689MOL0     H90944   0.766   3.306   4.356  0.3795 -3.4474  2.1645
  689MOL0     H90945   0.905   3.274   4.249  0.6850  3.0306  1.4040
  689MOL0     H90946   0.641   3.345   3.933  1.7646 -1.5798 -1.5009
  689MOL0     H90947   0.187   2.945   4.365  0.7117  1.7403  2.3753
  689MOL0     H90948   0.030   3.019   4.211 -0.5478  0.0531  0.3387
  690MOL0     O90949   4.783   9.791   5.976 -0.0195  0.3408 -0.0560
  690MOL0     C90950   4.730   9.676   5.960 -0.3348  0.2594 -0.3944
  690MOL0     O90951   4.665   9.636   5.858 -0.4600  0.1314  0.3413
  690MOL0     C90952   4.656   9.714   5.741 -0.3024  0.5357  0.0522
  690MOL0     C90953   4.573   9.827   5.729  0.2891 -0.0112 -0.0208
  690MOL0     C90954   4.585   9.901   5.609 -0.4941  0.2430 -1.2493
  690MOL0     C90955   4.675   9.860   5.503 -0.8191  0.5387 -0.1024
  690MOL0     O90956   4.702   9.935   5.387  0.1327 -0.6114 -1.3884
  690MOL0     C90957   4.630  10.059   5.389 -0.3466 -0.4225  0.2978
  690MOL0     C90958   4.666  10.126   5.248  0.6291  0.1665  0.1611
  690MOL0     C90959   4.814  10.168   5.237 -0.2295 -0.8888  0.5405
  690MOL0     C90960   4.856  10.283   5.332 -0.5472 -0.0496  0.2096
  690MOL0     C90961   4.992  10.337   5.277 -0.2600 -0.6651 -0.0723
  690MOL0     C90962   5.024  10.481   5.333 -0.1617  0.5441 -0.3930
  690MOL0     C90963   5.140  10.527   5.245  0.4522  0.5458 -1.4342
  690MOL0     C90964   5.200  10.653   5.303 -0.1458 -0.0661 -0.6408
  690MOL0     N90965   5.323  10.678   5.227  0.6112  0.7613  0.8152
  690MOL0     C90966   5.448  10.627   5.267  0.0330  0.2398 -0.1722
  690MOL0     C90967   5.534  10.684   5.178 -1.4028 -0.8893 -0.3430
  690MOL0     C90968   5.680  10.658   5.175  0.3656 -0.4529 -0.2639
  690MOL0     C90969   5.717  10.533   5.092 -0.0489  0.1002 -0.5097
  690MOL0     C90970   5.701  10.548   4.936 -0.0126 -0.5212  0.0465
  690MOL0     C90971   5.748  10.421   4.869  0.5828  0.1652  1.1960
  690MOL0     O90972   5.877  10.377   4.913 -0.1646 -0.1975  0.2072
  690MOL0     C90973   5.934  10.281   4.840 -0.3768  0.4208 -0.7076
  690MOL0     C90974   5.858  10.160   4.815  0.6314  0.7776 -0.2954
  690MOL0     C90975   5.920  10.055   4.750  0.6345 -0.2980 -0.3185
  690MOL0     C90976   6.052  10.058   4.703 -0.1395  0.9605 -0.3427
  690MOL0     C90977   6.110   9.950   4.619 -0.4623  0.1313 -0.1833
  690MOL0     O90978   6.196   9.994   4.524  0.4647  0.1447 -0.1645
  690MOL0     C90979   6.250   9.887   4.445  0.3670 -0.3368  0.8856
  690MOL0     C90980   6.325   9.777   4.492 -0.3904  0.4984  0.6638
  690MOL0     C90981   6.393   9.695   4.407  0.5601  0.0380  0.9193
  690MOL0     C90982   6.402   9.717   4.265  0.2553  0.0535 -0.7866
  690MOL0     O90983   6.471   9.617   4.200 -0.1231 -0.6475  0.0484
  690MOL0     C90984   6.525   9.645   4.071  0.0588 -0.2368 -0.3239
  690MOL0     C90985   6.668   9.707   4.081 -0.1892  0.0327  0.4145
  690MOL0     C90986   6.756   9.609   4.157  0.4002 -0.3230 -0.1845
  690MOL0     C90987   6.777   9.480   4.083 -0.0029  0.2202  1.0792
  690MOL0     C90988   6.876   9.384   4.159 -0.3737  0.5099 -0.3633
  690MOL0     C90989   7.009   9.442   4.206 -0.1284  0.3702  0.5759
  690MOL0     C90990   7.083   9.339   4.290  0.4719  0.8983  0.7641
  690MOL0     C90991   7.238   9.368   4.297  0.1003  0.9418 -1.1239
  690MOL0    Cl90992   7.324   9.225   4.361  0.0747  0.1026 -0.2380
  690MOL0     C90993   6.330   9.825   4.211 -0.2378 -0.0706  0.5187
  690MOL0     C90994   6.257   9.907   4.303 -0.4368 -0.2687 -0.3226
  690MOL0     O90995   6.059   9.838   4.628 -0.1856 -0.2199  0.1954
  690MOL0     C90996   6.119  10.180   4.720 -0.2587  0.6663  0.0598
  690MOL0     C90997   6.070  10.279   4.802  0.1750  0.1514  0.7694
  690MOL0     N90998   5.458  10.776   5.099 -0.4746  0.1847 -0.1361
  690MOL0     N90999   5.339  10.766   5.119  0.7046 -0.7401  0.4822
  690MOL0     C91000   4.744   9.736   5.515  0.8363  0.4817 -1.9565
  690MOL0     C91001   4.732   9.664   5.633 -0.8110  0.9477  0.0899
  690MOL0     C91002   4.748   9.567   6.070 -0.6316  0.3000  0.5012
  690MOL0     C91003   4.696   9.441   6.061 -0.8039 -1.0047  0.4419
  690MOL0     C91004   4.722   9.340   6.154  0.8450  0.1936  0.3963
  690MOL0     C91005   4.774   9.379   6.280 -0.0207  0.2909 -0.3458
  690MOL0     O91006   4.776   9.282   6.376 -0.3605  0.2200  0.6817
  690MOL0     C91007   4.842   9.289   6.499 -0.6067  0.3926  0.4264
  690MOL0     C91008   4.796   9.171   6.589 -0.2302  0.4648 -0.6142
  690MOL0     C91009   4.854   9.033   6.558 -0.2417 -0.5863  1.1230
  690MOL0     C91010   4.985   9.016   6.642 -0.5233  0.2596  0.0352
  690MOL0     C91011   5.098   9.076   6.583  0.1931  0.7972  0.1558
  690MOL0     C91012   5.193   9.109   6.528  0.2918  0.6561  0.0051
  690MOL0     C91013   4.829   9.508   6.283 -0.0676 -0.6363 -0.1896
  690MOL0     C91014   4.817   9.593   6.184 -0.6385  0.0751  0.9158
  690MOL0     H91015   4.504   9.863   5.805  2.2210  2.0704  0.8740
  690MOL0     H91016   4.516   9.984   5.597  0.4658  0.9417 -2.1486
  690MOL0     H91017   4.657  10.129   5.469  0.2728  0.2014 -0.4432
  690MOL0     H91018   4.521  10.046   5.383 -0.6223  0.3624  2.5937
  690MOL0     H91019   4.606  10.216   5.234  0.3788  0.0719  0.6094
  690MOL0     H91020   4.652  10.058   5.163  1.5796 -0.6133  0.6191
  690MOL0     H91021   4.816  10.195   5.131 -4.5402 -0.8894  0.2866
  690MOL0     H91022   4.880  10.083   5.258  1.6966 -0.5018 -3.0650
  690MOL0     H91023   4.788  10.369   5.329 -0.1525  0.2837  0.6475
  690MOL0     H91024   4.862  10.251   5.437  1.0075 -0.2550  0.0816
  690MOL0     H91025   5.003  10.325   5.169  1.7846  0.5744 -0.0600
  690MOL0     H91026   5.060  10.267   5.326 -0.8766 -1.9418 -0.9856
  690MOL0     H91027   5.039  10.483   5.441  1.0640  6.3579 -0.3495
  690MOL0     H91028   4.938  10.542   5.306 -2.0073 -0.1285  3.3341
  690MOL0     H91029   5.218  10.451   5.251  1.5181  1.6248 -1.1257
  690MOL0     H91030   5.104  10.550   5.145 -1.1306  0.7560 -0.8413
  690MOL0     H91031   5.201  10.664   5.412 -2.9604 -1.9598 -0.3308
  690MOL0     H91032   5.139  10.740   5.277 -0.4564 -0.3763 -0.9451
  690MOL0     H91033   5.478  10.557   5.344 -0.1473 -1.1125 -1.2973
  690MOL0     H91034   5.711  10.641   5.279 -0.0169  0.3378 -0.0146
  690MOL0     H91035   5.731  10.750   5.146 -0.6312  0.6828  1.3795
  690MOL0     H91036   5.662  10.452   5.140  0.1214  1.0522  1.3775
  690MOL0     H91037   5.818  10.496   5.109 -1.3191 -4.5422 -1.6992
  690MOL0     H91038   5.597  10.567   4.911 -0.7122 -2.4072  1.3149
  690MOL0     H91039   5.775  10.626   4.913  1.9248 -2.9064 -2.5323
  690MOL0     H91040   5.746  10.433   4.761  0.6346 -1.0650  1.0424
  690MOL0     H91041   5.672  10.350   4.901 -1.5947  0.9474 -1.7925
  690MOL0     H91042   5.757  10.139   4.848  1.1120 -2.0840 -0.3374
  690MOL0     H91043   5.854   9.968   4.748 -0.5504  0.5675 -0.2522
  690MOL0     H91044   6.322   9.750   4.597  0.9858  3.2382  1.5053
  690MOL0     H91045   6.433   9.599   4.436  0.1286 -0.2978  0.4327
  690MOL0     H91046   6.463   9.706   4.004 -0.2515 -0.1620  0.0315
  690MOL0     H91047   6.527   9.549   4.019 -1.2956 -1.2743  1.4385
  690MOL0     H91048   6.667   9.800   4.137  3.4130  1.2940 -1.3244
  690MOL0     H91049   6.706   9.733   3.982  0.0568 -0.3510  0.4026
  690MOL0     H91050   6.702   9.570   4.244  0.1383  0.2365 -0.0988
  690MOL0     H91051   6.856   9.650   4.174  1.5414 -1.4761 -3.3410
  690MOL0     H91052   6.689   9.415   4.077  1.4710 -1.7372 -0.5793
  690MOL0     H91053   6.806   9.502   3.980  3.0476  3.1559  2.3349
  690MOL0     H91054   6.892   9.301   4.089  0.7113 -0.1749  0.6743
  690MOL0     H91055   6.821   9.344   4.244  1.1615 -1.7136 -0.3166
  690MOL0     H91056   7.003   9.530   4.271  0.9853  1.1224 -0.2979
  690MOL0     H91057   7.071   9.470   4.120  0.2998 -0.1384  0.7145
  690MOL0     H91058   7.046   9.333   4.393 -1.9567  2.1762  0.0642
  690MOL0     H91059   7.076   9.241   4.244 -0.6412  2.0827 -1.7731
  690MOL0     H91060   7.252   9.445   4.374  2.0312 -0.9963  0.5799
  690MOL0     H91061   7.272   9.390   4.195  0.4061 -0.2679 -1.2937
  690MOL0     H91062   6.317   9.838   4.104  2.6436 -3.3583 -0.4047
  690MOL0     H91063   6.200   9.995   4.276 -0.1930  0.6668  1.9198
  690MOL0     H91064   6.225  10.176   4.696  0.1558 -0.9522  1.9123
  690MOL0     H91065   6.135  10.362   4.828  0.2309 -0.2361  1.9439
  690MOL0     H91066   4.808   9.687   5.442  1.4442  0.5847 -1.4962
  690MOL0     H91067   4.798   9.578   5.643  1.3191  2.5536  0.4458
  690MOL0     H91068   4.640   9.418   5.970 -0.6321 -1.3985  0.4350
  690MOL0     H91069   4.683   9.243   6.127 -1.1386  1.4009 -1.3310
  690MOL0     H91070   4.824   9.381   6.556 -0.2685 -0.4710  1.9643
  690MOL0     H91071   4.950   9.282   6.482 -0.7533 -1.7946  0.1957
  690MOL0     H91072   4.810   9.193   6.695  5.1705 -2.9529 -0.1772
  690MOL0     H91073   4.688   9.156   6.580 -0.8546  2.8370  1.6250
  690MOL0     H91074   4.861   9.036   6.449  0.6753  0.3972  1.1844
  690MOL0     H91075   4.790   8.946   6.576  1.1090 -2.4287 -2.1731
  690MOL0     H91076   4.968   9.068   6.737 -0.1418  2.1994 -0.9287
  690MOL0     H91077   5.005   8.908   6.649 -2.2563 -0.2716 -2.1428
  690MOL0     H91078   5.287   9.142   6.491 -0.6705  1.4578 -1.8870
  690MOL0     H91079   4.891   9.532   6.369  0.2551 -1.1404 -0.2771
  690MOL0     H91080   4.857   9.690   6.209 -0.3566 -0.3055  2.0092
  691MOL0     O91081   1.917   6.448   6.888 -0.4141 -0.7714  0.9543
  691MOL0     C91082   1.977   6.353   6.843  0.3306  0.0939  0.8869
  691MOL0     O91083   2.016   6.237   6.910  0.6946 -0.2961  0.1551
  691MOL0     C91084   1.980   6.204   7.042 -0.1779 -0.9574  0.3285
  691MOL0     C91085   1.959   6.076   7.080  0.3941  0.8386 -0.2456
  691MOL0     C91086   1.931   6.035   7.219  0.2347  0.5645  0.4073
  691MOL0     C91087   1.926   6.134   7.315  0.4671 -0.1422 -0.0373
  691MOL0     O91088   1.898   6.095   7.442  0.6935  0.5664 -0.4023
  691MOL0     C91089   2.018   6.063   7.513  0.0094 -0.3047 -0.4422
  691MOL0     C91090   1.983   6.093   7.666  0.4815  0.6129  0.7754
  691MOL0     C91091   2.070   6.021   7.782 -0.0924 -0.6775  0.3287
  691MOL0     C91092   2.119   5.877   7.744 -0.4018 -0.0958  0.1751
  691MOL0     C91093   2.159   5.802   7.866 -0.1436 -0.6280 -0.2158
  691MOL0     C91094   2.263   5.869   7.963  0.6250 -0.1881 -0.0085
  691MOL0     C91095   2.247   5.798   8.099 -0.5541 -0.3748  0.3170
  691MOL0     C91096   2.151   5.880   8.180 -0.5536  0.9826 -0.2184
  691MOL0     N91097   2.093   5.803   8.286 -0.2120  0.3106  0.2642
  691MOL0     C91098   1.981   5.737   8.272  0.1309 -0.3105 -1.4835
  691MOL0     C91099   1.956   5.684   8.400 -0.4110  0.3529 -0.3315
  691MOL0     C91100   1.843   5.586   8.429  0.1252 -0.9746  0.0242
  691MOL0     C91101   1.879   5.443   8.440  0.2516 -0.1134  0.4578
  691MOL0     C91102   1.925   5.366   8.316  0.0444  0.2527 -0.6583
  691MOL0     C91103   1.824   5.378   8.206  0.3760  0.5311  0.0354
  691MOL0     O91104   1.844   5.490   8.117  0.4830  0.1042  0.3270
  691MOL0     C91105   1.809   5.454   7.980  0.0968 -0.5360  0.4757
  691MOL0     C91106   1.892   5.499   7.878 -0.2917 -0.7094  0.5555
  691MOL0     C91107   1.871   5.477   7.739  0.0556  0.5432 -0.7904
  691MOL0     C91108   1.742   5.418   7.703 -0.2301  0.1868 -0.2952
  691MOL0     C91109   1.709   5.421   7.559  0.4017 -0.3164 -0.4298
  691MOL0     O91110   1.803   5.487   7.476 -0.0200  0.5416 -0.2270
  691MOL0     C91111   1.793   5.453   7.344  0.3536  0.2385  1.5235
  691MOL0     C91112   1.682   5.457   7.262 -0.1636 -0.2250 -0.0074
  691MOL0     C91113   1.704   5.437   7.126  0.3481  0.5321  0.0835
  691MOL0     C91114   1.828   5.405   7.070 -0.4777  0.2381 -0.2657
  691MOL0     O91115   1.827   5.387   6.936  0.3620  0.2688  0.1981
  691MOL0     C91116   1.954   5.341   6.878  0.7158  0.9984 -0.0699
  691MOL0     C91117   1.919   5.297   6.730 -0.2054 -0.4378 -1.0191
  691MOL0     C91118   2.053   5.240   6.683 -0.2786  0.2689 -0.0311
  691MOL0     C91119   2.063   5.225   6.526 -0.5088 -0.0414  0.1865
  691MOL0     C91120   2.209   5.218   6.485 -0.6963  0.5054  0.5339
  691MOL0     C91121   2.224   5.237   6.340  0.3116  1.2763  0.9223
  691MOL0     C91122   2.373   5.230   6.291  0.7837  0.3885 -0.8285
  691MOL0     C91123   2.415   5.281   6.155 -0.2716 -0.1174 -1.2855
  691MOL0    Cl91124   2.381   5.455   6.119  0.0014  0.2445 -0.1887
  691MOL0     C91125   1.941   5.398   7.155  0.0173 -0.9299 -0.6434
  691MOL0     C91126   1.921   5.425   7.287  0.4199  0.2845 -0.4006
  691MOL0     O91127   1.595   5.383   7.521 -0.3684 -0.0780  0.3202
  691MOL0     C91128   1.651   5.389   7.802 -0.4817  0.6357 -0.4519
  691MOL0     C91129   1.683   5.400   7.944  0.0175  0.5954  0.0081
  691MOL0     N91130   2.056   5.723   8.489 -0.8560 -0.8134 -0.5160
  691MOL0     N91131   2.138   5.787   8.410 -0.2732  0.0073 -0.1410
  691MOL0     C91132   1.940   6.269   7.283  0.1942 -0.4302  0.0970
  691MOL0     C91133   1.969   6.301   7.148 -0.2591 -0.8541  0.2746
  691MOL0     C91134   1.990   6.333   6.699 -0.1078  0.5883 -0.5246
  691MOL0     C91135   2.040   6.214   6.640 -0.0771  0.9111 -0.0916
  691MOL0     C91136   2.027   6.188   6.506 -0.5256 -0.1196  0.1990
  691MOL0     C91137   1.971   6.281   6.421  0.0226 -0.2874  0.2488
  691MOL0     O91138   1.958   6.252   6.283  0.4034 -0.0368 -0.1773
  691MOL0     C91139   1.835   6.214   6.226 -0.1036 -0.0164 -0.9049
  691MOL0     C91140   1.867   6.140   6.092 -0.1244  0.7718  0.5187
  691MOL0     C91141   1.736   6.099   6.029  0.5399 -0.1477 -0.1640
  691MOL0     C91142   1.750   6.037   5.893  0.4689 -0.3060  0.0351
  691MOL0     C91143   1.741   6.125   5.779 -0.2227 -0.8719 -0.0011
  691MOL0     C91144   1.713   6.199   5.682  0.1933  0.6910 -0.0820
  691MOL0     C91145   1.920   6.408   6.478 -0.3119  0.0321  0.2642
  691MOL0     C91146   1.929   6.433   6.618  0.0012 -0.0673 -0.2329
  691MOL0     H91147   1.965   6.000   7.003  2.3876  1.0735 -0.3884
  691MOL0     H91148   1.911   5.935   7.255 -1.2592  0.4635 -0.6300
  691MOL0     H91149   2.108   6.117   7.481  0.0118 -0.0004  0.0639
  691MOL0     H91150   2.043   5.958   7.497 -1.4876 -0.5324 -1.5426
  691MOL0     H91151   1.878   6.064   7.682  0.0946  2.2037  1.2733
  691MOL0     H91152   1.981   6.200   7.687 -1.0559  1.3351 -2.4628
  691MOL0     H91153   2.000   6.013   7.866 -2.1253  3.8983 -0.6212
  691MOL0     H91154   2.151   6.090   7.809  0.0816 -1.1602  1.0925
  691MOL0     H91155   2.041   5.815   7.700 -1.8811  1.2618  0.7730
  691MOL0     H91156   2.207   5.889   7.680  0.3369  1.9861  1.4491
  691MOL0     H91157   2.196   5.707   7.827 -0.4285 -0.9085  0.1914
  691MOL0     H91158   2.073   5.784   7.931  1.5677  1.5947  2.9425
  691MOL0     H91159   2.263   5.978   7.971  6.7876  0.5241 -3.2692
  691MOL0     H91160   2.367   5.852   7.933  1.9978  0.5067  3.8540
  691MOL0     H91161   2.203   5.700   8.075 -1.0425 -0.2858  0.8218
  691MOL0     H91162   2.344   5.794   8.149  0.9324 -0.0267 -2.3480
  691MOL0     H91163   2.060   5.916   8.131 -1.8210  1.2663  2.2047
  691MOL0     H91164   2.197   5.973   8.216 -1.1212  2.0866 -2.1668
  691MOL0     H91165   1.933   5.724   8.176  1.4254  4.1301 -2.9642
  691MOL0     H91166   1.762   5.602   8.357  1.4625  3.2350 -0.8199
  691MOL0     H91167   1.791   5.622   8.519 -1.2997  3.3561 -2.2165
  691MOL0     H91168   1.796   5.389   8.487 -1.3834 -0.2613 -2.4145
  691MOL0     H91169   1.957   5.441   8.517 -0.0126 -4.2792  0.8515
  691MOL0     H91170   2.021   5.406   8.282 -0.3707  2.6200  0.6745
  691MOL0     H91171   1.935   5.260   8.338 -1.2039  0.5006  1.3703
  691MOL0     H91172   1.721   5.385   8.242  0.1465  1.8455 -0.8029
  691MOL0     H91173   1.841   5.289   8.145  0.9596 -0.8179  2.0571
  691MOL0     H91174   1.959   5.576   7.914  0.1804 -1.5253  1.4598
  691MOL0     H91175   1.941   5.512   7.664 -0.2798  1.2643 -0.7740
  691MOL0     H91176   1.579   5.481   7.288 -0.4825  0.2179 -1.5637
  691MOL0     H91177   1.619   5.430   7.059  0.4874 -0.4576 -0.0102
  691MOL0     H91178   1.994   5.253   6.929 -0.0559  0.1136 -0.9454
  691MOL0     H91179   2.027   5.421   6.891 -0.2804  1.6563  1.9521
  691MOL0     H91180   1.890   5.383   6.669 -2.3370  0.0842  0.6376
  691MOL0     H91181   1.844   5.217   6.731 -1.0370  0.3345 -0.7285
  691MOL0     H91182   2.068   5.143   6.731  1.5432  0.6908  0.3155
  691MOL0     H91183   2.130   5.311   6.714 -0.6104 -0.3081  2.2653
  691MOL0     H91184   2.009   5.136   6.493  0.1280  0.1453 -1.4961
  691MOL0     H91185   2.016   5.311   6.478  1.0259  1.0703  0.5739
  691MOL0     H91186   2.249   5.121   6.516  0.6561  0.8805  0.0507
  691MOL0     H91187   2.266   5.295   6.538  1.1304 -0.3229 -0.1467
  691MOL0     H91188   2.204   5.343   6.321  2.1883  1.2698 -1.5585
  691MOL0     H91189   2.170   5.165   6.278 -0.0489  1.4353  1.0545
  691MOL0     H91190   2.427   5.288   6.366 -1.4937 -0.0123  1.2535
  691MOL0     H91191   2.400   5.124   6.296 -2.8618 -0.6523  0.2768
  691MOL0     H91192   2.359   5.212   6.093  2.2320 -2.2460 -1.3276
  691MOL0     H91193   2.519   5.266   6.125 -0.3777 -0.3464 -1.5366
  691MOL0     H91194   2.037   5.361   7.120 -0.3925 -5.2034  1.9923
  691MOL0     H91195   2.010   5.396   7.342 -0.0468 -0.2906  0.0684
  691MOL0     H91196   1.551   5.357   7.772  0.3108 -0.8993 -1.5976
  691MOL0     H91197   1.615   5.396   8.028  2.8536 -0.0945  2.4599
  691MOL0     H91198   1.946   6.354   7.350 -2.2230  2.2402 -2.7615
  691MOL0     H91199   1.999   6.403   7.128 -2.1948 -0.0188  1.3765
  691MOL0     H91200   2.080   6.128   6.693 -1.8688 -0.9577 -1.5865
  691MOL0     H91201   2.051   6.099   6.449  0.3392  1.4944 -2.1588
  691MOL0     H91202   1.769   6.300   6.219  0.0888  0.1486 -0.7024
  691MOL0     H91203   1.785   6.145   6.295  3.8198 -1.6154  0.6647
  691MOL0     H91204   1.917   6.195   6.012  1.2760 -0.9539  0.1257
  691MOL0     H91205   1.933   6.056   6.115 -1.7312 -0.4852  0.7349
  691MOL0     H91206   1.660   6.178   6.025  0.3631 -0.3081  0.0479
  691MOL0     H91207   1.691   6.021   6.092  0.4832 -2.7046 -3.1221
  691MOL0     H91208   1.834   5.967   5.896  2.0496  1.5064  2.8696
  691MOL0     H91209   1.662   5.972   5.882 -3.2316  4.5288 -3.1233
  691MOL0     H91210   1.675   6.248   5.595  0.3980 -1.6245 -1.5822
  691MOL0     H91211   1.881   6.473   6.400  1.0311 -1.1138 -1.4352
  691MOL0     H91212   1.864   6.515   6.647  0.5092 -0.3119  1.7686
  692MOL0     O91213  10.641   9.657   2.528 -0.1380 -0.1445 -0.9585
  692MOL0     C91214  10.618   9.628   2.645  0.2544 -0.1169  0.7047
  692MOL0     O91215  10.698   9.661   2.752 -0.3116 -0.0662  0.9738
  692MOL0     C91216  10.748   9.785   2.767  0.9564  0.2279  1.1916
  692MOL0     C91217  10.835   9.802   2.874 -0.7021 -0.3532 -0.1217
  692MOL0     C91218  10.894   9.930   2.901 -0.4439 -1.1604  0.0847
  692MOL0     C91219  10.882  10.038   2.814  0.7836 -1.0802 -0.6641
  692MOL0     O91220  10.962  10.145   2.841  0.1846  0.2057  0.2103
  692MOL0     C91221  10.912  10.276   2.811  0.1299 -0.3295  0.1900
  692MOL0     C91222  11.037  10.367   2.838 -0.3749 -0.2147 -0.2352
  692MOL0     C91223  10.982  10.507   2.887 -0.4222  0.8956 -0.3218
  692MOL0     C91224  11.068  10.619   2.834 -0.6426 -0.2528 -1.1180
  692MOL0     C91225  11.038  10.754   2.906 -0.5076 -0.8637 -0.0595
  692MOL0     C91226  11.110  10.775   3.030 -0.0575 -0.3027  0.1916
  692MOL0     C91227  11.048  10.874   3.128 -0.1281 -0.4412 -0.5651
  692MOL0     C91228  11.141  10.894   3.248 -0.0928 -0.6169  1.2028
  692MOL0     N91229  11.139  11.034   3.296 -1.0215 -0.2842 -0.1709
  692MOL0     C91230  11.194  11.142   3.229  0.0393  0.6968  0.0591
  692MOL0     C91231  11.191  11.240   3.321  0.1346  0.5330  0.5570
  692MOL0     C91232  11.229  11.378   3.294 -0.0080  0.3172  0.6972
  692MOL0     C91233  11.276  11.476   3.413 -0.2255  0.3400  0.9355
  692MOL0     C91234  11.253  11.622   3.368 -0.2295 -1.0325 -0.4350
  692MOL0     C91235  11.276  11.719   3.493  0.6505 -0.3783 -0.1435
  692MOL0     O91236  11.372  11.673   3.587 -1.3118  0.0803  0.1301
  692MOL0     C91237  11.422  11.759   3.679  0.3693 -0.6162  0.1235
  692MOL0     C91238  11.554  11.792   3.677 -0.2259  0.0146 -0.0938
  692MOL0     C91239  11.607  11.896   3.749 -0.2970 -0.1759 -0.6495
  692MOL0     C91240  11.528  11.970   3.841 -0.7623 -0.1390  0.5613
  692MOL0     C91241  11.584  12.080   3.920 -0.4081 -0.4869  0.3496
  692MOL0     O91242  11.511  12.192   3.914  0.3983 -0.2270 -0.9430
  692MOL0     C91243  11.541  12.301   3.994  0.3502 -0.0191  0.0579
  692MOL0     C91244  11.667  12.356   4.016  0.5845  0.2262 -0.6023
  692MOL0     C91245  11.681  12.477   4.098 -0.2637  0.1666 -0.1209
  692MOL0     C91246  11.563  12.545   4.144  0.0038 -0.0660 -0.6520
  692MOL0     O91247  11.577  12.671   4.210  0.4868  0.1700 -0.1461
  692MOL0     C91248  11.460  12.728   4.273 -0.8983 -0.5730  0.4289
  692MOL0     C91249  11.507  12.869   4.332 -1.0049  1.0783  0.4467
  692MOL0     C91250  11.389  12.930   4.409 -0.2846 -0.0427  0.4155
  692MOL0     C91251  11.409  13.076   4.439  0.4028 -0.2519 -0.0849
  692MOL0     C91252  11.294  13.122   4.541 -0.1735 -0.1805 -0.6871
  692MOL0     C91253  11.316  13.049   4.684 -0.3296  0.0473  0.0659
  692MOL0     C91254  11.452  13.047   4.746 -0.6596  0.6520 -0.8460
  692MOL0     C91255  11.495  13.197   4.743 -0.5249  0.1393  0.0262
  692MOL0    Cl91256  11.667  13.186   4.804 -0.2933  0.5157 -0.1517
  692MOL0     C91257  11.438  12.489   4.112  0.2024  0.3450  0.3532
  692MOL0     C91258  11.433  12.369   4.043  0.6587  0.5308 -0.8808
  692MOL0     O91259  11.699  12.065   3.975  0.0089 -0.0351 -0.6887
  692MOL0     C91260  11.392  11.934   3.851 -0.4571 -1.4830 -0.8719
  692MOL0     C91261  11.339  11.832   3.771  0.0058 -0.5706 -0.0499
  692MOL0     N91262  11.145  11.194   3.443  0.0816  0.0863 -0.4658
  692MOL0     N91263  11.100  11.069   3.429 -0.7709  0.6806  0.4314
  692MOL0     C91264  10.788  10.023   2.709  0.2308 -0.4463 -0.3926
  692MOL0     C91265  10.718   9.905   2.695 -0.1353  0.5500  0.2882
  692MOL0     C91266  10.493   9.542   2.663  0.2225  0.0980 -0.7487
  692MOL0     C91267  10.410   9.511   2.550  0.5291  0.7279  1.3612
  692MOL0     C91268  10.283   9.456   2.562  0.4567  0.0781  0.3760
  692MOL0     C91269  10.229   9.447   2.695  0.5275  0.1831  0.3826
  692MOL0     O91270  10.101   9.394   2.712 -1.2864 -0.6107  0.0865
  692MOL0     C91271  10.004   9.454   2.628  0.3009 -0.3679  0.6308
  692MOL0     C91272   9.872   9.445   2.710  0.6393 -0.7662  0.4322
  692MOL0     C91273   9.772   9.554   2.668 -0.1205  0.1709 -0.2043
  692MOL0     C91274   9.635   9.550   2.727  0.9654 -0.4794 -0.6076
  692MOL0     C91275   9.557   9.437   2.671  0.9131 -0.5989 -0.7434
  692MOL0     C91276   9.507   9.340   2.608 -0.2732  0.6538 -0.9512
  692MOL0     C91277  10.299   9.486   2.802  0.2943 -0.9346 -0.5723
  692MOL0     C91278  10.432   9.536   2.788  0.0676 -0.3077  0.3237
  692MOL0     H91279  10.854   9.711   2.931  1.1972 -1.8569 -2.8952
  692MOL0     H91280  10.956   9.946   2.989 -0.2883  2.7990 -0.5551
  692MOL0     H91281  10.826  10.290   2.877 -0.8752 -1.7592 -0.7575
  692MOL0     H91282  10.884  10.284   2.705  3.7240  2.9776 -0.7395
  692MOL0     H91283  11.100  10.367   2.749  2.7980 -1.1639  1.8483
  692MOL0     H91284  11.095  10.330   2.923 -1.0870  2.4765  1.5467
  692MOL0     H91285  10.950  10.507   2.992 -4.9490  2.1438 -1.4827
  692MOL0     H91286  10.884  10.520   2.839 -0.4937 -0.6733 -0.6272
  692MOL0     H91287  11.169  10.580   2.849 -0.8577 -1.2654 -2.0832
  692MOL0     H91288  11.061  10.624   2.725 -1.4287 -0.5853 -1.0932
  692MOL0     H91289  10.931  10.753   2.927 -0.2043 -0.3514  1.6993
  692MOL0     H91290  11.049  10.846   2.848 -1.1903  0.5475  1.9489
  692MOL0     H91291  11.212  10.810   3.012 -0.7663  0.8104 -1.9928
  692MOL0     H91292  11.129  10.680   3.081 -0.0729  0.1676  1.1027
  692MOL0     H91293  11.035  10.972   3.082  1.3780 -0.6167 -1.4418
  692MOL0     H91294  10.952  10.830   3.156  1.2524 -3.2527  0.1067
  692MOL0     H91295  11.246  10.865   3.233  0.1551  0.5110  0.6479
  692MOL0     H91296  11.097  10.836   3.329  0.6559 -0.1930  1.9259
  692MOL0     H91297  11.236  11.149   3.129  0.6921 -0.1915  0.2553
  692MOL0     H91298  11.145  11.432   3.249 -0.2129 -0.7458 -0.2440
  692MOL0     H91299  11.309  11.366   3.220  0.8638 -3.0762  1.9766
  692MOL0     H91300  11.382  11.465   3.436 -0.4560 -1.4143  1.2715
  692MOL0     H91301  11.215  11.455   3.502 -1.3139 -2.7334 -0.3973
  692MOL0     H91302  11.331  11.645   3.295  0.1359 -0.8183  0.0190
  692MOL0     H91303  11.153  11.637   3.324  1.0184  0.9335 -2.8652
  692MOL0     H91304  11.184  11.723   3.553  1.4410  1.5735  1.0477
  692MOL0     H91305  11.301  11.821   3.462  1.0710 -0.4734 -0.1251
  692MOL0     H91306  11.626  11.742   3.612  0.2582  0.6545 -0.0594
  692MOL0     H91307  11.715  11.908   3.749 -0.4421  2.1682  2.1445
  692MOL0     H91308  11.758  12.320   3.969  0.5701  1.6207 -1.7860
  692MOL0     H91309  11.775  12.520   4.133 -1.7179  3.0515  0.5846
  692MOL0     H91310  11.434  12.652   4.347 -2.9961 -1.4971 -1.1534
  692MOL0     H91311  11.376  12.740   4.204 -1.0148  0.0993  0.6804
  692MOL0     H91312  11.537  12.939   4.254 -1.6635  1.0709  0.1797
  692MOL0     H91313  11.593  12.846   4.397  0.1796  3.1272 -0.3036
  692MOL0     H91314  11.379  12.854   4.487  2.4560 -0.4795  0.4403
  692MOL0     H91315  11.305  12.925   4.339 -1.6528 -0.8651  2.0542
  692MOL0     H91316  11.507  13.084   4.488 -0.7990  1.0826  2.3004
  692MOL0     H91317  11.408  13.133   4.346  1.9880 -0.3987 -0.2155
  692MOL0     H91318  11.189  13.112   4.509 -0.3098  0.8815 -0.5963
  692MOL0     H91319  11.302  13.229   4.561 -0.7827 -0.8122  4.0241
  692MOL0     H91320  11.296  12.941   4.678  0.7220 -0.2843  1.5945
  692MOL0     H91321  11.247  13.091   4.758 -0.8235 -0.2321 -0.2348
  692MOL0     H91322  11.454  13.016   4.851 -1.4774 -0.9909 -1.2939
  692MOL0     H91323  11.520  13.000   4.675 -0.6426  2.6599 -2.2645
  692MOL0     H91324  11.433  13.261   4.807 -0.2689  2.4248 -1.8719
  692MOL0     H91325  11.503  13.238   4.642 -1.9464  1.6753  0.4784
  692MOL0     H91326  11.350  12.547   4.136 -0.5535 -1.4682  2.2385
  692MOL0     H91327  11.333  12.328   4.036  1.6231 -2.9698  2.4320
  692MOL0     H91328  11.330  11.986   3.923 -0.3587 -2.8762  0.2671
  692MOL0     H91329  11.233  11.812   3.770  0.0800 -1.3044  1.8950
  692MOL0     H91330  10.763  10.104   2.640 -2.7837  0.1489  1.2334
  692MOL0     H91331  10.647   9.896   2.614  0.4356 -0.4768 -0.1194
  692MOL0     H91332  10.462   9.512   2.455 -0.3679 -1.1494  0.8017
  692MOL0     H91333  10.214   9.427   2.483 -1.5149  2.9806  0.8728
  692MOL0     H91334   9.988   9.401   2.534  0.4206  0.3525  0.1931
  692MOL0     H91335  10.029   9.553   2.589 -0.9437 -1.1696 -2.5521
  692MOL0     H91336   9.825   9.347   2.693  0.7208 -0.8698  0.7863
  692MOL0     H91337   9.881   9.449   2.819  0.5780 -1.2548  0.4607
  692MOL0     H91338   9.763   9.555   2.559  1.7111 -1.1475 -0.4261
  692MOL0     H91339   9.811   9.653   2.696 -1.7405  1.3346 -1.8607
  692MOL0     H91340   9.639   9.522   2.832  1.1805 -0.8754 -0.7193
  692MOL0     H91341   9.581   9.644   2.715 -0.6315 -1.1572  0.7891
  692MOL0     H91342   9.453   9.271   2.547  0.6140 -0.1552 -0.8261
  692MOL0     H91343  10.262   9.471   2.903  1.1321 -1.6188 -0.3607
  692MOL0     H91344  10.493   9.567   2.872  0.0129 -0.4032  0.3998
  693MOL0     O91345   5.328  10.335   7.461 -0.0729 -0.5932 -0.1880
  693MOL0     C91346   5.319  10.268   7.355  0.7012  0.0003  0.4905
  693MOL0     O91347   5.294  10.132   7.344 -0.5064 -0.3468  0.0800
  693MOL0     C91348   5.330  10.037   7.430 -0.7796  0.5822  0.3837
  693MOL0     C91349   5.415  10.062   7.551 -0.6141 -0.0491 -0.6408
  693MOL0     C91350   5.444   9.962   7.636 -0.2146  0.3946  0.0613
  693MOL0     C91351   5.391   9.832   7.633  0.6020 -0.3978  0.5090
  693MOL0     O91352   5.413   9.729   7.720 -0.1489  0.1166  0.1962
  693MOL0     C91353   5.482   9.744   7.847  0.0231 -0.2565  0.4559
  693MOL0     C91354   5.489   9.607   7.917 -0.2344 -0.5376 -0.3614
  693MOL0     C91355   5.351   9.570   7.958 -0.2731 -0.4785 -0.2591
  693MOL0     C91356   5.300   9.652   8.077 -0.1702  0.2435 -0.4709
  693MOL0     C91357   5.178   9.571   8.135  0.2693  0.1658 -0.7562
  693MOL0     C91358   5.133   9.636   8.259 -0.3051  0.4220 -0.1033
  693MOL0     C91359   5.017   9.570   8.327 -0.5643 -0.3562  0.1414
  693MOL0     C91360   4.966   9.641   8.448  0.3186 -0.4053 -0.3008
  693MOL0     N91361   5.070   9.686   8.546 -0.2434  0.1129  0.2629
  693MOL0     C91362   5.140   9.797   8.535  0.5028 -0.9323  0.2920
  693MOL0     C91363   5.217   9.812   8.639 -0.0661  0.9109  0.0697
  693MOL0     C91364   5.336   9.904   8.635  0.1453 -0.1630  0.1488
  693MOL0     C91365   5.313  10.049   8.681  0.6602  0.3726 -0.4204
  693MOL0     C91366   5.441  10.120   8.707  0.0206 -0.3842  0.2633
  693MOL0     C91367   5.527  10.134   8.576 -0.5789  0.6582 -0.2222
  693MOL0     O91368   5.646  10.213   8.606 -0.1936  0.0551  0.0536
  693MOL0     C91369   5.711  10.278   8.507 -0.2131 -1.0935  0.6640
  693MOL0     C91370   5.757  10.406   8.520  0.6523 -0.0193 -0.6717
  693MOL0     C91371   5.849  10.455   8.423  0.3577 -0.6223 -0.4112
  693MOL0     C91372   5.887  10.384   8.311 -1.2084 -0.2611  0.2332
  693MOL0     C91373   5.993  10.434   8.227 -0.7653  0.8753  0.2002
  693MOL0     O91374   5.999  10.380   8.099  0.2158  0.4325 -0.0145
  693MOL0     C91375   6.072  10.442   8.005 -0.4853  0.4164 -0.1826
  693MOL0     C91376   5.995  10.462   7.886 -0.7656  0.0269 -0.9448
  693MOL0     C91377   6.065  10.523   7.785 -0.6824  0.5158  0.5381
  693MOL0     C91378   6.197  10.553   7.780 -0.7949  0.1218 -0.1485
  693MOL0     O91379   6.246  10.594   7.662  0.3456 -0.6363 -0.4496
  693MOL0     C91380   6.390  10.590   7.650  1.0303 -0.4584 -0.5268
  693MOL0     C91381   6.444  10.444   7.639  0.5318  0.1599  0.1274
  693MOL0     C91382   6.365  10.352   7.550  0.5877 -0.5008  0.4134
  693MOL0     C91383   6.426  10.220   7.543  1.4260 -0.0602 -0.0267
  693MOL0     C91384   6.406  10.165   7.397 -0.4469 -0.7357 -0.4986
  693MOL0     C91385   6.429  10.015   7.391 -0.4183  0.0675  0.4466
  693MOL0     C91386   6.425   9.971   7.242 -0.1188 -0.2041  0.2011
  693MOL0     C91387   6.485   9.832   7.212  0.9126 -0.6032 -0.3903
  693MOL0    Cl91388   6.651   9.821   7.258 -0.0032 -0.1874 -0.5072
  693MOL0     C91389   6.271  10.531   7.902 -0.5635 -0.6805  0.1452
  693MOL0     C91390   6.210  10.470   8.012 -0.3877 -0.2528 -0.1194
  693MOL0     O91391   6.069  10.513   8.284  0.4244 -0.7711  0.0365
  693MOL0     C91392   5.830  10.261   8.290  0.4685  0.2400  0.3377
  693MOL0     C91393   5.736  10.211   8.383 -0.7511  0.4183 -0.2492
  693MOL0     N91394   5.183   9.707   8.725 -0.3737  0.7658 -0.4645
  693MOL0     N91395   5.088   9.632   8.673 -0.7259  0.0707  0.7722
  693MOL0     C91396   5.307   9.809   7.523  0.3562 -1.0526 -0.9499
  693MOL0     C91397   5.273   9.909   7.428 -0.4174  0.0870  0.7193
  693MOL0     C91398   5.315  10.340   7.230 -1.0443 -0.4462 -0.5031
  693MOL0     C91399   5.308  10.274   7.107  0.5655  0.4602  0.7092
  693MOL0     C91400   5.287  10.350   6.988  0.1361 -0.7380 -0.1901
  693MOL0     C91401   5.296  10.492   6.991 -0.6454  0.0329  0.1395
  693MOL0     O91402   5.271  10.560   6.869  0.3925 -0.0573  0.0841
  693MOL0     C91403   5.330  10.680   6.825 -0.6608 -0.4165  1.0610
  693MOL0     C91404   5.484  10.662   6.801 -0.3181 -0.1462 -0.4667
  693MOL0     C91405   5.525  10.535   6.732 -0.2637  0.4044 -0.3269
  693MOL0     C91406   5.500  10.532   6.575 -0.6374 -0.0200  0.5463
  693MOL0     C91407   5.601  10.618   6.503 -0.2835  0.0215  0.3560
  693MOL0     C91408   5.693  10.685   6.460  0.1442  0.1738  0.3255
  693MOL0     C91409   5.320  10.553   7.113 -0.9267 -0.5373  0.3427
  693MOL0     C91410   5.323  10.482   7.228  0.1761 -0.3930 -0.0910
  693MOL0     H91411   5.468  10.157   7.555 -0.2037 -0.1358 -2.8278
  693MOL0     H91412   5.519   9.991   7.708 -1.4220  1.6764  0.8378
  693MOL0     H91413   5.442   9.820   7.914  4.6934  0.9621  2.2277
  693MOL0     H91414   5.585   9.777   7.830 -0.4423  1.0929  0.0861
  693MOL0     H91415   5.565   9.607   7.995  1.3558  2.0181 -1.7819
  693MOL0     H91416   5.524   9.530   7.848  0.1414 -3.2096  2.6256
  693MOL0     H91417   5.346   9.463   7.982  2.1042 -0.8544 -1.2399
  693MOL0     H91418   5.282   9.579   7.874  2.4517  1.8472 -2.4526
  693MOL0     H91419   5.374   9.667   8.156 -1.9843  2.6687  0.8916
  693MOL0     H91420   5.263   9.751   8.047  0.2741  0.9054  1.0818
  693MOL0     H91421   5.208   9.472   8.169  1.4096 -0.1837 -2.6499
  693MOL0     H91422   5.093   9.570   8.067  0.4492  1.0450 -1.0103
  693MOL0     H91423   5.119   9.744   8.253 -1.2489  0.2912 -0.3318
  693MOL0     H91424   5.216   9.620   8.328  0.6579  2.1549 -0.7940
  693MOL0     H91425   4.936   9.543   8.258  1.0239 -1.7577 -1.2824
  693MOL0     H91426   5.054   9.476   8.369  3.3686  0.5390 -0.8899
  693MOL0     H91427   4.895   9.577   8.501 -1.4182  1.8765  0.2935
  693MOL0     H91428   4.923   9.728   8.398  2.0851  1.1661  0.7872
  693MOL0     H91429   5.148   9.869   8.454 -0.0861  0.9475  1.8406
  693MOL0     H91430   5.372   9.902   8.532 -0.0048 -0.3381  0.1009
  693MOL0     H91431   5.418   9.863   8.695  0.5904  1.1033  0.4332
  693MOL0     H91432   5.251  10.053   8.771 -0.5924  0.7763 -1.2726
  693MOL0     H91433   5.258  10.116   8.615 -0.5498  1.5434  1.6817
  693MOL0     H91434   5.419  10.221   8.744 -0.1859  0.1381 -1.1990
  693MOL0     H91435   5.501  10.070   8.783 -0.5644 -0.3452  0.7616
  693MOL0     H91436   5.469  10.203   8.513 -0.3289 -0.4849 -1.7586
  693MOL0     H91437   5.548  10.046   8.514 -1.5609  1.7268 -2.1923
  693MOL0     H91438   5.726  10.472   8.600  2.4864  1.5940 -1.2318
  693MOL0     H91439   5.885  10.557   8.431 -2.3461  0.5409 -1.5421
  693MOL0     H91440   5.892  10.429   7.879 -1.7575  1.8377  2.5856
  693MOL0     H91441   6.005  10.545   7.697 -0.8668  2.5709  1.1262
  693MOL0     H91442   6.437  10.638   7.736 -2.6391 -2.5625  2.9719
  693MOL0     H91443   6.419  10.632   7.553  1.1782 -0.0726 -0.3150
  693MOL0     H91444   6.468  10.414   7.742 -0.8282  0.0504  0.4242
  693MOL0     H91445   6.546  10.446   7.599  0.9421  1.3480  1.1528
  693MOL0     H91446   6.365  10.394   7.449  4.5631 -0.2355  0.3526
  693MOL0     H91447   6.261  10.337   7.580  0.8441 -1.5331  0.8444
  693MOL0     H91448   6.532  10.219   7.571  1.3107  0.2556  0.4383
  693MOL0     H91449   6.370  10.156   7.612 -1.5556 -0.2445 -2.4368
  693MOL0     H91450   6.475  10.218   7.330  0.7164 -1.7533 -0.1288
  693MOL0     H91451   6.298  10.174   7.385 -0.5617 -1.6212 -0.1750
  693MOL0     H91452   6.343   9.966   7.437 -2.0527  1.0135 -1.4254
  693MOL0     H91453   6.522   9.991   7.442 -0.6268 -1.2977  0.2114
  693MOL0     H91454   6.317   9.960   7.225 -0.1072  1.4229 -1.0396
  693MOL0     H91455   6.464  10.051   7.179 -3.2880 -0.1490 -1.9330
  693MOL0     H91456   6.468   9.810   7.107 -0.6061 -3.3910  0.3610
  693MOL0     H91457   6.429   9.759   7.271  2.8167 -0.3801  1.8623
  693MOL0     H91458   6.378  10.545   7.908 -0.6600  0.2139 -0.1212
  693MOL0     H91459   6.247  10.440   8.110 -1.9225 -1.6475  0.0738
  693MOL0     H91460   5.859  10.192   8.212 -0.1394 -1.2200  1.3462
  693MOL0     H91461   5.688  10.121   8.345  0.3378 -0.5490  0.5817
  693MOL0     H91462   5.267   9.709   7.519  0.9997 -1.3335 -0.4799
  693MOL0     H91463   5.190   9.889   7.361 -1.3527  2.0883  1.2179
  693MOL0     H91464   5.288  10.168   7.099  1.0066  0.5098 -2.3082
  693MOL0     H91465   5.250  10.310   6.894  0.5928 -0.8453 -0.3246
  693MOL0     H91466   5.314  10.748   6.908 -0.9685 -1.7124  2.0954
  693MOL0     H91467   5.285  10.715   6.732 -2.4850  2.1999  2.8004
  693MOL0     H91468   5.526  10.752   6.753 -0.5391  0.8838  1.1906
  693MOL0     H91469   5.541  10.649   6.893 -0.0793 -5.3114 -1.1019
  693MOL0     H91470   5.465  10.452   6.771 -0.0706  0.2188 -0.4244
  693MOL0     H91471   5.631  10.513   6.744 -0.4123 -2.4169 -2.9566
  693MOL0     H91472   5.516  10.435   6.526  3.2335  1.1885 -1.0078
  693MOL0     H91473   5.398  10.563   6.551  0.7688  3.7364 -1.4021
  693MOL0     H91474   5.775  10.732   6.409 -0.1742  1.5816  1.0945
  693MOL0     H91475   5.321  10.661   7.122  1.4737 -0.4136 -0.6902
  693MOL0     H91476   5.324  10.546   7.316 -3.5558 -0.6671  0.3074
  694MOL0     O91477   5.168   3.358  10.770  0.6513 -0.8915  0.0041
  694MOL0     C91478   5.210   3.280  10.683  0.8189 -0.5079 -0.4890
  694MOL0     O91479   5.233   3.308  10.552 -0.2144 -0.2372 -0.3514
  694MOL0     C91480   5.215   3.441  10.526 -1.0932  0.5334 -0.7396
  694MOL0     C91481   5.322   3.535  10.519 -0.0715 -0.4901  0.3930
  694MOL0     C91482   5.304   3.666  10.493 -1.0305  0.8392  0.2623
  694MOL0     C91483   5.173   3.710  10.486 -0.6342  0.2381  0.1255
  694MOL0     O91484   5.162   3.848  10.483 -0.1824  0.0498 -0.2295
  694MOL0     C91485   5.055   3.911  10.420 -0.3866 -0.3364 -0.4814
  694MOL0     C91486   4.971   3.967  10.529 -0.9992  0.4554 -1.0184
  694MOL0     C91487   4.852   4.045  10.487  0.7672  1.3246 -0.0743
  694MOL0     C91488   4.863   4.117  10.352  0.8072  0.1286  0.8402
  694MOL0     C91489   4.724   4.186  10.320  0.3984  0.1691  0.0712
  694MOL0     C91490   4.730   4.333  10.261 -0.2956 -0.6119 -0.2443
  694MOL0     C91491   4.595   4.397  10.226  0.8516 -0.1297 -0.3393
  694MOL0     C91492   4.565   4.383  10.075 -0.3177 -1.1653  0.5105
  694MOL0     N91493   4.610   4.513  10.009 -0.1025  0.1402  0.6387
  694MOL0     C91494   4.533   4.621   9.985  0.5769 -1.0786  0.2207
  694MOL0     C91495   4.619   4.719   9.942 -0.7488 -0.0402  0.1033
  694MOL0     C91496   4.573   4.864   9.910  0.1778 -0.3200  0.6615
  694MOL0     C91497   4.546   4.891   9.766  1.2135  0.8980 -0.1368
  694MOL0     C91498   4.662   4.873   9.674 -1.0094 -0.7220 -0.3365
  694MOL0     C91499   4.677   4.733   9.621 -0.6784 -0.7229  0.5000
  694MOL0     O91500   4.578   4.698   9.525  0.3040  0.9167 -0.4999
  694MOL0     C91501   4.588   4.740   9.398 -0.1971  0.4438  0.5102
  694MOL0     C91502   4.505   4.684   9.299  0.0751 -0.5128 -0.1058
  694MOL0     C91503   4.526   4.714   9.166  0.5718 -0.4327  1.0274
  694MOL0     C91504   4.632   4.787   9.116 -0.1037  0.1166  1.2177
  694MOL0     C91505   4.665   4.804   8.976  0.4046  0.1292  0.2477
  694MOL0     O91506   4.745   4.904   8.936 -0.3043  0.1995 -0.5172
  694MOL0     C91507   4.799   4.910   8.811 -0.4142 -0.3824  1.0551
  694MOL0     C91508   4.728   4.884   8.688  0.0797  0.5234  0.1041
  694MOL0     C91509   4.791   4.888   8.571 -1.1068 -0.2039  0.5749
  694MOL0     C91510   4.930   4.899   8.559  0.9498 -0.0662  0.0060
  694MOL0     O91511   4.998   4.894   8.429  0.4318 -0.1905  0.1124
  694MOL0     C91512   4.929   4.881   8.309  0.8033 -0.9897 -0.0038
  694MOL0     C91513   5.025   4.813   8.214  0.3965 -0.2270  0.1055
  694MOL0     C91514   4.935   4.780   8.096  0.0799  0.0701  0.7516
  694MOL0     C91515   5.010   4.713   7.983  0.8034 -0.4400  0.6281
  694MOL0     C91516   4.922   4.736   7.841  0.3149  0.4318  0.3176
  694MOL0     C91517   4.780   4.676   7.855  0.1196  0.6732 -0.1921
  694MOL0     C91518   4.700   4.679   7.722 -0.0398 -0.2190 -0.4911
  694MOL0     C91519   4.585   4.578   7.708  0.9506 -0.5831 -0.7832
  694MOL0    Cl91520   4.473   4.622   7.839 -0.1270 -0.3243 -0.3193
  694MOL0     C91521   5.002   4.912   8.673 -0.5828  0.2833 -0.0684
  694MOL0     C91522   4.942   4.927   8.799  1.1496  0.3114 -0.0019
  694MOL0     O91523   4.615   4.717   8.903 -0.2584 -0.3635 -0.2685
  694MOL0     C91524   4.711   4.852   9.213  0.5957  0.0358  0.0046
  694MOL0     C91525   4.690   4.825   9.352  1.4150 -0.3265  0.3928
  694MOL0     N91526   4.745   4.657   9.939 -0.4714  0.2656  0.3177
  694MOL0     N91527   4.739   4.539   9.988  0.1651 -0.4401 -1.0757
  694MOL0     C91528   5.067   3.624  10.488  1.3906  0.6633  0.3383
  694MOL0     C91529   5.087   3.490  10.514 -0.0277  0.9424  0.0724
  694MOL0     C91530   5.259   3.149  10.716 -0.4619 -0.1557 -0.1493
  694MOL0     C91531   5.346   3.087  10.626  0.0628  0.2503  0.6428
  694MOL0     C91532   5.378   2.950  10.659  0.1141 -0.2769 -0.3905
  694MOL0     C91533   5.337   2.882  10.778 -0.7787  0.9819 -0.6906
  694MOL0     O91534   5.363   2.743  10.789  0.4949  0.6458  0.1227
  694MOL0     C91535   5.352   2.684  10.919  0.0385  0.9229 -0.3187
  694MOL0     C91536   5.413   2.545  10.911  0.0424  0.6142 -0.3793
  694MOL0     C91537   5.570   2.566  10.925  0.5703  0.2240  0.7064
  694MOL0     C91538   5.630   2.443  11.004 -0.3202 -0.0174 -0.7647
  694MOL0     C91539   5.620   2.474  11.145 -1.4772 -0.2136  0.5849
  694MOL0     C91540   5.603   2.493  11.262 -0.2500  0.3661  0.4449
  694MOL0     C91541   5.257   2.951  10.863  0.0603  0.0157  0.3857
  694MOL0     C91542   5.220   3.086  10.833  0.8286  0.9092 -0.4755
  694MOL0     H91543   5.422   3.493  10.531  0.4372 -0.1314 -2.0337
  694MOL0     H91544   5.380   3.743  10.479 -2.9241  2.4825 -1.6354
  694MOL0     H91545   5.001   3.853  10.343 -2.0471  3.1657 -2.1883
  694MOL0     H91546   5.106   3.991  10.366 -1.3026  0.6251  0.0251
  694MOL0     H91547   5.022   4.054  10.571 -0.6566 -1.1605  2.2558
  694MOL0     H91548   4.955   3.891  10.607 -2.9662  3.0694  1.3392
  694MOL0     H91549   4.811   4.109  10.566  1.9385  2.1500 -0.1016
  694MOL0     H91550   4.771   3.974  10.472  0.8908  1.5167 -1.8057
  694MOL0     H91551   4.941   4.192  10.339 -0.3606  1.0551 -1.2084
  694MOL0     H91552   4.887   4.038  10.280  0.3607 -0.7951  1.6823
  694MOL0     H91553   4.663   4.181  10.410  2.1169  0.9793  1.3410
  694MOL0     H91554   4.683   4.137  10.231  2.8690  0.1960 -1.1489
  694MOL0     H91555   4.799   4.335  10.176 -0.3485 -1.8118 -0.3424
  694MOL0     H91556   4.770   4.391  10.345  2.4274 -1.4449 -0.8496
  694MOL0     H91557   4.517   4.344  10.282  2.2691 -0.6896  1.1786
  694MOL0     H91558   4.590   4.498  10.267  0.9544  0.4741 -1.7332
  694MOL0     H91559   4.458   4.372  10.055  0.4052 -1.5653 -4.2537
  694MOL0     H91560   4.609   4.298  10.023 -0.8933 -1.6130  0.7417
  694MOL0     H91561   4.428   4.630  10.010 -0.3325  3.3824 -3.6976
  694MOL0     H91562   4.660   4.925   9.936 -0.9864  2.8335 -2.1409
  694MOL0     H91563   4.482   4.878   9.970  0.4517  0.7323  0.8560
  694MOL0     H91564   4.517   4.996   9.757  1.5419  1.1919  1.8136
  694MOL0     H91565   4.464   4.830   9.728 -0.2439  2.9890 -0.4874
  694MOL0     H91566   4.653   4.951   9.597 -0.6987 -1.0453 -0.7025
  694MOL0     H91567   4.755   4.887   9.731 -1.8470 -3.4441  1.9076
  694MOL0     H91568   4.673   4.661   9.704  1.1886 -2.4521 -0.8165
  694MOL0     H91569   4.773   4.709   9.574 -0.4567 -0.8635  1.0166
  694MOL0     H91570   4.409   4.643   9.328 -0.2467 -0.2518 -0.7791
  694MOL0     H91571   4.457   4.688   9.088  0.8816  2.1189 -0.2095
  694MOL0     H91572   4.622   4.864   8.699  0.5045 -0.7170  2.8336
  694MOL0     H91573   4.730   4.887   8.481 -1.0396 -0.0909  0.5283
  694MOL0     H91574   4.882   4.976   8.281  2.6952  0.3852  1.2762
  694MOL0     H91575   4.861   4.797   8.325  4.8479 -4.3605  1.2410
  694MOL0     H91576   5.064   4.722   8.260 -1.2900 -0.8624  0.3750
  694MOL0     H91577   5.099   4.888   8.185 -0.9022  2.7670  3.6623
  694MOL0     H91578   4.900   4.875   8.057 -2.0758 -1.4188 -1.2273
  694MOL0     H91579   4.848   4.724   8.132 -1.4950  3.2198  2.1273
  694MOL0     H91580   5.107   4.762   7.975  0.2703  0.4371 -0.8037
  694MOL0     H91581   5.032   4.607   7.997 -1.1464 -1.0325 -0.3552
  694MOL0     H91582   4.982   4.683   7.767  0.1381 -2.7871  2.2597
  694MOL0     H91583   4.910   4.839   7.808  0.0780 -0.1235 -1.4181
  694MOL0     H91584   4.730   4.730   7.936  2.3158 -0.9594  2.4361
  694MOL0     H91585   4.797   4.574   7.891 -0.9385  0.5902  0.1134
  694MOL0     H91586   4.652   4.774   7.697 -2.3103 -1.3289 -0.6599
  694MOL0     H91587   4.760   4.657   7.634 -2.1258  0.1530 -2.0952
  694MOL0     H91588   4.637   4.482   7.710  0.4743 -0.8347 -0.3944
  694MOL0     H91589   4.528   4.584   7.614 -2.4432  0.0130  1.1543
  694MOL0     H91590   5.108   4.888   8.663 -1.1832 -1.9106 -2.0641
  694MOL0     H91591   4.998   4.932   8.891 -1.6231 -1.1304  1.8967
  694MOL0     H91592   4.773   4.929   9.169  1.9862 -0.2750  1.3664
  694MOL0     H91593   4.743   4.891   9.420 -0.7698  0.2052  1.6838
  694MOL0     H91594   4.963   3.656  10.480  0.9978 -0.9525 -2.9103
  694MOL0     H91595   4.997   3.431  10.528 -0.9409  2.2143 -0.2467
  694MOL0     H91596   5.391   3.123  10.534  4.3976  0.3513  2.5718
  694MOL0     H91597   5.449   2.900  10.593  1.7640  0.9784  0.3775
  694MOL0     H91598   5.246   2.671  10.945  1.0749 -0.3020  4.1160
  694MOL0     H91599   5.391   2.737  11.005  1.3989 -2.6031  1.4365
  694MOL0     H91600   5.378   2.482  10.994  4.0048 -0.3524  0.7787
  694MOL0     H91601   5.394   2.501  10.813 -1.5694  0.5634 -0.0818
  694MOL0     H91602   5.584   2.659  10.982  2.3833  2.6031 -3.2007
  694MOL0     H91603   5.629   2.579  10.834  0.5055  0.9954  0.7663
  694MOL0     H91604   5.593   2.341  10.989  1.1352 -0.7307  0.3144
  694MOL0     H91605   5.739   2.435  11.000 -0.3425  0.1119 -2.0771
  694MOL0     H91606   5.582   2.511  11.366  1.5751 -3.3744  1.6323
  694MOL0     H91607   5.215   2.904  10.952  0.5229 -1.7803 -0.3149
  694MOL0     H91608   5.170   3.144  10.910  0.8454  0.3829 -0.0627
  695MOL0     O91609   9.077   2.632   2.325  0.0824 -0.5401  0.1013
  695MOL0     C91610   9.119   2.613   2.442  0.5120 -0.5566  0.4176
  695MOL0     O91611   9.224   2.689   2.502 -0.2360  0.0017 -0.4463
  695MOL0     C91612   9.312   2.769   2.434  0.0622  0.2751 -0.1452
  695MOL0     C91613   9.327   2.785   2.298 -0.0196 -0.7504 -0.0905
  695MOL0     C91614   9.409   2.895   2.250 -0.5115  0.8739 -0.1045
  695MOL0     C91615   9.466   2.989   2.335 -0.2645  0.4190  0.1938
  695MOL0     O91616   9.557   3.082   2.301  0.2237 -0.6907 -0.3374
  695MOL0     C91617   9.495   3.183   2.211 -0.2586  0.8949 -0.4110
  695MOL0     C91618   9.613   3.288   2.187  0.2188 -0.7279 -0.7018
  695MOL0     C91619   9.587   3.385   2.072 -0.7283 -0.6844  0.5022
  695MOL0     C91620   9.703   3.487   2.059  0.3611  0.2839 -0.9921
  695MOL0     C91621   9.662   3.600   1.953 -0.0981  0.5184  0.0756
  695MOL0     C91622   9.687   3.541   1.812 -1.7434  0.8295 -0.1280
  695MOL0     C91623   9.666   3.654   1.705  0.7019  0.2606 -0.5145
  695MOL0     C91624   9.527   3.648   1.658  0.5690 -0.0210  0.3240
  695MOL0     N91625   9.489   3.531   1.583  0.3682 -0.1528 -0.0896
  695MOL0     C91626   9.573   3.434   1.539 -0.1740 -0.8505  1.8423
  695MOL0     C91627   9.489   3.335   1.501  0.3612  0.8544  0.4631
  695MOL0     C91628   9.545   3.205   1.442  1.1261  0.3818  0.4340
  695MOL0     C91629   9.530   3.200   1.291 -0.2006 -0.2816  1.0082
  695MOL0     C91630   9.533   3.061   1.235  0.5377  0.4451 -0.6836
  695MOL0     C91631   9.676   3.007   1.198  0.5120  0.0912 -0.6636
  695MOL0     O91632   9.667   2.880   1.126  1.0019 -0.3859 -0.2463
  695MOL0     C91633   9.774   2.802   1.110 -0.3852 -0.9144 -0.8544
  695MOL0     C91634   9.757   2.674   1.163 -0.0688  0.1952  0.2814
  695MOL0     C91635   9.865   2.593   1.175 -1.1353 -0.2510 -0.2021
  695MOL0     C91636   9.995   2.627   1.146 -0.4738  0.1179 -0.6272
  695MOL0     C91637  10.114   2.539   1.162  0.4065 -0.2493 -0.4673
  695MOL0     O91638  10.092   2.441   1.249 -0.2841 -0.0912 -0.5360
  695MOL0     C91639  10.192   2.361   1.307  0.5904  0.5470 -0.2359
  695MOL0     C91640  10.170   2.221   1.303 -0.6129  0.3514 -0.0774
  695MOL0     C91641  10.274   2.139   1.354  0.3322 -0.8130 -1.2957
  695MOL0     C91642  10.389   2.189   1.411 -0.4962  0.4164  0.8702
  695MOL0     O91643  10.489   2.112   1.463 -0.5434  0.5397  0.9332
  695MOL0     C91644  10.526   1.995   1.387 -0.3341  0.2830  0.7536
  695MOL0     C91645  10.581   2.026   1.249 -0.5660  0.7086  0.1981
  695MOL0     C91646  10.640   1.903   1.192 -0.7814  0.2404  0.8221
  695MOL0     C91647  10.721   1.919   1.056 -0.3916 -0.1948 -0.0245
  695MOL0     C91648  10.677   1.820   0.943  0.5674 -0.0137 -0.7035
  695MOL0     C91649  10.718   1.681   0.980 -0.2218  0.4659 -0.1868
  695MOL0     C91650  10.715   1.580   0.859  0.5813 -0.3991  0.0570
  695MOL0     C91651  10.804   1.457   0.894 -0.0621  0.5785  0.5271
  695MOL0    Cl91652  10.768   1.318   0.801 -0.1311  0.6700 -0.2571
  695MOL0     C91653  10.408   2.325   1.405 -0.5246 -0.0502  0.3418
  695MOL0     C91654  10.312   2.417   1.358  0.5177  0.5980 -1.1014
  695MOL0     O91655  10.221   2.557   1.111 -0.5311  0.0003  0.2348
  695MOL0     C91656  10.011   2.757   1.086 -0.0940 -0.0478 -0.1850
  695MOL0     C91657   9.900   2.847   1.084  0.3764  0.3308 -0.4699
  695MOL0     N91658   9.358   3.370   1.519 -0.0750 -0.7974 -0.0833
  695MOL0     N91659   9.359   3.484   1.577  0.4326 -0.0617  1.1137
  695MOL0     C91660   9.450   2.966   2.476 -0.0930  0.4126 -0.4017
  695MOL0     C91661   9.367   2.863   2.525 -0.1846  0.2485 -0.7120
  695MOL0     C91662   9.039   2.520   2.535  0.2412 -0.3040 -0.1373
  695MOL0     C91663   9.076   2.501   2.668 -0.5004 -0.1479 -0.5355
  695MOL0     C91664   8.987   2.430   2.760 -0.7386  0.0878  0.6209
  695MOL0     C91665   8.864   2.385   2.713 -0.5354  0.7364 -0.3236
  695MOL0     O91666   8.760   2.330   2.785  0.6885 -0.3872  0.0831
  695MOL0     C91667   8.737   2.376   2.920 -1.3867 -0.3372 -0.3952
  695MOL0     C91668   8.602   2.325   2.973 -0.4077  0.2352  0.2008
  695MOL0     C91669   8.478   2.398   2.930  0.2809 -0.6194  0.5730
  695MOL0     C91670   8.361   2.359   3.020  0.0600 -0.2681  0.3788
  695MOL0     C91671   8.243   2.433   2.985  0.7293 -0.3764 -0.6123
  695MOL0     C91672   8.138   2.493   2.974 -0.6577  0.6917  0.3413
  695MOL0     C91673   8.834   2.400   2.575  0.4647 -0.7721 -0.1239
  695MOL0     C91674   8.928   2.454   2.489 -0.1547 -0.3254 -0.0103
  695MOL0     H91675   9.272   2.720   2.230 -0.7293  0.0483 -0.2926
  695MOL0     H91676   9.435   2.897   2.145  3.5421  0.6457  0.7017
  695MOL0     H91677   9.395   3.216   2.241 -0.8349 -0.7546 -0.4262
  695MOL0     H91678   9.489   3.128   2.117  0.5273  2.8311 -1.6468
  695MOL0     H91679   9.703   3.228   2.170 -0.1225 -2.7103  3.2409
  695MOL0     H91680   9.622   3.339   2.283 -2.0243  2.0959 -1.8572
  695MOL0     H91681   9.496   3.443   2.088 -1.2634 -2.1324  3.2450
  695MOL0     H91682   9.579   3.319   1.985  1.1617 -1.7803  1.1054
  695MOL0     H91683   9.704   3.543   2.154 -1.2777 -1.6540  0.2483
  695MOL0     H91684   9.798   3.433   2.057  0.5529  0.2735  2.4435
  695MOL0     H91685   9.728   3.687   1.950 -0.2599  0.6228 -0.5666
  695MOL0     H91686   9.557   3.624   1.969  0.0502  0.6356  0.9404
  695MOL0     H91687   9.635   3.449   1.784  3.0377 -1.9764 -0.8554
  695MOL0     H91688   9.793   3.512   1.812 -2.1421 -0.7201  0.6389
  695MOL0     H91689   9.685   3.751   1.751 -3.4085 -0.0340  2.4572
  695MOL0     H91690   9.735   3.628   1.624 -0.1517 -0.6382 -0.9864
  695MOL0     H91691   9.502   3.733   1.594 -0.2934 -1.0386 -0.7335
  695MOL0     H91692   9.464   3.659   1.747 -0.7073 -1.6508 -0.3257
  695MOL0     H91693   9.681   3.433   1.539 -0.0449  1.7756  3.6759
  695MOL0     H91694   9.490   3.119   1.483  5.7215 -1.4876  3.4056
  695MOL0     H91695   9.649   3.195   1.474  1.0604 -1.1076  0.2353
  695MOL0     H91696   9.615   3.257   1.252 -0.6356  0.2673  0.8295
  695MOL0     H91697   9.440   3.257   1.264  0.3890  1.2533  2.1192
  695MOL0     H91698   9.473   2.996   1.300 -2.0973  4.2676  1.0915
  695MOL0     H91699   9.472   3.062   1.145  1.6334  1.1536 -1.4411
  695MOL0     H91700   9.732   3.013   1.292  1.5209  0.4182 -1.2759
  695MOL0     H91701   9.721   3.066   1.118  1.6855 -0.1076 -0.1641
  695MOL0     H91702   9.657   2.637   1.186 -0.6278 -0.1646 -2.3850
  695MOL0     H91703   9.850   2.494   1.217  4.6016 -1.5455 -0.4469
  695MOL0     H91704  10.078   2.188   1.256 -1.4214  3.0248 -0.5572
  695MOL0     H91705  10.263   2.031   1.347 -2.6581 -0.7192  0.2531
  695MOL0     H91706  10.440   1.928   1.388 -1.2206  1.3509  2.3775
  695MOL0     H91707  10.605   1.956   1.452  1.4893  1.0527 -0.9047
  695MOL0     H91708  10.664   2.098   1.249  1.3749 -1.4063 -1.4364
  695MOL0     H91709  10.505   2.071   1.184 -1.0593  3.8349  2.6869
  695MOL0     H91710  10.556   1.841   1.162 -1.5003 -0.0375  3.2347
  695MOL0     H91711  10.693   1.841   1.265 -0.5911 -1.5118 -0.7373
  695MOL0     H91712  10.717   2.019   1.012 -2.1779  0.5129  1.5744
  695MOL0     H91713  10.829   1.919   1.073 -0.3645  1.1108 -0.0416
  695MOL0     H91714  10.727   1.856   0.853 -0.7643 -0.0468 -1.4911
  695MOL0     H91715  10.568   1.833   0.946  0.6797  0.8168  0.0442
  695MOL0     H91716  10.648   1.650   1.058 -1.0522 -2.0647 -1.8138
  695MOL0     H91717  10.821   1.702   1.010 -0.0622 -0.4243 -0.0957
  695MOL0     H91718  10.609   1.557   0.852  0.0503  1.2741  1.5697
  695MOL0     H91719  10.748   1.634   0.770  2.1963 -1.2103  0.1116
  695MOL0     H91720  10.796   1.437   1.002 -0.1076 -1.1779  0.2167
  695MOL0     H91721  10.911   1.473   0.879  0.1377 -1.1872 -0.1427
  695MOL0     H91722  10.494   2.369   1.454  0.5459 -1.6675 -0.0163
  695MOL0     H91723  10.328   2.523   1.377 -2.5682  1.2966 -1.9193
  695MOL0     H91724  10.109   2.786   1.051  0.5847 -3.1538 -1.1202
  695MOL0     H91725   9.902   2.948   1.044  1.8006 -0.5472 -2.8144
  695MOL0     H91726   9.501   3.028   2.549  0.7070 -2.4114  1.5990
  695MOL0     H91727   9.345   2.859   2.631  0.7920 -2.2779 -0.5285
  695MOL0     H91728   9.178   2.515   2.704 -0.8547 -4.5930  3.2440
  695MOL0     H91729   9.019   2.417   2.863 -0.5302 -1.2785  0.3931
  695MOL0     H91730   8.735   2.485   2.928 -0.6110 -0.3417 -0.0452
  695MOL0     H91731   8.812   2.353   2.997 -1.1507 -1.6670 -1.0051
  695MOL0     H91732   8.615   2.220   2.942 -2.6383  0.6537 -2.5692
  695MOL0     H91733   8.599   2.319   3.082 -0.8965 -1.2924  0.1305
  695MOL0     H91734   8.460   2.373   2.825  1.1682  5.0452 -1.3097
  695MOL0     H91735   8.492   2.507   2.934  0.6845 -0.7036  3.1481
  695MOL0     H91736   8.343   2.252   3.030  0.0632 -0.2852  0.2146
  695MOL0     H91737   8.383   2.371   3.126 -4.3824 -1.0169  1.5712
  695MOL0     H91738   8.041   2.536   2.962 -0.5000  0.4893 -2.1363
  695MOL0     H91739   8.744   2.361   2.528  0.8527 -1.9032  0.0435
  695MOL0     H91740   8.911   2.449   2.382  0.5888 -4.2651 -0.0997
  696MOL0     O91741   9.906   2.039   7.083  1.0510 -0.3542 -0.7604
  696MOL0     C91742   9.825   1.951   7.074 -0.4604  0.7783  0.3356
  696MOL0     O91743   9.721   1.920   7.158 -0.1791  0.1176  0.1202
  696MOL0     C91744   9.690   1.995   7.265 -0.0466  0.1196 -0.9969
  696MOL0     C91745   9.785   2.047   7.359 -1.1522  0.2312  0.1704
  696MOL0     C91746   9.753   2.150   7.454  0.0347  0.4249 -0.2383
  696MOL0     C91747   9.618   2.189   7.461 -0.3165 -0.3254  0.4788
  696MOL0     O91748   9.569   2.295   7.540 -0.2651 -0.4995  1.0277
  696MOL0     C91749   9.551   2.285   7.687  0.2013  0.2390 -0.0517
  696MOL0     C91750   9.433   2.194   7.718  0.0353 -0.0802 -0.3672
  696MOL0     C91751   9.435   2.150   7.873 -0.8082  0.6009  0.0849
  696MOL0     C91752   9.298   2.095   7.927 -0.2670  0.2735 -0.1499
  696MOL0     C91753   9.267   2.130   8.065 -0.3021  0.6602 -0.2186
  696MOL0     C91754   9.357   2.055   8.168 -0.7376  0.7263  0.0509
  696MOL0     C91755   9.336   2.094   8.306  0.0778  0.1935  0.5182
  696MOL0     C91756   9.438   2.040   8.401  0.0701  0.4428  0.3951
  696MOL0     N91757   9.431   1.898   8.412 -0.7521 -0.0957  0.3424
  696MOL0     C91758   9.367   1.833   8.515  0.1677  0.6587  0.5866
  696MOL0     C91759   9.438   1.717   8.528  0.0932 -0.4921 -0.0695
  696MOL0     C91760   9.405   1.617   8.627  0.2810 -0.7041  0.1676
  696MOL0     C91761   9.532   1.581   8.704 -0.4704 -0.8911 -0.0202
  696MOL0     C91762   9.477   1.541   8.837  0.4887  0.8936 -0.0237
  696MOL0     C91763   9.399   1.402   8.832 -0.3361  0.6964 -0.5653
  696MOL0     O91764   9.396   1.345   8.967  0.4553  0.6649 -0.0041
  696MOL0     C91765   9.430   1.212   8.986 -0.6909 -0.5307 -0.1728
  696MOL0     C91766   9.359   1.115   9.048  1.3049  0.4631 -0.4161
  696MOL0     C91767   9.407   0.990   9.086  0.3423  0.2133  0.0990
  696MOL0     C91768   9.549   0.972   9.069  0.5018  0.5412  0.9201
  696MOL0     C91769   9.606   0.845   9.089  0.4020 -0.3785  0.0602
  696MOL0     O91770   9.529   0.735   9.116  0.6079 -0.2185 -0.8837
  696MOL0     C91771   9.582   0.609   9.148  0.3598 -0.0348  0.3217
  696MOL0     C91772   9.485   0.522   9.184 -0.7022 -0.3452 -0.1335
  696MOL0     C91773   9.512   0.390   9.219  1.1577  0.1170  0.4756
  696MOL0     C91774   9.638   0.342   9.213  0.1165  0.2441  0.3954
  696MOL0     O91775   9.677   0.217   9.232 -0.4849  0.3041 -0.4616
  696MOL0     C91776   9.580   0.108   9.261 -0.1380 -0.0684  0.7895
  696MOL0     C91777   9.643  -0.028   9.273  0.1204 -0.1963  0.6119
  696MOL0     C91778   9.557  -0.113   9.367 -0.9936 -0.3621  0.6463
  696MOL0     C91779   9.622  -0.253   9.386 -0.7224  0.2534 -0.4190
  696MOL0     C91780   9.566  -0.323   9.507 -0.5276 -0.8307 -0.8019
  696MOL0     C91781   9.643  -0.450   9.529 -0.0132 -0.8842 -0.6407
  696MOL0     C91782   9.583  -0.531   9.644 -0.0701 -1.1229 -0.0974
  696MOL0     C91783   9.640  -0.486   9.781 -0.5865  0.4131  0.0280
  696MOL0    Cl91784   9.805  -0.571   9.799 -0.1857 -0.2033 -0.0871
  696MOL0     C91785   9.743   0.429   9.181 -0.1763  0.0007 -0.3657
  696MOL0     C91786   9.716   0.571   9.160  0.6657  0.4288  0.6929
  696MOL0     O91787   9.729   0.834   9.077 -0.7664 -0.0361 -0.3166
  696MOL0     C91788   9.633   1.081   9.030 -0.1767  0.8262  0.0008
  696MOL0     C91789   9.575   1.200   8.993  1.4505 -0.0808  0.6521
  696MOL0     N91790   9.546   1.720   8.439 -0.3282  0.2017  0.5959
  696MOL0     N91791   9.539   1.830   8.367 -0.1953  1.5079 -0.8571
  696MOL0     C91792   9.521   2.124   7.387  0.2145  0.3781 -0.2053
  696MOL0     C91793   9.557   2.026   7.295  0.5009  0.5647  0.1014
  696MOL0     C91794   9.848   1.855   6.957  0.5705  0.2633  0.8583
  696MOL0     C91795   9.928   1.891   6.847  0.0803  0.4701  0.3209
  696MOL0     C91796   9.944   1.795   6.749  0.2424  0.1835  0.1761
  696MOL0     C91797   9.880   1.666   6.740 -0.9571 -0.4538  0.1470
  696MOL0     O91798   9.895   1.577   6.633 -0.7315 -0.7820 -0.1894
  696MOL0     C91799   9.795   1.478   6.610 -0.9078 -0.1271  0.1707
  696MOL0     C91800   9.839   1.388   6.491  0.1295 -0.7635  0.1766
  696MOL0     C91801   9.855   1.456   6.353  0.1247  0.5288  1.1243
  696MOL0     C91802   9.963   1.376   6.273  0.4171  0.5344 -0.3561
  696MOL0     C91803   9.958   1.407   6.134 -0.2195  0.6009 -0.2103
  696MOL0     C91804   9.967   1.435   6.014 -0.1960 -0.3360  0.5791
  696MOL0     C91805   9.801   1.641   6.856 -0.0997  0.1810  0.3328
  696MOL0     C91806   9.776   1.734   6.963  0.2284 -0.9761  0.4677
  696MOL0     H91807   9.886   2.011   7.345 -1.1626  0.5712 -0.8181
  696MOL0     H91808   9.826   2.203   7.515  1.1967 -1.3876  0.0358
  696MOL0     H91809   9.526   2.387   7.715  1.5045 -0.1199  2.7031
  696MOL0     H91810   9.638   2.250   7.743  0.5890 -1.5209 -1.6396
  696MOL0     H91811   9.431   2.103   7.658  3.0151  0.1551 -0.9499
  696MOL0     H91812   9.334   2.240   7.708 -0.4482 -1.0137  0.0606
  696MOL0     H91813   9.445   2.247   7.922 -0.6658  0.8325 -0.3990
  696MOL0     H91814   9.518   2.083   7.894 -1.9233 -0.8733 -0.0510
  696MOL0     H91815   9.215   2.124   7.863  0.8129  3.8188 -0.1176
  696MOL0     H91816   9.313   1.986   7.922 -2.1632 -0.0590  0.4681
  696MOL0     H91817   9.166   2.089   8.079 -0.3317  0.1072 -1.8890
  696MOL0     H91818   9.271   2.238   8.084  1.7543  0.6789 -0.5753
  696MOL0     H91819   9.463   2.068   8.142  0.0733 -2.0761  1.5566
  696MOL0     H91820   9.337   1.949   8.154 -0.7250  1.0351 -2.9646
  696MOL0     H91821   9.329   2.202   8.315  1.4859  0.6514 -2.8062
  696MOL0     H91822   9.240   2.047   8.332  0.1115 -0.7948 -0.9871
  696MOL0     H91823   9.423   2.092   8.496  0.7171  1.8478 -0.2465
  696MOL0     H91824   9.538   2.069   8.371  0.9922 -2.9810 -0.3244
  696MOL0     H91825   9.294   1.878   8.581 -1.2695 -1.4908  0.5616
  696MOL0     H91826   9.372   1.521   8.585 -0.3954 -2.8932  5.0183
  696MOL0     H91827   9.322   1.663   8.682 -1.9135  0.5183 -3.7671
  696MOL0     H91828   9.599   1.667   8.718 -1.2408 -0.5585  2.0369
  696MOL0     H91829   9.585   1.496   8.661  0.0795 -0.4054 -0.3114
  696MOL0     H91830   9.559   1.540   8.909 -0.6667  0.7832  1.3288
  696MOL0     H91831   9.406   1.615   8.876  0.4677  0.8782 -0.0342
  696MOL0     H91832   9.461   1.337   8.770  0.3331 -0.4739  1.2474
  696MOL0     H91833   9.300   1.419   8.787 -0.3918  0.1898 -0.6367
  696MOL0     H91834   9.256   1.136   9.076  0.6810 -2.1822 -0.4887
  696MOL0     H91835   9.337   0.918   9.126 -0.8477  0.7857 -0.8942
  696MOL0     H91836   9.385   0.562   9.190  0.3034  2.3874 -0.2209
  696MOL0     H91837   9.430   0.323   9.238  0.6759  1.2209  2.5223
  696MOL0     H91838   9.497   0.095   9.192 -0.3855  1.0525  0.8539
  696MOL0     H91839   9.551   0.131   9.364 -0.2939  0.6260  0.5907
  696MOL0     H91840   9.747  -0.015   9.307  0.7154  3.4363 -1.9833
  696MOL0     H91841   9.656  -0.077   9.176  1.6591  1.1637  0.0637
  696MOL0     H91842   9.452  -0.116   9.337 -1.0710 -0.9846  0.9485
  696MOL0     H91843   9.555  -0.051   9.457  1.5884  3.1102 -1.4142
  696MOL0     H91844   9.596  -0.319   9.303 -2.4159  0.1917  0.1289
  696MOL0     H91845   9.730  -0.246   9.404 -1.3597  0.8824  4.4189
  696MOL0     H91846   9.457  -0.330   9.509 -0.8447  1.4685 -3.3114
  696MOL0     H91847   9.587  -0.254   9.589 -2.8645 -1.9876  0.8667
  696MOL0     H91848   9.745  -0.423   9.558 -0.8498  4.1159 -1.4687
  696MOL0     H91849   9.648  -0.510   9.437 -0.7478  0.0368 -1.3035
  696MOL0     H91850   9.476  -0.511   9.643  0.4148  1.8938 -1.4385
  696MOL0     H91851   9.607  -0.637   9.634 -1.7580 -1.6272  0.8673
  696MOL0     H91852   9.582  -0.527   9.865 -0.7739  2.0258  0.7122
  696MOL0     H91853   9.643  -0.381   9.809  1.2668  0.2735  0.4417
  696MOL0     H91854   9.844   0.396   9.160  0.0980  0.2941  0.4637
  696MOL0     H91855   9.810   0.620   9.135  0.3892  0.8438  0.4432
  696MOL0     H91856   9.740   1.076   9.011 -0.3223 -2.5171 -0.5764
  696MOL0     H91857   9.630   1.280   8.943  3.9390 -1.2048  1.4203
  696MOL0     H91858   9.416   2.152   7.393 -0.1224 -1.1243  2.8602
  696MOL0     H91859   9.489   1.995   7.217  1.0078 -1.3662  0.3793
  696MOL0     H91860   9.962   1.994   6.841  2.0264 -0.1819 -0.5259
  696MOL0     H91861  10.009   1.832   6.670  0.5263 -0.8237 -0.0736
  696MOL0     H91862   9.695   1.518   6.592 -1.0394 -0.7333 -0.4660
  696MOL0     H91863   9.797   1.420   6.703 -0.6290  2.9566  2.2392
  696MOL0     H91864   9.933   1.340   6.520 -0.0783 -0.7136  0.9425
  696MOL0     H91865   9.761   1.311   6.487 -0.2805 -0.3895  0.9147
  696MOL0     H91866   9.886   1.561   6.359 -0.7190  0.7523  1.7856
  696MOL0     H91867   9.756   1.462   6.307 -1.0415 -1.5327  3.1646
  696MOL0     H91868  10.062   1.406   6.308  0.6828  0.6146 -1.1479
  696MOL0     H91869   9.949   1.267   6.277  0.1649  0.6009  1.0849
  696MOL0     H91870   9.972   1.461   5.910  2.9541  1.4884  1.0622
  696MOL0     H91871   9.755   1.543   6.864 -2.6290  1.1529 -1.1105
  696MOL0     H91872   9.719   1.714   7.053 -3.1004 -0.6996 -1.4110
  697MOL0     O91873   0.562   3.611   3.882  0.4898  0.0331  1.0902
  697MOL0     C91874   0.596   3.724   3.886 -1.2529  0.2746 -0.4920
  697MOL0     O91875   0.573   3.809   3.989  0.0575  0.1890  0.1169
  697MOL0     C91876   0.515   3.759   4.103 -1.0457  0.6975  0.3414
  697MOL0     C91877   0.586   3.658   4.175 -0.8240  0.3651  0.4221
  697MOL0     C91878   0.537   3.614   4.292  0.1227 -1.0517 -0.0671
  697MOL0     C91879   0.425   3.664   4.350  0.1259  0.2686 -0.6192
  697MOL0     O91880   0.369   3.609   4.467 -0.6797 -0.2381  0.0449
  697MOL0     C91881   0.226   3.620   4.480 -0.4899 -0.4640  0.4021
  697MOL0     C91882   0.156   3.510   4.387  0.2424 -0.0461 -0.0384
  697MOL0     C91883   0.014   3.555   4.331 -0.5261  0.5339 -0.0071
  697MOL0     C91884   0.015   3.670   4.230  0.3223  0.6431 -0.0713
  697MOL0     C91885   0.048   3.624   4.088  0.7934  1.2337  0.2559
  697MOL0     C91886   0.049   3.734   3.986 -0.6206  0.2636  0.3177
  697MOL0     C91887   0.084   3.686   3.844  0.7446  0.8085  0.5875
  697MOL0     C91888   0.026   3.785   3.743 -0.1376 -0.1888  0.2341
  697MOL0     N91889   0.112   3.902   3.726 -0.0137 -1.1958 -0.4185
  697MOL0     C91890   0.246   3.909   3.703  1.0108 -0.3618  0.4672
  697MOL0     C91891   0.278   4.039   3.706 -0.1594 -0.3607  0.3009
  697MOL0     C91892   0.423   4.068   3.708  0.7399 -0.7820  0.4243
  697MOL0     C91893   0.451   4.217   3.673  0.4963  0.1055 -0.1771
  697MOL0     C91894   0.416   4.262   3.530  0.1167  0.3182  0.0198
  697MOL0     C91895   0.483   4.394   3.504  0.1084  0.2867 -0.3883
  697MOL0     O91896   0.629   4.378   3.504  0.2444 -0.5000  0.0064
  697MOL0     C91897   0.705   4.487   3.461  0.5293  0.7292 -1.3304
  697MOL0     C91898   0.656   4.612   3.423  0.1902  0.3217  0.3815
  697MOL0     C91899   0.752   4.701   3.361 -0.5913 -0.4795  0.5342
  697MOL0     C91900   0.884   4.674   3.342  0.0063 -0.1083  0.2946
  697MOL0     C91901   0.972   4.758   3.255 -0.5564 -0.5534  0.3136
  697MOL0     O91902   1.108   4.741   3.257 -0.2891 -0.2587 -0.0382
  697MOL0     C91903   1.199   4.821   3.194 -0.1293  0.2996  0.9592
  697MOL0     C91904   1.336   4.809   3.228  0.2723  0.9116  0.0518
  697MOL0     C91905   1.432   4.866   3.153 -0.2222  0.0470  0.7500
  697MOL0     C91906   1.410   4.946   3.045  0.5278  0.3569 -0.6044
  697MOL0     O91907   1.509   5.012   2.990  0.4298 -0.6014 -0.1800
  697MOL0     C91908   1.512   5.056   2.855 -0.7418  0.3297  0.0261
  697MOL0     C91909   1.643   5.118   2.817 -0.0243 -0.1572 -0.3194
  697MOL0     C91910   1.685   5.248   2.896  0.0937  0.3346 -0.4543
  697MOL0     C91911   1.827   5.277   2.860 -1.1241  0.0487  0.3179
  697MOL0     C91912   1.887   5.389   2.937 -0.0938  0.3619 -0.0306
  697MOL0     C91913   2.022   5.429   2.861 -0.0260  0.3953  0.0882
  697MOL0     C91914   2.081   5.554   2.919  0.5821  0.3006  0.5228
  697MOL0     C91915   2.222   5.581   2.879  0.6846  0.0032 -0.8034
  697MOL0    Cl91916   2.339   5.468   2.964  0.2922 -0.2459 -0.1294
  697MOL0     C91917   1.282   4.969   3.005  0.6143 -0.4946  0.6549
  697MOL0     C91918   1.173   4.913   3.084  0.4640 -0.4142 -0.1240
  697MOL0     O91919   0.914   4.837   3.180 -0.5376 -0.6757  0.2548
  697MOL0     C91920   0.932   4.561   3.401 -0.4187 -1.1002  1.4955
  697MOL0     C91921   0.842   4.467   3.458 -0.2261  0.3107  1.6356
  697MOL0     N91922   0.166   4.102   3.734  0.8631 -0.8522 -1.0926
  697MOL0     N91923   0.068   4.027   3.747 -0.0459  0.5036  0.1157
  697MOL0     C91924   0.367   3.768   4.280 -0.6568  0.4161  0.0124
  697MOL0     C91925   0.402   3.816   4.160 -0.7050  0.2209  0.9746
  697MOL0     C91926   0.673   3.784   3.771  0.0811 -0.1134 -0.3664
  697MOL0     C91927   0.753   3.902   3.794  0.5933  1.3707 -0.4529
  697MOL0     C91928   0.837   3.944   3.690 -0.0442  0.3173 -0.2404
  697MOL0     C91929   0.838   3.883   3.569 -0.3757 -0.2762  0.2745
  697MOL0     O91930   0.931   3.945   3.484  0.8661  0.5520 -0.4023
  697MOL0     C91931   0.901   4.073   3.434 -0.7740  0.3287 -0.1401
  697MOL0     C91932   0.766   4.060   3.348 -0.6979 -0.6955 -0.2385
  697MOL0     C91933   0.785   3.970   3.222 -0.2958  0.3340  1.3125
  697MOL0     C91934   0.647   3.930   3.155  0.3793  0.4826 -0.0345
  697MOL0     C91935   0.565   3.836   3.243  0.7474 -0.3779 -0.1962
  697MOL0     C91936   0.499   3.752   3.287  1.0646  0.1024 -0.7037
  697MOL0     C91937   0.756   3.771   3.541 -0.0045  0.6163 -0.2439
  697MOL0     C91938   0.676   3.716   3.645  0.3182  0.5868  0.2199
  697MOL0     H91939   0.683   3.615   4.153 -0.5437  0.2404  1.8149
  697MOL0     H91940   0.591   3.532   4.337  1.3526 -0.0061  0.4355
  697MOL0     H91941   0.197   3.722   4.452 -4.1029 -1.0441  1.4002
  697MOL0     H91942   0.198   3.603   4.585  2.6934  0.8013  1.5672
  697MOL0     H91943   0.131   3.425   4.451 -4.7320  1.6335  0.6830
  697MOL0     H91944   0.231   3.471   4.318  0.8305 -0.2391  0.6866
  697MOL0     H91945  -0.034   3.587   4.424 -1.1852 -0.0034 -0.1566
  697MOL0     H91946  -0.034   3.464   4.295  3.5665 -2.2140  0.7509
  697MOL0     H91947  -0.081   3.722   4.221  0.2672  0.1656 -4.1044
  697MOL0     H91948   0.086   3.749   4.259  0.2580  1.1876 -1.3431
  697MOL0     H91949  -0.032   3.563   4.046  5.1492 -2.9202 -3.2499
  697MOL0     H91950   0.140   3.564   4.082  0.5467  0.9172 -0.5464
  697MOL0     H91951   0.119   3.816   4.006 -0.0112  0.5116 -2.4581
  697MOL0     H91952  -0.048   3.784   3.980 -0.2979  0.9103  0.4125
  697MOL0     H91953   0.190   3.667   3.828  0.9586  2.5242 -0.2936
  697MOL0     H91954   0.032   3.595   3.813  1.2160  0.6656  0.2166
  697MOL0     H91955  -0.079   3.808   3.766 -0.5655 -1.8456  0.0405
  697MOL0     H91956   0.021   3.731   3.648  1.7331  0.5601 -0.3461
  697MOL0     H91957   0.319   3.830   3.686  0.4312 -0.4050 -2.4059
  697MOL0     H91958   0.475   4.006   3.634 -0.5056 -1.0718 -0.2484
  697MOL0     H91959   0.464   4.059   3.808 -0.7781  1.4696  1.3226
  697MOL0     H91960   0.556   4.233   3.699  0.3523  1.6409 -0.4277
  697MOL0     H91961   0.393   4.281   3.740  0.7143  0.3071 -0.1792
  697MOL0     H91962   0.455   4.191   3.456  3.1617  1.5111  0.3458
  697MOL0     H91963   0.307   4.269   3.537  0.0265  0.4274 -1.3454
  697MOL0     H91964   0.462   4.463   3.586  0.1148  0.6466 -0.6850
  697MOL0     H91965   0.433   4.434   3.415 -1.5581  0.0076  0.3735
  697MOL0     H91966   0.551   4.634   3.438  0.4899  2.5885 -0.4739
  697MOL0     H91967   0.703   4.795   3.336 -2.3959 -1.1791  1.2144
  697MOL0     H91968   1.377   4.757   3.315  3.1554  3.5034  0.4051
  697MOL0     H91969   1.531   4.877   3.197  1.8888  0.9110 -3.6570
  697MOL0     H91970   1.434   5.127   2.826 -1.1902  0.1566  0.7798
  697MOL0     H91971   1.501   4.967   2.793 -0.3832  1.3626 -1.5853
  697MOL0     H91972   1.636   5.133   2.709 -1.7415  1.1848 -0.0726
  697MOL0     H91973   1.715   5.036   2.825 -1.5382 -1.6854 -1.5443
  697MOL0     H91974   1.665   5.233   3.002 -0.4866 -0.8197 -0.7119
  697MOL0     H91975   1.626   5.330   2.855 -0.9112 -0.7675 -1.3124
  697MOL0     H91976   1.891   5.189   2.878 -1.1493 -0.8579 -3.2226
  697MOL0     H91977   1.832   5.304   2.755  0.5842  0.7758  0.5516
  697MOL0     H91978   1.911   5.374   3.043 -1.6580  1.9455  0.6025
  697MOL0     H91979   1.814   5.470   2.941 -0.4204  0.2892 -2.7201
  697MOL0     H91980   1.995   5.450   2.757 -1.5266  0.0824  0.3859
  697MOL0     H91981   2.092   5.344   2.864 -1.0378 -0.4747  2.9550
  697MOL0     H91982   2.022   5.642   2.891 -2.7051 -2.0597 -0.6489
  697MOL0     H91983   2.069   5.547   3.028  2.2277 -1.4845  0.6499
  697MOL0     H91984   2.245   5.684   2.909  0.5138 -0.6772  1.9033
  697MOL0     H91985   2.222   5.560   2.772 -1.7636  0.2936 -0.9128
  697MOL0     H91986   1.255   5.039   2.926  0.0577 -0.9841  0.4046
  697MOL0     H91987   1.071   4.924   3.049  0.4856 -0.2426 -0.1393
  697MOL0     H91988   1.032   4.519   3.400  0.0030 -0.2024  2.8591
  697MOL0     H91989   0.879   4.382   3.514  2.5623  0.0640 -0.3482
  697MOL0     H91990   0.296   3.836   4.326 -0.7406  0.2996  0.0548
  697MOL0     H91991   0.342   3.884   4.101  1.3141  1.7250  0.5412
  697MOL0     H91992   0.760   3.944   3.894 -0.3524 -2.5167  1.4533
  697MOL0     H91993   0.898   4.032   3.707 -1.7153  1.3507  0.6606
  697MOL0     H91994   0.986   4.103   3.372 -0.9531  1.4842  0.1669
  697MOL0     H91995   0.897   4.145   3.516 -4.1357  0.1422 -0.0041
  697MOL0     H91996   0.686   4.015   3.408 -0.2208 -1.0631  0.1381
  697MOL0     H91997   0.728   4.158   3.318  0.5826 -0.0549  0.1606
  697MOL0     H91998   0.841   3.876   3.231 -1.8388 -1.1441 -2.4577
  697MOL0     H91999   0.838   4.044   3.162 -1.2851  0.4742  0.6001
  697MOL0     H92000   0.580   4.015   3.164  1.2784  1.1221  0.8317
  697MOL0     H92001   0.651   3.890   3.053  1.7602 -0.4388  0.3428
  697MOL0     H92002   0.437   3.671   3.319  1.4613 -0.5597 -1.5496
  697MOL0     H92003   0.760   3.732   3.439  2.6406 -2.1762  0.7660
  697MOL0     H92004   0.603   3.636   3.629  0.1792  0.1193  2.7548
  698MOL0     O92005   9.441   7.937   3.479  0.3056 -0.1659 -0.0341
  698MOL0     C92006   9.501   7.893   3.380  0.4956  0.7940 -0.4637
  698MOL0     O92007   9.612   7.949   3.326  0.1422  0.3866  0.4675
  698MOL0     C92008   9.669   8.051   3.386 -0.6238 -0.5563  0.1780
  698MOL0     C92009   9.610   8.172   3.406  0.5469 -0.9094 -0.1597
  698MOL0     C92010   9.690   8.276   3.456  0.0204 -0.6966 -0.6779
  698MOL0     C92011   9.825   8.259   3.499  0.3106  0.0571 -0.2597
  698MOL0     O92012   9.879   8.367   3.552 -0.1928 -0.6938  0.6603
  698MOL0     C92013  10.014   8.347   3.580 -0.2777  0.4899 -0.2667
  698MOL0     C92014  10.070   8.483   3.613  0.1964 -0.2160  0.6543
  698MOL0     C92015  10.108   8.554   3.486  0.2043 -0.0545  0.3616
  698MOL0     C92016  10.248   8.511   3.425 -0.9078 -0.0381 -0.1598
  698MOL0     C92017  10.293   8.613   3.319  0.0936 -0.1703  0.5098
  698MOL0     C92018  10.443   8.613   3.297 -0.5250 -0.0721  0.3413
  698MOL0     C92019  10.484   8.698   3.172  0.3889 -1.7159 -0.6084
  698MOL0     C92020  10.458   8.630   3.038  0.0749 -0.2132 -0.0043
  698MOL0     N92021  10.553   8.524   3.009 -0.3711  0.5971  0.3452
  698MOL0     C92022  10.665   8.534   2.942 -0.1475 -0.5993  0.0351
  698MOL0     C92023  10.704   8.403   2.921  0.1668  0.0808  0.4550
  698MOL0     C92024  10.823   8.358   2.838 -0.4080  0.2817  0.2152
  698MOL0     C92025  10.768   8.297   2.700  0.2662 -0.2190 -0.2204
  698MOL0     C92026  10.876   8.313   2.590  1.1058 -0.0523 -0.3573
  698MOL0     C92027  11.011   8.252   2.634 -0.0460 -0.3487  0.7212
  698MOL0     O92028  10.995   8.113   2.672 -0.4207  0.1132 -0.5978
  698MOL0     C92029  11.073   8.042   2.760 -1.0217 -0.0594  0.0828
  698MOL0     C92030  11.199   8.080   2.814 -0.2951 -0.4308  0.0397
  698MOL0     C92031  11.266   8.015   2.916 -0.9659  0.3002  0.3521
  698MOL0     C92032  11.216   7.891   2.956 -1.1761 -0.2076 -0.2852
  698MOL0     C92033  11.271   7.809   3.057  0.3133 -0.5468  0.2201
  698MOL0     O92034  11.403   7.818   3.068  0.1091  0.7313  0.7049
  698MOL0     C92035  11.467   7.716   3.142  0.5646  0.7639 -0.1255
  698MOL0     C92036  11.514   7.597   3.074 -0.0598 -0.6474 -0.1326
  698MOL0     C92037  11.565   7.487   3.147 -0.3374 -0.3725 -0.5281
  698MOL0     C92038  11.588   7.500   3.289 -0.4531 -1.1163 -0.9626
  698MOL0     O92039  11.616   7.399   3.377  0.6919 -0.3810 -0.0578
  698MOL0     C92040  11.695   7.425   3.498 -0.2949 -0.0953  0.6157
  698MOL0     C92041  11.715   7.293   3.567  0.0987  0.0333 -0.0478
  698MOL0     C92042  11.817   7.201   3.499 -0.4166 -0.4927 -0.0767
  698MOL0     C92043  11.826   7.077   3.594  0.1245  0.1687  0.1318
  698MOL0     C92044  11.918   6.969   3.514  0.5484 -0.2865  0.0256
  698MOL0     C92045  12.053   6.950   3.565 -0.7783 -0.1766 -0.0681
  698MOL0     C92046  12.137   6.867   3.460 -0.1751 -0.0864  0.2332
  698MOL0     C92047  12.273   6.816   3.504  0.1897  0.3185  0.3051
  698MOL0    Cl92048  12.352   6.729   3.360 -0.0233  0.1176  0.3209
  698MOL0     C92049  11.554   7.627   3.345  0.1269  0.9428 -0.1325
  698MOL0     C92050  11.505   7.732   3.278  0.7514  0.1774 -1.1259
  698MOL0     O92051  11.197   7.737   3.122  0.1694 -0.0104 -0.4375
  698MOL0     C92052  11.096   7.839   2.895 -0.4379  0.4717 -0.3744
  698MOL0     C92053  11.020   7.920   2.809  0.0675 -0.2188  0.4284
  698MOL0     N92054  10.610   8.316   2.978  0.8329 -0.1664  1.4175
  698MOL0     N92055  10.518   8.394   3.030 -0.8364 -0.0631 -0.5608
  698MOL0     C92056   9.881   8.130   3.489 -0.3915  0.2207 -0.2184
  698MOL0     C92057   9.799   8.028   3.434  0.4868 -0.7381 -0.2660
  698MOL0     C92058   9.447   7.781   3.313  0.6738  0.3862 -0.6126
  698MOL0     C92059   9.513   7.664   3.294  0.4667  0.4909  0.3779
  698MOL0     C92060   9.459   7.552   3.221 -0.0777  0.2082 -0.3375
  698MOL0     C92061   9.326   7.558   3.183  0.0769 -0.0466 -0.7065
  698MOL0     O92062   9.282   7.444   3.125  0.6906 -0.1810 -0.0190
  698MOL0     C92063   9.141   7.428   3.114 -0.3550  0.4923 -0.2348
  698MOL0     C92064   9.098   7.280   3.079 -0.6154 -0.3371 -0.1305
  698MOL0     C92065   9.161   7.250   2.936 -0.3096 -0.7544  0.5573
  698MOL0     C92066   9.114   7.335   2.822 -0.1928 -0.4986 -0.2416
  698MOL0     C92067   9.171   7.294   2.695  0.2629  0.7572  0.2167
  698MOL0     C92068   9.213   7.235   2.592  0.4720  0.3826 -0.0335
  698MOL0     C92069   9.252   7.677   3.205  0.4525 -0.0870  0.6643
  698MOL0     C92070   9.309   7.779   3.273 -0.0383 -0.7050 -0.8454
  698MOL0     H92071   9.506   8.183   3.375 -0.8283 -3.7944  2.7867
  698MOL0     H92072   9.641   8.372   3.472  2.2499  1.2542 -4.2362
  698MOL0     H92073  10.066   8.310   3.491 -3.0036 -1.6763 -1.0902
  698MOL0     H92074  10.012   8.286   3.671 -2.7514 -1.5440 -1.5518
  698MOL0     H92075  10.151   8.477   3.686 -2.5088 -0.1682  3.9079
  698MOL0     H92076   9.997   8.540   3.671  0.8133  0.2754  0.9552
  698MOL0     H92077  10.115   8.660   3.510  1.8042  1.0071 -3.9583
  698MOL0     H92078  10.030   8.547   3.411  1.5729 -0.4402 -1.0703
  698MOL0     H92079  10.326   8.524   3.501 -0.3011  5.7204 -1.2646
  698MOL0     H92080  10.242   8.406   3.396  0.1051 -0.2314  0.2882
  698MOL0     H92081  10.264   8.708   3.365 -0.6907  0.3528 -1.0060
  698MOL0     H92082  10.253   8.593   3.219  2.0308 -2.0518  0.0242
  698MOL0     H92083  10.478   8.510   3.289  1.6332  0.7437 -1.7358
  698MOL0     H92084  10.486   8.665   3.384 -2.4248  3.4885 -0.6582
  698MOL0     H92085  10.432   8.794   3.182  1.7501 -0.9585 -0.4354
  698MOL0     H92086  10.590   8.724   3.176  0.1371 -0.7777  2.4631
  698MOL0     H92087  10.469   8.704   2.958  0.8511 -0.1381  0.1638
  698MOL0     H92088  10.355   8.593   3.028  0.1298 -0.6530  1.0075
  698MOL0     H92089  10.714   8.619   2.897  1.1423 -1.2140  0.2410
  698MOL0     H92090  10.876   8.274   2.884  1.9826  0.6732 -1.6448
  698MOL0     H92091  10.897   8.438   2.827  1.8195 -1.6714  0.1355
  698MOL0     H92092  10.676   8.347   2.669  0.4728  1.0372  1.1103
  698MOL0     H92093  10.751   8.191   2.720  3.0853 -0.6589  0.3578
  698MOL0     H92094  10.853   8.256   2.500  1.4026 -1.1511  0.2505
  698MOL0     H92095  10.882   8.420   2.564  0.0686  0.8151  2.6220
  698MOL0     H92096  11.055   8.291   2.726 -0.0082 -0.5863  0.8047
  698MOL0     H92097  11.084   8.248   2.553  0.6737 -2.4831  1.4121
  698MOL0     H92098  11.237   8.173   2.772  0.3799 -1.2108 -1.1224
  698MOL0     H92099  11.349   8.069   2.959 -2.3175  3.3884 -0.5938
  698MOL0     H92100  11.491   7.581   2.969  0.3872  1.7269 -0.6558
  698MOL0     H92101  11.590   7.392   3.099  5.4756 -0.1463  1.3123
  698MOL0     H92102  11.652   7.493   3.572 -1.7535  1.8970 -1.9082
  698MOL0     H92103  11.794   7.464   3.471 -1.1042  0.3325 -2.0137
  698MOL0     H92104  11.622   7.238   3.585 -0.4049  0.7877 -0.2971
  698MOL0     H92105  11.755   7.321   3.665 -2.0575 -0.9739  1.2039
  698MOL0     H92106  11.911   7.256   3.492 -0.2193 -0.9466 -1.0720
  698MOL0     H92107  11.770   7.180   3.402  0.4309 -3.4474  0.0677
  698MOL0     H92108  11.859   7.106   3.694  1.5261 -1.8195  0.2999
  698MOL0     H92109  11.723   7.041   3.598 -0.1937  1.1170  0.8240
  698MOL0     H92110  11.916   6.987   3.406 -0.2437 -2.6411 -0.4112
  698MOL0     H92111  11.875   6.869   3.527 -0.8986 -0.0347 -2.2562
  698MOL0     H92112  12.051   6.904   3.665 -3.5239 -0.9159 -0.3783
  698MOL0     H92113  12.103   7.047   3.561  0.0564 -0.4343  2.4381
  698MOL0     H92114  12.078   6.780   3.431 -1.6236  0.2904  1.8905
  698MOL0     H92115  12.156   6.930   3.373 -3.6971  0.9185  0.0544
  698MOL0     H92116  12.255   6.754   3.592 -0.8846  2.0594  1.3618
  698MOL0     H92117  12.339   6.892   3.547 -3.0797  2.1509  2.5076
  698MOL0     H92118  11.574   7.642   3.451  0.7959 -0.6331 -0.0126
  698MOL0     H92119  11.476   7.822   3.330 -1.4361 -0.2077 -1.6020
  698MOL0     H92120  11.043   7.756   2.940  1.3667  0.6190  2.2445
  698MOL0     H92121  10.926   7.889   2.765  1.7323  0.2402 -4.0087
  698MOL0     H92122   9.982   8.113   3.524 -0.4713  1.1160  0.5072
  698MOL0     H92123   9.838   7.928   3.416  1.0639 -0.6702  0.5069
  698MOL0     H92124   9.613   7.648   3.332  0.0822  2.7406  2.5949
  698MOL0     H92125   9.510   7.457   3.212 -2.3924 -1.2408  0.7930
  698MOL0     H92126   9.103   7.494   3.035  4.2458  1.8001 -1.6653
  698MOL0     H92127   9.104   7.446   3.215  5.6655  2.5358  2.0365
  698MOL0     H92128   9.144   7.212   3.152  0.9561 -1.3540 -1.9759
  698MOL0     H92129   8.990   7.273   3.090 -1.2236  4.5740 -0.7357
  698MOL0     H92130   9.135   7.147   2.912 -1.6099  0.0382 -1.7468
  698MOL0     H92131   9.270   7.259   2.939 -0.0448 -1.7798 -2.8519
  698MOL0     H92132   9.004   7.336   2.819 -0.1857 -1.3869 -1.1415
  698MOL0     H92133   9.146   7.439   2.838  0.6696 -0.6864 -0.7282
  698MOL0     H92134   9.234   7.186   2.499 -2.0108  2.6811 -1.9393
  698MOL0     H92135   9.147   7.685   3.178  0.6826  0.2170 -0.1577
  698MOL0     H92136   9.252   7.870   3.291  0.8528 -0.0091 -1.4612
  699MOL0     O92137  10.766  10.170   5.335 -0.4778 -0.0772  0.0272
  699MOL0     C92138  10.808  10.057   5.338  0.2727  1.4322  0.5631
  699MOL0     O92139  10.877   9.998   5.446 -0.2405  0.6698  0.4470
  699MOL0     C92140  10.936  10.074   5.548  0.3800 -0.0291 -0.0593
  699MOL0     C92141  10.958  10.214   5.542  0.5216  1.6209  0.4916
  699MOL0     C92142  11.026  10.278   5.648 -0.1891 -0.8042 -0.8076
  699MOL0     C92143  11.062  10.212   5.765 -0.4720 -0.8628 -1.0847
  699MOL0     O92144  11.119  10.277   5.877 -0.6274 -0.5616 -0.4371
  699MOL0     C92145  11.164  10.410   5.857 -0.5881 -0.8113  0.0059
  699MOL0     C92146  11.219  10.460   5.995  0.2328 -0.1837 -0.2630
  699MOL0     C92147  11.362  10.432   6.028 -0.6428  0.4954  0.5324
  699MOL0     C92148  11.400  10.481   6.173  0.3097  0.4525  0.3543
  699MOL0     C92149  11.553  10.491   6.186 -0.1043 -1.0684  0.2569
  699MOL0     C92150  11.592  10.574   6.318 -0.5586 -0.7825 -0.1183
  699MOL0     C92151  11.736  10.617   6.324 -0.8849  0.8846 -0.2592
  699MOL0     C92152  11.826  10.499   6.332 -0.7522  0.7788  0.0699
  699MOL0     N92153  11.895  10.471   6.209 -0.6626 -0.1770  0.1208
  699MOL0     C92154  11.855  10.389   6.109 -0.2399  1.0049  0.1342
  699MOL0     C92155  11.971  10.377   6.038 -0.3430  1.0225 -0.1908
  699MOL0     C92156  11.975  10.299   5.916  0.2035 -0.1094  0.2702
  699MOL0     C92157  12.035  10.380   5.804  1.1325 -0.5412  0.0032
  699MOL0     C92158  12.025  10.290   5.675  0.1387 -0.1981 -0.6386
  699MOL0     C92159  12.081  10.362   5.552 -0.0864  0.0173 -0.1355
  699MOL0     O92160  12.224  10.354   5.561 -0.4096 -0.0964  0.1237
  699MOL0     C92161  12.285  10.236   5.528  0.0069 -1.1019 -0.1600
  699MOL0     C92162  12.225  10.118   5.494  0.2207 -0.5996  0.4505
  699MOL0     C92163  12.301  10.015   5.448 -0.3257 -0.1817 -0.6527
  699MOL0     C92164  12.438  10.029   5.419  0.1021 -1.0237  0.2844
  699MOL0     C92165  12.513   9.923   5.347  0.1084 -0.1041 -0.9869
  699MOL0     O92166  12.444   9.844   5.264 -0.2327 -0.2846  0.6683
  699MOL0     C92167  12.521   9.737   5.233  0.3319  0.3626  0.3049
  699MOL0     C92168  12.548   9.630   5.326 -0.3136 -0.6626  0.7851
  699MOL0     C92169  12.596   9.502   5.282  0.1847  0.1208 -0.0008
  699MOL0     C92170  12.623   9.482   5.149 -0.4117 -0.0847 -0.6212
  699MOL0     O92171  12.645   9.367   5.080  0.5545  0.0389 -0.2442
  699MOL0     C92172  12.747   9.287   5.139 -0.4535 -1.1180  0.0673
  699MOL0     C92173  12.881   9.373   5.127  0.2238  0.4247 -0.0058
  699MOL0     C92174  12.909   9.393   4.971 -0.7044  0.9355  0.6361
  699MOL0     C92175  13.024   9.485   4.924  0.5004 -0.1595 -1.1178
  699MOL0     C92176  13.038   9.454   4.769  0.3613  0.2710  0.5799
  699MOL0     C92177  13.126   9.561   4.685 -0.9352  0.1426 -0.2221
  699MOL0     C92178  13.267   9.580   4.734 -0.8378 -0.2572 -0.0734
  699MOL0     C92179  13.353   9.668   4.652 -0.1524 -0.4060  0.3680
  699MOL0    Cl92180  13.369   9.593   4.490 -0.5648 -0.2965 -0.0943
  699MOL0     C92181  12.597   9.590   5.057 -0.1968  0.6799 -0.6831
  699MOL0     C92182  12.546   9.714   5.098 -0.7508 -0.4936 -0.0767
  699MOL0     O92183  12.630   9.918   5.384 -0.0565  0.1053 -0.3098
  699MOL0     C92184  12.507  10.138   5.467  0.1731  0.1107  0.0712
  699MOL0     C92185  12.430  10.238   5.525  0.4675 -0.6476 -0.1346
  699MOL0     N92186  12.081  10.440   6.106 -0.0699  0.2601 -0.7021
  699MOL0     N92187  12.028  10.503   6.205 -0.4434 -0.5154  0.0114
  699MOL0     C92188  11.048  10.077   5.773  0.7983 -0.4148 -0.5518
  699MOL0     C92189  10.998  10.005   5.661  0.6105  0.0917  0.4152
  699MOL0     C92190  10.740   9.957   5.260  0.6784  0.2571 -0.8626
  699MOL0     C92191  10.643   9.974   5.159 -0.4631  1.0202  0.2981
  699MOL0     C92192  10.583   9.863   5.099  0.5121 -0.6749 -1.1742
  699MOL0     C92193  10.613   9.736   5.136  0.0297 -0.1210 -0.0788
  699MOL0     O92194  10.556   9.620   5.077 -0.1790  0.7381  0.1271
  699MOL0     C92195  10.428   9.632   5.009 -0.1644 -0.6677  0.4357
  699MOL0     C92196  10.365   9.502   4.951 -1.9375 -0.3692 -0.3509
  699MOL0     C92197  10.475   9.400   4.901  0.1751 -0.2472 -0.0246
  699MOL0     C92198  10.417   9.268   4.844  0.5945  0.0767 -0.2791
  699MOL0     C92199  10.379   9.159   4.931 -0.0990 -0.3416 -0.3473
  699MOL0     C92200  10.356   9.075   5.012  0.8016  0.5176  1.2724
  699MOL0     C92201  10.721   9.719   5.226 -0.3567  0.4042 -0.2749
  699MOL0     C92202  10.785   9.823   5.291 -1.1956 -0.4383  0.9203
  699MOL0     H92203  10.937  10.272   5.452 -0.2794  1.6755  0.7013
  699MOL0     H92204  11.042  10.385   5.632 -1.9830 -0.1803  1.0698
  699MOL0     H92205  11.094  10.490   5.833  1.8648  1.3891 -0.3018
  699MOL0     H92206  11.238  10.408   5.776 -2.7294 -0.3760 -2.0935
  699MOL0     H92207  11.152  10.434   6.078 -1.7798 -1.3726 -2.1541
  699MOL0     H92208  11.209  10.568   5.983 -3.3472 -0.4685 -0.8567
  699MOL0     H92209  11.423  10.476   5.948 -3.6614  0.0646 -2.2048
  699MOL0     H92210  11.375  10.324   6.018 -1.2219  0.2784  1.9647
  699MOL0     H92211  11.357  10.581   6.170  1.2968  0.8660 -1.7178
  699MOL0     H92212  11.354  10.416   6.249 -0.6885  2.5085  1.6200
  699MOL0     H92213  11.603  10.541   6.103 -2.2921 -0.5364 -0.8041
  699MOL0     H92214  11.573  10.383   6.189 -2.3243 -1.7784 -3.8309
  699MOL0     H92215  11.559  10.515   6.404  0.2901  2.3822  2.5910
  699MOL0     H92216  11.540  10.670   6.325 -0.4931 -0.8652  2.0327
  699MOL0     H92217  11.767  10.686   6.244 -3.3596  0.9825 -1.2371
  699MOL0     H92218  11.748  10.671   6.419 -0.8556 -1.7543  1.3156
  699MOL0     H92219  11.763  10.412   6.354 -0.5902  0.8396  0.7914
  699MOL0     H92220  11.897  10.503   6.414 -0.8044 -0.5671  0.2013
  699MOL0     H92221  11.757  10.350   6.082 -1.1940  3.0904  0.3769
  699MOL0     H92222  11.878  10.253   5.898 -2.0158  3.4979  1.9584
  699MOL0     H92223  12.049  10.221   5.937  2.2581  0.7687 -2.9286
  699MOL0     H92224  12.133  10.425   5.817 -0.0624  1.7919  1.6878
  699MOL0     H92225  11.969  10.467   5.804  1.6821 -0.1201  0.4143
  699MOL0     H92226  12.080  10.201   5.705  0.4317  0.1731 -0.0469
  699MOL0     H92227  11.921  10.265   5.652 -0.4304  2.8672 -1.9665
  699MOL0     H92228  12.048  10.466   5.557 -3.0298 -0.9018  2.0308
  699MOL0     H92229  12.042  10.317   5.460  2.7546 -0.4698 -1.2038
  699MOL0     H92230  12.117  10.112   5.500 -0.0958  1.9164 -1.1064
  699MOL0     H92231  12.255   9.923   5.414  0.4504  0.2581 -3.0874
  699MOL0     H92232  12.526   9.642   5.431  1.7712  1.1247  1.0945
  699MOL0     H92233  12.586   9.417   5.348 -0.3828 -2.3482 -3.0139
  699MOL0     H92234  12.765   9.202   5.072  1.8511 -0.2462 -0.5335
  699MOL0     H92235  12.723   9.257   5.242 -5.1486  2.3960  0.3292
  699MOL0     H92236  12.971   9.332   5.173  1.1160 -0.8126 -2.6380
  699MOL0     H92237  12.864   9.479   5.150 -2.7581  0.4219 -1.6128
  699MOL0     H92238  12.816   9.431   4.926 -1.7587 -2.6936 -0.6024
  699MOL0     H92239  12.935   9.297   4.925  2.2872  1.9137  0.1022
  699MOL0     H92240  12.988   9.587   4.940 -2.4077 -1.3755  0.9063
  699MOL0     H92241  13.120   9.477   4.976 -0.3518  0.8651  0.6908
  699MOL0     H92242  12.942   9.454   4.716 -0.2317 -2.7029  1.4440
  699MOL0     H92243  13.077   9.352   4.760 -1.1090 -0.5710  2.9894
  699MOL0     H92244  13.080   9.660   4.689  1.8244  1.5532 -1.3619
  699MOL0     H92245  13.137   9.519   4.585  1.1877  1.9224 -0.7853
  699MOL0     H92246  13.262   9.632   4.830  0.3760  1.5271 -0.9130
  699MOL0     H92247  13.307   9.482   4.762 -3.4058 -0.8972  1.6210
  699MOL0     H92248  13.449   9.684   4.702 -1.7551  0.0295  3.5040
  699MOL0     H92249  13.298   9.762   4.642 -0.0569 -0.0812  2.5057
  699MOL0     H92250  12.619   9.567   4.954  1.1189 -3.4201  0.3587
  699MOL0     H92251  12.523   9.800   5.036 -2.7817 -0.1260  1.0672
  699MOL0     H92252  12.613  10.144   5.444 -0.6478  0.7099 -4.5784
  699MOL0     H92253  12.482  10.331   5.549  2.0818 -1.4419 -0.4081
  699MOL0     H92254  11.083  10.037   5.868  2.8304  5.9109  1.8904
  699MOL0     H92255  10.994   9.897   5.653 -2.0870  0.1474  0.0456
  699MOL0     H92256  10.608  10.063   5.108 -0.4756  1.1274  0.4911
  699MOL0     H92257  10.500   9.885   5.033 -0.0169 -2.8463 -1.2854
  699MOL0     H92258  10.444   9.710   4.934  2.4975 -1.6003 -0.0488
  699MOL0     H92259  10.346   9.668   5.073 -0.7919 -2.3196  0.6111
  699MOL0     H92260  10.321   9.442   5.031  2.7222  1.2239  3.8759
  699MOL0     H92261  10.284   9.521   4.879  0.1389 -1.5335 -3.1866
  699MOL0     H92262  10.546   9.379   4.981 -0.1449 -1.4085 -0.0306
  699MOL0     H92263  10.526   9.443   4.814  0.3858  0.7126  0.5578
  699MOL0     H92264  10.334   9.288   4.775  0.4170 -2.0290 -0.7282
  699MOL0     H92265  10.494   9.220   4.784  0.5537  1.6208 -1.6333
  699MOL0     H92266  10.320   9.003   5.082 -2.6187  2.7017  1.9852
  699MOL0     H92267  10.744   9.619   5.263 -1.5828  0.5550  0.9865
  699MOL0     H92268  10.869   9.802   5.356  1.1906  1.9555 -1.1033
  700MOL0     O92269   4.373   6.236   2.123 -0.4215  0.0008  0.5205
  700MOL0     C92270   4.364   6.328   2.211  0.5843  0.4385 -0.1043
  700MOL0     O92271   4.455   6.353   2.318  0.7239  0.0895  0.7295
  700MOL0     C92272   4.569   6.287   2.294 -0.6278  0.0804 -0.1283
  700MOL0     C92273   4.675   6.328   2.209  0.0426  0.3364  0.5165
  700MOL0     C92274   4.797   6.254   2.202  0.2923  0.3487  0.4704
  700MOL0     C92275   4.811   6.133   2.279  0.0989  0.4674 -1.0756
  700MOL0     O92276   4.932   6.067   2.275  0.1296  0.2890  0.8609
  700MOL0     C92277   5.035   6.127   2.354 -0.2380 -0.5406 -0.4423
  700MOL0     C92278   5.165   6.118   2.286 -1.5535  0.6509 -0.0450
  700MOL0     C92279   5.194   5.974   2.220  0.1288  0.6065 -0.2733
  700MOL0     C92280   5.338   5.941   2.169  0.2709 -1.2250 -0.7732
  700MOL0     C92281   5.334   5.832   2.065 -0.4056  0.7059 -0.0673
  700MOL0     C92282   5.473   5.785   2.021  0.9657  0.1069  0.4688
  700MOL0     C92283   5.463   5.715   1.885  0.0172  0.6305 -0.4936
  700MOL0     C92284   5.600   5.723   1.808 -0.2498 -0.0600  0.6428
  700MOL0     N92285   5.719   5.728   1.876 -0.8700 -0.1831 -0.7791
  700MOL0     C92286   5.735   5.638   1.975  0.3440 -0.2555  0.1226
  700MOL0     C92287   5.874   5.613   1.970 -0.0898 -0.0924 -0.1383
  700MOL0     C92288   5.943   5.513   2.066 -0.2460 -0.1863  0.6544
  700MOL0     C92289   6.011   5.589   2.174  0.8081  0.4587 -0.1172
  700MOL0     C92290   5.934   5.660   2.281 -0.0295  0.5799  0.1966
  700MOL0     C92291   5.837   5.576   2.368  0.1458 -0.0388 -0.2765
  700MOL0     O92292   5.767   5.647   2.469  0.2144 -0.3778 -0.5987
  700MOL0     C92293   5.720   5.771   2.450 -0.1610 -1.1100 -0.4592
  700MOL0     C92294   5.742   5.856   2.561 -0.5545 -0.4782 -0.1550
  700MOL0     C92295   5.714   5.994   2.553  0.0295 -0.0918  0.2896
  700MOL0     C92296   5.679   6.047   2.427  0.1830  0.7878  0.6145
  700MOL0     C92297   5.668   6.192   2.411  0.0735 -0.4633 -0.2359
  700MOL0     O92298   5.621   6.237   2.295  0.1244 -0.4713 -0.0084
  700MOL0     C92299   5.591   6.373   2.291 -0.1804  0.0692  0.1152
  700MOL0     C92300   5.460   6.413   2.309  0.2620 -0.3058 -0.4202
  700MOL0     C92301   5.427   6.552   2.324 -0.1725  0.2227  0.1399
  700MOL0     C92302   5.522   6.646   2.296  0.5054 -0.7451 -0.1278
  700MOL0     O92303   5.476   6.779   2.297 -0.1815  0.1257 -0.0236
  700MOL0     C92304   5.582   6.876   2.323  0.2729 -0.3766 -0.7987
  700MOL0     C92305   5.510   7.008   2.333 -0.7612 -0.3923  0.0792
  700MOL0     C92306   5.604   7.128   2.358 -0.2431  0.4540  0.9951
  700MOL0     C92307   5.525   7.247   2.398 -0.3262  0.6207 -0.6448
  700MOL0     C92308   5.594   7.382   2.370 -0.4841  0.0284  0.8227
  700MOL0     C92309   5.515   7.499   2.406  0.0949 -0.4787  0.1528
  700MOL0     C92310   5.591   7.627   2.420  0.7689  0.1061  0.9765
  700MOL0     C92311   5.535   7.730   2.513  0.1933 -0.6671  0.0230
  700MOL0    Cl92312   5.627   7.886   2.501  0.6653  0.1593 -0.0716
  700MOL0     C92313   5.657   6.611   2.268 -0.2821  0.2156  0.9324
  700MOL0     C92314   5.692   6.471   2.269  0.7883 -0.1556 -0.7743
  700MOL0     O92315   5.705   6.264   2.506 -0.8285  0.2945  0.9002
  700MOL0     C92316   5.660   5.954   2.320 -0.1034 -0.1822  0.0182
  700MOL0     C92317   5.671   5.812   2.329 -0.8763  0.0786  0.2429
  700MOL0     N92318   5.939   5.696   1.884 -0.4017  0.7616 -0.0532
  700MOL0     N92319   5.844   5.753   1.820 -0.1741 -0.0133  0.4152
  700MOL0     C92320   4.703   6.099   2.361  0.5894  0.5751  0.2781
  700MOL0     C92321   4.589   6.173   2.369  0.0322  0.4271  0.0472
  700MOL0     C92322   4.252   6.417   2.201  0.4848 -0.0408 -0.6183
  700MOL0     C92323   4.194   6.449   2.067 -0.4244 -0.2558 -0.5157
  700MOL0     C92324   4.079   6.535   2.066 -0.2698  0.5070 -0.0570
  700MOL0     C92325   4.024   6.590   2.183  0.3968  1.1995 -0.3814
  700MOL0     O92326   3.903   6.661   2.175 -0.3687  0.4154 -0.0836
  700MOL0     C92327   3.872   6.737   2.054  0.4372  0.4573 -1.1289
  700MOL0     C92328   3.960   6.862   2.020  0.7392 -0.4714  0.2952
  700MOL0     C92329   3.906   6.954   1.916 -0.3521  0.0051 -0.3222
  700MOL0     C92330   3.828   6.895   1.802  0.5289 -0.2343  1.1300
  700MOL0     C92331   3.912   6.809   1.717  0.3100  0.2077  0.2305
  700MOL0     C92332   3.958   6.736   1.627 -1.6949 -0.0741  1.5030
  700MOL0     C92333   4.087   6.559   2.303 -0.8785  0.0157 -0.3253
  700MOL0     C92334   4.197   6.479   2.314  0.3805  0.0309 -0.6740
  700MOL0     H92335   4.668   6.418   2.150  3.5180 -0.9279 -2.2015
  700MOL0     H92336   4.880   6.297   2.147 -0.3027  2.8090  1.3759
  700MOL0     H92337   5.050   6.082   2.453  0.0422  4.4487  2.0695
  700MOL0     H92338   5.017   6.233   2.372  0.3675 -0.6626  1.0118
  700MOL0     H92339   5.244   6.160   2.350 -1.8613  1.8251 -0.4140
  700MOL0     H92340   5.158   6.183   2.198  2.4051  1.7944  0.2635
  700MOL0     H92341   5.128   5.966   2.133 -0.2493 -0.8091  0.1184
  700MOL0     H92342   5.158   5.890   2.280  0.6827 -0.0730 -0.8639
  700MOL0     H92343   5.383   6.032   2.130 -1.0436 -1.3130 -2.6730
  700MOL0     H92344   5.391   5.900   2.255  0.3638  1.2092  0.3971
  700MOL0     H92345   5.272   5.867   1.982  1.6986 -0.7785 -2.4303
  700MOL0     H92346   5.278   5.751   2.114  1.5458 -0.1912  0.8051
  700MOL0     H92347   5.514   5.723   2.101  0.0837  1.2901  1.8899
  700MOL0     H92348   5.530   5.879   2.017 -0.3631  0.9761  1.3408
  700MOL0     H92349   5.437   5.609   1.900 -0.7038  0.9430  0.5931
  700MOL0     H92350   5.383   5.752   1.821 -1.6676  0.2810  1.3269
  700MOL0     H92351   5.598   5.813   1.746 -0.8618 -0.3717  0.2051
  700MOL0     H92352   5.613   5.646   1.732  5.0386 -0.0790  1.1546
  700MOL0     H92353   5.662   5.589   2.039 -0.5917  1.3211  0.3195
  700MOL0     H92354   6.021   5.460   2.010 -2.2617 -1.0812 -1.5065
  700MOL0     H92355   5.871   5.439   2.102 -0.1641 -2.0056 -2.5665
  700MOL0     H92356   6.080   5.660   2.128 -1.1432  1.0476 -2.3626
  700MOL0     H92357   6.055   5.506   2.229 -5.5563 -1.8505  2.4293
  700MOL0     H92358   6.010   5.711   2.341  1.9074 -1.7160 -0.1215
  700MOL0     H92359   5.874   5.740   2.237 -0.0820  0.8748  0.8001
  700MOL0     H92360   5.904   5.508   2.421  0.2521  0.3874  0.1471
  700MOL0     H92361   5.767   5.513   2.314  0.8381  0.8105 -2.2443
  700MOL0     H92362   5.781   5.815   2.654 -1.9156  0.8725  1.0736
  700MOL0     H92363   5.724   6.057   2.640  0.6085  3.0471 -1.8710
  700MOL0     H92364   5.379   6.342   2.328 -1.9065  1.9210 -0.8832
  700MOL0     H92365   5.329   6.587   2.353  0.0004 -0.5240  1.7034
  700MOL0     H92366   5.661   6.891   2.249  0.1913 -0.8939 -0.9929
  700MOL0     H92367   5.642   6.856   2.412  2.2528 -2.7937 -2.5449
  700MOL0     H92368   5.429   7.002   2.407  0.0959 -1.8771  0.9262
  700MOL0     H92369   5.471   7.031   2.233  1.2386 -1.5334 -1.0185
  700MOL0     H92370   5.671   7.145   2.273  2.0474  1.8951  2.9256
  700MOL0     H92371   5.671   7.104   2.441  0.1530  3.6796  1.7379
  700MOL0     H92372   5.441   7.262   2.329 -0.6222 -2.7005 -1.2076
  700MOL0     H92373   5.486   7.238   2.500 -2.4972  0.6917 -1.4049
  700MOL0     H92374   5.616   7.388   2.263  1.8537  0.5819  1.2792
  700MOL0     H92375   5.685   7.391   2.430  0.7168  0.2047 -0.9569
  700MOL0     H92376   5.474   7.478   2.505  1.7898  1.0813  1.2363
  700MOL0     H92377   5.439   7.512   2.328  2.5426  3.9108 -1.8338
  700MOL0     H92378   5.699   7.614   2.429  0.8287 -0.4359 -0.3128
  700MOL0     H92379   5.580   7.655   2.315 -1.8376 -1.6590  0.6943
  700MOL0     H92380   5.533   7.696   2.616 -0.5521  1.2702  0.6959
  700MOL0     H92381   5.432   7.759   2.488 -0.2029  0.6936  2.8558
  700MOL0     H92382   5.719   6.694   2.237 -1.5316  1.2672  1.1504
  700MOL0     H92383   5.795   6.439   2.263  1.6470  2.0263  0.8931
  700MOL0     H92384   5.627   6.002   2.228  1.7230  2.7359  0.7578
  700MOL0     H92385   5.657   5.747   2.243  1.8570  1.7310 -1.6241
  700MOL0     H92386   4.709   6.006   2.417  0.8824 -0.0010 -0.6811
  700MOL0     H92387   4.505   6.146   2.431  0.2425  1.5164  0.8387
  700MOL0     H92388   4.214   6.398   1.973 -1.9605  0.7374 -1.4368
  700MOL0     H92389   4.036   6.537   1.967  1.4118 -1.4749 -0.9173
  700MOL0     H92390   3.773   6.770   2.086  1.1008  0.2760  1.2621
  700MOL0     H92391   3.855   6.673   1.966  2.1015 -1.7059  0.0438
  700MOL0     H92392   3.981   6.922   2.109  1.4830 -0.8732  0.4071
  700MOL0     H92393   4.059   6.821   1.994  1.2347  0.3216  0.8823
  700MOL0     H92394   3.988   7.022   1.890 -0.0678  0.3152  1.2596
  700MOL0     H92395   3.839   7.020   1.972  1.5085  3.0421 -1.4512
  700MOL0     H92396   3.744   6.838   1.843 -1.5867  2.6817  1.2191
  700MOL0     H92397   3.782   6.972   1.740 -1.8537  0.1275  3.1787
  700MOL0     H92398   3.994   6.672   1.549 -0.8015  0.3312  1.5612
  700MOL0     H92399   4.038   6.610   2.385 -0.4682 -1.1661  0.7013
  700MOL0     H92400   4.245   6.458   2.410  2.2853 -0.1221 -1.6213
  701MOL0     O92401  10.091   8.626   2.973  0.8193  0.6285 -0.1972
  701MOL0     C92402  10.031   8.696   3.056  0.5964 -0.1528 -0.3623
  701MOL0     O92403   9.920   8.650   3.142 -0.1584  0.4500 -0.0898
  701MOL0     C92404   9.857   8.530   3.101  0.2186  0.3063 -0.5223
  701MOL0     C92405   9.754   8.521   3.009  0.3212 -0.1743  1.2783
  701MOL0     C92406   9.701   8.393   2.973 -1.2237  0.4756 -1.0495
  701MOL0     C92407   9.763   8.274   3.026 -0.0899  0.6384 -0.1155
  701MOL0     O92408   9.710   8.155   2.993  0.0669 -0.0973  0.0290
  701MOL0     C92409   9.791   8.059   2.924 -0.4384 -0.3444 -0.3284
  701MOL0     C92410   9.723   7.918   2.945  0.2796 -0.0791 -0.3188
  701MOL0     C92411   9.816   7.802   2.923  0.3375  0.2555 -0.0207
  701MOL0     C92412   9.870   7.803   2.786  0.2412  0.1028  0.9128
  701MOL0     C92413   9.990   7.714   2.758 -0.0556  0.8606 -0.1264
  701MOL0     C92414  10.127   7.785   2.774  0.2642 -0.2942 -0.4071
  701MOL0     C92415  10.231   7.738   2.678 -0.4616 -0.0124 -0.1821
  701MOL0     C92416  10.250   7.592   2.649  0.5222  0.5524  0.4058
  701MOL0     N92417  10.386   7.574   2.587 -0.0483 -0.2403  0.0556
  701MOL0     C92418  10.501   7.541   2.663  0.1760 -0.3265  0.3108
  701MOL0     C92419  10.602   7.534   2.566  0.6792 -0.4478 -0.2513
  701MOL0     C92420  10.742   7.497   2.602 -0.5050  0.2722  0.1977
  701MOL0     C92421  10.828   7.446   2.478  0.4700  0.1302  0.1117
  701MOL0     C92422  10.944   7.358   2.508  0.7312  0.5265 -0.8714
  701MOL0     C92423  11.040   7.406   2.614  0.9181  0.1552  0.4539
  701MOL0     O92424  11.165   7.422   2.535 -0.8296  0.4483  0.0660
  701MOL0     C92425  11.266   7.510   2.582 -0.4356  0.7474 -0.9557
  701MOL0     C92426  11.374   7.524   2.498  0.4178  0.7955  0.3849
  701MOL0     C92427  11.482   7.607   2.526  0.6373 -0.2699  0.5497
  701MOL0     C92428  11.474   7.685   2.636  0.3674 -0.9927  0.2531
  701MOL0     C92429  11.585   7.779   2.670 -0.2549 -0.9394  0.7595
  701MOL0     O92430  11.584   7.833   2.793  1.1767 -0.0750 -0.0037
  701MOL0     C92431  11.700   7.896   2.841  0.0887 -0.5249  0.9148
  701MOL0     C92432  11.779   7.832   2.935 -0.1923 -0.0621 -0.2344
  701MOL0     C92433  11.885   7.909   2.993 -0.3875 -0.2982  0.0800
  701MOL0     C92434  11.905   8.052   2.967  0.3124  1.4309  0.2158
  701MOL0     O92435  11.987   8.138   3.023  0.1611 -0.1641 -0.2168
  701MOL0     C92436  12.068   8.088   3.129  0.6511  0.1995  0.0233
  701MOL0     C92437  12.160   8.200   3.183  0.0680  0.8705  0.1652
  701MOL0     C92438  12.267   8.157   3.285 -0.1532  0.0594  0.0262
  701MOL0     C92439  12.358   8.279   3.304  0.0157  0.8537 -0.0767
  701MOL0     C92440  12.476   8.248   3.381 -0.3228 -0.2048  0.2830
  701MOL0     C92441  12.444   8.171   3.509 -0.7467  0.1859 -0.4493
  701MOL0     C92442  12.572   8.159   3.591 -0.7726 -0.5147  0.6104
  701MOL0     C92443  12.619   8.024   3.636 -0.1264  0.2320  0.1419
  701MOL0    Cl92444  12.520   7.968   3.779  0.4942 -0.1692  0.4571
  701MOL0     C92445  11.813   8.107   2.874  0.4031  0.2022  0.8718
  701MOL0     C92446  11.721   8.034   2.805 -0.0711  0.5944 -0.6359
  701MOL0     O92447  11.690   7.788   2.593  0.5794 -0.4628  0.1964
  701MOL0     C92448  11.374   7.669   2.731  0.3947 -0.2426 -0.1145
  701MOL0     C92449  11.270   7.580   2.698 -0.7412  0.2499 -1.1159
  701MOL0     N92450  10.545   7.560   2.439  0.1560 -0.1777  0.0757
  701MOL0     N92451  10.421   7.576   2.451  0.8465  0.1862  0.4330
  701MOL0     C92452   9.858   8.280   3.123 -0.5756 -0.9918  0.4562
  701MOL0     C92453   9.906   8.409   3.160 -0.3864 -0.2057  0.6255
  701MOL0     C92454  10.092   8.816   3.097  0.7457 -0.5961  0.0873
  701MOL0     C92455  10.031   8.899   3.207  0.4139 -0.2451 -0.2395
  701MOL0     C92456  10.087   9.023   3.242 -0.0982 -0.7049 -0.3199
  701MOL0     C92457  10.185   9.082   3.156 -0.2616 -0.2702  0.1584
  701MOL0     O92458  10.239   9.209   3.173 -0.0349  0.3744 -0.1466
  701MOL0     C92459  10.279   9.255   3.307  0.4965  0.4783  0.3338
  701MOL0     C92460  10.195   9.383   3.340 -0.5637  0.1444 -0.2868
  701MOL0     C92461  10.213   9.457   3.481  0.7746 -0.2530 -0.6587
  701MOL0     C92462  10.176   9.363   3.604 -0.5778  0.2881 -0.1910
  701MOL0     C92463  10.132   9.440   3.726  0.1373  0.5589 -0.5063
  701MOL0     C92464  10.084   9.521   3.806  0.3806  0.4159  0.2168
  701MOL0     C92465  10.223   9.015   3.039  0.0548 -0.2242 -0.0614
  701MOL0     C92466  10.190   8.878   3.017  0.0723  0.4906  0.5138
  701MOL0     H92467   9.730   8.615   2.961 -0.7630 -0.5626  1.0258
  701MOL0     H92468   9.631   8.387   2.890  0.5925 -0.9993 -2.5803
  701MOL0     H92469   9.879   8.054   2.989 -2.2662 -0.9610  2.2599
  701MOL0     H92470   9.809   8.084   2.819  1.6444 -0.4390 -0.0408
  701MOL0     H92471   9.651   7.896   2.866  2.0969  0.0076 -2.0797
  701MOL0     H92472   9.681   7.915   3.046  1.7847  0.5098  0.3621
  701MOL0     H92473   9.767   7.706   2.941 -2.1644  0.9785 -2.3674
  701MOL0     H92474   9.903   7.812   2.989  1.2030 -3.6969 -0.2889
  701MOL0     H92475   9.796   7.760   2.718  0.8062 -2.1424  1.6230
  701MOL0     H92476   9.896   7.900   2.744 -3.5998 -0.5143 -3.8653
  701MOL0     H92477   9.985   7.673   2.657  1.5297 -2.4119  0.9450
  701MOL0     H92478   9.988   7.622   2.818 -3.3955 -1.3795 -3.2392
  701MOL0     H92479  10.168   7.777   2.876  3.4487 -0.4585 -1.5875
  701MOL0     H92480  10.112   7.891   2.752 -0.9987 -0.5325 -0.7590
  701MOL0     H92481  10.218   7.801   2.589 -2.2162  3.9983  2.6298
  701MOL0     H92482  10.320   7.783   2.723  0.5727 -0.9112 -1.2737
  701MOL0     H92483  10.175   7.555   2.579 -0.3663 -0.9966  2.1051
  701MOL0     H92484  10.245   7.531   2.739 -2.8536  2.0560  1.3947
  701MOL0     H92485  10.504   7.509   2.766 -0.4288 -0.8832  0.1644
  701MOL0     H92486  10.755   7.431   2.689  1.7372  0.4092  0.0245
  701MOL0     H92487  10.789   7.590   2.635  0.1554  0.5736 -1.5451
  701MOL0     H92488  10.853   7.537   2.423 -0.6629  1.1259  1.1778
  701MOL0     H92489  10.760   7.387   2.415 -0.4858  1.8120 -0.4806
  701MOL0     H92490  10.896   7.270   2.552 -1.4493  2.4999  0.9567
  701MOL0     H92491  11.004   7.325   2.423  1.6771 -0.1694  0.0291
  701MOL0     H92492  11.041   7.350   2.708 -0.7287  0.1962  0.5311
  701MOL0     H92493  11.019   7.509   2.644  1.7056  1.1623 -2.2035
  701MOL0     H92494  11.378   7.478   2.400 -0.1684 -3.6329  2.1512
  701MOL0     H92495  11.571   7.595   2.466 -0.2133 -0.9609 -0.6173
  701MOL0     H92496  11.761   7.726   2.949 -0.2845  0.1200  1.2215
  701MOL0     H92497  11.942   7.850   3.064 -0.0551  0.0948  0.1459
  701MOL0     H92498  12.121   8.005   3.083  0.6446 -0.5433  1.3360
  701MOL0     H92499  12.002   8.034   3.197  1.6182 -0.8399  0.1468
  701MOL0     H92500  12.096   8.272   3.236 -2.2775 -2.5746  2.4558
  701MOL0     H92501  12.208   8.248   3.098 -2.1599  2.4871 -0.2647
  701MOL0     H92502  12.325   8.073   3.246  2.0176  1.4969 -0.0527
  701MOL0     H92503  12.225   8.126   3.381 -0.8451 -1.3519 -0.7110
  701MOL0     H92504  12.384   8.322   3.206 -0.2228 -1.7951 -1.4127
  701MOL0     H92505  12.307   8.351   3.368  2.5460  0.7412  2.2255
  701MOL0     H92506  12.521   8.344   3.409 -0.1399  0.7477 -2.8743
  701MOL0     H92507  12.550   8.205   3.312  0.2056  1.7223 -0.4085
  701MOL0     H92508  12.412   8.069   3.482  3.6870 -1.6616  0.3760
  701MOL0     H92509  12.365   8.215   3.570 -0.5990 -0.7999  0.4796
  701MOL0     H92510  12.655   8.211   3.542  1.9235 -3.3102  1.8633
  701MOL0     H92511  12.561   8.226   3.676  0.8528  0.1739  0.3114
  701MOL0     H92512  12.721   8.025   3.674 -0.4394 -1.6732  1.1446
  701MOL0     H92513  12.619   7.953   3.553 -0.4472 -1.2181  1.3530
  701MOL0     H92514  11.834   8.211   2.849  1.0140 -0.3856 -1.2233
  701MOL0     H92515  11.650   8.073   2.733  1.1230  0.7455 -1.7751
  701MOL0     H92516  11.377   7.720   2.827 -2.1430 -0.5857  0.2072
  701MOL0     H92517  11.195   7.561   2.775 -1.2933  2.8082 -0.9249
  701MOL0     H92518   9.901   8.195   3.174  0.4608  0.8747  2.9349
  701MOL0     H92519   9.985   8.428   3.232 -0.5493  1.6762  0.3572
  701MOL0     H92520   9.950   8.869   3.272  0.9255 -0.4318  0.3256
  701MOL0     H92521  10.053   9.074   3.332  0.1765 -2.8073  1.0554
  701MOL0     H92522  10.387   9.261   3.321  0.4775 -0.1790  0.8460
  701MOL0     H92523  10.238   9.188   3.384 -1.6191 -0.6985 -1.6896
  701MOL0     H92524  10.226   9.452   3.260 -0.2769 -0.0689 -0.3618
  701MOL0     H92525  10.089   9.379   3.314 -0.9389  1.4290  0.9566
  701MOL0     H92526  10.164   9.555   3.480  0.9288 -0.1426  0.6348
  701MOL0     H92527  10.317   9.478   3.507  0.7253  1.5686 -1.8159
  701MOL0     H92528  10.110   9.280   3.575  2.4747 -2.4166  0.0900
  701MOL0     H92529  10.271   9.312   3.617  0.6271  2.1182 -1.2846
  701MOL0     H92530  10.027   9.592   3.863 -0.8303  3.0296 -3.8395
  701MOL0     H92531  10.266   9.072   2.957  3.9654  0.2753  2.0543
  701MOL0     H92532  10.219   8.835   2.922 -2.6438  0.7938 -0.5700
  702MOL0     O92533   9.893   7.959   7.632  0.2824 -0.8851 -0.1530
  702MOL0     C92534   9.942   7.952   7.522  0.5417  0.3390  0.6433
  702MOL0     O92535   9.895   7.863   7.433 -0.4266  0.3486  1.0173
  702MOL0     C92536   9.800   7.766   7.466  0.4761  1.0642  0.0351
  702MOL0     C92537   9.706   7.727   7.372  0.6938  0.2965 -0.0225
  702MOL0     C92538   9.608   7.638   7.404 -0.1363 -0.7045  0.8223
  702MOL0     C92539   9.598   7.582   7.524 -0.8286  0.0041 -1.0298
  702MOL0     O92540   9.487   7.510   7.554 -0.0458  0.0858  0.4228
  702MOL0     C92541   9.408   7.574   7.656  1.3108 -0.2561 -0.4314
  702MOL0     C92542   9.265   7.536   7.647  0.4929  0.4721 -0.8073
  702MOL0     C92543   9.198   7.600   7.527 -0.5769  0.4220  0.7601
  702MOL0     C92544   9.047   7.575   7.534  0.3179  0.0045  0.3890
  702MOL0     C92545   8.974   7.653   7.432 -0.6103  0.1320  0.1560
  702MOL0     C92546   8.832   7.602   7.417  0.6956 -0.8430  0.7374
  702MOL0     C92547   8.770   7.691   7.300  0.5433  0.9216  0.3528
  702MOL0     C92548   8.819   7.621   7.170  0.3337 -0.1438 -0.0289
  702MOL0     N92549   8.765   7.689   7.043 -0.3541  0.0477 -0.3353
  702MOL0     C92550   8.644   7.731   7.015  0.0202 -0.4036  0.1154
  702MOL0     C92551   8.659   7.780   6.888 -0.4303  0.0548 -0.4169
  702MOL0     C92552   8.562   7.838   6.787  0.0465 -1.0451  0.9037
  702MOL0     C92553   8.587   7.987   6.770 -0.1374  0.3581 -0.3757
  702MOL0     C92554   8.541   8.078   6.891  0.4626 -0.6529  0.2423
  702MOL0     C92555   8.501   8.220   6.863  0.8791  0.2087  0.0386
  702MOL0     O92556   8.596   8.296   6.787 -0.3254  0.0001  0.1023
  702MOL0     C92557   8.579   8.427   6.774 -0.1340  0.0976  0.2255
  702MOL0     C92558   8.688   8.502   6.736 -0.4067  0.0826  0.2939
  702MOL0     C92559   8.677   8.639   6.708  0.0162  1.1626  0.1435
  702MOL0     C92560   8.551   8.706   6.724  0.6510 -0.0144 -0.7993
  702MOL0     C92561   8.534   8.847   6.682  1.3240 -0.5753 -0.2336
  702MOL0     O92562   8.419   8.913   6.716 -0.1388 -0.2156  0.0720
  702MOL0     C92563   8.398   9.040   6.669 -0.1901  0.1810  0.0290
  702MOL0     C92564   8.368   9.136   6.756 -0.5198  0.7910  0.5704
  702MOL0     C92565   8.346   9.273   6.710  0.1391  1.0798 -0.0839
  702MOL0     C92566   8.355   9.300   6.576 -0.1705  0.6040  0.7082
  702MOL0     O92567   8.361   9.421   6.508  0.6769  0.9353  1.3116
  702MOL0     C92568   8.373   9.543   6.578  0.5223 -0.2782 -0.2870
  702MOL0     C92569   8.319   9.657   6.497 -0.3389  1.5589  0.0761
  702MOL0     C92570   8.339   9.794   6.568 -0.4157  0.1499  0.3802
  702MOL0     C92571   8.284   9.907   6.484 -0.3320 -0.4976 -0.6382
  702MOL0     C92572   8.329  10.044   6.533  0.8692  0.2831  0.7533
  702MOL0     C92573   8.286  10.154   6.428 -0.7921 -0.3318 -0.7609
  702MOL0     C92574   8.382  10.272   6.447 -0.3763  0.2484 -0.0024
  702MOL0     C92575   8.371  10.369   6.326 -1.2434 -0.3017 -0.0228
  702MOL0    Cl92576   8.514  10.467   6.322 -0.1795  0.0793 -0.2106
  702MOL0     C92577   8.371   9.185   6.482  0.1540 -0.9716  0.2870
  702MOL0     C92578   8.405   9.066   6.527 -0.2586 -0.2754 -0.7279
  702MOL0     O92579   8.630   8.896   6.632  0.0026 -0.3015 -0.2393
  702MOL0     C92580   8.447   8.626   6.774  0.5906  0.4912  0.5070
  702MOL0     C92581   8.458   8.484   6.793  0.1884  0.2680  0.7026
  702MOL0     N92582   8.796   7.767   6.849  0.7824  0.3706 -0.4538
  702MOL0     N92583   8.857   7.715   6.951 -0.3388  0.3422 -0.3865
  702MOL0     C92584   9.700   7.598   7.614 -1.4615 -0.2457 -0.0316
  702MOL0     C92585   9.800   7.697   7.589  0.5967  0.1166  1.0831
  702MOL0     C92586  10.067   8.022   7.481  0.9341 -0.3080 -0.6551
  702MOL0     C92587  10.144   7.971   7.377  0.1090 -0.0063 -0.3342
  702MOL0     C92588  10.249   8.058   7.333  0.5605 -0.2269  1.1898
  702MOL0     C92589  10.273   8.186   7.379 -1.3170 -0.8396  0.8685
  702MOL0     O92590  10.375   8.264   7.315 -0.5319  0.5566  0.4216
  702MOL0     C92591  10.338   8.330   7.194  0.6654 -0.3750  0.5692
  702MOL0     C92592  10.354   8.251   7.063 -0.9787  0.7196 -0.2441
  702MOL0     C92593  10.316   8.360   6.950 -0.2912 -0.0673 -0.1126
  702MOL0     C92594  10.291   8.285   6.827 -0.6508 -0.2472  0.1199
  702MOL0     C92595  10.298   8.356   6.704  0.6728  0.3401  0.0878
  702MOL0     C92596  10.288   8.434   6.609  0.0311  0.3691  0.7743
  702MOL0     C92597  10.195   8.234   7.486 -0.3011  0.8686 -0.4062
  702MOL0     C92598  10.099   8.143   7.533  0.0635  0.4214  0.2259
  702MOL0     H92599   9.708   7.773   7.274 -1.1308  2.0378  0.6885
  702MOL0     H92600   9.521   7.632   7.338 -1.5796 -0.0767  2.5789
  702MOL0     H92601   9.418   7.682   7.645 -1.4550 -0.1448 -3.6049
  702MOL0     H92602   9.452   7.538   7.749 -1.6399  0.1870  1.2258
  702MOL0     H92603   9.222   7.562   7.744 -1.7475  1.7398 -2.0318
  702MOL0     H92604   9.259   7.429   7.630 -1.2341  0.6961 -1.8295
  702MOL0     H92605   9.240   7.558   7.436 -1.7975 -1.5066  1.0382
  702MOL0     H92606   9.220   7.706   7.540  1.3868 -0.0863  1.9287
  702MOL0     H92607   9.029   7.469   7.513  3.1241 -0.2507 -1.2046
  702MOL0     H92608   8.999   7.597   7.630 -0.5459 -0.0139 -0.0285
  702MOL0     H92609   9.033   7.648   7.340 -0.6608  0.4907  0.1034
  702MOL0     H92610   8.969   7.760   7.453  0.6671  1.0423 -3.4015
  702MOL0     H92611   8.775   7.621   7.509 -0.0869  0.4810  0.0098
  702MOL0     H92612   8.830   7.495   7.392  1.9800 -0.3449 -1.8773
  702MOL0     H92613   8.661   7.681   7.295  0.6257 -0.7642  1.3357
  702MOL0     H92614   8.806   7.793   7.311 -2.3580  2.0503  0.3798
  702MOL0     H92615   8.796   7.515   7.182  1.7490 -0.2818  1.8989
  702MOL0     H92616   8.928   7.617   7.165  0.4605 -3.1024  2.4395
  702MOL0     H92617   8.561   7.730   7.084 -0.1658 -0.0677 -0.1018
  702MOL0     H92618   8.458   7.823   6.817 -0.3975  1.1919  0.6292
  702MOL0     H92619   8.570   7.782   6.694  0.1564  0.0460  0.2328
  702MOL0     H92620   8.533   8.016   6.679 -0.7409  0.2162 -0.0615
  702MOL0     H92621   8.693   8.012   6.756  0.3831  1.4870  4.0927
  702MOL0     H92622   8.460   8.023   6.941  0.3958 -2.6925 -1.9407
  702MOL0     H92623   8.625   8.087   6.960 -0.2938 -0.2468  1.1236
  702MOL0     H92624   8.478   8.251   6.965 -1.2665 -1.6484  0.1940
  702MOL0     H92625   8.410   8.216   6.802 -0.5388 -2.1135  2.1393
  702MOL0     H92626   8.779   8.449   6.709 -1.4834 -1.2526 -0.8658
  702MOL0     H92627   8.770   8.687   6.678  3.0091 -3.8317  0.1569
  702MOL0     H92628   8.366   9.113   6.862 -2.6748 -0.1204  0.3705
  702MOL0     H92629   8.334   9.355   6.780  1.2993  2.6483 -1.6271
  702MOL0     H92630   8.479   9.563   6.592  0.3233 -0.6395  2.2709
  702MOL0     H92631   8.331   9.540   6.680 -1.2131  3.7287 -0.6940
  702MOL0     H92632   8.211   9.647   6.480 -1.0021  1.2970  3.6818
  702MOL0     H92633   8.368   9.647   6.400 -3.4899  2.2885 -1.7123
  702MOL0     H92634   8.448   9.808   6.571 -0.3987  0.1744 -0.1607
  702MOL0     H92635   8.293   9.790   6.667  0.7437 -2.1219  0.8854
  702MOL0     H92636   8.325   9.885   6.385  1.3594  0.8715 -0.2881
  702MOL0     H92637   8.176   9.890   6.491 -0.1108 -1.3527  0.9775
  702MOL0     H92638   8.436  10.064   6.549  1.0288 -1.7539  2.7061
  702MOL0     H92639   8.281  10.045   6.632 -0.6710 -5.8287  0.4304
  702MOL0     H92640   8.183  10.188   6.440 -0.5053  0.3031 -0.0198
  702MOL0     H92641   8.306  10.115   6.328  0.1539 -4.2418  0.7536
  702MOL0     H92642   8.352  10.315   6.543 -0.8208 -1.5992  0.7162
  702MOL0     H92643   8.488  10.246   6.444 -0.3009  0.1522  2.0736
  702MOL0     H92644   8.290  10.443   6.327 -1.2772 -0.0905 -3.5688
  702MOL0     H92645   8.370  10.314   6.231 -3.5023  0.3988 -0.4582
  702MOL0     H92646   8.378   9.215   6.378 -1.9067  4.1779  1.3315
  702MOL0     H92647   8.431   8.983   6.462  0.0573  0.4416 -1.5423
  702MOL0     H92648   8.347   8.662   6.797 -0.0279 -1.2665  0.6998
  702MOL0     H92649   8.365   8.434   6.816 -0.5851  0.4432 -1.7380
  702MOL0     H92650   9.700   7.540   7.706 -2.6640  3.4356  2.5264
  702MOL0     H92651   9.889   7.702   7.651  1.0085 -3.5031  0.9697
  702MOL0     H92652  10.131   7.870   7.340  0.1072 -0.2102  0.2031
  702MOL0     H92653  10.311   8.023   7.251  2.1119  3.2218  0.7307
  702MOL0     H92654  10.418   8.405   7.200  0.6017 -0.3543  1.2691
  702MOL0     H92655  10.246   8.388   7.191  1.0050  0.1502 -1.6794
  702MOL0     H92656  10.455   8.209   7.061 -1.4814 -0.5050 -1.6508
  702MOL0     H92657  10.290   8.162   7.074  0.7063 -0.5176 -0.1533
  702MOL0     H92658  10.400   8.428   6.934  1.0201 -1.5665  0.1597
  702MOL0     H92659  10.232   8.426   6.972 -1.1747 -1.5488  1.1488
  702MOL0     H92660  10.335   8.185   6.823 -1.0992 -0.4749  0.7677
  702MOL0     H92661  10.183   8.268   6.826 -0.6036 -0.5683  0.2395
  702MOL0     H92662  10.272   8.492   6.520 -0.1550  0.5675  0.9376
  702MOL0     H92663  10.187   8.331   7.534 -4.3753  0.2209  0.5695
  702MOL0     H92664  10.035   8.183   7.611  1.9775  2.5265  0.8164
  703MOL0     O92665   1.054   7.687   2.989  0.8107  0.1062 -0.8667
  703MOL0     C92666   0.941   7.628   3.004 -0.4661 -0.9175 -0.1623
  703MOL0     O92667   0.888   7.529   2.925 -0.9001 -0.5745 -0.1013
  703MOL0     C92668   0.963   7.482   2.822 -1.1850  0.2674  0.7676
  703MOL0     C92669   1.108   7.467   2.806 -1.2004 -0.4928 -0.3199
  703MOL0     C92670   1.158   7.423   2.685  0.6788 -0.7483 -0.5215
  703MOL0     C92671   1.079   7.374   2.584 -0.1887  0.6227 -0.1116
  703MOL0     O92672   1.152   7.335   2.478 -0.5884 -0.1498 -0.0734
  703MOL0     C92673   1.087   7.270   2.365 -0.2035 -0.2472 -0.4576
  703MOL0     C92674   1.160   7.313   2.236 -0.6876  0.5585  0.5485
  703MOL0     C92675   1.103   7.433   2.159 -0.7005  0.9708 -1.1684
  703MOL0     C92676   1.064   7.555   2.256 -0.7079 -0.3219 -0.2530
  703MOL0     C92677   1.050   7.687   2.174 -0.1253 -0.4236 -0.3412
  703MOL0     C92678   0.965   7.674   2.054  0.2851  0.3233  0.7279
  703MOL0     C92679   0.947   7.812   1.991 -0.1307  0.1806 -0.1306
  703MOL0     C92680   1.086   7.873   1.951  0.5412 -0.2892 -0.1497
  703MOL0     N92681   1.080   7.975   1.844  0.3287 -0.6686 -0.2085
  703MOL0     C92682   1.054   7.964   1.711 -1.1481 -0.4971 -0.1508
  703MOL0     C92683   1.014   8.085   1.674  1.2543  0.6201 -0.2364
  703MOL0     C92684   0.957   8.109   1.543  1.7068 -0.1951  0.1147
  703MOL0     C92685   1.055   8.129   1.432 -0.3854 -0.8071 -0.3105
  703MOL0     C92686   1.104   7.987   1.385  0.6136 -0.6755  0.1386
  703MOL0     C92687   0.994   7.913   1.303 -0.0833  0.5381 -0.1385
  703MOL0     O92688   1.025   7.775   1.285  0.2420 -0.3970 -0.2748
  703MOL0     C92689   1.055   7.691   1.388  0.1143  0.1390 -1.2017
  703MOL0     C92690   0.961   7.660   1.495  0.1072  0.3628 -0.7091
  703MOL0     C92691   0.990   7.570   1.586 -1.3212  0.3594 -0.6433
  703MOL0     C92692   1.124   7.517   1.599  0.1671 -0.1965  0.5556
  703MOL0     C92693   1.146   7.405   1.690 -0.4437 -0.5850  0.7015
  703MOL0     O92694   1.273   7.363   1.693 -0.9423  0.1695 -0.3286
  703MOL0     C92695   1.303   7.255   1.778 -0.5611 -0.2125 -0.4838
  703MOL0     C92696   1.386   7.297   1.885  0.2472 -0.1017  0.4831
  703MOL0     C92697   1.411   7.202   1.984  0.3143 -0.5112  0.0857
  703MOL0     C92698   1.371   7.071   1.976  1.2723 -0.6690 -0.2901
  703MOL0     O92699   1.393   6.989   2.083 -0.0766  0.0396 -0.7688
  703MOL0     C92700   1.301   6.877   2.111  0.3629  0.1322  0.1737
  703MOL0     C92701   1.330   6.814   2.251  0.8490  0.9218 -0.2882
  703MOL0     C92702   1.225   6.882   2.349  0.7899 -0.3194 -0.6231
  703MOL0     C92703   1.262   6.859   2.497  0.1274  0.7274 -0.0381
  703MOL0     C92704   1.175   6.935   2.600 -0.0911 -0.4145 -0.0309
  703MOL0     C92705   1.236   6.962   2.747  0.8273 -0.2322 -0.0577
  703MOL0     C92706   1.366   7.047   2.734  0.1850 -0.0070  1.3348
  703MOL0     C92707   1.419   7.094   2.874  1.0257  0.2453  1.2608
  703MOL0    Cl92708   1.330   7.246   2.937  0.2050 -0.5311 -0.1596
  703MOL0     C92709   1.282   7.036   1.877  0.3062 -0.5949  0.3494
  703MOL0     C92710   1.257   7.126   1.771  0.3111  0.2477  0.4460
  703MOL0     O92711   1.071   7.395   1.788  0.2172  0.2613  0.0662
  703MOL0     C92712   1.221   7.548   1.495  0.4828  0.7140  0.2662
  703MOL0     C92713   1.179   7.628   1.393 -0.3553 -0.5687 -0.2661
  703MOL0     N92714   1.024   8.176   1.777 -0.0414  0.0812 -1.2596
  703MOL0     N92715   1.064   8.106   1.878  0.7246  0.5961 -0.0788
  703MOL0     C92716   0.939   7.370   2.609  0.9351  0.6142 -0.3526
  703MOL0     C92717   0.886   7.422   2.721 -1.4365 -0.4721 -0.1699
  703MOL0     C92718   0.851   7.669   3.119  0.9735  0.4527  1.3063
  703MOL0     C92719   0.715   7.616   3.132 -0.5160 -0.7075 -0.0146
  703MOL0     C92720   0.620   7.654   3.232  0.1413 -0.5921  0.4032
  703MOL0     C92721   0.662   7.759   3.308 -0.0244 -0.8887  0.2341
  703MOL0     O92722   0.590   7.826   3.399  1.6955 -0.6384  0.1163
  703MOL0     C92723   0.445   7.796   3.400  0.2334 -0.3546  1.2875
  703MOL0     C92724   0.393   7.900   3.496 -0.5078 -0.2124 -0.2553
  703MOL0     C92725   0.396   8.049   3.449  0.1715  0.0969  0.7118
  703MOL0     C92726   0.310   8.079   3.330 -0.9945  0.3906  0.3751
  703MOL0     C92727   0.173   8.098   3.370 -0.2714 -0.4346  0.5117
  703MOL0     C92728   0.055   8.097   3.391  0.1209  0.1212 -0.1102
  703MOL0     C92729   0.790   7.826   3.286  0.1809 -1.4789  0.0988
  703MOL0     C92730   0.885   7.781   3.198  0.2321 -0.7090  0.4751
  703MOL0     H92731   1.169   7.508   2.885 -1.9733  2.6162 -1.1842
  703MOL0     H92732   1.263   7.420   2.659  0.3437 -4.2887 -2.0555
  703MOL0     H92733   0.983   7.304   2.355  0.0463 -0.0605 -3.0748
  703MOL0     H92734   1.085   7.164   2.392 -3.0746  0.5708  3.5185
  703MOL0     H92735   1.152   7.231   2.164  0.7555  1.1285 -0.2998
  703MOL0     H92736   1.267   7.331   2.250 -0.8150  3.2957 -1.3210
  703MOL0     H92737   1.025   7.399   2.090 -0.2397 -1.4709 -0.5655
  703MOL0     H92738   1.177   7.474   2.090 -0.8551  1.8378 -0.8394
  703MOL0     H92739   0.976   7.531   2.316 -0.5141  2.5654  1.3803
  703MOL0     H92740   1.147   7.569   2.325 -0.7773  1.1656 -0.4438
  703MOL0     H92741   1.154   7.717   2.153  1.0412 -3.7312  0.1968
  703MOL0     H92742   0.997   7.763   2.232 -0.5580  0.6135 -2.0387
  703MOL0     H92743   0.870   7.630   2.086  0.6358 -3.7122 -2.9482
  703MOL0     H92744   0.996   7.599   1.981 -3.3297  1.0474 -1.8518
  703MOL0     H92745   0.878   7.811   1.906 -2.5403 -0.8310  1.7360
  703MOL0     H92746   0.891   7.875   2.061  0.8846 -0.5804  1.4281
  703MOL0     H92747   1.146   7.791   1.910 -0.5952 -0.5401 -1.3704
  703MOL0     H92748   1.133   7.913   2.041  2.1328 -1.2973 -0.4781
  703MOL0     H92749   1.046   7.867   1.664  0.9409 -1.5861  1.5480
  703MOL0     H92750   0.908   8.205   1.561  0.3615 -1.3179  3.0530
  703MOL0     H92751   0.882   8.032   1.526  3.3000 -2.9335  4.0838
  703MOL0     H92752   1.137   8.195   1.461 -0.2055 -0.3864 -1.6834
  703MOL0     H92753   1.008   8.194   1.357 -1.5772 -0.5882  0.5941
  703MOL0     H92754   1.189   8.013   1.321  2.2610 -0.0315  2.4315
  703MOL0     H92755   1.150   7.925   1.463  0.4857  0.0158  0.7793
  703MOL0     H92756   1.021   7.953   1.205  0.9288 -0.9078 -0.4960
  703MOL0     H92757   0.891   7.934   1.332  0.4907  1.3097  1.4914
  703MOL0     H92758   0.866   7.712   1.498  0.1546  0.4148  1.1728
  703MOL0     H92759   0.913   7.534   1.653 -0.3925 -1.8020 -0.6637
  703MOL0     H92760   1.414   7.402   1.880 -0.5411  0.1331  0.8415
  703MOL0     H92761   1.460   7.242   2.072 -0.5592  3.1804 -0.9021
  703MOL0     H92762   1.324   6.802   2.035  3.5197 -0.4718  1.5210
  703MOL0     H92763   1.202   6.922   2.115  0.4912  0.3495  1.1588
  703MOL0     H92764   1.431   6.835   2.287  0.7666  1.3043 -0.2766
  703MOL0     H92765   1.313   6.706   2.257 -0.7694  1.2251  1.5387
  703MOL0     H92766   1.128   6.842   2.319  0.2285  0.6712 -0.1769
  703MOL0     H92767   1.240   6.990   2.337 -0.7783 -0.1030 -0.8155
  703MOL0     H92768   1.264   6.750   2.508 -1.8995  0.5656 -0.7741
  703MOL0     H92769   1.367   6.886   2.512  0.5000  0.6999 -2.2698
  703MOL0     H92770   1.074   6.896   2.614  0.4385 -1.9621 -0.3089
  703MOL0     H92771   1.174   7.031   2.547 -0.7061 -2.0399 -3.2371
  703MOL0     H92772   1.259   6.862   2.786 -0.9632 -0.6236  0.0579
  703MOL0     H92773   1.166   7.022   2.806  0.3591  1.5885 -2.3638
  703MOL0     H92774   1.442   6.983   2.689 -0.4027  2.4167 -3.8908
  703MOL0     H92775   1.353   7.131   2.665 -0.4097 -1.9942 -1.0949
  703MOL0     H92776   1.525   7.118   2.862  1.3624 -1.0717  1.3711
  703MOL0     H92777   1.414   7.008   2.942 -1.1253 -1.0660 -0.3886
  703MOL0     H92778   1.246   6.934   1.886 -1.6122  0.0446  0.1982
  703MOL0     H92779   1.184   7.104   1.693  0.6810 -0.6102  0.3324
  703MOL0     H92780   1.318   7.502   1.475  0.5537 -0.2422  2.5195
  703MOL0     H92781   1.248   7.650   1.311  1.0672 -0.9050  0.8017
  703MOL0     H92782   0.869   7.337   2.533 -0.7152  2.5873  0.2374
  703MOL0     H92783   0.783   7.396   2.742 -1.5945  1.4920  1.8515
  703MOL0     H92784   0.692   7.537   3.061 -2.2903 -0.9687  0.7863
  703MOL0     H92785   0.516   7.621   3.229 -0.8816  2.2648  1.5451
  703MOL0     H92786   0.435   7.692   3.431 -0.4159 -0.7534 -0.1505
  703MOL0     H92787   0.420   7.809   3.294  2.0111  1.0897  1.0038
  703MOL0     H92788   0.291   7.865   3.512  0.3293 -3.0015 -0.4955
  703MOL0     H92789   0.432   7.910   3.598 -0.5500  1.6919 -0.3852
  703MOL0     H92790   0.497   8.078   3.418 -1.4177  2.9675 -2.3771
  703MOL0     H92791   0.371   8.118   3.530  0.1630 -0.9003  1.5862
  703MOL0     H92792   0.345   8.174   3.288 -0.9351 -0.3687 -1.3911
  703MOL0     H92793   0.317   7.995   3.261  2.3169  0.8036  0.0172
  703MOL0     H92794  -0.052   8.106   3.389  0.1592  0.6608 -2.0874
  703MOL0     H92795   0.822   7.911   3.345 -1.9457 -0.3642 -0.2465
  703MOL0     H92796   0.982   7.825   3.178 -0.1814 -0.1762 -0.4526
  704MOL0     O92797   4.365   3.378   6.546 -0.3729 -0.5098  0.2514
  704MOL0     C92798   4.416   3.328   6.651  0.0689  0.4202 -0.2088
  704MOL0     O92799   4.560   3.320   6.676 -1.1280  0.0836 -0.5661
  704MOL0     C92800   4.661   3.331   6.577 -0.6985 -0.4872  0.3753
  704MOL0     C92801   4.651   3.331   6.442 -0.8596 -0.3913  0.1063
  704MOL0     C92802   4.763   3.327   6.358 -0.3566  0.1742  0.4150
  704MOL0     C92803   4.888   3.316   6.407  0.3180 -0.1088 -0.2633
  704MOL0     O92804   4.999   3.303   6.332 -0.3853  0.5852 -0.1825
  704MOL0     C92805   5.013   3.172   6.277 -0.8674 -0.4156  0.9227
  704MOL0     C92806   5.146   3.167   6.198  0.0940  1.0129 -0.3355
  704MOL0     C92807   5.152   3.272   6.091  0.0847 -0.3960 -0.0282
  704MOL0     C92808   5.074   3.226   5.961  0.4276  0.6069 -0.4333
  704MOL0     C92809   5.086   3.321   5.841  0.4241  0.4477 -0.5846
  704MOL0     C92810   5.039   3.263   5.703 -0.4693  0.0334  0.7603
  704MOL0     C92811   5.129   3.320   5.587  0.4744  0.4992 -0.8148
  704MOL0     C92812   5.133   3.467   5.569  0.0606  0.2159  0.2734
  704MOL0     N92813   5.208   3.524   5.458 -0.3698  0.4445 -0.0852
  704MOL0     C92814   5.213   3.481   5.327  0.1444 -0.8928 -0.6072
  704MOL0     C92815   5.296   3.565   5.261 -0.0775 -0.1019  0.2743
  704MOL0     C92816   5.329   3.576   5.117  0.2361  0.2968 -0.7417
  704MOL0     C92817   5.472   3.514   5.096  0.2796 -0.1830  0.1908
  704MOL0     C92818   5.560   3.584   4.991  0.2688  0.8133 -0.5049
  704MOL0     C92819   5.705   3.538   4.979  0.3406 -0.7761 -0.4498
  704MOL0     O92820   5.786   3.624   4.892 -0.3594  0.0013  0.4506
  704MOL0     C92821   5.803   3.597   4.766  0.2109  0.1324  0.2478
  704MOL0     C92822   5.737   3.493   4.688  0.1656  0.5632 -0.7138
  704MOL0     C92823   5.769   3.471   4.553  0.1248 -0.6911  0.1749
  704MOL0     C92824   5.857   3.561   4.485  0.5058 -0.2680  0.1012
  704MOL0     C92825   5.893   3.545   4.344  0.3741  0.8235 -0.6538
  704MOL0     O92826   5.979   3.631   4.287 -1.3904 -0.0830  0.7274
  704MOL0     C92827   5.996   3.618   4.155  1.6607  0.9895  0.3455
  704MOL0     C92828   5.948   3.722   4.063  0.1199  0.0341 -0.6728
  704MOL0     C92829   5.962   3.709   3.923  0.4134  0.0746  0.0446
  704MOL0     C92830   6.020   3.605   3.868 -0.2443 -0.3531 -0.0954
  704MOL0     O92831   6.013   3.597   3.734 -0.1853 -0.6378  1.2243
  704MOL0     C92832   6.028   3.461   3.673  1.2584 -1.1472 -1.1462
  704MOL0     C92833   6.006   3.474   3.527 -0.6606  0.6889  1.0534
  704MOL0     C92834   5.862   3.475   3.506 -0.3131  0.0170  0.8206
  704MOL0     C92835   5.777   3.556   3.596  0.0006 -0.1413  0.1479
  704MOL0     C92836   5.632   3.548   3.548 -0.7406 -1.1708  0.0160
  704MOL0     C92837   5.535   3.602   3.655  0.6952 -0.7362 -0.3554
  704MOL0     C92838   5.380   3.583   3.607 -0.3971 -0.2172 -0.5091
  704MOL0     C92839   5.306   3.503   3.705 -0.3053  0.8415 -0.2915
  704MOL0    Cl92840   5.369   3.326   3.703  0.6114 -0.0269 -0.2834
  704MOL0     C92841   6.053   3.494   3.958 -0.0268  0.6557 -0.4462
  704MOL0     C92842   6.050   3.506   4.099  0.0258 -0.4738  0.6039
  704MOL0     O92843   5.829   3.458   4.285 -0.8451  0.4108  0.3955
  704MOL0     C92844   5.916   3.664   4.561  0.3893  0.8879  0.6672
  704MOL0     C92845   5.892   3.677   4.696 -0.2827 -1.3488 -0.1489
  704MOL0     N92846   5.339   3.668   5.348  0.7273 -0.5604 -0.3398
  704MOL0     N92847   5.279   3.635   5.459 -0.7637  0.3190 -0.3940
  704MOL0     C92848   4.902   3.306   6.544  0.7715 -0.6371 -0.3178
  704MOL0     C92849   4.792   3.315   6.630  0.1953 -0.7032  0.0571
  704MOL0     C92850   4.319   3.300   6.766  0.1619  0.2067  0.7088
  704MOL0     C92851   4.181   3.299   6.744 -0.1578 -0.1494  0.3037
  704MOL0     C92852   4.084   3.294   6.843 -0.3996 -0.0262 -0.5244
  704MOL0     C92853   4.120   3.296   6.978  0.1504 -1.7103 -0.5756
  704MOL0     O92854   4.031   3.285   7.088 -1.3742 -0.4250  0.8406
  704MOL0     C92855   3.897   3.261   7.051  0.7340 -0.5930 -0.3710
  704MOL0     C92856   3.869   3.122   7.006 -0.3260 -0.2959 -0.0043
  704MOL0     C92857   3.751   3.067   7.086  0.1957  1.7414 -0.1082
  704MOL0     C92858   3.756   2.913   7.105  0.1039 -0.0165  0.4681
  704MOL0     C92859   3.793   2.838   6.981  0.3099 -0.1002  0.5277
  704MOL0     C92860   3.823   2.768   6.885 -0.0997  0.6496 -0.2967
  704MOL0     C92861   4.258   3.294   7.008 -0.0597 -0.4104  0.4057
  704MOL0     C92862   4.357   3.295   6.905 -0.7019  0.2452  0.6531
  704MOL0     H92863   4.555   3.322   6.390  0.2537 -5.0534 -1.6408
  704MOL0     H92864   4.751   3.337   6.250 -1.0040 -3.0684  0.0722
  704MOL0     H92865   4.937   3.149   6.202  1.3833  0.2389 -1.7416
  704MOL0     H92866   4.998   3.100   6.358 -4.1734 -0.4501  0.4394
  704MOL0     H92867   5.168   3.074   6.144  2.7017 -0.8846  3.5163
  704MOL0     H92868   5.223   3.166   6.275  0.8103 -0.7739 -1.0087
  704MOL0     H92869   5.252   3.276   6.048 -0.0330 -3.9450 -0.9558
  704MOL0     H92870   5.115   3.372   6.119  1.2467  0.2301 -0.6780
  704MOL0     H92871   5.107   3.126   5.934 -0.1466 -0.5557  2.7551
  704MOL0     H92872   4.966   3.218   5.978  0.8846 -1.8708  1.8565
  704MOL0     H92873   5.185   3.367   5.843 -0.6317  2.8798  1.1364
  704MOL0     H92874   5.016   3.404   5.853 -1.3585 -0.8388 -1.5175
  704MOL0     H92875   4.932   3.276   5.688  0.0736  2.1890 -2.1835
  704MOL0     H92876   5.065   3.157   5.702  0.9693  0.3311  2.3060
  704MOL0     H92877   5.231   3.280   5.594 -0.6893 -2.3831  4.3594
  704MOL0     H92878   5.086   3.280   5.494  0.6251 -2.1702  0.1864
  704MOL0     H92879   5.165   3.519   5.660  0.4102  1.2104 -0.3988
  704MOL0     H92880   5.032   3.510   5.569 -0.5378 -0.8654 -3.6846
  704MOL0     H92881   5.161   3.395   5.285 -1.7744 -0.9037  1.6149
  704MOL0     H92882   5.335   3.684   5.099  0.3156  0.4512  0.1619
  704MOL0     H92883   5.260   3.525   5.050 -0.7152 -0.5390  0.8071
  704MOL0     H92884   5.448   3.417   5.051  0.0907  1.8556 -4.6919
  704MOL0     H92885   5.526   3.514   5.191 -0.2601  4.4111  0.7290
  704MOL0     H92886   5.513   3.573   4.893 -1.8819 -2.4605  0.6928
  704MOL0     H92887   5.559   3.681   5.041 -2.6348 -0.5965  2.6171
  704MOL0     H92888   5.709   3.433   4.947 -0.4880 -1.0410  0.2819
  704MOL0     H92889   5.752   3.562   5.074 -1.3624 -0.5777  0.3899
  704MOL0     H92890   5.664   3.424   4.729  0.6462  1.0830  1.1460
  704MOL0     H92891   5.723   3.395   4.491 -1.2599 -0.0320  0.3445
  704MOL0     H92892   5.898   3.808   4.107  0.2144 -0.2953  0.1034
  704MOL0     H92893   5.927   3.790   3.859 -0.6466 -0.7588 -0.4592
  704MOL0     H92894   5.958   3.390   3.718 -1.1458  2.4373  1.2578
  704MOL0     H92895   6.129   3.425   3.695  1.3727  1.1047  2.9065
  704MOL0     H92896   6.061   3.391   3.481 -0.4004  1.0480  0.7060
  704MOL0     H92897   6.048   3.563   3.479 -4.4486  0.8615 -2.5045
  704MOL0     H92898   5.817   3.376   3.517  0.1380 -0.5437 -1.8128
  704MOL0     H92899   5.840   3.508   3.404  1.6545  1.9321  0.9479
  704MOL0     H92900   5.774   3.517   3.698 -1.1352 -0.0694  0.1557
  704MOL0     H92901   5.818   3.658   3.598  2.1522 -0.9629  0.4569
  704MOL0     H92902   5.613   3.442   3.531 -1.5037 -1.1788  0.8888
  704MOL0     H92903   5.606   3.605   3.458 -1.0636 -3.5460 -1.4932
  704MOL0     H92904   5.555   3.709   3.656  2.1803 -0.9675  2.0634
  704MOL0     H92905   5.545   3.559   3.755 -2.5841  1.4852  1.1006
  704MOL0     H92906   5.335   3.683   3.602  2.6512  1.2345 -3.7748
  704MOL0     H92907   5.377   3.540   3.507 -0.6764 -1.7765  0.1490
  704MOL0     H92908   5.202   3.492   3.672  0.1565  0.4740 -1.6807
  704MOL0     H92909   5.325   3.560   3.797 -1.0154  0.9965 -0.2334
  704MOL0     H92910   6.079   3.397   3.917  1.2834  1.2011 -0.9547
  704MOL0     H92911   6.093   3.435   4.169 -1.9177 -0.3876  1.9521
  704MOL0     H92912   5.970   3.742   4.507 -1.3494  3.4708  2.4276
  704MOL0     H92913   5.951   3.744   4.757 -0.6793 -0.8547 -0.3099
  704MOL0     H92914   5.001   3.287   6.585 -0.6165 -0.3192  3.6418
  704MOL0     H92915   4.807   3.300   6.736  0.1136 -2.8703 -0.1938
  704MOL0     H92916   4.139   3.311   6.645 -1.1717 -1.6737  0.5089
  704MOL0     H92917   3.978   3.291   6.820 -0.8093  1.5390  0.9542
  704MOL0     H92918   3.866   3.332   6.974 -2.4702 -2.9268 -1.4424
  704MOL0     H92919   3.827   3.283   7.133  1.3776 -3.6820  1.1304
  704MOL0     H92920   3.826   3.128   6.906 -2.4964 -0.4251  0.8677
  704MOL0     H92921   3.950   3.049   7.014 -0.1879 -0.0510  0.9276
  704MOL0     H92922   3.652   3.096   7.049 -0.1344 -2.0982 -2.8610
  704MOL0     H92923   3.767   3.109   7.186 -1.0178  4.0377 -0.8123
  704MOL0     H92924   3.833   2.888   7.178  1.5689 -1.8201 -1.5446
  704MOL0     H92925   3.658   2.873   7.134 -1.7109  1.0682 -3.5000
  704MOL0     H92926   3.848   2.712   6.796 -1.4268  1.0884 -0.9792
  704MOL0     H92927   4.296   3.294   7.110  1.4275  2.0176 -0.0630
  704MOL0     H92928   4.464   3.302   6.921 -0.4212  0.9574 -1.3441
  705MOL0     O92929   7.316   0.485   3.063 -0.1707 -0.7248 -0.9400
  705MOL0     C92930   7.398   0.395   3.075  1.0464  1.2707 -0.5000
  705MOL0     O92931   7.394   0.292   3.167 -0.2785  0.6834 -0.6778
  705MOL0     C92932   7.330   0.311   3.286 -0.7485 -0.0426  0.7295
  705MOL0     C92933   7.403   0.276   3.411  0.4488 -0.5978  0.7602
  705MOL0     C92934   7.333   0.291   3.533  0.0483 -0.7509  0.6681
  705MOL0     C92935   7.203   0.348   3.538  0.2872 -0.3209 -0.0658
  705MOL0     O92936   7.134   0.344   3.659  0.4319  0.0947  0.0044
  705MOL0     C92937   7.019   0.427   3.692  0.7042 -0.1524  0.8416
  705MOL0     C92938   6.892   0.349   3.645 -0.2152 -0.5347 -0.1905
  705MOL0     C92939   6.766   0.435   3.674 -1.0534  0.5564 -0.6572
  705MOL0     C92940   6.755   0.541   3.564  0.0368  0.0943 -0.8390
  705MOL0     C92941   6.626   0.624   3.585  0.5776 -1.4280  0.5200
  705MOL0     C92942   6.638   0.732   3.695  0.7065 -0.5933  0.1937
  705MOL0     C92943   6.508   0.826   3.694  1.2912  0.4317  0.0335
  705MOL0     C92944   6.505   0.920   3.811 -0.0297 -0.9869 -1.0140
  705MOL0     N92945   6.375   0.937   3.879 -0.3149  0.0556 -0.9799
  705MOL0     C92946   6.254   0.981   3.826  0.2282 -0.2175  0.4904
  705MOL0     C92947   6.162   0.983   3.917  0.1209  1.4903  0.3330
  705MOL0     C92948   6.011   1.015   3.904  0.4446 -0.2630  0.3247
  705MOL0     C92949   5.919   0.927   3.986 -0.1994  0.9371 -0.1754
  705MOL0     C92950   5.935   0.776   3.954  0.6722 -0.8257 -0.2031
  705MOL0     C92951   5.876   0.686   4.060 -0.4786  0.0864  0.5952
  705MOL0     O92952   5.738   0.723   4.075  0.0633 -0.0198  0.1370
  705MOL0     C92953   5.680   0.759   4.197 -0.8141  0.3311 -0.9664
  705MOL0     C92954   5.548   0.824   4.197 -0.6930  0.2917 -0.4536
  705MOL0     C92955   5.474   0.842   4.312  1.0251  0.7631 -0.3247
  705MOL0     C92956   5.534   0.813   4.436 -0.0922 -0.3114 -1.2649
  705MOL0     C92957   5.456   0.838   4.557  0.3065  0.2327  1.0268
  705MOL0     O92958   5.497   0.777   4.672  0.1790  0.2272 -0.6433
  705MOL0     C92959   5.455   0.828   4.797  0.5703 -0.0791  0.3100
  705MOL0     C92960   5.330   0.796   4.837  0.9228  0.2906  0.3046
  705MOL0     C92961   5.278   0.833   4.961 -0.1580 -0.2159 -0.1179
  705MOL0     C92962   5.357   0.915   5.039  1.0069  1.1456  0.1661
  705MOL0     O92963   5.301   0.957   5.157  0.0674  0.1036  0.0741
  705MOL0     C92964   5.371   0.933   5.274 -0.0621  0.3099 -0.2436
  705MOL0     C92965   5.318   1.016   5.379  0.1125 -0.2097  0.3135
  705MOL0     C92966   5.381   0.995   5.514  0.3504 -0.2525  0.1976
  705MOL0     C92967   5.282   1.031   5.626  0.4267 -0.8561  0.1835
  705MOL0     C92968   5.323   0.979   5.762 -1.0053  0.2347 -0.5886
  705MOL0     C92969   5.220   1.010   5.870 -0.2584 -0.3545  0.2305
  705MOL0     C92970   5.254   0.954   6.008 -0.0575  0.9374 -0.4824
  705MOL0     C92971   5.159   0.986   6.120 -0.2536 -0.3791  0.1234
  705MOL0    Cl92972   5.249   0.943   6.275 -0.0207 -0.5125  0.0238
  705MOL0     C92973   5.486   0.953   5.000  0.7407  0.1801 -1.1093
  705MOL0     C92974   5.537   0.902   4.879 -0.8970 -0.1273  0.8158
  705MOL0     O92975   5.362   0.920   4.552 -0.7426 -0.4546 -0.4152
  705MOL0     C92976   5.661   0.757   4.441 -0.4003  0.5777 -0.4442
  705MOL0     C92977   5.730   0.733   4.326  1.2218  0.6457  0.1071
  705MOL0     N92978   6.214   0.912   4.025 -0.8030  0.1733 -0.4495
  705MOL0     N92979   6.343   0.901   4.002 -0.7850  0.4310 -0.3582
  705MOL0     C92980   7.150   0.401   3.421 -0.1900  0.4310 -0.0613
  705MOL0     C92981   7.200   0.378   3.295  0.9103 -0.1537  0.1877
  705MOL0     C92982   7.514   0.387   2.982 -0.8779  0.2284 -1.0320
  705MOL0     C92983   7.536   0.494   2.889  0.4004  0.7601  0.2524
  705MOL0     C92984   7.646   0.489   2.796  0.6509 -0.0656  0.0655
  705MOL0     C92985   7.735   0.381   2.797  0.3027 -0.1539 -0.9162
  705MOL0     O92986   7.837   0.399   2.711 -0.7730 -0.0777 -0.3050
  705MOL0     C92987   7.917   0.288   2.686 -0.0903 -0.3052  0.0304
  705MOL0     C92988   8.037   0.306   2.586  0.0864  0.5659 -1.0662
  705MOL0     C92989   7.986   0.353   2.447  0.6656 -0.3392 -0.4805
  705MOL0     C92990   8.095   0.345   2.342  0.2963  0.5376 -0.5227
  705MOL0     C92991   8.160   0.468   2.327 -1.4129 -0.4109  0.2803
  705MOL0     C92992   8.218   0.577   2.309 -0.2348  0.7507 -0.5758
  705MOL0     C92993   7.714   0.281   2.900 -0.4239  0.5073  0.3850
  705MOL0     C92994   7.603   0.284   2.986  0.2774  0.9518 -0.5864
  705MOL0     H92995   7.504   0.237   3.406  0.5944 -0.3546  1.6415
  705MOL0     H92996   7.371   0.247   3.625  4.8894  1.0205 -0.1874
  705MOL0     H92997   7.017   0.515   3.628 -0.9537  0.1348  1.2355
  705MOL0     H92998   7.017   0.449   3.799  2.2073 -2.0416  1.3268
  705MOL0     H92999   6.910   0.251   3.690  2.1376  0.0436  0.2594
  705MOL0     H93000   6.892   0.333   3.537 -0.6213 -0.9940 -0.1261
  705MOL0     H93001   6.779   0.481   3.773 -0.8507  0.6688 -0.7361
  705MOL0     H93002   6.672   0.381   3.663 -2.1386  2.5024 -1.4425
  705MOL0     H93003   6.836   0.612   3.549 -0.1361  0.7008  0.9066
  705MOL0     H93004   6.739   0.488   3.470 -1.6059  0.7505 -0.9578
  705MOL0     H93005   6.543   0.554   3.604 -1.2153  0.3846 -0.3190
  705MOL0     H93006   6.599   0.668   3.489  4.3179  1.0448  0.4130
  705MOL0     H93007   6.724   0.796   3.675  1.0547  0.1046  3.4392
  705MOL0     H93008   6.657   0.682   3.791  0.8351 -2.4588 -0.7489
  705MOL0     H93009   6.505   0.887   3.603 -0.3399 -1.5939 -1.3681
  705MOL0     H93010   6.415   0.769   3.692  1.3202  0.4028 -0.8282
  705MOL0     H93011   6.546   1.018   3.784 -0.3598 -0.8987 -1.1993
  705MOL0     H93012   6.569   0.874   3.887  1.3044  3.8170  1.1842
  705MOL0     H93013   6.224   1.019   3.729  0.1134  0.1936  0.6832
  705MOL0     H93014   5.980   0.989   3.802  0.2616 -0.0373  0.3240
  705MOL0     H93015   5.986   1.119   3.922  1.4622  0.0011  0.3066
  705MOL0     H93016   5.817   0.965   3.977 -0.4466  0.7611  1.5838
  705MOL0     H93017   5.949   0.936   4.091  1.1855 -4.2432  0.1297
  705MOL0     H93018   5.892   0.760   3.854  0.8199  3.0894 -1.0671
  705MOL0     H93019   6.037   0.743   3.934  0.4334  0.6720 -5.7880
  705MOL0     H93020   5.937   0.706   4.148  0.8125 -0.4519 -0.1434
  705MOL0     H93021   5.884   0.583   4.025  0.8705 -0.4577  2.3709
  705MOL0     H93022   5.487   0.848   4.111 -0.4429 -1.4575 -1.1711
  705MOL0     H93023   5.374   0.881   4.302  0.4288 -0.9964 -1.5946
  705MOL0     H93024   5.275   0.744   4.759  1.8897  2.7985 -2.2256
  705MOL0     H93025   5.178   0.798   4.986 -1.0159  1.0262 -1.6727
  705MOL0     H93026   5.474   0.969   5.270 -0.8805  3.0996  1.0833
  705MOL0     H93027   5.366   0.829   5.307  2.8269  1.0659  3.0890
  705MOL0     H93028   5.212   0.990   5.388 -0.2790  1.5427  1.3327
  705MOL0     H93029   5.319   1.121   5.351 -3.5105  0.3061  1.6055
  705MOL0     H93030   5.469   1.058   5.525 -0.4133  0.8368  0.2342
  705MOL0     H93031   5.426   0.896   5.527 -0.4643 -0.6293  0.2159
  705MOL0     H93032   5.267   1.139   5.621 -0.7510 -1.0249 -0.2599
  705MOL0     H93033   5.187   0.983   5.601 -1.3403  1.4135  2.0145
  705MOL0     H93034   5.422   1.023   5.779 -0.2281 -1.4171 -0.6729
  705MOL0     H93035   5.342   0.873   5.744  2.3507  0.9616 -2.3367
  705MOL0     H93036   5.126   0.963   5.841 -0.1858  0.2762 -1.0669
  705MOL0     H93037   5.215   1.117   5.887  3.9650  0.3257 -1.5504
  705MOL0     H93038   5.266   0.846   5.997 -1.2173  0.9167 -1.7650
  705MOL0     H93039   5.350   0.998   6.039  0.6078 -0.7140 -0.0667
  705MOL0     H93040   5.068   0.926   6.114 -2.1150  2.1543  1.1027
  705MOL0     H93041   5.129   1.091   6.122 -2.6946 -0.9869 -1.1132
  705MOL0     H93042   5.551   1.011   5.065  0.3752  0.5608 -1.0735
  705MOL0     H93043   5.643   0.921   4.864 -1.7231  3.8820 -1.3581
  705MOL0     H93044   5.710   0.725   4.532  1.7903 -3.0523 -2.6492
  705MOL0     H93045   5.824   0.681   4.342  0.2819 -1.5479 -1.0982
  705MOL0     H93046   7.065   0.468   3.428 -0.6671 -0.0033 -1.3989
  705MOL0     H93047   7.145   0.403   3.205  3.7970  2.2679 -1.0551
  705MOL0     H93048   7.489   0.592   2.886 -0.4733  0.4785  2.4365
  705MOL0     H93049   7.653   0.563   2.716  2.7297 -2.0046 -1.6753
  705MOL0     H93050   7.864   0.202   2.644  3.2567 -2.0264 -1.0187
  705MOL0     H93051   7.954   0.258   2.785 -0.4508 -2.3667 -0.4058
  705MOL0     H93052   8.111   0.379   2.620  0.3278  0.2140 -0.8162
  705MOL0     H93053   8.082   0.206   2.575 -1.3987  0.1396 -4.1374
  705MOL0     H93054   7.938   0.450   2.458  1.0515 -0.4171  2.7941
  705MOL0     H93055   7.900   0.298   2.409 -0.4607  1.1265 -0.1170
  705MOL0     H93056   8.175   0.272   2.357 -0.7448 -1.1485 -2.5801
  705MOL0     H93057   8.053   0.315   2.245  0.5187 -1.1271 -0.1476
  705MOL0     H93058   8.262   0.670   2.280  4.1914 -1.5721 -2.1686
  705MOL0     H93059   7.780   0.195   2.914  0.5039  0.4684 -3.2627
  705MOL0     H93060   7.602   0.204   3.059  0.7600  1.1726 -0.3382
  706MOL0     O93061   4.546   8.525   0.714  0.5651  0.3413 -0.9949
  706MOL0     C93062   4.497   8.630   0.680  0.4163 -1.1633 -0.2288
  706MOL0     O93063   4.479   8.675   0.550  1.2846 -0.9535  0.1562
  706MOL0     C93064   4.506   8.589   0.449  0.4694 -0.0798 -0.9722
  706MOL0     C93065   4.463   8.459   0.453  0.7107 -0.3594 -0.8396
  706MOL0     C93066   4.482   8.380   0.345  0.2160  0.3724 -0.5559
  706MOL0     C93067   4.544   8.433   0.230 -0.3300  1.0902  0.2189
  706MOL0     O93068   4.556   8.338   0.123 -0.4063 -0.0713 -0.2166
  706MOL0     C93069   4.507   8.393  -0.001  0.1087 -0.3292  1.2469
  706MOL0     C93070   4.618   8.450  -0.098  0.4153 -0.1459 -0.4347
  706MOL0     C93071   4.572   8.446  -0.243  0.4242  0.7985 -0.6811
  706MOL0     C93072   4.687   8.487  -0.346 -0.2347 -0.9767 -0.2359
  706MOL0     C93073   4.639   8.513  -0.485  0.1939  1.4074 -0.2226
  706MOL0     C93074   4.568   8.648  -0.522 -0.7897  1.1191 -1.2088
  706MOL0     C93075   4.576   8.674  -0.671 -0.8276  0.1281 -0.2460
  706MOL0     C93076   4.693   8.769  -0.713  0.0387 -0.8142  0.0124
  706MOL0     N93077   4.821   8.706  -0.706  0.7705 -0.0916 -0.2625
  706MOL0     C93078   4.848   8.575  -0.754  0.2421  0.1276 -0.4229
  706MOL0     C93079   4.965   8.543  -0.694  0.3375 -0.3168  0.1967
  706MOL0     C93080   5.060   8.429  -0.699  0.0617 -0.3512  0.4534
  706MOL0     C93081   5.023   8.318  -0.595  0.0357  1.4541 -0.1325
  706MOL0     C93082   5.140   8.238  -0.539 -0.4837 -0.1533 -0.4757
  706MOL0     C93083   5.105   8.130  -0.439  1.1128 -0.2472 -0.2048
  706MOL0     O93084   5.018   8.179  -0.339  0.0813 -0.6830  0.2465
  706MOL0     C93085   5.001   8.116  -0.215  1.6515 -0.1430 -0.0417
  706MOL0     C93086   4.931   8.201  -0.118  0.3695 -0.3809 -0.8640
  706MOL0     C93087   4.915   8.161   0.016  1.5098 -0.3437 -0.4090
  706MOL0     C93088   4.933   8.021   0.051  0.3060 -0.7616  0.0164
  706MOL0     C93089   4.908   7.967   0.183 -0.0298  0.6406 -0.1875
  706MOL0     O93090   4.848   8.047   0.276  0.2841  0.0906  0.1270
  706MOL0     C93091   4.877   8.022   0.407  0.2421  1.1063 -0.7188
  706MOL0     C93092   4.819   7.908   0.458  0.2912  0.0502 -0.4467
  706MOL0     C93093   4.854   7.867   0.581 -0.3722  0.1442 -1.3159
  706MOL0     C93094   4.955   7.930   0.667  0.5243  0.2930 -0.6134
  706MOL0     O93095   4.986   7.874   0.790 -0.1091  0.4856 -0.4231
  706MOL0     C93096   5.048   7.949   0.902 -0.7372  1.3243  0.4151
  706MOL0     C93097   5.033   7.861   1.032 -0.2292  0.7672  0.5906
  706MOL0     C93098   5.169   7.791   1.053  0.5104 -0.9668 -0.5720
  706MOL0     C93099   5.266   7.900   1.105 -0.3231 -0.4182 -0.1329
  706MOL0     C93100   5.417   7.863   1.094  0.1312  0.6027 -0.5361
  706MOL0     C93101   5.442   7.727   1.161  0.1671  0.6149 -0.3978
  706MOL0     C93102   5.580   7.689   1.200  0.4151 -0.0860  0.6199
  706MOL0     C93103   5.687   7.662   1.085  0.0791  0.1002  0.7517
  706MOL0    Cl93104   5.602   7.551   0.968 -0.0398 -0.0515 -0.5663
  706MOL0     C93105   5.020   8.043   0.607  0.4817 -0.3537  0.9171
  706MOL0     C93106   4.969   8.094   0.485 -0.2044 -0.6157 -0.2546
  706MOL0     O93107   4.934   7.846   0.203 -0.1048  0.6358 -0.0984
  706MOL0     C93108   4.993   7.943  -0.051 -0.6190 -0.7397 -0.6241
  706MOL0     C93109   5.028   7.989  -0.173  0.3675  0.7316 -0.1700
  706MOL0     N93110   5.023   8.650  -0.631 -0.3002 -0.3101  0.4874
  706MOL0     N93111   4.930   8.743  -0.631 -0.4489  0.6196  0.1543
  706MOL0     C93112   4.604   8.565   0.233 -0.4693 -0.0918 -0.0281
  706MOL0     C93113   4.584   8.632   0.346  0.1164 -0.3648 -0.1062
  706MOL0     C93114   4.447   8.718   0.787 -0.7497  0.0215 -0.4181
  706MOL0     C93115   4.443   8.671   0.924 -0.2164  1.1274  0.0819
  706MOL0     C93116   4.377   8.751   1.018 -0.8886  0.1374 -1.5189
  706MOL0     C93117   4.337   8.884   0.993  0.0253 -0.0091 -0.9890
  706MOL0     O93118   4.300   8.962   1.101 -0.2523  0.6469 -0.2352
  706MOL0     C93119   4.181   9.045   1.091 -0.5429 -0.8633  0.9037
  706MOL0     C93120   4.203   9.185   1.029 -0.0797 -0.7337  1.5670
  706MOL0     C93121   4.116   9.296   1.079 -0.0681 -0.3296  0.9419
  706MOL0     C93122   3.986   9.330   0.996  0.2076 -0.2764  0.5668
  706MOL0     C93123   3.924   9.456   1.038  0.1501  0.3563  0.4067
  706MOL0     C93124   3.892   9.565   1.070 -0.1626 -0.2750  0.4944
  706MOL0     C93125   4.339   8.925   0.857  1.0528  0.4342 -0.1712
  706MOL0     C93126   4.393   8.844   0.760  0.0569  0.0841 -0.3595
  706MOL0     H93127   4.406   8.407   0.530 -1.5044 -1.2469 -2.9313
  706MOL0     H93128   4.449   8.276   0.345  0.0662  0.4130 -1.1578
  706MOL0     H93129   4.437   8.473   0.024  1.2674  0.9676  0.5176
  706MOL0     H93130   4.450   8.315  -0.052  1.1781 -1.0734  1.1523
  706MOL0     H93131   4.701   8.380  -0.087 -1.4304 -2.3395  0.5419
  706MOL0     H93132   4.654   8.546  -0.059  0.1857  0.4435 -1.6359
  706MOL0     H93133   4.498   8.526  -0.251 -0.8669 -0.2587  0.1847
  706MOL0     H93134   4.522   8.351  -0.265  0.2656  0.2726  1.6965
  706MOL0     H93135   4.740   8.575  -0.306 -1.9268 -0.1444  0.2715
  706MOL0     H93136   4.759   8.405  -0.339  1.4015  0.2663 -1.4759
  706MOL0     H93137   4.568   8.433  -0.507 -1.4450  2.6985  0.2163
  706MOL0     H93138   4.724   8.497  -0.553  0.0812  1.5976 -0.4076
  706MOL0     H93139   4.616   8.727  -0.462  0.7717 -1.9689  1.9491
  706MOL0     H93140   4.463   8.646  -0.492 -0.7711  1.1649 -1.1393
  706MOL0     H93141   4.592   8.578  -0.721  2.8117  1.3815 -1.8444
  706MOL0     H93142   4.477   8.713  -0.697 -0.4855 -0.0465 -1.9086
  706MOL0     H93143   4.698   8.866  -0.661 -0.3993  0.0581 -1.5215
  706MOL0     H93144   4.696   8.797  -0.818  0.7491 -0.1329  0.2036
  706MOL0     H93145   4.793   8.506  -0.816 -0.7829  0.7085 -0.1750
  706MOL0     H93146   5.160   8.461  -0.669  1.4538  0.2953 -4.1477
  706MOL0     H93147   5.076   8.391  -0.801  1.5171 -0.4161  0.6910
  706MOL0     H93148   4.950   8.256  -0.648  2.6968  0.3102 -2.7412
  706MOL0     H93149   4.969   8.354  -0.507 -1.4008  2.4447 -1.3583
  706MOL0     H93150   5.185   8.196  -0.630 -0.5068 -1.8049  0.2393
  706MOL0     H93151   5.205   8.307  -0.485 -1.1757  1.6831 -1.8822
  706MOL0     H93152   5.199   8.094  -0.398  1.1150  0.7490  0.7198
  706MOL0     H93153   5.067   8.042  -0.491  0.7000 -0.6096  0.6854
  706MOL0     H93154   4.904   8.301  -0.150 -4.2552 -0.4736  1.7428
  706MOL0     H93155   4.882   8.237   0.087 -0.6758 -0.2429 -1.4369
  706MOL0     H93156   4.750   7.846   0.402  0.8615  0.2010 -1.3281
  706MOL0     H93157   4.806   7.782   0.629  1.3181  0.1547  0.4974
  706MOL0     H93158   4.993   8.043   0.913 -1.6869  0.9324 -0.8017
  706MOL0     H93159   5.152   7.960   0.871 -0.2599 -2.3257  0.2774
  706MOL0     H93160   4.963   7.777   1.032  2.0506 -1.2428  1.0968
  706MOL0     H93161   5.007   7.923   1.119 -1.9041 -0.0217  0.7087
  706MOL0     H93162   5.221   7.749   0.967  4.0343 -2.7186  2.1542
  706MOL0     H93163   5.180   7.720   1.135  1.6434  0.0860  0.2321
  706MOL0     H93164   5.254   7.988   1.042  0.6081  0.9799  1.5718
  706MOL0     H93165   5.242   7.914   1.210 -1.7539 -2.8740 -0.0608
  706MOL0     H93166   5.480   7.939   1.141 -1.5893  1.8988 -0.2042
  706MOL0     H93167   5.449   7.843   0.992  0.4417 -1.1369 -0.1217
  706MOL0     H93168   5.392   7.646   1.108 -0.0629  0.3916  0.1523
  706MOL0     H93169   5.395   7.719   1.260 -0.5009 -2.8402 -0.8782
  706MOL0     H93170   5.615   7.767   1.268  0.4810  1.4960 -1.1626
  706MOL0     H93171   5.563   7.595   1.253 -2.8868 -0.7798 -1.3927
  706MOL0     H93172   5.787   7.627   1.113  1.7243  2.5249 -1.5366
  706MOL0     H93173   5.698   7.760   1.038 -2.2646 -0.3607 -0.9105
  706MOL0     H93174   5.104   8.101   0.644 -2.8200  4.3884  1.7888
  706MOL0     H93175   5.008   8.191   0.456 -1.2326  0.7996  2.7597
  706MOL0     H93176   5.029   7.848  -0.012  1.6603  1.1055  2.2405
  706MOL0     H93177   5.079   7.922  -0.242  2.1862 -0.4652  2.1498
  706MOL0     H93178   4.656   8.624   0.158  1.9559  0.5925  2.0370
  706MOL0     H93179   4.619   8.735   0.342 -0.4061 -0.2268 -1.9819
  706MOL0     H93180   4.472   8.571   0.956 -0.3091  0.4292 -1.9149
  706MOL0     H93181   4.376   8.723   1.123  0.8272  1.7133 -1.0268
  706MOL0     H93182   4.147   9.051   1.195 -0.9119  2.0254  0.6962
  706MOL0     H93183   4.107   8.988   1.033  1.4038 -1.7590 -0.8169
  706MOL0     H93184   4.305   9.223   1.025 -0.5046  0.4887  1.8202
  706MOL0     H93185   4.176   9.172   0.924  3.9068 -1.1352  0.4395
  706MOL0     H93186   4.166   9.392   1.096 -3.5052  2.5535 -3.0792
  706MOL0     H93187   4.089   9.252   1.175  0.8284  1.0493  1.8689
  706MOL0     H93188   4.009   9.342   0.889 -1.2197  0.3087  0.3149
  706MOL0     H93189   3.914   9.251   1.019 -0.2244  0.7334  2.9215
  706MOL0     H93190   3.862   9.665   1.096  2.0374  0.5313  0.1803
  706MOL0     H93191   4.309   9.029   0.847  1.0122  0.5192  0.6984
  706MOL0     H93192   4.389   8.879   0.657  1.3758  2.4905  0.3346
  707MOL0     O93193   9.631   1.206   8.290 -0.3438  0.0847 -0.3387
  707MOL0     C93194   9.653   1.329   8.282 -0.4709  0.6366 -0.0432
  707MOL0     O93195   9.713   1.406   8.376  1.0332  0.2863 -0.8401
  707MOL0     C93196   9.739   1.367   8.500 -0.6464 -0.1850 -0.3757
  707MOL0     C93197   9.823   1.454   8.571  0.6809  0.4106  0.1792
  707MOL0     C93198   9.875   1.417   8.692  0.2084 -0.2076 -0.9327
  707MOL0     C93199   9.840   1.293   8.758 -0.1024 -0.2931 -0.2701
  707MOL0     O93200   9.884   1.234   8.874  0.4577  0.8881  0.4379
  707MOL0     C93201   9.980   1.292   8.955 -0.4987  0.9878 -0.2628
  707MOL0     C93202  10.028   1.198   9.064 -0.0309  0.2246 -0.0866
  707MOL0     C93203  10.118   1.080   9.013  0.0439  0.4137  0.2049
  707MOL0     C93204  10.144   0.974   9.113  0.1833  0.6580 -0.0625
  707MOL0     C93205  10.233   0.853   9.054 -0.3874  0.4401  0.5706
  707MOL0     C93206  10.155   0.725   9.010  0.2583 -0.3640 -0.1638
  707MOL0     C93207  10.230   0.596   8.996  0.3369  0.0382  0.4771
  707MOL0     C93208  10.185   0.513   9.118 -0.0103  0.3940 -0.0019
  707MOL0     N93209  10.236   0.376   9.106 -0.5668 -0.2325  0.4133
  707MOL0     C93210  10.159   0.267   9.072 -0.1838 -0.8170  1.0258
  707MOL0     C93211  10.239   0.160   9.094 -0.5369 -1.0247 -1.0313
  707MOL0     C93212  10.202   0.011   9.076  0.3767  0.0913 -0.5197
  707MOL0     C93213  10.104  -0.041   9.180  0.4933  0.3573  0.2574
  707MOL0     C93214  10.059  -0.187   9.142 -0.4345  0.0688 -0.4175
  707MOL0     C93215   9.997  -0.274   9.258  1.0729 -0.1099 -0.0704
  707MOL0     O93216   9.918  -0.384   9.194 -0.9693 -0.1212  0.2461
  707MOL0     C93217  10.000  -0.483   9.154 -0.3713  0.9567 -0.5829
  707MOL0     C93218  10.064  -0.481   9.033 -0.2837 -0.4881 -0.6354
  707MOL0     C93219  10.138  -0.591   8.987  1.0071  0.3979 -0.4562
  707MOL0     C93220  10.123  -0.715   9.060 -0.5786 -0.2791 -0.0990
  707MOL0     C93221  10.185  -0.833   9.011 -0.1074  0.4963  0.7180
  707MOL0     O93222  10.151  -0.952   9.082 -0.1794 -1.1199  1.0492
  707MOL0     C93223  10.204  -1.072   9.042 -0.8917 -0.0343  0.7263
  707MOL0     C93224  10.338  -1.094   9.040  0.7737  0.6663 -0.1317
  707MOL0     C93225  10.383  -1.212   8.989  0.2344  0.2843 -0.3549
  707MOL0     C93226  10.301  -1.318   8.950 -0.0745 -0.2024  1.3469
  707MOL0     O93227  10.335  -1.438   8.901 -0.2852  0.0662 -0.6629
  707MOL0     C93228  10.470  -1.488   8.893  0.1595  0.8787  0.3312
  707MOL0     C93229  10.467  -1.645   8.883  0.6144 -0.9700  0.2367
  707MOL0     C93230  10.448  -1.695   8.742 -0.5575 -0.8209  0.1726
  707MOL0     C93231  10.415  -1.849   8.745  0.6030  0.3152  0.1693
  707MOL0     C93232  10.544  -1.925   8.751 -0.2145  0.6880  0.3312
  707MOL0     C93233  10.639  -1.893   8.630  0.2120  1.3957 -0.3516
  707MOL0     C93234  10.589  -1.921   8.493  0.4195 -0.4143  0.4357
  707MOL0     C93235  10.689  -1.901   8.389 -1.0146 -0.6695 -0.1302
  707MOL0    Cl93236  10.789  -2.042   8.370  0.0900 -0.1687 -0.4018
  707MOL0     C93237  10.160  -1.296   8.959 -0.3920  0.8367 -0.6341
  707MOL0     C93238  10.113  -1.171   8.999 -0.1324  0.2886 -0.7626
  707MOL0     O93239  10.257  -0.833   8.915  0.1927 -0.3617 -1.4635
  707MOL0     C93240  10.053  -0.718   9.188  0.9809 -0.2013  0.3581
  707MOL0     C93241  10.008  -0.600   9.240  0.4885 -0.1522 -0.8087
  707MOL0     N93242  10.360   0.207   9.150  0.6384 -0.9886  0.9886
  707MOL0     N93243  10.353   0.330   9.165  0.4733  0.1749  0.2900
  707MOL0     C93244   9.742   1.218   8.700 -0.0317  0.0499 -0.3083
  707MOL0     C93245   9.698   1.245   8.567  0.2391 -0.1787 -0.0397
  707MOL0     C93246   9.630   1.388   8.149 -0.0002 -1.2531  0.4115
  707MOL0     C93247   9.596   1.315   8.032 -0.2962 -0.7104  0.2338
  707MOL0     C93248   9.566   1.382   7.908  0.4216 -0.7926 -0.4764
  707MOL0     C93249   9.560   1.533   7.904  0.0296  0.2121 -0.2310
  707MOL0     O93250   9.508   1.604   7.795 -0.1653 -0.1089  0.3211
  707MOL0     C93251   9.388   1.672   7.824 -0.8569 -0.5280  0.4445
  707MOL0     C93252   9.281   1.652   7.717 -0.9109  0.1170 -0.5030
  707MOL0     C93253   9.319   1.651   7.567 -0.4406  0.1074  0.6491
  707MOL0     C93254   9.341   1.791   7.521  0.8277 -0.7473 -0.1579
  707MOL0     C93255   9.223   1.873   7.507  0.8481  0.7921  0.0281
  707MOL0     C93256   9.124   1.936   7.509 -0.3814 -1.0128 -0.4263
  707MOL0     C93257   9.610   1.605   8.020  1.0283 -0.1872 -0.9806
  707MOL0     C93258   9.637   1.537   8.137 -0.8872 -0.4288  0.0900
  707MOL0     H93259   9.853   1.543   8.517  1.6204  0.3586  0.5996
  707MOL0     H93260   9.938   1.482   8.752 -2.7201 -0.4081  2.7341
  707MOL0     H93261   9.935   1.383   8.997 -0.0661  1.8120 -1.5287
  707MOL0     H93262  10.059   1.327   8.888  1.2311  1.6990  1.9882
  707MOL0     H93263   9.935   1.145   9.088 -1.7813  2.5383 -1.2948
  707MOL0     H93264  10.070   1.247   9.153 -1.4575 -1.6331  1.7199
  707MOL0     H93265  10.211   1.127   8.979  0.0680 -0.6426 -1.2906
  707MOL0     H93266  10.075   1.032   8.924  2.5562  0.2964 -1.0515
  707MOL0     H93267  10.188   1.036   9.192 -1.4986  0.3814  1.1394
  707MOL0     H93268  10.059   0.923   9.158  0.9945 -0.0912  0.6742
  707MOL0     H93269  10.308   0.822   9.127  0.7563 -0.4313 -0.9209
  707MOL0     H93270  10.278   0.882   8.958 -0.5859  2.5408  1.0479
  707MOL0     H93271  10.105   0.757   8.918 -0.7810 -0.6682  0.2848
  707MOL0     H93272  10.075   0.714   9.083  1.0397  1.7821  1.1123
  707MOL0     H93273  10.193   0.544   8.907  1.5487  0.3562 -0.2346
  707MOL0     H93274  10.339   0.600   8.994  0.3692 -0.7032  0.5166
  707MOL0     H93275  10.076   0.511   9.127  0.1843 -0.7368  2.9691
  707MOL0     H93276  10.231   0.559   9.206  2.2623 -0.6037 -0.5878
  707MOL0     H93277  10.050   0.265   9.071 -0.3005  0.0099 -2.8255
  707MOL0     H93278  10.293  -0.048   9.083  0.5072  0.4414  0.9011
  707MOL0     H93279  10.148   0.006   8.980 -2.2486  4.6078  0.4021
  707MOL0     H93280  10.010   0.015   9.183 -0.2095 -0.7656 -0.1925
  707MOL0     H93281  10.149  -0.043   9.280 -3.0788  1.6478  2.0580
  707MOL0     H93282   9.997  -0.180   9.052 -0.9251 -1.5842 -0.2279
  707MOL0     H93283  10.142  -0.242   9.097 -0.7086  0.2731 -1.1980
  707MOL0     H93284   9.936  -0.221   9.332 -2.0306 -0.1332 -2.4090
  707MOL0     H93285  10.074  -0.314   9.325 -0.5260  0.6458  2.3466
  707MOL0     H93286  10.079  -0.390   8.977 -0.9270 -0.6979 -1.1690
  707MOL0     H93287  10.195  -0.592   8.895  0.0149  0.9623 -1.0915
  707MOL0     H93288  10.398  -1.016   9.085  2.9206 -1.2365  0.5150
  707MOL0     H93289  10.492  -1.221   8.990  0.1085 -2.6813 -2.2848
  707MOL0     H93290  10.526  -1.455   8.981 -1.6039  3.9888  0.3999
  707MOL0     H93291  10.524  -1.455   8.803  3.7950 -0.7245  1.7060
  707MOL0     H93292  10.382  -1.693   8.934 -0.2187 -1.6908 -1.7456
  707MOL0     H93293  10.561  -1.686   8.923 -1.9653 -4.0711  3.9870
  707MOL0     H93294  10.538  -1.661   8.688 -0.1218 -0.9543  0.8024
  707MOL0     H93295  10.371  -1.637   8.691  0.3283  2.3193  2.0906
  707MOL0     H93296  10.345  -1.864   8.827  0.6655  2.7051  0.7538
  707MOL0     H93297  10.359  -1.878   8.656  2.3921 -0.0723 -0.8763
  707MOL0     H93298  10.515  -2.030   8.749 -0.2087  0.6941 -1.2934
  707MOL0     H93299  10.602  -1.905   8.842 -1.6009 -1.2822  1.7604
  707MOL0     H93300  10.725  -1.960   8.631 -3.2064 -3.5524 -0.6486
  707MOL0     H93301  10.677  -1.791   8.642  0.3136  1.6348 -2.4774
  707MOL0     H93302  10.530  -2.012   8.480  1.8034 -1.5229  1.5587
  707MOL0     H93303  10.514  -1.845   8.473 -1.8693 -2.3046  1.3619
  707MOL0     H93304  10.748  -1.809   8.398 -1.9652  0.1319 -1.6973
  707MOL0     H93305  10.634  -1.876   8.298 -0.3681 -0.7931 -0.5630
  707MOL0     H93306  10.100  -1.384   8.938 -1.1116  1.2020 -0.1518
  707MOL0     H93307  10.005  -1.159   8.994 -0.0787  0.7848 -0.7891
  707MOL0     H93308  10.045  -0.805   9.252 -0.6983 -1.5998 -1.5854
  707MOL0     H93309   9.982  -0.595   9.345 -0.7522 -2.3361 -0.9472
  707MOL0     H93310   9.696   1.138   8.759  0.1600 -0.4449 -0.8204
  707MOL0     H93311   9.627   1.184   8.513 -1.2190  0.3568  1.1763
  707MOL0     H93312   9.596   1.206   8.035  2.9481 -0.8500 -0.4849
  707MOL0     H93313   9.524   1.345   7.815 -4.9271  3.9888 -0.5136
  707MOL0     H93314   9.412   1.778   7.835 -1.7743 -0.4569  2.1141
  707MOL0     H93315   9.339   1.641   7.917 -1.8978  0.9074  0.4218
  707MOL0     H93316   9.236   1.554   7.732 -3.0550  1.1975  0.5822
  707MOL0     H93317   9.215   1.733   7.749  1.3775  0.5685  3.8446
  707MOL0     H93318   9.241   1.607   7.504 -1.1078  2.6815 -0.4341
  707MOL0     H93319   9.408   1.588   7.557  0.6079  0.8325  3.9646
  707MOL0     H93320   9.413   1.838   7.588 -1.8613  0.8684  1.8200
  707MOL0     H93321   9.380   1.791   7.419  0.3282  4.4994 -0.6150
  707MOL0     H93322   9.038   1.996   7.485 -0.5008 -0.4926  1.1559
  707MOL0     H93323   9.605   1.714   8.019 -3.5672 -0.1857 -1.5239
  707MOL0     H93324   9.653   1.599   8.225  2.3519 -1.6707  0.5014
  708MOL0     O93325   4.677   1.478   7.592 -0.7388  0.6325 -0.3865
  708MOL0     C93326   4.749   1.482   7.499 -0.5895 -0.3442  0.5043
  708MOL0     O93327   4.772   1.384   7.403 -0.8264 -0.1369 -0.1471
  708MOL0     C93328   4.704   1.268   7.415  0.0767  0.3249 -1.4064
  708MOL0     C93329   4.674   1.201   7.545 -0.7840  0.0515 -0.0268
  708MOL0     C93330   4.619   1.065   7.543 -0.9214 -0.1546  0.2132
  708MOL0     C93331   4.587   1.004   7.423 -0.3700 -0.4588 -0.5603
  708MOL0     O93332   4.556   0.872   7.438  0.1450  0.1842 -1.2026
  708MOL0     C93333   4.499   0.803   7.325  0.1328  0.3103  0.2099
  708MOL0     C93334   4.486   0.658   7.372 -0.1088  0.3849  0.5421
  708MOL0     C93335   4.400   0.629   7.501  0.2194 -1.1013  0.2492
  708MOL0     C93336   4.375   0.484   7.526  1.0046  0.6139 -0.0853
  708MOL0     C93337   4.291   0.436   7.649 -0.4728  0.2437 -0.5759
  708MOL0     C93338   4.283   0.286   7.662  0.8980 -0.7254 -0.2265
  708MOL0     C93339   4.414   0.212   7.705 -0.0358  1.0036 -0.0069
  708MOL0     C93340   4.387   0.063   7.734 -0.5618 -0.7173  0.1404
  708MOL0     N93341   4.274   0.045   7.838  0.4871 -0.7741  1.3765
  708MOL0     C93342   4.137   0.033   7.805 -0.9585 -0.7592 -0.2761
  708MOL0     C93343   4.065   0.039   7.917 -1.4600  0.2933 -0.5215
  708MOL0     C93344   3.922   0.047   7.936 -0.0852  0.0406 -0.9063
  708MOL0     C93345   3.850  -0.097   7.941  0.0961  0.5883 -0.6397
  708MOL0     C93346   3.705  -0.095   7.908 -0.2993  0.4875  1.1631
  708MOL0     C93347   3.620  -0.023   8.016  0.2418  0.2279 -0.5978
  708MOL0     O93348   3.489  -0.062   7.960 -0.8046  0.4099 -0.0969
  708MOL0     C93349   3.404  -0.109   8.053  0.4009 -0.6496 -0.5019
  708MOL0     C93350   3.280  -0.044   8.057 -0.9790 -0.4275 -1.1060
  708MOL0     C93351   3.177  -0.087   8.132 -0.2396 -0.4126 -0.2519
  708MOL0     C93352   3.201  -0.196   8.218 -0.2256 -0.2186 -0.3308
  708MOL0     C93353   3.100  -0.238   8.308  0.2513 -0.1656  0.6506
  708MOL0     O93354   2.975  -0.185   8.308  0.0861  0.5646 -0.6364
  708MOL0     C93355   2.879  -0.265   8.366 -0.9678 -0.6979  0.3008
  708MOL0     C93356   2.842  -0.223   8.494  0.5021 -1.1659 -1.3303
  708MOL0     C93357   2.750  -0.297   8.567 -0.6591  1.1554  0.7667
  708MOL0     C93358   2.722  -0.434   8.532  0.0156 -0.4824  0.4070
  708MOL0     O93359   2.651  -0.527   8.610  0.3928 -0.4999  0.4506
  708MOL0     C93360   2.612  -0.486   8.742  0.1055 -0.3031 -0.2762
  708MOL0     C93361   2.466  -0.454   8.761 -0.7238 -0.5299 -0.0668
  708MOL0     C93362   2.429  -0.404   8.892  0.2692 -0.1954 -0.0832
  708MOL0     C93363   2.281  -0.397   8.920  0.5305  0.2915  0.3767
  708MOL0     C93364   2.245  -0.329   9.052  0.4963 -0.2947  0.0236
  708MOL0     C93365   2.095  -0.335   9.087  0.5013  0.5412 -0.1506
  708MOL0     C93366   2.066  -0.258   9.229  0.7742  0.1673 -0.0260
  708MOL0     C93367   1.918  -0.274   9.280  0.3890 -1.0131 -0.3118
  708MOL0    Cl93368   1.875  -0.167   9.412  0.3795  0.5062 -0.0828
  708MOL0     C93369   2.761  -0.478   8.404 -0.0112 -0.1148 -0.9652
  708MOL0     C93370   2.840  -0.392   8.325  1.0159 -0.0675  0.3290
  708MOL0     O93371   3.141  -0.327   8.384  0.6877  0.6688  0.6431
  708MOL0     C93372   3.329  -0.249   8.225 -0.5668 -0.1692 -0.4476
  708MOL0     C93373   3.437  -0.216   8.141  0.2583 -0.3858  0.2995
  708MOL0     N93374   4.166   0.038   8.019  0.0015 -1.1742  0.4299
  708MOL0     N93375   4.281   0.054   7.965 -0.5212  0.5896 -0.4787
  708MOL0     C93376   4.607   1.073   7.299 -1.4518  0.5353  0.5438
  708MOL0     C93377   4.663   1.204   7.296  0.1313 -0.4602  0.4093
  708MOL0     C93378   4.814   1.612   7.477 -0.4914 -0.3083  0.5980
  708MOL0     C93379   4.882   1.635   7.358 -0.1942 -0.0573 -1.1666
  708MOL0     C93380   4.944   1.752   7.326 -0.0904  1.5122 -0.0837
  708MOL0     C93381   4.938   1.856   7.416 -0.9142  0.5608 -0.0910
  708MOL0     O93382   4.990   1.970   7.375 -1.0516 -0.0650  0.1846
  708MOL0     C93383   4.943   2.091   7.438  0.0945  0.0126  0.1960
  708MOL0     C93384   4.980   2.220   7.379  0.3096 -0.5817 -0.2131
  708MOL0     C93385   4.906   2.252   7.253  0.6115 -0.2118 -0.1902
  708MOL0     C93386   4.950   2.172   7.128 -0.0688  0.1159  1.1849
  708MOL0     C93387   4.884   2.219   7.005 -0.4242 -0.6684 -0.1892
  708MOL0     C93388   4.828   2.262   6.902 -0.1597 -0.2042  0.2512
  708MOL0     C93389   4.871   1.838   7.539 -0.4946  0.0352 -0.1353
  708MOL0     C93390   4.818   1.718   7.576  0.1100 -0.1175 -0.0929
  708MOL0     H93391   4.714   1.240   7.638  2.5520 -1.9797 -0.4372
  708MOL0     H93392   4.607   1.004   7.632 -2.2976  0.5730  0.5505
  708MOL0     H93393   4.572   0.805   7.243 -1.2057 -1.3210 -1.1060
  708MOL0     H93394   4.410   0.855   7.289  2.4058  2.4686 -2.8260
  708MOL0     H93395   4.588   0.627   7.397  0.1349 -1.1605 -1.9964
  708MOL0     H93396   4.447   0.598   7.289  1.9047 -1.7584  1.0045
  708MOL0     H93397   4.306   0.683   7.490  0.7880  0.0599  0.8245
  708MOL0     H93398   4.446   0.671   7.591 -2.5717  0.9702  0.8458
  708MOL0     H93399   4.336   0.433   7.437  2.0124 -0.0717 -0.1524
  708MOL0     H93400   4.471   0.437   7.550 -1.6727 -5.8032  0.0326
  708MOL0     H93401   4.203   0.499   7.638  0.2017  1.3370  0.0362
  708MOL0     H93402   4.332   0.463   7.747 -2.7543 -0.6059  0.6742
  708MOL0     H93403   4.255   0.235   7.569 -0.1624 -2.2622  0.9103
  708MOL0     H93404   4.202   0.271   7.733  0.7898 -0.4980 -0.2983
  708MOL0     H93405   4.493   0.219   7.630  0.5247 -4.1692 -0.3095
  708MOL0     H93406   4.453   0.248   7.800 -1.4893 -2.4070  2.0796
  708MOL0     H93407   4.472   0.009   7.774  0.9710  1.2935 -0.2061
  708MOL0     H93408   4.364   0.017   7.638  0.7362  2.5092 -1.9111
  708MOL0     H93409   4.103   0.019   7.703  1.1228  1.4642 -1.3947
  708MOL0     H93410   3.874   0.109   7.859 -0.9027  0.0040 -0.4424
  708MOL0     H93411   3.916   0.093   8.035 -1.0683 -1.1658 -0.3750
  708MOL0     H93412   3.864  -0.150   8.035 -1.8776 -1.2279 -1.3029
  708MOL0     H93413   3.898  -0.157   7.863 -1.9054  1.5507 -2.7247
  708MOL0     H93414   3.698  -0.051   7.808  1.1142 -2.9931 -0.6257
  708MOL0     H93415   3.682  -0.201   7.894  1.4317  0.3053 -0.7378
  708MOL0     H93416   3.660   0.079   8.014 -0.0293  0.4394  1.9715
  708MOL0     H93417   3.628  -0.062   8.117  1.1260 -2.0580 -1.4709
  708MOL0     H93418   3.250   0.042   7.999 -6.3316  0.1951  1.9108
  708MOL0     H93419   3.075  -0.050   8.129 -0.2591 -0.3435  0.8147
  708MOL0     H93420   2.880  -0.128   8.530 -2.8464 -0.1515 -0.0283
  708MOL0     H93421   2.719  -0.251   8.660 -0.6153 -0.1847  1.4538
  708MOL0     H93422   2.674  -0.404   8.779 -0.8295 -0.6104  2.1926
  708MOL0     H93423   2.630  -0.569   8.811 -1.2339  0.8951  1.6453
  708MOL0     H93424   2.404  -0.540   8.735  0.1616 -1.7723  1.7357
  708MOL0     H93425   2.450  -0.371   8.692 -0.8529  0.8561  1.5755
  708MOL0     H93426   2.472  -0.304   8.897  1.3776 -0.5224 -2.0449
  708MOL0     H93427   2.480  -0.460   8.972 -2.9206 -2.0596  0.8155
  708MOL0     H93428   2.247  -0.330   8.841  1.1613  1.5778  1.1715
  708MOL0     H93429   2.240  -0.497   8.903  3.3751 -0.6818 -1.6090
  708MOL0     H93430   2.277  -0.225   9.051  1.6721 -0.6292  1.0760
  708MOL0     H93431   2.305  -0.374   9.131  0.0983 -0.3830  0.2761
  708MOL0     H93432   2.081  -0.442   9.105  1.3117  0.4973  0.2685
  708MOL0     H93433   2.026  -0.292   9.014  0.6771  0.4199 -0.3895
  708MOL0     H93434   2.121  -0.298   9.315  0.3072  2.1942  1.2998
  708MOL0     H93435   2.077  -0.149   9.227 -2.0157  0.5141 -0.6454
  708MOL0     H93436   1.907  -0.381   9.298  0.4569 -1.9292 -4.6002
  708MOL0     H93437   1.856  -0.265   9.190  0.8243 -2.9610 -0.8408
  708MOL0     H93438   2.740  -0.572   8.354  0.2803 -0.7985  0.1764
  708MOL0     H93439   2.868  -0.430   8.227  6.0410 -1.1706  1.9310
  708MOL0     H93440   3.357  -0.331   8.290  2.3379 -2.1115 -3.7747
  708MOL0     H93441   3.539  -0.252   8.149  0.5903  0.9228  3.1270
  708MOL0     H93442   4.580   1.026   7.205  1.0828 -1.4264  0.6838
  708MOL0     H93443   4.680   1.257   7.203 -0.5845  0.3711  0.7414
  708MOL0     H93444   4.882   1.556   7.284  1.2098 -1.7700  0.5548
  708MOL0     H93445   4.991   1.758   7.228 -0.8169 -0.2702 -0.5735
  708MOL0     H93446   4.991   2.084   7.536  3.2623  2.3316 -1.0274
  708MOL0     H93447   4.834   2.093   7.451  0.1684  0.9286  0.7228
  708MOL0     H93448   4.969   2.308   7.443 -0.5089  1.0442 -2.4657
  708MOL0     H93449   5.084   2.213   7.347 -0.0502  0.1848 -1.5945
  708MOL0     H93450   4.927   2.356   7.228  1.8355 -0.0189  1.4645
  708MOL0     H93451   4.797   2.245   7.254  0.4199  2.0307 -0.7376
  708MOL0     H93452   5.057   2.177   7.108  0.1583  1.1322  2.5020
  708MOL0     H93453   4.932   2.066   7.143  0.1973 -0.1139 -0.0319
  708MOL0     H93454   4.791   2.300   6.809 -3.4603 -1.3270  0.9635
  708MOL0     H93455   4.863   1.918   7.612 -0.0859 -0.0668  0.0261
  708MOL0     H93456   4.759   1.713   7.667 -0.7007 -1.4590 -0.6488
  709MOL0     O93457   6.313   9.937  10.676  0.6313 -0.8356  0.1641
  709MOL0     C93458   6.331   9.937  10.799  0.0282 -0.5369  0.7281
  709MOL0     O93459   6.378   9.833  10.871  0.0382  0.4226  0.2144
  709MOL0     C93460   6.380   9.704  10.811  0.1841  0.9238 -0.0661
  709MOL0     C93461   6.480   9.617  10.859 -0.1647  0.2204  0.4128
  709MOL0     C93462   6.495   9.478  10.826 -0.1376 -0.1943  0.0440
  709MOL0     C93463   6.406   9.430  10.727 -0.4517 -0.0566  0.4971
  709MOL0     O93464   6.404   9.295  10.696 -0.0886  0.2770  0.4719
  709MOL0     C93465   6.429   9.212  10.810  0.5197 -0.1710  0.1086
  709MOL0     C93466   6.402   9.061  10.760 -0.1183 -0.7158 -0.4405
  709MOL0     C93467   6.253   9.050  10.769  0.0128 -0.2019  0.4442
  709MOL0     C93468   6.204   8.909  10.741 -0.2811  0.0041 -0.0959
  709MOL0     C93469   6.059   8.901  10.704 -0.0972 -0.6707  0.1473
  709MOL0     C93470   6.011   8.760  10.715  0.3050 -0.3245 -0.2378
  709MOL0     C93471   6.068   8.674  10.601 -0.7187  0.2999 -0.3622
  709MOL0     C93472   5.982   8.546  10.567  0.4734  0.7871  0.2015
  709MOL0     N93473   6.026   8.480  10.444  0.0937  0.1913 -0.2855
  709MOL0     C93474   5.991   8.346  10.415 -0.7942 -0.7585  0.0852
  709MOL0     C93475   6.037   8.327  10.289 -0.1651 -0.8846  0.0839
  709MOL0     C93476   6.041   8.201  10.213  0.0410  0.7578 -0.7917
  709MOL0     C93477   5.948   8.092  10.256  0.1169  0.3437  0.0307
  709MOL0     C93478   5.794   8.115  10.250 -0.5256  0.1976 -0.7194
  709MOL0     C93479   5.721   7.980  10.265 -0.1832 -0.3109  0.5464
  709MOL0     O93480   5.577   8.007  10.265  0.6805 -0.3559  0.2253
  709MOL0     C93481   5.505   7.945  10.169  0.2719  0.4564  0.6281
  709MOL0     C93482   5.472   7.811  10.174 -0.2926  0.0957  0.2213
  709MOL0     C93483   5.399   7.742  10.079 -0.8337  0.4791 -0.6809
  709MOL0     C93484   5.341   7.809   9.977  0.0941 -0.3940  0.2793
  709MOL0     C93485   5.248   7.739   9.879  0.0494  0.2396  0.5371
  709MOL0     O93486   5.194   7.814   9.776  0.0720 -0.5116  0.7672
  709MOL0     C93487   5.113   7.754   9.689 -0.6862  0.1333  0.1081
  709MOL0     C93488   4.989   7.812   9.660 -0.4532 -0.4632  0.4079
  709MOL0     C93489   4.902   7.767   9.558  0.1648 -0.3513 -0.2869
  709MOL0     C93490   4.943   7.655   9.470  0.3487  0.3449 -0.4790
  709MOL0     O93491   4.867   7.600   9.370 -0.1510  0.4772  0.1863
  709MOL0     C93492   4.726   7.633   9.361 -1.3285 -0.2565  0.5066
  709MOL0     C93493   4.648   7.586   9.237  0.1209 -1.0065  0.1817
  709MOL0     C93494   4.631   7.434   9.214 -0.3888  0.6674 -0.2729
  709MOL0     C93495   4.592   7.358   9.347  0.1534 -0.1229  0.0035
  709MOL0     C93496   4.566   7.205   9.325  1.1915  0.4464  0.1004
  709MOL0     C93497   4.450   7.148   9.407 -0.4404  0.4351  0.6703
  709MOL0     C93498   4.454   6.991   9.382  0.6215 -0.0734  0.6687
  709MOL0     C93499   4.351   6.909   9.444  0.4973 -0.1429  0.6140
  709MOL0    Cl93500   4.359   6.916   9.622 -0.5067 -0.3550  0.0924
  709MOL0     C93501   5.057   7.587   9.510  0.4874  0.1242 -0.0365
  709MOL0     C93502   5.144   7.637   9.609  0.7317  0.3502 -0.1787
  709MOL0     O93503   5.239   7.617   9.885 -0.1000 -0.1581  0.3873
  709MOL0     C93504   5.372   7.952   9.963 -0.1959  0.6471 -0.1718
  709MOL0     C93505   5.455   8.012  10.054 -0.8032 -0.3072 -1.2234
  709MOL0     N93506   6.089   8.444  10.239  0.7228 -0.8025  0.6359
  709MOL0     N93507   6.085   8.533  10.328  0.3126 -0.6978 -0.4192
  709MOL0     C93508   6.305   9.504  10.672 -0.2744 -1.1055 -0.6438
  709MOL0     C93509   6.286   9.641  10.710 -1.4292 -0.4237 -0.9066
  709MOL0     C93510   6.326  10.064  10.874  0.2121 -0.1857  0.5177
  709MOL0     C93511   6.347  10.070  11.011 -0.2440  0.2492 -0.6860
  709MOL0     C93512   6.334  10.188  11.093 -0.1967  0.3154 -0.7748
  709MOL0     C93513   6.277  10.295  11.025 -0.0615  0.0098 -0.2488
  709MOL0     O93514   6.234  10.409  11.083  0.0210  0.6690 -0.0999
  709MOL0     C93515   6.114  10.384  11.149 -0.5778  0.6062 -0.0523
  709MOL0     C93516   6.064  10.523  11.180  0.3678 -0.6315 -0.5200
  709MOL0     C93517   6.043  10.614  11.064  0.7377  1.6322 -0.2419
  709MOL0     C93518   5.915  10.563  10.975  0.3987 -0.4966  0.0058
  709MOL0     C93519   5.786  10.575  11.036 -0.1547  0.4242 -1.1171
  709MOL0     C93520   5.677  10.568  11.106  0.2383 -0.5158 -0.2365
  709MOL0     C93521   6.263  10.296  10.886 -0.1377  1.7673 -0.4018
  709MOL0     C93522   6.287  10.180  10.816  0.2701 -0.8012 -0.0167
  709MOL0     H93523   6.555   9.669  10.918 -3.8757  3.0902  3.0763
  709MOL0     H93524   6.586   9.426  10.854  0.2678  1.0002  1.0326
  709MOL0     H93525   6.356   9.243  10.886  1.0751 -1.4329  1.2000
  709MOL0     H93526   6.533   9.220  10.844  0.7795  5.7343 -0.9558
  709MOL0     H93527   6.454   8.994  10.829  0.1748  0.9336  1.0262
  709MOL0     H93528   6.430   9.045  10.656 -3.9589  1.1651 -1.9567
  709MOL0     H93529   6.209   9.121  10.698  0.4722  1.5140  1.8126
  709MOL0     H93530   6.214   9.080  10.866  0.6476  1.1887  0.3058
  709MOL0     H93531   6.272   8.869  10.666  0.8894  2.7250 -0.6045
  709MOL0     H93532   6.212   8.858  10.837  0.1408  1.3288  0.5990
  709MOL0     H93533   6.065   8.917  10.596  0.8733 -3.0255 -0.2250
  709MOL0     H93534   5.989   8.963  10.760 -2.1922 -2.6308 -0.1596
  709MOL0     H93535   5.903   8.754  10.699  0.1793  0.0348  0.4284
  709MOL0     H93536   6.050   8.725  10.812  3.2339 -1.2794 -1.6319
  709MOL0     H93537   6.060   8.743  10.516  0.9496  1.0067  0.0123
  709MOL0     H93538   6.173   8.645  10.613  0.1145  1.2496 -4.0085
  709MOL0     H93539   5.877   8.559  10.541  0.6129 -2.0237 -2.3977
  709MOL0     H93540   5.990   8.468  10.644  2.3840 -0.8945 -1.5667
  709MOL0     H93541   5.955   8.276  10.490 -1.6216  0.1522  0.5690
  709MOL0     H93542   6.140   8.156  10.217 -1.1796 -2.0570  0.1646
  709MOL0     H93543   6.009   8.231  10.113  1.7960  3.2500 -0.6968
  709MOL0     H93544   5.962   8.049  10.356 -0.8171 -0.1333 -0.0374
  709MOL0     H93545   5.957   8.011  10.182 -1.2383  1.2032 -1.1192
  709MOL0     H93546   5.777   8.190  10.328 -0.3296 -0.4016 -0.0939
  709MOL0     H93547   5.763   8.144  10.149  2.5410  1.7677 -1.3183
  709MOL0     H93548   5.755   7.935  10.359  4.2042 -0.4151 -0.8523
  709MOL0     H93549   5.748   7.911  10.185 -1.2769  1.1997 -1.2220
  709MOL0     H93550   5.506   7.757  10.262  0.9187 -3.2364 -2.0615
  709MOL0     H93551   5.368   7.640  10.095 -2.6280  0.9016 -1.2017
  709MOL0     H93552   4.970   7.909   9.703 -0.6125 -0.2380 -0.1639
  709MOL0     H93553   4.801   7.800   9.538 -0.7168 -2.3884  0.4475
  709MOL0     H93554   4.706   7.739   9.344 -0.8332 -0.5584 -2.6497
  709MOL0     H93555   4.676   7.606   9.454 -1.7490  1.0536  0.6771
  709MOL0     H93556   4.693   7.621   9.143  1.2595 -5.8218 -1.3474
  709MOL0     H93557   4.556   7.643   9.253  1.9549  2.6544 -1.0661
  709MOL0     H93558   4.733   7.401   9.190  1.2804  3.2555  2.5012
  709MOL0     H93559   4.567   7.409   9.129 -0.3724  0.7122 -0.2987
  709MOL0     H93560   4.677   7.367   9.415 -2.1321  0.1611  3.0754
  709MOL0     H93561   4.507   7.412   9.391  1.0540 -0.6682  2.5772
  709MOL0     H93562   4.650   7.141   9.354  0.8000  1.0452  2.8285
  709MOL0     H93563   4.553   7.187   9.218  1.5832 -1.8184  0.3795
  709MOL0     H93564   4.356   7.184   9.365  0.1991  0.9604 -0.3517
  709MOL0     H93565   4.458   7.173   9.513 -0.3241  1.7142  0.3695
  709MOL0     H93566   4.441   6.976   9.274 -4.7610 -0.1814  1.0914
  709MOL0     H93567   4.552   6.951   9.412  1.3394 -0.2364 -1.6904
  709MOL0     H93568   4.340   6.810   9.398  2.3265  1.0355 -2.7606
  709MOL0     H93569   4.253   6.957   9.430  0.5651  0.4030  1.8426
  709MOL0     H93570   5.076   7.505   9.442 -2.1729  1.3487 -2.4758
  709MOL0     H93571   5.235   7.581   9.625  1.4459  1.2743 -0.8939
  709MOL0     H93572   5.317   8.012   9.892 -0.6502  2.0129  1.2688
  709MOL0     H93573   5.493   8.112  10.036 -0.1153 -0.2649  0.3102
  709MOL0     H93574   6.229   9.453  10.614  0.8838 -1.4992 -1.8661
  709MOL0     H93575   6.214   9.701  10.656 -0.8977 -0.5933 -1.8327
  709MOL0     H93576   6.379   9.985  11.070  1.8724  0.0760 -2.0164
  709MOL0     H93577   6.343  10.198  11.201 -1.3530  2.3847 -0.8185
  709MOL0     H93578   6.145  10.339  11.244 -1.3978 -1.0709 -0.5426
  709MOL0     H93579   6.047  10.316  11.095  0.3288  0.5362 -1.1213
  709MOL0     H93580   5.973  10.520  11.241  0.2216  2.6061 -0.4189
  709MOL0     H93581   6.137  10.562  11.251 -0.1830  2.0887 -1.3323
  709MOL0     H93582   6.132  10.619  11.002 -1.5609  0.2502 -3.9616
  709MOL0     H93583   6.030  10.716  11.101  3.3692  2.0041 -0.1812
  709MOL0     H93584   5.902  10.620  10.883 -0.4080 -0.9358 -0.1601
  709MOL0     H93585   5.923  10.456  10.953 -1.4577 -0.3419 -1.6286
  709MOL0     H93586   5.584  10.549  11.155 -1.3997  0.8472 -2.6082
  709MOL0     H93587   6.240  10.390  10.836  1.6080  1.8937 -1.0391
  709MOL0     H93588   6.268  10.186  10.709 -2.5601 -3.5330  0.1917
  710MOL0     O93589   4.533  11.101   1.292 -0.4601 -0.0470  0.7000
  710MOL0     C93590   4.607  11.028   1.364 -0.3157  0.0131  0.1334
  710MOL0     O93591   4.700  10.932   1.325  0.0445 -0.0577  0.4440
  710MOL0     C93592   4.746  10.936   1.193 -0.5076 -0.0330  0.3315
  710MOL0     C93593   4.887  10.922   1.165 -0.4484 -0.6437 -0.4861
  710MOL0     C93594   4.939  10.914   1.033 -0.3300  0.0771  0.0007
  710MOL0     C93595   4.845  10.936   0.927 -0.1560 -0.4767  0.2884
  710MOL0     O93596   4.901  10.913   0.802  0.1786 -0.0327  0.3436
  710MOL0     C93597   4.845  10.974   0.691  0.1489  0.3869  0.5592
  710MOL0     C93598   4.949  10.985   0.575 -0.2366  1.1196 -0.4329
  710MOL0     C93599   5.093  11.021   0.633 -0.9858 -0.1072 -0.9442
  710MOL0     C93600   5.082  11.161   0.688 -0.0385 -0.0953 -0.1186
  710MOL0     C93601   5.218  11.221   0.719 -0.5146 -0.1136  0.3223
  710MOL0     C93602   5.274  11.169   0.858 -0.3504 -0.3305 -0.1106
  710MOL0     C93603   5.415  11.230   0.857  0.2226  0.7939 -0.2027
  710MOL0     C93604   5.496  11.194   0.985 -1.1481  0.0701  0.9344
  710MOL0     N93605   5.480  11.051   1.031  0.2174 -0.5389  0.4354
  710MOL0     C93606   5.456  11.008   1.159  0.1051  0.0983 -0.0544
  710MOL0     C93607   5.413  10.882   1.140  0.4640 -0.2629  0.0201
  710MOL0     C93608   5.351  10.796   1.252  0.1647  0.4103 -1.3661
  710MOL0     C93609   5.429  10.670   1.275 -1.1056  0.1249  0.5272
  710MOL0     C93610   5.398  10.611   1.412  0.6627  0.3982 -0.3441
  710MOL0     C93611   5.456  10.477   1.429 -0.8512  1.1494  0.6533
  710MOL0     O93612   5.597  10.486   1.453 -0.6165 -0.7982  0.7215
  710MOL0     C93613   5.647  10.385   1.521  0.5622  0.5107 -0.2618
  710MOL0     C93614   5.662  10.266   1.448  1.2958  0.4194 -0.0707
  710MOL0     C93615   5.734  10.159   1.500 -0.5965  0.2644 -0.9081
  710MOL0     C93616   5.779  10.162   1.633  0.3795 -0.6342 -0.2421
  710MOL0     C93617   5.852  10.047   1.685  0.1937  0.3740  0.6481
  710MOL0     O93618   5.868   9.939   1.602 -0.8777 -0.1313  0.3235
  710MOL0     C93619   5.952   9.833   1.635 -0.8614 -0.9678  0.1924
  710MOL0     C93620   6.094   9.855   1.626 -0.2866  0.2056 -0.6165
  710MOL0     C93621   6.181   9.753   1.661 -0.1571 -0.2565  0.1090
  710MOL0     C93622   6.134   9.627   1.701  0.4645 -0.1264  0.4700
  710MOL0     O93623   6.216   9.518   1.718  0.1320  0.1155 -0.1143
  710MOL0     C93624   6.207   9.435   1.610  0.2810 -0.1637  0.0273
  710MOL0     C93625   6.308   9.327   1.635  0.7814 -0.1569  0.0592
  710MOL0     C93626   6.278   9.212   1.734  0.2348  0.2205 -1.2973
  710MOL0     C93627   6.391   9.104   1.724  0.1986  0.4674 -0.3240
  710MOL0     C93628   6.344   8.984   1.805  0.1869 -0.2239 -1.1644
  710MOL0     C93629   6.442   8.873   1.816 -0.5773  0.3368  0.8971
  710MOL0     C93630   6.478   8.808   1.682 -0.4622 -0.1465 -0.0343
  710MOL0     C93631   6.545   8.675   1.708  0.0421  0.2331  0.3564
  710MOL0    Cl93632   6.678   8.701   1.824  0.3887 -0.4127  0.2424
  710MOL0     C93633   5.990   9.606   1.711  0.1358  0.1586  0.3358
  710MOL0     C93634   5.903   9.709   1.674  0.3550  0.1036  0.0494
  710MOL0     O93635   5.892  10.057   1.799  0.0107  0.3679 -0.1255
  710MOL0     C93636   5.767  10.288   1.709  0.9412  0.2913 -0.4859
  710MOL0     C93637   5.700  10.401   1.654 -0.2640  0.2513  1.1301
  710MOL0     N93638   5.420  10.848   1.009 -0.4728  1.4721  0.4953
  710MOL0     N93639   5.456  10.948   0.947 -0.1209 -0.6299  0.5044
  710MOL0     C93640   4.707  10.950   0.953 -0.3192 -0.0119 -0.8622
  710MOL0     C93641   4.659  10.945   1.083  0.8727 -0.3586  0.1357
  710MOL0     C93642   4.590  11.048   1.516  0.1217  0.3021  1.3011
  710MOL0     C93643   4.636  10.953   1.607  0.2473  0.5163  0.8820
  710MOL0     C93644   4.599  10.961   1.744  0.2664  0.7721 -0.4921
  710MOL0     C93645   4.516  11.056   1.794 -0.3827  0.4621  0.1775
  710MOL0     O93646   4.476  11.061   1.927  0.0001 -0.2608 -0.0469
  710MOL0     C93647   4.567  11.052   2.038  0.6054  0.1825  0.3374
  710MOL0     C93648   4.491  10.996   2.158  0.8396 -0.6132  0.0651
  710MOL0     C93649   4.437  10.851   2.125 -0.2103  0.0976  0.0619
  710MOL0     C93650   4.444  10.759   2.245 -0.4289 -0.2430 -0.3618
  710MOL0     C93651   4.390  10.626   2.222  0.5826  0.1814  0.3285
  710MOL0     C93652   4.341  10.521   2.196 -0.3810  0.4236 -0.6473
  710MOL0     C93653   4.460  11.150   1.701 -1.1669  0.6282 -0.5273
  710MOL0     C93654   4.502  11.145   1.565  0.2797 -0.2582 -0.1690
  710MOL0     H93655   4.958  10.916   1.247 -0.8604 -2.1562 -0.2128
  710MOL0     H93656   5.037  10.886   0.997 -0.6679  1.1834 -1.9593
  710MOL0     H93657   4.830  11.082   0.700  1.7116  0.8757 -1.6539
  710MOL0     H93658   4.753  10.924   0.660 -2.0662  1.5500  4.5565
  710MOL0     H93659   4.915  11.050   0.494 -3.1419  1.0929  0.6440
  710MOL0     H93660   4.970  10.885   0.535  0.2245  0.8944  0.3468
  710MOL0     H93661   5.156  11.025   0.544 -4.1588 -1.2027 -3.4189
  710MOL0     H93662   5.130  10.949   0.707  0.9399  0.9301 -0.8280
  710MOL0     H93663   5.035  11.232   0.619 -3.0337 -2.0376 -0.2649
  710MOL0     H93664   5.024  11.157   0.781  0.3789 -0.4749  0.1265
  710MOL0     H93665   5.202  11.329   0.723 -0.6081 -0.0397 -1.4221
  710MOL0     H93666   5.291  11.205   0.639  1.0406  0.2964  1.5950
  710MOL0     H93667   5.256  11.066   0.888 -0.2344 -0.6331 -1.0527
  710MOL0     H93668   5.233  11.231   0.938 -1.8903  0.9074 -1.7688
  710MOL0     H93669   5.460  11.193   0.764 -0.4342  0.3079 -0.3301
  710MOL0     H93670   5.412  11.339   0.852  1.3086  0.8310 -0.2884
  710MOL0     H93671   5.470  11.269   1.060 -1.8560  0.3159  0.4452
  710MOL0     H93672   5.597  11.224   0.956 -0.8837 -1.9153 -0.4245
  710MOL0     H93673   5.468  11.069   1.248  2.0925 -1.7325  0.9916
  710MOL0     H93674   5.247  10.769   1.234  0.2890 -1.0116 -0.1181
  710MOL0     H93675   5.357  10.856   1.343 -4.0270 -1.2207  0.2281
  710MOL0     H93676   5.534  10.697   1.284  0.0560 -2.8490 -2.1143
  710MOL0     H93677   5.412  10.593   1.198  1.1835  0.9615 -0.9267
  710MOL0     H93678   5.447  10.670   1.489  0.7440 -0.6355  0.4275
  710MOL0     H93679   5.289  10.604   1.422  0.6038 -1.6575 -1.7919
  710MOL0     H93680   5.454  10.406   1.346  1.2785  1.1262  0.5582
  710MOL0     H93681   5.401  10.428   1.510 -0.4309 -0.5961 -0.0684
  710MOL0     H93682   5.628  10.246   1.347 -1.7406 -1.0363  1.1170
  710MOL0     H93683   5.748  10.066   1.446  2.5759  1.0224 -1.5957
  710MOL0     H93684   6.135   9.947   1.585  4.8663 -0.6754  1.7435
  710MOL0     H93685   6.289   9.764   1.647  0.2182 -1.9833  1.3379
  710MOL0     H93686   6.239   9.494   1.523  0.3121  4.1153  2.6486
  710MOL0     H93687   6.107   9.398   1.587  0.1823 -0.1507  0.4291
  710MOL0     H93688   6.398   9.381   1.664 -1.8115  3.6082  1.9430
  710MOL0     H93689   6.330   9.279   1.539  3.7456 -0.8661  0.9972
  710MOL0     H93690   6.190   9.161   1.694  0.6145 -1.5973  0.0327
  710MOL0     H93691   6.258   9.249   1.835  1.5964  1.6053 -1.5060
  710MOL0     H93692   6.411   9.064   1.624  1.0978 -0.2655  0.1302
  710MOL0     H93693   6.484   9.142   1.765  1.9598 -1.6284 -2.1230
  710MOL0     H93694   6.259   8.934   1.758  1.1500 -1.3891 -1.7127
  710MOL0     H93695   6.312   9.013   1.906 -0.4641 -1.9970 -0.8244
  710MOL0     H93696   6.404   8.792   1.878  0.3345  1.2555  2.7257
  710MOL0     H93697   6.534   8.914   1.859 -1.0425 -0.5760  2.8312
  710MOL0     H93698   6.399   8.801   1.606 -1.8350 -1.4860  1.4256
  710MOL0     H93699   6.555   8.871   1.639 -0.0788 -1.4360 -1.2950
  710MOL0     H93700   6.574   8.635   1.611  3.9812  1.4371  0.8888
  710MOL0     H93701   6.483   8.595   1.749  3.7883 -2.9087  0.4252
  710MOL0     H93702   5.947   9.509   1.735 -0.2449  1.1698  4.3898
  710MOL0     H93703   5.798   9.684   1.665  0.1786  1.1068 -0.9921
  710MOL0     H93704   5.812  10.310   1.805  1.7853  1.1781 -1.0769
  710MOL0     H93705   5.696  10.495   1.708 -2.1266  0.3679  0.8616
  710MOL0     H93706   4.616  10.953   0.894 -2.1984 -0.1639  1.8412
  710MOL0     H93707   4.550  10.941   1.087  0.9257 -1.0927  1.2293
  710MOL0     H93708   4.697  10.868   1.578  1.0973  1.4432 -0.0888
  710MOL0     H93709   4.639  10.885   1.809 -1.0865  1.6465  1.4450
  710MOL0     H93710   4.592  11.154   2.068  2.7695  0.4636 -2.0117
  710MOL0     H93711   4.661  11.005   2.009  1.9036  3.1211 -0.6987
  710MOL0     H93712   4.566  10.970   2.234 -0.2384 -1.6866  0.7914
  710MOL0     H93713   4.420  11.066   2.202  4.0038  1.5480  2.0935
  710MOL0     H93714   4.507  10.799   2.059  0.4237  0.7887  0.1846
  710MOL0     H93715   4.335  10.847   2.085 -0.7152 -1.5993  1.3874
  710MOL0     H93716   4.549  10.760   2.276 -0.3217  4.5827 -0.2498
  710MOL0     H93717   4.402  10.805   2.335  2.8697  0.0088  1.2325
  710MOL0     H93718   4.317  10.417   2.184  1.1942  0.1565 -1.8827
  710MOL0     H93719   4.386  11.224   1.731 -1.9176 -0.4999  0.4829
  710MOL0     H93720   4.473  11.223   1.495 -0.8206 -0.7540 -0.2864
  711MOL0     O93721   9.449  10.916   4.926  0.6716  0.2684 -0.0353
  711MOL0     C93722   9.419  10.947   4.807  0.5783 -0.0212 -0.3148
  711MOL0     O93723   9.412  10.861   4.701  0.0105 -0.5036 -0.2258
  711MOL0     C93724   9.445  10.734   4.729 -0.3993 -0.1874  0.7427
  711MOL0     C93725   9.578  10.702   4.715 -0.9703  1.2960 -0.4445
  711MOL0     C93726   9.617  10.568   4.709  0.2356  0.3865  0.2010
  711MOL0     C93727   9.524  10.470   4.744 -0.7646  0.1762 -0.1538
  711MOL0     O93728   9.560  10.343   4.719 -0.1724  0.6510  0.1167
  711MOL0     C93729   9.475  10.240   4.669 -0.4707  0.0013  0.5211
  711MOL0     C93730   9.548  10.108   4.651 -0.8168  0.5101  0.0583
  711MOL0     C93731   9.442   9.997   4.616  0.0200 -0.4708  0.1329
  711MOL0     C93732   9.499   9.855   4.641  0.3329 -0.4348 -0.6713
  711MOL0     C93733   9.418   9.746   4.570  0.1799 -0.1522 -0.3612
  711MOL0     C93734   9.274   9.740   4.615 -0.0975  0.0748 -0.3134
  711MOL0     C93735   9.211   9.614   4.551 -0.0747  0.4915  0.9588
  711MOL0     C93736   9.087   9.588   4.632 -0.2302  0.0330 -0.5562
  711MOL0     N93737   9.029   9.454   4.613 -0.2079  0.5113  0.2673
  711MOL0     C93738   8.957   9.424   4.504  0.1380  0.3427 -0.7203
  711MOL0     C93739   8.897   9.313   4.539  1.0684 -0.4568  1.3948
  711MOL0     C93740   8.796   9.238   4.454  0.8238 -0.2868 -0.3038
  711MOL0     C93741   8.653   9.294   4.454  0.3760 -0.4797  0.5677
  711MOL0     C93742   8.589   9.247   4.330  0.6182 -0.0725  0.3424
  711MOL0     C93743   8.436   9.262   4.334  0.1487  0.0131  0.0665
  711MOL0     O93744   8.377   9.141   4.360 -0.1489 -0.5032  0.4825
  711MOL0     C93745   8.249   9.131   4.349 -0.7587  0.0587 -0.8816
  711MOL0     C93746   8.159   9.237   4.335  0.2059 -0.1373  0.5120
  711MOL0     C93747   8.023   9.222   4.333 -0.4749 -0.5577  0.1273
  711MOL0     C93748   7.974   9.094   4.352  1.4808 -0.8284  0.6997
  711MOL0     C93749   7.825   9.069   4.330  0.4427  0.1101  0.4749
  711MOL0     O93750   7.791   8.942   4.287 -0.4224  0.0781 -1.2015
  711MOL0     C93751   7.663   8.902   4.260  0.3081  0.0675 -0.0982
  711MOL0     C93752   7.553   8.917   4.347  0.2293 -0.5123 -0.0016
  711MOL0     C93753   7.430   8.859   4.319 -0.4939 -0.5870  0.5392
  711MOL0     C93754   7.412   8.783   4.207  0.6762 -0.5353  0.9330
  711MOL0     O93755   7.296   8.710   4.180 -1.0920  0.0673 -0.0650
  711MOL0     C93756   7.273   8.607   4.275  0.0982  0.1616  0.0590
  711MOL0     C93757   7.120   8.563   4.287  0.2335 -0.6390  0.7080
  711MOL0     C93758   7.035   8.556   4.153  0.3228  0.6023 -0.1169
  711MOL0     C93759   6.900   8.482   4.180  0.3259 -0.1640  0.5819
  711MOL0     C93760   6.786   8.576   4.236 -0.2174  0.5977  0.0319
  711MOL0     C93761   6.648   8.505   4.223  1.1586 -0.4488 -0.4830
  711MOL0     C93762   6.583   8.489   4.082  0.7531 -0.4110 -0.4965
  711MOL0     C93763   6.444   8.410   4.070  0.0345 -0.8274 -0.6712
  711MOL0    Cl93764   6.457   8.231   4.075 -0.1715  0.2772 -0.0257
  711MOL0     C93765   7.518   8.767   4.113 -0.2636  0.0447 -0.6411
  711MOL0     C93766   7.647   8.834   4.140 -0.6931  0.1217 -0.6307
  711MOL0     O93767   7.746   9.159   4.372 -0.5929  0.4239  0.3581
  711MOL0     C93768   8.063   8.989   4.378  1.0061 -0.4222  0.9245
  711MOL0     C93769   8.198   9.002   4.383 -0.0817 -1.0157 -0.2138
  711MOL0     N93770   8.931   9.290   4.673 -0.4151 -0.7405 -0.5054
  711MOL0     N93771   9.020   9.371   4.711 -0.0953 -0.1575 -0.1941
  711MOL0     C93772   9.386  10.503   4.762 -0.4063 -0.0143  0.8971
  711MOL0     C93773   9.346  10.638   4.743 -0.1911  0.3588 -0.2600
  711MOL0     C93774   9.398  11.091   4.768 -0.3684 -0.3626  0.7362
  711MOL0     C93775   9.419  11.198   4.858 -1.0686 -0.2339 -0.1982
  711MOL0     C93776   9.379  11.327   4.828 -0.0282 -0.3844  0.6632
  711MOL0     C93777   9.324  11.363   4.707  0.4253 -0.4018  0.1052
  711MOL0     O93778   9.284  11.491   4.672  0.0473  0.1794 -0.6747
  711MOL0     C93779   9.200  11.512   4.559 -0.0635 -0.5116 -0.3872
  711MOL0     C93780   9.123  11.638   4.584 -0.3551 -0.4282 -0.4808
  711MOL0     C93781   9.203  11.747   4.658  0.0525  0.4326 -0.7172
  711MOL0     C93782   9.139  11.879   4.681  0.1648 -0.1793  0.0170
  711MOL0     C93783   9.151  11.948   4.552 -0.1720  0.0411  0.1490
  711MOL0     C93784   9.154  12.016   4.443  0.5338  0.2028 -0.3774
  711MOL0     C93785   9.309  11.261   4.611  0.6953  0.5610  0.1340
  711MOL0     C93786   9.350  11.128   4.636  1.1351  0.2947 -0.5867
  711MOL0     H93787   9.650  10.779   4.691 -1.0177  1.8362  1.0735
  711MOL0     H93788   9.713  10.540   4.667  0.5900 -0.7881  1.7037
  711MOL0     H93789   9.455  10.283   4.570  5.1124 -0.3004 -1.1079
  711MOL0     H93790   9.388  10.240   4.736  1.3153 -0.0706  2.9776
  711MOL0     H93791   9.589  10.078   4.748 -4.1939  1.7678  2.0479
  711MOL0     H93792   9.631  10.112   4.579 -1.0931 -1.6936 -0.4742
  711MOL0     H93793   9.407  10.002   4.512 -1.1715 -1.8917  0.4373
  711MOL0     H93794   9.361  10.025   4.683 -1.2886 -0.6755 -1.3088
  711MOL0     H93795   9.603   9.850   4.607  0.0528 -0.1669 -1.6051
  711MOL0     H93796   9.493   9.855   4.750  1.2696  0.0347 -0.6093
  711MOL0     H93797   9.466   9.651   4.597 -2.6568 -1.4095  0.6789
  711MOL0     H93798   9.438   9.764   4.464  0.0118 -0.8249 -0.5135
  711MOL0     H93799   9.216   9.829   4.589  0.0930  1.0586  2.2867
  711MOL0     H93800   9.278   9.741   4.725  3.4754 -2.2168 -0.2665
  711MOL0     H93801   9.196   9.628   4.444 -2.3552  0.9441  1.2697
  711MOL0     H93802   9.270   9.523   4.564 -1.5355 -0.6241  0.0606
  711MOL0     H93803   9.017   9.666   4.598 -1.0862 -0.5073 -0.0808
  711MOL0     H93804   9.114   9.615   4.734 -1.6791 -1.9135  0.4148
  711MOL0     H93805   8.937   9.478   4.412  0.4521  3.0014  0.6676
  711MOL0     H93806   8.799   9.147   4.514 -1.8434 -0.1043  0.2664
  711MOL0     H93807   8.843   9.220   4.357  0.1656  1.4997 -0.9943
  711MOL0     H93808   8.637   9.402   4.461  0.0901 -0.6334  3.4272
  711MOL0     H93809   8.588   9.262   4.535 -0.3951 -0.0761  0.1160
  711MOL0     H93810   8.634   9.302   4.247 -2.0917  0.5103 -0.8481
  711MOL0     H93811   8.614   9.144   4.302  1.4018  0.2171 -0.0655
  711MOL0     H93812   8.403   9.280   4.231 -0.7711 -2.6419 -0.1844
  711MOL0     H93813   8.409   9.346   4.398  1.1854 -0.8324  1.6822
  711MOL0     H93814   8.189   9.342   4.332 -1.8549  0.5739  2.2148
  711MOL0     H93815   7.961   9.308   4.310 -0.0953 -0.2063  0.4054
  711MOL0     H93816   7.567   8.973   4.439 -1.5159  2.0138 -1.1294
  711MOL0     H93817   7.356   8.881   4.395 -0.0447  0.6749  0.6263
  711MOL0     H93818   7.306   8.637   4.375 -0.5423 -3.7902  1.6364
  711MOL0     H93819   7.320   8.516   4.238  0.3725  1.1151 -2.0737
  711MOL0     H93820   7.068   8.639   4.347 -0.8518 -0.4215 -0.4639
  711MOL0     H93821   7.111   8.471   4.346 -1.4043 -0.9083  0.0918
  711MOL0     H93822   7.094   8.498   4.082 -2.0423 -2.6236  0.3044
  711MOL0     H93823   7.028   8.659   4.116 -0.8312  0.8281  0.6843
  711MOL0     H93824   6.875   8.439   4.083  1.4168  0.2759  0.0868
  711MOL0     H93825   6.915   8.393   4.242 -0.6089  0.4747  1.7636
  711MOL0     H93826   6.797   8.670   4.180 -0.7377  1.6518  1.6299
  711MOL0     H93827   6.805   8.606   4.339  0.2744 -1.9240  0.7289
  711MOL0     H93828   6.567   8.550   4.282  0.6382 -1.6515 -0.2453
  711MOL0     H93829   6.663   8.409   4.273 -0.3340 -0.4438  0.0493
  711MOL0     H93830   6.566   8.585   4.032 -0.1485  1.3016  2.7982
  711MOL0     H93831   6.650   8.430   4.019 -0.2840 -0.1960 -1.8649
  711MOL0     H93832   6.382   8.443   3.987  2.7745 -0.7054 -2.8254
  711MOL0     H93833   6.379   8.432   4.155 -0.5223 -3.7522 -0.2235
  711MOL0     H93834   7.508   8.711   4.021  3.3956  2.0144 -2.4576
  711MOL0     H93835   7.733   8.817   4.077 -0.2036 -0.0232  0.0620
  711MOL0     H93836   8.019   8.891   4.398 -0.2366 -0.4664 -1.5424
  711MOL0     H93837   8.270   8.922   4.399  0.5884  0.2923  5.5471
  711MOL0     H93838   9.307  10.431   4.780  2.8262 -4.2289 -0.2226
  711MOL0     H93839   9.247  10.682   4.750  0.8204  2.5997  1.3977
  711MOL0     H93840   9.460  11.180   4.957 -0.2588  1.1619 -0.2485
  711MOL0     H93841   9.387  11.411   4.896 -2.5060  2.1666 -1.9410
  711MOL0     H93842   9.125  11.433   4.554 -3.0667  2.2066 -3.3829
  711MOL0     H93843   9.250  11.509   4.461  1.5615 -1.2123  0.4380
  711MOL0     H93844   9.098  11.676   4.484 -0.1806 -0.7864 -0.6648
  711MOL0     H93845   9.035  11.620   4.646  1.6615 -0.0586  2.6724
  711MOL0     H93846   9.310  11.745   4.638  0.9779 -0.3830  3.4759
  711MOL0     H93847   9.204  11.689   4.751  1.6332 -2.8114 -2.5864
  711MOL0     H93848   9.037  11.866   4.718 -0.3746  1.0470 -0.9771
  711MOL0     H93849   9.198  11.936   4.754  1.9006  1.1853 -2.2939
  711MOL0     H93850   9.147  12.075   4.354  0.0121 -0.8735 -1.0585
  711MOL0     H93851   9.266  11.280   4.513  0.4477 -0.5858  0.0120
  711MOL0     H93852   9.314  11.056   4.564 -4.5686 -0.7278  2.6359
  712MOL0     O93853  11.015  10.632   7.279 -0.9637 -0.2760  1.0188
  712MOL0     C93854  10.920  10.587   7.211 -0.2395  0.2926 -0.3652
  712MOL0     O93855  10.866  10.647   7.105 -0.4415 -0.4295 -0.1952
  712MOL0     C93856  10.944  10.745   7.056  0.8775  0.4347  1.5514
  712MOL0     C93857  11.065  10.717   6.998  0.1110  0.1338  0.9689
  712MOL0     C93858  11.137  10.818   6.931 -0.5609  0.3231 -0.2415
  712MOL0     C93859  11.092  10.952   6.943  0.1763  0.1526  0.9077
  712MOL0     O93860  11.174  11.050   6.883 -0.2483  0.2887 -0.4082
  712MOL0     C93861  11.122  11.175   6.837 -0.0756  0.9005  0.1526
  712MOL0     C93862  11.226  11.262   6.771 -0.1121  0.0691  0.6457
  712MOL0     C93863  11.339  11.295   6.868 -0.8184  0.0383 -0.4985
  712MOL0     C93864  11.302  11.373   6.992 -0.4085  0.2668  0.3145
  712MOL0     C93865  11.437  11.435   7.050  0.1297 -0.2883 -0.7490
  712MOL0     C93866  11.423  11.480   7.201 -0.3586 -0.9775 -0.2290
  712MOL0     C93867  11.424  11.366   7.304 -0.1924  0.0959  0.8448
  712MOL0     C93868  11.358  11.397   7.433  0.7260  0.4771  0.5167
  712MOL0     N93869  11.363  11.528   7.505 -0.7373  0.2266 -0.8734
  712MOL0     C93870  11.484  11.562   7.566  0.2638 -0.2482  0.7955
  712MOL0     C93871  11.461  11.693   7.620  0.1610 -0.4697 -0.0446
  712MOL0     C93872  11.565  11.783   7.679 -0.2578  0.3167  0.6601
  712MOL0     C93873  11.506  11.902   7.756 -0.3122 -0.1525  0.7977
  712MOL0     C93874  11.435  12.004   7.661 -0.0077 -0.8911 -0.6358
  712MOL0     C93875  11.530  12.065   7.562  0.0128  0.3507 -0.3489
  712MOL0     O93876  11.659  12.100   7.630 -0.0836  0.3420 -0.2912
  712MOL0     C93877  11.689  12.228   7.662 -0.5935 -0.9153  1.3939
  712MOL0     C93878  11.818  12.247   7.720  0.2018  0.5268  0.3831
  712MOL0     C93879  11.847  12.373   7.767  0.2519  0.6683 -0.1281
  712MOL0     C93880  11.765  12.485   7.757 -1.1873  1.0538  0.8928
  712MOL0     C93881  11.815  12.615   7.813 -0.1034  0.5821 -0.6702
  712MOL0     O93882  11.940  12.613   7.863 -0.7652 -0.7243 -0.2012
  712MOL0     C93883  11.992  12.722   7.928 -0.7967  0.0826  1.2175
  712MOL0     C93884  11.923  12.784   8.030  0.1940  0.7666 -0.0037
  712MOL0     C93885  11.965  12.902   8.093  0.2533  0.5698 -0.3914
  712MOL0     C93886  12.074  12.976   8.041 -0.3449 -0.0466  0.5475
  712MOL0     O93887  12.109  13.101   8.092 -0.2204 -0.3167 -0.1669
  712MOL0     C93888  12.007  13.199   8.090  0.1731  0.2994  0.0776
  712MOL0     C93889  11.986  13.256   8.220  0.0888 -0.0687 -0.1114
  712MOL0     C93890  12.016  13.409   8.228  0.0427 -0.7820  0.5067
  712MOL0     C93891  12.007  13.485   8.363 -0.4529  0.3970 -1.3224
  712MOL0     C93892  12.061  13.623   8.361  0.5523  0.2169  0.4019
  712MOL0     C93893  11.989  13.709   8.469 -0.2701 -0.1012 -0.4977
  712MOL0     C93894  11.970  13.643   8.609  0.3726 -0.2171 -0.1125
  712MOL0     C93895  12.098  13.572   8.667  0.5123 -0.0613 -0.1444
  712MOL0    Cl93896  12.071  13.523   8.836  0.6419  0.1490 -0.0787
  712MOL0     C93897  12.154  12.917   7.939 -0.1866  0.2864 -1.1126
  712MOL0     C93898  12.110  12.798   7.882 -0.8246  0.4146 -0.2388
  712MOL0     O93899  11.737  12.710   7.811 -0.0715 -0.7233  0.6661
  712MOL0     C93900  11.629  12.460   7.713  0.6045  0.6415 -0.3698
  712MOL0     C93901  11.591  12.333   7.671  0.1833 -0.0562 -0.4966
  712MOL0     N93902  11.328  11.725   7.602 -0.4275  0.6205  0.3564
  712MOL0     N93903  11.272  11.631   7.528 -0.2021 -0.2196  0.5102
  712MOL0     C93904  10.964  10.969   6.994 -0.3655 -0.1494 -0.7023
  712MOL0     C93905  10.891  10.872   7.045  0.3540  0.7869 -0.1386
  712MOL0     C93906  10.867  10.455   7.249 -0.7391  0.0694 -0.0119
  712MOL0     C93907  10.896  10.404   7.378 -0.2922  0.4807  0.6320
  712MOL0     C93908  10.841  10.278   7.418 -0.0666 -0.2643  0.3253
  712MOL0     C93909  10.767  10.194   7.328  0.2710  0.6605 -0.1945
  712MOL0     O93910  10.713  10.072   7.353  0.0511 -0.5046 -0.6731
  712MOL0     C93911  10.710  10.018   7.487  0.7436  0.1766  0.6693
  712MOL0     C93912  10.585  10.060   7.562  0.3164 -0.2303 -0.5448
  712MOL0     C93913  10.577   9.979   7.695  0.3170  0.3384 -0.1461
  712MOL0     C93914  10.484  10.045   7.800 -0.1984 -0.9410  0.8263
  712MOL0     C93915  10.341  10.018   7.778 -0.6231 -1.0699 -0.2269
  712MOL0     C93916  10.221  10.007   7.762 -0.2578 -0.9409  0.3089
  712MOL0     C93917  10.766  10.246   7.192 -0.4802 -0.1154 -0.0283
  712MOL0     C93918  10.798  10.373   7.158  0.2968 -0.0255  0.3506
  712MOL0     H93919  11.110  10.618   6.999  3.8208  1.6530  0.0506
  712MOL0     H93920  11.228  10.791   6.878 -2.2018 -0.0825 -3.0628
  712MOL0     H93921  11.069  11.234   6.913  1.2188 -0.9157  2.6203
  712MOL0     H93922  11.046  11.150   6.763 -1.0237 -0.5376  1.5358
  712MOL0     H93923  11.177  11.352   6.733 -0.9560 -0.9364 -0.7477
  712MOL0     H93924  11.264  11.206   6.685 -4.8458 -1.1192 -0.9955
  712MOL0     H93925  11.425  11.345   6.822 -0.0253 -1.6256 -0.9239
  712MOL0     H93926  11.372  11.193   6.892 -3.1052 -1.6200 -3.7143
  712MOL0     H93927  11.233  11.451   6.957  0.8218 -0.2776 -3.7734
  712MOL0     H93928  11.257  11.310   7.070  2.1685  0.0978  1.7615
  712MOL0     H93929  11.483  11.518   6.996  0.5123  0.1184  0.1820
  712MOL0     H93930  11.507  11.352   7.047  1.4336  0.7400  0.1481
  712MOL0     H93931  11.337  11.546   7.205  1.3980  1.3850  1.2165
  712MOL0     H93932  11.510  11.543   7.222 -1.6457 -0.0360  2.9101
  712MOL0     H93933  11.375  11.289   7.243 -2.1709  2.3444 -0.5794
  712MOL0     H93934  11.522  11.324   7.329  0.4006  0.3815 -0.9050
  712MOL0     H93935  11.399  11.314   7.493  2.2272  2.4129  2.3241
  712MOL0     H93936  11.251  11.375   7.427  1.0161 -0.7257 -1.0068
  712MOL0     H93937  11.580  11.511   7.571 -0.5026 -1.8616 -0.0627
  712MOL0     H93938  11.641  11.814   7.607  1.9067 -1.1352  2.2264
  712MOL0     H93939  11.614  11.732   7.762 -1.1655 -2.3069 -0.3277
  712MOL0     H93940  11.589  11.953   7.805  1.9847 -1.7621 -1.1668
  712MOL0     H93941  11.426  11.872   7.825 -2.4453 -1.2906 -2.0058
  712MOL0     H93942  11.349  11.973   7.602 -0.7594  0.0827 -0.0694
  712MOL0     H93943  11.401  12.085   7.725 -0.0960 -2.9549  2.1123
  712MOL0     H93944  11.483  12.158   7.527 -0.0607  0.2022 -0.6443
  712MOL0     H93945  11.538  11.988   7.486 -1.2317 -3.2298  2.8169
  712MOL0     H93946  11.879  12.157   7.725  1.8985  1.7070  2.7204
  712MOL0     H93947  11.943  12.397   7.814 -0.4503  3.7198 -0.0091
  712MOL0     H93948  11.834  12.742   8.078  1.4213 -0.8615  0.9417
  712MOL0     H93949  11.903  12.924   8.179 -1.7648  3.3073 -2.3356
  712MOL0     H93950  11.912  13.174   8.042 -0.4660  0.4121  1.2393
  712MOL0     H93951  12.033  13.285   8.027 -1.9528 -0.2760 -1.7091
  712MOL0     H93952  12.049  13.210   8.296 -1.1830  0.8292  1.5313
  712MOL0     H93953  11.884  13.238   8.253  0.8406 -1.2208  1.7701
  712MOL0     H93954  11.954  13.460   8.154 -0.5346 -1.1565  0.7263
  712MOL0     H93955  12.119  13.432   8.197 -0.3603  5.5491  2.4754
  712MOL0     H93956  11.903  13.474   8.393  0.5003 -1.6091  1.8145
  712MOL0     H93957  12.065  13.421   8.431  0.6477  1.0312 -1.6224
  712MOL0     H93958  12.016  13.659   8.268 -3.3626 -0.2616  1.9269
  712MOL0     H93959  12.170  13.628   8.350  0.7614 -2.3588  0.7317
  712MOL0     H93960  11.886  13.735   8.442  0.0759  2.8199  0.6464
  712MOL0     H93961  12.043  13.804   8.474  0.9850 -0.8602  1.7592
  712MOL0     H93962  11.935  13.713   8.686  1.9437  1.0992 -0.5326
  712MOL0     H93963  11.891  13.568   8.606 -0.3792  0.4418  1.5458
  712MOL0     H93964  12.179  13.645   8.657  0.4461 -0.1739 -1.8268
  712MOL0     H93965  12.144  13.488   8.613  0.5861  0.8835 -1.6052
  712MOL0     H93966  12.243  12.968   7.903 -1.1181  0.8893 -2.7022
  712MOL0     H93967  12.153  12.750   7.795  1.1740  0.4022  0.7040
  712MOL0     H93968  11.553  12.537   7.709  0.7905  0.8140 -0.5750
  712MOL0     H93969  11.491  12.317   7.634  1.0824 -3.0796 -1.9601
  712MOL0     H93970  10.928  11.070   7.004 -3.0794 -1.0338 -0.7820
  712MOL0     H93971  10.793  10.901   7.083  0.4282  3.2945 -1.6292
  712MOL0     H93972  10.960  10.457   7.448  3.0614 -2.0813 -0.2677
  712MOL0     H93973  10.870  10.239   7.515 -1.5130 -0.3585  0.7440
  712MOL0     H93974  10.798  10.034   7.551 -0.6009 -0.9019  2.9225
  712MOL0     H93975  10.708   9.909   7.476  1.7079  0.2452 -0.3196
  712MOL0     H93976  10.590  10.169   7.576  2.6678 -0.5226  1.6873
  712MOL0     H93977  10.496  10.033   7.505  0.4204  1.6142 -1.6699
  712MOL0     H93978  10.679   9.969   7.733 -0.1535 -1.2488  0.7844
  712MOL0     H93979  10.548   9.877   7.668  0.4562  0.5130 -0.9672
  712MOL0     H93980  10.506  10.003   7.899 -2.1149 -4.5894 -0.1159
  712MOL0     H93981  10.512  10.150   7.787  3.2530 -1.4958  2.5786
  712MOL0     H93982  10.114   9.994   7.756 -0.4804 -1.6171  3.7617
  712MOL0     H93983  10.715  10.194   7.112  0.5760 -1.8622  0.3961
  712MOL0     H93984  10.778  10.406   7.056 -0.1098  1.6890  0.9630
  713MOL0     O93985   6.147   2.525   8.149  0.3128  0.1187  0.1777
  713MOL0     C93986   6.255   2.573   8.181 -0.4217  0.4017  0.1361
  713MOL0     O93987   6.276   2.700   8.233 -0.4647 -0.4188  0.4879
  713MOL0     C93988   6.169   2.759   8.305 -0.7111  0.2635  0.2748
  713MOL0     C93989   6.096   2.864   8.257  0.0972  1.2840 -0.0169
  713MOL0     C93990   5.987   2.915   8.328  0.0423  0.1334 -0.9029
  713MOL0     C93991   5.954   2.872   8.453  0.3780  0.2649 -0.0440
  713MOL0     O93992   5.881   2.934   8.548  0.4408  0.1187  0.3919
  713MOL0     C93993   5.811   3.057   8.527 -0.8226  0.3862 -0.1924
  713MOL0     C93994   5.675   3.051   8.452 -1.1938  0.2606  0.3001
  713MOL0     C93995   5.568   2.976   8.531  0.2270 -0.4528  0.3525
  713MOL0     C93996   5.604   2.830   8.556  1.0437  0.5462  0.2839
  713MOL0     C93997   5.472   2.747   8.582 -0.6409  0.4857 -0.4960
  713MOL0     C93998   5.409   2.767   8.717 -0.3988  0.2662 -0.6302
  713MOL0     C93999   5.479   2.697   8.833  0.1839  0.6255 -0.9520
  713MOL0     C94000   5.445   2.777   8.968  0.6373  0.5289 -0.3251
  713MOL0     N94001   5.487   2.927   8.979  1.3549  0.0232 -0.0281
  713MOL0     C94002   5.611   2.978   8.932 -0.3839 -0.4989  0.9077
  713MOL0     C94003   5.590   3.110   8.922  0.0503  0.5085  0.2397
  713MOL0     C94004   5.685   3.205   8.872  0.4101  0.0157  0.1704
  713MOL0     C94005   5.695   3.333   8.944  0.1289 -0.1779 -0.5342
  713MOL0     C94006   5.802   3.427   8.887  1.0920  0.6083 -0.7883
  713MOL0     C94007   5.798   3.556   8.963 -0.4877 -0.1314  0.3786
  713MOL0     O94008   5.920   3.635   8.935 -0.3228 -0.5719  0.1051
  713MOL0     C94009   5.949   3.743   9.021  0.0671  0.5980 -0.2556
  713MOL0     C94010   6.006   3.848   8.954  0.2175 -0.2877 -0.3162
  713MOL0     C94011   6.046   3.967   9.017  0.3742  0.4167 -0.0663
  713MOL0     C94012   6.006   3.981   9.156 -0.5838  1.2011 -1.0656
  713MOL0     C94013   6.033   4.100   9.236  0.1842 -0.3812  0.1694
  713MOL0     O94014   5.950   4.107   9.351  0.3653  0.0144 -1.1552
  713MOL0     C94015   5.969   4.193   9.462 -0.7938 -0.3358  0.5686
  713MOL0     C94016   5.919   4.158   9.584 -0.4570  0.4611 -0.7104
  713MOL0     C94017   5.923   4.243   9.692  0.4403 -0.1670 -0.2869
  713MOL0     C94018   5.978   4.373   9.679 -0.1232  0.0914  1.2971
  713MOL0     O94019   5.980   4.474   9.770  0.0924 -0.3917 -1.0200
  713MOL0     C94020   5.964   4.435   9.911 -0.2646  0.5760 -0.2782
  713MOL0     C94021   5.925   4.569   9.981 -0.7237 -0.1916 -0.8194
  713MOL0     C94022   5.912   4.542  10.134  0.3287  0.3817  0.6324
  713MOL0     C94023   5.772   4.502  10.160 -0.2161 -1.2371 -0.7374
  713MOL0     C94024   5.731   4.479  10.317 -0.2620 -0.2104  1.0663
  713MOL0     C94025   5.579   4.449  10.321 -1.6079 -0.1914 -0.6668
  713MOL0     C94026   5.536   4.449  10.472  0.2234 -0.0647  0.3887
  713MOL0     C94027   5.389   4.418  10.488 -0.9466 -0.6311 -0.1968
  713MOL0    Cl94028   5.293   4.559  10.477  0.2564  0.3540 -0.4352
  713MOL0     C94029   6.021   4.407   9.552 -0.7775 -0.1633 -0.3231
  713MOL0     C94030   6.021   4.322   9.446 -0.1936  0.6362  0.2220
  713MOL0     O94031   6.122   4.180   9.199  1.0571 -0.1140 -0.0748
  713MOL0     C94032   5.946   3.869   9.225 -0.3803 -0.1849  0.1240
  713MOL0     C94033   5.923   3.749   9.156  0.2218 -0.3240 -0.2358
  713MOL0     N94034   5.467   3.139   8.975  0.3632 -0.4312  0.1164
  713MOL0     N94035   5.398   3.029   8.997 -0.3853  0.3653 -0.1286
  713MOL0     C94036   6.033   2.768   8.504  0.4556  0.3968 -0.0434
  713MOL0     C94037   6.120   2.700   8.426  0.3430  0.6099 -0.1029
  713MOL0     C94038   6.374   2.497   8.134 -0.2203  0.3538  0.2081
  713MOL0     C94039   6.484   2.465   8.219 -0.2012  0.1075  0.5736
  713MOL0     C94040   6.608   2.407   8.169  0.3690 -0.2382  0.3871
  713MOL0     C94041   6.619   2.378   8.036 -0.7159  0.0446 -0.5541
  713MOL0     O94042   6.746   2.331   7.993 -0.0739 -0.4910 -0.2936
  713MOL0     C94043   6.777   2.297   7.855  0.4396 -0.0804  0.7299
  713MOL0     C94044   6.926   2.278   7.845 -0.4618  0.8630 -0.3625
  713MOL0     C94045   6.972   2.335   7.713 -0.0104 -0.2920 -0.5548
  713MOL0     C94046   7.106   2.269   7.664 -0.2249 -0.2258 -1.2149
  713MOL0     C94047   7.214   2.243   7.767 -0.3624  0.1544 -0.3059
  713MOL0     C94048   7.302   2.223   7.849 -0.1885  0.4090  0.0484
  713MOL0     C94049   6.508   2.397   7.952  0.4012  1.4305 -0.1280
  713MOL0     C94050   6.383   2.437   8.008  0.3451 -0.5871  0.2162
  713MOL0     H94051   6.139   2.913   8.170  0.0708  0.3786 -0.5506
  713MOL0     H94052   5.921   2.981   8.275 -5.0568 -3.1264  0.6764
  713MOL0     H94053   5.879   3.117   8.466  0.9101 -1.8827 -0.6402
  713MOL0     H94054   5.800   3.111   8.622 -0.3927 -0.1022  0.1431
  713MOL0     H94055   5.683   3.005   8.353 -1.8209  2.3860 -0.7933
  713MOL0     H94056   5.639   3.153   8.434 -1.5548  0.4040  1.7270
  713MOL0     H94057   5.478   2.996   8.473  2.2967 -1.6519 -3.6648
  713MOL0     H94058   5.557   3.017   8.632 -1.7068  0.2637 -0.1160
  713MOL0     H94059   5.649   2.789   8.465 -0.1938 -1.6789  0.6033
  713MOL0     H94060   5.658   2.837   8.651  0.0135  2.7974  0.7485
  713MOL0     H94061   5.484   2.638   8.581 -1.7559  0.2779 -3.5748
  713MOL0     H94062   5.399   2.771   8.504 -2.2033 -1.3737  0.3195
  713MOL0     H94063   5.305   2.732   8.710 -1.1962  1.6258  2.6384
  713MOL0     H94064   5.389   2.872   8.742  0.5207  0.1324  0.7235
  713MOL0     H94065   5.438   2.596   8.841 -1.1185  1.2749  3.1457
  713MOL0     H94066   5.588   2.690   8.832  0.3013  1.5160  0.8749
  713MOL0     H94067   5.495   2.723   9.049  0.7820  2.8735  1.2555
  713MOL0     H94068   5.338   2.760   8.984  0.4841  2.7189  1.4116
  713MOL0     H94069   5.691   2.918   8.890 -3.4114 -3.6721 -0.7721
  713MOL0     H94070   5.646   3.220   8.771  0.0865 -0.6385  0.1915
  713MOL0     H94071   5.783   3.156   8.869  1.0001  1.0220  1.8297
  713MOL0     H94072   5.711   3.311   9.050 -2.8282  0.1843  0.0757
  713MOL0     H94073   5.595   3.378   8.942 -1.4745 -3.4466 -0.6418
  713MOL0     H94074   5.899   3.377   8.894 -0.1741 -1.8287  0.4322
  713MOL0     H94075   5.779   3.448   8.782 -1.1545  3.2703  0.1224
  713MOL0     H94076   5.785   3.540   9.071 -1.9355  3.9116  0.9927
  713MOL0     H94077   5.710   3.612   8.930  0.0454  0.9908  0.7993
  713MOL0     H94078   6.011   3.845   8.846 -2.4803  0.6574 -0.5393
  713MOL0     H94079   6.095   4.051   8.968 -0.2834  2.3394  2.3536
  713MOL0     H94080   5.874   4.059   9.595  0.6460  0.1081  0.9138
  713MOL0     H94081   5.859   4.226   9.778  1.6919 -1.3857  0.4468
  713MOL0     H94082   6.061   4.393   9.942  0.2182  1.0293 -1.1337
  713MOL0     H94083   5.886   4.363   9.938 -0.7961  2.5574  4.1745
  713MOL0     H94084   5.825   4.592   9.944 -2.5055 -3.1425  1.6543
  713MOL0     H94085   6.006   4.637   9.953 -1.5152 -0.7425 -5.2055
  713MOL0     H94086   5.933   4.621  10.207 -3.5662 -0.4112  2.9150
  713MOL0     H94087   5.976   4.455  10.151 -1.0368 -0.7295  0.2916
  713MOL0     H94088   5.714   4.584  10.117  0.2555 -1.1056 -1.1239
  713MOL0     H94089   5.751   4.408  10.110 -0.4471 -2.2997  1.2515
  713MOL0     H94090   5.746   4.575  10.368 -0.0387  1.1648 -1.4145
  713MOL0     H94091   5.795   4.405  10.365 -0.7826 -0.1434  1.8851
  713MOL0     H94092   5.551   4.351  10.282 -1.6274  0.1497 -1.5315
  713MOL0     H94093   5.530   4.529  10.264  1.8208  2.0289 -0.7842
  713MOL0     H94094   5.581   4.361  10.520 -0.2767 -2.5027 -3.2037
  713MOL0     H94095   5.571   4.541  10.520 -0.2555 -0.0518  0.7235
  713MOL0     H94096   5.381   4.389  10.593  2.6091  2.8262  1.2618
  713MOL0     H94097   5.355   4.344  10.415 -0.4698 -2.4803  1.3957
  713MOL0     H94098   6.041   4.513   9.542 -1.4959  0.1588  1.2815
  713MOL0     H94099   6.051   4.362   9.350  0.0023  0.2524  0.1207
  713MOL0     H94100   5.926   3.869   9.331  0.1816 -1.9952  0.2648
  713MOL0     H94101   5.881   3.662   9.206 -1.5572  0.8263  0.3859
  713MOL0     H94102   6.014   2.721   8.600 -1.5946 -0.1709 -0.6811
  713MOL0     H94103   6.177   2.615   8.464 -0.6570 -0.0808 -0.1065
  713MOL0     H94104   6.464   2.489   8.323  0.4937 -0.7883  0.9303
  713MOL0     H94105   6.686   2.390   8.243  0.6232  0.4773  0.2892
  713MOL0     H94106   6.745   2.379   7.789  0.7973 -0.6995 -0.2321
  713MOL0     H94107   6.732   2.203   7.822  0.8033 -1.0253  2.7914
  713MOL0     H94108   6.982   2.318   7.929  3.0270 -0.5461 -1.8110
  713MOL0     H94109   6.954   2.172   7.842  1.0879  1.1757  1.3827
  713MOL0     H94110   7.013   2.434   7.737  0.5788 -1.6865  6.0308
  713MOL0     H94111   6.894   2.343   7.636 -2.0594  3.7132  1.6325
  713MOL0     H94112   7.087   2.179   7.605 -1.4534 -2.1596  1.9012
  713MOL0     H94113   7.161   2.333   7.594  0.4836  0.1987 -0.2946
  713MOL0     H94114   7.373   2.216   7.929  0.8741  2.9987 -0.5567
  713MOL0     H94115   6.504   2.357   7.852 -1.4267  0.0428  0.4391
  713MOL0     H94116   6.286   2.432   7.958 -1.9039  0.5533  4.0540
  714MOL0     O94117   0.648   6.774   8.658 -1.3332 -0.3906 -1.0331
  714MOL0     C94118   0.596   6.769   8.766 -0.1172  0.3047 -0.0545
  714MOL0     O94119   0.619   6.681   8.863  0.2887 -0.6145 -0.2072
  714MOL0     C94120   0.723   6.594   8.841  0.0079 -0.1091  0.2507
  714MOL0     C94121   0.701   6.468   8.787  0.1210  0.4407 -0.0593
  714MOL0     C94122   0.809   6.385   8.759 -0.9008  0.0965  0.2837
  714MOL0     C94123   0.944   6.421   8.782 -0.0721  1.6122  0.5016
  714MOL0     O94124   1.045   6.345   8.738 -0.2091  0.7700  0.7527
  714MOL0     C94125   1.035   6.201   8.767 -1.1874 -0.2019 -0.6991
  714MOL0     C94126   1.172   6.140   8.767  0.3162 -0.1947  0.0779
  714MOL0     C94127   1.219   6.114   8.619 -0.0813  0.1884  0.1296
  714MOL0     C94128   1.321   5.999   8.610 -0.6978  0.0246 -0.0094
  714MOL0     C94129   1.366   5.972   8.463  0.0624 -0.3065 -0.0928
  714MOL0     C94130   1.468   5.857   8.445 -0.0606 -0.0472  0.2918
  714MOL0     C94131   1.474   5.821   8.300 -0.3918  0.5801  0.0710
  714MOL0     C94132   1.464   5.934   8.196 -0.1414 -0.1999 -0.1182
  714MOL0     N94133   1.483   5.882   8.063  0.4431 -0.3237  0.6399
  714MOL0     C94134   1.601   5.875   7.998 -0.2119 -0.2250  0.2499
  714MOL0     C94135   1.564   5.845   7.865  0.5222 -0.4192 -1.1110
  714MOL0     C94136   1.652   5.841   7.745 -0.0639 -0.1651 -0.4655
  714MOL0     C94137   1.595   5.934   7.647  0.6198 -0.6351 -0.3420
  714MOL0     C94138   1.509   5.875   7.531 -0.0250 -0.4265 -0.2333
  714MOL0     C94139   1.593   5.822   7.423  0.4993  0.8777  0.1189
  714MOL0     O94140   1.506   5.806   7.310 -0.5246 -0.3142 -0.1055
  714MOL0     C94141   1.561   5.794   7.181 -0.3289 -1.0740 -0.3589
  714MOL0     C94142   1.483   5.800   7.071  1.0486  0.2083  0.5043
  714MOL0     C94143   1.533   5.772   6.946 -1.0983 -0.2486  0.8149
  714MOL0     C94144   1.667   5.739   6.925  0.4797  0.7508  0.6787
  714MOL0     C94145   1.725   5.717   6.790  0.8829 -0.0383  0.1176
  714MOL0     O94146   1.844   5.763   6.769 -0.9464  0.0870 -0.1303
  714MOL0     C94147   1.891   5.767   6.632  0.3910 -0.1336  0.4023
  714MOL0     C94148   1.872   5.881   6.549  0.7829  0.2399  0.3048
  714MOL0     C94149   1.885   5.873   6.409 -0.2058 -0.6316  0.2245
  714MOL0     C94150   1.934   5.751   6.359 -0.6400  0.7606  0.3058
  714MOL0     O94151   1.951   5.742   6.226 -0.4308  0.1482  0.1678
  714MOL0     C94152   2.089   5.749   6.193 -0.8757 -0.7506  0.6188
  714MOL0     C94153   2.106   5.799   6.046  0.5799  0.9908  0.1588
  714MOL0     C94154   2.251   5.819   6.001  0.2803 -0.0153  0.1797
  714MOL0     C94155   2.281   5.966   6.036 -0.0576 -0.0149  0.3377
  714MOL0     C94156   2.423   5.980   5.977 -0.5739 -0.8936  0.0720
  714MOL0     C94157   2.463   6.125   5.939  0.7624 -0.4370 -0.5879
  714MOL0     C94158   2.447   6.234   6.040 -1.0594  0.8419 -0.1087
  714MOL0     C94159   2.516   6.358   5.988 -0.5047 -0.6204  0.0706
  714MOL0    Cl94160   2.692   6.340   5.944 -0.4417  0.0899 -0.5210
  714MOL0     C94161   1.975   5.640   6.437  0.3599 -0.6658 -0.2880
  714MOL0     C94162   1.956   5.653   6.575 -0.0585 -0.4503  0.4919
  714MOL0     O94163   1.646   5.677   6.706  0.4636 -0.0731 -0.0866
  714MOL0     C94164   1.750   5.731   7.040  0.5065 -0.2983 -0.1614
  714MOL0     C94165   1.697   5.767   7.160 -0.4041 -0.4013 -0.0277
  714MOL0     N94166   1.428   5.837   7.859  0.6090 -0.2591 -0.6549
  714MOL0     N94167   1.382   5.865   7.976  0.5289  0.0383 -0.3839
  714MOL0     C94168   0.964   6.538   8.850 -0.3941 -0.2168 -0.8267
  714MOL0     C94169   0.855   6.624   8.881 -1.0173  0.0770  0.6388
  714MOL0     C94170   0.467   6.838   8.774 -0.2565  0.6786 -0.1332
  714MOL0     C94171   0.419   6.926   8.669 -0.3594  0.0696 -0.6910
  714MOL0     C94172   0.304   7.012   8.679  0.0274 -0.0825  0.4514
  714MOL0     C94173   0.242   7.018   8.802 -0.6083 -0.6800 -0.1581
  714MOL0     O94174   0.140   7.104   8.829  0.7553  0.6192  0.0700
  714MOL0     C94175   0.159   7.196   8.940 -0.5524 -0.2205 -0.3876
  714MOL0     C94176   0.277   7.286   8.924 -0.4355 -0.7387  0.2440
  714MOL0     C94177   0.276   7.383   8.808 -0.5517 -1.0389  0.5950
  714MOL0     C94178   0.151   7.452   8.783  0.3538  0.0294  0.4049
  714MOL0     C94179   0.109   7.556   8.881 -0.6840 -0.1755  0.3665
  714MOL0     C94180   0.073   7.636   8.963 -0.5483 -0.1967  0.3913
  714MOL0     C94181   0.277   6.927   8.901  0.0581  1.0793 -1.4399
  714MOL0     C94182   0.386   6.840   8.890 -0.5331 -0.3036  0.5878
  714MOL0     H94183   0.600   6.451   8.751  0.8806  0.8502 -2.5464
  714MOL0     H94184   0.781   6.288   8.718 -1.0349 -2.5514  5.7346
  714MOL0     H94185   0.967   6.164   8.691 -0.6132 -0.7445 -0.9599
  714MOL0     H94186   0.984   6.186   8.863 -0.3121  0.1707 -0.1547
  714MOL0     H94187   1.155   6.047   8.822  1.1659 -0.2221  0.3015
  714MOL0     H94188   1.245   6.199   8.823 -1.6808 -0.2728  3.0237
  714MOL0     H94189   1.276   6.205   8.596  2.2777 -0.7168  2.0020
  714MOL0     H94190   1.132   6.100   8.554  1.9153  0.6659 -2.8747
  714MOL0     H94191   1.401   6.034   8.675 -2.0527  1.2030  1.0864
  714MOL0     H94192   1.275   5.911   8.657 -2.9074  1.2234  0.1999
  714MOL0     H94193   1.402   6.062   8.413  1.1946  0.5719  2.1764
  714MOL0     H94194   1.282   5.944   8.399  0.8616 -1.3811 -0.6901
  714MOL0     H94195   1.435   5.770   8.503 -0.7347 -0.5259 -0.7765
  714MOL0     H94196   1.570   5.891   8.466  0.1344  1.0750 -2.1161
  714MOL0     H94197   1.572   5.772   8.303 -0.2335  0.9369  1.7261
  714MOL0     H94198   1.391   5.749   8.292 -1.7964  2.1812 -0.4218
  714MOL0     H94199   1.533   6.019   8.205 -3.5934  2.8446 -0.1664
  714MOL0     H94200   1.362   5.969   8.209 -0.1476  0.8550 -2.5601
  714MOL0     H94201   1.702   5.887   8.036  0.1946  0.1941 -0.9131
  714MOL0     H94202   1.653   5.739   7.704 -4.1852  0.2013 -1.9603
  714MOL0     H94203   1.747   5.864   7.794 -0.7358  1.5092  0.1155
  714MOL0     H94204   1.669   6.006   7.611 -1.9424  1.0534 -2.6800
  714MOL0     H94205   1.519   6.001   7.689 -0.6815 -1.9765 -0.4958
  714MOL0     H94206   1.453   5.789   7.569  1.1639 -1.7738 -1.3974
  714MOL0     H94207   1.444   5.959   7.505 -3.6197 -3.3497 -1.6895
  714MOL0     H94208   1.637   5.724   7.442 -2.3905 -1.2863 -3.0129
  714MOL0     H94209   1.669   5.896   7.397 -0.4557  1.0631 -2.4550
  714MOL0     H94210   1.376   5.808   7.089  0.7203  2.3445 -1.8733
  714MOL0     H94211   1.460   5.770   6.865  0.6212 -1.0221 -0.7938
  714MOL0     H94212   1.858   5.977   6.598  2.5101  1.5533 -1.6405
  714MOL0     H94213   1.863   5.960   6.347 -1.1861 -1.1991 -0.2513
  714MOL0     H94214   2.127   5.648   6.207  0.1464 -0.8208 -2.1415
  714MOL0     H94215   2.140   5.811   6.268 -0.2436  1.4171 -1.4700
  714MOL0     H94216   2.059   5.898   6.036 -0.1655  0.8124  1.5701
  714MOL0     H94217   2.053   5.725   5.985  0.1226  2.5938 -1.4619
  714MOL0     H94218   2.262   5.806   5.893  0.3535  1.8556 -0.0771
  714MOL0     H94219   2.323   5.756   6.053  0.4155 -0.5676 -0.6651
  714MOL0     H94220   2.224   6.039   5.978  1.0676  1.8516  1.4803
  714MOL0     H94221   2.277   6.003   6.139  1.8742  2.6189 -0.4195
  714MOL0     H94222   2.451   5.935   5.881  2.0645  3.3837 -1.4115
  714MOL0     H94223   2.486   5.944   6.058  0.3791 -0.0278 -0.2803
  714MOL0     H94224   2.401   6.165   5.858 -1.8928  0.9046  1.9107
  714MOL0     H94225   2.569   6.127   5.915  0.9053 -3.4384 -0.5854
  714MOL0     H94226   2.342   6.261   6.059 -0.6419  2.2741  0.2805
  714MOL0     H94227   2.476   6.197   6.138 -3.0074 -0.5740 -0.0004
  714MOL0     H94228   2.518   6.429   6.071  1.9246 -1.3967  0.7729
  714MOL0     H94229   2.455   6.390   5.903 -3.3395 -2.0914  1.4066
  714MOL0     H94230   2.012   5.546   6.398  1.7671  0.0356 -0.7513
  714MOL0     H94231   1.982   5.571   6.641  0.3788  0.4438  1.4504
  714MOL0     H94232   1.851   5.697   7.021  0.6083 -2.7982  3.7968
  714MOL0     H94233   1.765   5.749   7.243 -2.2382  4.6527  3.0477
  714MOL0     H94234   1.060   6.569   8.890 -1.2880  0.1380  1.1172
  714MOL0     H94235   0.875   6.711   8.943  1.5426 -1.0602  1.5309
  714MOL0     H94236   0.474   6.914   8.576  0.0596 -1.9260 -0.2213
  714MOL0     H94237   0.268   7.079   8.601  0.1671 -1.5890 -0.9621
  714MOL0     H94238   0.176   7.138   9.032  1.1795 -1.7522 -1.5893
  714MOL0     H94239   0.070   7.258   8.952 -1.0276 -0.8553 -0.5619
  714MOL0     H94240   0.303   7.345   9.012  1.5197 -0.2065 -0.6475
  714MOL0     H94241   0.370   7.230   8.913 -0.3082 -0.2087 -2.0751
  714MOL0     H94242   0.304   7.325   8.719  1.5456 -0.6639  0.9524
  714MOL0     H94243   0.357   7.454   8.826 -2.0487  0.7962  0.4635
  714MOL0     H94244   0.167   7.492   8.682  4.3478 -1.0552  0.4454
  714MOL0     H94245   0.068   7.381   8.789  2.0741 -1.9794  1.6249
  714MOL0     H94246   0.022   7.712   9.018  3.9587  2.8067  0.9015
  714MOL0     H94247   0.217   6.902   8.988  3.1317 -3.2086 -0.2597
  714MOL0     H94248   0.420   6.780   8.974  0.8196 -0.7743 -0.2622
  715MOL0     O94249   8.078  10.106   2.851 -0.5698 -0.8040 -0.2563
  715MOL0     C94250   8.144  10.095   2.747  0.1674 -0.1984 -0.0207
  715MOL0     O94251   8.127  10.173   2.637 -0.2626  0.3394 -0.3414
  715MOL0     C94252   8.023  10.263   2.633 -0.0227  0.0708  0.2251
  715MOL0     C94253   7.986  10.357   2.724 -0.3877  0.4907  0.1274
  715MOL0     C94254   7.874  10.438   2.721 -0.1509 -0.3083  0.7105
  715MOL0     C94255   7.789  10.432   2.610  0.6011 -0.0940  0.8708
  715MOL0     O94256   7.667  10.494   2.598 -0.0108 -0.5730 -0.1300
  715MOL0     C94257   7.646  10.602   2.691 -1.1031  0.0454 -0.1425
  715MOL0     C94258   7.521  10.681   2.674  0.5558 -0.3241 -0.4244
  715MOL0     C94259   7.389  10.596   2.684 -0.4419  0.1106 -0.7062
  715MOL0     C94260   7.269  10.695   2.674  0.8622 -0.0795 -0.1564
  715MOL0     C94261   7.147  10.608   2.673  0.0102 -0.0747 -0.3246
  715MOL0     C94262   7.030  10.699   2.654 -0.8950 -0.1983  0.6873
  715MOL0     C94263   6.907  10.608   2.675  1.0078  0.6023 -0.3590
  715MOL0     C94264   6.784  10.701   2.701  1.0197  0.3943  0.0624
  715MOL0     N94265   6.678  10.630   2.766  0.0291  0.1699 -0.9925
  715MOL0     C94266   6.599  10.541   2.710 -0.2977  0.6781 -0.1580
  715MOL0     C94267   6.522  10.501   2.811 -0.8067 -0.6744  0.0828
  715MOL0     C94268   6.415  10.401   2.804  0.0504 -0.1008  0.4579
  715MOL0     C94269   6.434  10.296   2.904 -0.9228 -0.0038  0.1309
  715MOL0     C94270   6.385  10.324   3.053 -0.7406 -1.1202  0.1184
  715MOL0     C94271   6.277  10.228   3.101 -0.5270  0.3892 -0.0604
  715MOL0     O94272   6.327  10.094   3.101  0.4138 -0.3843  0.4846
  715MOL0     C94273   6.241   9.985   3.079 -0.0790 -1.2857  0.1898
  715MOL0     C94274   6.109   9.997   3.085  0.4811  0.0105 -0.3106
  715MOL0     C94275   6.027   9.890   3.063  0.5964 -0.2281  1.0179
  715MOL0     C94276   6.082   9.770   3.027  0.4362 -0.2504 -0.8262
  715MOL0     C94277   5.987   9.658   3.015  0.0430  0.9246  0.1131
  715MOL0     O94278   5.871   9.668   3.090  0.5348  0.8813  0.3409
  715MOL0     C94279   5.766   9.591   3.051  0.5369  0.3407 -1.0549
  715MOL0     C94280   5.729   9.482   3.134 -0.0660  0.4551  0.1984
  715MOL0     C94281   5.608   9.423   3.100  0.6611  0.7401  0.2948
  715MOL0     C94282   5.527   9.444   2.985  0.7177 -0.3568 -0.3599
  715MOL0     O94283   5.409   9.370   2.966 -0.2014  0.0967 -0.3533
  715MOL0     C94284   5.314   9.417   2.876  0.5682  0.2436 -0.0744
  715MOL0     C94285   5.291   9.305   2.760 -0.3570 -0.5238 -0.3947
  715MOL0     C94286   5.243   9.172   2.822  0.6411 -0.7951  1.1609
  715MOL0     C94287   5.209   9.069   2.721  0.6807 -1.0823 -0.1871
  715MOL0     C94288   5.208   8.927   2.777 -0.1462  1.4418 -0.0991
  715MOL0     C94289   5.177   8.828   2.666 -0.1406 -0.3519  0.1676
  715MOL0     C94290   5.183   8.682   2.705  0.8493 -0.3905  0.9137
  715MOL0     C94291   5.237   8.593   2.585  0.3786  0.2828 -0.8098
  715MOL0    Cl94292   5.132   8.599   2.432  0.1515 -0.0773 -0.3253
  715MOL0     C94293   5.584   9.540   2.896 -0.2371  0.7740  1.4557
  715MOL0     C94294   5.695   9.605   2.928 -0.0027  0.3240  0.4566
  715MOL0     O94295   6.012   9.565   2.935 -0.7835 -0.2698 -0.1558
  715MOL0     C94296   6.225   9.767   3.002 -0.1919  0.1151 -0.6029
  715MOL0     C94297   6.306   9.876   3.032  0.5676  0.7708  0.4983
  715MOL0     N94298   6.547  10.574   2.930 -0.9137  0.2049  0.2389
  715MOL0     N94299   6.627  10.667   2.891 -0.3501  0.9013  0.4013
  715MOL0     C94300   7.822  10.331   2.510 -0.2042 -0.3535  0.2874
  715MOL0     C94301   7.936  10.252   2.522  0.8428  0.6549  0.2100
  715MOL0     C94302   8.257  10.000   2.736  0.8660 -0.0134 -0.6903
  715MOL0     C94303   8.279   9.907   2.844 -0.1421 -0.4164  0.6961
  715MOL0     C94304   8.388   9.828   2.840  0.3938 -0.6271  0.0065
  715MOL0     C94305   8.471   9.827   2.722 -0.2631  0.4198 -0.2999
  715MOL0     O94306   8.574   9.735   2.733  0.7022  0.8457  0.2658
  715MOL0     C94307   8.649   9.702   2.614  0.3428 -0.6410  1.3839
  715MOL0     C94308   8.746   9.601   2.665 -0.3599 -0.4285  0.7124
  715MOL0     C94309   8.872   9.675   2.724  0.2169  0.4350  1.1035
  715MOL0     C94310   8.947   9.590   2.820  0.5738  0.2402  0.0239
  715MOL0     C94311   8.944   9.445   2.799 -0.2955 -0.1450 -0.3547
  715MOL0     C94312   8.940   9.324   2.766 -0.1883  0.4959 -0.1092
  715MOL0     C94313   8.438   9.907   2.615  0.3968 -0.2584  0.7557
  715MOL0     C94314   8.337   9.999   2.621  0.6850  0.8734 -0.5682
  715MOL0     H94315   8.055  10.376   2.806 -0.9193  0.2374  0.6401
  715MOL0     H94316   7.850  10.512   2.797 -1.8683  0.9417 -0.9669
  715MOL0     H94317   7.732  10.667   2.675 -1.3318  0.0635 -1.3716
  715MOL0     H94318   7.644  10.559   2.791  2.6047 -1.0441 -0.3725
  715MOL0     H94319   7.516  10.736   2.580 -0.6131  0.3379  0.0020
  715MOL0     H94320   7.523  10.754   2.756  2.5185 -0.0020 -0.7083
  715MOL0     H94321   7.388  10.549   2.783  1.7436  2.3342  0.4733
  715MOL0     H94322   7.390  10.521   2.605 -0.2929  1.0159 -1.5921
  715MOL0     H94323   7.255  10.761   2.760 -3.0392 -1.4198  0.4197
  715MOL0     H94324   7.273  10.757   2.584  0.2035 -0.4042 -0.4119
  715MOL0     H94325   7.142  10.545   2.762 -0.2532  2.7285  1.8009
  715MOL0     H94326   7.160  10.557   2.577 -0.4071  1.1446 -1.0532
  715MOL0     H94327   7.028  10.748   2.556 -1.6916  1.6144  1.5694
  715MOL0     H94328   7.039  10.782   2.724 -0.1753 -2.4718  3.4461
  715MOL0     H94329   6.883  10.547   2.588  0.3048 -0.8481  0.8089
  715MOL0     H94330   6.922  10.545   2.763  0.9129  2.0952  0.7849
  715MOL0     H94331   6.737  10.728   2.607 -1.9934  0.2168  1.3918
  715MOL0     H94332   6.816  10.796   2.744  0.7023 -0.0553  1.3493
  715MOL0     H94333   6.600  10.500   2.610  3.5226  0.9259 -0.3826
  715MOL0     H94334   6.414  10.362   2.702  0.3892  1.2516 -0.0876
  715MOL0     H94335   6.322  10.455   2.823 -1.5929 -1.7706 -2.2206
  715MOL0     H94336   6.537  10.261   2.910 -0.8558 -0.1667 -1.6614
  715MOL0     H94337   6.373  10.211   2.872  1.7467 -1.9348 -0.0717
  715MOL0     H94338   6.477  10.316   3.111  0.3317  3.9288 -0.4054
  715MOL0     H94339   6.354  10.428   3.068 -2.0665 -1.6921  1.6338
  715MOL0     H94340   6.200  10.239   3.025  1.0287 -0.4352 -1.8382
  715MOL0     H94341   6.244  10.256   3.201  1.3185 -1.8423  1.2738
  715MOL0     H94342   6.055  10.087   3.111 -1.0842 -1.1287  0.4996
  715MOL0     H94343   5.919   9.895   3.078  0.5252  0.2594  0.3535
  715MOL0     H94344   5.796   9.455   3.214  3.6503  1.2389 -2.3665
  715MOL0     H94345   5.564   9.347   3.164  1.1489 -0.5858 -0.8881
  715MOL0     H94346   5.351   9.506   2.824 -0.2024 -0.4757 -1.9618
  715MOL0     H94347   5.220   9.433   2.931 -0.0331 -4.0282  0.5078
  715MOL0     H94348   5.388   9.279   2.717 -0.2090 -2.9321  1.1825
  715MOL0     H94349   5.220   9.337   2.683 -0.3886 -0.1204 -0.2015
  715MOL0     H94350   5.154   9.194   2.881 -0.5703  2.6616 -1.5965
  715MOL0     H94351   5.329   9.137   2.879  0.9809  2.2169  2.7181
  715MOL0     H94352   5.109   9.084   2.680 -0.3035 -0.8830  2.1492
  715MOL0     H94353   5.282   9.066   2.639 -1.8531  0.9800 -2.7242
  715MOL0     H94354   5.130   8.916   2.853  0.3349  1.9222  0.4697
  715MOL0     H94355   5.304   8.898   2.820 -1.0979 -0.2803  0.9475
  715MOL0     H94356   5.249   8.848   2.585 -1.1269  4.0378  0.1506
  715MOL0     H94357   5.077   8.856   2.632  0.0662 -0.7607 -0.8420
  715MOL0     H94358   5.251   8.678   2.790 -0.7776  3.8366  2.6989
  715MOL0     H94359   5.080   8.662   2.736  0.1153 -0.8209 -1.5667
  715MOL0     H94360   5.242   8.486   2.609  0.4700 -0.3953 -3.5615
  715MOL0     H94361   5.340   8.621   2.561  0.0970  1.3773 -0.8086
  715MOL0     H94362   5.544   9.572   2.800  0.8654  0.3794  0.8454
  715MOL0     H94363   5.730   9.682   2.860 -0.6403  1.9223  1.8495
  715MOL0     H94364   6.273   9.672   2.983 -4.1350 -1.7961 -2.1621
  715MOL0     H94365   6.414   9.886   3.027  0.5602  0.7464  0.3089
  715MOL0     H94366   7.750  10.303   2.433  1.1217 -0.4740 -0.9661
  715MOL0     H94367   7.967  10.189   2.439  0.4768  1.6889 -0.7354
  715MOL0     H94368   8.203   9.909   2.922 -0.7888 -0.3304  0.0684
  715MOL0     H94369   8.405   9.773   2.932 -0.4306  1.2152  1.3241
  715MOL0     H94370   8.704   9.782   2.566 -0.1001  0.6305  2.9067
  715MOL0     H94371   8.577   9.648   2.551  0.9341  0.5667 -0.3951
  715MOL0     H94372   8.706   9.524   2.732 -2.2206 -1.2858 -1.2587
  715MOL0     H94373   8.779   9.542   2.579 -1.2593 -0.3692  0.3119
  715MOL0     H94374   8.827   9.766   2.766 -1.0485 -1.5998  4.5219
  715MOL0     H94375   8.949   9.703   2.651 -0.3598  2.6386  1.2539
  715MOL0     H94376   9.054   9.612   2.819  0.5681  0.2674 -0.5511
  715MOL0     H94377   8.910   9.620   2.918  0.4154 -1.3507  0.4809
  715MOL0     H94378   8.938   9.222   2.733 -2.4901  0.6882 -0.7606
  715MOL0     H94379   8.510   9.903   2.534  0.4398 -1.4876  0.8480
  715MOL0     H94380   8.335  10.087   2.557  4.9046  2.4967  1.1673
  716MOL0     O94381   0.379   1.453   6.525  0.2225  0.1557  0.1010
  716MOL0     C94382   0.264   1.481   6.569  0.4094 -0.0620 -0.0261
  716MOL0     O94383   0.155   1.396   6.553 -0.3353 -0.1018 -0.3230
  716MOL0     C94384   0.181   1.270   6.515  0.3297  0.1928 -0.1914
  716MOL0     C94385   0.265   1.192   6.593  0.2413  0.3821 -0.4636
  716MOL0     C94386   0.309   1.068   6.555  0.6114 -0.3887  1.1419
  716MOL0     C94387   0.250   1.010   6.441 -0.1839 -0.3551 -0.4489
  716MOL0     O94388   0.277   0.880   6.416 -0.2884  0.4285 -0.1241
  716MOL0     C94389   0.406   0.847   6.357  0.5392 -0.1631  0.4197
  716MOL0     C94390   0.373   0.733   6.265 -0.7891  0.0306 -1.1989
  716MOL0     C94391   0.463   0.729   6.134  1.2696  0.6345 -0.3988
  716MOL0     C94392   0.388   0.655   6.022 -0.6822  0.5131 -0.0179
  716MOL0     C94393   0.453   0.684   5.887  0.3332  0.3831 -0.2960
  716MOL0     C94394   0.364   0.625   5.779  1.1464  0.2746  0.8360
  716MOL0     C94395   0.236   0.720   5.749 -0.2373  0.0548  0.3214
  716MOL0     C94396   0.277   0.835   5.654  0.1602  0.1705  0.2167
  716MOL0     N94397   0.150   0.895   5.611  0.0740  1.0972 -0.2779
  716MOL0     C94398   0.088   0.877   5.487 -0.5627 -0.0658  0.2195
  716MOL0     C94399  -0.043   0.920   5.506 -0.0270  0.8827 -0.6008
  716MOL0     C94400  -0.154   0.897   5.416 -0.0145 -0.6921 -0.1068
  716MOL0     C94401  -0.179   1.029   5.333 -0.1921  0.6834  0.7596
  716MOL0     C94402  -0.282   1.128   5.391  0.6923 -0.3721  0.3554
  716MOL0     C94403  -0.426   1.079   5.378  0.6832 -0.6061 -0.4309
  716MOL0     O94404  -0.486   1.165   5.282  0.5106 -0.9609 -0.2661
  716MOL0     C94405  -0.533   1.290   5.311  0.4263 -0.3725  0.2039
  716MOL0     C94406  -0.601   1.368   5.220  0.2324  0.3711  0.5859
  716MOL0     C94407  -0.643   1.493   5.248  0.6639 -0.1542 -0.5086
  716MOL0     C94408  -0.610   1.563   5.365 -0.1044 -0.3849 -0.8758
  716MOL0     C94409  -0.636   1.707   5.383 -0.8552 -0.3293  0.2524
  716MOL0     O94410  -0.617   1.752   5.513  0.1254 -1.2042 -0.7716
  716MOL0     C94411  -0.630   1.886   5.532 -0.3138 -0.3401  0.4336
  716MOL0     C94412  -0.758   1.933   5.566  0.9396 -0.0724  0.0630
  716MOL0     C94413  -0.784   2.074   5.578 -0.1417 -0.4363  0.1118
  716MOL0     C94414  -0.680   2.161   5.547  0.2666  0.3885 -0.9663
  716MOL0     O94415  -0.701   2.296   5.569 -0.2311 -0.6255 -0.0594
  716MOL0     C94416  -0.584   2.377   5.584  0.4399  0.1864 -0.6030
  716MOL0     C94417  -0.608   2.497   5.682 -0.8491  0.0526 -0.0170
  716MOL0     C94418  -0.698   2.606   5.633  0.3861 -0.1630  0.6634
  716MOL0     C94419  -0.847   2.576   5.646  0.8487 -0.7965  0.6940
  716MOL0     C94420  -0.934   2.679   5.579 -0.0979  0.1804 -0.5381
  716MOL0     C94421  -1.054   2.624   5.501 -0.3999 -0.1811 -0.7648
  716MOL0     C94422  -1.118   2.745   5.424  0.1126  0.0073 -0.0545
  716MOL0     C94423  -1.255   2.707   5.374  1.0411 -0.8092 -0.1060
  716MOL0    Cl94424  -1.343   2.850   5.302  0.2857 -0.0597 -0.2802
  716MOL0     C94425  -0.555   2.111   5.510 -0.2801  0.5740 -0.3279
  716MOL0     C94426  -0.525   1.975   5.505 -0.3643  0.4409  0.4890
  716MOL0     O94427  -0.684   1.776   5.293  0.1346  1.0340 -0.6788
  716MOL0     C94428  -0.537   1.497   5.460  0.4603  1.0896 -1.1900
  716MOL0     C94429  -0.501   1.359   5.437  0.5657 -0.2107  0.0569
  716MOL0     N94430  -0.046   0.970   5.630  0.5058 -0.2905  0.0919
  716MOL0     N94431   0.062   0.951   5.691  0.3447 -0.7653 -0.3641
  716MOL0     C94432   0.156   1.077   6.366 -0.6831  0.5737  1.0019
  716MOL0     C94433   0.122   1.209   6.402  0.3735  0.0203  1.0257
  716MOL0     C94434   0.240   1.601   6.649  1.0302  0.7864  0.1616
  716MOL0     C94435   0.117   1.625   6.717  0.3058 -0.0888  0.8806
  716MOL0     C94436   0.084   1.749   6.779  0.4403  0.8148  0.2256
  716MOL0     C94437   0.167   1.858   6.787  0.0173  0.4296  0.4201
  716MOL0     O94438   0.139   1.966   6.864  0.2223  1.1555 -0.2896
  716MOL0     C94439   0.177   1.935   6.997 -0.6820  0.2912 -0.3236
  716MOL0     C94440   0.086   2.015   7.081  0.3423  0.2761 -0.9381
  716MOL0     C94441   0.166   2.050   7.209  0.1404  0.5387  0.0198
  716MOL0     C94442   0.089   2.139   7.307  0.5056 -0.9312  0.6288
  716MOL0     C94443   0.074   2.266   7.235  0.1644  0.0327  0.2134
  716MOL0     C94444   0.071   2.377   7.191 -0.4043 -0.2171  0.6749
  716MOL0     C94445   0.287   1.831   6.724  0.5223  0.3005 -0.5082
  716MOL0     C94446   0.330   1.707   6.666 -0.1640 -0.5256 -0.2457
  716MOL0     H94447   0.320   1.230   6.678 -1.0770  1.6163 -0.1267
  716MOL0     H94448   0.393   1.020   6.604  3.9753  0.9179 -2.8087
  716MOL0     H94449   0.468   0.810   6.439 -1.4257  0.4019  2.2498
  716MOL0     H94450   0.447   0.936   6.308  3.1665  1.6660  5.2366
  716MOL0     H94451   0.268   0.756   6.240 -0.7375  0.5058 -0.9962
  716MOL0     H94452   0.369   0.645   6.329 -1.4449  0.5915 -0.4352
  716MOL0     H94453   0.548   0.668   6.166 -0.5904 -3.6546 -2.7917
  716MOL0     H94454   0.487   0.830   6.098  1.6779  2.1605  3.6592
  716MOL0     H94455   0.383   0.547   6.034  0.8821  0.0321 -2.7707
  716MOL0     H94456   0.283   0.683   6.017 -0.7728  0.3394 -5.2196
  716MOL0     H94457   0.553   0.638   5.888  0.7960  1.3659 -0.6239
  716MOL0     H94458   0.471   0.791   5.878 -0.0125  0.6714  1.8123
  716MOL0     H94459   0.336   0.521   5.798  3.3015 -0.3901  0.6754
  716MOL0     H94460   0.415   0.611   5.683 -2.8324 -1.6803 -1.2301
  716MOL0     H94461   0.165   0.660   5.691  1.7745 -1.1628 -0.9980
  716MOL0     H94462   0.179   0.746   5.839 -2.7150  2.2723 -1.7056
  716MOL0     H94463   0.341   0.789   5.578 -0.0692 -0.4846  0.4162
  716MOL0     H94464   0.348   0.898   5.709 -2.2822  1.1740  2.4093
  716MOL0     H94465   0.123   0.831   5.395 -2.1283  3.1241 -2.1982
  716MOL0     H94466  -0.236   0.881   5.486  0.7234  0.7367  1.1301
  716MOL0     H94467  -0.136   0.808   5.354 -0.5110 -0.3930 -0.6974
  716MOL0     H94468  -0.210   0.997   5.234  0.2924  0.3328  0.7173
  716MOL0     H94469  -0.087   1.087   5.318 -0.8636  1.8691  1.0879
  716MOL0     H94470  -0.261   1.136   5.498 -0.2121 -3.2785  0.8430
  716MOL0     H94471  -0.272   1.227   5.344 -1.7180 -0.7475 -1.1085
  716MOL0     H94472  -0.475   1.099   5.473  2.8532 -0.6241  0.7646
  716MOL0     H94473  -0.425   0.974   5.349  2.0846 -1.0752  1.1262
  716MOL0     H94474  -0.630   1.315   5.130  0.9138 -2.5652  1.9688
  716MOL0     H94475  -0.704   1.543   5.173 -0.1191  1.4429  1.1250
  716MOL0     H94476  -0.839   1.868   5.597  1.7303 -1.7758 -1.2956
  716MOL0     H94477  -0.887   2.098   5.602 -0.7245 -3.3859  0.9032
  716MOL0     H94478  -0.541   2.399   5.486  2.6901  0.8355  0.4684
  716MOL0     H94479  -0.516   2.315   5.643 -0.4834  0.6093  0.9520
  716MOL0     H94480  -0.510   2.546   5.684 -0.5396 -0.4295 -1.6256
  716MOL0     H94481  -0.636   2.466   5.783 -1.9612  1.3075  0.0846
  716MOL0     H94482  -0.686   2.628   5.526  0.8366  0.9344  0.9354
  716MOL0     H94483  -0.676   2.697   5.689  1.8915  0.1241 -0.3367
  716MOL0     H94484  -0.855   2.481   5.592  1.9897  0.9009 -2.7558
  716MOL0     H94485  -0.874   2.573   5.752 -4.0459 -1.6958 -0.3570
  716MOL0     H94486  -0.884   2.741   5.504 -1.1166  1.3375 -0.2930
  716MOL0     H94487  -0.976   2.747   5.654 -2.6322 -2.2355  0.3926
  716MOL0     H94488  -1.123   2.578   5.572  3.1499 -3.4794  0.9642
  716MOL0     H94489  -1.021   2.544   5.433  1.8556 -0.5239  0.6232
  716MOL0     H94490  -1.123   2.834   5.487 -0.7704  0.2748 -0.4884
  716MOL0     H94491  -1.049   2.766   5.342  0.9533  0.5871  0.7787
  716MOL0     H94492  -1.307   2.653   5.454  3.8172 -2.5208  0.7041
  716MOL0     H94493  -1.243   2.628   5.300  0.7368  0.4816 -1.5900
  716MOL0     H94494  -0.479   2.185   5.488  1.6347 -0.9416  0.8531
  716MOL0     H94495  -0.429   1.933   5.475 -1.0557  0.9284 -2.7114
  716MOL0     H94496  -0.514   1.549   5.552 -2.1033  0.0994  0.1007
  716MOL0     H94497  -0.448   1.314   5.520 -0.0809 -1.5067 -0.2110
  716MOL0     H94498   0.113   1.014   6.290  1.5709 -1.2464  1.1241
  716MOL0     H94499   0.059   1.269   6.337  2.8294 -0.4963 -2.0955
  716MOL0     H94500   0.053   1.537   6.715  2.0508 -1.3942 -0.0506
  716MOL0     H94501  -0.017   1.754   6.818  0.4867 -1.6625  0.8731
  716MOL0     H94502   0.280   1.970   7.001 -1.2923  2.0477  2.1929
  716MOL0     H94503   0.187   1.834   7.038  0.8090  0.5607  0.0251
  716MOL0     H94504   0.060   2.110   7.033 -2.5750  1.0962  1.9105
  716MOL0     H94505   0.000   1.950   7.103 -0.3275  0.5865 -2.5036
  716MOL0     H94506   0.254   2.105   7.175 -0.5704  1.6580 -0.0652
  716MOL0     H94507   0.191   1.962   7.268 -2.8143  0.5708  1.5321
  716MOL0     H94508  -0.017   2.112   7.314  0.7493 -2.3144 -0.5078
  716MOL0     H94509   0.139   2.158   7.402  0.3636 -1.3297  0.7852
  716MOL0     H94510   0.075   2.482   7.168 -2.8816 -0.5414 -1.7005
  716MOL0     H94511   0.356   1.914   6.722  2.6203 -1.3536 -2.6332
  716MOL0     H94512   0.424   1.695   6.614 -0.9784  0.7681 -2.1668
  717MOL0     O94513  10.736   9.677  10.452  0.3451 -0.2154  0.0399
  717MOL0     C94514  10.740   9.731  10.565 -0.2793  1.0116 -0.0017
  717MOL0     O94515  10.670   9.841  10.598 -0.2017  0.3578 -0.1252
  717MOL0     C94516  10.559   9.880  10.528 -0.4076 -0.1447 -0.3288
  717MOL0     C94517  10.476   9.804  10.437 -0.2831  0.2327  0.6741
  717MOL0     C94518  10.364   9.855  10.364 -0.9896 -0.2262 -1.3367
  717MOL0     C94519  10.340   9.995  10.372 -0.0671  0.3372  0.2015
  717MOL0     O94520  10.241  10.045  10.295  0.2651 -0.5063 -0.4991
  717MOL0     C94521  10.182  10.164  10.331  0.5858 -0.4373 -0.0254
  717MOL0     C94522  10.046  10.160  10.262 -1.0382 -0.1154  0.4336
  717MOL0     C94523   9.968  10.293  10.302 -0.6096 -0.0115  0.5338
  717MOL0     C94524   9.905  10.283  10.451 -0.8085  0.2896  1.3969
  717MOL0     C94525   9.860  10.417  10.507 -0.2052  0.5137 -0.1339
  717MOL0     C94526   9.804  10.395  10.643 -0.0977 -1.2918 -0.1209
  717MOL0     C94527   9.784  10.536  10.706  0.3644 -0.8757 -0.6031
  717MOL0     C94528   9.693  10.540  10.829 -0.1345 -0.5536 -0.2419
  717MOL0     N94529   9.701  10.659  10.911  0.2444 -1.5451 -0.1980
  717MOL0     C94530   9.785  10.681  11.017 -0.0546 -0.5634 -0.0691
  717MOL0     C94531   9.736  10.800  11.075  0.3605  0.9169  0.3683
  717MOL0     C94532   9.804  10.871  11.193 -0.1249 -0.9827 -0.2749
  717MOL0     C94533   9.767  10.832  11.337 -0.6098 -0.0320  0.2805
  717MOL0     C94534   9.830  10.935  11.441  0.2305 -0.4202 -0.6681
  717MOL0     C94535   9.745  10.949  11.566 -0.0571  1.2156  0.1750
  717MOL0     O94536   9.721  10.816  11.628 -0.2672 -0.0693 -0.8509
  717MOL0     C94537   9.745  10.787  11.761  0.5608  0.1257  0.2622
  717MOL0     C94538   9.739  10.649  11.798  0.5951 -0.5142 -0.5108
  717MOL0     C94539   9.775  10.606  11.925  0.5097  0.8496  0.8718
  717MOL0     C94540   9.815  10.700  12.025 -0.4818  0.4465  0.0703
  717MOL0     C94541   9.859  10.655  12.162 -0.5514  1.2571  0.7492
  717MOL0     O94542   9.815  10.736  12.255 -0.4726 -0.1513 -0.2774
  717MOL0     C94543   9.873  10.731  12.381  0.2647 -0.1795  0.9164
  717MOL0     C94544   9.792  10.794  12.481  0.7289 -0.0159  0.2187
  717MOL0     C94545   9.823  10.786  12.613  0.2692  0.0921  0.5273
  717MOL0     C94546   9.934  10.721  12.656 -0.8435 -0.1324  0.7192
  717MOL0     O94547   9.952  10.713  12.789 -0.1834 -0.0086 -0.3423
  717MOL0     C94548  10.042  10.629  12.853  0.3131  0.9995  0.8538
  717MOL0     C94549  10.055  10.651  13.006  0.0626  0.4093  0.4723
  717MOL0     C94550  10.114  10.784  13.031  0.4047 -0.3755 -0.1339
  717MOL0     C94551  10.134  10.819  13.173 -0.2059  0.1288  0.3364
  717MOL0     C94552  10.157  10.973  13.193 -1.7590 -0.0594 -0.0899
  717MOL0     C94553  10.304  11.020  13.155 -0.0249 -0.6420 -0.0308
  717MOL0     C94554  10.321  11.160  13.203 -0.4594  0.6166  0.0249
  717MOL0     C94555  10.409  11.241  13.113  0.7269  0.3151 -0.2511
  717MOL0    Cl94556  10.425  11.403  13.193 -0.1530 -0.4650 -0.2184
  717MOL0     C94557  10.029  10.674  12.557 -0.7302 -0.1283 -0.1734
  717MOL0     C94558  10.000  10.679  12.424 -0.2629 -0.6871  1.1625
  717MOL0     O94559   9.943  10.570  12.169 -0.0527  1.3910  0.4262
  717MOL0     C94560   9.809  10.838  11.995 -0.3565 -0.5356 -0.5299
  717MOL0     C94561   9.774  10.879  11.867 -0.3922  0.5157 -0.6621
  717MOL0     N94562   9.620  10.836  11.004  0.2776  0.0770  0.1901
  717MOL0     N94563   9.602  10.751  10.909 -0.4327 -0.4837  0.1727
  717MOL0     C94564  10.399  10.061  10.485  0.3768  0.0367  0.4429
  717MOL0     C94565  10.507  10.004  10.560 -0.3735 -0.0226  0.1647
  717MOL0     C94566  10.829   9.669  10.666  0.1731 -0.0811 -0.3197
  717MOL0     C94567  10.958   9.619  10.635  0.8498 -0.2138  0.4637
  717MOL0     C94568  11.043   9.569  10.730  0.1912 -0.2301 -0.1942
  717MOL0     C94569  11.003   9.557  10.861 -0.1479 -0.0428 -0.7114
  717MOL0     O94570  11.082   9.523  10.976 -0.1732  0.1803  0.5664
  717MOL0     C94571  11.206   9.465  10.943 -1.0530  0.8160 -1.2614
  717MOL0     C94572  11.253   9.376  11.063  0.2623  0.4953 -0.3343
  717MOL0     C94573  11.293   9.467  11.175 -0.0236  0.4886 -0.2145
  717MOL0     C94574  11.341   9.392  11.297 -1.0030  0.1674  0.3853
  717MOL0     C94575  11.381   9.479  11.400 -1.0572  0.5831 -0.1710
  717MOL0     C94576  11.417   9.551  11.490  0.2503  0.4555 -1.0630
  717MOL0     C94577  10.872   9.607  10.893 -0.6041 -0.2276 -0.4076
  717MOL0     C94578  10.791   9.670  10.796  0.5160  0.5773  0.3603
  717MOL0     H94579  10.497   9.699  10.421  1.9716  0.8806 -1.2395
  717MOL0     H94580  10.301   9.809  10.289  0.9929 -1.7653 -2.1532
  717MOL0     H94581  10.244  10.244  10.288 -1.6072  0.6572 -1.3661
  717MOL0     H94582  10.168  10.170  10.439  0.5112  0.1831 -0.0621
  717MOL0     H94583   9.994  10.072  10.299 -0.4905 -0.6934 -0.1448
  717MOL0     H94584  10.061  10.167  10.153 -2.2382  1.0037  0.3127
  717MOL0     H94585   9.887  10.314  10.232 -0.2070  0.6307  0.2531
  717MOL0     H94586  10.041  10.374  10.296  1.9895 -2.3144 -2.2730
  717MOL0     H94587   9.835  10.199  10.451  2.7068 -2.9453  0.9832
  717MOL0     H94588   9.981  10.249  10.523  0.7731  1.0092  0.1316
  717MOL0     H94589   9.779  10.456  10.445 -1.4880  1.1116  1.8071
  717MOL0     H94590   9.952  10.475  10.507  2.2030 -2.9939 -0.7205
  717MOL0     H94591   9.871  10.337  10.707  0.2818  1.4382  2.1186
  717MOL0     H94592   9.705  10.348  10.641 -0.4691 -0.5412 -2.6295
  717MOL0     H94593   9.879  10.573  10.747 -1.5735  2.3075  1.3959
  717MOL0     H94594   9.738  10.612  10.644  1.5351 -0.4790 -1.0141
  717MOL0     H94595   9.715  10.451  10.891  2.6611  0.3949  0.2934
  717MOL0     H94596   9.595  10.513  10.791  1.6402 -3.0176 -3.6011
  717MOL0     H94597   9.874  10.619  11.019  2.8621  3.1965 -1.5737
  717MOL0     H94598   9.787  10.978  11.179  2.9483 -0.6940 -2.7446
  717MOL0     H94599   9.910  10.848  11.186  0.2341 -0.2800  2.0385
  717MOL0     H94600   9.787  10.726  11.355 -3.8684 -0.4203  2.2553
  717MOL0     H94601   9.661  10.856  11.348 -0.5074 -0.2693  2.0030
  717MOL0     H94602   9.932  10.909  11.471  1.0510  3.2718  0.1860
  717MOL0     H94603   9.841  11.029  11.386  0.4252 -0.1871 -0.2346
  717MOL0     H94604   9.647  10.977  11.526  1.6250  2.7038 -3.3561
  717MOL0     H94605   9.780  11.023  11.638 -2.0571 -0.2471  2.8415
  717MOL0     H94606   9.730  10.571  11.723  1.5141 -1.4618  0.3259
  717MOL0     H94607   9.797  10.505  11.957  3.1015  1.2457  0.5658
  717MOL0     H94608   9.697  10.832  12.444  1.8850  0.7148 -2.2341
  717MOL0     H94609   9.745  10.820  12.681 -3.8886  1.3725 -4.2932
  717MOL0     H94610  10.145  10.642  12.817  1.1080 -0.0208  2.6229
  717MOL0     H94611  10.007  10.527  12.835  0.9957  0.6993  1.1912
  717MOL0     H94612  10.122  10.571  13.039 -2.5117 -1.0738  2.4432
  717MOL0     H94613   9.962  10.631  13.059  0.7324 -2.3727  0.7412
  717MOL0     H94614  10.037  10.851  12.991 -2.5741 -2.1148  2.2147
  717MOL0     H94615  10.211  10.816  12.992  2.3548 -0.5750  3.9498
  717MOL0     H94616  10.035  10.795  13.213 -1.5072  1.3766 -1.9132
  717MOL0     H94617  10.214  10.765  13.226 -0.0983 -0.2927 -0.2523
  717MOL0     H94618  10.143  11.001  13.298  1.7923 -1.8284  1.0362
  717MOL0     H94619  10.091  11.024  13.123 -2.2601 -2.6849 -1.6496
  717MOL0     H94620  10.300  11.017  13.045 -2.2363 -2.7436  0.0287
  717MOL0     H94621  10.379  10.952  13.195  1.6199  0.0829 -1.7214
  717MOL0     H94622  10.228  11.217  13.211 -0.4613  0.3878  2.4342
  717MOL0     H94623  10.361  11.145  13.304 -0.0902  0.1451 -0.1849
  717MOL0     H94624  10.364  11.248  13.014  2.0455  2.5879 -0.7457
  717MOL0     H94625  10.505  11.188  13.116 -0.5323 -2.1868  3.1992
  717MOL0     H94626  10.115  10.627  12.603 -1.4307  0.9462  2.3935
  717MOL0     H94627  10.062  10.635  12.347  0.0616  0.5029  0.7222
  717MOL0     H94628   9.829  10.914  12.071  0.3393  0.0166 -1.2491
  717MOL0     H94629   9.772  10.988  11.858 -1.7151  0.5375 -0.3546
  717MOL0     H94630  10.384  10.166  10.507 -1.5152  0.5258 -2.6001
  717MOL0     H94631  10.550  10.071  10.633  0.6135 -1.8446  1.3380
  717MOL0     H94632  10.992   9.603  10.534 -2.5166 -1.2628 -0.6586
  717MOL0     H94633  11.143   9.543  10.695  0.5709  2.8590 -1.8443
  717MOL0     H94634  11.283   9.541  10.926 -1.4114  1.4421 -0.1768
  717MOL0     H94635  11.213   9.397  10.857  1.2984 -0.3239 -0.2677
  717MOL0     H94636  11.169   9.314  11.094  0.8466 -1.5884 -2.6057
  717MOL0     H94637  11.326   9.312  11.013 -0.7210 -1.2174  0.3451
  717MOL0     H94638  11.217   9.536  11.214  1.0041  1.1030  0.7578
  717MOL0     H94639  11.377   9.528  11.140  0.1356 -0.7598 -2.1163
  717MOL0     H94640  11.264   9.326  11.339 -1.4111  0.0614 -0.5002
  717MOL0     H94641  11.427   9.330  11.272 -1.3107  0.1705 -0.7211
  717MOL0     H94642  11.449   9.611  11.573  2.6702 -1.4293 -0.5143
  717MOL0     H94643  10.846   9.590  10.997  1.9650 -5.1707 -0.2978
  717MOL0     H94644  10.693   9.709  10.822 -1.4908 -3.4381 -0.3504
  718MOL0     O94645   6.349   2.530  10.595  0.0285 -0.4572 -0.4072
  718MOL0     C94646   6.372   2.486  10.477  0.0776  0.8726 -0.7044
  718MOL0     O94647   6.496   2.462  10.426  0.2713  0.1420 -0.2384
  718MOL0     C94648   6.607   2.519  10.487 -1.3858  0.4125 -0.0935
  718MOL0     C94649   6.636   2.651  10.528  0.8345  0.2233 -0.1338
  718MOL0     C94650   6.747   2.679  10.602  0.1519  0.3446  0.0045
  718MOL0     C94651   6.850   2.590  10.606  0.3687 -0.0203 -0.4459
  718MOL0     O94652   6.970   2.629  10.657 -0.7508 -0.3921 -0.0829
  718MOL0     C94653   7.089   2.546  10.628 -0.3933 -0.7048 -0.0981
  718MOL0     C94654   7.208   2.631  10.687 -0.3902 -0.2851  0.3570
  718MOL0     C94655   7.181   2.636  10.834 -0.2423  0.1615 -0.7704
  718MOL0     C94656   7.294   2.699  10.916 -0.2018  0.2612  0.4994
  718MOL0     C94657   7.421   2.615  10.913 -0.1172 -0.4062 -0.4368
  718MOL0     C94658   7.530   2.690  11.000  0.6895  0.0994 -0.3896
  718MOL0     C94659   7.660   2.599  11.014  0.1256  0.1884 -0.3153
  718MOL0     C94660   7.651   2.464  11.082  0.5136 -0.6137 -0.9056
  718MOL0     N94661   7.578   2.472  11.214  0.6418  0.9206  0.3620
  718MOL0     C94662   7.620   2.527  11.332  0.1124 -0.2521 -0.1451
  718MOL0     C94663   7.513   2.498  11.415  0.3531 -0.0714 -0.0763
  718MOL0     C94664   7.514   2.526  11.557 -0.3740 -0.7695 -0.7117
  718MOL0     C94665   7.496   2.402  11.646  0.1349 -0.2423  0.1726
  718MOL0     C94666   7.468   2.453  11.795 -0.4904  0.0387 -0.1949
  718MOL0     C94667   7.560   2.571  11.853  0.8657  0.4439 -0.0974
  718MOL0     O94668   7.704   2.570  11.815 -0.1578  0.1907  0.4930
  718MOL0     C94669   7.793   2.496  11.886  0.0713  0.1971  0.1812
  718MOL0     C94670   7.808   2.359  11.866 -0.3549  0.1616  1.2318
  718MOL0     C94671   7.898   2.293  11.948 -0.4827  0.0664 -0.2029
  718MOL0     C94672   7.970   2.359  12.049  0.9022 -0.1870 -0.4322
  718MOL0     C94673   8.059   2.293  12.146 -0.2679  0.5312 -0.9306
  718MOL0     O94674   8.092   2.353  12.271 -0.1737  0.3926  0.1465
  718MOL0     C94675   8.191   2.304  12.346 -0.4969 -0.4448 -0.5843
  718MOL0     C94676   8.182   2.326  12.480  0.6380 -0.3632 -0.8055
  718MOL0     C94677   8.282   2.313  12.572 -0.6313 -0.5131 -0.6282
  718MOL0     C94678   8.403   2.244  12.534  0.0766 -0.8314  0.1751
  718MOL0     O94679   8.499   2.226  12.625  0.2827  0.2928 -0.1027
  718MOL0     C94680   8.636   2.197  12.586 -1.1335  1.2420 -0.5863
  718MOL0     C94681   8.688   2.311  12.497  0.3302 -0.4108  0.2061
  718MOL0     C94682   8.673   2.447  12.560 -0.2194 -1.4216 -1.0799
  718MOL0     C94683   8.759   2.472  12.677 -0.6127  0.6502  0.0375
  718MOL0     C94684   8.737   2.607  12.751  0.4898  0.7490  0.4520
  718MOL0     C94685   8.721   2.592  12.901 -0.3114 -0.0578 -0.3794
  718MOL0     C94686   8.582   2.531  12.943 -0.7842  0.4368  0.3826
  718MOL0     C94687   8.570   2.505  13.091  0.1922 -0.0164 -0.9778
  718MOL0    Cl94688   8.690   2.384  13.161 -0.3272 -0.2555 -0.0283
  718MOL0     C94689   8.404   2.217  12.396  0.9542  0.3889  0.7127
  718MOL0     C94690   8.307   2.250  12.303  0.1426  0.2624  0.0790
  718MOL0     O94691   8.102   2.184  12.115 -0.3211  0.8152 -0.1008
  718MOL0     C94692   7.946   2.497  12.070  0.1758 -0.1571 -0.1790
  718MOL0     C94693   7.861   2.568  11.980 -0.6553 -0.4779  0.1356
  718MOL0     N94694   7.406   2.436  11.340 -0.1675 -0.2325 -0.3756
  718MOL0     N94695   7.452   2.408  11.223 -0.7029 -0.0075  0.0291
  718MOL0     C94696   6.835   2.459  10.567  0.4940  0.9304 -0.0317
  718MOL0     C94697   6.711   2.426  10.508  0.2038 -0.9324  0.0615
  718MOL0     C94698   6.247   2.450  10.392 -0.4268 -0.2424 -0.6487
  718MOL0     C94699   6.115   2.441  10.442 -0.2131 -0.6520  0.0069
  718MOL0     C94700   6.006   2.399  10.373 -0.0489  0.2223  1.0139
  718MOL0     C94701   6.018   2.391  10.232 -0.7388  0.2637 -0.1909
  718MOL0     O94702   5.905   2.369  10.162  0.1512 -0.4607  0.7657
  718MOL0     C94703   5.883   2.249  10.083  0.5815 -0.2655  0.0153
  718MOL0     C94704   5.901   2.303   9.935  0.7087  0.5100  0.6009
  718MOL0     C94705   5.834   2.195   9.840  0.2397 -0.4949  0.6930
  718MOL0     C94706   5.867   2.224   9.691  0.2127  0.4400 -0.4719
  718MOL0     C94707   5.997   2.171   9.646 -0.3409 -0.3637 -0.7004
  718MOL0     C94708   6.111   2.126   9.631  0.3247 -0.6895  0.4958
  718MOL0     C94709   6.136   2.419  10.172 -0.0938  0.4836  0.6380
  718MOL0     C94710   6.248   2.440  10.255 -0.4171  0.7665  0.5909
  718MOL0     H94711   6.565   2.732  10.511 -1.7457 -1.5849  1.3702
  718MOL0     H94712   6.753   2.775  10.651 -3.4792  1.5669 -1.5778
  718MOL0     H94713   7.097   2.537  10.520 -3.8436 -1.2356 -0.4323
  718MOL0     H94714   7.077   2.446  10.671  2.6693 -0.0775  2.5951
  718MOL0     H94715   7.199   2.735  10.654  0.6390 -0.3613 -0.2034
  718MOL0     H94716   7.304   2.589  10.656  1.1079  0.5780  3.4525
  718MOL0     H94717   7.175   2.533  10.870 -0.3160 -1.0582 -3.9582
  718MOL0     H94718   7.088   2.691  10.850 -1.3182 -0.4874 -3.9970
  718MOL0     H94719   7.305   2.800  10.874  1.8875 -0.7811 -1.6485
  718MOL0     H94720   7.254   2.700  11.018 -0.7035 -2.6494  0.4042
  718MOL0     H94721   7.458   2.601  10.811 -0.8120  2.7049 -1.1956
  718MOL0     H94722   7.398   2.514  10.949 -1.0823 -0.1796 -0.3855
  718MOL0     H94723   7.469   2.699  11.090 -0.3602  1.1788 -1.1763
  718MOL0     H94724   7.552   2.791  10.964 -0.6993  1.4943  2.4075
  718MOL0     H94725   7.713   2.592  10.918  0.4299 -0.4019 -0.1037
  718MOL0     H94726   7.727   2.651  11.084  1.1641  0.2130 -1.2967
  718MOL0     H94727   7.756   2.432  11.088  0.2114 -2.1260 -2.7875
  718MOL0     H94728   7.594   2.388  11.027 -0.6810 -1.4773  1.4071
  718MOL0     H94729   7.717   2.574  11.348  0.3290 -0.9325  0.6543
  718MOL0     H94730   7.432   2.598  11.562  0.9971  0.8637 -0.8445
  718MOL0     H94731   7.609   2.575  11.581 -1.4580  1.1564 -0.1039
  718MOL0     H94732   7.584   2.338  11.640 -0.0584 -0.8626  2.6772
  718MOL0     H94733   7.407   2.350  11.610  0.0410  1.1394 -1.7008
  718MOL0     H94734   7.362   2.477  11.801 -0.7277 -1.3222  1.7557
  718MOL0     H94735   7.485   2.378  11.872  0.5931  3.7583  3.5173
  718MOL0     H94736   7.551   2.568  11.962 -1.3648  1.1702 -0.2168
  718MOL0     H94737   7.525   2.666  11.812 -0.1343  0.4834  0.8155
  718MOL0     H94738   7.765   2.317  11.775  0.6202  2.7290 -0.5321
  718MOL0     H94739   7.917   2.187  11.929 -0.8741  0.0419 -0.4639
  718MOL0     H94740   8.085   2.366  12.507  0.0777 -0.3097 -2.7414
  718MOL0     H94741   8.259   2.340  12.675 -0.2196 -1.5316 -0.2463
  718MOL0     H94742   8.639   2.099  12.537  0.8707 -0.3380  2.4506
  718MOL0     H94743   8.704   2.189  12.670  2.7957  2.8949 -3.2968
  718MOL0     H94744   8.633   2.321  12.403  0.9217  0.9910 -0.0116
  718MOL0     H94745   8.791   2.283  12.471 -0.5335 -3.0275 -0.7021
  718MOL0     H94746   8.567   2.474  12.572  0.5445  1.1141  1.0754
  718MOL0     H94747   8.691   2.527  12.488 -2.3095  1.0085  0.8453
  718MOL0     H94748   8.767   2.380  12.736  1.3659  1.0109  0.4141
  718MOL0     H94749   8.860   2.491  12.639 -1.0871  3.5123  0.0087
  718MOL0     H94750   8.651   2.654  12.704  1.8877  0.6450 -2.4201
  718MOL0     H94751   8.829   2.662  12.728  1.4121 -1.6789 -2.2818
  718MOL0     H94752   8.746   2.692  12.936  1.2602  0.5317 -2.8976
  718MOL0     H94753   8.793   2.521  12.943 -0.9170  0.0846  0.9635
  718MOL0     H94754   8.495   2.588  12.910 -1.0403  0.8510  1.7096
  718MOL0     H94755   8.569   2.438  12.887  0.9550 -1.0185  2.2242
  718MOL0     H94756   8.474   2.455  13.105  0.8691 -1.5128 -1.4413
  718MOL0     H94757   8.567   2.601  13.144 -0.0691 -1.5666  2.0573
  718MOL0     H94758   8.491   2.168  12.353 -0.3365  0.8600 -2.8358
  718MOL0     H94759   8.334   2.244  12.198 -0.2150  1.2647 -0.0860
  718MOL0     H94760   7.990   2.549  12.154 -1.0355  0.3397  0.1693
  718MOL0     H94761   7.864   2.677  11.974 -2.1000 -0.4894 -2.5389
  718MOL0     H94762   6.912   2.382  10.572  1.8313  2.2269  0.0519
  718MOL0     H94763   6.684   2.326  10.473  2.3923 -1.7637  0.6137
  718MOL0     H94764   6.096   2.463  10.546 -3.5553 -0.0677 -0.6185
  718MOL0     H94765   5.909   2.378  10.417 -0.4286 -1.8271 -0.6467
  718MOL0     H94766   5.779   2.219  10.096 -0.4712  3.0415  0.1448
  718MOL0     H94767   5.944   2.163  10.112 -0.9788 -1.9433 -1.4454
  718MOL0     H94768   5.854   2.402   9.927 -0.7757  0.0368  2.7169
  718MOL0     H94769   6.009   2.312   9.926  0.4976  1.0689 -3.4224
  718MOL0     H94770   5.728   2.213   9.863 -0.0137 -3.7066  2.6633
  718MOL0     H94771   5.856   2.090   9.863 -2.5310 -2.5549 -4.3988
  718MOL0     H94772   5.783   2.203   9.624 -1.8661  2.4083  1.3183
  718MOL0     H94773   5.887   2.331   9.681 -0.1176  0.4625 -0.9520
  718MOL0     H94774   6.208   2.088   9.605  0.6272  0.5434 -0.2621
  718MOL0     H94775   6.138   2.420  10.064 -2.6237  0.1418  0.5206
  718MOL0     H94776   6.342   2.451  10.202  1.0907 -0.2240  2.9069
  719MOL0     O94777   1.357   6.629   5.231 -1.0520  0.0154 -0.2628
  719MOL0     C94778   1.467   6.636   5.178 -0.2272 -0.5824  0.4264
  719MOL0     O94779   1.549   6.746   5.178 -0.0590 -0.6669 -0.1372
  719MOL0     C94780   1.518   6.868   5.230 -0.1562 -0.7845 -0.7648
  719MOL0     C94781   1.513   6.969   5.129 -0.0733  0.1093  0.2779
  719MOL0     C94782   1.502   7.102   5.162 -0.3869  0.0788  0.2973
  719MOL0     C94783   1.487   7.144   5.299 -0.0652  0.1097  0.5169
  719MOL0     O94784   1.506   7.279   5.331 -0.2450  0.3062  0.8053
  719MOL0     C94785   1.386   7.353   5.338 -0.4718 -0.5916 -0.3090
  719MOL0     C94786   1.291   7.349   5.207  0.6514  0.0546 -1.1568
  719MOL0     C94787   1.157   7.418   5.226 -0.2696 -0.6265  0.0644
  719MOL0     C94788   1.164   7.569   5.247  0.7689 -0.5932 -0.3418
  719MOL0     C94789   1.092   7.634   5.368  0.3021 -0.1135  0.7059
  719MOL0     C94790   1.134   7.585   5.501  0.8204  1.1881 -0.1940
  719MOL0     C94791   1.032   7.632   5.605  1.4069 -0.1009 -0.0600
  719MOL0     C94792   0.964   7.773   5.593 -0.5828 -1.2858 -0.6164
  719MOL0     N94793   0.943   7.828   5.731  0.8400  0.3860  0.1471
  719MOL0     C94794   0.850   7.774   5.811 -0.1032  0.0874  0.8808
  719MOL0     C94795   0.835   7.860   5.918 -0.1693 -0.0411 -0.0384
  719MOL0     C94796   0.745   7.853   6.035 -0.0741  0.1542  0.5713
  719MOL0     C94797   0.709   7.706   6.072 -0.7410 -0.6198 -0.4809
  719MOL0     C94798   0.829   7.619   6.105 -1.0794  0.0206  0.0578
  719MOL0     C94799   0.779   7.476   6.140 -0.0603  0.1912  1.0965
  719MOL0     O94800   0.719   7.407   6.024 -0.4880 -0.3582 -0.0950
  719MOL0     C94801   0.793   7.359   5.919 -0.0843 -0.7159  0.4548
  719MOL0     C94802   0.931   7.355   5.913 -0.6825  0.1926  0.4947
  719MOL0     C94803   1.000   7.313   5.794 -0.5642  0.0735 -0.0490
  719MOL0     C94804   0.923   7.273   5.679 -0.0693 -0.6148  0.2243
  719MOL0     C94805   0.999   7.223   5.558 -0.6902  0.2194  0.1879
  719MOL0     O94806   0.925   7.187   5.449  0.3490 -0.3769  0.2219
  719MOL0     C94807   0.974   7.125   5.332  0.0964  1.0430 -0.3423
  719MOL0     C94808   1.094   7.045   5.340  0.0147  0.1713  0.7663
  719MOL0     C94809   1.149   6.998   5.219 -0.4161 -0.3484  0.3477
  719MOL0     C94810   1.106   7.035   5.096  0.2404 -0.6671 -0.8292
  719MOL0     O94811   1.185   7.011   4.990 -0.4510  0.7113 -1.3811
  719MOL0     C94812   1.129   6.959   4.873  0.2760 -0.3280 -1.0291
  719MOL0     C94813   1.231   6.938   4.765  0.7511  0.4265  0.1253
  719MOL0     C94814   1.326   6.820   4.803  0.5714  0.0798 -0.0993
  719MOL0     C94815   1.456   6.835   4.722  0.6104  0.3955  0.8856
  719MOL0     C94816   1.554   6.724   4.731  1.1024  0.4902 -0.6854
  719MOL0     C94817   1.663   6.704   4.621  0.6668 -0.5116  0.3472
  719MOL0     C94818   1.775   6.807   4.620  0.1813  0.3309  0.7459
  719MOL0     C94819   1.830   6.848   4.752 -0.3709 -0.1955  0.5080
  719MOL0    Cl94820   1.949   6.982   4.741  0.5285  0.1116 -0.7218
  719MOL0     C94821   0.979   7.095   5.095 -0.0024  0.0121  0.2857
  719MOL0     C94822   0.909   7.128   5.215 -0.5119 -0.5410  0.6140
  719MOL0     O94823   1.121   7.227   5.564 -0.2142  0.3126  0.5986
  719MOL0     C94824   0.787   7.288   5.681  0.5329 -0.4073  0.5678
  719MOL0     C94825   0.727   7.334   5.795  0.4152  0.1816 -0.9001
  719MOL0     N94826   0.920   7.971   5.892  0.2335 -0.2206  0.0732
  719MOL0     N94827   0.964   7.956   5.770 -0.4348 -0.7071  0.3306
  719MOL0     C94828   1.479   7.039   5.391 -0.3810  0.2104  0.2470
  719MOL0     C94829   1.497   6.901   5.360 -0.4595  0.3857 -0.2628
  719MOL0     C94830   1.510   6.518   5.089 -0.8380  0.6628 -0.3196
  719MOL0     C94831   1.437   6.403   5.097 -0.3129  0.4042  0.6298
  719MOL0     C94832   1.480   6.297   5.011 -0.5800  0.0754  0.7057
  719MOL0     C94833   1.585   6.305   4.919 -0.2258 -0.1977 -0.1471
  719MOL0     O94834   1.615   6.200   4.844  0.9723  0.4049 -0.8507
  719MOL0     C94835   1.691   6.226   4.726  0.5045  0.4358  0.9200
  719MOL0     C94836   1.728   6.090   4.656  0.5687  0.0425 -0.0696
  719MOL0     C94837   1.782   6.134   4.522 -0.5587 -0.0324  0.5897
  719MOL0     C94838   1.858   6.022   4.438 -0.1463  0.1516  0.5099
  719MOL0     C94839   1.769   5.913   4.377  0.1530  0.1928  1.0485
  719MOL0     C94840   1.732   5.804   4.340  0.3155 -0.2940 -1.2991
  719MOL0     C94841   1.661   6.418   4.924  0.2741  0.2650 -0.4974
  719MOL0     C94842   1.621   6.529   4.999  0.2706  0.2256 -0.5091
  719MOL0     H94843   1.530   6.950   5.024 -3.4365 -3.6093  0.1723
  719MOL0     H94844   1.529   7.177   5.088  1.5537  0.7723  1.6157
  719MOL0     H94845   1.428   7.454   5.341  0.1534 -0.8690  1.6348
  719MOL0     H94846   1.343   7.323   5.434  2.9373 -1.2890  1.1512
  719MOL0     H94847   1.261   7.245   5.188  4.1745 -1.5531  1.0732
  719MOL0     H94848   1.349   7.382   5.121 -1.7566  0.3678 -2.7584
  719MOL0     H94849   1.116   7.366   5.313 -1.4328  3.7744  2.4367
  719MOL0     H94850   1.094   7.402   5.138 -1.3444  0.3436  0.6186
  719MOL0     H94851   1.265   7.608   5.258  0.9289 -1.0736 -0.0785
  719MOL0     H94852   1.112   7.610   5.159 -2.9636 -2.2026  0.9100
  719MOL0     H94853   0.989   7.602   5.351  0.0191  2.2931 -3.4548
  719MOL0     H94854   1.114   7.739   5.349  2.0924 -0.9082 -2.3202
  719MOL0     H94855   1.232   7.613   5.541  0.7495 -0.3137  1.1394
  719MOL0     H94856   1.129   7.476   5.503 -2.1775  1.2486  1.0967
  719MOL0     H94857   0.955   7.555   5.605 -0.5690  1.7734 -1.2157
  719MOL0     H94858   1.089   7.625   5.699  1.9668  0.9942 -0.2997
  719MOL0     H94859   0.872   7.764   5.535 -1.0322 -1.4411  0.1073
  719MOL0     H94860   1.034   7.835   5.536  0.3694 -1.1445  0.6794
  719MOL0     H94861   0.803   7.677   5.795  1.3766 -0.2409 -2.2036
  719MOL0     H94862   0.656   7.907   6.003  2.0506  3.1373 -0.8286
  719MOL0     H94863   0.787   7.901   6.124 -1.2828  0.3035  1.0822
  719MOL0     H94864   0.659   7.663   5.985 -2.1446 -1.5251  0.7096
  719MOL0     H94865   0.643   7.696   6.159  0.2088  0.4395  0.4050
  719MOL0     H94866   0.893   7.613   6.017 -1.5135 -2.6630 -0.1654
  719MOL0     H94867   0.884   7.667   6.186 -1.4005 -0.8498  0.8137
  719MOL0     H94868   0.707   7.492   6.220  0.7672 -0.2398  1.9467
  719MOL0     H94869   0.861   7.411   6.173  0.2000  0.9298  1.9665
  719MOL0     H94870   0.993   7.392   5.994 -2.1769  0.7048  1.4453
  719MOL0     H94871   1.109   7.312   5.798 -0.5294  2.5761  2.4868
  719MOL0     H94872   1.145   7.026   5.434  1.1931  2.6642  0.7039
  719MOL0     H94873   1.237   6.933   5.220 -0.8789 -1.0075 -0.4650
  719MOL0     H94874   1.048   7.027   4.842  0.2630  1.4431  2.4368
  719MOL0     H94875   1.078   6.863   4.886  0.3808 -0.3587 -0.8527
  719MOL0     H94876   1.298   7.023   4.747 -0.2696  1.5219  1.3222
  719MOL0     H94877   1.176   6.928   4.670  1.2084  0.1972 -0.1168
  719MOL0     H94878   1.271   6.727   4.786 -0.7931  1.0550 -1.2731
  719MOL0     H94879   1.350   6.812   4.910 -2.8998 -2.8720  0.6598
  719MOL0     H94880   1.424   6.848   4.618 -1.4929  4.1031  1.8092
  719MOL0     H94881   1.503   6.930   4.747  1.7397  0.4122 -1.1295
  719MOL0     H94882   1.494   6.633   4.726  1.7759  0.1146 -2.4879
  719MOL0     H94883   1.600   6.723   4.831  2.0465 -1.9394 -1.0805
  719MOL0     H94884   1.630   6.688   4.518  2.3251 -3.6972  0.1851
  719MOL0     H94885   1.721   6.614   4.645  1.9459  0.1922 -0.0231
  719MOL0     H94886   1.855   6.769   4.557 -0.8356 -0.6337  0.0066
  719MOL0     H94887   1.732   6.891   4.565 -2.4505 -1.0454  0.5485
  719MOL0     H94888   1.869   6.768   4.815  0.3063  0.5522  1.0580
  719MOL0     H94889   1.756   6.900   4.814 -2.3637 -1.3413 -0.8037
  719MOL0     H94890   0.927   7.109   5.001 -1.4691 -1.0151  0.9166
  719MOL0     H94891   0.809   7.168   5.206  0.2171  1.1982 -0.3179
  719MOL0     H94892   0.732   7.266   5.590  1.5780 -1.0976  0.0873
  719MOL0     H94893   0.620   7.326   5.783  0.4027 -0.8260 -0.2682
  719MOL0     H94894   1.467   7.074   5.493  0.0920  5.2481 -1.1638
  719MOL0     H94895   1.512   6.825   5.437 -2.3345  0.4992  0.2604
  719MOL0     H94896   1.346   6.383   5.152 -1.4651 -1.3089 -1.7352
  719MOL0     H94897   1.412   6.213   5.003 -1.6013  0.6374  2.8188
  719MOL0     H94898   1.785   6.272   4.758  1.0917  1.0660 -1.5412
  719MOL0     H94899   1.641   6.295   4.658 -0.0858 -0.2612  0.6332
  719MOL0     H94900   1.807   6.041   4.713 -0.6886 -1.4348  0.4727
  719MOL0     H94901   1.636   6.031   4.650 -0.5852  1.4269  2.3861
  719MOL0     H94902   1.856   6.215   4.528 -1.9420  1.2466  1.1716
  719MOL0     H94903   1.706   6.188   4.465 -2.2538  0.0877  2.8407
  719MOL0     H94904   1.906   6.087   4.364  0.1239  0.3591  0.8614
  719MOL0     H94905   1.928   5.978   4.509 -1.4855  1.0714  2.4931
  719MOL0     H94906   1.704   5.709   4.299 -0.1325  0.3947 -2.6375
  719MOL0     H94907   1.753   6.426   4.869 -0.4225 -2.9999 -2.4028
  719MOL0     H94908   1.685   6.617   4.991  3.6650 -2.1686 -1.8934
  720MOL0     O94909   1.740   8.180   8.631 -0.4931  0.2600 -0.3522
  720MOL0     C94910   1.625   8.172   8.672 -0.6951 -0.4609 -0.4995
  720MOL0     O94911   1.578   8.117   8.794 -0.2147 -1.1499  0.0882
  720MOL0     C94912   1.664   8.061   8.884  0.7174  1.0489 -0.1106
  720MOL0     C94913   1.779   7.983   8.859  0.1396  0.3519 -0.0027
  720MOL0     C94914   1.870   7.923   8.946  1.0446 -0.6213 -0.6879
  720MOL0     C94915   1.841   7.940   9.078  0.1070 -0.1337  0.1065
  720MOL0     O94916   1.935   7.891   9.165  0.2340  1.1689 -0.6635
  720MOL0     C94917   1.980   7.961   9.285  1.3394  0.2086 -0.0134
  720MOL0     C94918   1.981   7.850   9.400  0.2092 -0.5963  0.5383
  720MOL0     C94919   2.041   7.708   9.356 -0.3762  0.5329 -0.6773
  720MOL0     C94920   2.199   7.710   9.351  0.7437 -0.7974 -0.5994
  720MOL0     C94921   2.262   7.599   9.281  0.1487 -0.0602  0.2997
  720MOL0     C94922   2.231   7.594   9.137 -0.3983 -0.0258  0.4835
  720MOL0     C94923   2.325   7.493   9.062 -0.4812  0.1229 -0.6023
  720MOL0     C94924   2.315   7.485   8.909  0.1085  0.6227 -0.1098
  720MOL0     N94925   2.180   7.442   8.871  0.2188 -0.0635  0.3481
  720MOL0     C94926   2.064   7.518   8.864 -0.0551 -0.3746  0.6342
  720MOL0     C94927   1.966   7.441   8.822  0.3944  1.3284  0.2536
  720MOL0     C94928   1.809   7.454   8.819 -0.1563 -0.5875  0.0307
  720MOL0     C94929   1.773   7.602   8.850 -0.0478  1.5969 -0.9574
  720MOL0     C94930   1.621   7.616   8.877  0.5488  0.6793  0.6473
  720MOL0     C94931   1.539   7.593   8.743 -0.6278 -0.4979 -0.5215
  720MOL0     O94932   1.585   7.702   8.659  0.0313  0.1461 -0.4959
  720MOL0     C94933   1.507   7.728   8.552 -0.3618  0.0636  0.5265
  720MOL0     C94934   1.520   7.858   8.502  0.2182 -0.5050 -0.9144
  720MOL0     C94935   1.454   7.904   8.392  0.0224 -1.0191 -0.4690
  720MOL0     C94936   1.367   7.824   8.330  0.7221  0.4488 -0.2063
  720MOL0     C94937   1.295   7.863   8.212 -0.6161  0.3588  0.9545
  720MOL0     O94938   1.279   7.993   8.173 -1.1368 -0.4739 -0.6456
  720MOL0     C94939   1.199   8.026   8.073  0.2879 -0.5939  0.6092
  720MOL0     C94940   1.103   8.118   8.094 -0.0728 -0.1540  0.8050
  720MOL0     C94941   1.012   8.163   8.000  1.2786 -0.3033  0.3883
  720MOL0     C94942   1.025   8.109   7.874  0.6065  0.3062  0.3533
  720MOL0     O94943   0.940   8.142   7.768  0.7639  0.4002 -0.2005
  720MOL0     C94944   0.844   8.252   7.783  0.6857  0.2547  0.4853
  720MOL0     C94945   0.736   8.239   7.674  0.2130  0.0598 -0.3204
  720MOL0     C94946   0.654   8.366   7.661  0.1807 -0.4450  0.1521
  720MOL0     C94947   0.724   8.447   7.553 -0.3408  0.1630 -0.1722
  720MOL0     C94948   0.683   8.594   7.554 -0.7759  0.0575 -0.5176
  720MOL0     C94949   0.774   8.668   7.456 -0.8533  0.6988  0.5467
  720MOL0     C94950   0.755   8.815   7.445 -0.2116  1.3109  0.3488
  720MOL0     C94951   0.878   8.868   7.363  0.5601  0.4267 -0.1023
  720MOL0    Cl94952   0.889   8.807   7.193 -0.1483  0.0380 -0.0601
  720MOL0     C94953   1.134   8.016   7.846 -0.1480 -0.0335 -0.2592
  720MOL0     C94954   1.217   7.973   7.947  0.1780  0.5191  0.7437
  720MOL0     O94955   1.233   7.769   8.155  0.4231 -0.3857 -0.4324
  720MOL0     C94956   1.344   7.694   8.380  0.6631 -0.1213 -0.1494
  720MOL0     C94957   1.417   7.634   8.484  0.5864 -0.2463  0.0140
  720MOL0     N94958   2.019   7.312   8.799 -0.3567 -0.4324 -0.3124
  720MOL0     N94959   2.146   7.316   8.835  0.4437 -0.5394 -0.2733
  720MOL0     C94960   1.716   7.998   9.118  0.1427  0.0593  0.6063
  720MOL0     C94961   1.623   8.055   9.019  0.3537 -0.4913  0.4349
  720MOL0     C94962   1.512   8.221   8.582 -0.4169 -0.0273 -0.0148
  720MOL0     C94963   1.375   8.195   8.606  0.4466  0.2880  0.1972
  720MOL0     C94964   1.283   8.249   8.517  0.5713  0.4958  0.6891
  720MOL0     C94965   1.320   8.327   8.408 -0.8467 -0.4279  0.6350
  720MOL0     O94966   1.223   8.362   8.324  0.2576  0.3657 -0.1180
  720MOL0     C94967   1.262   8.437   8.208  0.5589 -0.6494  0.9012
  720MOL0     C94968   1.146   8.503   8.131 -0.8914 -0.1291  0.0934
  720MOL0     C94969   1.064   8.598   8.217 -0.1615  0.3796 -0.3215
  720MOL0     C94970   1.007   8.725   8.166 -0.4989 -0.0360  1.2326
  720MOL0     C94971   0.921   8.699   8.054 -0.5989 -1.3093 -0.1009
  720MOL0     C94972   0.853   8.682   7.957  0.0042  0.2466 -0.2019
  720MOL0     C94973   1.462   8.347   8.381 -0.3271 -0.0490 -0.3759
  720MOL0     C94974   1.551   8.295   8.477 -1.1774  0.0510  0.4025
  720MOL0     H94975   1.804   7.975   8.753 -3.4973 -1.1810 -0.8860
  720MOL0     H94976   1.959   7.872   8.909  4.0882  3.2302  0.6059
  720MOL0     H94977   1.924   8.048   9.321  2.4025  1.1862 -0.6294
  720MOL0     H94978   2.082   7.998   9.269 -0.0765  3.3522 -3.0356
  720MOL0     H94979   1.881   7.829   9.440  0.8371 -1.7391  1.5903
  720MOL0     H94980   2.041   7.889   9.483 -1.5043 -1.4261  2.2514
  720MOL0     H94981   1.989   7.693   9.261 -0.9742 -3.6229  0.0817
  720MOL0     H94982   2.011   7.621   9.416  0.7990  1.8872  2.0340
  720MOL0     H94983   2.233   7.803   9.304 -1.6342  0.4715  0.0092
  720MOL0     H94984   2.234   7.706   9.455 -0.3493  1.4083 -0.0936
  720MOL0     H94985   2.231   7.503   9.324 -1.4100  0.2386 -0.0967
  720MOL0     H94986   2.371   7.597   9.290  0.0397  1.2182  2.5194
  720MOL0     H94987   2.251   7.695   9.098  1.9817 -0.6966 -0.2414
  720MOL0     H94988   2.127   7.567   9.121  0.1188 -0.8829 -1.8797
  720MOL0     H94989   2.429   7.523   9.076  0.6492 -3.3575 -0.5815
  720MOL0     H94990   2.329   7.394   9.108  1.4564  0.2390 -0.4249
  720MOL0     H94991   2.386   7.415   8.863 -1.9393  1.5368 -5.4845
  720MOL0     H94992   2.325   7.585   8.867 -0.8156  1.2614  1.1422
  720MOL0     H94993   2.052   7.619   8.904  1.6184  0.3585 -0.5510
  720MOL0     H94994   1.771   7.396   8.903  0.1652  0.3612  0.8577
  720MOL0     H94995   1.773   7.407   8.727  0.1428 -2.2086  0.7195
  720MOL0     H94996   1.814   7.663   8.769 -0.6920  4.2202  0.5663
  720MOL0     H94997   1.818   7.642   8.941 -0.5288  2.8150 -1.2255
  720MOL0     H94998   1.588   7.541   8.950 -0.0281  1.7479  1.5064
  720MOL0     H94999   1.594   7.716   8.910 -0.5479  0.3818  0.7069
  720MOL0     H95000   1.431   7.597   8.761 -0.2080  0.0939  2.1788
  720MOL0     H95001   1.557   7.491   8.708 -1.9538 -1.8964  2.4964
  720MOL0     H95002   1.579   7.930   8.558 -0.7039 -0.7780  0.4470
  720MOL0     H95003   1.476   8.002   8.351  1.9742 -1.7853 -1.4108
  720MOL0     H95004   1.107   8.156   8.196  0.9740 -1.0074  1.0957
  720MOL0     H95005   0.936   8.236   8.027 -1.1273 -2.1272 -1.0608
  720MOL0     H95006   0.887   8.352   7.784 -3.1428  2.1082  2.7672
  720MOL0     H95007   0.795   8.249   7.881  0.4236  1.0207  0.3824
  720MOL0     H95008   0.673   8.153   7.698 -2.7117  1.7318 -1.5890
  720MOL0     H95009   0.793   8.207   7.587 -0.3673 -1.7811 -0.0518
  720MOL0     H95010   0.650   8.418   7.758  1.7861 -0.7252  0.3870
  720MOL0     H95011   0.552   8.336   7.633  0.0714  0.5598 -0.5713
  720MOL0     H95012   0.829   8.456   7.585 -0.6633 -2.0994  1.8301
  720MOL0     H95013   0.717   8.399   7.456  1.0449 -1.2563  0.3769
  720MOL0     H95014   0.712   8.640   7.649  0.6115  0.7340 -1.2365
  720MOL0     H95015   0.577   8.612   7.533 -0.8086  2.0106  0.9806
  720MOL0     H95016   0.762   8.610   7.365  0.0024 -0.5228  1.1848
  720MOL0     H95017   0.877   8.653   7.491 -0.1436  2.9057 -0.4462
  720MOL0     H95018   0.658   8.840   7.399  0.0710 -1.6584 -2.1875
  720MOL0     H95019   0.772   8.855   7.545  2.4761 -0.7231  0.7995
  720MOL0     H95020   0.966   8.833   7.418  2.0987  0.3427 -2.4437
  720MOL0     H95021   0.882   8.977   7.365 -3.0637  0.6759  1.5725
  720MOL0     H95022   1.157   7.983   7.745  0.9039  2.6740 -1.0026
  720MOL0     H95023   1.295   7.908   7.910 -0.1168  1.1157 -0.9898
  720MOL0     H95024   1.277   7.626   8.328  2.5234 -1.6297 -0.6870
  720MOL0     H95025   1.397   7.534   8.521  1.3127 -0.5904 -0.5026
  720MOL0     H95026   1.674   7.998   9.218 -1.7905 -1.3957 -0.1401
  720MOL0     H95027   1.524   8.092   9.041  0.3558  1.5600 -2.4203
  720MOL0     H95028   1.344   8.139   8.694 -0.7398  0.2595 -0.2277
  720MOL0     H95029   1.178   8.228   8.535  1.3598 -4.2336  1.0788
  720MOL0     H95030   1.312   8.379   8.130 -1.4935  0.8126 -1.6801
  720MOL0     H95031   1.331   8.518   8.233 -1.6648  0.6757  3.1613
  720MOL0     H95032   1.175   8.561   8.043 -1.2027  0.9687  0.6942
  720MOL0     H95033   1.083   8.422   8.095 -2.6606  0.2456  2.1352
  720MOL0     H95034   1.129   8.646   8.291 -0.4933 -0.4456  0.5204
  720MOL0     H95035   0.987   8.547   8.275  2.8189 -4.0863  0.1936
  720MOL0     H95036   0.950   8.771   8.247 -0.4117  0.2005  1.1615
  720MOL0     H95037   1.093   8.787   8.137 -0.5743 -0.7381 -0.6328
  720MOL0     H95038   0.801   8.668   7.865  1.9631  0.8340 -1.4513
  720MOL0     H95039   1.516   8.411   8.313  1.3349  0.3579  1.2574
  720MOL0     H95040   1.654   8.331   8.479  0.5552 -4.3893  1.3513
  721MOL0     O95041   8.050  11.037   5.679  0.4334 -0.7167  0.8091
  721MOL0     C95042   8.004  10.986   5.780 -0.3111 -0.8090 -0.2487
  721MOL0     O95043   8.010  11.047   5.902 -0.0236  0.5552  0.3392
  721MOL0     C95044   8.089  11.154   5.918 -0.2068 -0.4070 -0.0602
  721MOL0     C95045   8.035  11.283   5.904  0.2896  0.0216 -0.3998
  721MOL0     C95046   8.118  11.395   5.900 -0.1891 -0.4219 -0.8572
  721MOL0     C95047   8.255  11.374   5.902 -0.0935  0.0344  0.6997
  721MOL0     O95048   8.352  11.473   5.903  0.6433  0.3303  0.6205
  721MOL0     C95049   8.361  11.553   5.775 -0.8532 -0.1336 -0.6038
  721MOL0     C95050   8.361  11.702   5.805  0.0052 -0.1479 -1.0403
  721MOL0     C95051   8.228  11.731   5.869 -0.1864 -0.5755 -0.1449
  721MOL0     C95052   8.225  11.886   5.907 -0.6802 -0.2170  0.0819
  721MOL0     C95053   8.085  11.922   5.974  0.4039 -0.6905 -0.1108
  721MOL0     C95054   8.096  12.070   6.013  0.2628 -0.2139 -0.0626
  721MOL0     C95055   7.962  12.129   6.040 -0.7299 -0.9233 -0.6657
  721MOL0     C95056   7.912  12.091   6.182  0.5278  0.0561 -0.1257
  721MOL0     N95057   7.774  12.135   6.197  0.3214 -0.0685 -0.2122
  721MOL0     C95058   7.731  12.270   6.190 -0.4509  0.6515  0.1801
  721MOL0     C95059   7.601  12.270   6.191  0.1345 -0.6301 -0.6405
  721MOL0     C95060   7.510  12.389   6.191  0.2917 -0.1096  0.4080
  721MOL0     C95061   7.518  12.472   6.321 -0.1676  0.2413  0.3322
  721MOL0     C95062   7.486  12.380   6.451 -0.4683  0.6649 -0.4655
  721MOL0     C95063   7.413  12.461   6.561 -0.7315  0.6012  0.3198
  721MOL0     O95064   7.364  12.382   6.662 -0.3072 -0.6122  0.3287
  721MOL0     C95065   7.442  12.325   6.764 -0.0977  0.6644  0.3697
  721MOL0     C95066   7.581  12.352   6.769 -0.1604 -0.0149 -0.3846
  721MOL0     C95067   7.653  12.302   6.883 -0.9163  0.3289 -0.4964
  721MOL0     C95068   7.591  12.225   6.987 -0.8796 -0.5606  0.3662
  721MOL0     C95069   7.663  12.190   7.106 -0.5812 -0.8901  0.2867
  721MOL0     O95070   7.776  12.260   7.126 -0.2370  0.1058  0.1094
  721MOL0     C95071   7.857  12.218   7.230 -0.3984  0.4153 -0.0556
  721MOL0     C95072   7.904  12.312   7.324 -0.0863 -0.3674  0.2567
  721MOL0     C95073   7.988  12.283   7.425  0.2126 -0.0430 -0.1014
  721MOL0     C95074   8.029  12.148   7.440 -0.7161  0.3012 -0.0535
  721MOL0     O95075   8.136  12.101   7.524  0.0875  0.5919  0.6752
  721MOL0     C95076   8.167  12.177   7.642  0.0950 -0.3109 -0.4915
  721MOL0     C95077   8.208  12.070   7.742  0.1382 -0.0067  1.0932
  721MOL0     C95078   8.358  12.046   7.732  0.6101 -0.8820 -0.9482
  721MOL0     C95079   8.401  11.954   7.619 -0.1322  0.2777  0.1459
  721MOL0     C95080   8.329  11.819   7.622  0.2880  0.2023  0.9350
  721MOL0     C95081   8.347  11.751   7.752  1.0972 -0.0068 -0.4857
  721MOL0     C95082   8.340  11.604   7.743  0.7288 -0.0436 -0.2707
  721MOL0     C95083   8.323  11.532   7.880 -0.6634  0.0821  0.1282
  721MOL0    Cl95084   8.332  11.358   7.866  0.3534 -0.0459  0.5016
  721MOL0     C95085   7.983  12.050   7.359 -0.1186 -1.1046  0.3884
  721MOL0     C95086   7.902  12.082   7.245 -0.3255  0.5183 -0.9084
  721MOL0     O95087   7.633  12.089   7.166  0.4314 -0.3512  0.1546
  721MOL0     C95088   7.456  12.193   6.971 -0.1602  0.0962 -0.3826
  721MOL0     C95089   7.379  12.243   6.861  0.4456 -1.2525  0.4458
  721MOL0     N95090   7.553  12.139   6.202  0.9466 -0.6401 -0.0096
  721MOL0     N95091   7.657  12.060   6.202 -0.3481  0.0671 -0.3847
  721MOL0     C95092   8.305  11.247   5.940  0.0136  1.0720  0.1528
  721MOL0     C95093   8.222  11.133   5.951  0.8268  0.4206 -0.8278
  721MOL0     C95094   7.939  10.848   5.770  0.0090  0.8963 -0.7765
  721MOL0     C95095   7.849  10.798   5.866  0.4826  1.0871  0.6719
  721MOL0     C95096   7.794  10.671   5.844 -0.0930  0.3028 -0.2532
  721MOL0     C95097   7.826  10.591   5.735  0.2459 -0.7918  0.5763
  721MOL0     O95098   7.751  10.479   5.717 -0.2945  0.2920  0.5090
  721MOL0     C95099   7.776  10.388   5.611  0.3087  0.5696  0.4761
  721MOL0     C95100   7.839  10.263   5.661 -0.0236  0.1154 -0.2698
  721MOL0     C95101   7.772  10.206   5.786 -0.7451 -0.6939  0.9142
  721MOL0     C95102   7.827  10.070   5.822  0.1348  0.1340  0.5091
  721MOL0     C95103   7.768   9.963   5.738 -0.1668  0.1246 -0.0200
  721MOL0     C95104   7.732   9.868   5.666  1.5872 -0.0644 -0.4008
  721MOL0     C95105   7.934  10.642   5.660  0.1895  0.1076  0.4427
  721MOL0     C95106   7.985  10.769   5.663  0.5963  0.1309  0.2272
  721MOL0     H95107   7.934  11.296   5.869  0.8645 -3.1227 -3.7910
  721MOL0     H95108   8.074  11.494   5.897  0.9217  0.1557  0.6850
  721MOL0     H95109   8.279  11.522   5.710 -1.8570  1.5730 -0.2270
  721MOL0     H95110   8.456  11.542   5.722  0.0451 -1.1921  1.1104
  721MOL0     H95111   8.364  11.754   5.709  0.5197  0.8673 -0.4856
  721MOL0     H95112   8.449  11.729   5.864  0.0926  1.4525 -1.8406
  721MOL0     H95113   8.222  11.675   5.963 -0.7090  1.3127  1.0048
  721MOL0     H95114   8.141  11.697   5.812  1.3032  0.2818 -3.1055
  721MOL0     H95115   8.315  11.921   5.958 -1.1712  2.4815 -0.6855
  721MOL0     H95116   8.234  11.929   5.807  1.2059 -1.6344 -0.4043
  721MOL0     H95117   8.052  11.856   6.054  1.6010  0.6646  1.5846
  721MOL0     H95118   8.011  11.911   5.894  2.0191 -2.5458 -1.4740
  721MOL0     H95119   8.146  12.125   5.933 -0.5267 -0.5154 -0.7732
  721MOL0     H95120   8.163  12.087   6.098 -0.1169  2.2713 -0.2034
  721MOL0     H95121   7.969  12.238   6.040 -4.3769 -0.4514  3.2548
  721MOL0     H95122   7.891  12.107   5.960 -3.5629  3.2261  0.4068
  721MOL0     H95123   7.965  12.148   6.259 -2.3809  0.0288  2.0346
  721MOL0     H95124   7.917  11.984   6.202  0.0561 -0.0146 -0.3844
  721MOL0     H95125   7.784  12.364   6.182  1.6072 -0.5919 -1.8207
  721MOL0     H95126   7.408  12.360   6.165  0.3517 -0.6440  0.7399
  721MOL0     H95127   7.543  12.449   6.106 -2.3058  1.1024  0.1921
  721MOL0     H95128   7.454  12.560   6.325  0.0430  0.4532 -0.7785
  721MOL0     H95129   7.620  12.509   6.334 -0.2233  0.3246  0.5296
  721MOL0     H95130   7.416  12.302   6.419 -2.3056  1.4509  1.3819
  721MOL0     H95131   7.575  12.326   6.484  0.2058  2.6598  1.2319
  721MOL0     H95132   7.327  12.509   6.514  0.1794  4.1257  1.9734
  721MOL0     H95133   7.482  12.542   6.586  2.9117 -1.7710 -1.2480
  721MOL0     H95134   7.636  12.408   6.695  1.4186 -2.2118 -0.9916
  721MOL0     H95135   7.761  12.309   6.891 -0.6870 -3.2874  2.6017
  721MOL0     H95136   7.846  12.404   7.321 -1.9636 -1.5079 -2.1463
  721MOL0     H95137   8.010  12.357   7.501 -3.9201  0.7440  0.5894
  721MOL0     H95138   8.078  12.224   7.686 -0.3114  1.3548 -2.8986
  721MOL0     H95139   8.245  12.252   7.625 -0.7951  0.6126 -0.5585
  721MOL0     H95140   8.156  11.974   7.745  0.5021 -0.1988  1.2402
  721MOL0     H95141   8.190  12.118   7.839 -1.3639  1.1620  0.2816
  721MOL0     H95142   8.389  12.016   7.833 -1.1835  1.6374  0.4834
  721MOL0     H95143   8.403  12.146   7.731 -0.4382 -0.3625 -3.4718
  721MOL0     H95144   8.392  12.010   7.525 -1.4017 -1.4947 -0.8418
  721MOL0     H95145   8.507  11.930   7.635  0.4061 -0.3450 -3.4901
  721MOL0     H95146   8.369  11.758   7.541 -4.1202  0.7939 -2.0666
  721MOL0     H95147   8.224  11.823   7.591  0.8409  1.0247 -1.0317
  721MOL0     H95148   8.268  11.796   7.812 -0.2591 -2.0784 -0.6388
  721MOL0     H95149   8.446  11.765   7.797  0.9562 -1.1829  0.2203
  721MOL0     H95150   8.254  11.586   7.677  1.4188  0.2330 -1.2762
  721MOL0     H95151   8.423  11.553   7.692  1.3977  1.2575 -0.5375
  721MOL0     H95152   8.230  11.560   7.930  0.3412  1.6135  1.2365
  721MOL0     H95153   8.403  11.544   7.954  1.6487 -0.2172 -2.1868
  721MOL0     H95154   8.027  11.953   7.376  3.8664  0.6016  0.9929
  721MOL0     H95155   7.866  11.994   7.193 -0.6208 -0.3177  0.6515
  721MOL0     H95156   7.407  12.134   7.048 -0.8837  1.7334  0.4753
  721MOL0     H95157   7.271  12.245   6.863  0.3917 -0.6408 -1.5761
  721MOL0     H95158   8.409  11.224   5.963  1.1323  4.0176 -1.5476
  721MOL0     H95159   8.265  11.033   5.954 -2.1158 -0.9313 -0.2787
  721MOL0     H95160   7.812  10.861   5.946 -2.3799  1.8858 -1.1460
  721MOL0     H95161   7.710  10.644   5.907  0.3917  1.5469  0.9855
  721MOL0     H95162   7.834  10.430   5.529  0.7393 -2.3423 -0.8317
  721MOL0     H95163   7.683  10.351   5.567  1.8730 -0.9596 -1.7438
  721MOL0     H95164   7.835  10.192   5.578 -2.9811  0.7599 -0.8086
  721MOL0     H95165   7.942  10.296   5.678  0.4889 -0.6097 -1.8026
  721MOL0     H95166   7.663  10.214   5.784 -0.8826 -2.1286  1.2183
  721MOL0     H95167   7.814  10.277   5.858  3.0061 -1.9888  0.2444
  721MOL0     H95168   7.936  10.071   5.811 -0.0220  1.7893 -1.4465
  721MOL0     H95169   7.800  10.046   5.926 -1.3176 -0.2456  0.0569
  721MOL0     H95170   7.691   9.787   5.611 -1.0477 -1.5546  3.3940
  721MOL0     H95171   7.976  10.582   5.580 -2.9186 -0.0840 -1.2039
  721MOL0     H95172   8.070  10.807   5.607  0.2733  1.2632  0.4782
  722MOL0     O95173  10.068   6.839   6.991 -0.5346 -0.2644 -0.4618
  722MOL0     C95174  10.088   6.867   7.107 -1.0391 -0.6881  0.4003
  722MOL0     O95175   9.994   6.844   7.203 -0.9658  0.1511 -0.1045
  722MOL0     C95176   9.877   6.783   7.167  0.1036 -0.5917 -0.3965
  722MOL0     C95177   9.792   6.805   7.059 -0.7173  0.4790  0.6345
  722MOL0     C95178   9.676   6.728   7.041 -0.4401  0.3555 -0.7290
  722MOL0     C95179   9.632   6.623   7.130  0.0303 -0.3447 -0.2311
  722MOL0     O95180   9.520   6.539   7.094  0.3137 -0.2975 -0.0103
  722MOL0     C95181   9.509   6.409   7.152  0.5093 -0.8594  0.5236
  722MOL0     C95182   9.406   6.318   7.091 -0.3871 -0.5825  0.1202
  722MOL0     C95183   9.445   6.280   6.954 -0.6298 -0.7514  0.7182
  722MOL0     C95184   9.329   6.189   6.889  0.0461  0.5750 -0.1412
  722MOL0     C95185   9.182   6.233   6.916  0.2830 -0.7576 -0.1645
  722MOL0     C95186   9.131   6.362   6.853 -0.1855 -0.6646 -0.7782
  722MOL0     C95187   9.181   6.397   6.708  0.4434  0.2665  0.0214
  722MOL0     C95188   9.112   6.518   6.640 -0.3134 -0.3430 -0.0420
  722MOL0     N95189   9.115   6.632   6.734  0.8312  0.1604 -0.0858
  722MOL0     C95190   9.219   6.721   6.756  0.1824  0.7052  0.3598
  722MOL0     C95191   9.173   6.799   6.862  0.1853  0.0004 -0.9845
  722MOL0     C95192   9.253   6.891   6.949  0.9939  0.3674  0.1325
  722MOL0     C95193   9.340   6.982   6.863  0.1838  0.3698 -0.1659
  722MOL0     C95194   9.445   7.056   6.956 -0.6114  0.7323 -0.1820
  722MOL0     C95195   9.536   7.151   6.868 -0.0924 -0.2833  0.0179
  722MOL0     O95196   9.562   7.087   6.745  0.2462 -0.0391 -0.1755
  722MOL0     C95197   9.688   7.044   6.716 -0.6586  0.0765 -0.0682
  722MOL0     C95198   9.721   6.915   6.724  0.1451 -0.2463 -0.0500
  722MOL0     C95199   9.853   6.870   6.702 -0.4196 -0.0268 -0.1383
  722MOL0     C95200   9.958   6.957   6.666  0.1511 -0.0114  0.9265
  722MOL0     C95201  10.094   6.907   6.642 -0.3614  1.2288  0.2224
  722MOL0     O95202  10.120   6.778   6.683 -0.2291  1.2214 -0.5998
  722MOL0     C95203  10.243   6.719   6.648  0.1146 -0.4192 -0.2966
  722MOL0     C95204  10.344   6.786   6.473  0.3680  0.6264 -0.4167
  722MOL0     C95205  10.528   6.701   6.420  0.0953 -0.4768  0.2572
  722MOL0     C95206  10.616   6.552   6.531 -0.8829  0.1851 -0.7337
  722MOL0     O95207  10.743   6.507   6.494  0.1277 -0.2072 -0.7761
  722MOL0     C95208  10.814   6.590   6.409 -0.5784 -0.1785  0.6703
  722MOL0     C95209  10.957   6.533   6.424 -0.7068  1.2615 -0.3318
  722MOL0     C95210  10.957   6.383   6.375 -0.0654 -0.5065 -1.1464
  722MOL0     C95211  11.089   6.305   6.397  0.4628 -0.4913  0.4089
  722MOL0     C95212  11.057   6.150   6.403  0.5289  0.6261  0.0217
  722MOL0     C95213  11.179   6.063   6.402  0.1339 -0.6396  0.5375
  722MOL0     C95214  11.279   6.102   6.510 -0.9463 -0.0628 -0.3791
  722MOL0     C95215  11.401   6.010   6.498 -0.7734  0.1793  0.7974
  722MOL0    Cl95216  11.519   6.050   6.612 -0.0133 -0.1379 -0.4774
  722MOL0     C95217  10.521   6.480   6.706  1.0862 -0.6245 -0.7770
  722MOL0     C95218  10.330   6.559   6.766  0.5081 -0.7480  0.9989
  722MOL0     O95219  10.175   6.983   6.589 -0.0919  0.5116  0.5040
  722MOL0     C95220   9.925   7.105   6.657  0.2159  0.2784 -1.0689
  722MOL0     C95221   9.793   7.138   6.688  0.2369  0.4067 -1.2213
  722MOL0     N95222   9.041   6.778   6.865 -0.2509 -0.7239 -0.5568
  722MOL0     N95223   9.015   6.673   6.807 -0.0671 -0.2047  0.0351
  722MOL0     C95224   9.707   6.616   7.250  0.7368 -0.7969  0.1584
  722MOL0     C95225   9.825   6.694   7.264 -1.0880 -0.0574  0.2037
  722MOL0     C95226  10.200   6.956   7.136  0.3307 -1.0289  0.1513
  722MOL0     C95227  10.282   7.005   7.031  0.1167  0.7602  0.1737
  722MOL0     C95228  10.376   7.104   7.054 -0.0550 -0.3468  0.6443
  722MOL0     C95229  10.395   7.159   7.188 -0.3027  0.0828  0.2320
  722MOL0     O95230  10.491   7.254   7.222  0.6393  0.5806  0.0520
  722MOL0     C95231  10.617   7.200   7.250  0.2978 -0.1998 -0.0897
  722MOL0     C95232  10.714   7.318   7.289  0.6226  0.4442  0.3078
  722MOL0     C95233  10.683   7.444   7.199 -0.2243  0.4594  1.1221
  722MOL0     C95234  10.754   7.570   7.260  0.5401 -0.1382  0.2758
  722MOL0     C95235  10.893   7.534   7.269 -1.2194  0.0490 -0.9250
  722MOL0     C95236  11.017   7.519   7.284 -0.4130 -0.2636  0.5549
  722MOL0     C95237  10.324   7.098   7.294 -0.4546  0.2492 -0.0205
  722MOL0     C95238  10.215   7.008   7.259 -0.5215  0.1863  0.0061
  722MOL0     H95239   9.803   6.885   6.986  0.2528  0.4756  0.7707
  722MOL0     H95240   9.613   6.750   6.956 -1.6785 -0.1347  0.0365
  722MOL0     H95241   9.489   6.431   7.257 -2.0634 -0.6245  0.0591
  722MOL0     H95242   9.603   6.357   7.128  0.8568 -1.0162  2.1258
  722MOL0     H95243   9.311   6.371   7.102  1.3165  2.2713  2.8512
  722MOL0     H95244   9.403   6.229   7.155 -1.3238 -0.0253  0.8845
  722MOL0     H95245   9.545   6.236   6.961 -1.1993 -2.2997 -0.4185
  722MOL0     H95246   9.456   6.374   6.899  3.8763 -1.7966 -0.5553
  722MOL0     H95247   9.329   6.179   6.780  0.3073  0.6993 -0.1544
  722MOL0     H95248   9.334   6.090   6.935 -2.1373 -0.4335 -1.8850
  722MOL0     H95249   9.160   6.245   7.022 -1.1182  0.5191 -0.5590
  722MOL0     H95250   9.128   6.150   6.869 -0.8331  0.5845 -1.3349
  722MOL0     H95251   9.165   6.441   6.922 -1.7826  0.2279 -0.9540
  722MOL0     H95252   9.023   6.348   6.846 -0.1209 -1.8422  0.2837
  722MOL0     H95253   9.288   6.415   6.712  0.1598  1.9418  1.2729
  722MOL0     H95254   9.166   6.304   6.653 -3.2268  0.5650  0.2368
  722MOL0     H95255   9.011   6.484   6.620 -0.5329  0.6636 -0.7308
  722MOL0     H95256   9.162   6.545   6.547 -0.0206 -0.3812  0.1029
  722MOL0     H95257   9.324   6.704   6.733  0.6148  0.8943  2.0694
  722MOL0     H95258   9.322   6.825   7.002  0.4543 -2.1450 -2.0929
  722MOL0     H95259   9.186   6.958   7.003  0.1589  0.6555 -1.2165
  722MOL0     H95260   9.275   7.045   6.801  0.5394  1.0314  0.1179
  722MOL0     H95261   9.392   6.913   6.797 -0.2331  0.0440 -0.1551
  722MOL0     H95262   9.378   7.108   7.025 -3.0282 -1.7681 -0.4576
  722MOL0     H95263   9.510   6.982   7.003  0.9179  1.7900 -0.5683
  722MOL0     H95264   9.635   7.164   6.912 -0.5110 -0.5655  1.0571
  722MOL0     H95265   9.497   7.254   6.866 -2.4635 -1.0112  2.5177
  722MOL0     H95266   9.650   6.837   6.750 -0.0662 -0.3464 -0.8957
  722MOL0     H95267   9.873   6.765   6.725  1.1737  0.7891  2.7543
  722MOL0     H95268  10.297   6.864   6.415  0.2058 -1.2138 -2.9090
  722MOL0     H95269  10.570   6.732   6.325 -1.3578 -2.7095 -1.2207
  722MOL0     H95270  10.822   6.697   6.428 -1.0681 -0.1394  0.6753
  722MOL0     H95271  10.767   6.581   6.310 -1.9776  1.8797  1.0951
  722MOL0     H95272  10.984   6.537   6.530 -0.2428  0.5388 -0.4109
  722MOL0     H95273  11.043   6.575   6.372 -1.6582  1.4110 -1.8298
  722MOL0     H95274  10.930   6.395   6.269  1.1213  3.1006 -1.1879
  722MOL0     H95275  10.879   6.326   6.425  2.3108 -0.9793  2.3987
  722MOL0     H95276  11.160   6.328   6.316  1.1072 -1.4086  0.6939
  722MOL0     H95277  11.137   6.343   6.488 -1.5218  2.7019  0.2710
  722MOL0     H95278  10.995   6.131   6.315  0.7197  0.6885 -0.1259
  722MOL0     H95279  10.997   6.140   6.494  1.5693  2.0477  0.9222
  722MOL0     H95280  11.215   6.085   6.301 -3.9466 -0.7531 -1.1078
  722MOL0     H95281  11.146   5.958   6.399 -0.3689 -0.4790  0.3224
  722MOL0     H95282  11.320   6.203   6.509  4.1996 -1.6709  3.3193
  722MOL0     H95283  11.241   6.084   6.611 -0.1354 -1.3922 -0.2834
  722MOL0     H95284  11.437   6.026   6.396  2.0872 -0.8068  1.5546
  722MOL0     H95285  11.374   5.904   6.505  2.4725 -0.6629  2.6907
  722MOL0     H95286  10.575   6.422   6.779 -1.9552 -0.0974  2.1251
  722MOL0     H95287  10.294   6.521   6.861 -0.0631 -0.5793  0.8501
  722MOL0     H95288  10.007   7.176   6.650  0.1422  0.2730 -2.1230
  722MOL0     H95289   9.774   7.245   6.688  1.0985  0.6186  1.3081
  722MOL0     H95290   9.672   6.547   7.327  1.1836 -0.4116  0.7180
  722MOL0     H95291   9.890   6.680   7.350 -0.0904  0.4171 -0.4491
  722MOL0     H95292  10.288   6.975   6.927  2.2836 -1.2997  0.7997
  722MOL0     H95293  10.441   7.145   6.977  4.7872 -3.2857  2.7339
  722MOL0     H95294  10.669   7.155   7.165  2.7545 -1.1078  1.7692
  722MOL0     H95295  10.615   7.128   7.333  1.7418  0.8650  0.9244
  722MOL0     H95296  10.715   7.332   7.398 -0.5923 -0.3005  0.4298
  722MOL0     H95297  10.815   7.286   7.262 -0.3174 -0.7191 -2.1033
  722MOL0     H95298  10.575   7.460   7.208 -0.6787 -2.5999  2.5946
  722MOL0     H95299  10.709   7.418   7.096  0.3878 -0.4605  1.4958
  722MOL0     H95300  10.743   7.657   7.195  0.4692 -1.4501 -1.5767
  722MOL0     H95301  10.722   7.584   7.363  0.6369 -0.0678  0.2966
  722MOL0     H95302  11.123   7.508   7.294 -0.6374  0.0368  5.6470
  722MOL0     H95303  10.356   7.123   7.394  0.1392 -2.7637  0.6388
  722MOL0     H95304  10.143   6.974   7.333 -1.9679  0.7954 -1.0806
  723MOL0     O95305   1.653   7.133   9.612 -0.2197  0.2191  0.3025
  723MOL0     C95306   1.618   7.041   9.523  0.4508 -1.0505 -0.7703
  723MOL0     O95307   1.492   7.028   9.476 -0.2488 -0.0435  0.7598
  723MOL0     C95308   1.384   7.098   9.541  0.0884 -0.0048  0.4175
  723MOL0     C95309   1.380   7.235   9.579  0.9539 -0.3468  0.1579
  723MOL0     C95310   1.271   7.285   9.656 -0.6864 -0.4911  0.7709
  723MOL0     C95311   1.163   7.202   9.678  0.4027 -0.0903  0.1392
  723MOL0     O95312   1.072   7.265   9.750  0.1977 -0.0861  0.7043
  723MOL0     C95313   0.949   7.199   9.773 -0.0182 -0.1162 -0.1595
  723MOL0     C95314   0.951   7.110   9.893  0.2871 -0.3829 -0.0472
  723MOL0     C95315   1.055   7.150   9.994 -0.4537  0.0101  0.6279
  723MOL0     C95316   1.030   7.070  10.126  0.3023 -0.4812 -0.2464
  723MOL0     C95317   1.137   7.101  10.232 -0.4800  0.9341  0.2535
  723MOL0     C95318   1.122   7.235  10.294  0.5800 -0.6173 -0.0662
  723MOL0     C95319   1.205   7.261  10.423 -0.0311  0.6306  0.0658
  723MOL0     C95320   1.138   7.372  10.503 -0.4316  0.6731 -0.1225
  723MOL0     N95321   1.188   7.393  10.630  0.3728  0.8694 -0.5385
  723MOL0     C95322   1.254   7.505  10.671 -0.1606  1.3477  0.5604
  723MOL0     C95323   1.235   7.515  10.799  0.1998 -1.0848 -0.1701
  723MOL0     C95324   1.288   7.628  10.882  0.0920 -0.5577 -0.2843
  723MOL0     C95325   1.246   7.768  10.826 -0.1405 -0.7251 -0.2153
  723MOL0     C95326   1.334   7.882  10.871  0.5239 -0.2496 -0.3385
  723MOL0     C95327   1.314   7.909  11.025  0.2579  0.2431  0.1114
  723MOL0     O95328   1.418   7.988  11.082  0.0907 -0.2677  0.2918
  723MOL0     C95329   1.468   8.089  11.000 -0.1259  0.2778  0.3018
  723MOL0     C95330   1.605   8.093  10.971 -0.0205  0.4078  0.3202
  723MOL0     C95331   1.658   8.202  10.900 -0.2838  0.4311 -0.8796
  723MOL0     C95332   1.585   8.321  10.885 -0.6091  0.0493 -0.9065
  723MOL0     C95333   1.660   8.452  10.848  0.5697 -0.1948  0.3489
  723MOL0     O95334   1.793   8.446  10.823  0.0138  0.5208 -0.4732
  723MOL0     C95335   1.863   8.558  10.787  0.1598  1.2223 -0.2418
  723MOL0     C95336   1.841   8.624  10.669  0.9895  0.6321 -0.2163
  723MOL0     C95337   1.925   8.727  10.620 -0.4444  0.2660 -0.7833
  723MOL0     C95338   2.038   8.761  10.694 -0.3649 -0.9571  0.0244
  723MOL0     O95339   2.102   8.867  10.641 -0.2691 -0.2810  0.0185
  723MOL0     C95340   2.233   8.912  10.674  0.8522 -0.0513  0.8056
  723MOL0     C95341   2.294   8.966  10.547  0.4100 -0.0762  0.3393
  723MOL0     C95342   2.355   8.858  10.466 -0.5294  0.3218 -0.1245
  723MOL0     C95343   2.485   8.782  10.520  0.3914  0.1692  0.2993
  723MOL0     C95344   2.521   8.666  10.424 -0.2366 -0.2488 -0.5510
  723MOL0     C95345   2.635   8.576  10.481 -0.4852 -1.0256  0.4336
  723MOL0     C95346   2.692   8.459  10.393  0.3174 -0.0489  0.0436
  723MOL0     C95347   2.795   8.374  10.473 -0.1497  0.6029  0.0336
  723MOL0    Cl95348   2.958   8.454  10.481 -0.1097  0.7646  0.4889
  723MOL0     C95349   2.062   8.705  10.817 -0.0667 -0.7967  0.3300
  723MOL0     C95350   1.978   8.598  10.854 -0.2194 -0.6926 -0.4401
  723MOL0     O95351   1.596   8.553  10.858 -0.2360 -0.8788 -0.0777
  723MOL0     C95352   1.449   8.314  10.928  0.3822 -0.4399  0.3608
  723MOL0     C95353   1.384   8.197  10.975 -0.8091  0.7519  0.6385
  723MOL0     N95354   1.147   7.416  10.843  0.0103  0.1396 -0.8066
  723MOL0     N95355   1.123   7.347  10.739  0.1136  1.0388 -0.1954
  723MOL0     C95356   1.168   7.071   9.645  0.8214  0.5328  0.5397
  723MOL0     C95357   1.274   7.013   9.569 -0.2386 -0.0694  0.6378
  723MOL0     C95358   1.717   6.928   9.500  0.1862 -0.0096 -0.4594
  723MOL0     C95359   1.682   6.818   9.418 -0.4632  0.6216 -0.0233
  723MOL0     C95360   1.773   6.717   9.391 -0.8481  0.3194 -0.3607
  723MOL0     C95361   1.905   6.721   9.445  0.7670  1.4137  0.7574
  723MOL0     O95362   1.995   6.627   9.404 -0.0343  0.2536 -1.0479
  723MOL0     C95363   2.110   6.614   9.485  0.4537  0.7197  1.0872
  723MOL0     C95364   2.164   6.474   9.480  0.5179  0.9648 -0.3696
  723MOL0     C95365   2.227   6.440   9.346  0.9289  0.6723 -0.3095
  723MOL0     C95366   2.216   6.291   9.303  0.0331  0.3763  0.0227
  723MOL0     C95367   2.256   6.270   9.167  0.9467 -0.0375  0.5237
  723MOL0     C95368   2.263   6.242   9.051  0.6071  0.2411  0.1926
  723MOL0     C95369   1.938   6.830   9.517 -0.2791 -0.1115 -0.7662
  723MOL0     C95370   1.849   6.936   9.543  0.5616 -0.6483 -0.9714
  723MOL0     H95371   1.479   7.279   9.579  2.0259 -2.5193  2.2873
  723MOL0     H95372   1.265   7.389   9.688 -3.2103 -0.4358  0.3181
  723MOL0     H95373   0.913   7.137   9.690 -0.2881 -1.8610  1.2141
  723MOL0     H95374   0.876   7.281   9.779 -1.6267 -1.0229 -4.1139
  723MOL0     H95375   0.975   7.007   9.868 -1.1563 -0.5204 -0.9842
  723MOL0     H95376   0.848   7.127   9.925  0.2097  1.8489 -1.2406
  723MOL0     H95377   1.054   7.255  10.025 -1.8158 -0.6459  3.0583
  723MOL0     H95378   1.156   7.136   9.953 -0.4498  0.3456  0.5172
  723MOL0     H95379   0.931   7.100  10.160  0.5988 -0.4729  0.6392
  723MOL0     H95380   1.026   6.963  10.106 -2.3807 -0.1637 -1.9098
  723MOL0     H95381   1.239   7.099  10.194 -0.2499  2.4061  0.6976
  723MOL0     H95382   1.122   7.021  10.304 -0.2256  1.2591  0.6722
  723MOL0     H95383   1.019   7.255  10.326  1.3146  3.4631  0.2948
  723MOL0     H95384   1.155   7.318  10.231 -2.2481 -0.0176 -0.9137
  723MOL0     H95385   1.192   7.176  10.490 -1.3719  3.5121  3.8544
  723MOL0     H95386   1.311   7.287  10.408 -0.6291  1.7170 -3.0768
  723MOL0     H95387   1.034   7.337  10.504  0.7086 -3.4572 -1.9051
  723MOL0     H95388   1.146   7.466  10.449 -1.2153  1.2046  0.6453
  723MOL0     H95389   1.316   7.564  10.604 -2.1328  0.7913 -1.8779
  723MOL0     H95390   1.398   7.626  10.877  0.4551 -2.2431  4.1072
  723MOL0     H95391   1.258   7.615  10.986 -1.6514  1.1653 -0.5145
  723MOL0     H95392   1.140   7.789  10.843  0.0286 -1.5743  2.3399
  723MOL0     H95393   1.249   7.777  10.717 -0.7450 -4.8296 -0.7077
  723MOL0     H95394   1.440   7.862  10.855  0.6931 -2.3273  2.5862
  723MOL0     H95395   1.319   7.973  10.813  0.6126  0.6699  1.0604
  723MOL0     H95396   1.312   7.809  11.070  0.8670 -0.2014 -0.8133
  723MOL0     H95397   1.221   7.965  11.037 -2.0900 -3.0016 -1.2795
  723MOL0     H95398   1.665   8.007  10.999 -0.6636 -0.2593 -0.3269
  723MOL0     H95399   1.763   8.198  10.871  0.0178 -0.1373  0.2306
  723MOL0     H95400   1.760   8.584  10.608  0.8499  1.7136 -0.7521
  723MOL0     H95401   1.910   8.780  10.527 -0.2647  1.9894  0.1371
  723MOL0     H95402   2.295   8.831  10.714  4.6768  3.0915  1.7993
  723MOL0     H95403   2.216   8.993  10.746 -2.4294  1.5434 -1.4906
  723MOL0     H95404   2.377   9.033  10.572 -1.0325  2.1499 -0.5500
  723MOL0     H95405   2.221   9.033  10.500  1.3313  0.7003 -0.0251
  723MOL0     H95406   2.388   8.902  10.371  0.8315  2.0786  1.0884
  723MOL0     H95407   2.281   8.783  10.436  0.2738 -0.9021  0.8738
  723MOL0     H95408   2.562   8.858  10.535 -0.0971  0.6483  0.4313
  723MOL0     H95409   2.462   8.745  10.621  0.5456 -2.6358 -0.6078
  723MOL0     H95410   2.561   8.711  10.332  1.3946  1.0250  0.7303
  723MOL0     H95411   2.436   8.601  10.399 -1.3245  0.5566  0.9281
  723MOL0     H95412   2.595   8.534  10.574 -0.1903 -4.8907 -0.9657
  723MOL0     H95413   2.720   8.641  10.507 -1.9639 -0.0326  3.2328
  723MOL0     H95414   2.617   8.382  10.371  0.7710 -0.3535 -0.4574
  723MOL0     H95415   2.748   8.495  10.306  3.7535  1.6829  2.7310
  723MOL0     H95416   2.821   8.277  10.429 -2.0718 -0.0142  0.1851
  723MOL0     H95417   2.765   8.357  10.577 -0.5420  2.4514  0.2472
  723MOL0     H95418   2.143   8.737  10.881  0.4469  0.4877 -0.9203
  723MOL0     H95419   1.995   8.543  10.946 -0.1467  1.8852  1.2193
  723MOL0     H95420   1.386   8.398  10.903 -0.6785 -0.9093  1.3363
  723MOL0     H95421   1.280   8.188  11.005 -0.2233  0.7242  2.7883
  723MOL0     H95422   1.085   7.006   9.671  0.5237  0.1698 -1.1847
  723MOL0     H95423   1.279   6.906   9.547  3.2472 -1.3841  5.8486
  723MOL0     H95424   1.577   6.802   9.394 -0.0738 -3.1005  0.2178
  723MOL0     H95425   1.739   6.635   9.329 -1.0344  1.7826 -2.3002
  723MOL0     H95426   2.064   6.628   9.583 -6.2297 -0.7867 -1.3268
  723MOL0     H95427   2.188   6.687   9.461 -0.8269  1.7577 -0.0716
  723MOL0     H95428   2.248   6.468   9.550 -0.6812 -1.1427  1.0164
  723MOL0     H95429   2.089   6.399   9.508 -0.0683  2.2127  1.6299
  723MOL0     H95430   2.333   6.465   9.338  1.4207 -1.3783 -0.9694
  723MOL0     H95431   2.181   6.498   9.265  2.0679 -0.6953 -2.0304
  723MOL0     H95432   2.276   6.240   9.379 -0.6204  0.6143  0.7175
  723MOL0     H95433   2.114   6.252   9.318  0.4106  0.2259  2.8479
  723MOL0     H95434   2.269   6.201   8.952 -3.1609 -0.9465  0.2796
  723MOL0     H95435   2.038   6.846   9.557  0.4983  1.4804 -3.1211
  723MOL0     H95436   1.887   7.026   9.589 -2.1546  0.5158 -0.8160
  724MOL0     O95437   2.837   1.955   1.901 -0.3376  0.0193 -0.1777
  724MOL0     C95438   2.772   2.007   1.991 -0.8866  0.2646 -1.1407
  724MOL0     O95439   2.773   1.974   2.124  0.3837 -0.5570  0.6319
  724MOL0     C95440   2.849   1.860   2.172  0.0098 -0.5078  0.7153
  724MOL0     C95441   2.855   1.722   2.118  0.2560 -0.1937  0.1805
  724MOL0     C95442   2.942   1.628   2.175 -0.0936 -0.9334  0.1516
  724MOL0     C95443   3.012   1.661   2.295  1.2748  0.7415  0.5183
  724MOL0     O95444   3.085   1.568   2.370  0.5317  1.0701 -0.1446
  724MOL0     C95445   3.145   1.463   2.293  0.6128  0.3536  0.4078
  724MOL0     C95446   3.226   1.373   2.397  0.9307  0.4553  0.0172
  724MOL0     C95447   3.141   1.291   2.484  0.5416  0.1428  0.2100
  724MOL0     C95448   3.218   1.189   2.566 -0.4285 -0.2075 -0.4591
  724MOL0     C95449   3.126   1.143   2.685  0.1822 -0.1700  0.6614
  724MOL0     C95450   3.202   1.049   2.777  0.1278  0.5560 -0.5288
  724MOL0     C95451   3.123   1.014   2.904  0.0778  1.5593  0.0900
  724MOL0     C95452   3.107   0.863   2.912  0.8234  0.2782 -0.3173
  724MOL0     N95453   3.234   0.785   2.949 -0.2392  0.4504 -0.3007
  724MOL0     C95454   3.292   0.693   2.878 -0.8461  0.2629 -0.4953
  724MOL0     C95455   3.402   0.655   2.948 -0.6291 -0.0960 -0.1725
  724MOL0     C95456   3.508   0.556   2.901 -0.5757 -0.1330  0.2942
  724MOL0     C95457   3.611   0.615   2.802  0.0626 -0.3164  0.1376
  724MOL0     C95458   3.668   0.494   2.735 -0.3441  0.9913 -1.0085
  724MOL0     C95459   3.793   0.502   2.650  0.2713 -0.3466 -1.9056
  724MOL0     O95460   3.782   0.622   2.571 -0.4975 -0.9830  0.2910
  724MOL0     C95461   3.888   0.661   2.497 -0.8854  0.6191  0.0386
  724MOL0     C95462   4.016   0.588   2.508  0.0979  0.2666 -0.5790
  724MOL0     C95463   4.128   0.635   2.441 -0.1580 -0.0288  0.6181
  724MOL0     C95464   4.130   0.757   2.374 -0.1528  0.1677  1.2048
  724MOL0     C95465   4.258   0.823   2.314  0.4621 -0.2880  0.4598
  724MOL0     O95466   4.370   0.753   2.325 -0.0735  0.6353  0.4135
  724MOL0     C95467   4.492   0.805   2.283 -1.2385 -0.2768 -0.1142
  724MOL0     C95468   4.569   0.868   2.382  0.1416 -0.8436 -0.1108
  724MOL0     C95469   4.706   0.887   2.350 -0.2098  0.0249  0.0840
  724MOL0     C95470   4.767   0.861   2.226 -0.4439 -0.1324 -0.6635
  724MOL0     O95471   4.897   0.874   2.194  0.5314 -0.1745  1.0569
  724MOL0     C95472   4.984   0.858   2.303 -0.4040 -0.3747 -1.3225
  724MOL0     C95473   5.120   0.804   2.246 -0.5711 -0.1036  0.6823
  724MOL0     C95474   5.225   0.778   2.349  0.3426  0.4485 -0.0365
  724MOL0     C95475   5.303   0.895   2.407 -0.9945  0.4250 -0.5789
  724MOL0     C95476   5.433   0.861   2.484 -0.5458 -0.4795 -0.5883
  724MOL0     C95477   5.463   0.980   2.571 -0.5970 -0.2472  0.3211
  724MOL0     C95478   5.592   0.972   2.661  0.3656  0.2177  0.1227
  724MOL0     C95479   5.707   1.062   2.621 -0.1698  0.1689 -0.1516
  724MOL0    Cl95480   5.636   1.234   2.607 -0.1025 -0.4557  0.2212
  724MOL0     C95481   4.673   0.822   2.125  0.0314  0.4445  0.2034
  724MOL0     C95482   4.541   0.792   2.153 -0.1201  0.6626  0.4866
  724MOL0     O95483   4.244   0.935   2.272  0.0409 -0.3448 -0.4053
  724MOL0     C95484   4.013   0.829   2.375 -0.1579  0.2675  1.3559
  724MOL0     C95485   3.896   0.785   2.436  0.0839  0.5247 -0.0380
  724MOL0     N95486   3.392   0.708   3.073  0.6124  0.3594  0.5635
  724MOL0     N95487   3.292   0.792   3.076  0.4512  0.5373  0.6953
  724MOL0     C95488   2.978   1.782   2.351  0.0273  0.4151  0.7084
  724MOL0     C95489   2.913   1.887   2.289  0.8092  0.2966  0.5492
  724MOL0     C95490   2.683   2.113   1.947 -0.4126  0.3327  0.2199
  724MOL0     C95491   2.586   2.163   2.034 -1.5257  0.6699 -0.0422
  724MOL0     C95492   2.497   2.266   2.006  0.4816 -1.0920 -0.0757
  724MOL0     C95493   2.502   2.320   1.874  0.6339  0.5430 -0.8218
  724MOL0     O95494   2.406   2.408   1.839  0.1741  0.9622  0.1054
  724MOL0     C95495   2.462   2.540   1.786  0.0877  0.3975  0.2788
  724MOL0     C95496   2.397   2.589   1.655 -0.2777  0.3647 -0.5165
  724MOL0     C95497   2.424   2.503   1.540 -0.7528 -0.0233  0.5197
  724MOL0     C95498   2.407   2.573   1.401  0.5831  0.2145  0.6831
  724MOL0     C95499   2.470   2.510   1.283  0.2417  0.0105 -0.6293
  724MOL0     C95500   2.509   2.450   1.184  0.3063 -0.2663 -0.4403
  724MOL0     C95501   2.591   2.266   1.784  0.0472 -0.3550  0.9870
  724MOL0     C95502   2.686   2.169   1.820 -0.2234  0.3213  0.1608
  724MOL0     H95503   2.792   1.696   2.033 -2.0121  2.9708  0.7159
  724MOL0     H95504   2.938   1.530   2.127  0.2099 -0.2589 -1.3156
  724MOL0     H95505   3.212   1.502   2.216  0.8301 -2.8950 -1.2080
  724MOL0     H95506   3.082   1.390   2.242 -0.7083 -1.1203  3.8454
  724MOL0     H95507   3.284   1.443   2.458  0.5754  1.0921 -0.3714
  724MOL0     H95508   3.288   1.307   2.335 -2.7202 -1.0389 -2.4171
  724MOL0     H95509   3.078   1.242   2.408  0.2499  0.8607 -0.0171
  724MOL0     H95510   3.076   1.352   2.547 -0.3569 -0.1490 -0.4104
  724MOL0     H95511   3.249   1.106   2.502  1.3894 -1.0897  1.4707
  724MOL0     H95512   3.305   1.235   2.613  0.4662  0.1745 -2.3949
  724MOL0     H95513   3.045   1.082   2.643 -1.8530  1.0376  2.6111
  724MOL0     H95514   3.088   1.231   2.738 -0.5951 -1.3606  2.1785
  724MOL0     H95515   3.300   1.087   2.806 -0.7182  1.7878  0.8362
  724MOL0     H95516   3.217   0.955   2.723 -1.3167 -0.4732  0.7737
  724MOL0     H95517   3.179   1.062   2.985  0.1328  3.8227 -1.2271
  724MOL0     H95518   3.026   1.064   2.898 -0.5131  0.6076  1.1806
  724MOL0     H95519   3.060   0.825   2.822 -0.7991  1.2498  0.0881
  724MOL0     H95520   3.046   0.843   3.001  0.8300  2.3116  0.2054
  724MOL0     H95521   3.277   0.667   2.773  2.3199  1.2274 -1.2792
  724MOL0     H95522   3.458   0.474   2.850  2.7679 -0.2615 -3.2665
  724MOL0     H95523   3.559   0.516   2.990  1.8300 -0.1211 -1.0091
  724MOL0     H95524   3.690   0.669   2.856  0.5806 -0.3045 -0.6183
  724MOL0     H95525   3.567   0.685   2.730  0.8301  1.3264  1.1927
  724MOL0     H95526   3.677   0.413   2.808 -3.8105  0.8771 -0.5243
  724MOL0     H95527   3.585   0.456   2.675 -1.5264 -0.3911  1.3494
  724MOL0     H95528   3.790   0.407   2.597  3.4019 -1.0957 -0.9556
  724MOL0     H95529   3.875   0.509   2.722  0.3799  1.9561 -2.1700
  724MOL0     H95530   4.020   0.499   2.568 -0.1778  0.5816 -0.0884
  724MOL0     H95531   4.223   0.589   2.466 -0.5304  0.0254  2.2753
  724MOL0     H95532   4.534   0.889   2.482 -0.6388 -0.4001 -0.4668
  724MOL0     H95533   4.762   0.948   2.420  1.7705  1.1828 -2.3740
  724MOL0     H95534   4.962   0.784   2.380  1.1990  0.2347 -0.2348
  724MOL0     H95535   4.992   0.958   2.346 -4.3098 -1.3804  2.4910
  724MOL0     H95536   5.156   0.873   2.168  3.6296 -0.6187  1.9048
  724MOL0     H95537   5.099   0.708   2.199  0.4555  0.2141 -0.4771
  724MOL0     H95538   5.294   0.709   2.300  0.4390  1.5219 -1.4789
  724MOL0     H95539   5.177   0.721   2.429  1.6726  1.2035  1.3722
  724MOL0     H95540   5.336   0.955   2.322  0.2249  0.4119 -0.1363
  724MOL0     H95541   5.234   0.963   2.459 -0.0658  0.1893  1.0388
  724MOL0     H95542   5.509   0.855   2.406 -0.2385  2.9049 -0.6963
  724MOL0     H95543   5.415   0.770   2.543 -1.6451  0.8689  1.2943
  724MOL0     H95544   5.380   0.991   2.642  0.8146  0.1135  2.0035
  724MOL0     H95545   5.461   1.068   2.507 -1.1875 -0.0175  0.6450
  724MOL0     H95546   5.570   0.997   2.765  0.1870  0.3532  0.0532
  724MOL0     H95547   5.630   0.871   2.641  2.4547  1.6795 -4.6511
  724MOL0     H95548   5.745   1.027   2.525  1.5325 -0.1909  0.6074
  724MOL0     H95549   5.789   1.055   2.693 -2.4079  2.5541  2.8805
  724MOL0     H95550   4.710   0.815   2.024  0.1185  1.0248  0.1928
  724MOL0     H95551   4.489   0.748   2.069 -0.5089  0.3136  0.9058
  724MOL0     H95552   4.013   0.931   2.336 -1.4865 -1.3320 -3.5017
  724MOL0     H95553   3.808   0.846   2.453  1.3924  2.3100  0.6332
  724MOL0     H95554   3.024   1.798   2.448 -0.5362 -1.5973  1.3622
  724MOL0     H95555   2.919   1.984   2.338  0.0055  1.1751 -1.0296
  724MOL0     H95556   2.588   2.127   2.136  2.7884 -1.0316 -0.5193
  724MOL0     H95557   2.431   2.307   2.081 -1.4720 -0.2914 -2.0942
  724MOL0     H95558   2.571   2.541   1.771  0.0626  0.3578  0.0913
  724MOL0     H95559   2.430   2.616   1.857 -1.1554 -0.4436  0.6352
  724MOL0     H95560   2.291   2.594   1.683 -0.7060 -3.7473 -0.7018
  724MOL0     H95561   2.443   2.684   1.628 -1.6196  0.7467 -1.6242
  724MOL0     H95562   2.352   2.421   1.557  0.5002 -1.2171  0.2430
  724MOL0     H95563   2.527   2.468   1.541 -1.8217 -3.7536  2.8699
  724MOL0     H95564   2.299   2.586   1.390  0.9832  3.4647 -0.8357
  724MOL0     H95565   2.437   2.678   1.395  1.1243 -0.0306 -1.5486
  724MOL0     H95566   2.552   2.401   1.099  0.1715  1.3454 -1.4710
  724MOL0     H95567   2.580   2.295   1.680 -2.1093  4.0375  2.1662
  724MOL0     H95568   2.757   2.130   1.748 -1.1116  0.5836 -0.8857
  725MOL0     O95569   2.646  11.127   7.439 -0.0265  0.0699 -0.0776
  725MOL0     C95570   2.572  11.221   7.423 -0.8438  0.2959 -0.2161
  725MOL0     O95571   2.601  11.344   7.392  0.5428  0.2498  0.3322
  725MOL0     C95572   2.726  11.396   7.356 -0.0520  0.6585 -0.5446
  725MOL0     C95573   2.849  11.334   7.340  0.7903 -0.8622 -0.6079
  725MOL0     C95574   2.960  11.395   7.294  0.6079 -0.4518  0.0963
  725MOL0     C95575   2.952  11.529   7.275 -1.6150 -0.1121  0.4500
  725MOL0     O95576   3.059  11.602   7.211 -0.3635  0.2465  0.3466
  725MOL0     C95577   3.189  11.539   7.205 -0.9341 -0.5663  0.1751
  725MOL0     C95578   3.284  11.658   7.239 -0.0828  0.6272  1.7170
  725MOL0     C95579   3.430  11.647   7.187  0.2029 -0.3056 -0.0402
  725MOL0     C95580   3.461  11.658   7.036  0.0220 -0.0356 -0.4815
  725MOL0     C95581   3.606  11.685   6.988 -0.1169  0.2700 -0.2480
  725MOL0     C95582   3.648  11.835   7.001  0.4061  0.6245 -0.3795
  725MOL0     C95583   3.704  11.884   7.134 -0.2202 -0.3693 -0.5304
  725MOL0     C95584   3.751  12.032   7.141  0.6641  0.8103 -0.2204
  725MOL0     N95585   3.828  12.056   7.267 -0.3065 -0.2181 -0.0801
  725MOL0     C95586   3.768  12.100   7.386 -0.1838  1.4198 -0.2315
  725MOL0     C95587   3.858  12.075   7.481  0.0813  0.6514 -0.6721
  725MOL0     C95588   3.841  12.104   7.623  0.2679 -0.0655  0.2813
  725MOL0     C95589   3.859  11.968   7.688 -0.9715  0.4133 -1.5598
  725MOL0     C95590   3.857  11.961   7.841  0.0059  0.0856 -1.0416
  725MOL0     C95591   3.759  12.054   7.910  0.7439 -0.3111 -0.1129
  725MOL0     O95592   3.625  12.017   7.865  0.1487  0.1871  0.3395
  725MOL0     C95593   3.543  11.960   7.956 -0.0154  0.1642  0.2803
  725MOL0     C95594   3.565  11.826   8.001  0.7093 -0.1010  0.3459
  725MOL0     C95595   3.469  11.772   8.090 -0.4506  0.7204 -0.0667
  725MOL0     C95596   3.340  11.831   8.116  0.3325 -0.9906  0.1140
  725MOL0     C95597   3.244  11.761   8.211  0.5879 -0.7824  0.9785
  725MOL0     O95598   3.121  11.811   8.230 -0.5770  0.0511 -0.0028
  725MOL0     C95599   3.026  11.738   8.291 -0.5781 -0.0943 -0.7753
  725MOL0     C95600   2.984  11.757   8.420 -0.1208  0.1001 -0.0741
  725MOL0     C95601   2.881  11.683   8.470 -0.2293  0.7609 -0.6578
  725MOL0     C95602   2.813  11.590   8.395  0.0403  0.0461  0.3274
  725MOL0     O95603   2.710  11.516   8.432  0.7230 -0.5971  0.2191
  725MOL0     C95604   2.624  11.560   8.539  0.8983 -0.0187  0.0314
  725MOL0     C95605   2.491  11.474   8.545  0.5937  0.0464  0.5017
  725MOL0     C95606   2.383  11.541   8.622 -0.1313  0.4435 -0.3290
  725MOL0     C95607   2.246  11.483   8.625  0.7317 -0.3003  0.2711
  725MOL0     C95608   2.162  11.559   8.725  0.4743 -0.0917  0.5396
  725MOL0     C95609   2.009  11.562   8.679 -0.2648 -0.8236  0.3355
  725MOL0     C95610   1.934  11.426   8.669 -0.5612 -0.9436 -0.1241
  725MOL0     C95611   1.935  11.359   8.813 -0.7188 -0.2962  0.5867
  725MOL0    Cl95612   1.851  11.477   8.934  0.2697 -0.1393  0.3092
  725MOL0     C95613   2.857  11.573   8.258 -0.6390  0.0909 -0.8815
  725MOL0     C95614   2.963  11.644   8.205  0.7429 -0.1074 -0.2645
  725MOL0     O95615   3.274  11.656   8.247 -0.3640 -0.3190 -0.8255
  725MOL0     C95616   3.325  11.958   8.054 -0.1904  0.6265  0.1095
  725MOL0     C95617   3.421  12.024   7.981 -0.6014  0.1646 -0.6280
  725MOL0     N95618   3.978  12.033   7.417  0.8672 -0.2926  0.5013
  725MOL0     N95619   3.952  12.015   7.291 -0.3579 -0.5629 -0.3554
  725MOL0     C95620   2.842  11.602   7.299  0.2298  0.7132  0.3921
  725MOL0     C95621   2.726  11.534   7.344 -0.0568 -0.2639 -0.6442
  725MOL0     C95622   2.426  11.203   7.446  0.7801 -0.5503 -0.3418
  725MOL0     C95623   2.327  11.297   7.406  0.2657  1.1282  0.1432
  725MOL0     C95624   2.192  11.288   7.441 -0.6148  0.1588 -0.2689
  725MOL0     C95625   2.153  11.168   7.512 -0.1906 -0.8978 -1.0571
  725MOL0     O95626   2.031  11.154   7.577 -0.0609 -0.2166  0.2552
  725MOL0     C95627   1.920  11.252   7.571 -0.0891  0.1644 -0.5076
  725MOL0     C95628   1.793  11.184   7.636  0.0025  0.2693 -0.1965
  725MOL0     C95629   1.811  11.146   7.785  0.5814  1.7606 -0.4427
  725MOL0     C95630   1.855  11.259   7.865 -0.3149  0.3868  0.1851
  725MOL0     C95631   1.762  11.372   7.865 -0.1951  0.0025 -0.9393
  725MOL0     C95632   1.688  11.470   7.866 -0.3983  0.4702  0.3978
  725MOL0     C95633   2.241  11.074   7.546  0.1193  1.3381 -0.8186
  725MOL0     C95634   2.380  11.088   7.510 -0.6355 -0.2081 -0.7161
  725MOL0     H95635   2.859  11.228   7.360  0.1649 -1.0209 -1.1011
  725MOL0     H95636   3.045  11.331   7.271 -0.3063 -0.9073 -2.2940
  725MOL0     H95637   3.193  11.498   7.104 -1.5010  0.8958 -0.4535
  725MOL0     H95638   3.213  11.469   7.286  2.0552  0.2974  0.1413
  725MOL0     H95639   3.292  11.665   7.348  2.0047  1.7122  1.5455
  725MOL0     H95640   3.239  11.750   7.201 -0.3269  0.4236  1.5147
  725MOL0     H95641   3.465  11.548   7.219 -0.5063  0.4874  3.6510
  725MOL0     H95642   3.490  11.720   7.242  1.2292  2.2759 -4.1936
  725MOL0     H95643   3.423  11.567   6.988  0.4512 -0.4964  0.0378
  725MOL0     H95644   3.406  11.747   7.005  1.8863  0.5975 -2.2151
  725MOL0     H95645   3.618  11.662   6.881 -0.9460 -2.7128  0.2222
  725MOL0     H95646   3.670  11.631   7.058  0.0603  0.3342 -0.3601
  725MOL0     H95647   3.566  11.900   6.969 -1.0412 -0.3418  1.1795
  725MOL0     H95648   3.733  11.857   6.936  0.8442 -0.7701 -0.3067
  725MOL0     H95649   3.643  11.863   7.222 -0.6188  1.4120 -0.3553
  725MOL0     H95650   3.791  11.819   7.149  0.8594  1.2302  0.4854
  725MOL0     H95651   3.661  12.093   7.130  0.2264 -0.1864 -3.1990
  725MOL0     H95652   3.813  12.060   7.055  0.5549 -0.0407 -0.5936
  725MOL0     H95653   3.672  12.148   7.405 -2.1249 -1.7568 -1.2509
  725MOL0     H95654   3.746  12.149   7.655  0.4094 -0.4867  1.3607
  725MOL0     H95655   3.918  12.176   7.651 -1.0036  1.1140  0.8865
  725MOL0     H95656   3.949  11.913   7.659 -0.2780 -0.0769  1.2381
  725MOL0     H95657   3.778  11.899   7.664 -1.3959 -0.3892  1.7004
  725MOL0     H95658   3.841  11.856   7.868 -1.0454 -0.7328 -4.4606
  725MOL0     H95659   3.960  11.987   7.870  1.1184 -1.4235 -3.3006
  725MOL0     H95660   3.787  12.153   7.874  0.3533 -0.8737 -2.0732
  725MOL0     H95661   3.763  12.059   8.019 -2.1225 -1.4274  0.1449
  725MOL0     H95662   3.652  11.768   7.974 -1.5051 -3.8818  0.6537
  725MOL0     H95663   3.483  11.673   8.132  0.1608  0.7129 -0.2836
  725MOL0     H95664   3.034  11.833   8.479 -1.7818  0.8851  0.3832
  725MOL0     H95665   2.852  11.706   8.572  0.1489 -1.0697 -0.0870
  725MOL0     H95666   2.607  11.668   8.539 -0.0382 -0.1547  0.1085
  725MOL0     H95667   2.687  11.538   8.625  2.1074  1.9135 -0.2882
  725MOL0     H95668   2.510  11.376   8.591  2.1066  0.7885  1.5732
  725MOL0     H95669   2.463  11.457   8.441 -3.5741  1.8958  1.1295
  725MOL0     H95670   2.365  11.638   8.576  0.1513 -0.7487 -3.2370
  725MOL0     H95671   2.423  11.561   8.722 -0.1517 -3.2672  0.5638
  725MOL0     H95672   2.207  11.485   8.522 -0.6339 -0.4853  0.7616
  725MOL0     H95673   2.243  11.376   8.647 -0.4934  0.0825  2.1732
  725MOL0     H95674   2.201  11.661   8.714  0.1674 -0.0097  0.2104
  725MOL0     H95675   2.176  11.523   8.828  3.0284  2.6611  1.3126
  725MOL0     H95676   2.002  11.606   8.579  0.8418 -0.1790  0.5186
  725MOL0     H95677   1.958  11.617   8.759 -0.5163 -0.7609  0.1329
  725MOL0     H95678   1.832  11.430   8.631 -0.9576  0.3188  1.0018
  725MOL0     H95679   1.992  11.355   8.609  2.3375 -0.9567  2.4467
  725MOL0     H95680   2.027  11.317   8.854 -0.5396 -0.7295 -0.2226
  725MOL0     H95681   1.865  11.275   8.812  0.1559 -1.0723  1.6394
  725MOL0     H95682   2.802  11.495   8.207 -1.7285  1.3227 -1.6831
  725MOL0     H95683   2.995  11.635   8.102  1.0037 -2.9880 -0.0212
  725MOL0     H95684   3.241  12.016   8.089 -0.5052 -0.7468  1.7885
  725MOL0     H95685   3.395  12.116   7.930  0.1532 -0.5259 -2.3304
  725MOL0     H95686   2.837  11.709   7.285  2.3097  0.7148 -0.5708
  725MOL0     H95687   2.640  11.597   7.361  0.4469  0.3494 -0.3326
  725MOL0     H95688   2.369  11.388   7.363  0.4588  1.8945  1.8499
  725MOL0     H95689   2.131  11.378   7.437  2.3683  2.2961 -0.8118
  725MOL0     H95690   1.879  11.272   7.471 -2.1781 -2.8061 -0.3945
  725MOL0     H95691   1.950  11.342   7.624  0.7321 -2.4894  4.0582
  725MOL0     H95692   1.713  11.257   7.627 -0.1341  0.0586 -0.7493
  725MOL0     H95693   1.768  11.096   7.575  2.2842  1.1410 -2.5849
  725MOL0     H95694   1.888  11.069   7.794  0.1567  1.5478  1.8859
  725MOL0     H95695   1.716  11.120   7.833  1.8121 -1.5889  0.4157
  725MOL0     H95696   1.869  11.220   7.966 -2.0837  0.3913  0.4563
  725MOL0     H95697   1.949  11.301   7.828 -0.8956  1.7684  0.2357
  725MOL0     H95698   1.609  11.543   7.866 -1.1415 -0.2228 -2.4554
  725MOL0     H95699   2.212  10.981   7.595 -0.9942  1.8546 -0.4715
  725MOL0     H95700   2.456  11.013   7.528 -0.5563 -0.0302 -0.3000
  726MOL0     O95701  10.478   5.683   3.499  0.2808  0.2273 -0.0303
  726MOL0     C95702  10.520   5.631   3.402  0.0982  0.3865  0.5247
  726MOL0     O95703  10.589   5.512   3.398  0.3803  0.4575  0.0728
  726MOL0     C95704  10.586   5.411   3.494  0.5872  0.3116  0.1956
  726MOL0     C95705  10.669   5.298   3.474 -0.2367  0.1479  0.6934
  726MOL0     C95706  10.710   5.206   3.572  1.1122  0.2616 -0.6300
  726MOL0     C95707  10.653   5.227   3.702  0.0267  0.0196  1.8141
  726MOL0     O95708  10.681   5.141   3.802 -0.8028  0.7835 -0.1496
  726MOL0     C95709  10.822   5.151   3.845 -0.2610  0.5179  0.2843
  726MOL0     C95710  10.817   5.141   3.994  0.3631  1.0263  0.3851
  726MOL0     C95711  10.959   5.155   4.048  0.4333  0.5188 -0.1066
  726MOL0     C95712  11.000   5.300   4.053 -0.3067  0.4709  0.2236
  726MOL0     C95713  11.151   5.324   4.032 -0.6417 -0.1439 -0.9527
  726MOL0     C95714  11.197   5.458   4.082  0.0338  0.3566 -0.9401
  726MOL0     C95715  11.134   5.583   4.022 -0.0449 -0.1275 -0.0782
  726MOL0     C95716  11.227   5.713   4.025  0.3203 -0.3920  0.0808
  726MOL0     N95717  11.333   5.714   3.915 -0.3464 -1.2480  0.1552
  726MOL0     C95718  11.315   5.743   3.780  1.2786 -0.3835  0.2118
  726MOL0     C95719  11.438   5.714   3.717  1.0550  0.0822 -1.2012
  726MOL0     C95720  11.459   5.730   3.566  0.5968 -0.5615 -0.7129
  726MOL0     C95721  11.522   5.597   3.525 -0.5541  0.4155  0.4715
  726MOL0     C95722  11.424   5.478   3.529  0.4956 -0.0740 -0.8787
  726MOL0     C95723  11.470   5.361   3.442  0.3802 -0.1134  0.6828
  726MOL0     O95724  11.480   5.382   3.299  0.0882 -1.3507 -0.8257
  726MOL0     C95725  11.501   5.279   3.220  0.2112  0.5070 -0.3380
  726MOL0     C95726  11.524   5.137   3.256 -0.5663 -0.4824  0.5863
  726MOL0     C95727  11.536   5.045   3.146  0.1865 -0.1806 -1.0212
  726MOL0     C95728  11.519   5.087   3.017 -0.1702 -0.5803 -0.0648
  726MOL0     C95729  11.543   4.994   2.903  0.8505  0.5451  0.2412
  726MOL0     O95730  11.572   5.044   2.783  0.4555 -0.8087 -0.1186
  726MOL0     C95731  11.608   4.965   2.674  0.6220 -1.0005 -0.0003
  726MOL0     C95732  11.682   4.848   2.693  0.3178 -1.0214  0.9765
  726MOL0     C95733  11.726   4.777   2.583  0.1009  1.0013  0.0085
  726MOL0     C95734  11.685   4.815   2.451  0.2654  0.1421 -0.1222
  726MOL0     O95735  11.744   4.759   2.344  0.5376  0.2153  0.3158
  726MOL0     C95736  11.666   4.748   2.229 -0.4496  0.5786 -0.0630
  726MOL0     C95737  11.712   4.623   2.149 -0.7366 -0.4353  0.2172
  726MOL0     C95738  11.855   4.631   2.105 -0.5414  0.6415  0.5939
  726MOL0     C95739  11.897   4.494   2.066  0.3205 -0.3010  0.6922
  726MOL0     C95740  12.036   4.474   1.987  0.6113 -0.6454  0.7111
  726MOL0     C95741  12.150   4.497   2.091 -0.7245  0.2214 -0.0604
  726MOL0     C95742  12.290   4.524   2.024 -1.0413  0.6156 -0.6858
  726MOL0     C95743  12.355   4.415   1.945  0.3525 -0.3749 -0.3513
  726MOL0    Cl95744  12.431   4.297   2.058  0.0467  0.0074 -0.8652
  726MOL0     C95745  11.613   4.938   2.437  1.4018 -0.5307 -0.6163
  726MOL0     C95746  11.568   5.007   2.546 -0.6708 -0.0197  0.3076
  726MOL0     O95747  11.520   4.875   2.925 -0.2573 -0.0148 -0.2781
  726MOL0     C95748  11.482   5.216   2.981  0.1311 -0.2375 -0.0726
  726MOL0     C95749  11.480   5.312   3.084  0.9385 -1.1888 -0.1967
  726MOL0     N95750  11.525   5.672   3.821  0.5419  0.4524  0.5125
  726MOL0     N95751  11.457   5.662   3.930  0.2673  0.5271  0.8201
  726MOL0     C95752  10.548   5.325   3.722  0.8656 -0.0342 -0.6416
  726MOL0     C95753  10.523   5.420   3.622  0.6160 -0.1290  0.2461
  726MOL0     C95754  10.477   5.679   3.276  0.3165 -0.1777  0.6151
  726MOL0     C95755  10.549   5.635   3.157  0.5074  0.4718  0.5139
  726MOL0     C95756  10.521   5.688   3.031  0.2933 -0.0390 -0.2985
  726MOL0     C95757  10.412   5.778   3.011  0.3113 -0.0862  0.8698
  726MOL0     O95758  10.394   5.824   2.883 -0.5995  0.8033  0.3290
  726MOL0     C95759  10.311   5.949   2.877 -0.3353 -0.1636  0.3530
  726MOL0     C95760  10.357   6.024   2.743  0.3117  0.1257 -0.1358
  726MOL0     C95761  10.246   6.126   2.699 -0.8479 -0.4433  0.4592
  726MOL0     C95762  10.309   6.207   2.576 -0.2907  0.3100 -0.1573
  726MOL0     C95763  10.385   6.326   2.608  0.0467 -0.1667 -0.7264
  726MOL0     C95764  10.439   6.432   2.632  0.4453  0.6946  0.8080
  726MOL0     C95765  10.329   5.804   3.122 -0.1928  0.2960  0.8466
  726MOL0     C95766  10.366   5.768   3.254  0.4623  0.2533  0.9757
  726MOL0     H95767  10.711   5.294   3.374 -2.1639 -1.4475 -0.1185
  726MOL0     H95768  10.781   5.130   3.543  0.5639 -1.3062  1.8165
  726MOL0     H95769  10.859   5.252   3.827 -0.8918  0.7686  0.3766
  726MOL0     H95770  10.884   5.078   3.792  1.8935  1.3044  1.5654
  726MOL0     H95771  10.770   5.046   4.021  0.1569  0.7210 -0.9775
  726MOL0     H95772  10.743   5.202   4.047 -0.6106 -0.4917  0.8444
  726MOL0     H95773  11.026   5.096   3.984 -0.8172 -0.3111 -0.6853
  726MOL0     H95774  10.961   5.112   4.148 -2.2114  0.3121 -0.0782
  726MOL0     H95775  10.956   5.357   3.970  0.4724  1.0238  0.1857
  726MOL0     H95776  10.964   5.334   4.151 -3.0496  4.5301 -1.8789
  726MOL0     H95777  11.167   5.307   3.925  1.9817 -4.2773 -0.1612
  726MOL0     H95778  11.203   5.256   4.100 -0.0519  1.0178 -0.2161
  726MOL0     H95779  11.304   5.461   4.060 -0.1607  0.7911 -1.8869
  726MOL0     H95780  11.196   5.458   4.192 -2.3257  0.8531 -0.8955
  726MOL0     H95781  11.096   5.557   3.923 -0.8848 -2.1063  0.7106
  726MOL0     H95782  11.042   5.615   4.071 -1.0832  1.1041 -2.6669
  726MOL0     H95783  11.270   5.738   4.123 -0.7770  2.2644 -0.0332
  726MOL0     H95784  11.163   5.800   4.011  2.1769  1.2710  1.3030
  726MOL0     H95785  11.227   5.786   3.732  0.3169 -2.1651  0.2738
  726MOL0     H95786  11.528   5.815   3.554 -0.3096  0.2672 -0.1674
  726MOL0     H95787  11.362   5.746   3.518  0.9660 -0.1220 -1.3303
  726MOL0     H95788  11.599   5.573   3.599 -1.9306 -0.5216  1.6592
  726MOL0     H95789  11.549   5.622   3.422 -0.2382  1.0829  0.7072
  726MOL0     H95790  11.413   5.445   3.633 -1.4266  1.3233 -0.5649
  726MOL0     H95791  11.322   5.506   3.499  0.4529  2.8752  1.5063
  726MOL0     H95792  11.404   5.275   3.459 -2.4597  1.5029 -1.3176
  726MOL0     H95793  11.567   5.332   3.483  2.5696  2.3729 -2.2356
  726MOL0     H95794  11.548   5.107   3.357  1.6466  0.1026  0.2910
  726MOL0     H95795  11.546   4.939   3.162 -5.8514 -1.1202 -1.0233
  726MOL0     H95796  11.699   4.812   2.794 -0.5696 -4.1687  0.1207
  726MOL0     H95797  11.785   4.688   2.604 -2.0490  0.0197  2.5056
  726MOL0     H95798  11.691   4.821   2.151 -1.8653 -0.6514 -1.7667
  726MOL0     H95799  11.558   4.738   2.244 -0.4977 -0.2524 -0.8403
  726MOL0     H95800  11.651   4.608   2.059 -0.1484 -3.4689  0.2015
  726MOL0     H95801  11.699   4.535   2.214  0.2433  0.2656  1.3972
  726MOL0     H95802  11.936   4.658   2.174 -0.4965 -2.2536  1.8483
  726MOL0     H95803  11.860   4.699   2.020 -0.5874  1.4354  1.2231
  726MOL0     H95804  11.923   4.436   2.156  4.1749  1.6620  1.0901
  726MOL0     H95805  11.819   4.438   2.014  3.0831 -3.1772 -0.6897
  726MOL0     H95806  12.042   4.549   1.907  3.5600 -2.4409 -0.9330
  726MOL0     H95807  12.044   4.375   1.941 -1.3610 -1.6424  2.3530
  726MOL0     H95808  12.163   4.405   2.147 -0.2836 -1.7023 -3.0864
  726MOL0     H95809  12.138   4.580   2.161  0.3505 -0.4780  0.9860
  726MOL0     H95810  12.263   4.605   1.956  1.1554  4.0769  2.2257
  726MOL0     H95811  12.361   4.556   2.101 -0.0260 -3.4700  0.3448
  726MOL0     H95812  12.438   4.438   1.878  1.0803  0.3455  0.7590
  726MOL0     H95813  12.288   4.366   1.874  0.5534  0.5850 -1.2271
  726MOL0     H95814  11.586   4.986   2.343  0.1447  0.5879  0.2715
  726MOL0     H95815  11.529   5.108   2.532  0.2964  0.4566  0.9306
  726MOL0     H95816  11.460   5.250   2.880 -3.5783 -2.4306 -0.2141
  726MOL0     H95817  11.453   5.413   3.054  1.3175 -0.9943  0.1110
  726MOL0     H95818  10.482   5.336   3.807  2.6247  1.6170  0.6006
  726MOL0     H95819  10.455   5.503   3.637  0.4219  0.8880 -4.5153
  726MOL0     H95820  10.625   5.557   3.153  1.7717  1.6998 -2.4833
  726MOL0     H95821  10.579   5.663   2.943 -1.6259  3.5704 -2.8634
  726MOL0     H95822  10.325   6.014   2.963 -1.2762  0.8245 -0.2053
  726MOL0     H95823  10.205   5.921   2.871 -0.5461  0.8511 -1.4890
  726MOL0     H95824  10.443   6.087   2.767 -0.1575  0.4616  0.7371
  726MOL0     H95825  10.362   5.959   2.655  0.3058  1.9260 -1.5213
  726MOL0     H95826  10.197   6.188   2.774  0.1047  1.7535 -0.6245
  726MOL0     H95827  10.166   6.067   2.653 -1.2196  1.1882 -1.1313
  726MOL0     H95828  10.367   6.141   2.510  0.0150  1.9403 -1.5979
  726MOL0     H95829  10.233   6.256   2.513  2.8425  3.3862 -1.9425
  726MOL0     H95830  10.481   6.522   2.673  0.8462  1.1291 -0.5142
  726MOL0     H95831  10.242   5.865   3.099 -0.1328  0.5429  1.2631
  726MOL0     H95832  10.306   5.815   3.332 -0.6614 -1.6177  1.3025
  727MOL0     O95833   9.140   3.038   9.621 -0.3271  0.4949  0.1586
  727MOL0     C95834   9.077   3.097   9.533 -0.6739 -0.0687  0.3489
  727MOL0     O95835   9.003   3.208   9.557  0.9822 -0.0152 -0.9595
  727MOL0     C95836   9.012   3.266   9.680  0.1092  0.1612  0.0392
  727MOL0     C95837   8.897   3.270   9.758 -0.8101 -0.6491  0.5591
  727MOL0     C95838   8.897   3.323   9.888  0.3684 -0.2887  0.9217
  727MOL0     C95839   9.010   3.375   9.942  0.0458  0.7273 -0.4693
  727MOL0     O95840   9.004   3.439  10.065  0.0827 -0.3891 -0.7731
  727MOL0     C95841   9.037   3.366  10.182 -0.3295  0.2800  0.1081
  727MOL0     C95842   9.046   3.461  10.304  0.2574  0.3872  0.5492
  727MOL0     C95843   9.157   3.429  10.395  0.0299  0.2156  0.3325
  727MOL0     C95844   9.158   3.539  10.500  0.2150  0.3566  0.2818
  727MOL0     C95845   9.258   3.496  10.607  0.8261  0.1708  0.2037
  727MOL0     C95846   9.324   3.626  10.667  0.3989 -0.6013 -0.1971
  727MOL0     C95847   9.427   3.693  10.576  0.0339  0.6200  0.4546
  727MOL0     C95848   9.489   3.817  10.653  0.0890  0.6859 -0.1489
  727MOL0     N95849   9.567   3.772  10.761  0.4223 -0.5723 -0.2844
  727MOL0     C95850   9.691   3.704  10.755 -0.4472 -0.5754 -0.6299
  727MOL0     C95851   9.754   3.721  10.874  0.0357 -0.6727  0.4164
  727MOL0     C95852   9.897   3.678  10.920 -0.2141  0.1371 -0.3915
  727MOL0     C95853  10.000   3.709  10.822 -1.3597 -0.5103 -0.2607
  727MOL0     C95854  10.038   3.860  10.797  0.2381  0.7423 -0.1579
  727MOL0     C95855  10.171   3.872  10.722  0.9271  0.1997  0.2262
  727MOL0     O95856  10.278   3.826  10.803  0.0078 -0.4553  0.2421
  727MOL0     C95857  10.407   3.837  10.755  0.2035 -0.3143 -0.0885
  727MOL0     C95858  10.502   3.755  10.820  0.0285  0.6431 -0.1799
  727MOL0     C95859  10.631   3.767  10.773  0.3057  0.2315  0.7596
  727MOL0     C95860  10.667   3.859  10.678  0.0330 -0.3000 -0.5734
  727MOL0     C95861  10.804   3.861  10.623  0.0424 -0.0509 -0.8915
  727MOL0     O95862  10.812   3.912  10.494  0.4319 -0.5461 -0.7619
  727MOL0     C95863  10.935   3.922  10.439 -0.1412 -0.9707  0.1603
  727MOL0     C95864  11.037   3.993  10.499 -0.0654 -0.5365 -0.2184
  727MOL0     C95865  11.168   3.992  10.453 -0.2501  0.6544 -0.4445
  727MOL0     C95866  11.200   3.907  10.344  0.7787 -0.3394  0.2035
  727MOL0     O95867  11.330   3.902  10.301 -1.3655 -0.4219 -0.5661
  727MOL0     C95868  11.353   3.853  10.157 -0.3377 -0.2084  0.5835
  727MOL0     C95869  11.490   3.913  10.112  0.1870 -0.5816 -0.1595
  727MOL0     C95870  11.515   3.903   9.965 -0.2885  0.0507 -0.6998
  727MOL0     C95871  11.621   4.004   9.920  0.3255  0.2359 -0.1418
  727MOL0     C95872  11.668   3.963   9.782 -0.8826 -0.8263 -0.1840
  727MOL0     C95873  11.788   4.041   9.747 -0.0493 -0.4354  0.2863
  727MOL0     C95874  11.842   3.996   9.608  0.1674 -0.1241 -0.7856
  727MOL0     C95875  11.965   4.068   9.556  0.2475  0.8464  0.1028
  727MOL0    Cl95876  11.940   4.244   9.534  0.6701 -0.4875 -0.3174
  727MOL0     C95877  11.095   3.837  10.273  0.6728  0.2642  0.5229
  727MOL0     C95878  10.969   3.846  10.321  0.4332 -0.3831  0.2131
  727MOL0     O95879  10.888   3.809  10.694 -0.1197  0.2424 -0.7468
  727MOL0     C95880  10.575   3.950  10.627 -0.2748 -0.2109  0.8061
  727MOL0     C95881  10.446   3.939  10.673 -0.2604 -1.3807  0.3163
  727MOL0     N95882   9.655   3.781  10.952 -0.4001 -0.9830 -0.1918
  727MOL0     N95883   9.545   3.808  10.885  0.6796 -0.6271  0.5646
  727MOL0     C95884   9.127   3.369   9.868  0.3631  1.4942 -0.0103
  727MOL0     C95885   9.132   3.319   9.737 -0.5765  0.0919  0.1604
  727MOL0     C95886   9.070   3.032   9.400  0.8340  0.5819  0.0915
  727MOL0     C95887   9.130   2.903   9.381  0.8101  0.2044  0.2671
  727MOL0     C95888   9.133   2.846   9.253 -0.1136 -0.6648  0.2459
  727MOL0     C95889   9.054   2.913   9.153 -1.1244  0.7211  0.3775
  727MOL0     O95890   9.057   2.842   9.035  0.8749 -0.2275  0.5084
  727MOL0     C95891   8.954   2.872   8.938 -0.1488 -0.0761  0.1684
  727MOL0     C95892   8.814   2.798   8.956 -0.7054  0.3215 -0.1806
  727MOL0     C95893   8.827   2.662   8.888 -0.8401 -0.3210  0.4948
  727MOL0     C95894   8.687   2.586   8.880 -0.0699  0.5300 -1.5421
  727MOL0     C95895   8.598   2.667   8.795 -0.8398  0.1286 -0.0815
  727MOL0     C95896   8.543   2.751   8.724 -0.6498 -0.6131 -0.2746
  727MOL0     C95897   9.011   3.038   9.175  0.5676 -0.5546 -0.5228
  727MOL0     C95898   9.010   3.098   9.293 -0.3874 -0.7213  0.9951
  727MOL0     H95899   8.810   3.236   9.703  1.8844 -0.8497 -4.0883
  727MOL0     H95900   8.811   3.345   9.951 -1.3766  3.2068 -2.2740
  727MOL0     H95901   9.126   3.304  10.170 -1.5329 -1.3408 -0.8989
  727MOL0     H95902   8.957   3.291  10.185 -0.5199  0.5050  0.8170
  727MOL0     H95903   8.946   3.476  10.346 -0.4317 -0.2077 -0.7906
  727MOL0     H95904   9.070   3.555  10.254  1.0232 -0.6126 -1.0454
  727MOL0     H95905   9.247   3.412  10.334 -1.0274 -2.6818 -0.6000
  727MOL0     H95906   9.124   3.339  10.446 -0.5830 -0.2105 -0.7670
  727MOL0     H95907   9.197   3.631  10.455 -0.8001  0.4979 -0.3423
  727MOL0     H95908   9.064   3.570  10.547  1.0493  2.4919  0.6818
  727MOL0     H95909   9.346   3.457  10.555 -0.1508  0.5370 -1.8530
  727MOL0     H95910   9.223   3.426  10.683  1.7049  0.4225  0.8538
  727MOL0     H95911   9.372   3.596  10.761 -0.2305  0.2949  0.4230
  727MOL0     H95912   9.241   3.696  10.683  1.0801  0.4245 -1.0255
  727MOL0     H95913   9.514   3.629  10.556  2.2064  3.6121 -0.3830
  727MOL0     H95914   9.387   3.729  10.481  1.7915 -1.6819 -1.2769
  727MOL0     H95915   9.418   3.880  10.707 -1.2536 -1.2122  0.3920
  727MOL0     H95916   9.560   3.869  10.587  0.2736 -0.3828 -0.8235
  727MOL0     H95917   9.738   3.647  10.676  0.0373  1.1091 -1.5957
  727MOL0     H95918   9.891   3.571  10.944  1.3973 -0.1843 -1.3090
  727MOL0     H95919   9.917   3.726  11.016 -1.6555 -2.4821  1.3601
  727MOL0     H95920   9.967   3.667  10.727 -0.6407 -2.7449  0.4337
  727MOL0     H95921  10.086   3.651  10.855  0.1571  3.1091  2.9369
  727MOL0     H95922   9.962   3.903  10.732 -1.5743 -0.8360  0.8197
  727MOL0     H95923  10.048   3.911  10.893  1.2232 -1.1012  0.7657
  727MOL0     H95924  10.172   3.979  10.696 -0.7925  0.6136  1.6643
  727MOL0     H95925  10.162   3.819  10.627  3.5167 -0.5298  0.3149
  727MOL0     H95926  10.475   3.679  10.893 -0.7579  3.3383  2.5443
  727MOL0     H95927  10.711   3.699  10.799  0.3962 -0.9215 -2.1700
  727MOL0     H95928  11.007   4.042  10.591  1.4098 -1.8217  0.9970
  727MOL0     H95929  11.249   4.058  10.482  0.5217 -0.5111  0.1221
  727MOL0     H95930  11.278   3.897  10.091 -0.1608  0.5091  0.8482
  727MOL0     H95931  11.348   3.743  10.156  1.8543 -0.3471 -0.3289
  727MOL0     H95932  11.580   3.890  10.170  1.9719  4.0060 -0.7569
  727MOL0     H95933  11.483   4.017  10.143 -1.6559 -0.9039  0.6048
  727MOL0     H95934  11.426   3.940   9.914  0.5782  1.4540 -1.2594
  727MOL0     H95935  11.543   3.800   9.940 -1.1215 -0.9595  2.1188
  727MOL0     H95936  11.592   4.107   9.943  2.5264  0.2642  3.2033
  727MOL0     H95937  11.713   3.993   9.979  0.6658  0.9169 -0.5419
  727MOL0     H95938  11.593   3.961   9.703 -0.0513 -3.9276 -1.0047
  727MOL0     H95939  11.709   3.863   9.794  0.9608 -0.4624 -2.5529
  727MOL0     H95940  11.873   4.035   9.816 -0.7077  2.0259  1.4138
  727MOL0     H95941  11.760   4.147   9.747 -2.5175 -1.0299  0.9370
  727MOL0     H95942  11.871   3.890   9.603  2.0393  0.2375  0.9914
  727MOL0     H95943  11.752   4.001   9.547  0.4420  1.0067 -1.1120
  727MOL0     H95944  11.989   4.013   9.464  0.3939 -1.1924  1.3086
  727MOL0     H95945  12.046   4.065   9.630  0.3743 -1.1469 -0.0811
  727MOL0     H95946  11.117   3.763  10.196 -0.1582  1.9056 -1.3974
  727MOL0     H95947  10.896   3.778  10.277  1.3163 -1.0308 -0.2870
  727MOL0     H95948  10.600   4.025  10.553 -4.5289 -1.3391 -2.1530
  727MOL0     H95949  10.383   4.019  10.638  2.3313  0.0516 -1.4610
  727MOL0     H95950   9.219   3.412   9.906  0.4549 -0.1460  1.7556
  727MOL0     H95951   9.228   3.315   9.685 -2.4003 -0.7382 -3.4639
  727MOL0     H95952   9.166   2.836   9.458  0.1860 -1.5460 -0.9045
  727MOL0     H95953   9.178   2.747   9.249  2.9377  0.6073  0.3812
  727MOL0     H95954   8.996   2.844   8.841  0.6369  1.5892  0.0043
  727MOL0     H95955   8.948   2.980   8.926 -0.0308  0.4598  3.9218
  727MOL0     H95956   8.794   2.787   9.063  1.3488 -0.3009  0.1985
  727MOL0     H95957   8.740   2.868   8.917 -0.0705  0.1092 -1.8393
  727MOL0     H95958   8.886   2.610   8.964 -1.9538 -0.4344  1.3122
  727MOL0     H95959   8.879   2.661   8.793 -0.7359 -0.9852  0.5576
  727MOL0     H95960   8.707   2.487   8.837 -1.9028 -0.1503 -0.9507
  727MOL0     H95961   8.639   2.592   8.978 -3.0423 -0.3077 -2.8087
  727MOL0     H95962   8.486   2.834   8.688  0.0670  1.7808  3.5507
  727MOL0     H95963   8.964   3.088   9.091 -0.6154 -1.6938 -0.5595
  727MOL0     H95964   8.968   3.198   9.301  1.4251  0.2260 -0.4316
  728MOL0     O95965   9.123   5.907   9.754 -0.4720 -0.1402  0.2804
  728MOL0     C95966   9.052   5.812   9.726  0.1670  0.8629  0.7093
  728MOL0     O95967   9.039   5.765   9.598  0.1947 -0.1830 -0.1352
  728MOL0     C95968   9.052   5.866   9.500 -0.6490  1.2402 -0.2060
  728MOL0     C95969   8.998   5.991   9.517 -0.4862  0.0230  0.0152
  728MOL0     C95970   9.009   6.091   9.427  0.3969 -0.3370  0.2396
  728MOL0     C95971   9.083   6.070   9.309 -0.3741 -0.3295 -0.6113
  728MOL0     O95972   9.107   6.171   9.220 -0.0172 -0.2218  0.5358
  728MOL0     C95973   9.023   6.285   9.209  0.9392 -0.2535  0.2790
  728MOL0     C95974   9.072   6.410   9.267 -1.0931 -0.6998 -0.1485
  728MOL0     C95975   9.203   6.450   9.203 -0.3889 -0.4209  0.1543
  728MOL0     C95976   9.264   6.566   9.288  0.2676 -0.4189  0.5881
  728MOL0     C95977   9.380   6.629   9.210 -0.0738 -0.2533 -0.7032
  728MOL0     C95978   9.510   6.563   9.226  0.3221 -0.1147  0.0221
  728MOL0     C95979   9.642   6.645   9.208  0.2209  0.0928 -0.3969
  728MOL0     C95980   9.650   6.757   9.318  0.5605 -0.1172 -0.5832
  728MOL0     N95981   9.786   6.818   9.304  0.4398  0.0268  0.2026
  728MOL0     C95982   9.903   6.756   9.334 -0.2325 -0.2433 -0.2457
  728MOL0     C95983  10.003   6.853   9.321  0.3653  0.3875 -0.1870
  728MOL0     C95984  10.146   6.814   9.319  0.0580  0.5692  0.0295
  728MOL0     C95985  10.176   6.688   9.404 -0.3790 -0.2935  0.5497
  728MOL0     C95986  10.322   6.659   9.404 -0.1817 -0.2376 -0.0917
  728MOL0     C95987  10.376   6.559   9.506 -0.1862 -0.1006  0.3846
  728MOL0     O95988  10.284   6.457   9.538 -0.2962  0.3072 -0.2341
  728MOL0     C95989  10.313   6.391   9.664  0.4812  0.4122 -0.7904
  728MOL0     C95990  10.204   6.346   9.743  0.8210  0.3902  0.5107
  728MOL0     C95991  10.223   6.291   9.872 -0.5142 -0.2852 -0.1971
  728MOL0     C95992  10.351   6.251   9.911 -0.2299  0.0005  0.7477
  728MOL0     C95993  10.375   6.182  10.041 -0.0145  0.3551  0.1893
  728MOL0     O95994  10.264   6.142  10.114  0.1283  0.1164  0.1684
  728MOL0     C95995  10.256   6.029  10.193  0.2225 -0.0718  0.1661
  728MOL0     C95996  10.348   5.923  10.181 -0.4878 -0.3503 -0.0686
  728MOL0     C95997  10.339   5.815  10.270  0.2295 -0.2578  0.1826
  728MOL0     C95998  10.240   5.812  10.374 -0.2121  0.0434  0.1734
  728MOL0     O95999  10.218   5.704  10.462 -0.3464  0.7896  0.2360
  728MOL0     C96000  10.294   5.582  10.445  0.5888 -0.6996  0.9377
  728MOL0     C96001  10.216   5.495  10.344 -0.2206  0.8019 -0.2064
  728MOL0     C96002  10.292   5.365  10.335 -0.2878  0.3247  0.2641
  728MOL0     C96003  10.419   5.371  10.255  0.3210  0.3612 -0.2073
  728MOL0     C96004  10.406   5.357  10.103 -0.4897  0.7637  0.9988
  728MOL0     C96005  10.536   5.385  10.030  0.3571 -0.6130 -0.0358
  728MOL0     C96006  10.545   5.333   9.882  0.0610  0.2217 -0.4997
  728MOL0     C96007  10.683   5.354   9.839 -0.0727  0.4397  0.8511
  728MOL0    Cl96008  10.731   5.524   9.840  0.5079 -0.2650 -0.0510
  728MOL0     C96009  10.144   5.915  10.374  0.6598  0.4112 -0.3447
  728MOL0     C96010  10.151   6.023  10.287 -0.4188  0.1934 -0.0697
  728MOL0     O96011  10.492   6.158  10.068  0.4263 -0.0574 -0.7685
  728MOL0     C96012  10.461   6.290   9.827  0.6799 -0.1080  0.0465
  728MOL0     C96013  10.438   6.359   9.709  0.3397 -0.9733 -0.7004
  728MOL0     N96014   9.941   6.970   9.286 -0.1368 -0.3459  0.4629
  728MOL0     N96015   9.811   6.943   9.278 -0.0092  0.4053  0.2493
  728MOL0     C96016   9.148   5.951   9.299 -0.7478 -0.2259  0.1190
  728MOL0     C96017   9.143   5.851   9.391  0.4370 -0.0942  0.0611
  728MOL0     C96018   8.998   5.732   9.838  0.4266  0.7342  0.0049
  728MOL0     C96019   8.988   5.590   9.816 -0.5117 -0.8674  1.5805
  728MOL0     C96020   8.941   5.513   9.926 -0.3582  1.0786 -0.6050
  728MOL0     C96021   8.913   5.569  10.047 -0.6039 -0.6480 -0.1353
  728MOL0     O96022   8.859   5.475  10.141 -0.7209 -1.1606  0.0612
  728MOL0     C96023   8.810   5.534  10.268 -0.6709  0.8032  0.2172
  728MOL0     C96024   8.664   5.570  10.258  0.0584 -0.3073  0.1929
  728MOL0     C96025   8.573   5.446  10.262 -0.0083  0.5158 -0.3974
  728MOL0     C96026   8.431   5.469  10.245  0.2781 -0.0613  1.7897
  728MOL0     C96027   8.390   5.547  10.363  0.2211  0.6231  0.6937
  728MOL0     C96028   8.347   5.609  10.460  0.3488 -0.2691 -0.3934
  728MOL0     C96029   8.941   5.704  10.072 -0.3900  0.7671  0.0382
  728MOL0     C96030   8.975   5.789   9.961  0.0178 -0.1603  0.0036
  728MOL0     H96031   8.943   6.023   9.605  0.5709 -2.0227  1.5288
  728MOL0     H96032   8.952   6.181   9.449 -1.8284 -1.5721 -0.2435
  728MOL0     H96033   8.922   6.274   9.249  0.3910  0.0194 -0.9771
  728MOL0     H96034   9.009   6.303   9.102 -3.0031  0.0980  0.7091
  728MOL0     H96035   9.067   6.408   9.376  0.4760 -1.7668 -0.0769
  728MOL0     H96036   8.998   6.480   9.227 -0.5892 -0.2302 -0.2698
  728MOL0     H96037   9.196   6.485   9.100  1.0969  0.3249  0.2748
  728MOL0     H96038   9.274   6.367   9.213 -0.1116 -0.7695 -3.5173
  728MOL0     H96039   9.177   6.632   9.297  0.5771  0.3226 -1.2960
  728MOL0     H96040   9.298   6.519   9.381 -1.0795 -1.1590  0.7275
  728MOL0     H96041   9.381   6.734   9.243 -2.4181  0.5033 -2.6652
  728MOL0     H96042   9.338   6.638   9.109 -3.3468 -1.9399  0.3534
  728MOL0     H96043   9.515   6.477   9.158 -2.6756 -2.7928  2.8587
  728MOL0     H96044   9.504   6.519   9.326 -0.0279 -0.2973 -0.0758
  728MOL0     H96045   9.726   6.575   9.209 -1.1578 -1.6538 -1.3187
  728MOL0     H96046   9.631   6.697   9.112 -0.4304  3.3305  1.2978
  728MOL0     H96047   9.621   6.718   9.416  2.1697  1.0961  0.4325
  728MOL0     H96048   9.574   6.833   9.296 -1.2209 -0.7735  2.6822
  728MOL0     H96049   9.910   6.650   9.358 -0.2283 -0.8311 -2.6175
  728MOL0     H96050  10.207   6.899   9.349  1.9822 -0.6273 -0.3453
  728MOL0     H96051  10.169   6.795   9.214  2.8058 -0.5979  0.7603
  728MOL0     H96052  10.115   6.604   9.369 -1.8808 -0.7615  3.9632
  728MOL0     H96053  10.160   6.708   9.510  0.4996  0.8557  0.4859
  728MOL0     H96054  10.361   6.623   9.308 -2.0239 -1.1992 -0.5114
  728MOL0     H96055  10.380   6.750   9.424  2.2638  0.1843 -6.6803
  728MOL0     H96056  10.415   6.606   9.597 -2.8759 -0.4230  1.7995
  728MOL0     H96057  10.460   6.509   9.457 -1.3731 -0.7980 -1.0173
  728MOL0     H96058  10.105   6.366   9.702  1.0656 -2.4817 -1.7441
  728MOL0     H96059  10.135   6.283   9.935  0.1353 -1.5435  0.5769
  728MOL0     H96060  10.424   5.915  10.104  2.0639 -1.4413  2.4329
  728MOL0     H96061  10.405   5.733  10.244 -0.6852 -0.9685  0.0676
  728MOL0     H96062  10.294   5.555  10.551  0.5868  3.2040  2.1058
  728MOL0     H96063  10.400   5.592  10.420  0.6698 -1.0129  1.1499
  728MOL0     H96064  10.201   5.541  10.245 -1.0019  0.7657 -0.1103
  728MOL0     H96065  10.116   5.478  10.385  0.2820  2.1755  1.7453
  728MOL0     H96066  10.223   5.289  10.296  3.0475 -1.0776 -3.5346
  728MOL0     H96067  10.314   5.327  10.435 -3.1006 -0.1972  0.7782
  728MOL0     H96068  10.472   5.465  10.275 -0.9588  0.4182  3.5468
  728MOL0     H96069  10.478   5.287  10.293  0.2908  1.7009  3.1367
  728MOL0     H96070  10.327   5.425  10.068  0.3333  0.7082 -1.1047
  728MOL0     H96071  10.376   5.256  10.075 -1.8067  1.8193 -1.7885
  728MOL0     H96072  10.621   5.342  10.084  0.6201 -3.0337 -2.1955
  728MOL0     H96073  10.540   5.494  10.035 -0.7002 -0.5734  0.3158
  728MOL0     H96074  10.519   5.228   9.892 -0.3707 -0.0135 -3.2098
  728MOL0     H96075  10.479   5.387   9.814  1.2118  0.9180 -1.1011
  728MOL0     H96076  10.699   5.314   9.739  0.5332  0.3322  0.9870
  728MOL0     H96077  10.746   5.287   9.899 -0.0807 -0.4085 -0.0779
  728MOL0     H96078  10.070   5.901  10.451  2.9451 -2.4085  1.5268
  728MOL0     H96079  10.076   6.101  10.291 -1.0330 -0.4251  1.4182
  728MOL0     H96080  10.561   6.252   9.842  0.3272 -1.2094 -0.3019
  728MOL0     H96081  10.529   6.377   9.652  2.2210 -0.4357  2.2796
  728MOL0     H96082   9.218   5.937   9.218 -2.0202  2.1505 -1.4947
  728MOL0     H96083   9.190   5.754   9.380 -3.2005 -2.0596  0.3743
  728MOL0     H96084   9.005   5.544   9.720  0.8073 -1.4808  2.0809
  728MOL0     H96085   8.906   5.413   9.903 -0.7128  1.4562 -1.7770
  728MOL0     H96086   8.866   5.620  10.304 -0.0851  0.4257  0.2291
  728MOL0     H96087   8.833   5.465  10.349  2.1976  1.3424 -0.0555
  728MOL0     H96088   8.644   5.617  10.354 -1.3302  0.0646 -0.2524
  728MOL0     H96089   8.635   5.631  10.172 -0.1176 -0.3354  0.2310
  728MOL0     H96090   8.581   5.379  10.348 -3.4580  0.9839  0.4141
  728MOL0     H96091   8.596   5.374  10.182 -1.8768 -0.3425 -0.2083
  728MOL0     H96092   8.420   5.525  10.152  3.7046 -1.1573  0.5643
  728MOL0     H96093   8.371   5.378  10.243  0.0696  0.0497 -1.5343
  728MOL0     H96094   8.295   5.663  10.536 -0.9760 -1.5827 -0.3272
  728MOL0     H96095   8.933   5.756  10.167 -0.4865 -0.8781  0.9685
  728MOL0     H96096   8.992   5.895   9.977  0.2154  0.0042 -1.1654
  729MOL0     O96097   0.009   4.528   8.758 -0.2978 -0.3784  1.0270
  729MOL0     C96098   0.076   4.625   8.794  0.2829 -0.3501 -1.1486
  729MOL0     O96099   0.063   4.679   8.924 -0.6857  0.1534 -0.0858
  729MOL0     C96100  -0.020   4.620   9.017  0.6866  0.8453 -0.0827
  729MOL0     C96101  -0.030   4.477   9.049 -0.4634 -1.1696  0.3187
  729MOL0     C96102  -0.123   4.424   9.129  0.3786  0.9070 -0.3740
  729MOL0     C96103  -0.208   4.511   9.198  0.2380 -0.1879  0.5791
  729MOL0     O96104  -0.298   4.465   9.286  0.2007 -0.4711 -0.7321
  729MOL0     C96105  -0.382   4.364   9.234  0.6590 -0.8415 -0.4909
  729MOL0     C96106  -0.508   4.342   9.316 -0.5180  0.4149  0.7723
  729MOL0     C96107  -0.594   4.467   9.338 -0.6436 -0.0850  0.4648
  729MOL0     C96108  -0.739   4.420   9.369 -0.8895 -0.0593 -0.2381
  729MOL0     C96109  -0.846   4.513   9.331 -0.6115  0.8284  0.8239
  729MOL0     C96110  -0.982   4.483   9.416 -0.3240 -0.8933 -0.4657
  729MOL0     C96111  -1.090   4.552   9.323 -0.8247  0.2574  0.0244
  729MOL0     C96112  -1.218   4.546   9.399  0.1211  0.0052 -0.2453
  729MOL0     N96113  -1.283   4.417   9.409  1.1969  0.4208 -0.3931
  729MOL0     C96114  -1.382   4.388   9.320 -0.0202 -0.0738 -1.1488
  729MOL0     C96115  -1.408   4.253   9.331  0.0095 -0.1433 -0.4337
  729MOL0     C96116  -1.504   4.187   9.233 -0.1936 -0.2834  0.3252
  729MOL0     C96117  -1.648   4.171   9.291 -0.6605  0.1001  0.0761
  729MOL0     C96118  -1.647   4.078   9.420  0.1447 -1.2227 -0.3209
  729MOL0     C96119  -1.788   4.047   9.471 -0.6572 -0.7090  0.2037
  729MOL0     O96120  -1.849   4.172   9.491  0.0026 -0.7787 -0.0341
  729MOL0     C96121  -1.983   4.175   9.497  0.1783  0.6066  0.8853
  729MOL0     C96122  -2.054   4.185   9.622 -0.4939  1.0894  0.4461
  729MOL0     C96123  -2.191   4.196   9.624  0.5661 -0.2130 -0.2951
  729MOL0     C96124  -2.268   4.200   9.500 -0.6119  0.3120 -0.3812
  729MOL0     C96125  -2.416   4.199   9.485  0.4401  0.3971  0.3381
  729MOL0     O96126  -2.493   4.156   9.588 -0.6104  0.2229  0.0502
  729MOL0     C96127  -2.628   4.161   9.585 -0.6406 -0.6662 -0.1023
  729MOL0     C96128  -2.715   4.142   9.476  0.4428  0.6166  0.4251
  729MOL0     C96129  -2.855   4.160   9.487  0.4934  0.1615 -0.0286
  729MOL0     C96130  -2.911   4.196   9.607 -0.2766  0.1169  0.8867
  729MOL0     O96131  -3.047   4.200   9.608  1.2470 -0.6321 -0.3274
  729MOL0     C96132  -3.114   4.273   9.718 -0.4015 -0.3860  1.0959
  729MOL0     C96133  -3.133   4.420   9.704  0.0408  0.5210 -0.6969
  729MOL0     C96134  -3.062   4.505   9.794 -0.6319  0.0132  0.1135
  729MOL0     C96135  -3.068   4.653   9.784 -0.6244 -1.0850 -0.2377
  729MOL0     C96136  -3.172   4.713   9.882 -0.2769  0.6233  0.7684
  729MOL0     C96137  -3.131   4.854   9.914  0.0660 -1.0704  0.0446
  729MOL0     C96138  -3.099   4.858  10.065 -0.3224 -0.8156  0.1403
  729MOL0     C96139  -3.011   4.979  10.104 -0.2790 -0.1993 -0.0525
  729MOL0    Cl96140  -3.093   5.128  10.060 -0.4866  0.0995  0.1886
  729MOL0     C96141  -2.830   4.202   9.721  0.8229  0.7447  0.5420
  729MOL0     C96142  -2.687   4.200   9.706 -0.0026  0.0360 -0.5969
  729MOL0     O96143  -2.460   4.241   9.377  0.4288  0.3571 -0.0029
  729MOL0     C96144  -2.189   4.193   9.374 -0.0333  0.1530 -0.1255
  729MOL0     C96145  -2.055   4.180   9.379 -0.3085 -0.3785 -0.6887
  729MOL0     N96146  -1.324   4.204   9.434 -0.3619  0.2908 -0.0711
  729MOL0     N96147  -1.235   4.299   9.461 -0.4592  0.2390 -0.6606
  729MOL0     C96148  -0.205   4.651   9.168  0.2768 -0.0874  0.7302
  729MOL0     C96149  -0.105   4.701   9.082  0.1939  0.0886  0.9959
  729MOL0     C96150   0.159   4.697   8.693 -0.2296 -0.1517 -0.4212
  729MOL0     C96151   0.185   4.646   8.569 -0.3168 -0.0873  0.2069
  729MOL0     C96152   0.262   4.715   8.476  0.1240  0.7391 -0.5287
  729MOL0     C96153   0.314   4.842   8.502  0.6998  0.2157 -0.3977
  729MOL0     O96154   0.385   4.895   8.395 -0.2194 -0.3029 -0.6147
  729MOL0     C96155   0.423   5.038   8.388 -0.7078 -0.3308 -0.4262
  729MOL0     C96156   0.569   5.044   8.439  0.1613  0.8452 -1.1248
  729MOL0     C96157   0.632   5.188   8.449 -0.1189 -0.6546 -0.4346
  729MOL0     C96158   0.632   5.262   8.313 -0.1875 -0.1679 -0.0815
  729MOL0     C96159   0.666   5.179   8.197 -0.1849  0.8855 -0.2738
  729MOL0     C96160   0.657   5.117   8.089  0.3987 -0.6665  0.6274
  729MOL0     C96161   0.287   4.896   8.627 -0.0253  0.5299  0.4500
  729MOL0     C96162   0.200   4.828   8.720 -0.4020  0.7123  0.3853
  729MOL0     H96163   0.049   4.423   8.997 -0.8159 -2.0056  0.6253
  729MOL0     H96164  -0.111   4.319   9.153 -0.0676  1.1328  0.9674
  729MOL0     H96165  -0.330   4.269   9.244  0.1906 -1.2232 -1.5678
  729MOL0     H96166  -0.407   4.375   9.128  0.2128  3.5380 -0.1274
  729MOL0     H96167  -0.471   4.305   9.412 -2.3247 -1.0367  0.9733
  729MOL0     H96168  -0.565   4.271   9.255 -1.3268  2.0918 -0.5054
  729MOL0     H96169  -0.600   4.528   9.247 -2.7024 -1.4630 -0.3890
  729MOL0     H96170  -0.556   4.533   9.417  0.3463  0.5211 -0.4863
  729MOL0     H96171  -0.752   4.320   9.326 -0.3563  1.0782 -3.2504
  729MOL0     H96172  -0.741   4.403   9.477  2.0240  0.3814 -0.0483
  729MOL0     H96173  -0.865   4.490   9.226  0.5734  1.1500  0.5184
  729MOL0     H96174  -0.814   4.617   9.339  1.3682  0.3761 -0.4744
  729MOL0     H96175  -0.987   4.521   9.519  0.8442  2.8584 -1.6274
  729MOL0     H96176  -0.995   4.375   9.411 -0.1454 -1.0340  1.3533
  729MOL0     H96177  -1.069   4.658   9.303  1.0560  0.3544  2.0556
  729MOL0     H96178  -1.103   4.498   9.230  2.8251 -0.4813 -0.1841
  729MOL0     H96179  -1.274   4.618   9.338  0.9896 -1.0488 -2.4184
  729MOL0     H96180  -1.207   4.583   9.501 -2.5593  1.9759 -0.5424
  729MOL0     H96181  -1.423   4.450   9.241 -0.2272  2.2753  0.7130
  729MOL0     H96182  -1.453   4.092   9.213  1.0926 -0.8940  5.2401
  729MOL0     H96183  -1.505   4.251   9.144 -1.1277 -0.1700  0.4018
  729MOL0     H96184  -1.714   4.129   9.215 -1.7531 -0.7997  1.4725
  729MOL0     H96185  -1.699   4.259   9.329  0.6190  0.8427  0.1331
  729MOL0     H96186  -1.586   3.989   9.401  0.9376 -0.7425 -0.0741
  729MOL0     H96187  -1.598   4.136   9.499  1.8509 -0.3203 -1.9558
  729MOL0     H96188  -1.800   3.993   9.565 -1.8453 -2.3316 -0.8319
  729MOL0     H96189  -1.841   3.987   9.396  0.5142  0.8310 -1.9890
  729MOL0     H96190  -1.990   4.174   9.709  0.0719  0.1290 -0.0718
  729MOL0     H96191  -2.246   4.178   9.715 -1.1967 -1.1098 -1.4662
  729MOL0     H96192  -2.681   4.087   9.389 -0.0716 -1.0233  1.2176
  729MOL0     H96193  -2.904   4.151   9.390 -0.6529  4.6757 -0.0659
  729MOL0     H96194  -3.074   4.256   9.818  0.2371  0.0374  0.9184
  729MOL0     H96195  -3.216   4.235   9.708 -0.0487 -0.6576 -3.4232
  729MOL0     H96196  -3.240   4.438   9.718 -0.2347 -1.9273  0.7844
  729MOL0     H96197  -3.098   4.452   9.605  0.2512 -0.8715 -1.0894
  729MOL0     H96198  -2.956   4.478   9.784 -0.7328 -0.7549  0.8981
  729MOL0     H96199  -3.079   4.478   9.899  1.0659 -2.5724 -0.1900
  729MOL0     H96200  -2.969   4.693   9.812 -0.9236 -0.7787  0.4235
  729MOL0     H96201  -3.092   4.693   9.685  1.1458  0.2737 -0.1865
  729MOL0     H96202  -3.184   4.661   9.978 -0.9867 -2.1172 -0.6748
  729MOL0     H96203  -3.266   4.721   9.828  0.7784  0.9502 -1.1001
  729MOL0     H96204  -3.216   4.915   9.881  1.6349  1.7936  0.9525
  729MOL0     H96205  -3.058   4.896   9.844 -2.6381  0.7566 -1.8812
  729MOL0     H96206  -3.187   4.857  10.129 -0.4197  1.4135  0.1410
  729MOL0     H96207  -3.046   4.770  10.103  1.9781 -0.4093 -1.9042
  729MOL0     H96208  -2.912   4.974  10.056  0.7946  0.7148  1.9327
  729MOL0     H96209  -2.997   4.979  10.212 -0.7122  0.6710  0.0126
  729MOL0     H96210  -2.880   4.217   9.815 -1.5782  2.7232 -0.9160
  729MOL0     H96211  -2.636   4.209   9.801  0.2121 -1.8772 -0.4980
  729MOL0     H96212  -2.235   4.213   9.278  1.2334  4.7019 -0.0093
  729MOL0     H96213  -2.011   4.190   9.281 -1.2569  0.7420 -1.0315
  729MOL0     H96214  -0.291   4.709   9.199 -0.4390 -0.8714  0.2666
  729MOL0     H96215  -0.102   4.806   9.054  0.3527 -0.3564 -0.7797
  729MOL0     H96216   0.152   4.550   8.530 -0.6973 -1.9734  4.5333
  729MOL0     H96217   0.272   4.671   8.377  0.4796  0.5501 -0.4105
  729MOL0     H96218   0.366   5.101   8.456  0.4369  2.0588 -1.5764
  729MOL0     H96219   0.433   5.072   8.285  1.1970 -1.6715 -0.7488
  729MOL0     H96220   0.577   4.997   8.537 -0.0278  1.4108 -0.8347
  729MOL0     H96221   0.630   4.974   8.382  0.3886  1.8937 -2.2040
  729MOL0     H96222   0.741   5.181   8.461  0.3166  4.2722  0.4507
  729MOL0     H96223   0.582   5.244   8.528  1.0247 -0.8382  0.4526
  729MOL0     H96224   0.540   5.321   8.301  1.1760  3.5620  4.6220
  729MOL0     H96225   0.711   5.338   8.321  2.6058 -2.9336  0.7883
  729MOL0     H96226   0.651   5.063   7.996  0.2977 -0.8766  0.7560
  729MOL0     H96227   0.334   4.991   8.649 -1.9820  1.4598  0.8893
  729MOL0     H96228   0.174   4.870   8.817  2.2068  2.1221  0.5505
  730MOL0     O96229   9.834   3.809   6.970 -0.0414 -0.1659 -0.7124
  730MOL0     C96230   9.940   3.818   7.037  0.6938  0.5161  0.1432
  730MOL0     O96231  10.019   3.931   7.047 -0.0639 -0.2791  0.1341
  730MOL0     C96232   9.965   4.056   7.040  0.1089  0.1136  0.3467
  730MOL0     C96233   9.829   4.087   7.049  0.2123  0.2172 -1.2579
  730MOL0     C96234   9.788   4.216   7.038 -0.4353 -0.2831  0.0362
  730MOL0     C96235   9.881   4.321   7.008  0.3249 -0.6008 -0.0971
  730MOL0     O96236   9.855   4.463   6.981  0.2547 -0.0574  0.3628
  730MOL0     C96237   9.737   4.506   7.047 -0.2280 -0.2617  0.1496
  730MOL0     C96238   9.748   4.659   7.041 -0.0311  0.6354  0.2155
  730MOL0     C96239   9.634   4.735   7.114 -0.3437 -0.3447 -0.6799
  730MOL0     C96240   9.673   4.887   7.140  0.4190  0.7928  0.3373
  730MOL0     C96241   9.541   4.979   7.141 -0.7176 -0.0778  0.7832
  730MOL0     C96242   9.433   4.950   7.240 -0.0913  0.0790 -0.8413
  730MOL0     C96243   9.286   4.994   7.205  0.8287  0.6715 -0.0296
  730MOL0     C96244   9.263   5.142   7.209  1.1926 -0.1162 -0.6144
  730MOL0     N96245   9.123   5.165   7.188  0.2111 -1.1180 -0.3690
  730MOL0     C96246   9.017   5.136   7.268 -0.2973  0.4448 -0.4038
  730MOL0     C96247   8.907   5.181   7.217  0.5191  0.7368  0.4030
  730MOL0     C96248   8.757   5.171   7.255  0.2538 -0.5409 -0.0994
  730MOL0     C96249   8.717   5.051   7.340 -0.3145  0.3829 -0.0326
  730MOL0     C96250   8.717   4.908   7.266 -0.1235 -0.1365  0.2292
  730MOL0     C96251   8.835   4.878   7.180 -0.8088  0.0370  1.3057
  730MOL0     O96252   8.810   4.748   7.111 -0.0991  0.2249  0.0402
  730MOL0     C96253   8.899   4.676   7.041 -0.2097 -0.1776  0.1451
  730MOL0     C96254   8.854   4.580   6.954 -0.0016 -0.9748  0.6535
  730MOL0     C96255   8.945   4.493   6.891 -0.0236  0.3042  0.8611
  730MOL0     C96256   9.086   4.512   6.899  1.6158 -0.5835  0.2994
  730MOL0     C96257   9.182   4.416   6.845 -0.0766 -0.6177  0.3568
  730MOL0     O96258   9.314   4.421   6.877 -0.0336  0.6799 -0.1618
  730MOL0     C96259   9.392   4.320   6.813  0.2248  0.0090  0.2987
  730MOL0     C96260   9.404   4.317   6.671  0.7384  0.2250  1.1747
  730MOL0     C96261   9.492   4.227   6.605 -0.7140 -0.9280 -0.6466
  730MOL0     C96262   9.563   4.133   6.678  0.3962  1.0655 -0.2364
  730MOL0     O96263   9.643   4.052   6.596  0.3981  0.0114 -0.1578
  730MOL0     C96264   9.680   3.923   6.660  1.2958  0.1136 -0.2212
  730MOL0     C96265   9.552   3.827   6.663  0.3998  0.5973  0.4337
  730MOL0     C96266   9.588   3.700   6.741 -0.8170  0.9015  0.1918
  730MOL0     C96267   9.712   3.629   6.681  0.2166 -0.6137 -0.5446
  730MOL0     C96268   9.734   3.490   6.739 -0.0503 -0.0470  0.2023
  730MOL0     C96269   9.870   3.416   6.692  0.1017 -0.7926  0.0170
  730MOL0     C96270   9.989   3.497   6.755  0.5632 -0.1493  0.3567
  730MOL0     C96271  10.122   3.427   6.754 -0.7756  1.0045  0.6480
  730MOL0    Cl96272  10.124   3.258   6.815 -0.1683  0.3258  0.1379
  730MOL0     C96273   9.544   4.127   6.811  0.2512 -0.7650 -0.1363
  730MOL0     C96274   9.462   4.229   6.880  0.7254  0.7051 -1.1526
  730MOL0     O96275   9.128   4.339   6.766  0.1444 -0.2352 -1.0334
  730MOL0     C96276   9.131   4.622   6.970  0.4307 -0.0619  0.3168
  730MOL0     C96277   9.036   4.699   7.043  0.7371 -0.9152  1.2217
  730MOL0     N96278   8.944   5.254   7.104  0.2238  0.5899  0.1844
  730MOL0     N96279   9.073   5.236   7.081  0.9851  0.0540  0.3288
  730MOL0     C96280  10.021   4.290   6.993  0.9749 -0.5269 -0.0004
  730MOL0     C96281  10.060   4.151   7.014 -0.5119 -0.1179  0.0967
  730MOL0     C96282  10.001   3.694   7.078 -1.0087 -0.4972 -0.1448
  730MOL0     C96283  10.139   3.685   7.083  0.1795  0.2279 -0.3385
  730MOL0     C96284  10.202   3.571   7.129 -0.4992 -0.4986 -0.2721
  730MOL0     C96285  10.125   3.461   7.167 -0.2339 -0.2223  0.2152
  730MOL0     O96286  10.170   3.341   7.212  0.0759 -0.0397 -0.6125
  730MOL0     C96287  10.209   3.348   7.355 -0.6296  0.8810 -0.0108
  730MOL0     C96288  10.249   3.200   7.389 -0.0956  0.1952  0.3843
  730MOL0     C96289  10.131   3.100   7.410  0.6106 -1.6340  0.2692
  730MOL0     C96290  10.041   3.128   7.534 -0.2701 -0.3698 -0.2546
  730MOL0     C96291   9.968   3.008   7.580 -0.1360  0.0520 -0.7036
  730MOL0     C96292   9.909   2.895   7.600  1.2014 -0.4628 -0.2116
  730MOL0     C96293   9.992   3.469   7.152 -0.8636 -0.4352  0.0902
  730MOL0     C96294   9.927   3.581   7.099  0.5039 -0.8383 -1.0024
  730MOL0     H96295   9.759   4.005   7.064  0.9458 -0.6616 -2.4124
  730MOL0     H96296   9.684   4.243   7.053  0.0567  0.6890  2.0519
  730MOL0     H96297   9.724   4.479   7.152 -0.2686  4.0191  1.4271
  730MOL0     H96298   9.642   4.482   6.999  0.3811  1.5171 -2.1230
  730MOL0     H96299   9.735   4.671   6.933 -1.0016 -1.7231 -0.0010
  730MOL0     H96300   9.847   4.679   7.083  0.2496 -1.2493  0.5344
  730MOL0     H96301   9.600   4.689   7.207 -0.0376  3.9566  1.8393
  730MOL0     H96302   9.552   4.726   7.042 -0.5275 -1.3577 -0.3579
  730MOL0     H96303   9.720   4.904   7.237 -0.0536  2.9302  0.2387
  730MOL0     H96304   9.752   4.902   7.065  1.9708 -3.0243  0.9921
  730MOL0     H96305   9.498   4.950   7.044 -0.4951 -1.5638  1.1049
  730MOL0     H96306   9.560   5.086   7.136 -0.5369 -0.1580 -1.7450
  730MOL0     H96307   9.466   4.997   7.333 -0.9692 -0.0381 -0.4657
  730MOL0     H96308   9.441   4.844   7.266  0.8596  0.6242  1.3345
  730MOL0     H96309   9.268   4.951   7.106  1.3572 -1.8649  0.8917
  730MOL0     H96310   9.215   4.935   7.264  0.8484  0.9170  0.2392
  730MOL0     H96311   9.332   5.188   7.137 -0.5429  0.8396 -1.7241
  730MOL0     H96312   9.296   5.167   7.310  2.1459 -3.4313 -0.0096
  730MOL0     H96313   9.009   5.073   7.356  1.5102 -1.0337 -1.2530
  730MOL0     H96314   8.690   5.173   7.169  1.5232  0.2517 -1.1231
  730MOL0     H96315   8.731   5.263   7.309 -3.0753 -1.6104  0.3618
  730MOL0     H96316   8.617   5.065   7.382 -0.4244 -0.8153  0.1322
  730MOL0     H96317   8.794   5.045   7.417 -0.5676 -5.9620  0.2365
  730MOL0     H96318   8.709   4.822   7.333  3.9615 -1.8605 -1.1671
  730MOL0     H96319   8.631   4.907   7.198 -2.3606 -0.4524  2.8821
  730MOL0     H96320   8.919   4.874   7.251 -0.1747 -0.0381  0.5637
  730MOL0     H96321   8.855   4.948   7.099  0.2728  0.6972  2.1162
  730MOL0     H96322   8.746   4.568   6.947 -0.2896  0.8620  1.3787
  730MOL0     H96323   8.919   4.412   6.824  0.5542  2.6000 -2.3657
  730MOL0     H96324   9.348   4.390   6.613  0.1294 -2.9255 -2.6455
  730MOL0     H96325   9.508   4.227   6.497  0.0748  1.2405 -0.5753
  730MOL0     H96326   9.728   3.934   6.758  1.3984  0.6519 -0.3252
  730MOL0     H96327   9.751   3.873   6.594  0.4887 -0.8934 -0.3399
  730MOL0     H96328   9.515   3.814   6.561 -0.4983  1.0799  0.6799
  730MOL0     H96329   9.470   3.869   6.723  0.2764 -0.4649  1.0403
  730MOL0     H96330   9.502   3.632   6.752  0.3787 -0.3723  2.4438
  730MOL0     H96331   9.606   3.732   6.844 -1.9416  2.1852  0.0249
  730MOL0     H96332   9.711   3.640   6.573  1.3490  0.9453 -0.4300
  730MOL0     H96333   9.794   3.689   6.723  2.0473 -2.0490 -1.9098
  730MOL0     H96334   9.655   3.423   6.705 -0.2600  0.9936 -1.5210
  730MOL0     H96335   9.730   3.500   6.848  1.7861  2.0372  0.1575
  730MOL0     H96336   9.874   3.419   6.583  0.6432 -2.7950 -0.0524
  730MOL0     H96337   9.874   3.307   6.700 -1.5213 -0.8766  0.1235
  730MOL0     H96338  10.010   3.588   6.698  1.0713 -0.8242 -0.5594
  730MOL0     H96339   9.972   3.520   6.861  0.1645  1.2592  0.0189
  730MOL0     H96340  10.183   3.477   6.830 -0.5330 -0.6653  1.6026
  730MOL0     H96341  10.168   3.431   6.655  0.2477  0.1928  1.0736
  730MOL0     H96342   9.600   4.067   6.882 -0.4239 -1.8921 -0.5362
  730MOL0     H96343   9.458   4.230   6.989  3.4935  0.6094 -0.9801
  730MOL0     H96344   9.239   4.618   6.979  0.5968 -5.3626 -0.7495
  730MOL0     H96345   9.059   4.793   7.092 -1.3600 -1.1200  2.7474
  730MOL0     H96346  10.083   4.375   6.967 -0.0531  0.1451 -0.3052
  730MOL0     H96347  10.158   4.106   7.002 -1.4922 -3.6081  3.3839
  730MOL0     H96348  10.199   3.770   7.050  1.4915 -1.1299 -1.6318
  730MOL0     H96349  10.310   3.563   7.130 -0.4789 -0.5207 -1.5519
  730MOL0     H96350  10.128   3.383   7.420 -0.5343  1.0529  0.0168
  730MOL0     H96351  10.299   3.411   7.364  1.4626 -1.6882 -1.5045
  730MOL0     H96352  10.310   3.157   7.309 -2.6200  1.8001 -2.6206
  730MOL0     H96353  10.318   3.184   7.472 -0.5681  1.2161  0.9893
  730MOL0     H96354  10.170   2.998   7.408 -0.0172 -1.9191  1.6645
  730MOL0     H96355  10.073   3.114   7.318  3.1778 -0.2941 -1.2941
  730MOL0     H96356  10.102   3.161   7.619 -0.1481 -1.2099 -0.0092
  730MOL0     H96357   9.979   3.216   7.517 -2.1569 -1.7101 -0.5661
  730MOL0     H96358   9.842   2.813   7.610 -0.4770  0.8261 -0.4169
  730MOL0     H96359   9.938   3.378   7.177  2.0660 -2.2330  0.3600
  730MOL0     H96360   9.822   3.570   7.073  0.6053  1.2569 -2.5997
  731MOL0     O96361   5.817   2.577   0.567  0.5416 -0.3557 -0.1582
  731MOL0     C96362   5.788   2.600   0.449 -0.3103 -0.2256  1.4083
  731MOL0     O96363   5.680   2.663   0.403  0.6173 -0.7251 -0.3253
  731MOL0     C96364   5.572   2.673   0.490  0.6202  0.4013  0.0499
  731MOL0     C96365   5.513   2.565   0.557  0.1895  0.2526  0.6534
  731MOL0     C96366   5.395   2.586   0.639  0.7785 -0.0510  0.2221
  731MOL0     C96367   5.339   2.718   0.646 -0.7054  0.4602 -0.7363
  731MOL0     O96368   5.233   2.742   0.732  0.7385 -0.3383 -0.0903
  731MOL0     C96369   5.232   2.861   0.811 -1.2136 -0.4749  1.1470
  731MOL0     C96370   5.212   2.807   0.949 -1.2223  0.4182 -0.2222
  731MOL0     C96371   5.203   2.927   1.050 -0.0629  0.2418  0.6745
  731MOL0     C96372   5.259   2.894   1.187 -0.0083 -0.2125 -0.5809
  731MOL0     C96373   5.247   3.007   1.288  0.1973  0.0726  0.3961
  731MOL0     C96374   5.328   3.131   1.258 -0.4032 -0.2370 -0.0659
  731MOL0     C96375   5.343   3.233   1.374  0.0700  0.1370 -0.0872
  731MOL0     C96376   5.219   3.263   1.454 -1.1276  0.1491  0.5412
  731MOL0     N96377   5.244   3.385   1.533  0.2517 -0.7630 -0.4636
  731MOL0     C96378   5.298   3.506   1.499 -0.0447  0.1888 -1.7035
  731MOL0     C96379   5.296   3.581   1.616 -0.2767 -0.6739 -0.9598
  731MOL0     C96380   5.342   3.718   1.641  0.0862 -0.8085  0.2364
  731MOL0     C96381   5.240   3.823   1.601  0.4505 -0.6337 -0.0105
  731MOL0     C96382   5.096   3.820   1.642  0.1147 -0.2202  0.1615
  731MOL0     C96383   5.036   3.784   1.775 -0.1389 -0.0933 -1.1687
  731MOL0     O96384   4.998   3.898   1.857  0.0277  0.2622  0.0215
  731MOL0     C96385   5.078   4.005   1.894  0.2713 -0.0448  0.6675
  731MOL0     C96386   5.211   3.990   1.929  0.4744 -0.4532 -0.2614
  731MOL0     C96387   5.280   4.097   1.990  1.0511 -0.0195 -0.1885
  731MOL0     C96388   5.221   4.218   2.016 -0.3984 -0.4820  0.2555
  731MOL0     C96389   5.290   4.321   2.071  0.7683 -0.6255 -0.4889
  731MOL0     O96390   5.424   4.316   2.052 -0.3617 -0.1530  0.4878
  731MOL0     C96391   5.523   4.371   2.123  0.3173  0.8120  0.2951
  731MOL0     C96392   5.518   4.404   2.255 -0.7241 -0.3860  0.2108
  731MOL0     C96393   5.635   4.464   2.311  0.7568 -0.9340 -0.3241
  731MOL0     C96394   5.751   4.495   2.231 -0.7449 -0.3151  0.0216
  731MOL0     O96395   5.871   4.526   2.295 -0.3278 -0.5803 -0.7404
  731MOL0     C96396   5.987   4.461   2.242 -0.2465 -0.2716  0.0134
  731MOL0     C96397   6.104   4.514   2.329 -0.0014 -0.2817 -0.3595
  731MOL0     C96398   6.097   4.460   2.475  0.4222 -0.0966  0.5424
  731MOL0     C96399   6.217   4.497   2.558 -0.0532  0.4675  0.3563
  731MOL0     C96400   6.216   4.434   2.706 -0.6613  0.2712  0.8021
  731MOL0     C96401   6.125   4.493   2.808 -0.3493 -0.2566 -0.3957
  731MOL0     C96402   6.170   4.636   2.844 -0.1543  0.7631  0.3533
  731MOL0     C96403   6.054   4.726   2.871 -0.3699 -0.0856 -0.3759
  731MOL0    Cl96404   5.945   4.670   3.005  0.6605  0.0627  0.3734
  731MOL0     C96405   5.743   4.460   2.094  0.2827 -0.6077 -0.2160
  731MOL0     C96406   5.631   4.398   2.043  0.2983  0.2889 -0.0037
  731MOL0     O96407   5.227   4.408   2.140  0.5003  0.7209 -0.6804
  731MOL0     C96408   5.082   4.232   1.987  0.6143  0.2133 -0.8465
  731MOL0     C96409   5.013   4.131   1.924 -1.0119 -1.2178 -0.0570
  731MOL0     N96410   5.237   3.500   1.718 -0.0038  0.6044  0.8930
  731MOL0     N96411   5.201   3.395   1.663 -0.0118  0.0416 -0.2988
  731MOL0     C96412   5.394   2.821   0.561  0.5603 -0.4324  0.1312
  731MOL0     C96413   5.507   2.797   0.487 -0.4969 -0.4521  0.3406
  731MOL0     C96414   5.900   2.565   0.353  0.1304 -0.2866 -0.6614
  731MOL0     C96415   6.004   2.478   0.391  0.2104 -0.3164  0.5122
  731MOL0     C96416   6.087   2.424   0.288  0.0061  0.1714 -0.3961
  731MOL0     C96417   6.071   2.467   0.155 -0.8750  0.6499  0.0142
  731MOL0     O96418   6.155   2.416   0.053 -0.2009 -0.4254  0.4194
  731MOL0     C96419   6.148   2.469  -0.087  0.0072 -0.7257 -0.5172
  731MOL0     C96420   6.048   2.380  -0.175 -0.2429  0.3835 -0.6383
  731MOL0     C96421   6.094   2.236  -0.187  0.4213  0.4182 -0.3362
  731MOL0     C96422   5.995   2.162  -0.282 -0.6358  0.2764 -0.5907
  731MOL0     C96423   6.040   2.023  -0.315 -0.3055  0.7310  0.6133
  731MOL0     C96424   6.051   1.900  -0.335  0.3175  0.1046 -0.0348
  731MOL0     C96425   5.967   2.558   0.116  0.4291  0.2922  0.4032
  731MOL0     C96426   5.882   2.608   0.214  0.7542  0.2828 -0.3535
  731MOL0     H96427   5.553   2.464   0.568  1.0392  0.1617 -2.4695
  731MOL0     H96428   5.353   2.528   0.720 -3.0210  1.6429 -0.3200
  731MOL0     H96429   5.151   2.931   0.789 -0.5625  1.3371  4.0320
  731MOL0     H96430   5.325   2.916   0.801 -1.4420 -0.4099 -1.6227
  731MOL0     H96431   5.299   2.745   0.972 -0.9971 -1.1500 -4.5554
  731MOL0     H96432   5.125   2.744   0.963 -1.2370  0.9143  2.7069
  731MOL0     H96433   5.105   2.974   1.056 -0.2138 -0.0213  0.3215
  731MOL0     H96434   5.265   3.007   1.008  0.9377  0.1708  1.9413
  731MOL0     H96435   5.228   2.802   1.237 -1.6007  0.3391 -0.5097
  731MOL0     H96436   5.366   2.884   1.167  0.0687  2.0977 -1.6226
  731MOL0     H96437   5.267   2.964   1.387 -2.7393 -1.8948  0.2600
  731MOL0     H96438   5.141   3.031   1.298 -0.5672 -2.8399  0.3545
  731MOL0     H96439   5.289   3.179   1.167  1.7573  3.0448  0.5337
  731MOL0     H96440   5.427   3.096   1.228  0.2538 -0.0438  1.7921
  731MOL0     H96441   5.416   3.194   1.445  0.8416 -0.7610 -1.3358
  731MOL0     H96442   5.382   3.320   1.321 -0.6070 -0.4136 -1.5600
  731MOL0     H96443   5.179   3.181   1.515  2.5902 -0.4254  2.4692
  731MOL0     H96444   5.132   3.288   1.393 -0.8740 -1.0255 -0.3432
  731MOL0     H96445   5.334   3.527   1.399  1.4838 -0.1369 -1.2526
  731MOL0     H96446   5.431   3.717   1.578  0.3083 -0.3969  0.5415
  731MOL0     H96447   5.362   3.725   1.748  0.6831  1.8588  0.0341
  731MOL0     H96448   5.236   3.827   1.492 -1.4334  0.6650  0.0608
  731MOL0     H96449   5.291   3.917   1.625  0.8655 -0.9006  0.1554
  731MOL0     H96450   5.061   3.922   1.623  2.0293  0.5021  0.2988
  731MOL0     H96451   5.044   3.752   1.574  2.5872 -0.0500 -2.0469
  731MOL0     H96452   5.112   3.727   1.831  1.0813  1.1428 -1.5153
  731MOL0     H96453   4.943   3.727   1.769 -1.0098  0.9059  1.3260
  731MOL0     H96454   5.253   3.892   1.910  1.5773 -0.4900  2.0049
  731MOL0     H96455   5.384   4.081   2.015  1.7795  0.8712 -2.4334
  731MOL0     H96456   5.423   4.397   2.308 -0.2187  1.3106  1.4046
  731MOL0     H96457   5.636   4.503   2.412 -0.2333  1.3473 -1.1124
  731MOL0     H96458   5.996   4.481   2.134  0.1691 -0.1741  0.0644
  731MOL0     H96459   5.980   4.352   2.247  2.0800 -0.4569  0.2781
  731MOL0     H96460   6.097   4.623   2.333  0.0040 -0.2299 -1.3413
  731MOL0     H96461   6.195   4.494   2.273 -0.1311  1.3874 -1.2249
  731MOL0     H96462   6.074   4.353   2.471 -0.4699  0.0145  2.0814
  731MOL0     H96463   6.010   4.508   2.521 -0.6444 -1.4789  0.0400
  731MOL0     H96464   6.307   4.496   2.495 -1.2068  2.4324 -1.4939
  731MOL0     H96465   6.235   4.604   2.567  2.1012  0.5127 -2.7007
  731MOL0     H96466   6.317   4.439   2.749 -1.5502 -0.3474  3.1502
  731MOL0     H96467   6.185   4.330   2.697 -0.7785  0.3777 -0.1201
  731MOL0     H96468   6.099   4.435   2.897 -0.9541  0.0589 -0.3603
  731MOL0     H96469   6.029   4.483   2.757 -1.2063 -1.5736  1.3643
  731MOL0     H96470   6.227   4.621   2.936  2.5536 -2.5904 -1.6178
  731MOL0     H96471   6.230   4.687   2.768 -0.9379 -0.8965 -1.4776
  731MOL0     H96472   6.005   4.735   2.774  1.0183  1.4125 -0.9903
  731MOL0     H96473   6.083   4.830   2.885 -1.5083  0.1512  0.2713
  731MOL0     H96474   5.831   4.476   2.033  0.6239  2.7794  0.9208
  731MOL0     H96475   5.614   4.370   1.940  0.1547 -3.7968  0.9676
  731MOL0     H96476   5.033   4.320   2.026  0.9088 -0.7545  1.9095
  731MOL0     H96477   4.908   4.150   1.900 -0.2809  1.0297 -1.8049
  731MOL0     H96478   5.347   2.919   0.566  0.3447 -0.2433 -3.1413
  731MOL0     H96479   5.556   2.873   0.428  0.9723 -1.5311  0.1170
  731MOL0     H96480   6.011   2.446   0.495 -1.7653  0.1779  0.8285
  731MOL0     H96481   6.168   2.356   0.308 -0.3734  0.3245  1.9124
  731MOL0     H96482   6.246   2.471  -0.135  1.3339  1.1989  2.0459
  731MOL0     H96483   6.111   2.571  -0.080 -4.3276 -2.0942 -0.1830
  731MOL0     H96484   5.952   2.381  -0.121  1.4655  3.6726  2.8262
  731MOL0     H96485   6.039   2.434  -0.269 -1.9019  0.7683 -0.2861
  731MOL0     H96486   6.107   2.194  -0.087 -2.3276 -0.1983 -0.1601
  731MOL0     H96487   6.198   2.230  -0.223  1.8502 -1.8894  3.4972
  731MOL0     H96488   5.894   2.163  -0.242 -0.6433  0.0785 -0.6018
  731MOL0     H96489   6.011   2.224  -0.371 -1.3631 -2.2017 -2.5841
  731MOL0     H96490   6.051   1.794  -0.348  1.2272 -0.2333  2.3048
  731MOL0     H96491   5.938   2.580   0.013  1.9750  0.7577  0.0510
  731MOL0     H96492   5.792   2.654   0.174  0.2261  0.3738  0.8946
  732MOL0     O96493   1.187   1.251   5.610 -0.3208 -0.4886 -0.1006
  732MOL0     C96494   1.248   1.201   5.706 -0.2677  0.2409  0.6777
  732MOL0     O96495   1.298   1.274   5.813  0.0826  0.7458  0.2523
  732MOL0     C96496   1.285   1.409   5.811 -0.1851  0.7235 -0.2308
  732MOL0     C96497   1.343   1.492   5.714  0.3051  0.1209 -0.4048
  732MOL0     C96498   1.349   1.633   5.725 -0.7970 -0.0560 -0.6280
  732MOL0     C96499   1.292   1.696   5.835  0.6961  0.5800 -0.0857
  732MOL0     O96500   1.282   1.827   5.850  0.1736  0.3708 -0.6151
  732MOL0     C96501   1.236   1.907   5.742 -0.0983  0.1810  0.5893
  732MOL0     C96502   1.343   1.997   5.682 -0.5497 -0.1465 -0.0783
  732MOL0     C96503   1.308   2.059   5.546  0.1782  0.1129 -0.2207
  732MOL0     C96504   1.420   2.140   5.487 -0.0914  0.7459  0.1485
  732MOL0     C96505   1.375   2.208   5.361  0.5109  0.3438  0.0988
  732MOL0     C96506   1.499   2.249   5.291 -0.5893  0.0799  0.1557
  732MOL0     C96507   1.471   2.352   5.183  1.2035 -0.0867 -0.3587
  732MOL0     C96508   1.572   2.461   5.140 -0.0580 -0.6212 -0.4531
  732MOL0     N96509   1.684   2.393   5.076  0.0310  0.0126  0.0640
  732MOL0     C96510   1.701   2.349   4.944 -0.5048  0.0572 -0.0926
  732MOL0     C96511   1.830   2.329   4.927  0.6396  0.3157 -0.2714
  732MOL0     C96512   1.899   2.277   4.803 -0.3458  0.7321  0.5087
  732MOL0     C96513   1.992   2.163   4.842 -0.5451  0.8188  0.6792
  732MOL0     C96514   2.028   2.078   4.721 -0.4909 -0.3983 -0.0531
  732MOL0     C96515   2.102   2.163   4.618  0.8416  0.3585 -0.1294
  732MOL0     O96516   2.003   2.224   4.520  0.4313 -0.1040 -0.7779
  732MOL0     C96517   2.073   2.268   4.416  0.6759  0.3835 -0.4304
  732MOL0     C96518   2.057   2.196   4.302 -0.6212  0.6211  1.3386
  732MOL0     C96519   2.136   2.240   4.187 -0.1221  1.1868 -1.0035
  732MOL0     C96520   2.216   2.350   4.182  0.0683  0.1898 -0.6825
  732MOL0     C96521   2.270   2.396   4.050  0.6975 -0.8857 -0.5348
  732MOL0     O96522   2.264   2.325   3.929  0.5883 -0.3336 -0.0931
  732MOL0     C96523   2.323   2.381   3.824  1.1369 -0.0328  0.6273
  732MOL0     C96524   2.257   2.347   3.706 -0.0209 -0.3875 -1.1576
  732MOL0     C96525   2.312   2.385   3.578  0.2086 -0.3417  0.6473
  732MOL0     C96526   2.436   2.452   3.563  0.1930  0.1491  0.3279
  732MOL0     O96527   2.475   2.501   3.439  0.4510  0.3051  0.6140
  732MOL0     C96528   2.541   2.627   3.426 -0.0984 -1.1628  1.0213
  732MOL0     C96529   2.501   2.703   3.299  0.2667 -0.2785  0.4532
  732MOL0     C96530   2.364   2.765   3.300  0.0099  0.3053  0.2631
  732MOL0     C96531   2.331   2.853   3.165 -0.0574 -0.0042 -1.0321
  732MOL0     C96532   2.199   2.928   3.189 -0.6724  0.2192  0.0661
  732MOL0     C96533   2.151   2.993   3.065 -0.3031  0.5458  0.1321
  732MOL0     C96534   2.032   3.083   3.083 -0.0190 -0.5122 -0.0989
  732MOL0     C96535   1.903   3.009   3.093  0.5129 -1.2170 -0.8112
  732MOL0    Cl96536   1.882   2.928   3.251  0.3623  0.1629  0.6417
  732MOL0     C96537   2.494   2.490   3.681 -0.0747 -0.3659  0.1697
  732MOL0     C96538   2.449   2.455   3.809 -1.5580 -0.0587  0.2002
  732MOL0     O96539   2.318   2.506   4.062 -0.8575 -0.6647  0.5491
  732MOL0     C96540   2.237   2.409   4.304  0.5614 -1.0335 -0.0235
  732MOL0     C96541   2.162   2.376   4.422 -0.3521 -0.4348  0.3719
  732MOL0     N96542   1.894   2.347   5.048  0.4867 -0.3817 -0.6526
  732MOL0     N96543   1.803   2.387   5.133 -0.2122 -0.3034 -0.0397
  732MOL0     C96544   1.237   1.615   5.935  0.3249  0.0183  0.3996
  732MOL0     C96545   1.229   1.473   5.920  0.8185 -0.7548 -0.5599
  732MOL0     C96546   1.265   1.050   5.707 -0.7389 -0.1648  0.1353
  732MOL0     C96547   1.297   0.975   5.817  0.5180  0.6515  0.2875
  732MOL0     C96548   1.307   0.832   5.804  0.8804 -0.7541 -0.0502
  732MOL0     C96549   1.276   0.769   5.684  0.0565 -0.1851  1.1373
  732MOL0     O96550   1.281   0.635   5.660  0.8506 -0.6265 -0.0125
  732MOL0     C96551   1.331   0.550   5.760 -1.3204 -0.6764 -0.5170
  732MOL0     C96552   1.482   0.573   5.750 -0.8205  0.6187 -0.7734
  732MOL0     C96553   1.529   0.542   5.602  0.2050  0.1353 -0.2650
  732MOL0     C96554   1.497   0.390   5.563  0.8037 -1.0862 -0.2571
  732MOL0     C96555   1.577   0.304   5.649  0.3659  0.5294 -0.8512
  732MOL0     C96556   1.618   0.212   5.725  0.6408  0.0588  0.4742
  732MOL0     C96557   1.247   0.854   5.575 -0.1851 -0.9421 -0.0065
  732MOL0     C96558   1.246   0.996   5.577 -0.2978 -0.4167  0.0625
  732MOL0     H96559   1.389   1.438   5.631  4.9409  0.3666  1.6692
  732MOL0     H96560   1.394   1.696   5.650 -2.1334 -0.4069 -1.7838
  732MOL0     H96561   1.146   1.965   5.766  0.3033 -0.5172  4.4221
  732MOL0     H96562   1.197   1.841   5.664  0.4858 -1.7640  1.8904
  732MOL0     H96563   1.439   1.944   5.677 -0.7694 -0.6487  0.8495
  732MOL0     H96564   1.363   2.077   5.755 -1.0966 -2.2888  2.5693
  732MOL0     H96565   1.212   2.111   5.555  0.4434  0.8624 -1.4903
  732MOL0     H96566   1.284   1.986   5.467 -1.5349  1.9603 -1.5096
  732MOL0     H96567   1.461   2.220   5.549  2.5752 -1.0420  0.8537
  732MOL0     H96568   1.502   2.073   5.461 -0.0538  1.3811 -1.4609
  732MOL0     H96569   1.317   2.301   5.371  4.6416  3.3708 -1.2577
  732MOL0     H96570   1.323   2.142   5.291  2.2802  0.2021 -1.1385
  732MOL0     H96571   1.557   2.165   5.250  2.7536  2.6149 -0.7199
  732MOL0     H96572   1.567   2.298   5.362  0.6775  0.7923 -1.4777
  732MOL0     H96573   1.434   2.304   5.092  1.3869  0.9982 -1.0201
  732MOL0     H96574   1.384   2.406   5.224 -0.1424 -4.9210  4.3630
  732MOL0     H96575   1.613   2.518   5.224  0.9335  2.6606 -2.9723
  732MOL0     H96576   1.533   2.534   5.069 -0.8055  1.1584  1.7006
  732MOL0     H96577   1.630   2.348   4.862 -1.2845  2.1685  0.4876
  732MOL0     H96578   1.960   2.359   4.763 -0.8907  1.1363  0.4881
  732MOL0     H96579   1.825   2.249   4.727 -1.2904  0.1011  1.6348
  732MOL0     H96580   1.943   2.098   4.914 -1.7007  1.1808  0.2408
  732MOL0     H96581   2.084   2.211   4.878  0.0936 -0.3360  0.6121
  732MOL0     H96582   2.093   1.995   4.750 -0.2193 -0.3094 -0.4064
  732MOL0     H96583   1.942   2.032   4.673 -0.1806 -2.4714  1.2573
  732MOL0     H96584   2.162   2.101   4.551  0.6545 -0.0896  0.1175
  732MOL0     H96585   2.178   2.231   4.658 -0.2017  0.3624  1.9507
  732MOL0     H96586   1.987   2.113   4.308 -0.5114  0.0584 -2.4922
  732MOL0     H96587   2.112   2.182   4.098 -1.0009 -1.3689  0.7774
  732MOL0     H96588   2.162   2.295   3.705 -0.2420 -0.0590  0.1777
  732MOL0     H96589   2.252   2.340   3.499  0.2465 -0.8725  0.9134
  732MOL0     H96590   2.649   2.609   3.419  0.0385 -1.4332  3.1343
  732MOL0     H96591   2.517   2.694   3.509 -5.4666 -0.6202 -0.6187
  732MOL0     H96592   2.514   2.645   3.208  1.3759  2.0699 -0.9662
  732MOL0     H96593   2.564   2.792   3.290 -1.8071  1.1661 -0.6803
  732MOL0     H96594   2.353   2.831   3.387 -0.6724  0.9419 -0.2940
  732MOL0     H96595   2.294   2.682   3.312 -0.9792  1.0029 -0.5474
  732MOL0     H96596   2.401   2.928   3.129  0.4054  1.1675  2.0000
  732MOL0     H96597   2.324   2.781   3.083  2.3534 -0.7026 -0.6814
  732MOL0     H96598   2.211   2.993   3.276 -0.7680 -2.1880  1.9800
  732MOL0     H96599   2.122   2.852   3.206  0.1135 -1.3441 -2.6249
  732MOL0     H96600   2.136   2.917   2.987 -4.0711  0.8105  0.4124
  732MOL0     H96601   2.229   3.063   3.034 -0.5708  0.7956  0.0224
  732MOL0     H96602   2.035   3.143   3.174 -0.1339  1.4984 -1.3531
  732MOL0     H96603   2.025   3.149   2.995 -1.5939  0.2442  0.5562
  732MOL0     H96604   1.881   2.949   3.004 -2.6477 -0.0093 -0.9730
  732MOL0     H96605   1.835   3.095   3.082  1.5113 -0.4237 -0.9457
  732MOL0     H96606   2.589   2.540   3.663 -1.5140  1.4080 -3.4965
  732MOL0     H96607   2.515   2.475   3.892 -1.5281  3.1655 -0.4721
  732MOL0     H96608   2.313   2.487   4.302  2.1205 -2.3055  2.8732
  732MOL0     H96609   2.168   2.439   4.510 -0.6748 -0.1685  0.2051
  732MOL0     H96610   1.201   1.671   6.021 -2.5112 -0.7828 -0.1612
  732MOL0     H96611   1.194   1.419   6.007  1.4180  0.6252  0.5865
  732MOL0     H96612   1.323   1.008   5.917 -0.3795 -2.1240  1.5460
  732MOL0     H96613   1.340   0.780   5.893 -0.7295  2.8746  2.9132
  732MOL0     H96614   1.309   0.448   5.730 -2.4945 -0.8808  0.9654
  732MOL0     H96615   1.273   0.581   5.847 -2.6360  1.1037 -1.9458
  732MOL0     H96616   1.502   0.679   5.766  0.3395  0.5402 -1.5940
  732MOL0     H96617   1.540   0.515   5.824  0.8027  2.3784 -0.5868
  732MOL0     H96618   1.635   0.563   5.586  0.2405  0.5534  0.5031
  732MOL0     H96619   1.470   0.612   5.541  1.0558  1.8247  0.7819
  732MOL0     H96620   1.392   0.364   5.580  0.5418  0.2242  0.2581
  732MOL0     H96621   1.524   0.359   5.461 -0.0329 -0.0221 -0.8287
  732MOL0     H96622   1.670   0.153   5.798  1.5735 -1.8042 -1.5867
  732MOL0     H96623   1.231   0.800   5.483 -1.3126  0.9583 -0.9975
  732MOL0     H96624   1.225   1.051   5.485 -1.9574 -0.3022  0.4720
  733MOL0     O96625   5.211   9.482   0.171 -0.1257  0.4951 -0.3323
  733MOL0     C96626   5.253   9.380   0.230 -0.1497 -0.5090 -0.4737
  733MOL0     O96627   5.234   9.336   0.363  0.8332  0.2770 -0.0975
  733MOL0     C96628   5.172   9.405   0.464 -0.0380 -0.0027  0.3839
  733MOL0     C96629   5.104   9.527   0.449  0.0815  0.4630 -0.5016
  733MOL0     C96630   5.019   9.569   0.550  0.3578  0.4775  0.3133
  733MOL0     C96631   5.012   9.504   0.675 -0.7407 -0.6075  1.2150
  733MOL0     O96632   4.938   9.562   0.769  0.1582 -0.0570  0.5085
  733MOL0     C96633   4.936   9.507   0.905  0.8158 -0.2487 -0.2181
  733MOL0     C96634   5.066   9.550   0.988 -0.7460  0.3151 -0.1996
  733MOL0     C96635   5.081   9.490   1.121  1.4530 -0.8649 -0.5310
  733MOL0     C96636   4.976   9.521   1.234 -0.3950 -0.0963  0.3881
  733MOL0     C96637   4.978   9.654   1.313  0.2411  0.4276  0.8516
  733MOL0     C96638   5.077   9.660   1.433  1.2051  0.9331 -0.5231
  733MOL0     C96639   5.070   9.791   1.528 -1.0593 -1.0602 -0.0036
  733MOL0     C96640   5.113   9.917   1.447  0.1587  0.5191 -0.6760
  733MOL0     N96641   5.113  10.024   1.548  0.2629  0.3902  0.5043
  733MOL0     C96642   5.221  10.062   1.621 -0.5528 -0.6990 -0.9317
  733MOL0     C96643   5.194  10.188   1.666  0.2476  0.0127 -0.7134
  733MOL0     C96644   5.290  10.242   1.772 -0.2826 -0.6284  1.1032
  733MOL0     C96645   5.273  10.395   1.802  0.5978 -0.2743  1.1301
  733MOL0     C96646   5.390  10.451   1.882 -0.2346 -0.3401 -0.2052
  733MOL0     C96647   5.377  10.602   1.891  0.0697 -0.6930 -0.1858
  733MOL0     O96648   5.426  10.664   1.774  1.0478  0.2604 -0.1463
  733MOL0     C96649   5.433  10.796   1.791 -0.3988  0.1854  0.3238
  733MOL0     C96650   5.373  10.873   1.893  0.3389  0.4468 -0.2050
  733MOL0     C96651   5.391  11.010   1.913  0.6837  0.0976 -0.3291
  733MOL0     C96652   5.487  11.082   1.845 -0.1618  0.0136  0.5411
  733MOL0     C96653   5.512  11.229   1.859 -0.1697 -0.7744  0.7455
  733MOL0     O96654   5.597  11.284   1.765  1.0859  0.3874 -0.4265
  733MOL0     C96655   5.623  11.418   1.776 -0.8326  0.0406  0.3298
  733MOL0     C96656   5.524  11.515   1.798  1.6252 -0.7049 -0.6847
  733MOL0     C96657   5.555  11.647   1.815  0.4250 -0.4177 -0.2427
  733MOL0     C96658   5.686  11.695   1.812 -0.3258  0.4218 -0.8248
  733MOL0     O96659   5.713  11.820   1.867  0.1078 -0.4443 -0.4130
  733MOL0     C96660   5.804  11.895   1.775  0.1965 -0.6476  0.6656
  733MOL0     C96661   5.762  12.040   1.807  0.8337 -0.0826  0.0627
  733MOL0     C96662   5.847  12.126   1.737  0.1472 -0.8075  0.4128
  733MOL0     C96663   5.855  12.264   1.806  0.3661 -0.8039  0.0170
  733MOL0     C96664   5.915  12.356   1.699 -0.3708  0.0386  0.8010
  733MOL0     C96665   5.941  12.506   1.750  0.8348 -0.0744 -0.4506
  733MOL0     C96666   5.834  12.610   1.766 -0.1404 -0.6239  1.4604
  733MOL0     C96667   5.887  12.743   1.825 -0.1854 -0.2961 -0.3443
  733MOL0    Cl96668   5.916  12.735   1.998  0.1828  0.1233 -0.0698
  733MOL0     C96669   5.792  11.602   1.785  0.2434 -0.6285  0.9830
  733MOL0     C96670   5.754  11.460   1.764 -0.7130 -0.2662  0.3914
  733MOL0     O96671   5.455  11.281   1.956 -0.1860 -0.0306 -0.1641
  733MOL0     C96672   5.550  11.008   1.735  0.3014 -0.5835 -0.2691
  733MOL0     C96673   5.522  10.866   1.709 -0.0747 -0.4903  1.4856
  733MOL0     N96674   5.069  10.231   1.623 -0.2943 -0.5097 -0.4132
  733MOL0     N96675   5.034  10.132   1.547  0.6464 -0.0128  0.8246
  733MOL0     C96676   5.085   9.388   0.687 -1.2023  0.3262  0.8529
  733MOL0     C96677   5.168   9.332   0.586 -0.8396  0.6602  0.6174
  733MOL0     C96678   5.326   9.281   0.150  0.8217  0.4475 -0.6874
  733MOL0     C96679   5.382   9.316   0.029 -0.5670 -0.9338 -0.2947
  733MOL0     C96680   5.478   9.235  -0.037  1.0556  0.0511  0.6406
  733MOL0     C96681   5.492   9.103   0.007 -0.3120  0.1171  0.3133
  733MOL0     O96682   5.568   9.014  -0.056 -0.0644 -0.5672 -0.6919
  733MOL0     C96683   5.683   9.058  -0.136  0.9219  0.8107 -0.0170
  733MOL0     C96684   5.787   9.152  -0.082  0.2676  0.4192 -0.1449
  733MOL0     C96685   5.834   9.115   0.060 -0.6661 -1.2963  0.0677
  733MOL0     C96686   5.908   9.236   0.127 -0.4420  0.4982 -0.4233
  733MOL0     C96687   5.955   9.204   0.262  0.2437 -0.8899  0.3663
  733MOL0     C96688   5.992   9.179   0.372 -0.0496  0.0572 -0.3648
  733MOL0     C96689   5.428   9.064   0.127  0.7642 -0.0267  0.4642
  733MOL0     C96690   5.345   9.144   0.203  1.2235 -1.1352  0.6262
  733MOL0     H96691   5.094   9.580   0.355  1.5190 -2.6681 -2.5948
  733MOL0     H96692   4.950   9.652   0.538  0.1315  0.1870 -0.4759
  733MOL0     H96693   4.914   9.401   0.889 -0.5549  0.2632 -2.2188
  733MOL0     H96694   4.848   9.547   0.956  0.4622 -1.0061 -0.2271
  733MOL0     H96695   5.068   9.660   0.988  0.3131  0.3278  1.0441
  733MOL0     H96696   5.155   9.521   0.931 -1.7115 -2.0897 -0.5971
  733MOL0     H96697   5.179   9.512   1.165  0.9564  0.7070 -0.1407
  733MOL0     H96698   5.081   9.381   1.110 -0.2843 -0.7916 -1.6707
  733MOL0     H96699   4.877   9.524   1.187  0.0781  2.0920 -0.5901
  733MOL0     H96700   4.970   9.432   1.298 -1.8230 -0.6079 -0.4190
  733MOL0     H96701   4.881   9.688   1.353  0.0567 -0.4566  1.1714
  733MOL0     H96702   5.025   9.734   1.255 -0.5428  1.1639  1.1946
  733MOL0     H96703   5.178   9.657   1.391  0.0903  0.8884 -3.4458
  733MOL0     H96704   5.054   9.576   1.498 -2.8539  2.6489  0.5989
  733MOL0     H96705   4.966   9.805   1.558 -2.0842 -1.1457 -3.1602
  733MOL0     H96706   5.135   9.778   1.615  1.8369  0.2726 -1.8372
  733MOL0     H96707   5.061   9.934   1.352  0.7808 -0.3032 -1.1757
  733MOL0     H96708   5.218   9.897   1.424  1.0495 -1.2061  3.8503
  733MOL0     H96709   5.309  10.000   1.635 -0.1202  0.3904  1.9029
  733MOL0     H96710   5.396  10.230   1.746 -0.1671  0.1967  1.1611
  733MOL0     H96711   5.279  10.184   1.864 -0.9536  2.3553  3.0397
  733MOL0     H96712   5.183  10.405   1.863 -0.3829 -1.3829 -0.0688
  733MOL0     H96713   5.261  10.450   1.708  0.5412  0.0648  1.3351
  733MOL0     H96714   5.382  10.418   1.986 -0.0524  0.7595  0.1699
  733MOL0     H96715   5.485  10.425   1.834 -1.5837  0.5916 -3.6476
  733MOL0     H96716   5.449  10.630   1.968 -0.6022  0.5094  0.0259
  733MOL0     H96717   5.274  10.633   1.914 -0.4963 -1.3406 -1.7199
  733MOL0     H96718   5.301  10.839   1.967 -1.3267  0.4454 -1.7658
  733MOL0     H96719   5.336  11.075   1.980  1.8752  0.3043  0.4765
  733MOL0     H96720   5.420  11.484   1.796  2.0543 -2.1837 -1.2154
  733MOL0     H96721   5.480  11.720   1.844  1.9822  0.9964  0.4093
  733MOL0     H96722   5.794  11.875   1.667  0.8978  1.6857  0.1018
  733MOL0     H96723   5.904  11.864   1.807  0.1638 -0.2492  1.1520
  733MOL0     H96724   5.783  12.061   1.912 -0.5964  1.2251  0.1229
  733MOL0     H96725   5.660  12.063   1.775  0.1195 -4.0722 -1.1576
  733MOL0     H96726   5.813  12.141   1.634  2.2336 -0.7438 -0.2976
  733MOL0     H96727   5.949  12.089   1.742  0.7744  0.5942 -1.0750
  733MOL0     H96728   5.755  12.294   1.841  1.4995  0.7437  2.2164
  733MOL0     H96729   5.921  12.268   1.893  2.1184 -0.8784 -1.2777
  733MOL0     H96730   5.844  12.376   1.617  0.1641  1.2082  0.5900
  733MOL0     H96731   6.005  12.311   1.657 -0.9023  1.4352 -2.1204
  733MOL0     H96732   6.009  12.542   1.672  2.7236  0.8520  1.5229
  733MOL0     H96733   5.998  12.506   1.843  0.4154  1.3376 -0.1674
  733MOL0     H96734   5.790  12.641   1.670 -1.3360  2.1261  2.8000
  733MOL0     H96735   5.751  12.574   1.827 -0.4137 -0.3091  1.2796
  733MOL0     H96736   5.811  12.822   1.816  0.0466 -0.2614 -2.5626
  733MOL0     H96737   5.976  12.778   1.770  0.6406 -1.9427 -0.1096
  733MOL0     H96738   5.898  11.622   1.802  0.9508 -1.5086 -1.8694
  733MOL0     H96739   5.823  11.379   1.746 -0.5159 -0.5739  2.2530
  733MOL0     H96740   5.620  11.050   1.663  1.0395 -1.3725 -0.0325
  733MOL0     H96741   5.577  10.814   1.631 -1.6374  3.3221 -2.5453
  733MOL0     H96742   5.075   9.329   0.778  0.1532  2.7941  2.7293
  733MOL0     H96743   5.217   9.235   0.592 -3.5403 -0.8457 -0.0982
  733MOL0     H96744   5.371   9.416  -0.011 -2.4375 -1.1597 -0.4207
  733MOL0     H96745   5.514   9.269  -0.133  1.8279  0.0728  0.9348
  733MOL0     H96746   5.645   9.101  -0.229  5.0837  3.8955 -0.6243
  733MOL0     H96747   5.739   8.967  -0.161 -1.1427  0.3193 -3.6085
  733MOL0     H96748   5.864   9.152  -0.160  1.1584 -0.0407  0.7266
  733MOL0     H96749   5.748   9.255  -0.085 -0.1021  0.3862  2.1553
  733MOL0     H96750   5.901   9.030   0.049 -3.0658 -3.4908  1.4297
  733MOL0     H96751   5.745   9.086   0.116 -1.6550  0.5248 -0.4795
  733MOL0     H96752   5.995   9.261   0.066 -0.1912 -1.6649 -1.0524
  733MOL0     H96753   5.848   9.327   0.124 -0.7244  0.2800 -1.7425
  733MOL0     H96754   6.025   9.144   0.468 -0.4654  0.6614  0.0148
  733MOL0     H96755   5.444   8.960   0.155 -1.7268 -0.3127  1.0317
  733MOL0     H96756   5.297   9.096   0.288  0.2159 -1.5562 -0.1617
  734MOL0     O96757   1.156   7.279   7.856 -0.0267  0.9266 -0.2547
  734MOL0     C96758   1.126   7.361   7.943 -0.3133  1.3481 -0.5911
  734MOL0     O96759   1.219   7.450   8.004  0.7063 -0.2516  0.9194
  734MOL0     C96760   1.349   7.463   7.960  0.0475 -0.1041  0.0359
  734MOL0     C96761   1.401   7.436   7.829  0.2397  0.2148  0.1554
  734MOL0     C96762   1.535   7.446   7.807  0.1961 -0.1859 -0.4705
  734MOL0     C96763   1.636   7.483   7.904  0.6726 -0.3296 -0.0368
  734MOL0     O96764   1.772   7.469   7.874  0.0821 -0.0529  0.0490
  734MOL0     C96765   1.867   7.523   7.969  0.2616  0.0545  0.2881
  734MOL0     C96766   2.017   7.475   7.947  1.0558 -0.4014  0.3592
  734MOL0     C96767   2.059   7.534   7.812  0.2546 -0.6434  0.1699
  734MOL0     C96768   2.206   7.532   7.808  0.6261 -0.2411 -0.3682
  734MOL0     C96769   2.258   7.530   7.665  1.1414  0.0096 -0.2198
  734MOL0     C96770   2.412   7.535   7.642 -0.5097 -0.0201  0.0527
  734MOL0     C96771   2.489   7.448   7.734 -0.1414 -0.0170 -0.2581
  734MOL0     C96772   2.467   7.301   7.723  0.3219 -1.1979 -0.2699
  734MOL0     N96773   2.508   7.244   7.593  0.2955 -0.5892 -0.8358
  734MOL0     C96774   2.637   7.234   7.558  0.0746  0.3748  0.0436
  734MOL0     C96775   2.632   7.170   7.439 -0.2027 -0.7039 -0.2432
  734MOL0     C96776   2.747   7.094   7.378  0.0750 -0.4379  0.8848
  734MOL0     C96777   2.818   6.993   7.466  0.8487 -0.4665 -0.6721
  734MOL0     C96778   2.927   6.933   7.379  0.3848  0.3974  0.4312
  734MOL0     C96779   2.965   6.799   7.450  0.1776 -0.1779 -0.3088
  734MOL0     O96780   3.083   6.753   7.380 -0.0362  0.3580 -0.7141
  734MOL0     C96781   3.156   6.640   7.405  0.5698  0.7791 -0.6622
  734MOL0     C96782   3.286   6.623   7.336  1.0494  0.1014  0.0802
  734MOL0     C96783   3.372   6.518   7.371  0.0574 -0.0580 -0.4466
  734MOL0     C96784   3.343   6.439   7.478  0.9662  0.6624 -0.1924
  734MOL0     C96785   3.432   6.317   7.502  0.5465  0.3184 -0.3572
  734MOL0     O96786   3.378   6.207   7.559 -0.1978  0.5916 -0.1611
  734MOL0     C96787   3.456   6.094   7.574  0.5844  0.1918  0.9432
  734MOL0     C96788   3.496   6.000   7.476 -1.0849 -0.1033  0.2525
  734MOL0     C96789   3.596   5.903   7.507  0.2276  1.0432  0.1568
  734MOL0     C96790   3.651   5.893   7.635 -0.3006 -0.0670  0.1359
  734MOL0     O96791   3.742   5.792   7.646  0.0298  0.2223 -0.7190
  734MOL0     C96792   3.839   5.802   7.747  0.2079  0.5100  0.2942
  734MOL0     C96793   3.951   5.711   7.716  0.0501 -0.0389  0.0232
  734MOL0     C96794   4.047   5.686   7.826 -1.1156 -0.1117 -0.7671
  734MOL0     C96795   4.133   5.804   7.879 -0.8139  1.0303 -0.7565
  734MOL0     C96796   4.233   5.860   7.780 -0.0698 -0.6095  0.2888
  734MOL0     C96797   4.352   5.934   7.846 -0.8591  0.2799  0.1251
  734MOL0     C96798   4.465   5.943   7.752 -0.4055  1.2908  0.7073
  734MOL0     C96799   4.433   6.055   7.648  0.0237  0.2170 -0.2067
  734MOL0    Cl96800   4.553   6.019   7.522  0.1140 -0.5672 -0.2357
  734MOL0     C96801   3.607   5.977   7.736 -1.0129  0.5372 -1.1406
  734MOL0     C96802   3.515   6.077   7.705 -0.1042  0.3186  0.1746
  734MOL0     O96803   3.550   6.321   7.466 -0.0417  0.3279 -0.2282
  734MOL0     C96804   3.218   6.448   7.541  0.6088  0.5859 -0.6082
  734MOL0     C96805   3.127   6.552   7.507 -0.6164  0.1309 -0.5767
  734MOL0     N96806   2.505   7.172   7.395 -0.2000  0.0272 -0.4500
  734MOL0     N96807   2.425   7.207   7.486  0.0821  0.1104  0.3778
  734MOL0     C96808   1.582   7.533   8.021 -0.4128  0.1048 -0.0902
  734MOL0     C96809   1.442   7.534   8.044  0.9416  0.2675 -0.1084
  734MOL0     C96810   0.983   7.362   7.978  0.7690 -0.0226  0.3364
  734MOL0     C96811   0.890   7.251   7.961  1.0890  0.1411  0.2314
  734MOL0     C96812   0.755   7.258   8.008  1.2059 -0.5081 -0.4249
  734MOL0     C96813   0.716   7.373   8.082  0.4544  0.2691 -0.1538
  734MOL0     O96814   0.582   7.368   8.134 -1.0500  0.0168 -0.3459
  734MOL0     C96815   0.549   7.465   8.231  0.2717 -0.3911  0.2800
  734MOL0     C96816   0.392   7.448   8.234  0.3019 -1.1554 -0.0880
  734MOL0     C96817   0.334   7.328   8.312  0.2633 -0.6498  1.2135
  734MOL0     C96818   0.183   7.349   8.345 -0.7468  0.6742  0.0995
  734MOL0     C96819   0.126   7.220   8.392 -0.0489 -1.0683  0.2002
  734MOL0     C96820   0.078   7.124   8.439  0.2174 -0.2922  0.1548
  734MOL0     C96821   0.802   7.483   8.101 -0.1487  0.1065 -0.2797
  734MOL0     C96822   0.931   7.475   8.039 -0.7966  0.2157  0.3063
  734MOL0     H96823   1.331   7.421   7.747  1.3504 -3.7682 -0.2521
  734MOL0     H96824   1.565   7.405   7.711  2.7741  1.7958 -0.6267
  734MOL0     H96825   1.839   7.478   8.065 -3.3564 -0.3876 -0.8083
  734MOL0     H96826   1.858   7.629   7.990 -0.3591 -0.0433  0.5369
  734MOL0     H96827   2.019   7.368   7.966  1.8001 -0.1149  2.0683
  734MOL0     H96828   2.076   7.525   8.024  3.0829 -1.3390 -0.5053
  734MOL0     H96829   2.021   7.636   7.799  0.7723 -0.3141  1.1551
  734MOL0     H96830   2.023   7.480   7.724 -0.8925 -0.6048  0.6024
  734MOL0     H96831   2.250   7.619   7.857  1.0100 -0.8004  0.2944
  734MOL0     H96832   2.239   7.438   7.852  0.5783  0.5022  1.3202
  734MOL0     H96833   2.220   7.616   7.610  0.7279  0.1374  0.2592
  734MOL0     H96834   2.215   7.451   7.604 -0.8563  0.7995  0.1105
  734MOL0     H96835   2.459   7.634   7.649 -0.7304 -0.0422  2.9506
  734MOL0     H96836   2.432   7.502   7.539 -1.7655 -2.4083  0.5004
  734MOL0     H96837   2.595   7.471   7.716  0.0257 -0.1880  0.4611
  734MOL0     H96838   2.468   7.476   7.837  0.0287 -3.2363  0.7898
  734MOL0     H96839   2.359   7.283   7.728  0.3937 -1.4125  0.8203
  734MOL0     H96840   2.503   7.255   7.816  1.4484 -1.7744 -0.9716
  734MOL0     H96841   2.723   7.266   7.615 -1.8707  1.8147  2.3585
  734MOL0     H96842   2.814   7.165   7.327 -0.4777 -0.4371  0.1407
  734MOL0     H96843   2.707   7.029   7.300 -0.9284 -1.1798  2.0019
  734MOL0     H96844   2.754   6.911   7.500  3.0643 -2.0061  0.0117
  734MOL0     H96845   2.863   7.046   7.551 -0.7033  0.2224 -0.2581
  734MOL0     H96846   2.894   6.897   7.281  2.3916 -0.6548  0.0991
  734MOL0     H96847   3.014   6.998   7.370  2.1185 -1.9340 -0.6616
  734MOL0     H96848   2.891   6.719   7.443 -1.5915  1.1766  1.5045
  734MOL0     H96849   2.972   6.809   7.559  2.1519  1.4343 -0.5317
  734MOL0     H96850   3.296   6.682   7.245 -1.0719 -0.3118 -0.4892
  734MOL0     H96851   3.466   6.503   7.318  0.6093  1.9592 -0.1597
  734MOL0     H96852   3.462   6.010   7.373  2.2394 -0.8443 -1.0605
  734MOL0     H96853   3.612   5.840   7.420 -2.5143 -0.5828  0.7189
  734MOL0     H96854   3.787   5.787   7.842  0.2955  4.6778  1.2193
  734MOL0     H96855   3.885   5.902   7.742  1.9332 -0.2363  0.6878
  734MOL0     H96856   4.005   5.731   7.623 -2.1645  1.2256 -1.0489
  734MOL0     H96857   3.914   5.611   7.693 -0.2837 -0.0317  0.5164
  734MOL0     H96858   4.115   5.602   7.807  0.5227  0.7129  1.1139
  734MOL0     H96859   4.001   5.646   7.917  2.2283 -2.0760  0.2596
  734MOL0     H96860   4.074   5.883   7.925 -2.3747 -0.2901 -0.3762
  734MOL0     H96861   4.193   5.763   7.961 -1.6605 -0.9436 -1.0475
  734MOL0     H96862   4.176   5.925   7.713  0.8794 -1.8370 -1.8107
  734MOL0     H96863   4.271   5.781   7.714 -0.0536 -0.3334 -0.0391
  734MOL0     H96864   4.373   5.873   7.934 -0.5771  2.3043  1.5214
  734MOL0     H96865   4.330   6.032   7.888  2.4121  1.8207 -1.3823
  734MOL0     H96866   4.558   5.970   7.802  1.3277 -0.2365 -1.5016
  734MOL0     H96867   4.469   5.847   7.701  1.7446  2.3859 -1.3656
  734MOL0     H96868   4.439   6.157   7.686 -0.3634 -0.1717  0.9459
  734MOL0     H96869   4.334   6.035   7.606  0.1344  2.4625 -1.6656
  734MOL0     H96870   3.657   5.960   7.831  1.5612  1.9606 -2.1491
  734MOL0     H96871   3.496   6.154   7.779  0.2617 -0.3613  0.9842
  734MOL0     H96872   3.186   6.373   7.613 -0.2230  1.0271 -0.4990
  734MOL0     H96873   3.032   6.547   7.560 -0.1668 -0.2461  0.2068
  734MOL0     H96874   1.645   7.588   8.090  1.4689  0.1595 -1.7552
  734MOL0     H96875   1.402   7.577   8.135  3.1051 -0.4411  1.2595
  734MOL0     H96876   0.924   7.162   7.909 -0.4296 -1.9941  2.6698
  734MOL0     H96877   0.675   7.187   7.989  1.9743 -2.4545  2.7675
  734MOL0     H96878   0.593   7.560   8.202  2.9631 -1.0881  1.6569
  734MOL0     H96879   0.582   7.437   8.332 -2.3462  1.4485  1.7676
  734MOL0     H96880   0.343   7.539   8.271  1.4700 -0.5466  0.0119
  734MOL0     H96881   0.363   7.438   8.129 -1.8424  0.9073  0.2074
  734MOL0     H96882   0.390   7.289   8.398 -1.2454 -1.6440  1.7870
  734MOL0     H96883   0.355   7.243   8.246 -0.9025 -0.0384  0.0227
  734MOL0     H96884   0.176   7.430   8.418 -0.5305 -1.6325  2.8302
  734MOL0     H96885   0.131   7.374   8.252 -0.9421  1.0388  0.3036
  734MOL0     H96886   0.028   7.047   8.496  0.9386 -1.4657 -0.7484
  734MOL0     H96887   0.782   7.578   8.149 -0.2817 -0.2190  0.3208
  734MOL0     H96888   0.998   7.560   8.051 -0.7447  0.2537 -0.2197
  735MOL0     O96889   3.365   2.505   0.038  0.8975 -0.2522  0.0365
  735MOL0     C96890   3.283   2.537   0.118  0.1552  0.5625 -0.5988
  735MOL0     O96891   3.298   2.642   0.209 -1.1717 -0.4696 -0.6001
  735MOL0     C96892   3.368   2.752   0.176  0.3838 -0.0976  0.3249
  735MOL0     C96893   3.366   2.802   0.042 -0.4925 -0.3668  1.1162
  735MOL0     C96894   3.455   2.911   0.015  0.8940 -0.0241  0.2540
  735MOL0     C96895   3.526   2.981   0.114  0.3228 -0.2890  0.2841
  735MOL0     O96896   3.617   3.089   0.088  0.2044 -0.4279 -0.0383
  735MOL0     C96897   3.612   3.153  -0.039 -0.1055 -0.5285  0.4493
  735MOL0     C96898   3.695   3.284  -0.032 -0.3453  0.6124  0.2329
  735MOL0     C96899   3.757   3.310  -0.170  0.2035 -0.0885  0.4540
  735MOL0     C96900   3.840   3.443  -0.162 -0.6895  0.2676 -0.6923
  735MOL0     C96901   3.761   3.570  -0.206  0.2433  1.3281  0.0665
  735MOL0     C96902   3.804   3.694  -0.136 -0.2656  0.0163 -0.4140
  735MOL0     C96903   3.750   3.684   0.016  0.1813 -0.4562  0.3583
  735MOL0     C96904   3.753   3.817   0.097  0.0675  0.6213 -0.1465
  735MOL0     N96905   3.878   3.845   0.165  0.1905  0.2844  0.5102
  735MOL0     C96906   3.876   3.907   0.285  0.2606 -0.8525  0.2117
  735MOL0     C96907   3.996   3.966   0.302  1.2870  0.3664 -0.2137
  735MOL0     C96908   4.038   4.053   0.416  0.0469 -0.0736 -0.4438
  735MOL0     C96909   3.941   4.174   0.449  0.0316  0.1856  0.5477
  735MOL0     C96910   3.863   4.137   0.574  0.4335  0.2235 -0.5124
  735MOL0     C96911   3.748   4.236   0.597 -0.3787  0.1347 -0.2073
  735MOL0     O96912   3.682   4.276   0.476  0.7145  0.5678 -1.4209
  735MOL0     C96913   3.614   4.194   0.398  1.0273 -0.3360  0.2003
  735MOL0     C96914   3.642   4.187   0.263  0.2195 -0.2996 -0.0417
  735MOL0     C96915   3.573   4.090   0.188  1.3899 -0.4409 -0.5461
  735MOL0     C96916   3.482   3.995   0.243 -0.9968  0.5075 -0.0200
  735MOL0     C96917   3.404   3.901   0.168 -0.2870 -0.3203 -0.2267
  735MOL0     O96918   3.315   3.819   0.244  0.3715 -0.8316  0.0303
  735MOL0     C96919   3.221   3.754   0.175  0.0940  0.4814 -0.9058
  735MOL0     C96920   3.161   3.788   0.052 -0.0811  0.0531 -0.2899
  735MOL0     C96921   3.061   3.716  -0.004  0.4238  0.2779 -1.1287
  735MOL0     C96922   3.012   3.597   0.055  0.0740  0.4420 -0.4058
  735MOL0     O96923   2.908   3.514   0.016 -0.0859 -0.7845  0.1645
  735MOL0     C96924   2.900   3.499  -0.130 -0.7289 -0.3262 -0.4656
  735MOL0     C96925   2.807   3.390  -0.179  0.5399 -0.5816 -0.2013
  735MOL0     C96926   2.813   3.268  -0.096  0.2800 -0.2880 -0.2091
  735MOL0     C96927   2.702   3.171  -0.143  0.7082 -0.2831  0.9796
  735MOL0     C96928   2.725   3.030  -0.101 -0.5544 -0.3128 -0.0956
  735MOL0     C96929   2.842   2.970  -0.176 -0.1865  0.5092 -0.2429
  735MOL0     C96930   2.844   2.815  -0.176 -0.3764  0.0850  0.2226
  735MOL0     C96931   2.864   2.754  -0.031 -0.9256 -0.2195 -0.1107
  735MOL0    Cl96932   3.037   2.792   0.024  0.4440 -0.1747  0.0866
  735MOL0     C96933   3.054   3.561   0.181  0.4897  0.0565 -0.3507
  735MOL0     C96934   3.155   3.646   0.241 -0.1934  1.1092 -0.6911
  735MOL0     O96935   3.430   3.885   0.045  0.0760 -0.1962 -0.0071
  735MOL0     C96936   3.467   3.994   0.385 -0.5720 -0.7021 -0.5243
  735MOL0     C96937   3.539   4.089   0.461 -0.5027 -0.7656 -0.0200
  735MOL0     N96938   4.064   3.944   0.183  0.1076 -0.6586 -0.8133
  735MOL0     N96939   4.000   3.863   0.111  0.2943  0.2515 -0.1112
  735MOL0     C96940   3.521   2.928   0.239 -0.3247 -0.9156  0.2867
  735MOL0     C96941   3.446   2.824   0.273  1.1059  1.1277  0.2540
  735MOL0     C96942   3.152   2.468   0.130  0.4872  0.5601 -0.4121
  735MOL0     C96943   3.140   2.337   0.078  0.1585  0.3629 -0.4083
  735MOL0     C96944   3.014   2.271   0.087 -0.0190 -0.0046 -0.3520
  735MOL0     C96945   2.900   2.317   0.158 -0.2916 -0.5863 -0.3062
  735MOL0     O96946   2.790   2.241   0.169 -0.4336 -0.0946  0.5733
  735MOL0     C96947   2.701   2.264   0.272 -0.4009 -0.2045 -1.3146
  735MOL0     C96948   2.615   2.128   0.309 -0.9254 -0.3898 -0.4082
  735MOL0     C96949   2.699   2.005   0.350 -0.2175  0.4222 -0.5412
  735MOL0     C96950   2.754   1.915   0.236  0.6938 -0.7995 -0.0735
  735MOL0     C96951   2.837   1.807   0.290 -0.0360  0.3020  0.2299
  735MOL0     C96952   2.907   1.712   0.326  0.2187 -0.3692  0.6205
  735MOL0     C96953   2.921   2.443   0.215 -0.1228  0.2193  0.7351
  735MOL0     C96954   3.042   2.512   0.214  0.0430 -0.3593 -0.3934
  735MOL0     H96955   3.305   2.760  -0.037  1.3642  0.5410 -0.9058
  735MOL0     H96956   3.454   2.947  -0.087 -1.6336  1.6869  0.7803
  735MOL0     H96957   3.510   3.186  -0.058 -0.1241  0.1508  1.6497
  735MOL0     H96958   3.633   3.081  -0.119  1.6850 -1.6939  1.8792
  735MOL0     H96959   3.777   3.273   0.040  0.0191 -0.4546 -0.3333
  735MOL0     H96960   3.627   3.368  -0.019 -0.8597  0.0189  1.4806
  735MOL0     H96961   3.675   3.325  -0.242 -0.5583 -1.4761  1.0122
  735MOL0     H96962   3.826   3.238  -0.216  1.5746  1.1083  0.5390
  735MOL0     H96963   3.866   3.456  -0.056  0.8152 -2.0540 -0.6990
  735MOL0     H96964   3.940   3.424  -0.203 -0.5071 -1.5848  0.4650
  735MOL0     H96965   3.659   3.545  -0.176  0.7369  1.5324  2.0441
  735MOL0     H96966   3.758   3.590  -0.313  1.4830  1.3227  0.0145
  735MOL0     H96967   3.758   3.776  -0.192  1.6445  0.0507 -2.0830
  735MOL0     H96968   3.913   3.706  -0.144 -0.3613  0.2471 -1.7491
  735MOL0     H96969   3.650   3.642   0.002 -0.3148  1.5180 -3.5512
  735MOL0     H96970   3.800   3.606   0.075 -1.0380 -0.6151  1.2211
  735MOL0     H96971   3.669   3.807   0.167  0.7444 -3.4986  0.3348
  735MOL0     H96972   3.741   3.898   0.024  3.1975 -0.4001 -1.9911
  735MOL0     H96973   3.779   3.905   0.334  0.3716 -1.7844  0.4259
  735MOL0     H96974   4.133   4.100   0.389 -0.2810  0.8823  0.0447
  735MOL0     H96975   4.072   3.991   0.500 -0.1028 -0.1452 -0.4358
  735MOL0     H96976   3.893   4.207   0.356  2.0542  1.4745 -0.1101
  735MOL0     H96977   4.006   4.259   0.471  0.6778  0.5387 -2.2643
  735MOL0     H96978   3.836   4.032   0.565  0.6126  0.3317 -3.2417
  735MOL0     H96979   3.933   4.141   0.657  1.9668 -1.7106 -1.6257
  735MOL0     H96980   3.805   4.320   0.640  1.7175 -1.9361  1.3401
  735MOL0     H96981   3.679   4.201   0.673 -0.6726 -0.5687 -0.7907
  735MOL0     H96982   3.702   4.262   0.212 -1.1188 -0.3271 -1.7503
  735MOL0     H96983   3.582   4.082   0.081  1.3066  0.1716 -0.6027
  735MOL0     H96984   3.207   3.870  -0.002  0.4516 -1.0528 -1.5468
  735MOL0     H96985   3.011   3.746  -0.096 -3.0269  0.6382  0.7012
  735MOL0     H96986   2.999   3.483  -0.173 -0.6955 -1.4901  0.0157
  735MOL0     H96987   2.866   3.592  -0.176  1.8191  0.7866 -0.2330
  735MOL0     H96988   2.827   3.351  -0.279 -1.7131 -0.8123 -0.6305
  735MOL0     H96989   2.710   3.441  -0.174  1.6088  1.8030 -2.2084
  735MOL0     H96990   2.792   3.286   0.010  0.5676  1.5553 -0.4251
  735MOL0     H96991   2.915   3.230  -0.097 -0.1762 -1.6785  1.0895
  735MOL0     H96992   2.605   3.210  -0.111  0.0858  0.0823 -1.1721
  735MOL0     H96993   2.684   3.182  -0.250  0.3594  0.0153  1.0674
  735MOL0     H96994   2.638   2.969  -0.128 -2.8087  1.0997  3.3461
  735MOL0     H96995   2.730   3.009   0.006 -0.3397  0.5412  0.0717
  735MOL0     H96996   2.936   3.006  -0.134 -0.0498  0.7702 -0.7747
  735MOL0     H96997   2.833   3.020  -0.272  3.5737  4.0259  0.9699
  735MOL0     H96998   2.757   2.763  -0.217 -0.4148 -2.5330  3.2240
  735MOL0     H96999   2.929   2.785  -0.238 -1.3782 -1.1907 -0.5948
  735MOL0     H97000   2.850   2.647  -0.049  7.4803 -2.0255 -0.2074
  735MOL0     H97001   2.785   2.788   0.036 -1.3529 -2.9087  0.8736
  735MOL0     H97002   3.011   3.476   0.233  1.2697  0.2126  0.5594
  735MOL0     H97003   3.188   3.641   0.344  1.5554  1.4742 -1.2065
  735MOL0     H97004   3.407   3.920   0.437 -1.0000 -1.4536 -2.0405
  735MOL0     H97005   3.532   4.106   0.568  1.1380 -0.5864  0.0816
  735MOL0     H97006   3.579   2.969   0.320 -0.4767  1.6953 -0.8332
  735MOL0     H97007   3.444   2.793   0.376 -2.8934 -1.3361 -0.3572
  735MOL0     H97008   3.229   2.305   0.025  0.7632  0.7769  0.3400
  735MOL0     H97009   3.001   2.184   0.023  0.3997 -1.3601  1.3362
  735MOL0     H97010   2.639   2.352   0.258 -1.0797  0.2203  3.0375
  735MOL0     H97011   2.754   2.294   0.363  0.4298  0.3951 -1.9798
  735MOL0     H97012   2.545   2.146   0.391  2.9491  1.1912  2.8904
  735MOL0     H97013   2.557   2.111   0.218 -1.1044  1.4510 -0.6670
  735MOL0     H97014   2.645   1.947   0.425  3.1105 -1.3170  0.7417
  735MOL0     H97015   2.789   2.034   0.406 -1.7835  2.2970  1.1440
  735MOL0     H97016   2.660   1.872   0.202 -1.4639  3.0838  0.3697
  735MOL0     H97017   2.823   1.967   0.169  2.1392 -0.7401  1.3842
  735MOL0     H97018   2.958   1.620   0.348 -0.4950 -0.5405  1.6160
  735MOL0     H97019   2.834   2.483   0.266 -0.8656  2.1810 -1.8348
  735MOL0     H97020   3.050   2.614   0.252  2.8390 -1.1037  1.3486
  736MOL0     O97021  11.136   5.891   3.152 -0.5451  0.4462 -0.7006
  736MOL0     C97022  11.144   5.941   3.265 -0.2451  0.9061  0.4547
  736MOL0     O97023  11.266   5.960   3.326 -0.0155  0.3198 -0.0799
  736MOL0     C97024  11.379   5.933   3.251  0.1534 -0.0152  0.1777
  736MOL0     C97025  11.405   5.800   3.205 -0.6773 -0.1396 -1.0832
  736MOL0     C97026  11.518   5.762   3.130 -0.5968  0.7228 -0.9107
  736MOL0     C97027  11.616   5.856   3.099  0.5631 -0.1506  0.2475
  736MOL0     O97028  11.744   5.838   3.044  0.1739  0.0566  0.0156
  736MOL0     C97029  11.768   5.719   2.970  0.6557  0.8605 -0.2302
  736MOL0     C97030  11.822   5.595   3.045  0.1403 -1.2240  0.0136
  736MOL0     C97031  11.895   5.635   3.175  0.0636 -0.6223 -0.0398
  736MOL0     C97032  11.972   5.524   3.245  0.0132  0.3161 -0.3808
  736MOL0     C97033  12.020   5.570   3.377 -1.1667  0.1846  0.1306
  736MOL0     C97034  11.912   5.600   3.482 -0.6250  0.0502 -0.1879
  736MOL0     C97035  11.970   5.592   3.626  0.7117  0.3036 -0.8984
  736MOL0     C97036  11.895   5.692   3.725  0.3695  0.0569  0.1547
  736MOL0     N97037  11.925   5.687   3.867  0.6358 -0.5487  0.0697
  736MOL0     C97038  11.839   5.692   3.979  0.3405  0.4100 -0.4372
  736MOL0     C97039  11.913   5.738   4.081  0.9742 -0.0325 -0.5702
  736MOL0     C97040  11.881   5.785   4.219  0.9000  0.1574 -0.4964
  736MOL0     C97041  11.814   5.664   4.289  0.6991  0.7990  0.7891
  736MOL0     C97042  11.747   5.708   4.419  0.1611 -0.5955  0.3795
  736MOL0     C97043  11.753   5.613   4.537  0.2616  0.6414  0.8134
  736MOL0     O97044  11.864   5.638   4.630 -0.3504  1.4828 -1.0255
  736MOL0     C97045  11.854   5.736   4.730 -0.0234 -0.3809  0.6876
  736MOL0     C97046  11.755   5.835   4.731  0.3170  0.1013  0.5033
  736MOL0     C97047  11.773   5.946   4.816 -0.5721 -0.5025 -0.9278
  736MOL0     C97048  11.892   5.965   4.892  0.1369 -0.1419  0.6760
  736MOL0     C97049  11.910   6.073   4.988  0.0275 -0.5625 -0.3150
  736MOL0     O97050  11.798   6.160   4.995 -0.6412  0.3956 -0.1484
  736MOL0     C97051  11.799   6.277   5.066  0.7717 -0.7153  0.3435
  736MOL0     C97052  11.719   6.379   5.016 -0.0249 -0.2714 -0.2353
  736MOL0     C97053  11.689   6.498   5.079 -0.0750 -0.1373  0.0317
  736MOL0     C97054  11.750   6.516   5.199 -0.4174  0.2015 -0.5650
  736MOL0     O97055  11.737   6.635   5.265 -0.1558  0.1432  0.7665
  736MOL0     C97056  11.677   6.604   5.395 -0.9801  0.3762 -0.1861
  736MOL0     C97057  11.615   6.737   5.439 -0.0665  0.4135 -0.2792
  736MOL0     C97058  11.714   6.845   5.485 -0.3564 -0.5821 -0.3074
  736MOL0     C97059  11.638   6.969   5.537  0.3349  0.0681  0.1667
  736MOL0     C97060  11.722   7.095   5.566 -0.1589 -0.1554 -0.0882
  736MOL0     C97061  11.733   7.208   5.450 -0.1302 -0.0206 -0.0148
  736MOL0     C97062  11.596   7.270   5.413 -0.3433  0.0954  0.5202
  736MOL0     C97063  11.617   7.400   5.332  0.4598  1.5439  0.0512
  736MOL0    Cl97064  11.460   7.483   5.315  0.2342 -0.3257 -0.3459
  736MOL0     C97065  11.834   6.426   5.260 -0.3571 -0.1568 -0.3626
  736MOL0     C97066  11.858   6.305   5.193  0.5265  0.4639  0.0132
  736MOL0     O97067  12.020   6.090   5.044  0.0701 -0.4382  0.8261
  736MOL0     C97068  11.992   5.874   4.861  0.6423  0.3696 -0.1397
  736MOL0     C97069  11.971   5.751   4.792  0.0224 -0.3399  0.7569
  736MOL0     N97070  12.047   5.739   4.035 -0.3463  0.5535  0.1737
  736MOL0     N97071  12.051   5.696   3.908  0.3665 -0.4114 -0.6161
  736MOL0     C97072  11.598   5.984   3.135  0.3320  0.6756 -0.4289
  736MOL0     C97073  11.481   6.022   3.214  0.0959 -0.0910  0.0386
  736MOL0     C97074  11.026   5.954   3.350  0.7208  0.4706  1.0920
  736MOL0     C97075  10.904   5.903   3.294  0.5124 -0.1999  0.4528
  736MOL0     C97076  10.789   5.919   3.364  0.1282 -1.1926  0.4685
  736MOL0     C97077  10.790   5.968   3.496  0.0432  0.1028  0.0820
  736MOL0     O97078  10.667   5.993   3.555  0.3526 -0.1456  0.5248
  736MOL0     C97079  10.623   6.105   3.631  0.2627  0.2718 -0.0576
  736MOL0     C97080  10.509   6.176   3.554  1.5914  0.3501  0.3473
  736MOL0     C97081  10.409   6.076   3.493 -0.1557 -0.7509  0.1029
  736MOL0     C97082  10.265   6.125   3.511 -0.5711 -0.1423 -0.5645
  736MOL0     C97083  10.174   6.036   3.437  0.4698  0.0581  0.1042
  736MOL0     C97084  10.088   5.992   3.375  0.3717  0.4936  0.5286
  736MOL0     C97085  10.909   6.024   3.551  0.7125  0.5349  0.4116
  736MOL0     C97086  11.025   6.002   3.483 -0.6819 -0.4652 -0.0975
  736MOL0     H97087  11.326   5.726   3.212  0.2175 -0.9934  0.6016
  736MOL0     H97088  11.530   5.663   3.089 -3.4277  0.2419 -0.7621
  736MOL0     H97089  11.832   5.744   2.885  0.6295 -0.7181 -0.7367
  736MOL0     H97090  11.682   5.671   2.923 -0.2644 -0.1767  2.3632
  736MOL0     H97091  11.889   5.535   2.982  0.4389 -1.6292  0.7025
  736MOL0     H97092  11.737   5.531   3.071 -1.3829  0.9134  0.4728
  736MOL0     H97093  11.814   5.659   3.246  0.1690  0.4350 -0.2570
  736MOL0     H97094  11.954   5.726   3.162 -1.7926  1.1188  2.4869
  736MOL0     H97095  11.922   5.427   3.253  1.9329 -0.7882 -1.0369
  736MOL0     H97096  12.058   5.515   3.177  0.9630  0.4996  0.7746
  736MOL0     H97097  12.089   5.654   3.370  0.7512 -1.2720  0.6747
  736MOL0     H97098  12.077   5.480   3.403 -3.5596 -1.2400  0.7919
  736MOL0     H97099  11.828   5.530   3.478 -2.8708  2.5416  0.4015
  736MOL0     H97100  11.885   5.704   3.463  1.0323  1.1295  2.7729
  736MOL0     H97101  11.965   5.491   3.670 -1.9735  1.4289  1.7738
  736MOL0     H97102  12.072   5.631   3.627 -0.2130  3.0164 -2.7146
  736MOL0     H97103  11.787   5.677   3.730  0.3095  0.9518  2.7291
  736MOL0     H97104  11.915   5.794   3.692  3.6175 -1.3291 -2.8525
  736MOL0     H97105  11.731   5.683   3.985  0.4547  0.0422  2.2357
  736MOL0     H97106  11.811   5.867   4.198  0.5763 -0.0068 -0.0604
  736MOL0     H97107  11.963   5.827   4.277  1.0605 -1.5114  0.5455
  736MOL0     H97108  11.894   5.591   4.301  0.8490  0.6483 -0.8621
  736MOL0     H97109  11.732   5.619   4.232 -1.2829  3.6893  1.1401
  736MOL0     H97110  11.787   5.806   4.449 -0.0111 -0.6011  0.6334
  736MOL0     H97111  11.641   5.728   4.399 -0.1955 -0.3685  2.2747
  736MOL0     H97112  11.762   5.515   4.488 -0.8400  1.0490 -0.2680
  736MOL0     H97113  11.660   5.617   4.594 -1.8206 -1.3391 -2.1555
  736MOL0     H97114  11.658   5.817   4.685  0.0295  2.9917 -0.2058
  736MOL0     H97115  11.691   6.017   4.823  0.1397  0.5635 -2.7297
  736MOL0     H97116  11.669   6.375   4.919  0.3101  2.0801 -0.5874
  736MOL0     H97117  11.620   6.574   5.045  0.6222  0.8124  0.6996
  736MOL0     H97118  11.738   6.560   5.475  0.5273 -4.3447 -3.4820
  736MOL0     H97119  11.590   6.540   5.383 -1.1605  1.0533 -3.0870
  736MOL0     H97120  11.558   6.706   5.527  1.5111 -1.6541  0.0962
  736MOL0     H97121  11.557   6.779   5.356 -1.1556  0.2622  0.3943
  736MOL0     H97122  11.774   6.865   5.396  1.4466  0.0697  1.0013
  736MOL0     H97123  11.789   6.829   5.563 -0.3537 -0.0367 -0.1966
  736MOL0     H97124  11.567   6.995   5.458 -0.3508  0.3208  0.8590
  736MOL0     H97125  11.584   6.932   5.624  1.6475  1.2538  1.5274
  736MOL0     H97126  11.822   7.052   5.572 -0.6521 -1.1407  4.2681
  736MOL0     H97127  11.690   7.131   5.664 -0.6646 -1.0548  0.0840
  736MOL0     H97128  11.774   7.169   5.356 -0.8908  0.5174 -0.5863
  736MOL0     H97129  11.793   7.284   5.500  1.4821 -2.0371  1.3088
  736MOL0     H97130  11.534   7.202   5.354  1.7825 -0.6195 -1.0457
  736MOL0     H97131  11.539   7.307   5.498  0.9564  0.3611  1.2927
  736MOL0     H97132  11.668   7.378   5.238 -0.2112 -3.7832  0.6155
  736MOL0     H97133  11.671   7.476   5.388  0.7747  0.9202  0.6134
  736MOL0     H97134  11.881   6.453   5.354  0.7163  3.6672 -1.8196
  736MOL0     H97135  11.917   6.225   5.237  1.8224 -0.4074 -3.0593
  736MOL0     H97136  12.094   5.893   4.895  0.9720 -1.8396  0.2996
  736MOL0     H97137  12.045   5.677   4.765 -0.5457 -0.2375 -1.2038
  736MOL0     H97138  11.669   6.058   3.098 -0.7790  2.2699  0.5085
  736MOL0     H97139  11.470   6.127   3.239  2.3467 -0.1199  1.3894
  736MOL0     H97140  10.887   5.839   3.208 -1.0044 -3.3125  2.8696
  736MOL0     H97141  10.690   5.888   3.332  0.0888 -0.5373 -0.0637
  736MOL0     H97142  10.706   6.175   3.646 -0.4952  0.9540  1.0718
  736MOL0     H97143  10.588   6.079   3.731  0.2476  1.4124  0.2526
  736MOL0     H97144  10.464   6.265   3.597 -1.5382 -2.4063  3.4470
  736MOL0     H97145  10.570   6.215   3.472  1.7468  3.8244  1.9499
  736MOL0     H97146  10.407   5.978   3.543  1.2188 -1.4408 -1.1314
  736MOL0     H97147  10.422   6.059   3.386  2.3590 -1.9137  0.5197
  736MOL0     H97148  10.236   6.105   3.615 -0.0223 -2.6553 -0.8310
  736MOL0     H97149  10.248   6.229   3.482 -0.5127  0.6596  2.0422
  736MOL0     H97150  10.004   5.955   3.320  0.7779  3.5870 -2.5404
  736MOL0     H97151  10.912   6.067   3.651 -2.1668 -0.0794  0.8748
  736MOL0     H97152  11.104   6.052   3.538 -0.4417 -2.1052  1.1388
  737MOL0     O97153   9.022  10.551  10.138 -0.5002 -0.5487  0.4560
  737MOL0     C97154   8.956  10.612  10.220 -0.7820 -0.4933 -0.0390
  737MOL0     O97155   8.906  10.731  10.194 -0.2623 -0.3135  0.1267
  737MOL0     C97156   8.884  10.775  10.069 -0.6123 -0.5134  0.3997
  737MOL0     C97157   8.904  10.910  10.035 -0.4175  0.4315 -0.5890
  737MOL0     C97158   8.868  10.950   9.901 -0.2281  0.3465 -0.2904
  737MOL0     C97159   8.827  10.860   9.804  0.1470 -0.0677 -0.1092
  737MOL0     O97160   8.799  10.910   9.679  0.5236 -0.9431  0.4998
  737MOL0     C97161   8.805  10.819   9.566 -0.6118  0.4357  0.3543
  737MOL0     C97162   8.779  10.898   9.442  0.8400 -0.7440  0.5209
  737MOL0     C97163   8.839  10.831   9.316 -0.4009 -0.6080  0.2466
  737MOL0     C97164   8.829  10.683   9.305 -0.5609 -0.1787 -0.4037
  737MOL0     C97165   8.872  10.622   9.172  0.1704 -0.0904  0.8821
  737MOL0     C97166   8.784  10.669   9.054 -0.5014 -0.3827  0.0811
  737MOL0     C97167   8.773  10.558   8.947 -0.3370 -0.3780  0.7007
  737MOL0     C97168   8.907  10.529   8.879  1.1100  0.0766  1.0659
  737MOL0     N97169   8.903  10.463   8.747  0.2046 -0.6488  0.0751
  737MOL0     C97170   8.997  10.376   8.703 -0.0903 -0.4528  0.3693
  737MOL0     C97171   8.972  10.370   8.565  0.1623  0.0328  0.1760
  737MOL0     C97172   9.029  10.261   8.476 -0.7579 -0.4208  0.9202
  737MOL0     C97173   9.160  10.293   8.392  0.4098  0.3353 -0.4549
  737MOL0     C97174   9.297  10.309   8.470  0.4121 -0.5077  0.2965
  737MOL0     C97175   9.352  10.176   8.520 -0.5374 -0.2369 -0.2364
  737MOL0     O97176   9.277  10.119   8.631  0.4523 -0.3085  0.5826
  737MOL0     C97177   9.337  10.013   8.689 -0.0900  0.3693  0.2231
  737MOL0     C97178   9.261   9.943   8.777 -0.4494  1.5379  0.1895
  737MOL0     C97179   9.313   9.829   8.859  0.7611  0.2666 -0.2641
  737MOL0     C97180   9.444   9.791   8.833 -0.4634  0.1579  1.3416
  737MOL0     C97181   9.489   9.655   8.882  0.2276  0.1297  0.3254
  737MOL0     O97182   9.399   9.590   8.979 -0.5539 -0.7648  0.0069
  737MOL0     C97183   9.420   9.456   9.028  0.4834  0.0597  0.3395
  737MOL0     C97184   9.407   9.422   9.165  0.0372 -0.2372  0.2732
  737MOL0     C97185   9.427   9.297   9.225 -0.2254 -0.0484 -0.1200
  737MOL0     C97186   9.453   9.192   9.132 -0.4301 -0.4404  0.1404
  737MOL0     O97187   9.484   9.061   9.162  0.1206  0.1368  0.1712
  737MOL0     C97188   9.556   9.040   9.285  0.0455  0.1895  0.4904
  737MOL0     C97189   9.605   8.894   9.274  0.5435  0.2981 -0.0224
  737MOL0     C97190   9.685   8.847   9.398  0.0103  0.1934  0.7144
  737MOL0     C97191   9.809   8.938   9.426  0.2377 -0.0369 -0.0210
  737MOL0     C97192   9.924   8.875   9.513  0.2650 -0.3944  0.8223
  737MOL0     C97193  10.020   8.979   9.574 -0.5010 -0.4229 -0.0645
  737MOL0     C97194  10.139   8.915   9.644 -0.5597  1.2215 -0.2796
  737MOL0     C97195  10.217   9.011   9.735  0.2783  1.1862 -0.4391
  737MOL0    Cl97196  10.228   8.963   9.918 -0.0813 -0.0166  0.2458
  737MOL0     C97197   9.460   9.217   8.998  0.9875  1.2994  0.0127
  737MOL0     C97198   9.442   9.347   8.942 -0.2016  0.4669  0.3862
  737MOL0     O97199   9.601   9.610   8.849  0.7237  0.3700  0.2908
  737MOL0     C97200   9.527   9.870   8.756 -0.2141 -0.1287  0.8837
  737MOL0     C97201   9.477   9.969   8.672  0.2229 -0.0787  0.2542
  737MOL0     N97202   8.870  10.462   8.528 -0.1002  1.1175  0.0741
  737MOL0     N97203   8.847  10.529   8.641 -0.4109 -0.5428  0.7148
  737MOL0     C97204   8.807  10.728   9.844  0.3361  0.8009 -0.1938
  737MOL0     C97205   8.842  10.691   9.972  0.3815 -0.8567  0.4885
  737MOL0     C97206   8.952  10.561  10.360  1.0334  0.3652  0.2755
  737MOL0     C97207   8.840  10.602  10.441  0.4348  0.1186 -0.1873
  737MOL0     C97208   8.820  10.549  10.568 -0.3993  0.2846 -0.3439
  737MOL0     C97209   8.923  10.464  10.627 -1.0123  0.5443 -0.7972
  737MOL0     O97210   8.927  10.416  10.755 -0.2319 -0.1358 -0.6920
  737MOL0     C97211   8.949  10.518  10.852  0.6327  0.3234  0.0500
  737MOL0     C97212   8.847  10.511  10.963 -0.2103 -0.0622  0.7815
  737MOL0     C97213   8.880  10.612  11.069 -0.0928 -0.1489 -0.8009
  737MOL0     C97214   8.793  10.588  11.198  0.2659 -0.0461 -0.1850
  737MOL0     C97215   8.815  10.691  11.299 -0.3104  0.6015  0.2151
  737MOL0     C97216   8.843  10.790  11.362  0.1812  0.4712  0.0457
  737MOL0     C97217   9.035  10.427  10.546 -0.2360 -0.8463  0.0192
  737MOL0     C97218   9.041  10.461  10.408 -0.2368  0.7557 -0.9844
  737MOL0     H97219   8.918  10.970  10.125  0.6688  1.1791 -1.2384
  737MOL0     H97220   8.866  11.055   9.874  2.1172  0.8185  1.1151
  737MOL0     H97221   8.734  10.738   9.586 -0.3264  0.0520 -0.1489
  737MOL0     H97222   8.906  10.778   9.560 -0.1763  1.2782  1.5095
  737MOL0     H97223   8.823  10.997   9.458 -0.5611 -0.2799  1.7505
  737MOL0     H97224   8.676  10.915   9.408  1.6001 -0.2881 -1.7388
  737MOL0     H97225   8.947  10.851   9.320 -0.9183  3.1643 -0.6759
  737MOL0     H97226   8.806  10.881   9.225 -1.5539 -0.8206  0.5381
  737MOL0     H97227   8.891  10.647   9.387 -0.0228  1.8497  0.1308
  737MOL0     H97228   8.726  10.650   9.322 -0.0908 -1.5196  0.0107
  737MOL0     H97229   8.877  10.513   9.168  0.5343 -0.0302 -1.1361
  737MOL0     H97230   8.972  10.661   9.156 -0.0198 -0.5816 -1.8946
  737MOL0     H97231   8.832  10.758   9.012  1.6638  0.2160  3.3897
  737MOL0     H97232   8.681  10.684   9.089 -0.4714 -1.8802  0.8667
  737MOL0     H97233   8.728  10.470   8.993 -1.1456  0.9830  2.6138
  737MOL0     H97234   8.708  10.597   8.867 -1.2571 -0.3974  1.4227
  737MOL0     H97235   8.979  10.473   8.940  3.0398 -0.8330 -1.8439
  737MOL0     H97236   8.970  10.613   8.848 -0.1995  0.2873 -1.2241
  737MOL0     H97237   9.070  10.323   8.763 -0.3233 -1.4201 -0.1913
  737MOL0     H97238   8.954  10.233   8.402  1.0320 -1.1671 -0.6825
  737MOL0     H97239   9.049  10.171   8.534  0.5816  0.4582  1.8799
  737MOL0     H97240   9.156  10.387   8.335 -3.1178  0.2643 -0.5386
  737MOL0     H97241   9.170  10.211   8.321 -0.0966 -0.3873  0.2885
  737MOL0     H97242   9.379  10.349   8.410  1.5522  2.1594  3.3289
  737MOL0     H97243   9.297  10.382   8.551  3.8245 -0.1140  0.0816
  737MOL0     H97244   9.459  10.190   8.537 -0.4100  1.2755 -1.9369
  737MOL0     H97245   9.349  10.102   8.440  1.6825 -1.5422  0.8036
  737MOL0     H97246   9.163   9.979   8.805  0.8771  3.1483  3.3033
  737MOL0     H97247   9.249   9.783   8.933  1.1477  0.0920 -0.0365
  737MOL0     H97248   9.395   9.509   9.229 -2.8240 -0.7924  0.6345
  737MOL0     H97249   9.429   9.287   9.333 -3.7511  2.9635  0.4293
  737MOL0     H97250   9.507   9.051   9.382  1.6927 -1.2157  1.5381
  737MOL0     H97251   9.636   9.115   9.291 -0.3314  0.6338  0.1227
  737MOL0     H97252   9.655   8.871   9.180 -0.7119  0.8416 -0.8427
  737MOL0     H97253   9.514   8.835   9.263  0.9905  0.0123 -2.8095
  737MOL0     H97254   9.712   8.742   9.399  0.2045  0.2195 -0.4333
  737MOL0     H97255   9.623   8.854   9.488  0.2847 -2.0755  1.1312
  737MOL0     H97256   9.855   8.965   9.330  0.2611  0.5861  0.1589
  737MOL0     H97257   9.787   9.038   9.464 -2.0549 -0.0670 -1.0812
  737MOL0     H97258   9.982   8.806   9.451  0.0418  0.7716 -0.7470
  737MOL0     H97259   9.875   8.821   9.594  1.3679 -1.1389  1.0202
  737MOL0     H97260   9.979   9.051   9.644 -2.5383 -2.2963  0.7725
  737MOL0     H97261  10.063   9.037   9.492 -1.4421  0.7811  0.2685
  737MOL0     H97262  10.102   8.826   9.695 -0.0159  1.1709  0.0369
  737MOL0     H97263  10.201   8.871   9.566 -2.9867 -2.0151 -0.5782
  737MOL0     H97264  10.164   9.107   9.725  2.8163  2.5858 -1.3944
  737MOL0     H97265  10.316   9.031   9.693 -0.8408  0.6870 -3.5921
  737MOL0     H97266   9.468   9.140   8.921  0.6958  0.3379  0.9136
  737MOL0     H97267   9.449   9.376   8.837  1.2634 -1.0243  0.0333
  737MOL0     H97268   9.628   9.842   8.728 -0.2699  1.0571 -0.5947
  737MOL0     H97269   9.539  10.009   8.593  0.0138 -1.5219 -0.6962
  737MOL0     H97270   8.752  10.657   9.783  1.8190  0.5805 -1.3411
  737MOL0     H97271   8.839  10.583   9.988  3.5558 -1.1644 -0.3713
  737MOL0     H97272   8.767  10.666  10.392  0.3888 -0.2037 -0.5494
  737MOL0     H97273   8.731  10.588  10.617 -1.0591 -0.2376 -1.1016
  737MOL0     H97274   8.951  10.621  10.814 -0.5244  0.1565 -0.5032
  737MOL0     H97275   9.050  10.519  10.894  0.8902 -1.0206 -0.4970
  737MOL0     H97276   8.748  10.526  10.918 -1.2083 -4.9602  0.8218
  737MOL0     H97277   8.850  10.409  11.003 -0.6110 -0.1420  0.6177
  737MOL0     H97278   8.857  10.718  11.053 -0.9446  0.4403  3.3202
  737MOL0     H97279   8.984  10.606  11.103 -0.7424 -3.2286  1.0688
  737MOL0     H97280   8.687  10.589  11.172  0.1256  0.1864  0.3955
  737MOL0     H97281   8.811  10.487  11.236  0.0580  0.0148  0.0734
  737MOL0     H97282   8.870  10.888  11.394  1.0569  0.6684 -1.2029
  737MOL0     H97283   9.112  10.372  10.598 -0.0104  0.1542  0.7817
  737MOL0     H97284   9.127  10.433  10.348  1.2327  2.8636  0.0253
  738MOL0     O97285   8.323   1.036   8.347  0.2329  0.5678 -0.3273
  738MOL0     C97286   8.203   0.999   8.360  0.6176 -0.6779  1.2515
  738MOL0     O97287   8.098   1.082   8.327 -0.0364  0.4644  0.5122
  738MOL0     C97288   8.122   1.214   8.291 -0.1622 -0.2527  0.3156
  738MOL0     C97289   8.202   1.264   8.188  0.5214 -0.0714  0.3017
  738MOL0     C97290   8.192   1.404   8.159  0.0297  0.2090 -0.2097
  738MOL0     C97291   8.096   1.482   8.224 -0.5017  0.0992  1.3960
  738MOL0     O97292   8.089   1.607   8.175  0.2030  0.1018 -1.0443
  738MOL0     C97293   8.080   1.699   8.284  0.2557 -0.3236 -0.0653
  738MOL0     C97294   8.164   1.820   8.242 -0.7217 -0.6086  0.2856
  738MOL0     C97295   8.078   1.940   8.168  1.2742  0.3264  0.7798
  738MOL0     C97296   8.164   2.061   8.167 -0.3387 -0.3112 -1.1290
  738MOL0     C97297   8.106   2.179   8.081 -0.1276  0.1562 -0.4991
  738MOL0     C97298   8.174   2.315   8.114 -1.5086  0.3463  0.1306
  738MOL0     C97299   8.119   2.422   8.012 -0.2253  0.3106 -0.1679
  738MOL0     C97300   8.184   2.562   8.043  0.5211  0.2991 -1.5331
  738MOL0     N97301   8.102   2.675   7.996 -0.1306 -0.1334  0.6334
  738MOL0     C97302   8.163   2.783   7.937  0.2103  1.2099  0.7685
  738MOL0     C97303   8.061   2.868   7.925 -0.4358  0.7153 -0.3310
  738MOL0     C97304   8.068   3.021   7.903 -0.5669 -0.3094 -0.3071
  738MOL0     C97305   7.938   3.092   7.905 -0.4328  0.9793  0.3190
  738MOL0     C97306   7.941   3.238   7.880  0.1029 -0.4458 -0.6620
  738MOL0     C97307   7.946   3.329   8.002  0.1734  0.0889  0.3287
  738MOL0     O97308   7.824   3.407   8.009 -0.5235 -0.1364  0.6794
  738MOL0     C97309   7.794   3.487   8.120  0.5625  0.0696 -0.0758
  738MOL0     C97310   7.667   3.558   8.113  0.5041  0.8176  0.0848
  738MOL0     C97311   7.640   3.661   8.199  0.7014 -0.4343 -0.2810
  738MOL0     C97312   7.731   3.683   8.303 -0.5308  0.7081 -0.4334
  738MOL0     C97313   7.706   3.788   8.397  0.1893 -0.4312  0.1532
  738MOL0     O97314   7.602   3.873   8.373  0.1278 -0.0224 -0.3246
  738MOL0     C97315   7.568   3.956   8.480 -0.9795 -0.5968  0.4288
  738MOL0     C97316   7.473   3.911   8.565 -0.0976  0.3145  0.3009
  738MOL0     C97317   7.431   3.992   8.669 -0.6131 -0.5627 -0.2405
  738MOL0     C97318   7.481   4.128   8.680  0.4914  0.7790 -0.3232
  738MOL0     O97319   7.454   4.223   8.769  0.3556  0.0179 -0.0645
  738MOL0     C97320   7.353   4.197   8.876 -0.8262  0.6352  0.2327
  738MOL0     C97321   7.354   4.294   8.995  0.1604 -0.0500  0.8244
  738MOL0     C97322   7.486   4.360   9.004 -0.4827 -0.0064 -0.6785
  738MOL0     C97323   7.478   4.499   8.934  0.0492  0.0674  0.0467
  738MOL0     C97324   7.573   4.595   9.012 -0.7256  0.7718 -0.2453
  738MOL0     C97325   7.569   4.742   8.960  0.1641  0.0619 -0.1828
  738MOL0     C97326   7.439   4.815   8.984 -0.3792 -0.7562  1.1790
  738MOL0     C97327   7.426   4.967   8.959 -0.0429  0.4419  0.3279
  738MOL0    Cl97328   7.474   5.048   9.114  0.3470 -0.1495  0.4286
  738MOL0     C97329   7.572   4.174   8.585 -0.2773  0.4995  0.6554
  738MOL0     C97330   7.624   4.085   8.489 -0.2556 -0.2803  0.5740
  738MOL0     O97331   7.767   3.781   8.504 -0.3089  0.5272  0.0376
  738MOL0     C97332   7.849   3.614   8.309 -0.7288  0.1254  0.4478
  738MOL0     C97333   7.883   3.518   8.224 -0.4830  1.2635 -0.3864
  738MOL0     N97334   7.944   2.807   7.958 -0.1015  0.0827  0.7008
  738MOL0     N97335   7.964   2.692   7.996 -0.9703 -0.6262 -0.1653
  738MOL0     C97336   8.030   1.435   8.341  0.7382  0.4137  0.9427
  738MOL0     C97337   8.041   1.297   8.368 -0.0501  0.0000  0.6137
  738MOL0     C97338   8.187   0.861   8.402  0.1027 -1.0516 -0.1139
  738MOL0     C97339   8.289   0.790   8.469  0.4652 -0.4722  0.1771
  738MOL0     C97340   8.253   0.666   8.514 -0.3827 -0.0274  0.7840
  738MOL0     C97341   8.125   0.614   8.512 -0.1291 -0.3725  0.8796
  738MOL0     O97342   8.101   0.488   8.566  0.2812 -0.1945  0.0793
  738MOL0     C97343   8.215   0.402   8.588  0.5991 -0.1915  0.2469
  738MOL0     C97344   8.199   0.257   8.632  0.1167 -0.0271  0.1572
  738MOL0     C97345   8.131   0.251   8.768 -0.1374 -0.6238  0.0356
  738MOL0     C97346   8.098   0.107   8.806  0.3720  0.7355  0.2917
  738MOL0     C97347   8.216   0.021   8.800 -0.7329  0.4040 -0.6236
  738MOL0     C97348   8.308  -0.053   8.804  0.5620  0.4232  1.3857
  738MOL0     C97349   8.024   0.681   8.432 -0.1816 -0.2705 -0.7498
  738MOL0     C97350   8.060   0.808   8.377 -0.3436  0.7319  0.7664
  738MOL0     H97351   8.278   1.203   8.140 -0.6068  1.7496 -4.3535
  738MOL0     H97352   8.267   1.437   8.088  1.1390  0.7582  1.1712
  738MOL0     H97353   8.131   1.660   8.373  0.2385  0.8290  0.4725
  738MOL0     H97354   7.980   1.733   8.310  1.9273  2.1099  4.3178
  738MOL0     H97355   8.250   1.786   8.184  0.1602  0.6193  0.8329
  738MOL0     H97356   8.197   1.866   8.336 -4.0911  0.7133  0.9797
  738MOL0     H97357   7.989   1.949   8.231  0.4482 -0.0649 -0.2984
  738MOL0     H97358   8.039   1.912   8.070 -1.3788 -1.9426  2.3573
  738MOL0     H97359   8.180   2.091   8.271  0.4893 -1.5935 -0.8719
  738MOL0     H97360   8.264   2.047   8.125  0.2967  0.8157 -0.0455
  738MOL0     H97361   7.998   2.177   8.098 -0.3265 -0.2162 -1.6783
  738MOL0     H97362   8.132   2.157   7.976 -0.7016  0.7419 -0.7688
  738MOL0     H97363   8.282   2.308   8.095 -1.0983  2.8355  1.1503
  738MOL0     H97364   8.166   2.340   8.220  3.0533 -0.0969  0.7985
  738MOL0     H97365   8.138   2.375   7.915 -0.0988  1.4098 -0.6943
  738MOL0     H97366   8.011   2.434   8.030 -0.1365  0.8810  0.0168
  738MOL0     H97367   8.281   2.580   7.995  0.9794 -0.2093 -0.8085
  738MOL0     H97368   8.195   2.573   8.151 -0.2810  1.8290 -1.5705
  738MOL0     H97369   8.269   2.805   7.931  0.0043  2.7467  2.0879
  738MOL0     H97370   8.109   3.041   7.803  0.2144 -0.0393  0.0553
  738MOL0     H97371   8.139   3.049   7.982 -0.6882 -1.3127  0.1682
  738MOL0     H97372   7.889   3.071   8.001 -5.1889  0.8310 -1.8664
  738MOL0     H97373   7.872   3.047   7.831 -0.4919  2.8003 -0.8008
  738MOL0     H97374   8.020   3.258   7.807  3.4908  0.4944  2.9288
  738MOL0     H97375   7.851   3.260   7.822 -0.1812 -0.3386 -0.1801
  738MOL0     H97376   8.029   3.398   7.986 -1.7879  2.5963  0.1606
  738MOL0     H97377   7.950   3.268   8.093 -3.5140  0.1251  0.6730
  738MOL0     H97378   7.596   3.551   8.031  0.3892  0.1556  0.2313
  738MOL0     H97379   7.551   3.721   8.180 -0.6958 -1.9620  1.0418
  738MOL0     H97380   7.419   3.818   8.551 -3.6600  2.2585  0.0770
  738MOL0     H97381   7.360   3.958   8.743  1.2111  0.1145  1.9586
  738MOL0     H97382   7.366   4.093   8.909 -1.1905 -0.1243 -1.8235
  738MOL0     H97383   7.260   4.190   8.819  0.2775  2.4025 -1.9634
  738MOL0     H97384   7.334   4.241   9.088  3.8281  0.2977  1.9734
  738MOL0     H97385   7.279   4.362   8.954  1.6974  1.0441 -0.3109
  738MOL0     H97386   7.569   4.302   8.962  0.4368 -0.3296  1.4711
  738MOL0     H97387   7.503   4.372   9.111  0.7160 -3.5170 -0.3360
  738MOL0     H97388   7.522   4.484   8.835 -0.4172 -2.9126  0.2011
  738MOL0     H97389   7.377   4.540   8.937 -0.9483 -2.2868  0.7654
  738MOL0     H97390   7.676   4.560   9.000 -0.6537  0.8629  0.0805
  738MOL0     H97391   7.562   4.597   9.121 -1.1080  1.0391 -0.2838
  738MOL0     H97392   7.590   4.739   8.852  0.0812 -1.0768 -0.1768
  738MOL0     H97393   7.652   4.791   9.012  1.9054 -1.9586 -0.8989
  738MOL0     H97394   7.373   4.768   8.911  4.0400  1.5533 -5.2051
  738MOL0     H97395   7.408   4.784   9.085  2.3250  3.8434  3.7646
  738MOL0     H97396   7.322   4.985   8.929  0.6540  1.5094 -1.6161
  738MOL0     H97397   7.489   4.989   8.873  0.6213 -1.2867  0.3348
  738MOL0     H97398   7.602   4.277   8.599  1.0306  0.4227 -1.2085
  738MOL0     H97399   7.708   4.115   8.427  0.5822 -1.2341  1.2217
  738MOL0     H97400   7.920   3.630   8.390  1.6915 -2.4471 -0.9950
  738MOL0     H97401   7.969   3.457   8.246  0.6027  2.4894 -1.0594
  738MOL0     H97402   7.966   1.496   8.403 -2.8076 -1.0311 -1.0088
  738MOL0     H97403   7.995   1.258   8.458  1.3274 -1.8673  0.5609
  738MOL0     H97404   8.385   0.834   8.492  0.7392 -0.4463 -0.9207
  738MOL0     H97405   8.338   0.610   8.550  0.6885  2.1622  1.8457
  738MOL0     H97406   8.285   0.450   8.657  0.4045 -1.2547  1.2088
  738MOL0     H97407   8.263   0.403   8.489  1.8717 -1.3386  0.8187
  738MOL0     H97408   8.141   0.195   8.563  1.0087 -1.2776  0.5107
  738MOL0     H97409   8.300   0.215   8.635 -0.5162 -1.7534 -1.2920
  738MOL0     H97410   8.039   0.309   8.762  1.5445  2.5089  1.6987
  738MOL0     H97411   8.201   0.292   8.841 -1.6217 -3.3894  3.2551
  738MOL0     H97412   8.059   0.109   8.907 -0.1829 -4.4175  0.4376
  738MOL0     H97413   8.015   0.059   8.754 -3.1343  2.3836  3.8702
  738MOL0     H97414   8.367  -0.140   8.827  0.1557  0.4202  2.5142
  738MOL0     H97415   7.931   0.626   8.422  0.4325 -3.4635  5.7289
  738MOL0     H97416   7.988   0.854   8.309 -1.7395 -0.8763  1.0854
  739MOL0     O97417   3.367   0.331  10.043 -0.4119  0.0247 -0.6799
  739MOL0     C97418   3.441   0.292  10.135 -0.7757  0.1365 -0.5584
  739MOL0     O97419   3.444   0.172  10.187 -1.0410  0.1349  0.3725
  739MOL0     C97420   3.324   0.095  10.186  0.7137 -0.2740 -1.6262
  739MOL0     C97421   3.332  -0.043  10.164  0.8609 -0.8142  0.7781
  739MOL0     C97422   3.219  -0.126  10.189  0.1656 -0.0689 -1.1931
  739MOL0     C97423   3.097  -0.063  10.233 -0.0772  0.1038 -0.0349
  739MOL0     O97424   2.977  -0.126  10.264 -0.7495 -0.1785 -0.2712
  739MOL0     C97425   2.983  -0.274  10.280  0.3588 -0.9788 -1.0268
  739MOL0     C97426   2.835  -0.321  10.317  0.8077 -1.1955 -0.8792
  739MOL0     C97427   2.834  -0.473  10.344 -1.0758  0.4493 -1.1462
  739MOL0     C97428   2.839  -0.566  10.220 -0.5430 -0.4712 -0.3013
  739MOL0     C97429   2.849  -0.711  10.243  0.2211  0.0881 -0.6937
  739MOL0     C97430   2.989  -0.760  10.281 -0.0516  0.3107  0.1613
  739MOL0     C97431   2.989  -0.902  10.333 -0.9734  0.4960  1.0049
  739MOL0     C97432   2.944  -0.928  10.477  0.5745  0.1595  0.0496
  739MOL0     N97433   2.963  -1.072  10.501  0.2131 -0.4242 -0.1847
  739MOL0     C97434   3.081  -1.137  10.529  0.5401 -0.9418  0.2725
  739MOL0     C97435   3.055  -1.265  10.509  0.1403  0.1800  0.5750
  739MOL0     C97436   3.159  -1.372  10.501  0.4532  0.3377  0.1818
  739MOL0     C97437   3.253  -1.379  10.377 -0.7182  0.0704 -0.1932
  739MOL0     C97438   3.332  -1.256  10.360 -0.6924 -0.3259 -0.4155
  739MOL0     C97439   3.441  -1.267  10.256  0.7259 -1.0836 -0.4065
  739MOL0     O97440   3.387  -1.325  10.132 -0.4457  0.2309  0.4172
  739MOL0     C97441   3.468  -1.397  10.055 -0.6536 -0.3732 -0.1904
  739MOL0     C97442   3.402  -1.491   9.982 -0.8343  0.0487  0.0124
  739MOL0     C97443   3.483  -1.571   9.892 -0.1604  1.2935 -0.8154
  739MOL0     C97444   3.622  -1.546   9.873 -1.0209 -0.7072 -0.0453
  739MOL0     C97445   3.702  -1.606   9.767  0.0076  0.3040 -0.2635
  739MOL0     O97446   3.708  -1.746   9.756 -0.0641  1.4978  0.5815
  739MOL0     C97447   3.795  -1.796   9.659  0.7090 -0.0249 -0.0153
  739MOL0     C97448   3.927  -1.783   9.671 -0.0896  0.3740 -0.6127
  739MOL0     C97449   4.015  -1.839   9.582  0.2926  0.2928 -0.0119
  739MOL0     C97450   3.965  -1.898   9.466 -0.4594 -0.9031  0.6317
  739MOL0     O97451   4.060  -1.944   9.379 -0.3370 -0.4741  0.2438
  739MOL0     C97452   4.059  -2.090   9.362  0.0666 -0.4535 -0.9213
  739MOL0     C97453   4.143  -2.132   9.236  0.1094  0.0350 -1.0805
  739MOL0     C97454   4.109  -2.026   9.125  0.0516  0.5009  0.2734
  739MOL0     C97455   4.132  -2.079   8.978 -0.5941  0.4445 -0.1133
  739MOL0     C97456   4.107  -1.969   8.881  0.0413 -0.0973  0.0915
  739MOL0     C97457   4.145  -1.994   8.734  0.0451  0.9647  0.0569
  739MOL0     C97458   4.293  -1.999   8.710 -0.5785  0.0844 -0.3399
  739MOL0     C97459   4.325  -2.032   8.561 -0.2385 -0.8173  0.0406
  739MOL0    Cl97460   4.291  -2.196   8.515 -0.4736  0.0912  0.5415
  739MOL0     C97461   3.831  -1.928   9.459 -0.8211 -0.6661 -0.8123
  739MOL0     C97462   3.748  -1.880   9.559  0.0561  0.1197 -0.9532
  739MOL0     O97463   3.752  -1.531   9.686 -0.0145 -0.1600 -0.6793
  739MOL0     C97464   3.678  -1.438   9.942  0.7340  0.1527 -0.5392
  739MOL0     C97465   3.602  -1.369  10.039  0.6262 -2.0637 -0.7254
  739MOL0     N97466   2.921  -1.273  10.475  0.0750  0.0873 -0.4079
  739MOL0     N97467   2.869  -1.156  10.463  0.0672  0.1240  0.7356
  739MOL0     C97468   3.096   0.077  10.243  0.0700  0.0696 -0.4976
  739MOL0     C97469   3.204   0.158  10.223  0.8262 -0.5987  0.2275
  739MOL0     C97470   3.556   0.383  10.180 -0.4388 -0.2516  0.1385
  739MOL0     C97471   3.542   0.521  10.200 -1.0097 -0.5162  0.5651
  739MOL0     C97472   3.648   0.609  10.237 -0.3881 -0.3677 -0.8262
  739MOL0     C97473   3.778   0.555  10.249  0.4784 -1.4487  0.4334
  739MOL0     O97474   3.877   0.641  10.277  0.2363  0.0626  0.4194
  739MOL0     C97475   4.008   0.593  10.295 -0.8365 -0.2745  0.5995
  739MOL0     C97476   4.064   0.560  10.154 -0.6923 -0.0211  0.3134
  739MOL0     C97477   4.214   0.523  10.148  0.2135  0.4001 -0.1364
  739MOL0     C97478   4.256   0.402  10.232  0.6024 -0.0942  0.2700
  739MOL0     C97479   4.186   0.282  10.196 -0.3915 -0.9251  0.0547
  739MOL0     C97480   4.137   0.172  10.187 -0.6402 -0.6634 -0.1283
  739MOL0     C97481   3.792   0.413  10.232  0.4751  0.2490 -0.3059
  739MOL0     C97482   3.690   0.326  10.200 -0.2054  0.4772  0.3182
  739MOL0     H97483   3.424  -0.081  10.121 -0.3364 -0.8699 -1.9433
  739MOL0     H97484   3.217  -0.231  10.164 -0.4783 -0.0135 -1.3939
  739MOL0     H97485   3.054  -0.310  10.355 -0.7579 -1.5092 -0.1890
  739MOL0     H97486   3.018  -0.322  10.188  3.9302 -3.4412  1.3579
  739MOL0     H97487   2.765  -0.285  10.241  1.7605 -2.4904 -2.4453
  739MOL0     H97488   2.800  -0.285  10.414  0.6659 -0.3407 -1.2365
  739MOL0     H97489   2.740  -0.508  10.388  0.2105 -1.6986  0.0657
  739MOL0     H97490   2.920  -0.491  10.410 -0.5258  0.6991 -1.7856
  739MOL0     H97491   2.749  -0.557  10.158 -0.0812 -2.9508 -1.4567
  739MOL0     H97492   2.917  -0.527  10.155 -2.9527  1.5696 -2.2026
  739MOL0     H97493   2.831  -0.750  10.143  3.0658 -1.3061 -0.7846
  739MOL0     H97494   2.782  -0.754  10.319 -0.9071 -0.4686 -1.9695
  739MOL0     H97495   3.037  -0.694  10.354  0.2394  1.4138 -0.9821
  739MOL0     H97496   3.055  -0.771  10.194  0.6691  1.1449  0.5855
  739MOL0     H97497   2.931  -0.960  10.260  0.8322 -0.2003  0.0751
  739MOL0     H97498   3.092  -0.938  10.334 -1.5920 -1.8383 -2.1439
  739MOL0     H97499   2.841  -0.893  10.489  0.3225 -0.1718 -1.0332
  739MOL0     H97500   3.002  -0.867  10.547 -0.8505 -0.0141  1.4336
  739MOL0     H97501   3.168  -1.081  10.562 -1.1168  1.2014  1.2215
  739MOL0     H97502   3.107  -1.468  10.509 -4.5381  2.8183  1.0316
  739MOL0     H97503   3.220  -1.358  10.590  2.9665  1.5977 -1.6140
  739MOL0     H97504   3.187  -1.398  10.291 -0.1952 -2.9702 -0.0329
  739MOL0     H97505   3.317  -1.465  10.400  1.1881  1.7526  1.1001
  739MOL0     H97506   3.273  -1.168  10.332  1.5211  0.4016 -3.3833
  739MOL0     H97507   3.382  -1.239  10.455 -0.8830 -3.7382  0.3957
  739MOL0     H97508   3.527  -1.328  10.284  0.6010 -1.5342 -0.9782
  739MOL0     H97509   3.482  -1.168  10.239  4.8421 -2.5591 -0.1544
  739MOL0     H97510   3.294  -1.501   9.989 -0.8079  0.7191  1.9770
  739MOL0     H97511   3.429  -1.647   9.837 -2.6002  0.0926  2.8734
  739MOL0     H97512   3.962  -1.725   9.755  0.4566 -0.5975 -0.1463
  739MOL0     H97513   4.124  -1.834   9.579  0.2914  0.3222  0.0007
  739MOL0     H97514   3.957  -2.130   9.352 -0.5715  1.3894 -2.3392
  739MOL0     H97515   4.113  -2.120   9.452  1.8029  4.5772  0.0036
  739MOL0     H97516   4.108  -2.230   9.202  4.1399 -1.2630 -2.0103
  739MOL0     H97517   4.245  -2.159   9.263 -0.7622 -1.2501  1.3356
  739MOL0     H97518   4.171  -1.936   9.135 -1.5409  1.5766  0.8676
  739MOL0     H97519   4.007  -1.987   9.135  0.6937  2.1817  0.7192
  739MOL0     H97520   4.224  -2.139   8.975 -1.2171 -0.5447 -0.0458
  739MOL0     H97521   4.058  -2.155   8.953 -2.3693  1.6113  1.3558
  739MOL0     H97522   4.160  -1.881   8.918 -1.3101  0.9625 -0.4122
  739MOL0     H97523   4.001  -1.943   8.886  0.0996  0.8373 -2.3525
  739MOL0     H97524   4.099  -1.909   8.684  1.2157  1.7195  0.2341
  739MOL0     H97525   4.092  -2.087   8.708  0.8044  1.2749 -2.9630
  739MOL0     H97526   4.328  -1.898   8.735 -1.2809  0.2733 -0.0830
  739MOL0     H97527   4.340  -2.068   8.781  1.1563  1.6072  0.0621
  739MOL0     H97528   4.427  -2.010   8.529 -0.7659  1.7112 -0.1100
  739MOL0     H97529   4.269  -1.963   8.496 -0.2510 -0.3116  0.5847
  739MOL0     H97530   3.799  -1.993   9.378  0.4777  0.2368 -2.0982
  739MOL0     H97531   3.642  -1.890   9.576  0.1516  2.0955  1.3103
  739MOL0     H97532   3.781  -1.411   9.923  0.5092  1.0583 -0.5354
  739MOL0     H97533   3.649  -1.289  10.096 -0.7654 -1.3578 -0.5291
  739MOL0     H97534   2.997   0.118  10.262 -1.0031 -2.4817 -0.1365
  739MOL0     H97535   3.198   0.266  10.236 -1.4455 -0.4895 -1.2796
  739MOL0     H97536   3.443   0.562  10.184 -0.1413  0.8850 -1.8054
  739MOL0     H97537   3.636   0.716  10.253 -2.8480 -0.1458 -3.2995
  739MOL0     H97538   3.989   0.507  10.359 -2.3232 -1.8644 -1.8014
  739MOL0     H97539   4.078   0.654  10.353 -0.8314  0.2389  0.0618
  739MOL0     H97540   4.020   0.469  10.111  1.1345 -1.4285  1.2714
  739MOL0     H97541   4.044   0.643  10.085 -1.5889 -1.2937 -1.0142
  739MOL0     H97542   4.275   0.607  10.182 -0.0057 -0.1363  1.6728
  739MOL0     H97543   4.226   0.507  10.041  1.7407  3.2108 -0.4819
  739MOL0     H97544   4.363   0.385  10.214 -0.2404 -2.6129 -3.5428
  739MOL0     H97545   4.266   0.425  10.339  2.7430 -0.8811  0.2787
  739MOL0     H97546   4.077   0.084  10.174 -1.2481 -0.0049 -2.1683
  739MOL0     H97547   3.891   0.375  10.253 -0.0106 -0.4096  0.8819
  739MOL0     H97548   3.707   0.220  10.190 -0.2531  0.4845  0.1607
  740MOL0     O97549   4.982   3.629  11.287  0.3170 -0.7536  0.1684
  740MOL0     C97550   5.003   3.578  11.180 -0.4084 -0.6278 -0.3786
  740MOL0     O97551   4.957   3.459  11.141 -0.7613 -0.5920 -0.1331
  740MOL0     C97552   4.869   3.383  11.217  0.0945 -0.0991 -0.4822
  740MOL0     C97553   4.894   3.246  11.237 -1.1800  0.0161 -0.3715
  740MOL0     C97554   4.830   3.166  11.333  0.3914 -0.5558  1.1702
  740MOL0     C97555   4.711   3.226  11.396 -0.3968  0.8016 -0.8060
  740MOL0     O97556   4.645   3.152  11.491  0.3354 -0.5147  1.2581
  740MOL0     C97557   4.715   3.125  11.607 -0.8451 -0.8873  0.0908
  740MOL0     C97558   4.654   3.022  11.707  0.1426  0.1585 -0.0659
  740MOL0     C97559   4.512   3.034  11.752  1.0296  0.6224  0.5218
  740MOL0     C97560   4.471   2.899  11.817 -0.2335 -0.5224 -0.0115
  740MOL0     C97561   4.431   2.803  11.708 -1.6509 -0.7422 -0.8711
  740MOL0     C97562   4.288   2.820  11.666  1.3192 -0.0842  0.3537
  740MOL0     C97563   4.253   2.702  11.559 -0.3281  0.2771  0.0763
  740MOL0     C97564   4.111   2.717  11.497  0.5172 -0.3207  0.0028
  740MOL0     N97565   4.002   2.689  11.592 -0.2940 -1.0169 -0.0079
  740MOL0     C97566   3.932   2.577  11.609  0.2914 -0.9363  0.2101
  740MOL0     C97567   3.825   2.624  11.688  0.3327  0.0800 -0.9128
  740MOL0     C97568   3.707   2.545  11.744  0.3227 -0.0696  0.1124
  740MOL0     C97569   3.727   2.537  11.893  0.0460 -0.5981 -0.1074
  740MOL0     C97570   3.842   2.443  11.943 -0.4610 -0.3808  0.6768
  740MOL0     C97571   3.822   2.404  12.093 -1.0925  0.1314  0.4895
  740MOL0     O97572   3.711   2.333  12.128  0.5193  0.0897 -0.2085
  740MOL0     C97573   3.724   2.203  12.072  0.1576 -0.0275  0.0566
  740MOL0     C97574   3.653   2.150  11.953 -1.0556 -0.1728  0.4844
  740MOL0     C97575   3.663   2.022  11.902 -0.4555 -0.2002 -0.3181
  740MOL0     C97576   3.753   1.944  11.981  0.2720  0.6928  0.4473
  740MOL0     C97577   3.781   1.803  11.940  0.3882  0.5807  0.2224
  740MOL0     O97578   3.702   1.764  11.838 -0.1893 -0.3327 -0.1604
  740MOL0     C97579   3.715   1.644  11.770  0.7596 -0.3006 -0.7905
  740MOL0     C97580   3.730   1.521  11.834  0.1074 -0.0525  0.3162
  740MOL0     C97581   3.729   1.393  11.769 -0.2965 -0.1025 -0.2213
  740MOL0     C97582   3.708   1.395  11.627  0.9534  0.4474  0.2683
  740MOL0     O97583   3.719   1.287  11.544 -0.6794  0.4242 -0.4208
  740MOL0     C97584   3.737   1.157  11.604 -0.0016  0.0597 -0.6177
  740MOL0     C97585   3.738   1.060  11.485 -0.6087  0.8685 -0.0549
  740MOL0     C97586   3.753   0.913  11.519  0.1649 -0.5112 -0.7501
  740MOL0     C97587   3.687   0.820  11.407 -0.4788  0.7489  0.7273
  740MOL0     C97588   3.664   0.668  11.443  0.6989  0.7468  0.2065
  740MOL0     C97589   3.577   0.602  11.331 -0.3963 -0.3474 -0.0939
  740MOL0     C97590   3.431   0.591  11.365 -0.0687  0.2878 -0.0320
  740MOL0     C97591   3.395   0.462  11.435  0.6674  0.6182  0.3848
  740MOL0    Cl97592   3.462   0.444  11.605 -0.0002 -0.1209  0.4984
  740MOL0     C97593   3.698   1.519  11.566 -0.2609  0.2248 -0.1478
  740MOL0     C97594   3.704   1.644  11.635 -0.4201  1.3767 -0.1020
  740MOL0     O97595   3.869   1.740  12.005 -0.9985 -0.3067  0.4762
  740MOL0     C97596   3.822   1.987  12.097 -0.3107 -0.4957  0.1776
  740MOL0     C97597   3.814   2.122  12.139  0.2708  0.2226 -0.4922
  740MOL0     N97598   3.829   2.760  11.685  0.0346  0.4968 -0.1038
  740MOL0     N97599   3.941   2.791  11.638 -0.5981  0.1576 -0.0277
  740MOL0     C97600   4.679   3.364  11.368 -0.3352 -0.3881 -0.1510
  740MOL0     C97601   4.760   3.434  11.282 -0.5815  0.4245  0.7253
  740MOL0     C97602   5.114   3.648  11.108 -0.5713  0.0385 -0.2732
  740MOL0     C97603   5.215   3.720  11.166 -0.1527 -0.5700 -0.3983
  740MOL0     C97604   5.312   3.790  11.094  0.1339 -0.6041  0.0751
  740MOL0     C97605   5.309   3.791  10.960 -0.3911  0.4712  0.4510
  740MOL0     O97606   5.420   3.862  10.904 -0.1726 -0.9267  0.6000
  740MOL0     C97607   5.423   3.875  10.761 -0.1386  0.2684  0.3952
  740MOL0     C97608   5.523   3.985  10.731 -0.4861 -0.1548  0.1573
  740MOL0     C97609   5.666   3.935  10.737  0.6365  0.6666 -0.4047
  740MOL0     C97610   5.775   4.037  10.705 -0.5561  0.2714 -0.0619
  740MOL0     C97611   5.761   4.087  10.574  0.1834 -0.5966  0.2280
  740MOL0     C97612   5.754   4.130  10.460  0.2445  0.5929  0.2572
  740MOL0     C97613   5.205   3.712  10.893 -0.5763 -0.1258  1.0790
  740MOL0     C97614   5.111   3.642  10.960  0.2117  0.0349 -0.4668
  740MOL0     H97615   4.985   3.214  11.187 -1.1876  0.4781 -0.6858
  740MOL0     H97616   4.855   3.063  11.355 -2.1512 -1.0147  2.1633
  740MOL0     H97617   4.713   3.219  11.662 -1.9400 -0.4058 -0.7307
  740MOL0     H97618   4.816   3.095  11.580 -1.4143 -0.3099 -2.9632
  740MOL0     H97619   4.720   3.022  11.794  2.0561 -0.5224 -1.4297
  740MOL0     H97620   4.677   2.922  11.669  2.1232  0.3082  0.6448
  740MOL0     H97621   4.451   3.058  11.665 -0.8874  1.0366  1.8998
  740MOL0     H97622   4.499   3.119  11.820 -0.6898  0.0697  0.9324
  740MOL0     H97623   4.561   2.858  11.863  0.5867 -1.6682 -2.4898
  740MOL0     H97624   4.390   2.910  11.890 -2.1028 -2.8137 -1.5947
  740MOL0     H97625   4.461   2.701  11.736  2.9168 -0.0677 -2.4733
  740MOL0     H97626   4.497   2.822  11.623  2.8701 -0.5947  2.3637
  740MOL0     H97627   4.275   2.920  11.622  3.7442  0.1060 -0.0269
  740MOL0     H97628   4.213   2.826  11.746 -1.9597 -2.8234 -2.2099
  740MOL0     H97629   4.326   2.702  11.478  0.2455  2.9087  0.5076
  740MOL0     H97630   4.247   2.607  11.614  0.2021 -0.1713 -0.6233
  740MOL0     H97631   4.110   2.635  11.425 -0.0952 -1.1318  0.9160
  740MOL0     H97632   4.097   2.816  11.451  1.1092 -0.4617 -0.5045
  740MOL0     H97633   3.966   2.481  11.574 -0.4278 -1.4397  0.8477
  740MOL0     H97634   3.714   2.442  11.709  0.7312 -0.0862  0.2348
  740MOL0     H97635   3.614   2.582  11.699  1.4561  0.0182 -2.3229
  740MOL0     H97636   3.637   2.485  11.926 -0.3796  1.2115  1.8228
  740MOL0     H97637   3.737   2.634  11.944 -2.2761 -1.2812  1.8770
  740MOL0     H97638   3.854   2.349  11.887  1.3505 -0.6242  1.3808
  740MOL0     H97639   3.935   2.500  11.940 -1.4028  1.3249 -4.0334
  740MOL0     H97640   3.833   2.489  12.161 -1.8703 -2.7296  4.5881
  740MOL0     H97641   3.914   2.348  12.106 -0.1502  1.4108 -0.3716
  740MOL0     H97642   3.570   2.220  11.947  1.0877  2.5808  1.0868
  740MOL0     H97643   3.618   1.988  11.809  1.4217  0.6247 -1.5857
  740MOL0     H97644   3.765   1.522  11.937  0.3855  3.6519  0.3227
  740MOL0     H97645   3.727   1.299  11.824 -0.5499 -0.5267 -0.9388
  740MOL0     H97646   3.658   1.127  11.673  2.9938  1.5310  3.8997
  740MOL0     H97647   3.833   1.138  11.652  0.5108 -2.2317 -2.3690
  740MOL0     H97648   3.807   1.098  11.410  0.0495  2.4740  1.3081
  740MOL0     H97649   3.639   1.070  11.439 -0.1394  0.6312 -1.1359
  740MOL0     H97650   3.711   0.888  11.616  4.0806  1.1647  1.6280
  740MOL0     H97651   3.859   0.893  11.536  0.4818  0.9769 -0.8142
  740MOL0     H97652   3.590   0.860  11.375 -1.0478 -0.7472  0.5052
  740MOL0     H97653   3.755   0.829  11.322  1.4984 -3.1093  1.6718
  740MOL0     H97654   3.618   0.655  11.541 -0.6929  0.0125 -0.5119
  740MOL0     H97655   3.757   0.610  11.439 -1.3036 -2.6615 -1.0952
  740MOL0     H97656   3.614   0.501  11.310 -1.7399 -0.7898 -0.4242
  740MOL0     H97657   3.600   0.662  11.242 -0.0274 -0.3386  0.0066
  740MOL0     H97658   3.407   0.682  11.422  0.4950  2.1389 -2.5515
  740MOL0     H97659   3.378   0.598  11.269 -1.1286 -0.3524  0.4852
  740MOL0     H97660   3.435   0.380  11.375  0.7025 -0.8551  2.3313
  740MOL0     H97661   3.287   0.455  11.448  0.2667  3.5597 -0.4885
  740MOL0     H97662   3.691   1.526  11.458  2.1238 -1.2631 -0.4637
  740MOL0     H97663   3.673   1.729  11.575 -4.2117  0.3126  0.0804
  740MOL0     H97664   3.876   1.917  12.160 -0.7035  0.2127  1.3303
  740MOL0     H97665   3.888   2.154  12.212  2.2767 -3.0554 -0.9080
  740MOL0     H97666   4.585   3.391  11.415 -0.2769  0.1213 -0.3242
  740MOL0     H97667   4.729   3.536  11.266 -2.0961 -0.2249 -0.7691
  740MOL0     H97668   5.220   3.720  11.275 -3.3053  0.5767 -0.1516
  740MOL0     H97669   5.398   3.833  11.144 -0.5675  2.6937 -1.3593
  740MOL0     H97670   5.336   3.922  10.715  1.5801 -0.6217 -4.3078
  740MOL0     H97671   5.427   3.775  10.718  1.9743 -0.0553  1.2201
  740MOL0     H97672   5.503   4.021  10.630  1.1816  2.7130  0.7378
  740MOL0     H97673   5.497   4.068  10.796  0.6726  0.4287 -0.0986
  740MOL0     H97674   5.674   3.841  10.682  1.0737  2.1229 -2.9927
  740MOL0     H97675   5.690   3.922  10.843 -0.0005  2.9120  0.0698
  740MOL0     H97676   5.777   4.114  10.783 -3.3889 -1.4017  1.8447
  740MOL0     H97677   5.873   3.989  10.707 -1.2775 -1.2445  0.1530
  740MOL0     H97678   5.744   4.149  10.355 -0.0258 -1.4869 -0.1419
  740MOL0     H97679   5.198   3.710  10.785 -0.6925  2.0460  0.9956
  740MOL0     H97680   5.042   3.578  10.906  2.4412 -4.2643  1.3238
  741MOL0     O97681   9.753   7.216  10.253  0.4886  0.4417 -0.8719
  741MOL0     C97682   9.764   7.241  10.132 -0.3603  0.1408 -0.0064
  741MOL0     O97683   9.787   7.371  10.081 -0.5275  0.3839 -0.5810
  741MOL0     C97684   9.769   7.471  10.165  0.5225 -0.0663 -0.3327
  741MOL0     C97685   9.640   7.491  10.220  0.1882 -0.5025 -0.0156
  741MOL0     C97686   9.630   7.599  10.308 -0.4323  0.7115 -0.0510
  741MOL0     C97687   9.733   7.687  10.329  0.2397  0.0561  0.0873
  741MOL0     O97688   9.712   7.796  10.406 -0.2413  0.4678  0.0697
  741MOL0     C97689   9.708   7.917  10.327  0.1461  0.7723 -0.0225
  741MOL0     C97690   9.643   8.017  10.414  0.9722  0.5640  0.7299
  741MOL0     C97691   9.668   8.026  10.569 -0.0821 -0.7241  0.0170
  741MOL0     C97692   9.584   8.134  10.638 -0.3216 -0.7163  0.3277
  741MOL0     C97693   9.580   8.137  10.801 -0.4626  0.1304 -0.1658
  741MOL0     C97694   9.491   8.258  10.846  0.3164  0.1272 -0.0971
  741MOL0     C97695   9.499   8.308  10.989  0.6377  0.1248 -0.3510
  741MOL0     C97696   9.389   8.402  11.008 -0.4881 -0.3241 -0.0053
  741MOL0     N97697   9.400   8.477  11.131  0.1266  0.4869 -1.2164
  741MOL0     C97698   9.347   8.447  11.252  0.1901  0.3040 -0.1618
  741MOL0     C97699   9.395   8.530  11.339 -0.0401 -1.2224  0.1188
  741MOL0     C97700   9.358   8.520  11.485 -0.3573 -0.0739 -0.2962
  741MOL0     C97701   9.275   8.635  11.522  0.5731 -0.0628 -0.1568
  741MOL0     C97702   9.224   8.641  11.665  0.1426  0.8070 -0.3889
  741MOL0     C97703   9.120   8.750  11.675  0.3212 -0.3081  1.2544
  741MOL0     O97704   9.181   8.874  11.720  0.4798 -0.3683  0.3944
  741MOL0     C97705   9.108   8.984  11.714 -1.2325 -0.5976 -0.4331
  741MOL0     C97706   8.976   8.992  11.756  0.1408  0.3623 -0.0357
  741MOL0     C97707   8.913   9.116  11.777 -0.6190 -0.2321 -0.0395
  741MOL0     C97708   8.977   9.246  11.746  0.2316 -0.3306 -0.9125
  741MOL0     C97709   8.921   9.373  11.780  0.1700 -0.6604 -0.1646
  741MOL0     O97710   8.804   9.406  11.722  0.3104  0.0339 -0.3439
  741MOL0     C97711   8.753   9.527  11.765  0.4825  0.8462  0.2242
  741MOL0     C97712   8.684   9.525  11.887  0.1411 -0.7636 -0.4687
  741MOL0     C97713   8.636   9.657  11.932  0.4700 -0.3022 -0.7601
  741MOL0     C97714   8.660   9.769  11.856 -0.0317  0.5387 -0.1627
  741MOL0     O97715   8.630   9.893  11.915 -0.5029 -0.3189 -0.5625
  741MOL0     C97716   8.598   9.990  11.823 -0.0675 -0.4663  0.9780
  741MOL0     C97717   8.519  10.097  11.891  0.2285 -0.8747 -0.5737
  741MOL0     C97718   8.612  10.202  11.959 -0.0623 -0.2277  0.5905
  741MOL0     C97719   8.543  10.334  12.015 -0.0598  0.4920  0.3503
  741MOL0     C97720   8.517  10.448  11.917 -1.3005 -0.4551  0.2250
  741MOL0     C97721   8.633  10.528  11.862 -0.2859  0.0645  0.9632
  741MOL0     C97722   8.577  10.628  11.758 -0.2544  0.2224 -0.0251
  741MOL0     C97723   8.611  10.575  11.610  0.0833  0.6049 -1.2498
  741MOL0    Cl97724   8.555  10.406  11.588  0.1579  0.1135 -0.1493
  741MOL0     C97725   8.720   9.769  11.727 -0.7123  0.6601  0.1926
  741MOL0     C97726   8.764   9.642  11.690  0.6604 -0.2864  0.2184
  741MOL0     O97727   8.986   9.452  11.857 -0.3297 -0.4736  0.3826
  741MOL0     C97728   9.112   9.222  11.690 -0.1224 -1.3629 -0.2756
  741MOL0     C97729   9.173   9.097  11.670 -0.8265 -1.0034 -0.0742
  741MOL0     N97730   9.492   8.617  11.281  0.4516  0.3875  0.3771
  741MOL0     N97731   9.497   8.571  11.155 -0.5705  0.1828 -0.3289
  741MOL0     C97732   9.861   7.656  10.289  0.5102 -0.2179  0.0548
  741MOL0     C97733   9.883   7.541  10.207 -0.9079 -0.8831  0.4528
  741MOL0     C97734   9.712   7.138  10.033 -1.3467 -0.3187 -0.5797
  741MOL0     C97735   9.699   7.008  10.081  0.2400  0.3576  0.7083
  741MOL0     C97736   9.645   6.907   9.990 -0.5540 -0.1600  0.6295
  741MOL0     C97737   9.621   6.940   9.856 -0.4203 -0.2480  0.4773
  741MOL0     O97738   9.576   6.850   9.765  0.6513  1.3585 -0.3532
  741MOL0     C97739   9.477   6.769   9.823  0.4048  0.2456 -0.5064
  741MOL0     C97740   9.403   6.676   9.732 -0.2643  0.1748  0.8055
  741MOL0     C97741   9.342   6.747   9.616  0.3144 -0.1131  0.8338
  741MOL0     C97742   9.206   6.808   9.656 -0.6213  0.0103 -0.0908
  741MOL0     C97743   9.228   6.948   9.711 -0.9666  0.0259  0.0605
  741MOL0     C97744   9.237   7.066   9.738 -0.2076 -0.2313 -0.5898
  741MOL0     C97745   9.659   7.066   9.808 -0.0656  0.5695 -0.4875
  741MOL0     C97746   9.694   7.168   9.892 -0.9275  0.0207  0.4021
  741MOL0     H97747   9.561   7.423  10.189 -0.3924  0.5715 -0.9612
  741MOL0     H97748   9.539   7.630  10.358 -0.9603 -0.7544 -0.0637
  741MOL0     H97749   9.658   7.901  10.231 -0.3510  1.0055  0.1942
  741MOL0     H97750   9.811   7.953  10.322  1.3555 -1.8698  2.5443
  741MOL0     H97751   9.536   8.029  10.395  0.7570  0.5587  1.8732
  741MOL0     H97752   9.684   8.111  10.374  1.1010 -0.7099 -2.4568
  741MOL0     H97753   9.773   8.044  10.592 -0.6354  0.5132  1.7989
  741MOL0     H97754   9.635   7.927  10.600 -2.8488 -0.7930 -2.6725
  741MOL0     H97755   9.610   8.235  10.605 -1.1970 -1.5264 -3.2147
  741MOL0     H97756   9.479   8.115  10.617 -0.2343 -3.1947  1.7005
  741MOL0     H97757   9.680   8.148  10.844 -0.9616  3.5340  0.4054
  741MOL0     H97758   9.552   8.039  10.842 -2.6131  1.2785  1.3935
  741MOL0     H97759   9.391   8.219  10.826  0.3228 -1.8437  3.0102
  741MOL0     H97760   9.510   8.341  10.777  2.0548 -1.3384 -1.4821
  741MOL0     H97761   9.498   8.214  11.046 -0.8574 -1.4074 -2.7243
  741MOL0     H97762   9.598   8.349  11.010  1.9523 -2.1898 -1.6461
  741MOL0     H97763   9.300   8.340  10.998 -1.0294  0.6534 -1.4865
  741MOL0     H97764   9.389   8.476  10.929 -0.2676 -1.0777 -0.7234
  741MOL0     H97765   9.262   8.382  11.272 -2.2126  3.3623  0.4899
  741MOL0     H97766   9.447   8.508  11.547 -0.0491  3.0077  0.0296
  741MOL0     H97767   9.294   8.434  11.505 -0.6549 -0.2110 -1.6803
  741MOL0     H97768   9.187   8.641  11.457  0.3286  2.7242  0.3062
  741MOL0     H97769   9.325   8.731  11.508  2.7453 -0.7124  2.3336
  741MOL0     H97770   9.204   8.540  11.703 -0.4703  1.5755  1.4521
  741MOL0     H97771   9.301   8.678  11.734 -0.4809  0.0730  0.7451
  741MOL0     H97772   9.048   8.712  11.749 -1.3717  1.1836  0.4451
  741MOL0     H97773   9.058   8.761  11.585  2.9555  1.2477 -0.5022
  741MOL0     H97774   8.918   8.903  11.778 -1.2952  1.1257 -0.6385
  741MOL0     H97775   8.814   9.124  11.821  1.0702  2.2680  3.7721
  741MOL0     H97776   8.685   9.432  11.942 -0.2396 -2.4619 -3.1050
  741MOL0     H97777   8.591   9.672  12.030  1.3835 -2.6930  0.1185
  741MOL0     H97778   8.549   9.950  11.734  0.9253 -0.2537  0.3232
  741MOL0     H97779   8.693  10.030  11.786 -1.0518  2.1452  1.0612
  741MOL0     H97780   8.448  10.053  11.962  1.1978 -0.5204  0.6475
  741MOL0     H97781   8.470  10.163  11.818 -0.7146 -0.5206  0.3627
  741MOL0     H97782   8.685  10.236  11.884  0.5490  0.5913  1.5277
  741MOL0     H97783   8.659  10.140  12.036  0.2503 -3.6828 -2.1408
  741MOL0     H97784   8.443  10.317  12.056  0.0240  2.3743  1.5004
  741MOL0     H97785   8.609  10.373  12.094  0.4876  0.2007  0.0452
  741MOL0     H97786   8.465  10.524  11.977  1.7137  2.8736 -1.0361
  741MOL0     H97787   8.450  10.424  11.834 -0.0537  0.3877 -1.0763
  741MOL0     H97788   8.705  10.466  11.808  1.9165  0.9402  2.7398
  741MOL0     H97789   8.687  10.572  11.946  1.7795 -2.5077  1.1214
  741MOL0     H97790   8.473  10.654  11.779 -0.1310  1.0629 -0.4102
  741MOL0     H97791   8.631  10.724  11.761 -1.1680  0.8091 -1.5947
  741MOL0     H97792   8.718  10.578  11.589  0.6088  2.9795  1.1992
  741MOL0     H97793   8.574  10.644  11.533  0.2417  1.9408 -0.1839
  741MOL0     H97794   8.739   9.851  11.658  2.3631  1.1112  1.4006
  741MOL0     H97795   8.817   9.641  11.596  0.4824  0.4156  0.1076
  741MOL0     H97796   9.181   9.306  11.689  0.6425 -1.9772 -0.8463
  741MOL0     H97797   9.280   9.099  11.650 -0.1694 -1.6450  2.8880
  741MOL0     H97798   9.942   7.726  10.307  1.6642 -0.7253 -2.6524
  741MOL0     H97799   9.985   7.520  10.176 -0.3178  0.4151  1.4044
  741MOL0     H97800   9.716   6.978  10.184  2.3035 -3.0096 -0.4523
  741MOL0     H97801   9.620   6.814  10.039 -1.6781 -0.6517 -0.8481
  741MOL0     H97802   9.409   6.828   9.885  0.4254 -0.4655  0.2075
  741MOL0     H97803   9.528   6.699   9.890 -1.0633 -2.5266 -2.1335
  741MOL0     H97804   9.469   6.599   9.690 -2.3787 -1.5866  0.6003
  741MOL0     H97805   9.330   6.626   9.795  0.2638 -1.8054 -0.0978
  741MOL0     H97806   9.317   6.670   9.542  1.1157  0.6052 -0.2073
  741MOL0     H97807   9.397   6.827   9.566 -0.9631 -2.0666 -4.3503
  741MOL0     H97808   9.144   6.815   9.566  1.1343  0.2154 -1.3344
  741MOL0     H97809   9.157   6.744   9.730  0.4221  0.4392  1.0059
  741MOL0     H97810   9.238   7.172   9.725 -0.0849 -0.3664 -1.7999
  741MOL0     H97811   9.645   7.103   9.707  0.2466  1.6693 -0.1478
  741MOL0     H97812   9.713   7.271   9.863 -2.9259  0.4515  0.4447
  742MOL0     O97813   8.814   6.125   8.223  0.0511  0.5219  0.3296
  742MOL0     C97814   8.801   6.118   8.345 -0.1639  0.4536  0.0305
  742MOL0     O97815   8.831   6.208   8.441 -0.5321 -0.1938 -0.1748
  742MOL0     C97816   8.870   6.335   8.400 -0.3846 -0.4643 -0.1814
  742MOL0     C97817   8.994   6.371   8.344 -1.0137 -0.1032  1.0787
  742MOL0     C97818   9.034   6.510   8.328  0.2575  0.8727  0.6604
  742MOL0     C97819   8.956   6.603   8.372 -0.0526 -0.4889  0.2792
  742MOL0     O97820   8.981   6.737   8.361 -0.5175  0.2717 -0.4596
  742MOL0     C97821   9.093   6.801   8.291 -0.9087  0.6953 -0.2827
  742MOL0     C97822   9.064   6.948   8.274 -0.0393 -0.5200 -0.5755
  742MOL0     C97823   9.177   7.034   8.327 -0.9834 -0.5225 -0.1247
  742MOL0     C97824   9.145   7.187   8.292  0.0119  0.4117 -0.0151
  742MOL0     C97825   9.289   7.250   8.306 -0.5067  0.8478 -0.6093
  742MOL0     C97826   9.294   7.390   8.269  0.1355  0.2208 -0.0283
  742MOL0     C97827   9.425   7.467   8.289 -0.5130 -0.3385  0.6523
  742MOL0     C97828   9.447   7.491   8.441 -0.3993 -0.2581  0.2784
  742MOL0     N97829   9.394   7.613   8.501  0.5187  0.6653  0.7777
  742MOL0     C97830   9.457   7.736   8.528 -0.1591  0.6689 -0.6405
  742MOL0     C97831   9.375   7.820   8.583  0.7983 -0.5740 -0.9119
  742MOL0     C97832   9.423   7.962   8.644 -0.1966  0.5668 -0.0804
  742MOL0     C97833   9.313   8.067   8.608 -0.2241  0.5650  0.2652
  742MOL0     C97834   9.284   8.088   8.466 -0.5705 -0.2363  0.4067
  742MOL0     C97835   9.140   8.069   8.411 -0.5956  0.5279 -0.1351
  742MOL0     O97836   9.131   8.123   8.276  0.1687  0.5933 -0.0985
  742MOL0     C97837   9.005   8.152   8.229 -0.1786  0.1759  0.5084
  742MOL0     C97838   9.003   8.268   8.150 -0.1605 -0.1833 -0.2713
  742MOL0     C97839   8.889   8.289   8.071 -0.9599  0.2821  0.2758
  742MOL0     C97840   8.776   8.199   8.073  0.2956  0.0696 -0.6027
  742MOL0     C97841   8.658   8.226   7.977 -0.4902  0.0215  0.1163
  742MOL0     O97842   8.670   8.328   7.881 -0.6879 -0.0781  0.7317
  742MOL0     C97843   8.570   8.351   7.788  1.1095 -0.6164  0.3471
  742MOL0     C97844   8.488   8.267   7.716  0.3749 -0.1798 -0.4289
  742MOL0     C97845   8.383   8.303   7.636 -0.3240  0.7846 -0.5174
  742MOL0     C97846   8.353   8.435   7.611  0.3110 -0.3131  0.0231
  742MOL0     O97847   8.249   8.478   7.519 -0.4256 -0.3847 -0.7207
  742MOL0     C97848   8.145   8.383   7.507  1.1445  0.4366  0.0917
  742MOL0     C97849   8.057   8.394   7.634  0.2455 -0.3165 -0.1934
  742MOL0     C97850   7.966   8.520   7.630  0.1537 -0.6288 -0.4218
  742MOL0     C97851   7.872   8.522   7.749 -0.4480  0.3234  0.2422
  742MOL0     C97852   7.766   8.633   7.763  0.7543  0.3642 -0.5399
  742MOL0     C97853   7.674   8.598   7.884  0.7333  1.4703  0.1954
  742MOL0     C97854   7.589   8.729   7.912  0.1696  0.7454  0.5314
  742MOL0     C97855   7.522   8.703   8.045 -0.0268 -1.5027 -0.1267
  742MOL0    Cl97856   7.400   8.566   8.036 -0.0495 -0.0308 -0.4070
  742MOL0     C97857   8.433   8.530   7.678 -0.0324  0.5241  0.2985
  742MOL0     C97858   8.535   8.490   7.771  0.4622  1.0036  0.0838
  742MOL0     O97859   8.571   8.141   7.986 -0.0091 -0.7054  0.8310
  742MOL0     C97860   8.774   8.104   8.181  0.4200 -0.6411 -0.4750
  742MOL0     C97861   8.888   8.083   8.255 -1.2489 -1.1007  0.0198
  742MOL0     N97862   9.246   7.752   8.576  0.4567  0.5780  0.4841
  742MOL0     N97863   9.258   7.633   8.531 -0.5887 -0.2266  0.3492
  742MOL0     C97864   8.826   6.569   8.422  0.0576 -0.2206  0.1097
  742MOL0     C97865   8.789   6.444   8.440 -0.4793  0.0732 -0.1480
  742MOL0     C97866   8.750   5.993   8.393 -0.7506 -0.4534  0.4179
  742MOL0     C97867   8.781   5.878   8.321 -0.6257  0.7860 -0.4800
  742MOL0     C97868   8.726   5.755   8.368  0.4204  0.1166 -0.6806
  742MOL0     C97869   8.639   5.747   8.476  0.2445 -0.2565  0.0010
  742MOL0     O97870   8.585   5.638   8.534  0.4895  0.1063 -0.0473
  742MOL0     C97871   8.507   5.558   8.438 -0.1522 -0.3095 -0.3474
  742MOL0     C97872   8.364   5.523   8.492 -0.0634  0.5460  0.3998
  742MOL0     C97873   8.364   5.446   8.626  0.0525 -0.2047  0.1469
  742MOL0     C97874   8.350   5.295   8.602 -0.0168 -0.5896 -0.2026
  742MOL0     C97875   8.392   5.217   8.723  0.1994 -0.7001  0.6770
  742MOL0     C97876   8.432   5.158   8.817 -0.3924  0.1999 -0.0565
  742MOL0     C97877   8.593   5.868   8.533  0.3317  0.4608  0.0339
  742MOL0     C97878   8.645   5.988   8.487 -0.7260 -0.7208 -0.0680
  742MOL0     H97879   9.064   6.293   8.317 -1.4534 -1.2665  3.0596
  742MOL0     H97880   9.134   6.533   8.296 -0.1860  2.6916  0.4950
  742MOL0     H97881   9.089   6.750   8.195  1.1163  0.4987 -0.3039
  742MOL0     H97882   9.184   6.790   8.350 -1.6786  1.4889  1.1298
  742MOL0     H97883   8.968   6.981   8.316  1.7250  2.8727  1.1928
  742MOL0     H97884   9.058   6.961   8.166 -1.0837 -0.2866 -0.5054
  742MOL0     H97885   9.266   7.003   8.272 -0.7299 -0.4477  0.2405
  742MOL0     H97886   9.196   7.000   8.428  1.8119 -1.1800 -0.8026
  742MOL0     H97887   9.115   7.201   8.188 -0.1992 -0.2122 -0.0434
  742MOL0     H97888   9.071   7.228   8.362 -1.1131 -1.5643  0.0213
  742MOL0     H97889   9.362   7.207   8.237 -0.8167  2.1416 -1.8039
  742MOL0     H97890   9.330   7.226   8.405  1.6130  0.8957 -1.4127
  742MOL0     H97891   9.224   7.439   8.337 -2.1102 -0.6411 -1.6027
  742MOL0     H97892   9.262   7.400   8.165  0.2845  1.9044  0.0599
  742MOL0     H97893   9.509   7.419   8.239  0.8725  4.5879 -2.4395
  742MOL0     H97894   9.399   7.559   8.236 -0.3068 -0.8500 -0.3540
  742MOL0     H97895   9.554   7.511   8.454 -0.0114 -3.1524  2.4298
  742MOL0     H97896   9.416   7.406   8.502 -3.4212 -0.7996 -1.7897
  742MOL0     H97897   9.565   7.746   8.523  0.7278 -4.1220  2.1776
  742MOL0     H97898   9.523   7.977   8.603 -0.5555 -0.3742 -1.3591
  742MOL0     H97899   9.446   7.956   8.751  2.1140  5.1117 -0.0524
  742MOL0     H97900   9.334   8.157   8.666 -2.2540  1.7362 -0.7275
  742MOL0     H97901   9.222   8.023   8.650 -0.1722  1.4752  1.3704
  742MOL0     H97902   9.324   8.181   8.425 -3.2346  0.7396 -0.1867
  742MOL0     H97903   9.348   8.017   8.412  1.5325  2.7216 -1.2874
  742MOL0     H97904   9.071   8.120   8.479 -0.4067  1.5886 -0.7177
  742MOL0     H97905   9.108   7.965   8.412  0.6302  0.1174  1.8589
  742MOL0     H97906   9.096   8.323   8.142  1.9126 -3.5475 -0.9000
  742MOL0     H97907   8.871   8.386   8.027  2.1627  0.7032 -0.3113
  742MOL0     H97908   8.493   8.162   7.744 -3.1288 -0.2265  0.5438
  742MOL0     H97909   8.330   8.214   7.603 -0.1328  0.9579 -1.3024
  742MOL0     H97910   8.178   8.282   7.483 -1.4507 -0.6201  0.6622
  742MOL0     H97911   8.081   8.413   7.424  0.1303 -1.0350  0.3004
  742MOL0     H97912   8.110   8.394   7.729 -3.0127 -3.6847  1.8580
  742MOL0     H97913   7.997   8.303   7.641  0.0680 -0.0717  2.0565
  742MOL0     H97914   7.902   8.514   7.542  0.8297 -2.9974 -0.8254
  742MOL0     H97915   8.040   8.599   7.614  2.5477 -2.8230 -0.8940
  742MOL0     H97916   7.814   8.429   7.752 -1.3170  0.8601  0.8038
  742MOL0     H97917   7.930   8.517   7.841  0.9569  2.2035 -0.4858
  742MOL0     H97918   7.696   8.641   7.679 -1.7765 -0.3593  1.3651
  742MOL0     H97919   7.812   8.730   7.783  0.7536 -0.2013  2.9327
  742MOL0     H97920   7.747   8.578   7.963 -1.4145  0.8931  2.1351
  742MOL0     H97921   7.618   8.508   7.859  2.7954 -0.1975  1.3073
  742MOL0     H97922   7.650   8.818   7.896 -0.0566  0.9130  0.6076
  742MOL0     H97923   7.527   8.740   7.823  4.0964  0.2089 -2.5915
  742MOL0     H97924   7.459   8.791   8.057 -1.7974 -2.8174  0.6381
  742MOL0     H97925   7.594   8.698   8.128  1.4618  1.1628 -1.1218
  742MOL0     H97926   8.405   8.633   7.659 -0.5633 -0.1417 -3.1018
  742MOL0     H97927   8.595   8.552   7.836  2.6458 -1.1879  0.2804
  742MOL0     H97928   8.696   8.031   8.200  1.1983 -1.0607  1.2893
  742MOL0     H97929   8.892   8.010   8.336 -1.5567  0.4609  1.4852
  742MOL0     H97930   8.768   6.658   8.445  3.3439  1.6175  2.0814
  742MOL0     H97931   8.686   6.433   8.472 -1.3205  3.9495 -0.9816
  742MOL0     H97932   8.840   5.860   8.232 -0.5889 -4.1024  0.2788
  742MOL0     H97933   8.744   5.666   8.308 -0.9369  0.0121 -0.9637
  742MOL0     H97934   8.564   5.468   8.411 -1.4043 -0.8579 -1.2231
  742MOL0     H97935   8.487   5.614   8.347 -2.2241 -1.1439 -0.4646
  742MOL0     H97936   8.328   5.622   8.521  1.0718  0.6558  1.5134
  742MOL0     H97937   8.292   5.476   8.425  1.0779  0.6507 -0.9575
  742MOL0     H97938   8.280   5.489   8.681  1.5352  0.8724  1.6634
  742MOL0     H97939   8.462   5.468   8.668  1.7494  2.6444 -4.4931
  742MOL0     H97940   8.245   5.265   8.599 -0.2031 -0.0618  0.7029
  742MOL0     H97941   8.409   5.268   8.514 -2.2375 -1.0274 -1.6195
  742MOL0     H97942   8.485   5.124   8.904  2.8508  0.8951 -1.6180
  742MOL0     H97943   8.529   5.868   8.621  2.0432  1.2446  1.3300
  742MOL0     H97944   8.611   6.079   8.535  0.6562 -0.1527 -0.1421
  743MOL0     O97945   1.754   9.144   8.287  0.0421 -0.2433  0.5363
  743MOL0     C97946   1.649   9.088   8.307 -0.1624 -0.4637  0.3917
  743MOL0     O97947   1.584   9.097   8.423  0.1930  0.7078  0.3920
  743MOL0     C97948   1.616   9.179   8.522  0.4539 -0.3299  0.7944
  743MOL0     C97949   1.678   9.308   8.514 -0.2914 -0.2044  0.6757
  743MOL0     C97950   1.706   9.380   8.630  0.3510  0.1525 -0.7842
  743MOL0     C97951   1.665   9.333   8.756 -0.0918  0.5855  0.3331
  743MOL0     O97952   1.696   9.408   8.863  0.5110  0.1280  1.0470
  743MOL0     C97953   1.758   9.340   8.975  0.0012 -0.1243 -0.0867
  743MOL0     C97954   1.788   9.444   9.087  0.4885 -0.3693  0.4792
  743MOL0     C97955   1.869   9.361   9.186 -0.3049  0.1650 -0.1953
  743MOL0     C97956   1.883   9.436   9.323 -0.7180 -0.2360 -0.1493
  743MOL0     C97957   1.927   9.352   9.435  0.1683 -0.6751 -0.8774
  743MOL0     C97958   1.953   9.436   9.557  0.6623 -1.2602  0.4889
  743MOL0     C97959   2.002   9.357   9.671  0.1593  1.0224 -0.0964
  743MOL0     C97960   2.135   9.298   9.647 -0.1925 -0.3375 -0.3033
  743MOL0     N97961   2.221   9.416   9.624 -0.9379 -0.5603 -0.6878
  743MOL0     C97962   2.241   9.512   9.725  0.0225  0.2311 -1.3311
  743MOL0     C97963   2.312   9.606   9.669 -1.1801 -0.9321 -0.3629
  743MOL0     C97964   2.357   9.729   9.735  0.5855  0.1142  0.2463
  743MOL0     C97965   2.478   9.747   9.828 -0.1204  0.2110 -0.8298
  743MOL0     C97966   2.615   9.730   9.755  0.4624 -0.2010  0.5088
  743MOL0     C97967   2.724   9.767   9.844 -0.7815  0.6804  0.4116
  743MOL0     O97968   2.850   9.719   9.805 -0.6249 -0.0628  0.4265
  743MOL0     C97969   2.933   9.799   9.731 -0.1768  1.1177  1.0629
  743MOL0     C97970   3.021   9.892   9.795 -0.4848  0.6485 -1.1653
  743MOL0     C97971   3.111   9.978   9.714  0.5604  0.2337 -0.5417
  743MOL0     C97972   3.096   9.971   9.576 -1.1601 -0.5155 -0.1103
  743MOL0     C97973   3.175  10.057   9.487 -1.0134 -0.1046 -0.4847
  743MOL0     O97974   3.139  10.056   9.358 -0.4150 -0.6076  0.2949
  743MOL0     C97975   3.223  10.120   9.272 -1.1285  1.1707 -0.1507
  743MOL0     C97976   3.286  10.032   9.179 -0.5106  0.5334 -0.2776
  743MOL0     C97977   3.374  10.088   9.080 -0.0299 -0.2138  0.4177
  743MOL0     C97978   3.391  10.227   9.070  0.0910  0.2895 -0.6977
  743MOL0     O97979   3.475  10.280   8.979 -0.2564  0.1358  0.9223
  743MOL0     C97980   3.558  10.389   9.013  0.2966 -0.6238 -0.8058
  743MOL0     C97981   3.661  10.426   8.905 -0.0204 -0.4706 -0.7657
  743MOL0     C97982   3.591  10.486   8.790 -0.5974  0.0782 -0.3252
  743MOL0     C97983   3.694  10.545   8.686 -0.2620  0.2390 -0.1670
  743MOL0     C97984   3.637  10.620   8.567  1.1076  0.3211  0.7426
  743MOL0     C97985   3.586  10.761   8.599  0.1232  1.3112 -0.5393
  743MOL0     C97986   3.490  10.816   8.499  1.0532 -0.0922  0.6463
  743MOL0     C97987   3.539  10.842   8.356 -1.1946  0.4717  0.7217
  743MOL0    Cl97988   3.499  10.709   8.239 -0.3438 -0.5011 -0.3329
  743MOL0     C97989   3.321  10.306   9.157  0.4269  0.6920  0.3624
  743MOL0     C97990   3.244  10.252   9.256  0.3038 -0.0837 -0.0037
  743MOL0     O97991   3.272  10.120   9.527  0.2963  0.2503 -0.2726
  743MOL0     C97992   3.007   9.880   9.521 -0.9039 -0.2656 -0.2375
  743MOL0     C97993   2.930   9.792   9.591 -0.4131 -0.7418  0.0298
  743MOL0     N97994   2.360   9.560   9.549  0.0422 -0.3727  0.6892
  743MOL0     N97995   2.305   9.454   9.527 -1.2220  1.1381  0.0705
  743MOL0     C97996   1.595   9.218   8.758  0.3469  0.5932  0.2428
  743MOL0     C97997   1.579   9.132   8.643  0.6235 -0.2127 -0.2058
  743MOL0     C97998   1.604   8.989   8.209 -0.1222 -0.2405 -0.0355
  743MOL0     C97999   1.635   9.006   8.074 -0.4131  0.6143 -0.2265
  743MOL0     C98000   1.608   8.910   7.983 -0.3201 -0.1614  0.4821
  743MOL0     C98001   1.531   8.798   8.015  0.2395 -0.3506  0.8222
  743MOL0     O98002   1.507   8.682   7.940 -0.1051 -0.2652 -0.2716
  743MOL0     C98003   1.580   8.670   7.817  0.8564  0.4646  0.3520
  743MOL0     C98004   1.714   8.617   7.855 -0.8549 -0.3196  0.8691
  743MOL0     C98005   1.823   8.611   7.755  0.5050 -0.5500  0.5493
  743MOL0     C98006   1.783   8.549   7.623  0.8434 -0.7186  0.2508
  743MOL0     C98007   1.894   8.518   7.531 -1.0087 -0.0509  0.3938
  743MOL0     C98008   1.985   8.491   7.462  0.4279 -0.8446  1.1649
  743MOL0     C98009   1.483   8.787   8.146 -1.1808 -0.7395  0.7493
  743MOL0     C98010   1.518   8.879   8.245 -0.4827  0.3584  0.3954
  743MOL0     H98011   1.718   9.350   8.422  2.1619  2.9943  2.9289
  743MOL0     H98012   1.738   9.483   8.625 -1.0112  0.5781 -1.2983
  743MOL0     H98013   1.855   9.306   8.938 -0.9494 -0.4641 -2.4427
  743MOL0     H98014   1.687   9.265   9.010  0.5014  0.5992  2.7070
  743MOL0     H98015   1.696   9.483   9.132  0.2458 -2.5134  1.9807
  743MOL0     H98016   1.834   9.534   9.044  1.1261  1.0120  3.7759
  743MOL0     H98017   1.973   9.338   9.159  1.0989  2.2108  2.8587
  743MOL0     H98018   1.809   9.275   9.214 -1.7305  0.4945 -2.0322
  743MOL0     H98019   1.961   9.510   9.303  0.8831 -2.0319 -0.8437
  743MOL0     H98020   1.786   9.480   9.349 -0.3893  0.0079  0.6904
  743MOL0     H98021   2.017   9.299   9.404  1.9911 -0.7293  3.7501
  743MOL0     H98022   1.868   9.266   9.467 -0.8104 -0.1264 -1.1832
  743MOL0     H98023   1.866   9.494   9.588  1.1116  1.3850 -2.6434
  743MOL0     H98024   2.028   9.510   9.529  0.3785 -0.2704  2.2531
  743MOL0     H98025   2.009   9.414   9.765 -0.5666 -2.2434  2.1185
  743MOL0     H98026   1.931   9.275   9.684  0.6187  0.5048 -0.7578
  743MOL0     H98027   2.146   9.239   9.556  0.8574 -2.4929  1.1427
  743MOL0     H98028   2.171   9.234   9.727 -2.5773 -3.7434 -1.7351
  743MOL0     H98029   2.202   9.510   9.826  0.7680 -1.7237 -1.0469
  743MOL0     H98030   2.272   9.767   9.793  1.6440  0.8870  1.3338
  743MOL0     H98031   2.377   9.792   9.648  2.3844 -1.1103 -0.2864
  743MOL0     H98032   2.472   9.680   9.914  1.1644 -1.2564 -1.8345
  743MOL0     H98033   2.472   9.851   9.860  1.1160  0.6550 -1.9541
  743MOL0     H98034   2.629   9.626   9.723 -0.5072  0.1467 -1.1922
  743MOL0     H98035   2.631   9.782   9.660 -0.2036 -0.0795  0.4609
  743MOL0     H98036   2.703   9.726   9.943 -2.1272 -0.4157 -0.2920
  743MOL0     H98037   2.711   9.875   9.846 -0.0689  0.7668  0.6054
  743MOL0     H98038   3.020   9.899   9.904  4.1592 -3.3924 -0.5126
  743MOL0     H98039   3.170  10.052   9.767 -0.6481 -0.5134  2.0210
  743MOL0     H98040   3.277   9.924   9.183 -0.2808  0.5486  1.3588
  743MOL0     H98041   3.428  10.021   9.013  0.7848  1.8607 -1.1228
  743MOL0     H98042   3.610  10.361   9.105  2.0516  1.8013 -0.9646
  743MOL0     H98043   3.502  10.482   9.028  2.5352  0.5500  0.7979
  743MOL0     H98044   3.716  10.335   8.877  3.0510  0.8237  0.5869
  743MOL0     H98045   3.740  10.494   8.938 -0.5163  0.4643 -1.4515
  743MOL0     H98046   3.534  10.572   8.828 -0.0656  0.3594 -0.1630
  743MOL0     H98047   3.529  10.412   8.738  0.3302  0.4853 -2.0650
  743MOL0     H98048   3.769  10.607   8.738  1.8185 -0.6192 -1.9748
  743MOL0     H98049   3.755  10.462   8.649 -0.3923 -0.8456  1.9013
  743MOL0     H98050   3.553  10.557   8.538  2.3652 -1.5996  1.0225
  743MOL0     H98051   3.701  10.621   8.479 -0.1835 -0.8178 -0.2472
  743MOL0     H98052   3.674  10.821   8.625  1.7604 -0.8234 -0.9106
  743MOL0     H98053   3.527  10.749   8.691  0.0448 -0.9863 -0.8384
  743MOL0     H98054   3.422  10.732   8.486  2.4527 -1.2913  0.8670
  743MOL0     H98055   3.435  10.899   8.545  1.7630  1.1576 -0.6840
  743MOL0     H98056   3.647  10.856   8.353 -1.1077  0.3817  2.4019
  743MOL0     H98057   3.489  10.930   8.314 -1.8076 -0.3399 -0.2883
  743MOL0     H98058   3.343  10.411   9.171  2.3354  0.2585  0.9108
  743MOL0     H98059   3.187  10.309   9.329  0.6954 -0.2101  0.4021
  743MOL0     H98060   2.983   9.880   9.415 -4.4716  1.5178  0.4239
  743MOL0     H98061   2.885   9.707   9.542 -0.1541 -0.8985  0.0640
  743MOL0     H98062   1.562   9.179   8.854  0.7832 -2.3150 -0.6900
  743MOL0     H98063   1.521   9.040   8.647 -1.7439  1.2126  0.6453
  743MOL0     H98064   1.688   9.098   8.051  1.2521  0.2611  1.8777
  743MOL0     H98065   1.669   8.921   7.894  0.2254 -2.8985  0.4449
  743MOL0     H98066   1.587   8.767   7.767 -2.9913  1.2849  1.0805
  743MOL0     H98067   1.512   8.606   7.760 -1.0887 -0.1172  3.1282
  743MOL0     H98068   1.754   8.681   7.934 -0.6065  1.6704 -0.8085
  743MOL0     H98069   1.699   8.513   7.886 -0.8062 -0.6752 -0.2764
  743MOL0     H98070   1.912   8.557   7.788 -0.4192 -3.2607 -1.0283
  743MOL0     H98071   1.847   8.717   7.739 -1.0762  0.0336  1.8500
  743MOL0     H98072   1.746   8.451   7.655  4.2839 -1.3596  2.8921
  743MOL0     H98073   1.718   8.613   7.563  1.2099 -0.1429  0.4565
  743MOL0     H98074   2.073   8.466   7.406  0.0921  1.9868 -0.8395
  743MOL0     H98075   1.417   8.703   8.167 -6.1416  2.6325  0.4441
  743MOL0     H98076   1.489   8.872   8.349  0.5976  0.9353  0.7414
  744MOL0     O98077   0.619   6.777  11.299 -0.2677 -0.8373 -0.3989
  744MOL0     C98078   0.565   6.782  11.188  0.6486  0.2385  1.1353
  744MOL0     O98079   0.492   6.677  11.132  0.6333  0.3363 -0.1466
  744MOL0     C98080   0.449   6.567  11.209  0.9088 -1.2586  0.1180
  744MOL0     C98081   0.424   6.455  11.135 -0.3165  1.0241 -0.7850
  744MOL0     C98082   0.369   6.348  11.211 -0.9837 -0.2753  1.1317
  744MOL0     C98083   0.348   6.357  11.352 -0.5144 -0.1315  0.5582
  744MOL0     O98084   0.275   6.259  11.416 -0.1817 -0.2318  0.4859
  744MOL0     C98085   0.314   6.210  11.549  0.0735 -0.3926 -0.2281
  744MOL0     C98086   0.410   6.098  11.525 -0.2918  1.0383  0.0374
  744MOL0     C98087   0.555   6.134  11.479  0.9592  0.0413  0.4051
  744MOL0     C98088   0.628   6.005  11.468 -0.1435  0.3751  0.3178
  744MOL0     C98089   0.776   6.021  11.470  1.1288  0.3448 -0.9256
  744MOL0     C98090   0.843   6.083  11.342  0.6229 -0.8662  0.2398
  744MOL0     C98091   0.785   6.021  11.222  0.0555 -0.2395 -0.4880
  744MOL0     C98092   0.871   6.053  11.093  1.0157 -0.2704 -0.5365
  744MOL0     N98093   0.892   6.193  11.082  0.0244  0.4447 -0.0558
  744MOL0     C98094   0.787   6.283  11.059 -0.2769 -0.0169  0.0733
  744MOL0     C98095   0.843   6.400  11.043 -0.8076  0.7513  0.4807
  744MOL0     C98096   0.793   6.534  10.989  0.5842  0.2860  0.3261
  744MOL0     C98097   0.736   6.505  10.847  0.3646 -0.4050  0.6891
  744MOL0     C98098   0.701   6.620  10.760  0.0288 -0.1353  0.0630
  744MOL0     C98099   0.682   6.585  10.611  0.7320 -0.1547 -1.9135
  744MOL0     O98100   0.802   6.520  10.555 -0.2294 -0.1017 -0.2054
  744MOL0     C98101   0.803   6.521  10.414 -1.0466 -0.0554  0.5895
  744MOL0     C98102   0.922   6.491  10.352  0.0320  0.4984  0.1613
  744MOL0     C98103   0.946   6.482  10.216  0.5145  0.1871  0.1503
  744MOL0     C98104   0.844   6.514  10.127 -0.2809 -1.1676 -0.0193
  744MOL0     C98105   0.861   6.497   9.987  0.0772 -0.3611  0.0103
  744MOL0     O98106   0.977   6.542   9.930  0.0998 -0.5465  0.0096
  744MOL0     C98107   0.974   6.592   9.803  1.0028 -1.1295  0.4916
  744MOL0     C98108   1.001   6.507   9.699  0.4422 -0.0705  0.2518
  744MOL0     C98109   1.001   6.550   9.565  0.3036 -0.2649 -0.4536
  744MOL0     C98110   0.960   6.688   9.539  0.7683 -0.1027  0.3216
  744MOL0     O98111   0.974   6.739   9.414 -0.0210  0.1811 -0.1870
  744MOL0     C98112   1.093   6.707   9.346  0.0936 -1.1510  0.3498
  744MOL0     C98113   1.073   6.775   9.210 -0.6847 -0.1683  0.8307
  744MOL0     C98114   1.112   6.918   9.216  0.1634  1.1094 -0.5178
  744MOL0     C98115   1.100   6.987   9.072 -0.1956  0.5758 -0.3165
  744MOL0     C98116   0.953   7.012   9.046  0.0769 -0.5405  0.1090
  744MOL0     C98117   0.935   7.087   8.913 -0.0215  1.1642  0.2414
  744MOL0     C98118   0.787   7.087   8.859  0.4289  0.3839 -0.4345
  744MOL0     C98119   0.733   7.229   8.821  0.2293  0.0040  0.4773
  744MOL0    Cl98120   0.713   7.310   8.980  0.3998 -0.3273 -0.3006
  744MOL0     C98121   0.914   6.767   9.646 -0.6095  0.1208  0.2100
  744MOL0     C98122   0.919   6.717   9.774 -0.0040  0.2228  0.4130
  744MOL0     O98123   0.761   6.459   9.930 -0.5608 -0.1712 -0.0490
  744MOL0     C98124   0.719   6.564  10.177 -0.7373  1.0518 -0.2635
  744MOL0     C98125   0.697   6.555  10.324 -0.1714  0.5300  0.3226
  744MOL0     N98126   0.983   6.383  11.067 -0.2481 -0.0276 -0.1091
  744MOL0     N98127   1.011   6.261  11.096 -0.6927 -0.1256 -0.2395
  744MOL0     C98128   0.386   6.472  11.414 -0.2819 -0.6792 -0.1702
  744MOL0     C98129   0.435   6.578  11.350  0.3059  0.4690  0.9768
  744MOL0     C98130   0.616   6.885  11.097  1.0899 -0.0408 -0.3307
  744MOL0     C98131   0.537   6.932  11.000 -0.4965  0.9813  1.5630
  744MOL0     C98132   0.570   7.036  10.911 -0.5656 -0.1430 -0.2380
  744MOL0     C98133   0.687   7.103  10.942  0.6865 -0.0829 -0.6868
  744MOL0     O98134   0.715   7.199  10.859 -0.7361  0.0236  1.3389
  744MOL0     C98135   0.842   7.192  10.792 -0.1374  0.6777  0.8376
  744MOL0     C98136   0.824   7.132  10.649  0.1869  0.4363  0.3267
  744MOL0     C98137   0.816   6.976  10.666 -0.2351 -0.7312  0.3873
  744MOL0     C98138   0.866   6.916  10.533  0.0821  0.5791  0.3895
  744MOL0     C98139   0.793   6.945  10.409 -1.3582  0.6897  0.1282
  744MOL0     C98140   0.728   6.961  10.310 -0.9026 -0.1876  1.0073
  744MOL0     C98141   0.761   7.070  11.055  0.5062  0.0986 -0.2770
  744MOL0     C98142   0.726   6.957  11.132 -0.4848 -1.0726 -1.2324
  744MOL0     H98143   0.440   6.470  11.029  0.9382  3.7988 -0.3084
  744MOL0     H98144   0.340   6.260  11.155 -0.9977  0.4694 -0.0488
  744MOL0     H98145   0.220   6.189  11.600 -0.1324  0.4031 -0.2697
  744MOL0     H98146   0.370   6.287  11.603 -1.1719  3.0751 -3.4279
  744MOL0     H98147   0.363   6.042  11.444 -1.0530  0.6765  0.7106
  744MOL0     H98148   0.420   6.034  11.614 -0.9072 -4.1245 -3.1889
  744MOL0     H98149   0.614   6.190  11.552  0.2642  2.0128 -0.4687
  744MOL0     H98150   0.561   6.199  11.391  0.8948  3.4698  2.7100
  744MOL0     H98151   0.603   5.941  11.554 -2.6955  1.3579  0.3770
  744MOL0     H98152   0.602   5.955  11.374  2.9646  1.2551 -1.1315
  744MOL0     H98153   0.821   5.923  11.485 -1.0882 -0.4043  1.7950
  744MOL0     H98154   0.808   6.082  11.555  0.0971  2.4542 -1.9592
  744MOL0     H98155   0.953   6.077  11.347  0.5766 -0.9953  1.2085
  744MOL0     H98156   0.815   6.189  11.339  4.8445  0.4385 -1.8850
  744MOL0     H98157   0.784   5.914  11.244 -4.8795  0.1280  2.7006
  744MOL0     H98158   0.681   6.055  11.218  0.2087  0.6368  1.5100
  744MOL0     H98159   0.800   6.020  11.016 -1.4980  0.2900  1.4050
  744MOL0     H98160   0.970   6.006  11.101  0.7326 -0.6110  1.8253
  744MOL0     H98161   0.683   6.260  11.043 -0.0736 -2.4232  1.7088
  744MOL0     H98162   0.876   6.605  10.989  0.5976  0.3912 -2.6083
  744MOL0     H98163   0.709   6.566  11.052  1.4158  0.9087  1.1311
  744MOL0     H98164   0.643   6.448  10.846  0.5630 -0.7507  1.6244
  744MOL0     H98165   0.810   6.444  10.794 -1.3437 -1.3582 -0.7198
  744MOL0     H98166   0.612   6.667  10.801 -0.7410 -1.4253 -0.0596
  744MOL0     H98167   0.791   6.682  10.769  0.8364 -1.5419  2.4563
  744MOL0     H98168   0.667   6.682  10.562 -0.4254  0.0658 -1.1539
  744MOL0     H98169   0.599   6.516  10.594 -2.5552  2.4932  1.5759
  744MOL0     H98170   0.997   6.450  10.419  0.3410 -1.3488 -1.2208
  744MOL0     H98171   1.047   6.467  10.180  0.0158  0.7632 -1.5899
  744MOL0     H98172   1.029   6.406   9.725  0.4872 -0.4046 -1.0220
  744MOL0     H98173   1.036   6.474   9.495  1.4944 -0.0674 -0.0906
  744MOL0     H98174   1.083   6.601   9.322 -3.7115 -0.6841 -0.8972
  744MOL0     H98175   1.180   6.740   9.404 -1.3021  1.5078  1.0933
  744MOL0     H98176   0.971   6.762   9.174 -0.0536 -3.0956 -0.1719
  744MOL0     H98177   1.135   6.721   9.138 -1.2651  1.4162 -0.9365
  744MOL0     H98178   1.218   6.924   9.243 -0.1957  3.8004  0.5700
  744MOL0     H98179   1.054   6.976   9.288 -0.5148  2.1058 -1.8221
  744MOL0     H98180   1.155   7.081   9.063 -0.4309  0.5234 -3.0035
  744MOL0     H98181   1.133   6.918   8.993  2.6838  2.1783 -0.6768
  744MOL0     H98182   0.900   7.073   9.119  0.9663 -1.4531  1.5648
  744MOL0     H98183   0.896   6.918   9.040 -0.1309 -0.6109  2.4044
  744MOL0     H98184   0.997   7.055   8.829  4.1877  5.3016  1.3795
  744MOL0     H98185   0.957   7.190   8.942  1.0821  0.2739  2.9130
  744MOL0     H98186   0.794   7.030   8.766 -3.0890 -0.6061 -0.2428
  744MOL0     H98187   0.718   7.045   8.933  3.8257 -0.6836  2.4127
  744MOL0     H98188   0.640   7.207   8.769  1.8611 -0.6895 -2.3914
  744MOL0     H98189   0.791   7.282   8.746  1.0889  0.7012  1.5926
  744MOL0     H98190   0.873   6.865   9.627 -3.0919 -1.0910 -1.2458
  744MOL0     H98191   0.886   6.779   9.856 -2.2473  0.4362 -0.5758
  744MOL0     H98192   0.653   6.601  10.099  0.3665 -2.2326 -3.0119
  744MOL0     H98193   0.602   6.577  10.372 -0.7166  1.8249 -1.2449
  744MOL0     H98194   0.362   6.483  11.519 -0.3254 -0.7599 -0.1710
  744MOL0     H98195   0.429   6.676  11.396 -4.8547  0.7617  0.3318
  744MOL0     H98196   0.443   6.879  10.989  0.2121  0.1853 -1.9372
  744MOL0     H98197   0.510   7.077  10.830 -0.4598  1.4084  0.4387
  744MOL0     H98198   0.913   7.133  10.849 -1.8306 -3.8109 -1.2070
  744MOL0     H98199   0.881   7.293  10.780 -1.0308  1.3074  2.8592
  744MOL0     H98200   0.736   7.169  10.596  0.1061 -1.8136 -1.2403
  744MOL0     H98201   0.912   7.158  10.590  0.1134 -1.7709 -0.8617
  744MOL0     H98202   0.712   6.951  10.689  0.0216  0.4076  3.1064
  744MOL0     H98203   0.880   6.946  10.750  2.2358 -2.0206 -1.8157
  744MOL0     H98204   0.973   6.928  10.518 -0.0878  0.5721 -0.9690
  744MOL0     H98205   0.863   6.808  10.550  4.5470  0.1058 -0.7193
  744MOL0     H98206   0.685   7.000  10.220 -1.0852  0.7919  1.5114
  744MOL0     H98207   0.842   7.135  11.086  2.0540 -1.0516 -1.7285
  744MOL0     H98208   0.786   6.935  11.220  0.5317 -1.5442 -2.0185
  745MOL0     O98209   7.768   7.965   8.467 -0.5064 -0.1885 -0.1939
  745MOL0     C98210   7.849   8.055   8.451  0.3734 -0.2670 -0.7519
  745MOL0     O98211   7.976   8.054   8.462 -0.8780 -0.3942 -0.2629
  745MOL0     C98212   8.035   7.940   8.492 -0.1767  0.0121  0.2569
  745MOL0     C98213   8.069   7.851   8.393 -0.5141  0.4161  0.2297
  745MOL0     C98214   8.124   7.730   8.430 -0.3134  0.0902  0.2611
  745MOL0     C98215   8.145   7.690   8.562  0.1382 -0.7887  0.4265
  745MOL0     O98216   8.202   7.566   8.587  0.0529  0.4365  0.2314
  745MOL0     C98217   8.258   7.499   8.474  0.6103  0.1158  0.1618
  745MOL0     C98218   8.345   7.385   8.540 -0.5887  0.5805  0.4686
  745MOL0     C98219   8.449   7.424   8.641  0.4542 -0.2800  0.3021
  745MOL0     C98220   8.535   7.303   8.689 -0.3961  0.3754  0.0286
  745MOL0     C98221   8.527   7.267   8.844 -0.5037 -0.5481 -0.0473
  745MOL0     C98222   8.640   7.167   8.892  0.1166  0.0847 -0.4787
  745MOL0     C98223   8.764   7.241   8.945 -0.4820 -0.3857 -0.1360
  745MOL0     C98224   8.879   7.133   8.962 -0.3877 -0.1978 -0.2449
  745MOL0     N98225   8.883   7.053   9.096  0.3137 -0.0335  0.6026
  745MOL0     C98226   8.792   7.003   9.182  0.3119  0.4638  0.7960
  745MOL0     C98227   8.847   6.952   9.286  1.1624 -0.4632 -0.3860
  745MOL0     C98228   8.771   6.880   9.399 -0.5436  0.4715  0.3527
  745MOL0     C98229   8.740   6.735   9.351 -0.8477  0.1427 -0.3480
  745MOL0     C98230   8.845   6.628   9.396 -0.0559  0.6851  0.2752
  745MOL0     C98231   8.845   6.608   9.540  0.3758 -1.3954 -0.1337
  745MOL0     O98232   8.917   6.487   9.573 -0.0422  0.7908 -0.1234
  745MOL0     C98233   8.937   6.456   9.707 -0.8200  0.8045  0.2889
  745MOL0     C98234   8.940   6.317   9.734 -0.9407  0.4706  0.4969
  745MOL0     C98235   8.956   6.271   9.868  2.0859  0.0505  0.5855
  745MOL0     C98236   8.948   6.361   9.973  0.1107  1.1468  0.4145
  745MOL0     C98237   8.949   6.318  10.113  0.4578  0.0057 -0.7010
  745MOL0     O98238   8.967   6.191  10.145 -1.0078 -0.6698 -0.3576
  745MOL0     C98239   9.037   6.164  10.253  0.4696  0.2422  0.7866
  745MOL0     C98240   9.160   6.225  10.286 -0.2372  0.4373 -0.2309
  745MOL0     C98241   9.239   6.187  10.397 -0.4663  0.4218  0.4149
  745MOL0     C98242   9.179   6.095  10.483  0.7936 -0.4742  0.0644
  745MOL0     O98243   9.245   6.047  10.587  0.7238  0.3474 -0.0803
  745MOL0     C98244   9.233   6.100  10.713  0.8503 -0.2049  0.0776
  745MOL0     C98245   9.356   6.084  10.784  0.1754  0.1908 -0.2348
  745MOL0     C98246   9.481   6.132  10.708  0.5056  0.2933 -0.3572
  745MOL0     C98247   9.486   6.280  10.680  0.3794  0.3713 -0.2739
  745MOL0     C98248   9.623   6.335  10.620  0.4982  0.1310  0.1488
  745MOL0     C98249   9.631   6.326  10.463  0.4598 -0.0264 -0.4650
  745MOL0     C98250   9.654   6.187  10.408  0.7520 -0.9371  0.0218
  745MOL0     C98251   9.715   6.191  10.263 -0.2339 -0.1858 -0.5614
  745MOL0    Cl98252   9.608   6.261  10.141  0.4187 -0.1081 -0.2226
  745MOL0     C98253   9.058   6.024  10.445  0.6871  0.1383  0.4007
  745MOL0     C98254   8.995   6.058  10.332  0.5125 -0.3655 -0.4516
  745MOL0     O98255   8.944   6.414  10.191  0.3857  0.6878 -0.2237
  745MOL0     C98256   8.944   6.503   9.942 -0.2910  0.2898 -0.3243
  745MOL0     C98257   8.932   6.544   9.810  0.5598 -0.6389 -0.0811
  745MOL0     N98258   8.978   6.973   9.272  0.0249  0.2077 -0.0415
  745MOL0     N98259   9.009   7.023   9.156 -0.5848 -1.1171 -0.6575
  745MOL0     C98260   8.127   7.788   8.661  0.3171 -0.1874 -0.4654
  745MOL0     C98261   8.069   7.914   8.628 -0.6169 -0.9327  0.1578
  745MOL0     C98262   7.798   8.199   8.436  0.8485  0.6903  1.5317
  745MOL0     C98263   7.883   8.311   8.443 -0.8510  1.0145 -1.1972
  745MOL0     C98264   7.836   8.437   8.438 -0.5888  0.4635  0.2048
  745MOL0     C98265   7.702   8.462   8.398 -0.2067  0.0193  0.5810
  745MOL0     O98266   7.676   8.588   8.368 -0.1046  0.3112  0.6795
  745MOL0     C98267   7.545   8.646   8.392 -0.1099  0.9626  0.9479
  745MOL0     C98268   7.572   8.794   8.409  1.3052  0.1980 -0.4842
  745MOL0     C98269   7.491   8.852   8.532  0.0234  0.2264 -0.0532
  745MOL0     C98270   7.540   8.806   8.663 -0.0136 -0.5380 -0.0040
  745MOL0     C98271   7.657   8.892   8.698 -0.0842 -0.3968 -0.5033
  745MOL0     C98272   7.756   8.961   8.704  0.6552 -1.3536 -0.0503
  745MOL0     C98273   7.610   8.348   8.392 -0.1539  0.4361 -0.0551
  745MOL0     C98274   7.656   8.219   8.413 -0.5013 -0.4208 -0.1552
  745MOL0     H98275   8.037   7.874   8.292 -0.1959 -1.5944 -0.3645
  745MOL0     H98276   8.136   7.661   8.347  1.7333  2.3546 -1.4878
  745MOL0     H98277   8.318   7.565   8.411  0.4863 -0.8424 -1.0159
  745MOL0     H98278   8.176   7.448   8.423 -1.0451  0.4441  2.3708
  745MOL0     H98279   8.398   7.327   8.464  1.2799 -2.2949  3.7151
  745MOL0     H98280   8.271   7.324   8.593 -0.7814  0.7284  0.3699
  745MOL0     H98281   8.403   7.457   8.735  0.4148  2.3248 -0.5513
  745MOL0     H98282   8.517   7.506   8.617 -0.2792  0.6156  1.1882
  745MOL0     H98283   8.501   7.223   8.623  0.6858  0.8032 -1.1041
  745MOL0     H98284   8.641   7.325   8.670 -0.3125  1.0484  1.2141
  745MOL0     H98285   8.439   7.208   8.870  1.5011 -4.0521 -0.4556
  745MOL0     H98286   8.532   7.364   8.894  2.5882  0.0832 -1.3046
  745MOL0     H98287   8.670   7.094   8.816 -1.1336 -0.2399 -0.6879
  745MOL0     H98288   8.598   7.107   8.972 -1.2227  0.5823 -0.7752
  745MOL0     H98289   8.797   7.307   8.864  2.5968 -2.3950 -0.6820
  745MOL0     H98290   8.741   7.300   9.034  2.6241  0.7470  0.0286
  745MOL0     H98291   8.971   7.191   8.977 -0.6013 -0.2736  1.5381
  745MOL0     H98292   8.891   7.070   8.873 -2.8755 -1.1211  0.0063
  745MOL0     H98293   8.684   7.008   9.172  0.4805  2.2949 -0.7676
  745MOL0     H98294   8.682   6.943   9.411 -0.0974  1.8007 -2.4946
  745MOL0     H98295   8.830   6.881   9.491 -0.2797  2.4475  0.1896
  745MOL0     H98296   8.741   6.725   9.242 -3.8171  0.6384 -0.5059
  745MOL0     H98297   8.639   6.707   9.381 -0.1600 -2.4784 -0.2286
  745MOL0     H98298   8.818   6.534   9.346 -0.9760  1.1196 -0.0452
  745MOL0     H98299   8.948   6.646   9.363  0.1214  3.9483  2.2131
  745MOL0     H98300   8.739   6.610   9.568 -0.0046 -0.2237 -1.5371
  745MOL0     H98301   8.887   6.699   9.584 -1.5770 -0.9329  0.8789
  745MOL0     H98302   8.930   6.237   9.662 -1.0027  0.7040  0.2489
  745MOL0     H98303   8.964   6.164   9.885  3.2845  0.2691  1.5269
  745MOL0     H98304   9.203   6.298  10.218 -1.5978  0.1070 -1.5092
  745MOL0     H98305   9.339   6.226  10.409  0.8955 -2.9389  0.8992
  745MOL0     H98306   9.155   6.048  10.768  1.9706 -1.0065  0.9643
  745MOL0     H98307   9.206   6.204  10.692 -1.3616 -1.0932 -1.8827
  745MOL0     H98308   9.358   5.976  10.798 -1.7801 -0.1721 -2.1534
  745MOL0     H98309   9.342   6.140  10.877  0.9522  2.0341 -1.1791
  745MOL0     H98310   9.467   6.082  10.612  1.9010 -0.6971 -0.0700
  745MOL0     H98311   9.580   6.102  10.746  0.1459  0.8424  1.1138
  745MOL0     H98312   9.404   6.315  10.617  0.0361 -0.2466 -0.1704
  745MOL0     H98313   9.469   6.331  10.775  0.7039  0.1057 -0.0734
  745MOL0     H98314   9.708   6.285  10.669 -1.7436 -2.6541  1.4899
  745MOL0     H98315   9.627   6.439  10.653  0.4493  0.3460 -0.5085
  745MOL0     H98316   9.707   6.391  10.418 -0.2545  0.6683 -0.6947
  745MOL0     H98317   9.541   6.365  10.414  1.7377  1.5895 -1.6365
  745MOL0     H98318   9.719   6.125  10.471 -0.2198 -2.6526 -0.6204
  745MOL0     H98319   9.558   6.135  10.406  0.1632  0.1262 -0.0896
  745MOL0     H98320   9.738   6.085  10.250 -0.2846 -0.5623  1.9345
  745MOL0     H98321   9.812   6.242  10.265 -0.6009  0.5659 -1.0778
  745MOL0     H98322   9.016   5.943  10.503  1.5755  0.2045  1.1619
  745MOL0     H98323   8.902   6.004  10.322  0.0094 -0.1375  2.2343
  745MOL0     H98324   8.949   6.578  10.020  0.2151  0.2774 -0.3381
  745MOL0     H98325   8.916   6.650   9.792  0.7942 -0.9959 -2.8970
  745MOL0     H98326   8.175   7.783   8.758  4.7740 -0.2861 -2.4450
  745MOL0     H98327   8.059   7.995   8.699  1.1803  0.2900 -0.8882
  745MOL0     H98328   7.975   8.288   8.497  0.4020 -1.2473 -3.9913
  745MOL0     H98329   7.899   8.519   8.473  0.7861 -0.4791  0.0076
  745MOL0     H98330   7.501   8.618   8.488 -0.2525  1.9795  1.1980
  745MOL0     H98331   7.482   8.613   8.309  0.1651  1.4948  0.5199
  745MOL0     H98332   7.677   8.824   8.400  1.6953 -0.8969  0.2131
  745MOL0     H98333   7.522   8.836   8.321 -0.4049  0.1208  0.4176
  745MOL0     H98334   7.392   8.811   8.511 -0.2808  0.1361  1.4155
  745MOL0     H98335   7.487   8.960   8.516  1.1112 -0.0087 -2.2013
  745MOL0     H98336   7.454   8.840   8.722  1.0798  0.7936  0.9019
  745MOL0     H98337   7.572   8.702   8.673  1.5952 -0.2513 -1.7535
  745MOL0     H98338   7.844   9.020   8.723  1.5705 -0.8121 -4.6206
  745MOL0     H98339   7.504   8.364   8.373  0.6771  2.3758 -3.9166
  745MOL0     H98340   7.596   8.129   8.406  3.5297 -3.3377 -0.3736
  746MOL0     O98341   5.723   2.760  10.448 -0.3087 -0.7265  0.2530
  746MOL0     C98342   5.759   2.812  10.549  0.4764 -0.2820  0.2376
  746MOL0     O98343   5.799   2.938  10.561 -0.6845  0.5149  0.0780
  746MOL0     C98344   5.743   3.026  10.484 -0.2361 -0.6392  0.4712
  746MOL0     C98345   5.812   3.154  10.486 -0.3929 -0.4668 -0.2797
  746MOL0     C98346   5.772   3.256  10.397  0.0706  0.1587 -0.2861
  746MOL0     C98347   5.658   3.259  10.320 -0.4008  0.8915  0.5049
  746MOL0     O98348   5.614   3.352  10.231  0.5546 -0.5544 -0.5814
  746MOL0     C98349   5.714   3.441  10.174 -0.1570  0.7507 -1.1127
  746MOL0     C98350   5.653   3.538  10.077 -0.1533  0.1388 -0.5270
  746MOL0     C98351   5.569   3.658  10.142  0.2417 -0.3966 -0.1222
  746MOL0     C98352   5.474   3.721  10.027  0.4362  0.2773 -0.2880
  746MOL0     C98353   5.475   3.876  10.054 -0.4356 -0.0318  1.1484
  746MOL0     C98354   5.396   3.925  10.175  0.0341 -0.0852 -0.5642
  746MOL0     C98355   5.401   4.080  10.198 -1.0790  1.1406 -0.5531
  746MOL0     C98356   5.298   4.148  10.115 -0.0409  0.1859  0.0501
  746MOL0     N98357   5.341   4.277  10.053 -1.4353  0.6625  0.3237
  746MOL0     C98358   5.423   4.299   9.935  0.5048  0.2538  0.2550
  746MOL0     C98359   5.450   4.436   9.925  0.7820  0.8495  0.2830
  746MOL0     C98360   5.549   4.506   9.834  0.1795 -0.6536  0.1112
  746MOL0     C98361   5.592   4.427   9.710  0.5526 -0.5385  1.0292
  746MOL0     C98362   5.473   4.408   9.611  0.2239 -0.0776 -0.4758
  746MOL0     C98363   5.493   4.309   9.500 -0.2628  0.1275 -0.0209
  746MOL0     O98364   5.535   4.181   9.548  0.1357 -0.1645  0.2902
  746MOL0     C98365   5.453   4.070   9.571 -0.0880 -0.5203  0.6897
  746MOL0     C98366   5.515   3.965   9.641 -0.1225 -0.6097  1.1966
  746MOL0     C98367   5.457   3.843   9.657  0.7731  0.1704 -0.0678
  746MOL0     C98368   5.317   3.826   9.632 -0.0057  0.0407 -0.0534
  746MOL0     C98369   5.253   3.690   9.639 -0.5029  0.0031 -0.0526
  746MOL0     O98370   5.334   3.591   9.679 -0.1732 -0.3221  1.0808
  746MOL0     C98371   5.335   3.469   9.616  1.4161 -0.3938 -0.6484
  746MOL0     C98372   5.376   3.370   9.701 -0.1915 -0.1684 -0.4391
  746MOL0     C98373   5.384   3.239   9.650  0.2108 -0.3408  0.0944
  746MOL0     C98374   5.345   3.218   9.516 -0.8490  0.8497 -0.3183
  746MOL0     O98375   5.370   3.089   9.470 -0.3385 -0.1669  0.0275
  746MOL0     C98376   5.305   3.046   9.354 -0.7718  0.0849  0.1860
  746MOL0     C98377   5.377   2.918   9.319  0.1270  0.2916 -0.0675
  746MOL0     C98378   5.340   2.812   9.427 -0.9414  0.3911  0.9901
  746MOL0     C98379   5.370   2.668   9.377 -0.7213  0.2567 -0.7781
  746MOL0     C98380   5.329   2.560   9.483 -0.0630  1.2008 -0.4711
  746MOL0     C98381   5.401   2.555   9.621 -0.9394  0.4092 -1.5986
  746MOL0     C98382   5.546   2.505   9.617 -0.3544 -0.3500  0.4470
  746MOL0     C98383   5.612   2.488   9.752  0.1898 -1.1814  0.5268
  746MOL0    Cl98384   5.522   2.366   9.852 -0.2267 -0.3316 -0.0930
  746MOL0     C98385   5.312   3.328   9.430 -0.3257 -0.8300 -0.0311
  746MOL0     C98386   5.312   3.455   9.483  0.3263 -0.2889  0.2844
  746MOL0     O98387   5.132   3.681   9.614  0.7184  0.3276  0.0310
  746MOL0     C98388   5.258   3.932   9.566  0.1859 -0.2200  1.2054
  746MOL0     C98389   5.322   4.049   9.527  0.1477 -0.2504  0.5216
  746MOL0     N98390   5.382   4.496  10.034 -0.6544 -0.4264 -0.2700
  746MOL0     N98391   5.332   4.406  10.105  0.0628  0.7767 -0.5747
  746MOL0     C98392   5.577   3.138  10.334  0.1215 -0.5929  0.4098
  746MOL0     C98393   5.621   3.025  10.412  1.1521 -0.0464  0.6675
  746MOL0     C98394   5.808   2.720  10.650 -1.2271  0.0582  0.9139
  746MOL0     C98395   5.813   2.577  10.627  0.7412  1.1387 -0.8570
  746MOL0     C98396   5.893   2.487  10.706  0.5983  0.1185 -0.7291
  746MOL0     C98397   5.948   2.536  10.822 -0.4582 -0.6229 -0.0654
  746MOL0     O98398   6.016   2.463  10.918  0.2001 -0.4007 -0.6370
  746MOL0     C98399   6.146   2.416  10.872  0.4247  0.2966 -0.0825
  746MOL0     C98400   6.259   2.443  10.975 -1.2576 -0.3056 -0.3486
  746MOL0     C98401   6.263   2.590  10.993 -0.3114 -0.2229 -0.8814
  746MOL0     C98402   6.303   2.668  10.870  0.3288  0.0374  0.0841
  746MOL0     C98403   6.289   2.816  10.886 -0.1880 -0.8589  0.1490
  746MOL0     C98404   6.264   2.934  10.890 -0.4007 -0.6241 -1.5458
  746MOL0     C98405   5.935   2.676  10.842  0.1472  1.0340  0.7425
  746MOL0     C98406   5.872   2.760  10.761 -0.7962  0.9193 -0.5428
  746MOL0     H98407   5.906   3.158  10.540  1.3235  0.3732 -3.0937
  746MOL0     H98408   5.825   3.351  10.403 -0.2678  0.2835  1.3519
  746MOL0     H98409   5.779   3.386  10.106  1.1760 -1.0991  1.5111
  746MOL0     H98410   5.784   3.483  10.246 -0.6806 -3.1172  1.9789
  746MOL0     H98411   5.584   3.497  10.003 -1.8792  0.5416  0.7976
  746MOL0     H98412   5.725   3.592  10.014 -2.7572  2.7925 -1.4722
  746MOL0     H98413   5.644   3.731  10.173 -0.1664  0.3723 -0.9078
  746MOL0     H98414   5.504   3.629  10.225  1.8826  1.5018  1.9571
  746MOL0     H98415   5.524   3.724   9.930  3.7307  3.0868  1.2612
  746MOL0     H98416   5.369   3.691  10.020  0.2953  1.1297 -2.6700
  746MOL0     H98417   5.424   3.909   9.963  0.0610 -0.9945  0.4954
  746MOL0     H98418   5.579   3.909  10.045  0.0327 -1.7597 -0.5487
  746MOL0     H98419   5.429   3.872  10.265 -0.9992  1.4900  0.8202
  746MOL0     H98420   5.292   3.898  10.156  0.1873 -1.3705  0.3203
  746MOL0     H98421   5.391   4.116  10.301 -2.2393  5.1302 -1.8464
  746MOL0     H98422   5.505   4.111  10.187 -1.5619  3.2030  0.2232
  746MOL0     H98423   5.205   4.159  10.171  0.5790 -0.5428  1.2703
  746MOL0     H98424   5.273   4.075  10.038 -0.9138 -0.0916  0.5846
  746MOL0     H98425   5.439   4.227   9.856  1.4860  0.6718  0.0637
  746MOL0     H98426   5.638   4.516   9.896  0.9223  0.9113 -1.1342
  746MOL0     H98427   5.498   4.600   9.812  2.0875  0.4420  0.1794
  746MOL0     H98428   5.621   4.327   9.746  0.4097 -0.4306  1.4537
  746MOL0     H98429   5.679   4.466   9.658  1.5371 -2.7434  0.8975
  746MOL0     H98430   5.384   4.367   9.659  1.5116 -1.1542  1.1265
  746MOL0     H98431   5.453   4.509   9.573 -1.5498  0.2255  1.1269
  746MOL0     H98432   5.564   4.371   9.444  0.6323  2.0180  2.9647
  746MOL0     H98433   5.402   4.296   9.442  0.1823 -0.2369 -0.6522
  746MOL0     H98434   5.615   3.989   9.676  0.1597  0.8603 -0.4144
  746MOL0     H98435   5.516   3.762   9.698  3.2819  0.2485 -3.1037
  746MOL0     H98436   5.404   3.395   9.803  0.7724  1.5786 -1.0842
  746MOL0     H98437   5.407   3.158   9.718 -1.8524 -0.8098  0.2949
  746MOL0     H98438   5.308   3.112   9.267 -1.6843  1.6415  1.2938
  746MOL0     H98439   5.200   3.020   9.375  0.0270 -2.5768  1.2740
  746MOL0     H98440   5.484   2.937   9.309  0.4628 -1.4749 -0.0200
  746MOL0     H98441   5.342   2.892   9.218 -1.6735 -0.3734  0.6890
  746MOL0     H98442   5.235   2.808   9.457 -0.0950 -0.2059  4.2212
  746MOL0     H98443   5.401   2.837   9.515  0.7803 -1.6452  0.4557
  746MOL0     H98444   5.333   2.636   9.279  0.0201 -1.8432 -0.4294
  746MOL0     H98445   5.479   2.668   9.364 -0.8847 -0.4228 -2.3692
  746MOL0     H98446   5.336   2.464   9.430 -1.4417  0.7199  0.1682
  746MOL0     H98447   5.224   2.572   9.510  0.1361 -1.4905  2.0648
  746MOL0     H98448   5.344   2.485   9.683  0.6624 -0.7328 -1.3380
  746MOL0     H98449   5.385   2.647   9.677 -2.5912 -0.2005 -1.0105
  746MOL0     H98450   5.542   2.410   9.562 -0.7963 -0.4408  0.6294
  746MOL0     H98451   5.615   2.570   9.563  1.8266 -1.6210  1.5619
  746MOL0     H98452   5.610   2.588   9.796 -1.3324 -0.8893 -0.1629
  746MOL0     H98453   5.718   2.461   9.743  1.2262  2.2831  0.9048
  746MOL0     H98454   5.295   3.311   9.324  0.2474  0.8647 -0.4395
  746MOL0     H98455   5.272   3.537   9.424  1.0743  0.2389  0.4870
  746MOL0     H98456   5.153   3.927   9.536 -0.4447 -0.9438  3.3737
  746MOL0     H98457   5.271   4.130   9.476 -0.9491 -1.2870 -0.0893
  746MOL0     H98458   5.493   3.127  10.267 -0.5668  4.1992  0.1483
  746MOL0     H98459   5.556   2.940  10.398  0.1394  0.8437 -0.2651
  746MOL0     H98460   5.759   2.533  10.544 -1.2323  1.2103  0.3390
  746MOL0     H98461   5.889   2.383  10.678 -1.8894 -0.7486  2.2627
  746MOL0     H98462   6.164   2.452  10.771 -0.3178  2.3372  0.4633
  746MOL0     H98463   6.140   2.309  10.853  0.5810  0.2082  0.3506
  746MOL0     H98464   6.262   2.380  11.064  4.4167  0.2340  0.1955
  746MOL0     H98465   6.352   2.420  10.922 -1.3526 -2.0975  0.2228
  746MOL0     H98466   6.342   2.599  11.069  0.1759 -2.4170 -1.0536
  746MOL0     H98467   6.178   2.639  11.042  1.1834  1.2505  0.3633
  746MOL0     H98468   6.402   2.640  10.835  0.3369 -1.0516  0.9293
  746MOL0     H98469   6.224   2.645  10.798 -1.1678  1.5607  1.1240
  746MOL0     H98470   6.260   3.040  10.877  0.9762 -0.0103  2.0065
  746MOL0     H98471   5.969   2.726  10.933  2.3430  0.9339  0.0469
  746MOL0     H98472   5.867   2.860  10.803 -2.6367  0.3636  0.6833
  747MOL0     O98473   3.034   4.945   2.458  1.5322  0.9780 -0.2612
  747MOL0     C98474   3.024   5.044   2.528  0.5951  0.0101 -0.3394
  747MOL0     O98475   2.985   5.165   2.484 -0.0608 -0.3872 -0.0044
  747MOL0     C98476   2.946   5.202   2.353  0.7985  0.9026 -0.7078
  747MOL0     C98477   2.962   5.329   2.315  1.2498  1.1734  0.1321
  747MOL0     C98478   2.919   5.376   2.186 -0.8493  0.9328  0.4314
  747MOL0     C98479   2.854   5.290   2.101 -0.7442  0.0472 -0.0762
  747MOL0     O98480   2.812   5.327   1.982  0.8692 -0.6222 -0.3277
  747MOL0     C98481   2.915   5.308   1.887 -0.4383 -0.0727 -0.0236
  747MOL0     C98482   2.861   5.343   1.741 -0.2240  0.1921 -0.7138
  747MOL0     C98483   2.710   5.343   1.714  0.1028  0.4235 -0.5151
  747MOL0     C98484   2.645   5.197   1.711  0.2531  0.4570 -0.2706
  747MOL0     C98485   2.496   5.192   1.733  0.3001  0.6410 -0.6768
  747MOL0     C98486   2.440   5.060   1.675  1.1769 -0.5123 -0.1291
  747MOL0     C98487   2.293   5.072   1.605  0.5711 -0.3336 -0.5988
  747MOL0     C98488   2.247   4.947   1.529 -0.6442  0.0573 -0.3732
  747MOL0     N98489   2.260   4.814   1.607  0.4196  0.9514  0.0736
  747MOL0     C98490   2.190   4.767   1.712 -0.8258 -0.4568 -0.9660
  747MOL0     C98491   2.244   4.647   1.753 -0.2668  0.3845  0.1338
  747MOL0     C98492   2.200   4.556   1.868  0.3285  0.5185 -0.8865
  747MOL0     C98493   2.296   4.538   1.983  0.0681  1.0155 -0.0073
  747MOL0     C98494   2.260   4.409   2.067  0.1763  0.4048 -0.0476
  747MOL0     C98495   2.344   4.410   2.203  1.1427 -0.3953 -0.7280
  747MOL0     O98496   2.288   4.324   2.312  0.2051 -0.2293  0.4454
  747MOL0     C98497   2.161   4.340   2.365 -0.6445  0.7165 -0.0649
  747MOL0     C98498   2.102   4.466   2.384  0.2974 -0.2868 -0.2716
  747MOL0     C98499   1.972   4.480   2.422  0.2469 -0.0977 -0.3140
  747MOL0     C98500   1.891   4.370   2.453  0.0805  0.4991 -1.1621
  747MOL0     C98501   1.752   4.394   2.504  0.0240 -0.0158  0.4666
  747MOL0     O98502   1.683   4.509   2.469 -0.1831  0.2985 -0.4512
  747MOL0     C98503   1.551   4.492   2.489  0.5179 -0.0507  0.8160
  747MOL0     C98504   1.480   4.547   2.596  0.1312  1.1249 -0.7756
  747MOL0     C98505   1.344   4.551   2.613  0.6029  0.2344  0.3816
  747MOL0     C98506   1.264   4.488   2.507 -0.4314  0.0596 -0.2419
  747MOL0     O98507   1.132   4.510   2.522  0.0302  0.0891 -0.6917
  747MOL0     C98508   1.047   4.425   2.454  0.8827  0.9831 -0.7605
  747MOL0     C98509   0.906   4.420   2.516  0.2001 -1.0936 -0.1802
  747MOL0     C98510   0.825   4.302   2.448  0.4911  0.1232  0.4098
  747MOL0     C98511   0.678   4.325   2.480 -0.1361 -0.3103 -0.6842
  747MOL0     C98512   0.600   4.218   2.410 -0.0552  0.4755  0.4943
  747MOL0     C98513   0.465   4.187   2.469  0.0257 -0.5011  0.4356
  747MOL0     C98514   0.389   4.318   2.490 -1.4653 -0.6586 -0.3568
  747MOL0     C98515   0.249   4.322   2.444 -0.8998 -0.2684 -0.6080
  747MOL0    Cl98516   0.235   4.286   2.275  0.2100 -0.3763  0.0389
  747MOL0     C98517   1.326   4.425   2.397 -0.6922 -0.3943 -0.5554
  747MOL0     C98518   1.466   4.436   2.386  0.0985  1.3936 -0.8467
  747MOL0     O98519   1.710   4.295   2.556  0.3737 -0.4288 -1.1949
  747MOL0     C98520   1.954   4.247   2.468 -0.2440  0.2007  0.9084
  747MOL0     C98521   2.089   4.227   2.416 -0.1797 -0.3442 -0.3944
  747MOL0     N98522   2.355   4.631   1.671 -0.5136  0.0147  0.2297
  747MOL0     N98523   2.362   4.729   1.590 -0.8209 -0.5010  0.7442
  747MOL0     C98524   2.831   5.158   2.139  0.1907 -0.5808  0.1605
  747MOL0     C98525   2.887   5.109   2.262  0.2715  0.1561 -0.2332
  747MOL0     C98526   3.062   5.031   2.670 -0.9006  0.1450  0.4332
  747MOL0     C98527   3.084   4.903   2.717  0.4080 -0.4933 -0.0596
  747MOL0     C98528   3.107   4.889   2.855  0.0131 -0.8261  0.1876
  747MOL0     C98529   3.103   4.997   2.947 -0.7691  1.0992  0.1143
  747MOL0     O98530   3.127   4.971   3.086 -0.8574 -0.3137 -0.3319
  747MOL0     C98531   3.088   5.054   3.201  0.7895  0.1302 -0.0390
  747MOL0     C98532   2.934   5.055   3.209  1.2114 -0.4752 -0.5579
  747MOL0     C98533   2.857   4.922   3.182  0.4019 -0.9784 -0.5558
  747MOL0     C98534   2.921   4.801   3.239 -1.0826  0.8245 -0.1758
  747MOL0     C98535   2.957   4.802   3.377 -0.5573 -0.5119 -0.0235
  747MOL0     C98536   2.983   4.799   3.492 -0.5622  0.2202 -0.4138
  747MOL0     C98537   3.087   5.129   2.895 -0.0849  0.0297 -0.8814
  747MOL0     C98538   3.058   5.145   2.759  0.1845 -0.0158  0.3248
  747MOL0     H98539   3.003   5.384   2.399 -2.7518  2.4810  1.4453
  747MOL0     H98540   2.947   5.476   2.154 -0.2610  0.4958 -0.4527
  747MOL0     H98541   2.956   5.207   1.894  0.3279  0.2461  0.1235
  747MOL0     H98542   2.995   5.379   1.907 -0.0253 -0.5937  0.1915
  747MOL0     H98543   2.903   5.261   1.681 -1.4775 -0.7276 -0.3789
  747MOL0     H98544   2.901   5.440   1.712  2.2034  0.7470  3.5184
  747MOL0     H98545   2.707   5.378   1.610 -2.2294 -0.5606 -0.8333
  747MOL0     H98546   2.652   5.408   1.780 -0.5381  0.0122 -0.6593
  747MOL0     H98547   2.677   5.165   1.612  1.5263  0.1169  0.2200
  747MOL0     H98548   2.693   5.130   1.784 -1.0698 -1.8325 -1.3977
  747MOL0     H98549   2.448   5.268   1.670  1.3398  0.3972 -1.7890
  747MOL0     H98550   2.473   5.194   1.841 -2.4536  1.0210 -1.1799
  747MOL0     H98551   2.430   4.983   1.751  2.1859 -2.0794 -1.5046
  747MOL0     H98552   2.511   5.022   1.601  2.1992 -0.7787  0.9636
  747MOL0     H98553   2.222   5.078   1.687  0.6273 -0.1014 -0.5649
  747MOL0     H98554   2.293   5.167   1.549 -1.4113  0.6043  0.8675
  747MOL0     H98555   2.312   4.931   1.442  1.3087 -3.6298  1.5476
  747MOL0     H98556   2.141   4.965   1.512 -0.7328  1.4801  1.4017
  747MOL0     H98557   2.108   4.807   1.770  1.0919 -1.6711  2.9596
  747MOL0     H98558   2.183   4.455   1.829  2.2307  0.0800 -0.6997
  747MOL0     H98559   2.107   4.596   1.910 -0.8921 -2.5913 -0.3436
  747MOL0     H98560   2.292   4.620   2.054  0.6195 -3.2041  5.6335
  747MOL0     H98561   2.401   4.525   1.954 -0.0025 -0.3260  0.2508
  747MOL0     H98562   2.152   4.415   2.085  0.3659 -0.0327  1.3632
  747MOL0     H98563   2.273   4.317   2.010 -1.7342 -0.7311  1.2400
  747MOL0     H98564   2.343   4.514   2.238 -0.2893 -0.1553 -1.4090
  747MOL0     H98565   2.443   4.371   2.181  2.0410 -0.1014  2.3778
  747MOL0     H98566   2.164   4.555   2.377  1.9564 -1.3208  0.5506
  747MOL0     H98567   1.919   4.573   2.405  1.0986  0.4120 -0.2053
  747MOL0     H98568   1.537   4.602   2.670 -2.4350 -0.6773  2.8501
  747MOL0     H98569   1.300   4.599   2.700 -1.1483  1.1248 -0.9245
  747MOL0     H98570   1.089   4.324   2.455  1.8422  1.3625  0.8832
  747MOL0     H98571   1.034   4.454   2.349  1.8514  1.8198 -0.6678
  747MOL0     H98572   0.863   4.514   2.483  0.5267 -1.8520 -3.0657
  747MOL0     H98573   0.898   4.412   2.625  1.4010 -5.3088 -0.1931
  747MOL0     H98574   0.844   4.203   2.491 -2.5916 -0.9821 -0.4556
  747MOL0     H98575   0.849   4.297   2.342  0.3274 -0.0234  0.3782
  747MOL0     H98576   0.663   4.305   2.586 -2.5641  0.3557 -0.8464
  747MOL0     H98577   0.651   4.427   2.451  1.6189  2.3753  5.5768
  747MOL0     H98578   0.652   4.122   2.414 -3.4909 -1.5398  1.3629
  747MOL0     H98579   0.581   4.249   2.307  0.3136 -2.1857 -0.4603
  747MOL0     H98580   0.491   4.130   2.558  5.9363  0.3674 -0.3142
  747MOL0     H98581   0.411   4.127   2.395  1.5411 -0.0634 -1.0887
  747MOL0     H98582   0.378   4.336   2.598 -0.2729  2.8402 -0.6997
  747MOL0     H98583   0.437   4.404   2.442  1.4459 -2.3240 -0.6707
  747MOL0     H98584   0.219   4.423   2.472  0.8327 -0.4457  2.3082
  747MOL0     H98585   0.194   4.253   2.509 -0.5466 -0.9975 -1.0664
  747MOL0     H98586   1.272   4.395   2.308  0.4601  0.8650 -1.7395
  747MOL0     H98587   1.508   4.398   2.294 -3.1347  1.5282 -2.5099
  747MOL0     H98588   1.899   4.173   2.526  3.7304 -2.2847  1.9603
  747MOL0     H98589   2.131   4.127   2.417 -0.0295 -0.3453  2.2651
  747MOL0     H98590   2.765   5.096   2.081  0.0073 -0.6524  0.4409
  747MOL0     H98591   2.855   5.006   2.279  1.7724 -0.3654 -0.3988
  747MOL0     H98592   3.083   4.811   2.659  2.8046  0.5992 -2.0148
  747MOL0     H98593   3.123   4.791   2.899 -0.2294 -0.1432  1.8418
  747MOL0     H98594   3.131   5.155   3.192  0.1495  0.5186  1.0642
  747MOL0     H98595   3.123   5.006   3.293 -3.0510 -2.2183  0.4131
  747MOL0     H98596   2.898   5.103   3.301 -0.0477  2.9642 -2.6766
  747MOL0     H98597   2.899   5.128   3.136  0.6672  2.2891  2.2244
  747MOL0     H98598   2.849   4.923   3.073 -1.7864  2.8660 -0.5321
  747MOL0     H98599   2.761   4.919   3.235  1.4124 -3.1034  1.3391
  747MOL0     H98600   2.866   4.707   3.224  3.4105 -2.1292 -0.2738
  747MOL0     H98601   3.002   4.775   3.170 -0.0539 -0.8271  1.5355
  747MOL0     H98602   3.016   4.780   3.592  0.3551  0.6551 -0.6287
  747MOL0     H98603   3.091   5.205   2.973  4.1213 -2.9897  2.3732
  747MOL0     H98604   3.049   5.246   2.721 -0.4412  0.2089  1.0482
  748MOL0     O98605   4.264  10.284  10.624  0.1846  0.1116  0.3686
  748MOL0     C98606   4.360  10.213  10.640 -0.7921 -0.2964  0.8481
  748MOL0     O98607   4.377  10.089  10.582  0.1737  0.3785 -0.6473
  748MOL0     C98608   4.273  10.009  10.538 -0.3047  0.5334  0.7270
  748MOL0     C98609   4.139  10.013  10.567  0.2057 -0.2984  0.8063
  748MOL0     C98610   4.043   9.939  10.491 -1.0477  0.3212 -0.2671
  748MOL0     C98611   4.082   9.836  10.407 -0.1701  0.3954  0.1168
  748MOL0     O98612   4.001   9.750  10.335  0.2796 -0.9578 -0.9274
  748MOL0     C98613   3.879   9.800  10.284 -0.5138  0.6014 -0.2536
  748MOL0     C98614   3.765   9.731  10.359 -0.0099  0.4158  0.0623
  748MOL0     C98615   3.640   9.740  10.267  0.3909 -0.6743  1.8321
  748MOL0     C98616   3.546   9.632  10.302 -0.2952 -0.9639 -0.0525
  748MOL0     C98617   3.428   9.616  10.215  0.5024 -0.5521  0.1745
  748MOL0     C98618   3.328   9.720  10.258 -0.5183  0.7409 -0.9766
  748MOL0     C98619   3.203   9.714  10.171  0.5797  0.3316 -0.1626
  748MOL0     C98620   3.129   9.582  10.144  0.0332  0.2016 -0.0907
  748MOL0     N98621   3.051   9.547  10.264  0.1444 -0.1296  0.9559
  748MOL0     C98622   2.943   9.608  10.318  0.7398 -0.1181 -0.0228
  748MOL0     C98623   2.921   9.542  10.434 -0.1573  0.5578 -0.1202
  748MOL0     C98624   2.817   9.564  10.542  0.1776  0.1396  0.7005
  748MOL0     C98625   2.858   9.693  10.624  1.1077  0.0448 -0.1996
  748MOL0     C98626   2.944   9.654  10.739  0.8558  0.0119  0.2193
  748MOL0     C98627   2.866   9.606  10.859 -0.1109 -0.6451  0.1843
  748MOL0     O98628   2.765   9.703  10.923 -0.1061  0.5228 -0.6343
  748MOL0     C98629   2.739   9.698  11.060  0.0982  0.9202  0.5205
  748MOL0     C98630   2.762   9.580  11.133 -0.9940  0.1933  0.3722
  748MOL0     C98631   2.724   9.560  11.269  0.2689  0.4279  0.2006
  748MOL0     C98632   2.656   9.666  11.324  0.7421  0.2625 -0.2572
  748MOL0     C98633   2.609   9.651  11.465 -0.1478 -0.1528 -0.1891
  748MOL0     O98634   2.629   9.533  11.521 -0.8212  0.5225 -0.2244
  748MOL0     C98635   2.561   9.518  11.642  0.1048  0.1106 -0.1461
  748MOL0     C98636   2.609   9.559  11.770 -0.4448  0.1099 -0.6867
  748MOL0     C98637   2.540   9.535  11.888 -0.5119 -0.0332 -0.0997
  748MOL0     C98638   2.409   9.478  11.877 -0.1183 -1.4041 -0.2398
  748MOL0     O98639   2.352   9.428  11.986  0.1955 -0.7365  0.1977
  748MOL0     C98640   2.287   9.513  12.079 -0.4968 -0.5243  0.1765
  748MOL0     C98641   2.243   9.435  12.211 -0.0032 -1.2500  0.9868
  748MOL0     C98642   2.161   9.514  12.317  0.3083  0.6139 -0.4815
  748MOL0     C98643   2.250   9.626  12.381 -0.0528  0.5152  1.1553
  748MOL0     C98644   2.192   9.703  12.498  0.6849  0.2070 -1.0308
  748MOL0     C98645   2.185   9.612  12.628 -0.2418 -0.3095 -0.5279
  748MOL0     C98646   2.147   9.687  12.750 -0.6668  0.1559 -0.6962
  748MOL0     C98647   2.199   9.620  12.884 -0.1905 -0.3096  0.1906
  748MOL0    Cl98648   2.360   9.658  12.926 -0.3085  0.2807 -0.5255
  748MOL0     C98649   2.359   9.443  11.753  0.0682 -0.1080 -0.0382
  748MOL0     C98650   2.438   9.453  11.641  0.1652 -0.9331  0.0873
  748MOL0     O98651   2.559   9.749  11.516  0.1692  0.6758  0.1417
  748MOL0     C98652   2.617   9.782  11.259 -0.0527  0.2252 -0.2142
  748MOL0     C98653   2.660   9.793  11.124 -0.0581 -0.5338 -0.2612
  748MOL0     N98654   3.016   9.448  10.437  0.3290  0.8237 -0.1954
  748MOL0     N98655   3.090   9.446  10.341 -0.5741 -0.2744  0.0401
  748MOL0     C98656   4.223   9.813  10.388  0.5453  0.4863 -0.0500
  748MOL0     C98657   4.310   9.892  10.459 -0.3272 -0.1473  0.8761
  748MOL0     C98658   4.468  10.266  10.722  0.2666 -0.4785  0.7507
  748MOL0     C98659   4.556  10.185  10.789  0.4622  0.0219 -0.6503
  748MOL0     C98660   4.667  10.242  10.866  0.2266 -0.3744  1.2356
  748MOL0     C98661   4.680  10.385  10.874  0.1940  0.7200 -1.0013
  748MOL0     O98662   4.769  10.429  10.964  0.3037  0.2542  0.5586
  748MOL0     C98663   4.830  10.561  10.946  0.1653 -0.7760  0.0263
  748MOL0     C98664   4.968  10.574  11.005 -0.4196  0.1429 -0.0450
  748MOL0     C98665   4.963  10.510  11.145  0.5357 -0.2727 -0.3577
  748MOL0     C98666   5.101  10.523  11.218 -0.6456 -0.4372  0.1610
  748MOL0     C98667   5.088  10.454  11.351  0.7534 -0.2253 -0.3600
  748MOL0     C98668   5.076  10.388  11.451 -0.0411 -0.1199 -0.9317
  748MOL0     C98669   4.586  10.453  10.806 -0.9282 -0.0025  0.5295
  748MOL0     C98670   4.484  10.405  10.729 -0.0392  0.1354  0.8431
  748MOL0     H98671   4.113  10.081  10.647 -2.0082  0.2502 -0.3012
  748MOL0     H98672   3.940   9.942  10.528 -0.8475  1.4008  0.2417
  748MOL0     H98673   3.886   9.762  10.182 -1.7990  0.5067 -0.3137
  748MOL0     H98674   3.873   9.909  10.286  2.1947  0.8369  0.7676
  748MOL0     H98675   3.734   9.773  10.455  0.2508 -3.0734  1.8230
  748MOL0     H98676   3.792   9.629  10.386  1.4740  0.4398 -1.1983
  748MOL0     H98677   3.669   9.723  10.163  3.0746 -4.1060  2.9582
  748MOL0     H98678   3.597   9.840  10.279  1.8587  0.4322 -1.0824
  748MOL0     H98679   3.605   9.541  10.288  1.4579  0.2553 -0.8862
  748MOL0     H98680   3.509   9.642  10.404 -0.5334  0.3636 -0.2480
  748MOL0     H98681   3.391   9.514  10.231 -0.6889 -0.2025 -0.2356
  748MOL0     H98682   3.453   9.637  10.110 -2.5882  3.6437  0.0024
  748MOL0     H98683   3.380   9.816  10.249  3.5297 -1.1952 -0.3825
  748MOL0     H98684   3.307   9.703  10.364 -0.1869  4.2766 -0.1965
  748MOL0     H98685   3.123   9.780  10.207  0.3846 -1.2983  2.6697
  748MOL0     H98686   3.235   9.739  10.070  0.5847  0.6319 -0.0879
  748MOL0     H98687   3.201   9.502  10.127  0.3579  0.8248 -1.8508
  748MOL0     H98688   3.074   9.599  10.051  0.3045 -1.8393 -0.6607
  748MOL0     H98689   2.892   9.693  10.274  3.4704  1.7330  0.0794
  748MOL0     H98690   2.807   9.482  10.615 -0.3764  0.7526  1.3235
  748MOL0     H98691   2.723   9.585  10.490 -0.0501 -1.2843  0.4948
  748MOL0     H98692   2.770   9.757  10.638  1.2196  0.1749 -0.0947
  748MOL0     H98693   2.920   9.751  10.555  2.7373  0.3687  1.4812
  748MOL0     H98694   3.018   9.578  10.714  3.1203  1.9106  0.7762
  748MOL0     H98695   2.986   9.750  10.772 -2.5357  1.8106 -0.2388
  748MOL0     H98696   2.945   9.563  10.922  0.5859 -0.1744 -0.3473
  748MOL0     H98697   2.811   9.519  10.822 -1.8635 -0.0473  1.2921
  748MOL0     H98698   2.806   9.494  11.085 -0.3671 -0.2191  1.6353
  748MOL0     H98699   2.735   9.469  11.327 -1.5706 -0.1238 -0.2351
  748MOL0     H98700   2.709   9.600  11.772  0.3684 -1.8126 -0.7303
  748MOL0     H98701   2.595   9.534  11.981  0.7012  1.3188 -0.7665
  748MOL0     H98702   2.194   9.555  12.041 -0.6219 -0.0706  0.9620
  748MOL0     H98703   2.351   9.600  12.099  2.4820 -2.2088 -1.2989
  748MOL0     H98704   2.338   9.419  12.262  2.7445  1.0681 -2.8811
  748MOL0     H98705   2.187   9.345  12.181  1.7902 -1.0870 -3.6967
  748MOL0     H98706   2.122   9.438  12.386 -0.7817  0.1952 -1.5082
  748MOL0     H98707   2.072   9.559  12.274  1.9341  2.3616 -2.1844
  748MOL0     H98708   2.349   9.586  12.406  1.1466  1.5161 -1.6281
  748MOL0     H98709   2.271   9.701  12.305 -0.3553 -0.3203  0.2253
  748MOL0     H98710   2.089   9.737  12.484  0.0782 -0.8911  0.4249
  748MOL0     H98711   2.247   9.791  12.533  0.3645 -0.2847  0.8601
  748MOL0     H98712   2.285   9.570  12.641  0.1533  0.0528 -2.1450
  748MOL0     H98713   2.118   9.527  12.611 -3.2739  2.0228 -1.0982
  748MOL0     H98714   2.188   9.788  12.761  1.9129 -0.9202  0.3084
  748MOL0     H98715   2.039   9.702  12.749 -0.4749  1.6796 -1.9098
  748MOL0     H98716   2.189   9.512  12.867 -1.1573 -0.2548  0.3679
  748MOL0     H98717   2.126   9.641  12.962 -1.1458 -1.2889 -0.4038
  748MOL0     H98718   2.264   9.391  11.753 -0.2935  0.2742 -3.9663
  748MOL0     H98719   2.409   9.429  11.540  0.1711  2.0679 -0.7062
  748MOL0     H98720   2.565   9.862  11.311  0.6963  0.5928 -0.0194
  748MOL0     H98721   2.645   9.877  11.057  0.6911 -0.1712  0.0211
  748MOL0     H98722   4.269   9.739  10.323  4.4325  2.1100  0.5596
  748MOL0     H98723   4.416   9.877  10.444 -0.4498 -0.9676  0.7837
  748MOL0     H98724   4.539  10.078  10.789 -0.8934  0.1767 -3.2871
  748MOL0     H98725   4.733  10.171  10.917  1.5088  0.2163  0.4574
  748MOL0     H98726   4.756  10.630  10.989 -1.6683 -0.6367 -3.0686
  748MOL0     H98727   4.837  10.600  10.844 -0.5454  2.1528  0.9770
  748MOL0     H98728   5.039  10.516  10.946 -0.3591  1.2071 -1.0537
  748MOL0     H98729   5.003  10.678  11.011 -0.4090  0.1070  0.6043
  748MOL0     H98730   4.943  10.404  11.130  0.7000 -0.2578 -0.6814
  748MOL0     H98731   4.883  10.566  11.195 -0.6095 -2.2497  0.1372
  748MOL0     H98732   5.174  10.477  11.150 -3.6440 -1.2313 -2.8130
  748MOL0     H98733   5.135  10.624  11.244  4.2101 -2.0561  1.1262
  748MOL0     H98734   5.080  10.348  11.551  1.8167 -2.1544 -1.7154
  748MOL0     H98735   4.595  10.561  10.812 -2.7755  0.3238 -1.6986
  748MOL0     H98736   4.406  10.471  10.691 -0.4407 -1.4469 -1.2787
  749MOL0     O98737   0.213   5.077   1.344  0.1684 -0.0580  0.2373
  749MOL0     C98738   0.312   5.006   1.340 -0.3288  0.2268 -0.2971
  749MOL0     O98739   0.433   5.041   1.399  0.5699 -0.9876  0.4114
  749MOL0     C98740   0.454   5.165   1.454  0.8224 -0.0128 -0.1042
  749MOL0     C98741   0.406   5.293   1.395  0.3557  0.5436 -0.5050
  749MOL0     C98742   0.450   5.409   1.459 -0.7520 -0.3753 -0.6678
  749MOL0     C98743   0.513   5.410   1.583 -0.7252 -0.1208 -1.0093
  749MOL0     O98744   0.524   5.533   1.642  1.4145 -0.6954 -0.0734
  749MOL0     C98745   0.619   5.558   1.743 -0.0626 -0.1690 -0.5009
  749MOL0     C98746   0.712   5.653   1.670  0.2150 -0.0848 -0.3222
  749MOL0     C98747   0.648   5.783   1.624  0.5287  0.7385 -1.0169
  749MOL0     C98748   0.727   5.853   1.525  0.3496  0.4240  0.3082
  749MOL0     C98749   0.643   5.950   1.438 -0.1387  0.4576 -0.3287
  749MOL0     C98750   0.693   6.092   1.430  0.6675  0.2915 -0.0264
  749MOL0     C98751   0.810   6.113   1.329  0.4908 -0.8819  0.2003
  749MOL0     C98752   0.826   6.261   1.297  0.4969 -0.3222  0.1650
  749MOL0     N98753   0.959   6.274   1.234 -0.2860  0.0278 -0.6631
  749MOL0     C98754   0.991   6.307   1.104 -0.1500 -0.0098  0.5214
  749MOL0     C98755   1.127   6.329   1.103 -0.6922 -0.4106 -0.4613
  749MOL0     C98756   1.213   6.363   0.969 -0.9815 -0.8092  0.9173
  749MOL0     C98757   1.123   6.366   0.844  0.3325 -0.4338 -0.3651
  749MOL0     C98758   1.211   6.411   0.720 -0.5069  0.4217 -0.8450
  749MOL0     C98759   1.147   6.405   0.579 -0.2397 -0.1240  0.4221
  749MOL0     O98760   1.097   6.278   0.560  0.2146  0.2326  0.2465
  749MOL0     C98761   1.180   6.178   0.526 -0.6806  0.5195  0.1635
  749MOL0     C98762   1.109   6.049   0.531  0.2293  0.1005 -0.2549
  749MOL0     C98763   1.158   5.939   0.466  0.4042 -0.2936 -0.0243
  749MOL0     C98764   1.282   5.940   0.405  0.5703  0.9196 -0.3822
  749MOL0     C98765   1.337   5.815   0.349 -0.1813  0.0181 -0.1319
  749MOL0     O98766   1.273   5.694   0.380 -0.9893 -0.2325  0.3692
  749MOL0     C98767   1.336   5.580   0.347 -0.2863 -0.7816  0.4854
  749MOL0     C98768   1.464   5.560   0.395  0.2699 -0.3293  1.0810
  749MOL0     C98769   1.527   5.434   0.391  0.4666  0.5341  0.0202
  749MOL0     C98770   1.468   5.321   0.322 -0.7151 -0.0174  0.3524
  749MOL0     O98771   1.522   5.197   0.329 -0.2916  0.1132  0.6452
  749MOL0     C98772   1.658   5.184   0.366 -0.1606  0.3760  0.5801
  749MOL0     C98773   1.698   5.038   0.351 -0.3557  0.8088 -0.5638
  749MOL0     C98774   1.831   4.995   0.422  0.3707 -0.1186  0.0904
  749MOL0     C98775   1.855   4.852   0.401 -0.2711  0.9404 -0.1059
  749MOL0     C98776   1.997   4.811   0.450  0.3791  1.0468 -0.3345
  749MOL0     C98777   2.053   4.675   0.408 -0.5598  1.0774 -0.8908
  749MOL0     C98778   1.984   4.557   0.456  0.7575  0.5832  0.2598
  749MOL0     C98779   2.068   4.428   0.475 -0.5519 -0.3685  1.0028
  749MOL0    Cl98780   2.197   4.419   0.601  0.0141  0.4442  0.2599
  749MOL0     C98781   1.343   5.343   0.269 -0.0684 -0.4153 -0.1530
  749MOL0     C98782   1.278   5.472   0.278 -0.0543  0.3928  0.6845
  749MOL0     O98783   1.420   5.837   0.259  0.3401 -0.1950 -1.1210
  749MOL0     C98784   1.361   6.061   0.404  1.0375 -0.0957  0.7867
  749MOL0     C98785   1.311   6.185   0.452  0.8014 -0.3247 -0.8376
  749MOL0     N98786   1.172   6.302   1.226 -0.0738 -0.0868 -0.0305
  749MOL0     N98787   1.073   6.268   1.301  0.2238 -0.3362  0.0851
  749MOL0     C98788   0.552   5.287   1.637 -1.2487 -0.0123  0.0482
  749MOL0     C98789   0.527   5.161   1.568  0.1013  0.0852  0.1392
  749MOL0     C98790   0.303   4.879   1.271  0.3006 -0.6421 -0.3486
  749MOL0     C98791   0.195   4.859   1.174 -0.1715  0.3587 -0.6714
  749MOL0     C98792   0.177   4.734   1.114 -0.5126 -0.5231  0.4207
  749MOL0     C98793   0.263   4.626   1.130 -0.4830 -0.1579  0.6899
  749MOL0     O98794   0.249   4.510   1.065 -0.1834  0.3408  0.6771
  749MOL0     C98795   0.161   4.493   0.955 -0.8693 -0.6643 -0.4274
  749MOL0     C98796   0.219   4.557   0.823  0.3863  1.5110 -0.0179
  749MOL0     C98797   0.128   4.521   0.707  0.2837 -0.3525  0.3645
  749MOL0     C98798  -0.012   4.596   0.704 -0.0701  0.3560 -0.2817
  749MOL0     C98799  -0.001   4.741   0.704 -0.3214  0.0775  0.0173
  749MOL0     C98800   0.026   4.855   0.708 -0.2651  0.2045 -0.3782
  749MOL0     C98801   0.369   4.645   1.218 -0.0317 -0.5251  0.2733
  749MOL0     C98802   0.388   4.767   1.294 -0.1390  0.8952 -0.5267
  749MOL0     H98803   0.348   5.294   1.303  3.2713 -1.4180 -2.5338
  749MOL0     H98804   0.420   5.504   1.418 -1.6148  0.8756  2.5117
  749MOL0     H98805   0.681   5.480   1.787  3.4073  2.4700 -0.3213
  749MOL0     H98806   0.569   5.616   1.822 -0.3944 -0.9329 -0.1384
  749MOL0     H98807   0.762   5.594   1.593  1.6904 -0.9271  1.2206
  749MOL0     H98808   0.789   5.682   1.742 -1.6957  0.3731  1.6443
  749MOL0     H98809   0.628   5.853   1.706 -0.5427 -1.5391  0.7492
  749MOL0     H98810   0.552   5.750   1.583  0.6171 -1.2186  0.2498
  749MOL0     H98811   0.816   5.897   1.570  2.3383 -2.8507 -0.0244
  749MOL0     H98812   0.751   5.772   1.454 -3.2208 -0.5302  0.0086
  749MOL0     H98813   0.548   5.959   1.492  0.4312 -1.4503  1.1319
  749MOL0     H98814   0.630   5.912   1.337 -0.1924  0.9966 -0.5279
  749MOL0     H98815   0.719   6.117   1.533 -0.7554 -1.9409  0.9404
  749MOL0     H98816   0.607   6.158   1.415  3.3940  3.6100 -2.9535
  749MOL0     H98817   0.904   6.079   1.374  1.0352 -1.7330 -1.5132
  749MOL0     H98818   0.797   6.051   1.240  1.9211 -0.0834 -0.5979
  749MOL0     H98819   0.825   6.333   1.379  0.3906  2.3640 -2.0626
  749MOL0     H98820   0.741   6.283   1.232 -1.0655 -4.9627  0.2764
  749MOL0     H98821   0.927   6.301   1.016  0.1867 -0.2134  0.2847
  749MOL0     H98822   1.300   6.295   0.963  0.8154  1.4541  0.0221
  749MOL0     H98823   1.250   6.465   0.971  3.6745 -2.0951 -2.3901
  749MOL0     H98824   1.034   6.428   0.856  1.2849  1.8359 -3.5677
  749MOL0     H98825   1.094   6.261   0.839 -1.7780 -0.0006  1.4023
  749MOL0     H98826   1.249   6.513   0.734  0.7057  0.3793 -3.2898
  749MOL0     H98827   1.304   6.354   0.726  0.0027  1.3642  2.1760
  749MOL0     H98828   1.226   6.429   0.507 -1.0688  4.0776  0.6343
  749MOL0     H98829   1.070   6.481   0.562  3.8028  4.2436 -0.8939
  749MOL0     H98830   1.009   6.049   0.573  0.7014 -2.2360  1.0207
  749MOL0     H98831   1.090   5.857   0.447 -0.2199  0.5680 -1.7720
  749MOL0     H98832   1.509   5.632   0.464  1.6912 -1.2341  1.1383
  749MOL0     H98833   1.631   5.429   0.423 -0.0131  0.0695  1.6250
  749MOL0     H98834   1.672   5.219   0.469  1.0784  1.7044 -0.0043
  749MOL0     H98835   1.730   5.237   0.302  1.1545 -1.9612  0.0139
  749MOL0     H98836   1.701   5.015   0.244 -1.6525  0.6630 -0.5850
  749MOL0     H98837   1.616   4.981   0.396 -2.1464  3.8212  0.2853
  749MOL0     H98838   1.821   5.013   0.530 -1.0217 -1.4119  0.2034
  749MOL0     H98839   1.897   5.066   0.371 -1.7027  0.9623 -1.2398
  749MOL0     H98840   1.778   4.792   0.451 -1.5301  3.5031  1.2168
  749MOL0     H98841   1.856   4.838   0.293  2.8044  0.9556 -0.1544
  749MOL0     H98842   1.991   4.820   0.558 -2.5625  0.4038 -0.3487
  749MOL0     H98843   2.076   4.881   0.421  2.8253 -0.3912  2.4343
  749MOL0     H98844   2.159   4.662   0.431 -0.5879  0.2672 -1.1870
  749MOL0     H98845   2.045   4.676   0.299 -0.7966  2.5240 -0.8717
  749MOL0     H98846   1.935   4.573   0.552 -2.4212 -0.9968 -0.9511
  749MOL0     H98847   1.910   4.533   0.379 -1.7326 -0.1136  2.7352
  749MOL0     H98848   2.115   4.408   0.378 -1.4227 -1.5619  0.8044
  749MOL0     H98849   1.996   4.350   0.501  0.5998 -1.7319  0.2820
  749MOL0     H98850   1.284   5.262   0.229 -0.6810  1.0753 -2.4952
  749MOL0     H98851   1.178   5.472   0.235  1.4512 -2.1686 -3.4587
  749MOL0     H98852   1.458   6.065   0.354  0.2363  2.0350 -0.7511
  749MOL0     H98853   1.375   6.272   0.443  1.4549 -0.4479  1.8243
  749MOL0     H98854   0.614   5.291   1.726  1.4552 -1.4663 -1.6242
  749MOL0     H98855   0.566   5.063   1.596 -2.2201 -0.5742  1.3156
  749MOL0     H98856   0.130   4.946   1.163  1.5359  1.7940  0.2225
  749MOL0     H98857   0.093   4.736   1.044  1.3524 -1.1475 -1.9921
  749MOL0     H98858   0.062   4.538   0.970 -0.5437 -0.2450  0.4953
  749MOL0     H98859   0.136   4.387   0.943 -2.4393 -0.3385 -0.2992
  749MOL0     H98860   0.227   4.666   0.836 -2.2781  1.8456 -0.5917
  749MOL0     H98861   0.317   4.511   0.805 -0.6203 -0.4057 -0.8514
  749MOL0     H98862   0.103   4.417   0.732  0.6958 -0.7543 -0.8208
  749MOL0     H98863   0.186   4.517   0.614  0.6852 -2.2872  0.6522
  749MOL0     H98864  -0.069   4.557   0.619  0.6441 -1.3157 -0.0467
  749MOL0     H98865  -0.059   4.560   0.796  0.3678 -0.1637 -0.2594
  749MOL0     H98866   0.048   4.959   0.723  3.8023 -0.6991  1.1894
  749MOL0     H98867   0.424   4.552   1.230 -0.2886 -0.4327  2.8174
  749MOL0     H98868   0.461   4.771   1.374  0.6489 -1.5346 -1.0450
  750MOL0     O98869   3.282   4.630   3.869  0.2264 -0.0550 -0.3663
  750MOL0     C98870   3.340   4.595   3.971 -0.9840  0.9737  0.5236
  750MOL0     O98871   3.462   4.639   4.013  0.1961  0.6715 -0.1715
  750MOL0     C98872   3.522   4.739   3.954 -0.7220  0.0423  1.2434
  750MOL0     C98873   3.602   4.805   4.048  0.4528 -1.1499  0.3396
  750MOL0     C98874   3.684   4.911   4.020 -0.6933 -0.9268 -0.0964
  750MOL0     C98875   3.682   4.964   3.883  0.2175 -0.0385  0.0446
  750MOL0     O98876   3.735   5.073   3.836  0.2830 -0.1847 -0.0812
  750MOL0     C98877   3.810   5.169   3.923  0.0745 -0.1268  0.3906
  750MOL0     C98878   3.958   5.134   3.942  0.6433  0.2563 -0.3048
  750MOL0     C98879   3.986   4.977   3.939 -0.1882 -0.0514  0.5351
  750MOL0     C98880   4.131   4.948   3.965 -0.0926  0.3932  0.0686
  750MOL0     C98881   4.181   4.802   3.943  0.0113 -0.4910 -0.0298
  750MOL0     C98882   4.287   4.764   4.050 -0.4924  0.2345  0.4891
  750MOL0     C98883   4.300   4.610   4.032 -0.1118  0.5597 -0.4869
  750MOL0     C98884   4.352   4.543   4.154 -0.7865  0.6034 -0.2943
  750MOL0     N98885   4.486   4.586   4.194 -0.2651  0.3957 -0.6671
  750MOL0     C98886   4.599   4.564   4.119 -0.0139 -0.6193 -0.2337
  750MOL0     C98887   4.704   4.630   4.184  0.4106 -0.1344  0.6595
  750MOL0     C98888   4.846   4.654   4.150 -0.1525  0.7139 -1.0390
  750MOL0     C98889   4.952   4.577   4.232  0.3994 -0.3342  0.0013
  750MOL0     C98890   4.945   4.425   4.199  0.3619 -0.4078  0.6693
  750MOL0     C98891   5.038   4.348   4.292 -0.2771  0.3134 -0.3309
  750MOL0     O98892   5.171   4.381   4.258 -0.4115 -0.2238  0.5767
  750MOL0     C98893   5.249   4.362   4.365 -0.4541 -1.2888 -0.2143
  750MOL0     C98894   5.262   4.479   4.434 -0.1099  0.9510 -0.4989
  750MOL0     C98895   5.335   4.475   4.549  0.2342  0.2827  0.3841
  750MOL0     C98896   5.388   4.365   4.614 -0.3383 -0.1029  0.4685
  750MOL0     C98897   5.450   4.377   4.749 -0.5589 -0.3321  0.9533
  750MOL0     O98898   5.478   4.511   4.790  0.2573 -0.3848 -0.1200
  750MOL0     C98899   5.569   4.538   4.884  0.0814  0.6540  0.1494
  750MOL0     C98900   5.664   4.443   4.934  0.0852  0.9689 -0.1337
  750MOL0     C98901   5.766   4.466   5.030  0.2052 -0.4235  0.6743
  750MOL0     C98902   5.778   4.594   5.079  0.6278 -1.2525  0.2479
  750MOL0     O98903   5.868   4.619   5.183  0.5134 -0.2149 -0.3258
  750MOL0     C98904   5.843   4.725   5.276 -0.5708 -1.5333 -0.5785
  750MOL0     C98905   5.930   4.848   5.243 -0.4365  0.1252  0.6231
  750MOL0     C98906   6.076   4.806   5.253 -0.1274 -1.0854  0.2392
  750MOL0     C98907   6.122   4.807   5.403  0.0935 -0.0369 -0.3234
  750MOL0     C98908   6.264   4.754   5.421 -0.2706 -0.2694 -0.3046
  750MOL0     C98909   6.370   4.842   5.363 -0.1384 -0.2175  0.1500
  750MOL0     C98910   6.504   4.826   5.443  0.1579 -0.5437 -0.4926
  750MOL0     C98911   6.622   4.903   5.373 -0.2769 -0.6030 -0.8135
  750MOL0    Cl98912   6.596   5.087   5.366  0.5423 -0.5257 -0.0659
  750MOL0     C98913   5.682   4.693   5.030 -0.3866  0.4932  0.0765
  750MOL0     C98914   5.580   4.656   4.935 -0.1675  0.5833 -0.0270
  750MOL0     O98915   5.467   4.282   4.819  0.0425  0.0212 -0.0402
  750MOL0     C98916   5.355   4.243   4.543 -0.3957 -0.8521 -0.0908
  750MOL0     C98917   5.299   4.240   4.418  0.9303  0.7065  0.1235
  750MOL0     N98918   4.641   4.682   4.294  0.2132  0.2844 -0.2906
  750MOL0     N98919   4.517   4.649   4.310 -0.2710 -0.9623 -0.1775
  750MOL0     C98920   3.608   4.897   3.787  0.1293  0.7284  0.3668
  750MOL0     C98921   3.535   4.781   3.815 -0.3505 -0.0342 -0.2531
  750MOL0     C98922   3.270   4.506   4.056 -0.0441 -0.0445 -0.0746
  750MOL0     C98923   3.338   4.451   4.170  0.9804 -0.1451 -0.1370
  750MOL0     C98924   3.267   4.367   4.259 -0.2317  0.4611 -0.5484
  750MOL0     C98925   3.138   4.338   4.240 -0.0555 -0.2771 -1.1538
  750MOL0     O98926   3.089   4.251   4.330  0.3729 -0.0218 -0.7386
  750MOL0     C98927   2.951   4.254   4.372  0.6368 -0.3491 -0.4208
  750MOL0     C98928   2.938   4.167   4.501 -1.0102 -0.0775  0.1828
  750MOL0     C98929   2.791   4.117   4.514  0.0766  0.2379 -1.1777
  750MOL0     C98930   2.754   3.976   4.456  0.5228 -0.2426 -0.0335
  750MOL0     C98931   2.749   3.883   4.570  0.8153 -0.1653 -0.9289
  750MOL0     C98932   2.736   3.806   4.661  0.8698  0.2978  0.0133
  750MOL0     C98933   3.065   4.390   4.134 -0.1903 -0.4238 -0.3820
  750MOL0     C98934   3.137   4.474   4.042  0.4988  0.2355 -0.1606
  750MOL0     H98935   3.588   4.774   4.151  0.6543  1.3559  1.1946
  750MOL0     H98936   3.730   4.966   4.101  0.2968 -1.1432 -0.4981
  750MOL0     H98937   3.765   5.174   4.022  2.2996  2.0210  1.3889
  750MOL0     H98938   3.797   5.274   3.895 -0.3875 -0.8229 -2.3610
  750MOL0     H98939   3.990   5.172   4.040 -1.8782  0.7797  0.3926
  750MOL0     H98940   4.019   5.196   3.877  0.7074  0.9629  0.4070
  750MOL0     H98941   3.968   4.942   3.837 -0.5896  3.8305 -0.9090
  750MOL0     H98942   3.926   4.923   4.013 -0.7353 -0.9313 -0.5227
  750MOL0     H98943   4.188   5.007   3.893  0.9668 -0.0229  0.5476
  750MOL0     H98944   4.160   4.985   4.063 -0.2239 -0.3519  0.3945
  750MOL0     H98945   4.221   4.778   3.844  0.3945 -0.9596  0.2407
  750MOL0     H98946   4.085   4.752   3.957 -0.6082  0.3920 -0.8988
  750MOL0     H98947   4.256   4.782   4.154 -0.4348 -3.3025  1.2660
  750MOL0     H98948   4.380   4.819   4.034 -0.9207  0.3994 -1.7870
  750MOL0     H98949   4.203   4.564   4.013  0.1232  0.0707 -0.5109
  750MOL0     H98950   4.359   4.584   3.944 -0.3362 -0.4115 -0.3643
  750MOL0     H98951   4.340   4.434   4.150  1.3403  0.2685  0.6387
  750MOL0     H98952   4.295   4.568   4.244  2.6167  1.8644  1.7074
  750MOL0     H98953   4.606   4.533   4.015  2.8702  1.1736 -0.7010
  750MOL0     H98954   4.864   4.756   4.186  0.5940 -0.5336  2.5122
  750MOL0     H98955   4.860   4.652   4.042 -1.4749  5.8177 -1.5731
  750MOL0     H98956   4.932   4.601   4.337 -0.0306  0.1184 -0.1782
  750MOL0     H98957   5.044   4.626   4.201  0.7042 -0.6186  0.4575
  750MOL0     H98958   4.840   4.393   4.207  0.2039  0.0813  0.6190
  750MOL0     H98959   4.970   4.421   4.092 -2.3776  3.0295 -0.3358
  750MOL0     H98960   5.020   4.241   4.273 -0.6270  0.2359  0.3727
  750MOL0     H98961   5.005   4.368   4.395  0.3719 -1.1610  0.1917
  750MOL0     H98962   5.225   4.572   4.392 -2.6304  1.0328  1.6690
  750MOL0     H98963   5.350   4.572   4.595  2.6876  0.7587 -1.2542
  750MOL0     H98964   5.681   4.346   4.889 -0.2981  0.8829 -0.0994
  750MOL0     H98965   5.815   4.374   5.059  0.3617 -0.4807  0.2305
  750MOL0     H98966   5.867   4.700   5.380  3.0148  0.1790 -0.8495
  750MOL0     H98967   5.739   4.758   5.278 -0.1787 -0.2131 -0.9119
  750MOL0     H98968   5.895   4.935   5.300 -2.5879 -0.2066 -0.1097
  750MOL0     H98969   5.917   4.876   5.138 -2.0069  1.1633  1.0643
  750MOL0     H98970   6.144   4.868   5.192  2.9300 -0.7518  3.6629
  750MOL0     H98971   6.095   4.705   5.216  1.7684 -1.4309  1.9993
  750MOL0     H98972   6.132   4.913   5.429  2.3620 -0.5058  1.0261
  750MOL0     H98973   6.046   4.762   5.467 -0.2033  0.3408 -0.4091
  750MOL0     H98974   6.268   4.652   5.382 -0.0854 -0.6683  0.7070
  750MOL0     H98975   6.284   4.753   5.529 -2.4313  0.8510  0.1668
  750MOL0     H98976   6.340   4.945   5.386  2.8051  1.0803 -1.3710
  750MOL0     H98977   6.402   4.831   5.259  0.7848 -1.9212  0.5783
  750MOL0     H98978   6.510   4.861   5.547  2.9368 -0.4832 -0.6090
  750MOL0     H98979   6.526   4.719   5.450  0.5342 -0.4906 -0.8774
  750MOL0     H98980   6.636   4.863   5.272  4.1610  0.4796 -0.8427
  750MOL0     H98981   6.709   4.880   5.435 -1.9992 -1.4166  1.4291
  750MOL0     H98982   5.692   4.797   5.059  0.6722  0.2440  0.6697
  750MOL0     H98983   5.508   4.730   4.902  0.9690  2.9763  2.4112
  750MOL0     H98984   5.399   4.150   4.577  2.6274  0.1759 -0.8511
  750MOL0     H98985   5.293   4.141   4.373 -0.1529  0.2263  1.2502
  750MOL0     H98986   3.602   4.920   3.681 -2.1058  0.4839  0.3986
  750MOL0     H98987   3.485   4.721   3.739  2.6340 -2.6034 -0.3829
  750MOL0     H98988   3.445   4.465   4.183  0.6986  1.6965  0.4845
  750MOL0     H98989   3.305   4.326   4.353  2.6293  1.1900 -1.3045
  750MOL0     H98990   2.887   4.209   4.296  0.0124 -0.9426  0.4448
  750MOL0     H98991   2.926   4.359   4.388 -1.6096 -0.8335 -0.4941
  750MOL0     H98992   2.984   4.068   4.501 -0.5586  0.1213  0.8852
  750MOL0     H98993   2.974   4.233   4.581  0.0795  3.0504 -2.6798
  750MOL0     H98994   2.719   4.195   4.488  0.4253  0.8115 -0.4478
  750MOL0     H98995   2.764   4.104   4.619  0.1729 -0.3584 -1.2238
  750MOL0     H98996   2.660   3.990   4.404  1.0521 -0.3751 -1.0482
  750MOL0     H98997   2.829   3.949   4.381  2.5983 -2.2388  2.5516
  750MOL0     H98998   2.748   3.737   4.742 -0.7025 -1.7346 -1.3991
  750MOL0     H98999   2.963   4.359   4.112 -0.0664 -0.8654 -0.3361
  750MOL0     H99000   3.079   4.501   3.955  2.6744 -0.9497 -2.0931
  751MOL0     O99001   0.478   4.439   7.442 -0.4205 -0.0343 -1.4990
  751MOL0     C99002   0.374   4.379   7.463  0.3512  0.7012  0.0219
  751MOL0     O99003   0.320   4.284   7.388 -0.1591 -0.1640 -0.1611
  751MOL0     C99004   0.374   4.263   7.264  0.0201  0.2927  0.3877
  751MOL0     C99005   0.514   4.242   7.239 -0.2004  0.3298 -0.2731
  751MOL0     C99006   0.559   4.216   7.113 -0.7024  0.0039 -0.1254
  751MOL0     C99007   0.478   4.221   7.004 -0.0024  0.0229 -0.5298
  751MOL0     O99008   0.531   4.199   6.888 -0.3027 -0.3280  0.5780
  751MOL0     C99009   0.471   4.266   6.771  0.6927  0.2291  0.5850
  751MOL0     C99010   0.564   4.239   6.651  0.2542  0.1301 -0.7761
  751MOL0     C99011   0.486   4.288   6.524 -0.0127  0.2941 -0.4691
  751MOL0     C99012   0.512   4.440   6.494  0.3733 -0.0376  0.6843
  751MOL0     C99013   0.418   4.501   6.391 -0.9303 -0.5252 -0.8330
  751MOL0     C99014   0.437   4.655   6.390  0.0742  0.0381  0.6702
  751MOL0     C99015   0.383   4.706   6.259  1.3451 -0.1516  0.7840
  751MOL0     C99016   0.225   4.699   6.244 -0.8965 -0.4588  0.1878
  751MOL0     N99017   0.165   4.769   6.136 -0.7009 -0.3147  0.1680
  751MOL0     C99018   0.029   4.753   6.085 -1.0482  0.1680  0.3765
  751MOL0     C99019   0.033   4.819   5.967 -0.0731 -0.0946 -0.6415
  751MOL0     C99020  -0.070   4.841   5.870 -0.3975 -0.9157  0.0777
  751MOL0     C99021  -0.119   4.694   5.840 -0.0586 -0.3489 -0.3141
  751MOL0     C99022  -0.016   4.608   5.754  0.3347  0.2606 -0.4216
  751MOL0     C99023  -0.003   4.460   5.804  0.6110 -0.8528  0.3697
  751MOL0     O99024   0.043   4.402   5.680  0.1527 -0.7896 -0.4118
  751MOL0     C99025   0.045   4.269   5.645  0.9246 -0.5869 -0.7063
  751MOL0     C99026   0.059   4.241   5.510  0.8955  0.4599  0.1348
  751MOL0     C99027   0.033   4.114   5.457 -0.2576  0.2293 -0.8168
  751MOL0     C99028   0.009   4.007   5.545  0.2963  0.0799 -0.2838
  751MOL0     C99029  -0.019   3.875   5.488  0.0612  0.2580 -0.6209
  751MOL0     O99030  -0.059   3.786   5.583  0.4570  0.4534  0.7044
  751MOL0     C99031  -0.086   3.654   5.554  0.1291  0.6382  0.0368
  751MOL0     C99032  -0.039   3.563   5.644  0.0932  0.2314 -0.6063
  751MOL0     C99033  -0.063   3.425   5.613  0.0105 -0.3430  0.2512
  751MOL0     C99034  -0.132   3.385   5.505 -0.2961  0.6426  0.2637
  751MOL0     O99035  -0.145   3.250   5.490 -0.4596 -0.1401 -0.2744
  751MOL0     C99036  -0.233   3.189   5.399 -0.0162 -0.0943  1.0793
  751MOL0     C99037  -0.192   3.056   5.362 -0.7547  0.8581 -0.6183
  751MOL0     C99038  -0.046   3.048   5.306 -0.1645 -0.3086 -0.2652
  751MOL0     C99039  -0.038   3.098   5.165  1.0052 -1.2215  0.9051
  751MOL0     C99040   0.103   3.103   5.119 -0.0738  0.3515  0.8945
  751MOL0     C99041   0.081   3.167   4.975  0.1033 -0.3523 -0.7093
  751MOL0     C99042   0.206   3.243   4.906 -0.2083  0.4098  0.2658
  751MOL0     C99043   0.210   3.232   4.750 -0.0161  0.7850  0.4234
  751MOL0    Cl99044   0.060   3.289   4.669  0.1760 -0.3575  0.2616
  751MOL0     C99045  -0.185   3.480   5.421  1.2236 -0.5503  0.7015
  751MOL0     C99046  -0.163   3.613   5.446  0.6525  0.5398 -0.5045
  751MOL0     O99047  -0.004   3.857   5.364  0.4203  1.0749  0.6093
  751MOL0     C99048  -0.017   4.036   5.681  0.1902 -0.2001  0.3845
  751MOL0     C99049  -0.003   4.167   5.732 -0.1158 -0.0517  0.1391
  751MOL0     N99050   0.164   4.864   5.942 -0.4417  0.9901  0.6710
  751MOL0     N99051   0.242   4.820   6.039  0.4003 -0.5161 -0.9087
  751MOL0     C99052   0.336   4.237   7.027 -1.1648 -0.2905 -0.2361
  751MOL0     C99053   0.282   4.260   7.153 -0.1865  0.5211 -0.0057
  751MOL0     C99054   0.299   4.422   7.585 -0.6105  0.2261 -0.9232
  751MOL0     C99055   0.229   4.325   7.652  0.3767 -0.2006  0.9628
  751MOL0     C99056   0.162   4.347   7.774  0.5435  0.6062 -0.5375
  751MOL0     C99057   0.166   4.474   7.844  0.2695 -0.7600  0.4662
  751MOL0     O99058   0.122   4.494   7.972 -0.1994 -1.3617 -0.6439
  751MOL0     C99059   0.055   4.608   8.017  0.0401 -0.5179 -0.5236
  751MOL0     C99060  -0.057   4.569   8.104 -0.4446  0.0625  0.3702
  751MOL0     C99061  -0.031   4.571   8.254  0.2091 -0.5734  0.3327
  751MOL0     C99062  -0.158   4.604   8.341  0.1065  0.2294  0.6457
  751MOL0     C99063  -0.243   4.482   8.356  0.7135  0.4527  0.0377
  751MOL0     C99064  -0.307   4.385   8.382 -0.3838 -0.6941 -1.1934
  751MOL0     C99065   0.249   4.569   7.783  0.4065 -0.4302 -0.1182
  751MOL0     C99066   0.309   4.547   7.653 -0.3287  0.0335 -0.5246
  751MOL0     H99067   0.592   4.246   7.314 -0.6943 -0.1609  0.2732
  751MOL0     H99068   0.665   4.208   7.089  0.2737  0.3429  3.5383
  751MOL0     H99069   0.449   4.370   6.797  0.7534  0.0311  1.4505
  751MOL0     H99070   0.373   4.222   6.748  0.0191  2.6811 -1.7348
  751MOL0     H99071   0.598   4.136   6.644  0.8522  0.4288 -3.3567
  751MOL0     H99072   0.650   4.303   6.674  1.1698 -1.4102  0.1811
  751MOL0     H99073   0.378   4.273   6.538  0.1263 -0.0867  0.2639
  751MOL0     H99074   0.519   4.224   6.442 -0.7104 -2.9758  1.5880
  751MOL0     H99075   0.486   4.495   6.585  1.4959 -2.1503  2.3776
  751MOL0     H99076   0.612   4.469   6.462  1.0244 -0.4642  2.2193
  751MOL0     H99077   0.319   4.458   6.407 -1.5831  1.2179  0.0666
  751MOL0     H99078   0.451   4.461   6.294  1.2456  0.2858 -0.4843
  751MOL0     H99079   0.543   4.683   6.393 -0.0922  0.6910  0.3999
  751MOL0     H99080   0.384   4.720   6.461 -0.0528  1.9930 -1.1350
  751MOL0     H99081   0.421   4.803   6.225 -2.4427  0.6321 -1.9018
  751MOL0     H99082   0.416   4.645   6.174 -0.7403 -0.4630  0.1349
  751MOL0     H99083   0.179   4.730   6.338  3.3432  0.9027  2.0614
  751MOL0     H99084   0.200   4.595   6.221  0.0699 -0.3473 -1.4923
  751MOL0     H99085  -0.060   4.719   6.139 -2.8613  3.3047 -0.3898
  751MOL0     H99086  -0.033   4.902   5.787 -2.1515 -0.1646 -0.2001
  751MOL0     H99087  -0.152   4.906   5.906  2.1646  1.4123  2.1723
  751MOL0     H99088  -0.212   4.714   5.786  0.9660  1.4275 -1.5065
  751MOL0     H99089  -0.155   4.627   5.919  1.5136 -3.6120 -2.1793
  751MOL0     H99090  -0.057   4.599   5.654 -2.5057  1.6371  0.5254
  751MOL0     H99091   0.084   4.652   5.761  0.5693 -0.4206  1.1093
  751MOL0     H99092  -0.097   4.417   5.840  0.1394  0.1514  0.3751
  751MOL0     H99093   0.067   4.464   5.888  0.7466  1.8827  0.2203
  751MOL0     H99094   0.076   4.327   5.446 -0.4386 -0.1934 -1.1677
  751MOL0     H99095   0.043   4.092   5.351  0.6904  1.4317 -1.0021
  751MOL0     H99096   0.017   3.600   5.729  1.5622  0.0477 -1.4566
  751MOL0     H99097  -0.030   3.347   5.681 -0.1435  0.6461  1.5054
  751MOL0     H99098  -0.252   3.229   5.299 -0.6968 -0.4055  1.0785
  751MOL0     H99099  -0.330   3.177   5.450  0.5024  0.6724  2.2892
  751MOL0     H99100  -0.257   3.005   5.291 -0.4246  0.3855 -0.5844
  751MOL0     H99101  -0.197   3.006   5.459 -2.7376 -0.0324 -1.1287
  751MOL0     H99102  -0.009   2.945   5.315  1.7434  0.4230  0.7003
  751MOL0     H99103   0.016   3.115   5.366  0.7055 -2.4400  1.3875
  751MOL0     H99104  -0.103   3.045   5.094  0.2009 -0.0472  0.7341
  751MOL0     H99105  -0.069   3.202   5.154  3.9008 -0.2659  0.9876
  751MOL0     H99106   0.130   2.999   5.103 -0.9896  0.3544 -0.8438
  751MOL0     H99107   0.176   3.150   5.186  1.6592  0.1613 -0.7720
  751MOL0     H99108   0.002   3.243   4.973  1.0109  0.7856  1.8513
  751MOL0     H99109   0.045   3.092   4.905  0.7350 -3.2672  1.8596
  751MOL0     H99110   0.221   3.349   4.929  4.1420  0.3700 -1.4509
  751MOL0     H99111   0.288   3.193   4.957 -0.4978 -0.0610  0.2813
  751MOL0     H99112   0.213   3.125   4.727  1.6798  0.7510  0.6653
  751MOL0     H99113   0.300   3.273   4.704  2.5568 -3.5944  1.0276
  751MOL0     H99114  -0.246   3.460   5.333  0.6724  1.6942  0.5019
  751MOL0     H99115  -0.190   3.689   5.373  2.3164 -1.1970 -3.0905
  751MOL0     H99116  -0.066   3.955   5.734  1.2770 -1.9411 -1.0995
  751MOL0     H99117  -0.031   4.195   5.833 -0.6825  1.9671 -0.5180
  751MOL0     H99118   0.283   4.215   6.935  1.9122  0.1762 -2.2721
  751MOL0     H99119   0.178   4.281   7.176 -0.5563 -2.2080  1.2913
  751MOL0     H99120   0.228   4.227   7.605  0.3642  0.7214 -1.1003
  751MOL0     H99121   0.105   4.267   7.819  1.9664 -0.7337 -1.0529
  751MOL0     H99122   0.008   4.668   7.939 -3.5575 -1.4648  0.7277
  751MOL0     H99123   0.126   4.676   8.065  2.2678 -3.4804  0.6611
  751MOL0     H99124  -0.134   4.646   8.093  0.5086  1.0100  0.1713
  751MOL0     H99125  -0.103   4.472   8.085 -2.6875  1.1893 -0.3036
  751MOL0     H99126   0.046   4.648   8.263 -1.6843  1.3924  0.6342
  751MOL0     H99127   0.010   4.476   8.290  0.2556  0.6112  3.6691
  751MOL0     H99128  -0.129   4.632   8.443 -0.8193 -0.2005  1.0465
  751MOL0     H99129  -0.210   4.691   8.299  2.0540  1.2575  0.2791
  751MOL0     H99130  -0.369   4.305   8.416  0.5026 -2.0894 -2.6880
  751MOL0     H99131   0.276   4.663   7.830  2.0581 -1.1879  0.5127
  751MOL0     H99132   0.368   4.620   7.598  0.5111  1.4535  2.1205
  752MOL0     O99133  10.508   6.043   9.574 -0.6290  0.2443 -0.4310
  752MOL0     C99134  10.575   5.973   9.658 -0.0388  0.9667 -0.0857
  752MOL0     O99135  10.522   5.888   9.749 -0.4290 -0.6025  0.0891
  752MOL0     C99136  10.393   5.867   9.774 -0.1811  0.0720 -0.6308
  752MOL0     C99137  10.281   5.940   9.736  0.6730 -0.8119 -0.1810
  752MOL0     C99138  10.155   5.907   9.776  0.4433  0.0371  0.8893
  752MOL0     C99139  10.127   5.790   9.857 -0.2908 -0.4185 -1.3481
  752MOL0     O99140   9.990   5.761   9.899 -0.9519  1.1803 -0.0699
  752MOL0     C99141   9.934   5.829  10.016  0.5955  0.3961 -0.4757
  752MOL0     C99142   9.944   5.738  10.144  0.1406 -0.0527  0.0143
  752MOL0     C99143   9.850   5.786  10.262 -0.2742 -0.4550  0.2514
  752MOL0     C99144   9.866   5.685  10.377  0.1668 -0.0677 -0.1174
  752MOL0     C99145   9.783   5.734  10.500  0.5447  0.8209  0.7119
  752MOL0     C99146   9.628   5.770  10.476 -0.4256 -0.4302  0.2379
  752MOL0     C99147   9.532   5.746  10.603 -0.6877  1.0295  0.1179
  752MOL0     C99148   9.531   5.610  10.682  0.5878 -0.1231 -0.3123
  752MOL0     N99149   9.468   5.632  10.809  0.0483  0.3802 -0.9997
  752MOL0     C99150   9.521   5.593  10.936  0.1013 -1.0976 -0.2451
  752MOL0     C99151   9.418   5.626  11.021  0.0357  0.5028 -0.2312
  752MOL0     C99152   9.380   5.580  11.157  0.7041  1.1622  0.6011
  752MOL0     C99153   9.501   5.573  11.250 -0.1861  0.3873  1.4983
  752MOL0     C99154   9.456   5.553  11.396  0.2683  0.7470  0.1344
  752MOL0     C99155   9.575   5.526  11.487  0.2542 -0.8295  0.8895
  752MOL0     O99156   9.642   5.405  11.454 -0.0125 -0.6861 -0.3603
  752MOL0     C99157   9.763   5.371  11.507  0.0821 -0.1124  0.4779
  752MOL0     C99158   9.815   5.253  11.450 -0.0408  0.2461 -0.6142
  752MOL0     C99159   9.940   5.205  11.481  0.0109  0.1407  0.3071
  752MOL0     C99160  10.006   5.256  11.594  0.5476  0.2739  0.1498
  752MOL0     C99161  10.140   5.212  11.630 -0.2466 -0.3076  0.2133
  752MOL0     O99162  10.181   5.252  11.751 -0.6541  0.1371 -0.1071
  752MOL0     C99163  10.310   5.230  11.793  0.6677 -0.6530  0.1437
  752MOL0     C99164  10.392   5.124  11.766 -0.1524 -0.0284  0.0212
  752MOL0     C99165  10.528   5.124  11.807 -0.1480  0.4999 -0.2820
  752MOL0     C99166  10.583   5.241  11.876  0.1221 -0.2812 -0.1650
  752MOL0     O99167  10.699   5.257  11.939 -0.0560  0.4771  0.3776
  752MOL0     C99168  10.766   5.141  11.995  0.3334  0.4630 -0.8592
  752MOL0     C99169  10.822   5.176  12.134 -0.6571  0.6592 -0.8375
  752MOL0     C99170  10.720   5.250  12.228 -0.3402 -0.0316 -0.1488
  752MOL0     C99171  10.578   5.184  12.235  0.9468 -1.0799  1.0291
  752MOL0     C99172  10.463   5.264  12.302 -0.2866  0.2423  1.5434
  752MOL0     C99173  10.489   5.288  12.450 -0.6081  0.5446 -0.6169
  752MOL0     C99174  10.364   5.307  12.541 -0.0053 -0.2034  0.2386
  752MOL0     C99175  10.350   5.430  12.635  0.7112  0.0328  0.6598
  752MOL0    Cl99176  10.459   5.400  12.765 -0.4396 -0.5614 -0.8898
  752MOL0     C99177  10.493   5.345  11.913 -0.2327 -0.3548  0.4298
  752MOL0     C99178  10.364   5.336  11.867 -0.0403  0.1023 -0.2151
  752MOL0     O99179  10.206   5.143  11.555  0.1632 -0.1810  0.3552
  752MOL0     C99180   9.947   5.368  11.662 -0.3975  0.1821  0.2280
  752MOL0     C99181   9.831   5.428  11.613  0.0402  0.1520 -0.3197
  752MOL0     N99182   9.324   5.695  10.954 -0.2261 -1.0490  0.1795
  752MOL0     N99183   9.350   5.688  10.826 -0.4031 -0.4857 -0.0254
  752MOL0     C99184  10.237   5.719   9.898  0.1829  0.4433 -0.7138
  752MOL0     C99185  10.369   5.751   9.851  0.7547 -0.4419 -0.0462
  752MOL0     C99186  10.723   5.995   9.678  0.9569  0.9104  0.0780
  752MOL0     C99187  10.793   5.925   9.773  0.5431  0.1483 -0.2526
  752MOL0     C99188  10.933   5.910   9.772 -0.5832  0.3591  0.1031
  752MOL0     C99189  11.005   6.000   9.682  0.2456 -0.4713 -0.0654
  752MOL0     O99190  11.141   6.002   9.665  0.1462 -0.6299 -0.5737
  752MOL0     C99191  11.216   5.895   9.706 -0.5820  0.7199  1.1964
  752MOL0     C99192  11.362   5.912   9.656  0.5959  1.2907 -0.6977
  752MOL0     C99193  11.372   5.921   9.508  0.3399 -0.1943  0.4058
  752MOL0     C99194  11.516   5.918   9.463  0.1505  0.9054  0.4676
  752MOL0     C99195  11.572   5.786   9.463 -0.1135 -0.8294 -0.8447
  752MOL0     C99196  11.609   5.669   9.472 -0.7342 -0.1743 -0.2510
  752MOL0     C99197  10.936   6.068   9.576  0.6500  0.6140  0.7583
  752MOL0     C99198  10.791   6.059   9.576  0.0800  0.2940  0.0504
  752MOL0     H99199  10.300   6.025   9.671 -0.9109  1.8669  2.6459
  752MOL0     H99200  10.071   5.971   9.752  2.4062  2.3486 -0.1750
  752MOL0     H99201   9.830   5.855   9.995 -0.2875 -2.5865 -0.2015
  752MOL0     H99202   9.990   5.922  10.030  1.8713 -0.1923 -1.3968
  752MOL0     H99203  10.049   5.739  10.176 -0.0058 -2.3693  0.7430
  752MOL0     H99204   9.930   5.635  10.111  0.7932  0.3671 -1.6725
  752MOL0     H99205   9.749   5.800  10.221 -0.2421  1.3912  0.7173
  752MOL0     H99206   9.878   5.888  10.289  1.6517 -0.3912 -1.7512
  752MOL0     H99207   9.837   5.586  10.340  2.4675 -0.0751 -2.1165
  752MOL0     H99208   9.972   5.682  10.402 -0.1462  3.5873  2.4225
  752MOL0     H99209   9.840   5.820  10.535  1.6275  1.2209 -1.7703
  752MOL0     H99210   9.793   5.641  10.556  1.1122 -0.0105 -0.7047
  752MOL0     H99211   9.573   5.725  10.392 -2.7133  0.6868  1.0461
  752MOL0     H99212   9.636   5.879  10.464  0.8891 -0.5258  0.1451
  752MOL0     H99213   9.568   5.819  10.675  1.0836  1.2047 -0.8919
  752MOL0     H99214   9.427   5.760  10.576 -0.9682 -1.4968 -0.3431
  752MOL0     H99215   9.631   5.567  10.697  1.9834  3.5293  2.0154
  752MOL0     H99216   9.463   5.545  10.625 -0.3058  1.9092 -1.6726
  752MOL0     H99217   9.604   5.529  10.963 -0.6691 -2.2074 -0.4582
  752MOL0     H99218   9.328   5.484  11.152 -0.2915  1.7423 -0.9640
  752MOL0     H99219   9.313   5.654  11.202 -1.9832 -1.4602  1.1956
  752MOL0     H99220   9.565   5.660  11.231  3.0087 -2.1231 -0.1406
  752MOL0     H99221   9.560   5.487  11.220 -2.8101 -0.8897 -0.4277
  752MOL0     H99222   9.383   5.624  11.435 -1.0237  0.1192 -1.0299
  752MOL0     H99223   9.405   5.456  11.392  1.1691  0.2987 -2.7995
  752MOL0     H99224   9.537   5.524  11.590 -2.5139  0.1734 -0.0261
  752MOL0     H99225   9.646   5.608  11.471 -1.0140  0.2611  0.7611
  752MOL0     H99226   9.751   5.195  11.384  0.2691  1.0666 -1.6728
  752MOL0     H99227   9.988   5.121  11.433 -1.0630 -0.8544  0.9189
  752MOL0     H99228  10.362   5.043  11.699  1.9724 -0.0757 -0.9741
  752MOL0     H99229  10.590   5.038  11.782 -0.7204 -0.6541  1.9842
  752MOL0     H99230  10.852   5.123  11.929  1.6315  0.7648  0.6787
  752MOL0     H99231  10.694   5.060  12.007  0.1623  0.8245  0.8052
  752MOL0     H99232  10.901   5.250  12.116 -1.4073  1.8420  0.5702
  752MOL0     H99233  10.850   5.086  12.189  1.9515  0.8563 -1.6574
  752MOL0     H99234  10.702   5.351  12.190 -0.4958 -0.1487 -0.3824
  752MOL0     H99235  10.763   5.264  12.328 -3.3027 -1.3448  1.4306
  752MOL0     H99236  10.543   5.164  12.133  1.9692 -0.5945  0.5708
  752MOL0     H99237  10.589   5.090  12.290  2.3504 -2.2356 -1.0872
  752MOL0     H99238  10.372   5.204  12.287  0.5153 -0.3894 -1.4835
  752MOL0     H99239  10.443   5.353  12.241  0.7109 -1.0357 -0.7913
  752MOL0     H99240  10.561   5.369  12.444  2.5266 -2.0857 -1.2785
  752MOL0     H99241  10.551   5.206  12.489  0.1438  1.2494 -0.3212
  752MOL0     H99242  10.293   5.327  12.461 -0.8511  1.6146  1.3851
  752MOL0     H99243  10.343   5.215  12.597  0.4639  0.5059  1.6101
  752MOL0     H99244  10.247   5.447  12.665  0.0196 -0.5295 -1.2709
  752MOL0     H99245  10.389   5.517  12.581  0.5778  1.7108  3.1145
  752MOL0     H99246  10.539   5.412  11.984 -1.3570 -0.3872  1.2007
  752MOL0     H99247  10.301   5.423  11.884 -0.5159 -0.4407  0.9449
  752MOL0     H99248   9.999   5.402  11.751 -1.7248  0.1199  1.0653
  752MOL0     H99249   9.785   5.512  11.664 -2.3557 -1.2337 -0.0165
  752MOL0     H99250  10.224   5.634   9.963  0.6969  0.5385 -0.4814
  752MOL0     H99251  10.458   5.706   9.894  1.0195 -1.3225 -1.4867
  752MOL0     H99252  10.749   5.873   9.858 -1.5586  1.1214 -0.6846
  752MOL0     H99253  10.982   5.852   9.849 -1.3991 -1.1023 -0.4514
  752MOL0     H99254  11.167   5.809   9.659 -1.4031  2.1605 -0.6902
  752MOL0     H99255  11.211   5.877   9.814 -0.3026  1.1259  1.2791
  752MOL0     H99256  11.405   5.995   9.713  2.3638 -0.2537  0.3504
  752MOL0     H99257  11.423   5.825   9.682 -0.5703  0.3736 -0.9721
  752MOL0     H99258  11.347   6.025   9.482 -2.2851 -0.7924  0.2927
  752MOL0     H99259  11.311   5.857   9.444  1.7106 -2.3582  1.1450
  752MOL0     H99260  11.520   5.960   9.362  2.3530 -2.4591 -1.0461
  752MOL0     H99261  11.580   5.979   9.528  1.2518  3.4024 -2.7088
  752MOL0     H99262  11.652   5.571   9.476  2.0072  0.8390 -2.2775
  752MOL0     H99263  10.994   6.112   9.496  0.5696 -2.0524 -0.8800
  752MOL0     H99264  10.727   6.103   9.500 -0.0774  1.4294  0.8130
  753MOL0     O99265   6.651   5.161   8.070  0.2303 -0.1723  0.3839
  753MOL0     C99266   6.646   5.115   7.956  0.4638  0.6884  0.5751
  753MOL0     O99267   6.736   5.129   7.859 -0.8868  0.6304 -0.5607
  753MOL0     C99268   6.856   5.174   7.907 -0.4792  0.2413 -0.6450
  753MOL0     C99269   6.886   5.314   7.901  0.3284 -0.0760 -0.6201
  753MOL0     C99270   7.009   5.362   7.938  0.0405 -0.6613  0.2257
  753MOL0     C99271   7.105   5.277   7.992  0.2517 -0.3571 -0.1036
  753MOL0     O99272   7.208   5.328   8.066 -0.1031 -0.4013  0.2936
  753MOL0     C99273   7.237   5.278   8.193 -0.0749 -0.1859 -0.0537
  753MOL0     C99274   7.322   5.395   8.254  0.7772  0.3945  0.4265
  753MOL0     C99275   7.232   5.520   8.278 -0.0174  0.4540  1.0343
  753MOL0     C99276   7.311   5.636   8.336 -1.0918 -0.9452 -0.2180
  753MOL0     C99277   7.297   5.622   8.498 -0.5510 -0.0788  0.6374
  753MOL0     C99278   7.306   5.748   8.582  0.1992  0.5674  0.1161
  753MOL0     C99279   7.435   5.823   8.532  0.7562 -0.0647  0.3501
  753MOL0     C99280   7.567   5.742   8.558  0.1762 -0.6941  0.9952
  753MOL0     N99281   7.602   5.742   8.695  0.3253  0.5857 -1.7022
  753MOL0     C99282   7.546   5.650   8.792  0.3264 -0.6293  0.4806
  753MOL0     C99283   7.606   5.685   8.909  0.0454  0.6158 -0.2582
  753MOL0     C99284   7.569   5.632   9.041 -1.5488 -0.4936 -0.2706
  753MOL0     C99285   7.443   5.553   9.055  1.1596 -0.2169  0.3338
  753MOL0     C99286   7.466   5.403   9.070  0.7859 -0.3186 -0.7696
  753MOL0     C99287   7.525   5.348   8.941  0.4806 -0.2558  0.4664
  753MOL0     O99288   7.417   5.342   8.842 -0.5539 -0.0683  0.1944
  753MOL0     C99289   7.433   5.262   8.734  0.9693 -0.2257  1.2450
  753MOL0     C99290   7.544   5.204   8.686 -0.4914 -0.8768  0.1278
  753MOL0     C99291   7.547   5.117   8.579 -0.4022  0.0751 -0.2573
  753MOL0     C99292   7.425   5.082   8.518  0.6205 -0.6543  0.6373
  753MOL0     C99293   7.426   4.980   8.410 -0.3010 -0.0550 -0.9228
  753MOL0     O99294   7.310   4.961   8.355 -0.1765  0.1024 -0.4996
  753MOL0     C99295   7.302   4.870   8.252  0.6063 -0.0631  0.2219
  753MOL0     C99296   7.348   4.905   8.124 -0.5024  0.2554  0.1397
  753MOL0     C99297   7.322   4.821   8.005 -0.9724 -0.1309  0.1997
  753MOL0     C99298   7.259   4.692   8.026 -0.5684  0.9461  0.5374
  753MOL0     O99299   7.237   4.594   7.932 -0.4484 -0.9867 -0.0182
  753MOL0     C99300   7.193   4.646   7.803  0.6386 -0.7383  0.3203
  753MOL0     C99301   7.134   4.537   7.717  0.7219 -0.3830 -0.3372
  753MOL0     C99302   7.220   4.410   7.704 -1.0193  0.1994 -0.7475
  753MOL0     C99303   7.157   4.300   7.623  0.5695  0.0140 -0.1346
  753MOL0     C99304   7.134   4.182   7.700  0.3948 -0.3510  0.2254
  753MOL0     C99305   7.053   4.185   7.817 -0.5907 -0.0385 -0.5182
  753MOL0     C99306   7.035   4.048   7.879 -0.5763 -0.5409 -0.1396
  753MOL0     C99307   6.962   4.065   8.014 -0.7137  0.5511  0.0697
  753MOL0    Cl99308   6.795   4.122   7.978 -0.0162 -0.1072 -0.3949
  753MOL0     C99309   7.221   4.666   8.157 -0.0771 -0.8860 -0.1029
  753MOL0     C99310   7.225   4.751   8.273 -0.1704  0.2465  0.1176
  753MOL0     O99311   7.539   4.928   8.380  0.2356  0.0890  0.3061
  753MOL0     C99312   7.306   5.145   8.554 -0.7567 -0.3754 -0.5495
  753MOL0     C99313   7.313   5.239   8.657 -0.5482 -0.0168  0.0645
  753MOL0     N99314   7.700   5.782   8.891  1.0441 -0.8639  0.3858
  753MOL0     N99315   7.702   5.808   8.761  0.4561 -0.4749 -0.7876
  753MOL0     C99316   7.074   5.138   7.999 -0.1624 -0.1143 -0.8758
  753MOL0     C99317   6.952   5.082   7.949 -0.2802  1.2433  0.2271
  753MOL0     C99318   6.534   5.018   7.929  0.3135 -0.2506 -0.2731
  753MOL0     C99319   6.484   4.994   7.793 -0.1586 -0.5272 -0.6057
  753MOL0     C99320   6.383   4.906   7.763  0.8060 -0.5359  0.4388
  753MOL0     C99321   6.320   4.835   7.870 -0.3491  0.2569  0.3303
  753MOL0     O99322   6.221   4.741   7.861  0.3043 -0.1809 -0.6782
  753MOL0     C99323   6.100   4.791   7.794  0.6944 -0.1303  0.0736
  753MOL0     C99324   5.994   4.684   7.755  0.0833  0.3055  0.3061
  753MOL0     C99325   5.907   4.627   7.869  0.1750  0.0686 -0.0950
  753MOL0     C99326   5.835   4.505   7.812 -0.1399  0.6332  0.0176
  753MOL0     C99327   5.761   4.454   7.924  0.4591 -0.5966 -1.3062
  753MOL0     C99328   5.706   4.396   8.014  0.1558  0.2585 -0.0254
  753MOL0     C99329   6.360   4.855   7.994  0.0725 -0.9648 -0.3967
  753MOL0     C99330   6.464   4.946   8.028  0.0991  0.9044 -1.2437
  753MOL0     H99331   6.805   5.383   7.881 -1.0857  1.1582  6.6117
  753MOL0     H99332   7.027   5.467   7.916 -0.2188 -0.7893 -0.6260
  753MOL0     H99333   7.305   5.192   8.192 -0.3058 -0.4423  1.7109
  753MOL0     H99334   7.153   5.248   8.257  1.3689  0.7886  2.4323
  753MOL0     H99335   7.410   5.411   8.191  1.5988  2.1685  1.9104
  753MOL0     H99336   7.369   5.369   8.349 -0.1946  0.7567  1.0284
  753MOL0     H99337   7.148   5.501   8.345  0.3710 -2.3641  0.8746
  753MOL0     H99338   7.187   5.555   8.184 -0.5278 -4.3045 -0.8156
  753MOL0     H99339   7.413   5.628   8.297 -1.8091 -0.4083 -2.3371
  753MOL0     H99340   7.266   5.733   8.313  2.1415  0.9226  0.6723
  753MOL0     H99341   7.373   5.552   8.534 -0.4429 -0.4691 -0.3202
  753MOL0     H99342   7.204   5.575   8.531 -2.2997  1.9314 -1.1614
  753MOL0     H99343   7.313   5.714   8.685  2.6174  0.2703 -0.0960
  753MOL0     H99344   7.217   5.810   8.569  0.1618  0.5911  0.4757
  753MOL0     H99345   7.425   5.859   8.429 -1.8379 -1.8665 -0.1207
  753MOL0     H99346   7.422   5.916   8.589 -0.0552 -0.0120  0.0940
  753MOL0     H99347   7.641   5.799   8.501 -0.9122 -0.2206  0.0108
  753MOL0     H99348   7.570   5.647   8.504 -1.8865  0.8425 -2.1582
  753MOL0     H99349   7.482   5.567   8.764 -0.7417 -0.8523  3.2594
  753MOL0     H99350   7.569   5.721   9.105  1.8045  0.5716 -1.5379
  753MOL0     H99351   7.656   5.571   9.068 -0.9820  0.6944  0.6658
  753MOL0     H99352   7.375   5.569   8.970 -0.1904 -0.1133  1.3867
  753MOL0     H99353   7.380   5.589   9.138 -1.1772  2.2178 -2.2503
  753MOL0     H99354   7.542   5.394   9.149  0.2958 -0.0306 -0.2553
  753MOL0     H99355   7.381   5.342   9.101 -1.1847  2.8183  0.4783
  753MOL0     H99356   7.549   5.245   8.968  0.4597  0.1550  2.1206
  753MOL0     H99357   7.613   5.400   8.900 -1.4098  1.8150 -1.2322
  753MOL0     H99358   7.647   5.228   8.711  0.3048 -2.1638 -1.6561
  753MOL0     H99359   7.645   5.085   8.546 -0.5739 -1.0726  0.2698
  753MOL0     H99360   7.397   5.001   8.110 -0.5119  1.2112  5.1287
  753MOL0     H99361   7.368   4.855   7.912  1.0461  1.1284  1.5752
  753MOL0     H99362   7.277   4.694   7.752 -1.2919  1.2660 -1.1432
  753MOL0     H99363   7.124   4.730   7.818  2.3186  1.0135 -1.0947
  753MOL0     H99364   7.104   4.580   7.621 -2.2640 -0.0255  0.6638
  753MOL0     H99365   7.039   4.500   7.756  0.4642  0.1187 -0.4812
  753MOL0     H99366   7.266   4.373   7.796 -0.0090  0.7807 -1.0071
  753MOL0     H99367   7.311   4.437   7.650  1.0921 -1.2669  1.8047
  753MOL0     H99368   7.069   4.325   7.563 -0.3824  0.3326  1.3361
  753MOL0     H99369   7.226   4.270   7.544 -1.2516 -1.9044 -1.0812
  753MOL0     H99370   7.227   4.129   7.724  0.7684 -0.6713 -1.7547
  753MOL0     H99371   7.076   4.114   7.637 -1.4445  1.7205 -0.4277
  753MOL0     H99372   6.957   4.230   7.789 -1.0373 -0.8307 -0.2846
  753MOL0     H99373   7.097   4.241   7.901 -0.5050  1.6721 -1.6550
  753MOL0     H99374   6.971   3.985   7.817 -1.4722 -1.4653  1.6570
  753MOL0     H99375   7.131   3.996   7.882  0.3713  1.1092  3.5357
  753MOL0     H99376   7.017   4.128   8.083 -0.8101  1.9654 -1.1006
  753MOL0     H99377   6.965   3.972   8.071  1.2691  0.0295 -0.7927
  753MOL0     H99378   7.174   4.572   8.183 -2.0259  0.0858  0.0621
  753MOL0     H99379   7.178   4.717   8.365 -0.4273  0.8781  0.2239
  753MOL0     H99380   7.219   5.124   8.493 -0.7592 -1.9681 -0.0409
  753MOL0     H99381   7.222   5.290   8.686 -0.5474  2.1000 -3.1657
  753MOL0     H99382   7.139   5.070   8.054  3.9402  1.5163 -3.2971
  753MOL0     H99383   6.924   4.977   7.950  0.8665  0.9199  0.2264
  753MOL0     H99384   6.530   5.039   7.705 -1.0691 -0.0212 -0.8437
  753MOL0     H99385   6.361   4.884   7.659  1.8552  0.3068  0.0255
  753MOL0     H99386   6.124   4.847   7.703  0.0156 -2.9698 -1.9952
  753MOL0     H99387   6.054   4.859   7.867  1.8412  1.2252 -0.4425
  753MOL0     H99388   5.934   4.745   7.687  1.0478  1.5418  0.5113
  753MOL0     H99389   6.044   4.599   7.708  1.4911  2.3667 -2.1728
  753MOL0     H99390   5.846   4.710   7.906 -0.6283 -0.7928  0.5607
  753MOL0     H99391   5.974   4.600   7.951  1.1577 -1.0621 -1.2151
  753MOL0     H99392   5.760   4.514   7.734 -2.0715 -1.8439  1.4337
  753MOL0     H99393   5.905   4.426   7.783 -1.6779 -0.9680  0.4896
  753MOL0     H99394   5.638   4.355   8.086  0.2355  0.4546  0.1611
  753MOL0     H99395   6.303   4.808   8.073  1.9352 -1.2171  0.8462
  753MOL0     H99396   6.491   4.954   8.133 -1.5198 -1.0197 -0.6188
  754MOL0     O99397   0.710   5.112   5.181 -0.0571  0.0458  0.1778
  754MOL0     C99398   0.625   5.167   5.252  0.5349  0.1338  0.3553
  754MOL0     O99399   0.606   5.137   5.381  0.3143 -0.2404  0.0263
  754MOL0     C99400   0.679   5.036   5.436 -0.0300  0.0111  0.4494
  754MOL0     C99401   0.662   4.901   5.397 -0.1463  0.5953 -0.2600
  754MOL0     C99402   0.708   4.794   5.480  1.3042 -0.2731  0.5138
  754MOL0     C99403   0.797   4.819   5.575  0.4225  0.2913  0.3066
  754MOL0     O99404   0.863   4.720   5.646 -0.9917  0.1720  0.0842
  754MOL0     C99405   0.786   4.617   5.713 -0.1809  0.3234 -0.2363
  754MOL0     C99406   0.880   4.522   5.781 -0.1121  0.3798 -0.3442
  754MOL0     C99407   0.798   4.409   5.852  0.0973 -0.2310 -0.3322
  754MOL0     C99408   0.889   4.299   5.903  0.9210 -0.5467 -0.0275
  754MOL0     C99409   0.958   4.344   6.026  0.5229  0.1390 -0.2510
  754MOL0     C99410   1.043   4.230   6.093  0.0052  0.1584 -0.8033
  754MOL0     C99411   1.149   4.151   6.004  0.0935 -0.9075  0.0956
  754MOL0     C99412   1.225   4.045   6.076 -0.2676  0.5295 -0.9457
  754MOL0     N99413   1.154   3.925   6.121 -0.3438  0.0483 -0.5098
  754MOL0     C99414   1.146   3.862   6.241  0.3206  0.1485  0.9904
  754MOL0     C99415   1.055   3.764   6.236  0.1833 -0.5876 -0.3724
  754MOL0     C99416   1.016   3.659   6.334  0.4046 -0.1325  0.9900
  754MOL0     C99417   0.871   3.662   6.388  0.5396  0.0014 -0.0275
  754MOL0     C99418   0.842   3.544   6.483 -0.3104  0.0563 -0.2393
  754MOL0     C99419   0.727   3.558   6.567  0.6024  0.2996 -0.3605
  754MOL0     O99420   0.735   3.678   6.631  0.0994 -0.2077 -0.4478
  754MOL0     C99421   0.669   3.694   6.752  0.7978  0.6191 -0.8360
  754MOL0     C99422   0.551   3.617   6.794 -0.4599 -0.0207 -0.0868
  754MOL0     C99423   0.509   3.638   6.925  0.4200 -0.3781 -0.8340
  754MOL0     C99424   0.562   3.733   7.015  0.0934  0.3533  0.5943
  754MOL0     C99425   0.520   3.753   7.149  0.1717 -0.6453 -0.1146
  754MOL0     O99426   0.583   3.846   7.241  0.6779  0.6299 -0.5644
  754MOL0     C99427   0.529   3.861   7.361  0.0751  0.0745  0.0854
  754MOL0     C99428   0.398   3.930   7.373 -1.1306 -0.7219  0.9467
  754MOL0     C99429   0.352   3.966   7.498  0.4366  0.2477 -0.1892
  754MOL0     C99430   0.416   3.920   7.612 -0.6911  0.0893 -0.1109
  754MOL0     O99431   0.356   3.956   7.724  0.0133  0.0810 -0.0473
  754MOL0     C99432   0.408   3.954   7.858 -0.5534 -0.2044  0.8702
  754MOL0     C99433   0.302   3.890   7.948 -0.5753 -0.5491 -0.0595
  754MOL0     C99434   0.176   3.972   7.950 -0.6082  0.3814  0.9987
  754MOL0     C99435   0.070   3.898   8.036  1.0564 -0.2858 -0.3298
  754MOL0     C99436  -0.060   3.989   8.018  0.2810 -0.0845 -0.9463
  754MOL0     C99437  -0.136   3.965   7.882 -0.1475  0.1565 -0.7142
  754MOL0     C99438  -0.195   4.099   7.841  1.5463  0.2981  0.3172
  754MOL0     C99439  -0.322   4.105   7.745 -0.5353 -0.9330  0.1262
  754MOL0    Cl99440  -0.379   4.278   7.745 -0.2609 -0.8606  0.1230
  754MOL0     C99441   0.540   3.854   7.609  0.2479 -0.1713  0.4431
  754MOL0     C99442   0.595   3.821   7.478  0.3338 -0.1048  0.3952
  754MOL0     O99443   0.428   3.683   7.182 -0.5283 -0.6638 -0.1163
  754MOL0     C99444   0.677   3.804   6.966 -0.2310 -1.5038 -0.6167
  754MOL0     C99445   0.729   3.788   6.839 -1.3304  0.7476 -0.7214
  754MOL0     N99446   1.010   3.764   6.109  0.4944 -0.2940  0.2671
  754MOL0     N99447   1.072   3.853   6.038 -1.0129  0.1275 -0.3686
  754MOL0     C99448   0.838   4.954   5.599 -0.1274 -0.3040 -0.8562
  754MOL0     C99449   0.777   5.066   5.532  0.1127  0.2808  0.5165
  754MOL0     C99450   0.526   5.259   5.186  0.1029  0.3449  1.2177
  754MOL0     C99451   0.433   5.316   5.262  0.0113 -0.4362  0.1254
  754MOL0     C99452   0.345   5.415   5.212 -0.0839 -0.5543  0.8434
  754MOL0     C99453   0.351   5.458   5.081  0.7183  0.0213  0.1551
  754MOL0     O99454   0.265   5.560   5.038 -0.0889  0.3460 -0.2324
  754MOL0     C99455   0.123   5.516   5.039 -0.4446  0.3661  0.0753
  754MOL0     C99456   0.038   5.626   5.104  0.2500  0.2678 -0.0902
  754MOL0     C99457   0.047   5.758   5.040 -0.5903  1.0713  0.8328
  754MOL0     C99458  -0.014   5.873   5.127 -0.4221  0.9129  0.2493
  754MOL0     C99459  -0.040   5.984   5.037  0.4995 -1.2772 -1.4311
  754MOL0     C99460  -0.036   6.089   4.979  0.5998 -1.1210  0.6015
  754MOL0     C99461   0.461   5.408   5.001  1.1523  0.2429  0.2854
  754MOL0     C99462   0.537   5.305   5.051  1.1112 -0.0752 -0.2767
  754MOL0     H99463   0.606   4.873   5.308 -0.3418 -2.4348  0.7104
  754MOL0     H99464   0.663   4.696   5.470  0.3123  0.1912  0.2783
  754MOL0     H99465   0.731   4.556   5.642  0.5774  1.6021 -1.9990
  754MOL0     H99466   0.723   4.656   5.794 -1.8305  0.1429 -1.3802
  754MOL0     H99467   0.938   4.587   5.848 -1.7073 -0.5531  2.0867
  754MOL0     H99468   0.948   4.481   5.706 -2.5964 -3.8085 -0.6138
  754MOL0     H99469   0.729   4.367   5.779 -0.5436  1.1525 -0.5542
  754MOL0     H99470   0.746   4.456   5.937  1.7469  0.9237  0.0852
  754MOL0     H99471   0.819   4.221   5.934 -3.1081  2.0044 -1.9551
  754MOL0     H99472   0.958   4.265   5.825  2.1144  1.8551 -0.1254
  754MOL0     H99473   0.880   4.380   6.093 -1.6605  2.7080 -3.8163
  754MOL0     H99474   1.030   4.425   6.012  0.4406  0.3580  0.5488
  754MOL0     H99475   0.972   4.150   6.118  0.1527  0.4946  0.7872
  754MOL0     H99476   1.082   4.255   6.192  3.6805 -2.0803 -1.5191
  754MOL0     H99477   1.103   4.113   5.912 -0.4436  1.0340 -0.4826
  754MOL0     H99478   1.217   4.230   5.972 -2.4407  2.1780  1.7563
  754MOL0     H99479   1.261   4.097   6.166  1.1207  0.1398 -1.2600
  754MOL0     H99480   1.315   4.017   6.020 -0.5568 -0.3712 -0.9696
  754MOL0     H99481   1.213   3.875   6.326  0.5944 -2.5454  1.2892
  754MOL0     H99482   1.082   3.654   6.422  1.8801  2.7471  0.1963
  754MOL0     H99483   1.043   3.568   6.281 -0.7883 -0.2857  0.6265
  754MOL0     H99484   0.796   3.653   6.309 -1.3119  3.6834  1.1175
  754MOL0     H99485   0.873   3.756   6.443  4.3329 -0.5245  1.0450
  754MOL0     H99486   0.828   3.454   6.422  0.7860  1.3876 -2.6087
  754MOL0     H99487   0.935   3.522   6.536 -1.2103 -0.8073  1.0312
  754MOL0     H99488   0.716   3.473   6.634 -2.2675  0.7489 -0.1471
  754MOL0     H99489   0.634   3.565   6.509 -0.7965  2.8411  1.9324
  754MOL0     H99490   0.512   3.536   6.734  1.2597 -0.8230 -0.1856
  754MOL0     H99491   0.420   3.578   6.946  0.4358 -0.1740 -0.1688
  754MOL0     H99492   0.359   3.981   7.285  0.9994  2.6293  1.7652
  754MOL0     H99493   0.255   4.014   7.505 -0.1227 -0.4238 -2.4711
  754MOL0     H99494   0.429   4.053   7.901 -3.6411 -0.6341  3.7980
  754MOL0     H99495   0.502   3.899   7.856 -2.0636 -2.9546 -1.3562
  754MOL0     H99496   0.346   3.875   8.047 -0.4813 -2.2329 -0.3260
  754MOL0     H99497   0.267   3.792   7.915 -1.1752 -0.6176  0.7647
  754MOL0     H99498   0.139   3.986   7.847 -0.3165  4.7595  1.3229
  754MOL0     H99499   0.185   4.070   7.996 -2.6683 -0.2793  2.9639
  754MOL0     H99500   0.055   3.794   8.006 -3.2795  0.9139 -3.2259
  754MOL0     H99501   0.111   3.900   8.138  1.6705 -2.9698 -0.4554
  754MOL0     H99502  -0.039   4.095   8.037  1.4779 -0.2503 -1.2562
  754MOL0     H99503  -0.133   3.952   8.090  2.4161 -0.4261  1.1504
  754MOL0     H99504  -0.199   3.877   7.890  1.5974 -0.9691  2.0665
  754MOL0     H99505  -0.065   3.945   7.801  0.1776  0.1170 -0.4240
  754MOL0     H99506  -0.231   4.148   7.932  0.6692 -0.5596  0.4452
  754MOL0     H99507  -0.131   4.177   7.800 -0.3978  1.9478  0.2807
  754MOL0     H99508  -0.408   4.044   7.776 -0.1179 -2.5924 -1.7813
  754MOL0     H99509  -0.289   4.067   7.648  1.8435 -1.2458  0.9926
  754MOL0     H99510   0.595   3.832   7.700  1.7744 -0.8439 -0.6192
  754MOL0     H99511   0.690   3.769   7.472 -0.3136 -1.3395  0.5458
  754MOL0     H99512   0.729   3.863   7.041  2.7626  0.1915 -3.7992
  754MOL0     H99513   0.821   3.834   6.805 -0.0536 -0.7437  0.5607
  754MOL0     H99514   0.917   4.977   5.669  1.0263  0.9092 -2.4880
  754MOL0     H99515   0.800   5.169   5.558  0.2140  1.1904 -2.6587
  754MOL0     H99516   0.420   5.278   5.363  2.4492 -1.6969  0.0333
  754MOL0     H99517   0.261   5.439   5.277 -0.0957  0.8783  0.3227
  754MOL0     H99518   0.110   5.424   5.096  2.7349  1.5485  3.1101
  754MOL0     H99519   0.086   5.507   4.936  2.2425 -0.8478 -0.8808
  754MOL0     H99520  -0.069   5.605   5.100  0.0584  0.4520 -7.0836
  754MOL0     H99521   0.081   5.633   5.204  0.0328  1.2563 -0.0617
  754MOL0     H99522  -0.002   5.753   4.943  0.9478 -3.0789  0.0629
  754MOL0     H99523   0.153   5.777   5.023 -0.5549  2.3495  2.2474
  754MOL0     H99524  -0.105   5.839   5.178 -0.7068  1.3801  0.0596
  754MOL0     H99525   0.062   5.908   5.196 -0.7243  1.9090  0.0856
  754MOL0     H99526  -0.039   6.188   4.937  0.2742 -1.4065 -0.0581
  754MOL0     H99527   0.467   5.449   4.901  2.3149  0.6406  0.4944
  754MOL0     H99528   0.610   5.257   4.986  1.6004  0.5708 -0.2125
  755MOL0     O99529   6.579   3.739   7.146 -0.0454 -0.0830 -0.0858
  755MOL0     C99530   6.486   3.782   7.078 -0.0296 -0.0455  0.6331
  755MOL0     O99531   6.479   3.773   6.937  0.5770 -0.5182 -1.0163
  755MOL0     C99532   6.543   3.676   6.864 -0.7435 -1.1202 -0.5610
  755MOL0     C99533   6.516   3.547   6.900 -0.8811  0.7834 -0.4281
  755MOL0     C99534   6.558   3.447   6.823 -0.4432 -0.6158  0.1790
  755MOL0     C99535   6.639   3.465   6.708 -0.4219  0.0702  0.5717
  755MOL0     O99536   6.687   3.354   6.652 -0.5193 -0.0712 -0.2780
  755MOL0     C99537   6.682   3.327   6.513 -0.5952 -0.2141 -0.1394
  755MOL0     C99538   6.568   3.245   6.457  0.2233  1.0967 -0.5587
  755MOL0     C99539   6.573   3.229   6.301 -0.2275 -0.2333 -0.6112
  755MOL0     C99540   6.528   3.091   6.251  0.0178 -0.3399 -0.2894
  755MOL0     C99541   6.524   3.097   6.096 -0.7471 -0.0119  0.4052
  755MOL0     C99542   6.461   2.980   6.025 -0.4923 -0.6927  0.3468
  755MOL0     C99543   6.324   2.935   6.084  0.2943  0.3965 -0.0860
  755MOL0     C99544   6.218   2.863   5.997 -0.1439  0.2583  0.2077
  755MOL0     N99545   6.183   2.945   5.884 -0.2272 -0.2361 -0.4902
  755MOL0     C99546   6.227   2.934   5.759 -0.3604  0.4975  0.2194
  755MOL0     C99547   6.215   3.056   5.697  0.8967 -0.1971 -0.2048
  755MOL0     C99548   6.267   3.087   5.566  0.1092  0.0615  0.0960
  755MOL0     C99549   6.183   3.206   5.507  0.0269  0.6676 -1.0913
  755MOL0     C99550   6.212   3.245   5.357 -0.0690  0.6591 -0.4733
  755MOL0     C99551   6.113   3.356   5.324 -0.6520 -0.1706  0.1321
  755MOL0     O99552   6.125   3.373   5.175 -0.3363 -0.2471 -0.7372
  755MOL0     C99553   6.035   3.309   5.094  0.7369 -0.1471 -0.3536
  755MOL0     C99554   5.931   3.216   5.135 -0.4669 -0.2487 -0.9154
  755MOL0     C99555   5.861   3.151   5.046  0.5745 -0.1810  1.2594
  755MOL0     C99556   5.878   3.180   4.903  0.3730  0.7055 -0.0707
  755MOL0     C99557   5.811   3.100   4.803 -0.3286 -0.3697 -0.1395
  755MOL0     O99558   5.730   3.006   4.859  1.1218 -0.0287 -0.5209
  755MOL0     C99559   5.637   2.943   4.788  0.7628  0.2669 -0.5625
  755MOL0     C99560   5.661   2.888   4.669 -0.1989 -0.2316  0.3686
  755MOL0     C99561   5.545   2.839   4.601 -0.6634 -0.0037  1.1623
  755MOL0     C99562   5.421   2.827   4.659  0.7447  0.4519 -0.6058
  755MOL0     O99563   5.322   2.781   4.572  0.0204  0.2336  0.2122
  755MOL0     C99564   5.274   2.874   4.480 -0.2807  0.3088 -0.6043
  755MOL0     C99565   5.163   2.978   4.519  0.1812  0.2371  0.0880
  755MOL0     C99566   5.019   2.917   4.539 -0.0762  0.3912  0.2869
  755MOL0     C99567   5.010   2.803   4.650  0.0691  0.6460 -0.8753
  755MOL0     C99568   4.878   2.726   4.633 -0.7853  0.4213 -0.7046
  755MOL0     C99569   4.751   2.808   4.641 -0.3412 -1.0448 -0.3544
  755MOL0     C99570   4.625   2.717   4.648  0.5535 -0.5467 -0.0649
  755MOL0     C99571   4.492   2.796   4.642 -0.0846 -0.3456 -0.8213
  755MOL0    Cl99572   4.477   2.886   4.487 -0.0608  0.0295 -0.5978
  755MOL0     C99573   5.403   2.876   4.789  0.3179  0.2825  0.9546
  755MOL0     C99574   5.506   2.939   4.847 -0.7715 -0.0858 -0.0199
  755MOL0     O99575   5.807   3.132   4.685  0.1446  0.3475  0.2232
  755MOL0     C99576   5.980   3.271   4.866 -0.9803 -0.7070 -0.8300
  755MOL0     C99577   6.050   3.339   4.964  0.3753 -1.2665  0.3809
  755MOL0     N99578   6.144   3.129   5.787 -0.4601 -0.4336  0.4173
  755MOL0     N99579   6.123   3.063   5.892 -0.3168 -0.2284 -0.6016
  755MOL0     C99580   6.648   3.602   6.661 -1.1179  0.8146  0.7403
  755MOL0     C99581   6.600   3.705   6.742 -0.3834  0.6459  0.6512
  755MOL0     C99582   6.376   3.861   7.141 -0.0558  0.3399 -0.1440
  755MOL0     C99583   6.402   3.905   7.279 -0.2954 -0.2321  0.1838
  755MOL0     C99584   6.297   3.971   7.343 -0.1625 -0.2106 -0.9794
  755MOL0     C99585   6.175   3.989   7.280  0.1468 -0.1838 -0.2844
  755MOL0     O99586   6.092   4.066   7.354  0.1281  0.0253 -0.2468
  755MOL0     C99587   5.956   4.080   7.317  0.3871  0.1841 -0.5174
  755MOL0     C99588   5.953   4.193   7.212 -0.8301 -0.2307 -0.4456
  755MOL0     C99589   5.812   4.239   7.179 -0.0791 -0.0391 -0.8854
  755MOL0     C99590   5.711   4.136   7.130  0.1132 -0.3883  0.6339
  755MOL0     C99591   5.732   4.101   6.993  1.0327  0.8494  0.4957
  755MOL0     C99592   5.747   4.045   6.884  0.2540 -0.5714  0.3726
  755MOL0     C99593   6.156   3.956   7.146  0.7748 -0.2128  0.5369
  755MOL0     C99594   6.252   3.894   7.069 -0.3581  0.4700 -0.5225
  755MOL0     H99595   6.476   3.513   6.994  0.2645  0.0603 -0.1757
  755MOL0     H99596   6.549   3.351   6.873 -1.1564  0.3777  2.0358
  755MOL0     H99597   6.775   3.276   6.486  0.0439  1.0315 -0.3821
  755MOL0     H99598   6.687   3.419   6.454  0.9270 -1.3017 -1.8134
  755MOL0     H99599   6.471   3.287   6.483  0.4479  0.9522  0.5815
  755MOL0     H99600   6.579   3.148   6.508 -1.3966  0.2559 -1.7257
  755MOL0     H99601   6.677   3.250   6.276  0.0005 -0.0146  0.4644
  755MOL0     H99602   6.515   3.301   6.243  1.8722  0.9176 -1.3896
  755MOL0     H99603   6.602   3.018   6.286  1.8638  1.8786  0.7737
  755MOL0     H99604   6.427   3.076   6.290  0.9135  0.4575  2.5746
  755MOL0     H99605   6.625   3.110   6.056 -1.2322  2.5818 -0.1802
  755MOL0     H99606   6.476   3.191   6.067  2.5348  0.9583 -2.6668
  755MOL0     H99607   6.517   2.886   6.019  0.6960  0.0055  0.2918
  755MOL0     H99608   6.443   3.024   5.926  0.3513  2.0460  1.3098
  755MOL0     H99609   6.337   2.882   6.179  1.7400 -0.1613 -0.5722
  755MOL0     H99610   6.280   3.034   6.099  0.6991  0.4513  0.8068
  755MOL0     H99611   6.132   2.836   6.060 -0.5164  0.0198 -0.3987
  755MOL0     H99612   6.268   2.770   5.967  1.4334  0.4476  2.0461
  755MOL0     H99613   6.283   2.850   5.718 -0.2753 -0.1793  1.6460
  755MOL0     H99614   6.259   2.990   5.516 -0.7853 -1.7094  3.4196
  755MOL0     H99615   6.374   3.107   5.580 -0.1265  0.6529  1.1121
  755MOL0     H99616   6.197   3.294   5.570 -0.8807 -0.5348  0.8875
  755MOL0     H99617   6.082   3.164   5.514  1.0492 -1.7096  0.9412
  755MOL0     H99618   6.317   3.272   5.342  1.2013 -2.6930  1.3631
  755MOL0     H99619   6.192   3.160   5.290  2.5882 -0.8689  0.5444
  755MOL0     H99620   6.151   3.444   5.377  0.0943  0.7129 -1.7812
  755MOL0     H99621   6.014   3.345   5.369 -0.3914 -3.1884  0.1889
  755MOL0     H99622   5.922   3.192   5.241 -0.9064  1.5036 -0.5173
  755MOL0     H99623   5.798   3.068   5.076 -1.3436 -0.8725 -3.7906
  755MOL0     H99624   5.762   2.894   4.629  0.0960 -0.2236  1.1028
  755MOL0     H99625   5.576   2.801   4.504  1.5112  0.2223  1.7317
  755MOL0     H99626   5.247   2.799   4.405 -1.0856  1.9007 -1.9863
  755MOL0     H99627   5.357   2.924   4.430  1.5023 -2.2216 -0.3590
  755MOL0     H99628   5.161   3.067   4.455 -0.8488  1.5024  1.7794
  755MOL0     H99629   5.199   3.021   4.613  1.1490  3.8358 -1.7337
  755MOL0     H99630   4.985   2.880   4.441  3.5755  2.5749 -2.0249
  755MOL0     H99631   4.943   2.992   4.562 -1.7443 -0.9543 -0.5021
  755MOL0     H99632   5.091   2.730   4.650  0.8228  1.4426  0.0405
  755MOL0     H99633   5.019   2.848   4.750 -0.1186 -0.3336 -0.4076
  755MOL0     H99634   4.887   2.644   4.705  2.5714 -0.5067 -1.9923
  755MOL0     H99635   4.871   2.679   4.534  2.4285 -0.2548 -0.7047
  755MOL0     H99636   4.740   2.869   4.551 -0.8164  1.9426  1.5962
  755MOL0     H99637   4.745   2.872   4.729 -3.3934 -2.3713  0.5134
  755MOL0     H99638   4.616   2.645   4.566 -0.5973 -0.9269  0.3622
  755MOL0     H99639   4.643   2.654   4.736  2.2322  0.1076  0.0923
  755MOL0     H99640   4.486   2.874   4.719 -1.6075  1.1768 -2.3849
  755MOL0     H99641   4.402   2.735   4.656 -1.9907  2.2218 -1.2043
  755MOL0     H99642   5.307   2.885   4.840  0.6491  3.1388  1.2750
  755MOL0     H99643   5.481   2.982   4.943 -2.9336 -0.3206 -0.4107
  755MOL0     H99644   6.016   3.292   4.766 -2.3292  2.7822 -0.7250
  755MOL0     H99645   6.118   3.415   4.928 -2.5229  1.0763 -0.5365
  755MOL0     H99646   6.713   3.604   6.574 -1.6247 -3.9394 -0.0345
  755MOL0     H99647   6.612   3.808   6.711  1.5064 -0.0839 -1.2377
  755MOL0     H99648   6.486   3.890   7.346 -2.1349 -1.2858  2.3959
  755MOL0     H99649   6.313   4.014   7.442 -0.0329  2.1665 -1.9651
  755MOL0     H99650   5.903   4.115   7.406 -1.2801  3.3042 -2.5613
  755MOL0     H99651   5.914   3.989   7.273 -2.6944  0.9913  0.4751
  755MOL0     H99652   6.005   4.284   7.245 -0.8674  0.4332 -2.1229
  755MOL0     H99653   6.007   4.168   7.120  2.4243  1.5970  0.8210
  755MOL0     H99654   5.828   4.327   7.117  4.0695  0.2838  0.3273
  755MOL0     H99655   5.769   4.269   7.275  2.0215  0.5016 -0.0443
  755MOL0     H99656   5.720   4.044   7.188  2.1405 -0.3437  0.4937
  755MOL0     H99657   5.610   4.178   7.125  1.3347  2.9727  1.1288
  755MOL0     H99658   5.746   4.010   6.782  0.4847  0.1462  0.1187
  755MOL0     H99659   6.067   3.985   7.091  1.3224 -0.9410 -0.7613
  755MOL0     H99660   6.238   3.856   6.968  2.1819  0.9549 -1.1372
  756MOL0     O99661   7.572   2.651   5.138  0.6466 -0.4341  0.0672
  756MOL0     C99662   7.634   2.740   5.204  0.4222  0.0289  0.0823
  756MOL0     O99663   7.758   2.725   5.255 -0.0180  0.2262  0.4750
  756MOL0     C99664   7.810   2.603   5.226 -0.5494 -0.3115 -0.2741
  756MOL0     C99665   7.903   2.603   5.112 -0.3159  0.8797 -0.7529
  756MOL0     C99666   7.986   2.493   5.079  0.5641 -0.9444 -0.4024
  756MOL0     C99667   7.959   2.370   5.152 -0.6646 -0.4393  0.4362
  756MOL0     O99668   8.023   2.244   5.136  0.4332  0.2413  0.2630
  756MOL0     C99669   8.129   2.227   5.040 -0.4723 -0.1390 -0.5649
  756MOL0     C99670   8.073   2.204   4.895  0.7037  0.3639  0.1023
  756MOL0     C99671   8.011   2.064   4.875  0.1251 -0.0937  0.8025
  756MOL0     C99672   8.122   1.974   4.823 -0.0049  0.2394  0.4941
  756MOL0     C99673   8.070   1.833   4.782  0.1291  0.2246  0.0360
  756MOL0     C99674   8.193   1.740   4.797  0.2875  0.5521 -0.3356
  756MOL0     C99675   8.160   1.596   4.775  0.6487  0.0500 -0.9047
  756MOL0     C99676   8.088   1.559   4.651 -0.8982  0.4173  0.8937
  756MOL0     N99677   8.159   1.616   4.532 -0.0157 -0.3645 -0.5808
  756MOL0     C99678   8.101   1.697   4.437 -0.8152 -0.0058  0.2851
  756MOL0     C99679   8.193   1.737   4.351  0.2642 -0.2948 -0.2540
  756MOL0     C99680   8.186   1.833   4.233 -0.2186  0.5423 -0.1428
  756MOL0     C99681   8.136   1.769   4.099 -0.7989 -0.3335  0.7864
  756MOL0     C99682   7.994   1.708   4.106  0.2696 -0.2354 -0.1812
  756MOL0     C99683   7.887   1.807   4.163  0.2025  0.5580  1.1108
  756MOL0     O99684   7.854   1.918   4.080  0.8537 -0.5952  0.9182
  756MOL0     C99685   7.728   1.969   4.070 -0.3469 -1.1199  0.7624
  756MOL0     C99686   7.616   1.889   4.087  0.7824 -0.0324  0.7702
  756MOL0     C99687   7.487   1.936   4.069  0.6762 -0.0914  0.2447
  756MOL0     C99688   7.466   2.073   4.065  0.1939 -1.4997  1.0230
  756MOL0     C99689   7.327   2.121   4.075 -0.4141 -0.1594 -0.0833
  756MOL0     O99690   7.238   2.044   4.017  0.3210 -0.8336 -0.9250
  756MOL0     C99691   7.113   2.088   3.993 -0.0351 -0.1766  0.1072
  756MOL0     C99692   7.092   2.191   3.899  0.2299  0.2085 -0.6966
  756MOL0     C99693   6.968   2.259   3.895 -0.4724 -0.6298  0.4165
  756MOL0     C99694   6.868   2.224   3.984 -0.9294 -0.3082  0.3816
  756MOL0     O99695   6.754   2.288   3.986 -0.3075  0.3734 -0.4904
  756MOL0     C99696   6.645   2.216   4.040  0.5699 -0.3507 -1.0187
  756MOL0     C99697   6.520   2.312   4.014  0.6978  0.5245 -0.1291
  756MOL0     C99698   6.388   2.250   4.070 -0.0069 -0.3020 -0.1965
  756MOL0     C99699   6.299   2.184   3.958 -0.3142 -0.2927 -0.7490
  756MOL0     C99700   6.170   2.111   3.999  0.0615  0.3182  0.2156
  756MOL0     C99701   6.195   1.991   4.088 -0.0923 -0.0934  0.5016
  756MOL0     C99702   6.070   1.913   4.136 -0.3748  0.5912  0.3296
  756MOL0     C99703   6.050   1.776   4.059 -0.5662 -0.8727  0.4418
  756MOL0    Cl99704   6.128   1.637   4.146 -0.0793 -0.3291 -0.5225
  756MOL0     C99705   6.898   2.119   4.079  0.2096 -0.3084 -0.1823
  756MOL0     C99706   7.020   2.056   4.081 -0.3778  0.0580 -0.1982
  756MOL0     O99707   7.318   2.233   4.122 -0.1987 -0.6275  0.4206
  756MOL0     C99708   7.575   2.158   4.071 -0.4073 -0.2672  0.3077
  756MOL0     C99709   7.706   2.108   4.065 -0.6776  0.2067  0.3362
  756MOL0     N99710   8.308   1.682   4.394  0.4673 -0.3561  0.0867
  756MOL0     N99711   8.289   1.609   4.498  0.4362  0.4135 -0.8983
  756MOL0     C99712   7.855   2.367   5.253  0.7823 -0.4430 -0.2541
  756MOL0     C99713   7.785   2.486   5.285 -0.4624 -0.3998 -1.3493
  756MOL0     C99714   7.557   2.873   5.219 -0.4045  0.5935  0.1724
  756MOL0     C99715   7.455   2.906   5.132  0.4064 -0.5630 -0.1620
  756MOL0     C99716   7.392   3.033   5.139 -0.2709  0.7268 -1.3419
  756MOL0     C99717   7.432   3.129   5.230  1.8806 -0.0275 -0.1324
  756MOL0     O99718   7.349   3.233   5.274 -0.8446 -0.3865  0.3397
  756MOL0     C99719   7.212   3.251   5.222  1.1255 -0.6766 -0.2729
  756MOL0     C99720   7.158   3.377   5.285 -0.0769 -0.0337 -0.3240
  756MOL0     C99721   7.025   3.426   5.244  0.3107  1.0546  0.2458
  756MOL0     C99722   6.994   3.571   5.286 -0.6892  0.4199 -0.5263
  756MOL0     C99723   7.072   3.665   5.198 -0.3925 -0.8422 -0.2915
  756MOL0     C99724   7.164   3.721   5.130  0.0270  0.5319 -0.3124
  756MOL0     C99725   7.537   3.092   5.305 -0.9407 -0.1454  0.3106
  756MOL0     C99726   7.603   2.974   5.304  0.0791  0.0777  0.5174
  756MOL0     H99727   7.907   2.697   5.059 -1.0081  1.4928  0.2359
  756MOL0     H99728   8.052   2.503   4.994 -0.4213  0.9234 -0.9932
  756MOL0     H99729   8.191   2.138   5.056  1.9833  1.0937 -2.4694
  756MOL0     H99730   8.194   2.313   5.057  1.7267 -1.2605 -2.7470
  756MOL0     H99731   8.156   2.207   4.824  0.3183 -1.8245 -0.5116
  756MOL0     H99732   8.001   2.282   4.868  3.0988  3.5835  2.1934
  756MOL0     H99733   7.929   2.072   4.804  1.1740  1.6909 -0.3006
  756MOL0     H99734   7.962   2.022   4.963  0.1478 -1.4706  0.1733
  756MOL0     H99735   8.165   2.005   4.728 -0.3897 -0.9785 -0.0860
  756MOL0     H99736   8.201   1.960   4.898  0.7636  0.6416 -0.2295
  756MOL0     H99737   8.043   1.851   4.677 -1.3408 -0.5895  0.2576
  756MOL0     H99738   7.984   1.799   4.839 -0.2900 -1.0895 -1.3170
  756MOL0     H99739   8.213   1.743   4.904 -1.2927 -1.3678  0.0522
  756MOL0     H99740   8.280   1.781   4.744  2.7328  3.9161  5.3260
  756MOL0     H99741   8.261   1.553   4.767  1.2216  1.3237 -0.7193
  756MOL0     H99742   8.104   1.564   4.864 -2.0597  0.0232 -2.5299
  756MOL0     H99743   7.989   1.604   4.659 -1.1649  0.4274 -1.6712
  756MOL0     H99744   8.081   1.450   4.643  1.8292  0.1626  1.0537
  756MOL0     H99745   7.996   1.723   4.440 -0.7207  0.4978 -0.4823
  756MOL0     H99746   8.283   1.882   4.217 -0.4508  2.2720  2.9090
  756MOL0     H99747   8.123   1.917   4.264  2.1264  1.2422  3.3617
  756MOL0     H99748   8.210   1.698   4.061  2.3229  2.4373  1.2649
  756MOL0     H99749   8.138   1.847   4.022  5.4531 -0.2156  0.5741
  756MOL0     H99750   7.949   1.665   4.016 -0.8002  0.7520 -0.1458
  756MOL0     H99751   8.005   1.632   4.184  4.3170 -0.1787 -0.5147
  756MOL0     H99752   7.923   1.832   4.263  2.1280  2.2475  0.0921
  756MOL0     H99753   7.799   1.745   4.181 -1.2943  1.8297 -1.2490
  756MOL0     H99754   7.610   1.783   4.109 -2.9901 -0.0766  0.2426
  756MOL0     H99755   7.410   1.860   4.068 -1.3208  1.8215 -1.3061
  756MOL0     H99756   7.175   2.218   3.836  2.2170  1.6271  2.2887
  756MOL0     H99757   6.956   2.344   3.829 -0.6682  0.1429  1.4135
  756MOL0     H99758   6.649   2.191   4.147 -0.9403 -0.0549 -0.8752
  756MOL0     H99759   6.636   2.123   3.984  5.5906  1.3686 -5.5564
  756MOL0     H99760   6.515   2.337   3.908  2.8585 -1.1297 -0.6869
  756MOL0     H99761   6.541   2.411   4.057 -1.1836  0.4742  1.0057
  756MOL0     H99762   6.330   2.320   4.130  2.0157  0.0297  1.5185
  756MOL0     H99763   6.427   2.172   4.136  1.1532 -0.1149 -0.6334
  756MOL0     H99764   6.268   2.248   3.875  2.7151 -1.0150 -2.6071
  756MOL0     H99765   6.363   2.108   3.912  1.0636  1.1998 -1.3944
  756MOL0     H99766   6.122   2.067   3.911 -0.8906 -1.4593  1.5747
  756MOL0     H99767   6.095   2.162   4.059 -1.3948 -1.1949 -0.2549
  756MOL0     H99768   6.249   2.024   4.177  1.3880  1.0021 -0.7500
  756MOL0     H99769   6.265   1.924   4.038  1.8627  2.4098 -0.3180
  756MOL0     H99770   6.066   1.895   4.244  0.6957  2.5430  0.7367
  756MOL0     H99771   5.979   1.970   4.114 -0.7437 -0.8231 -2.1179
  756MOL0     H99772   6.093   1.782   3.958  0.7435 -1.0500  0.9693
  756MOL0     H99773   5.943   1.758   4.052 -0.2906 -2.8428  0.5322
  756MOL0     H99774   6.817   2.096   4.148  0.0833  2.6551  0.7905
  756MOL0     H99775   7.047   1.991   4.163  0.1016  1.5335  0.8519
  756MOL0     H99776   7.566   2.266   4.067 -1.3689 -0.3515 -2.6937
  756MOL0     H99777   7.790   2.176   4.076  1.5201 -2.2764 -0.0656
  756MOL0     H99778   7.849   2.276   5.312  1.0744 -0.2461  0.0850
  756MOL0     H99779   7.728   2.485   5.378  2.4453  1.1720  0.5993
  756MOL0     H99780   7.421   2.837   5.056 -1.6731 -0.3815  0.5234
  756MOL0     H99781   7.299   3.043   5.084 -1.0875  0.0235 -0.1596
  756MOL0     H99782   7.155   3.167   5.260  3.1272 -2.5650 -1.2217
  756MOL0     H99783   7.218   3.250   5.112  3.2641 -1.0064 -0.2045
  756MOL0     H99784   7.155   3.372   5.395  0.2370  2.7318 -0.1014
  756MOL0     H99785   7.241   3.446   5.268 -0.5129  0.8422  0.9202
  756MOL0     H99786   6.948   3.356   5.278  1.0057  0.3840  0.4698
  756MOL0     H99787   7.020   3.426   5.135 -1.7452  0.3939  0.3023
  756MOL0     H99788   6.887   3.594   5.287 -0.7547  0.7634  3.8072
  756MOL0     H99789   7.024   3.591   5.389 -1.2121 -2.4943  0.2835
  756MOL0     H99790   7.231   3.790   5.082 -2.0864  2.2912 -0.8899
  756MOL0     H99791   7.568   3.163   5.381 -0.4661 -0.2265  0.1957
  756MOL0     H99792   7.694   2.960   5.361  1.3595  1.1656 -1.1650
  757MOL0     O99793   6.765   3.514  10.422 -0.9612 -0.2512  0.0166
  757MOL0     C99794   6.751   3.455  10.525 -1.5043 -0.1465  0.4920
  757MOL0     O99795   6.824   3.477  10.632  0.2391  0.2735 -0.0987
  757MOL0     C99796   6.928   3.570  10.639  0.5013  0.2473 -0.0829
  757MOL0     C99797   7.058   3.518  10.638 -0.0202 -0.2645 -1.2189
  757MOL0     C99798   7.159   3.603  10.703  0.4913  0.3410 -0.6398
  757MOL0     C99799   7.133   3.728  10.750 -1.1645  0.8317 -0.1141
  757MOL0     O99800   7.243   3.786  10.807 -0.1857  0.4158 -0.3528
  757MOL0     C99801   7.230   3.912  10.877  1.5430 -0.9931  0.6542
  757MOL0     C99802   7.358   3.956  10.942  0.3495 -0.2299  0.0923
  757MOL0     C99803   7.336   4.080  11.034  0.7135  0.0345  0.1442
  757MOL0     C99804   7.470   4.155  11.062  0.8539 -0.3395  0.6492
  757MOL0     C99805   7.448   4.282  11.147 -0.9480 -0.2905  0.2677
  757MOL0     C99806   7.330   4.373  11.106  0.8063 -0.0998 -0.0948
  757MOL0     C99807   7.325   4.511  11.173  0.4275 -0.2621  0.7337
  757MOL0     C99808   7.264   4.514  11.318  0.3470 -0.7285 -0.6661
  757MOL0     N99809   7.255   4.662  11.354 -0.5146  0.7141  0.3750
  757MOL0     C99810   7.359   4.745  11.334  0.4203 -0.3826  0.6862
  757MOL0     C99811   7.305   4.870  11.340 -0.5359  0.2816  0.5420
  757MOL0     C99812   7.387   4.999  11.321  0.4514 -0.1503 -0.7330
  757MOL0     C99813   7.348   5.066  11.193  0.9060 -0.7000 -0.1854
  757MOL0     C99814   7.436   5.193  11.158  0.0626  0.6706 -0.1138
  757MOL0     C99815   7.362   5.265  11.050  0.4039 -0.9655  0.7357
  757MOL0     O99816   7.437   5.371  10.990  0.5189  0.0833 -0.0396
  757MOL0     C99817   7.471   5.478  11.069  0.1296  0.9602  0.4225
  757MOL0     C99818   7.389   5.520  11.166 -0.7225  0.2556 -0.4678
  757MOL0     C99819   7.422   5.636  11.236  0.4364  1.2911 -0.8911
  757MOL0     C99820   7.535   5.709  11.203  0.0704 -0.0703 -1.1101
  757MOL0     C99821   7.561   5.842  11.268  0.3388 -0.4449 -0.7379
  757MOL0     O99822   7.455   5.897  11.345  0.2760  0.2637  0.0363
  757MOL0     C99823   7.474   6.028  11.388  0.0601  0.5909 -0.6336
  757MOL0     C99824   7.542   6.124  11.325  0.0352  0.4080  1.2300
  757MOL0     C99825   7.554   6.254  11.370  1.0523  0.5442 -0.4326
  757MOL0     C99826   7.484   6.283  11.489 -0.3151  0.8779  0.4802
  757MOL0     O99827   7.488   6.419  11.526  0.2008 -0.4547  1.2767
  757MOL0     C99828   7.376   6.470  11.596  0.7576 -0.5772  0.0062
  757MOL0     C99829   7.393   6.624  11.630  0.4619 -0.5465  0.7346
  757MOL0     C99830   7.319   6.679  11.754 -0.2893  0.2099  0.1180
  757MOL0     C99831   7.366   6.822  11.799  0.7199  0.0009 -0.6495
  757MOL0     C99832   7.300   6.874  11.923  0.5966 -0.6864 -0.4036
  757MOL0     C99833   7.337   7.011  11.969 -0.1836 -0.1865  0.8576
  757MOL0     C99834   7.379   7.028  12.119 -0.0437  0.4215 -0.8408
  757MOL0     C99835   7.376   7.173  12.169  0.0698  0.2263  0.3770
  757MOL0    Cl99836   7.388   7.165  12.350  0.0066  0.4221  0.2678
  757MOL0     C99837   7.425   6.182  11.559 -0.6915 -0.0596 -0.7494
  757MOL0     C99838   7.424   6.053  11.512  0.6920  0.0680  1.3030
  757MOL0     O99839   7.679   5.892  11.257  0.0825 -0.2571 -0.1497
  757MOL0     C99840   7.618   5.663  11.104  0.9050  0.0654  0.9593
  757MOL0     C99841   7.583   5.546  11.040  0.0668 -0.8825  0.9309
  757MOL0     N99842   7.174   4.856  11.378 -0.1323 -0.2373 -0.2854
  757MOL0     N99843   7.143   4.732  11.387 -0.5214  0.2254  0.7202
  757MOL0     C99844   7.003   3.781  10.724 -0.0034 -0.0345 -0.1663
  757MOL0     C99845   6.900   3.701  10.682 -0.5111 -0.9000  0.0765
  757MOL0     C99846   6.652   3.343  10.521  0.3159  0.2746  0.4148
  757MOL0     C99847   6.666   3.238  10.615  0.3070 -0.0398  0.4546
  757MOL0     C99848   6.563   3.135  10.621 -0.8090 -0.3039  0.1089
  757MOL0     C99849   6.454   3.134  10.530 -0.1282  0.3724  0.2287
  757MOL0     O99850   6.336   3.065  10.560 -0.0721 -0.0500 -0.6825
  757MOL0     C99851   6.280   2.981  10.454  0.4487  0.1876 -0.4910
  757MOL0     C99852   6.150   2.921  10.497 -0.0993 -0.3016  0.2601
  757MOL0     C99853   6.090   2.824  10.402  0.9789  0.3289  0.2564
  757MOL0     C99854   6.026   2.904  10.282 -0.5429  0.0620  0.7332
  757MOL0     C99855   5.973   2.807  10.187  0.9953 -1.1277 -0.4142
  757MOL0     C99856   5.941   2.738  10.094 -0.7576 -0.3495  1.0312
  757MOL0     C99857   6.458   3.229  10.424 -0.1926  0.0385 -1.0390
  757MOL0     C99858   6.555   3.327  10.419  0.2792  0.3513 -0.1074
  757MOL0     H99859   7.074   3.416  10.606 -0.4197  0.2346 -3.1563
  757MOL0     H99860   7.257   3.568  10.731 -0.0485 -0.7854 -0.0964
  757MOL0     H99861   7.148   3.895  10.948 -3.9907 -1.1088 -4.8204
  757MOL0     H99862   7.195   3.991  10.809  1.9567 -0.2712  1.2713
  757MOL0     H99863   7.418   3.990  10.857 -3.4721  1.8833 -2.0677
  757MOL0     H99864   7.394   3.866  10.992  0.9544 -0.7308 -1.1918
  757MOL0     H99865   7.288   4.039  11.123  0.0489 -4.1837 -1.8879
  757MOL0     H99866   7.267   4.152  10.990  3.4030  2.8901  0.2784
  757MOL0     H99867   7.536   4.081  11.108  1.4551 -1.8546 -2.3630
  757MOL0     H99868   7.514   4.179  10.964 -1.6701 -1.9961 -1.0156
  757MOL0     H99869   7.536   4.345  11.129 -1.8046  1.0072  0.4551
  757MOL0     H99870   7.436   4.251  11.251 -1.6158  0.2376  0.3562
  757MOL0     H99871   7.233   4.326  11.120  0.4907  0.5074 -0.1867
  757MOL0     H99872   7.335   4.386  10.998 -0.5446  2.4774  0.0736
  757MOL0     H99873   7.430   4.541  11.168  1.6521 -3.9698  0.4907
  757MOL0     H99874   7.275   4.583  11.108  3.0183  0.3113 -0.7612
  757MOL0     H99875   7.330   4.468  11.392 -0.9358  2.3623  2.6927
  757MOL0     H99876   7.161   4.476  11.313 -1.8751  4.5727 -1.4722
  757MOL0     H99877   7.463   4.722  11.315  0.5573  0.5891  0.2007
  757MOL0     H99878   7.495   4.986  11.321  0.5294  0.1258 -2.6521
  757MOL0     H99879   7.366   5.057  11.411  1.8010  0.4543 -0.7839
  757MOL0     H99880   7.246   5.101  11.208  1.0568  0.5957 -1.8615
  757MOL0     H99881   7.360   4.999  11.108  1.0830 -0.5865 -0.2512
  757MOL0     H99882   7.447   5.242  11.255  3.4631 -0.3917  0.1731
  757MOL0     H99883   7.532   5.165  11.115 -0.9956 -0.9044 -1.6275
  757MOL0     H99884   7.264   5.291  11.092 -0.5750 -1.3863 -1.1776
  757MOL0     H99885   7.338   5.191  10.972 -2.5403  2.0174 -1.5308
  757MOL0     H99886   7.290   5.479  11.184 -0.5026 -0.1442 -0.1555
  757MOL0     H99887   7.352   5.663  11.314  2.0272 -1.4130  1.7201
  757MOL0     H99888   7.564   6.104  11.220 -2.5589  0.9407  0.5077
  757MOL0     H99889   7.604   6.336  11.318  2.4884 -0.3794 -0.5516
  757MOL0     H99890   7.342   6.413  11.684  0.7298  1.4761  1.4015
  757MOL0     H99891   7.293   6.482  11.526  1.2998  2.2254 -0.2421
  757MOL0     H99892   7.372   6.672  11.534  3.2883  0.2032  0.4023
  757MOL0     H99893   7.498   6.640  11.657 -0.1975  2.3704  1.9537
  757MOL0     H99894   7.344   6.610  11.834  0.1359 -1.2796 -1.2506
  757MOL0     H99895   7.212   6.680  11.731 -0.6551  1.2446  1.7442
  757MOL0     H99896   7.476   6.827  11.804  0.8439  0.9836 -2.9573
  757MOL0     H99897   7.342   6.883  11.712 -0.3507  2.4243  1.2550
  757MOL0     H99898   7.328   6.805  12.003 -3.3721 -2.1289 -0.0103
  757MOL0     H99899   7.191   6.866  11.922  0.4214  1.2292 -2.2060
  757MOL0     H99900   7.252   7.077  11.947  0.4051  0.2726 -0.1123
  757MOL0     H99901   7.419   7.058  11.914  1.2191 -2.9142  0.4528
  757MOL0     H99902   7.315   6.968  12.185  1.9765  0.7551  1.5416
  757MOL0     H99903   7.476   6.981  12.136 -1.0903 -2.0081 -1.0629
  757MOL0     H99904   7.279   7.214  12.142 -1.4179 -2.1925  1.6862
  757MOL0     H99905   7.455   7.243  12.141  1.9510 -2.6817 -2.2378
  757MOL0     H99906   7.361   6.222  11.637 -2.4548  2.5385 -3.3067
  757MOL0     H99907   7.367   5.967  11.545  1.3284 -2.6120 -3.6012
  757MOL0     H99908   7.697   5.733  11.080  1.2967 -0.2914  1.2053
  757MOL0     H99909   7.642   5.519  10.953  1.5841 -3.1409  2.5305
  757MOL0     H99910   6.974   3.881  10.754  0.0303  0.0600 -0.4437
  757MOL0     H99911   6.793   3.715  10.695 -0.6543 -1.2006 -0.7105
  757MOL0     H99912   6.746   3.234  10.688  2.3515 -0.2169 -1.6653
  757MOL0     H99913   6.562   3.054  10.693  0.8810 -0.4114  0.0503
  757MOL0     H99914   6.339   2.890  10.445 -2.6567 -2.3717  2.3115
  757MOL0     H99915   6.277   3.034  10.358 -1.9703  1.2016  0.0637
  757MOL0     H99916   6.179   2.869  10.588  3.7934 -1.0955 -1.2619
  757MOL0     H99917   6.094   3.014  10.511  0.5804  0.0681  0.5637
  757MOL0     H99918   6.010   2.764  10.446  1.0449 -2.3448 -2.9117
  757MOL0     H99919   6.165   2.751  10.372  0.0647 -0.5531  0.0547
  757MOL0     H99920   5.955   2.973  10.329  1.5506  2.6958  0.2596
  757MOL0     H99921   6.097   2.965  10.226 -2.1775 -0.0777 -1.6303
  757MOL0     H99922   5.926   2.662  10.020  0.8215  0.8999 -0.6881
  757MOL0     H99923   6.373   3.227  10.357 -0.0402 -3.2580 -1.3270
  757MOL0     H99924   6.545   3.403  10.342 -1.3813  1.1860  0.8664
  758MOL0     O99925   6.217   2.447   8.739  0.0012 -0.7878  0.6955
  758MOL0     C99926   6.225   2.572   8.763 -1.1902  0.3019  0.4641
  758MOL0     O99927   6.139   2.644   8.840  0.2357  0.6278  0.1154
  758MOL0     C99928   6.015   2.596   8.879 -0.0471  0.6715  0.9150
  758MOL0     C99929   5.928   2.518   8.795 -1.4649 -0.0331  0.6785
  758MOL0     C99930   5.814   2.448   8.839  0.0134 -0.2010 -0.0007
  758MOL0     C99931   5.790   2.475   8.971 -0.5745 -0.3284 -0.1180
  758MOL0     O99932   5.689   2.414   9.047  0.0692  0.1841  0.5034
  758MOL0     C99933   5.596   2.327   8.993  0.1078 -0.4077 -0.2620
  758MOL0     C99934   5.549   2.226   9.095 -0.4120  0.7254  0.4937
  758MOL0     C99935   5.450   2.136   9.025  0.5003 -0.4709  0.5822
  758MOL0     C99936   5.393   2.027   9.129 -0.0912 -1.0138  0.5982
  758MOL0     C99937   5.254   1.982   9.080  0.1381 -0.1682 -0.0861
  758MOL0     C99938   5.255   1.927   8.934 -0.2364  0.4387 -0.0342
  758MOL0     C99939   5.325   1.793   8.931 -0.1095  0.1918 -0.0224
  758MOL0     C99940   5.234   1.681   8.986 -1.1606  0.1555  0.9891
  758MOL0     N99941   5.313   1.631   9.096 -0.1251  0.3308 -0.4437
  758MOL0     C99942   5.383   1.510   9.096  0.3250 -0.4115  0.6802
  758MOL0     C99943   5.446   1.514   9.221  0.3165  0.2100 -0.0648
  758MOL0     C99944   5.541   1.408   9.271 -1.0004  0.5676  0.9817
  758MOL0     C99945   5.615   1.438   9.412 -0.5426  0.6790 -0.0163
  758MOL0     C99946   5.544   1.374   9.526  0.2737  1.1403 -0.8883
  758MOL0     C99947   5.627   1.405   9.649  0.0639 -0.3169  0.1150
  758MOL0     O99948   5.611   1.309   9.752 -0.0677  0.7398  0.0993
  758MOL0     C99949   5.506   1.320   9.833  0.4099 -0.2408  1.0707
  758MOL0     C99950   5.408   1.420   9.821  0.7618 -0.3877  0.0950
  758MOL0     C99951   5.301   1.427   9.910 -0.0895 -0.2564  0.1694
  758MOL0     C99952   5.282   1.313   9.999 -0.1394  0.1562  0.1430
  758MOL0     C99953   5.155   1.301  10.080 -0.8564  0.4092  0.3856
  758MOL0     O99954   5.127   1.186  10.152  0.1838 -0.0225  0.4834
  758MOL0     C99955   5.067   1.186  10.265  0.9358 -0.4123  0.2135
  758MOL0     C99956   5.018   1.065  10.299  0.0071  0.5730  0.7594
  758MOL0     C99957   4.945   1.056  10.417 -0.8066  1.0168 -0.3395
  758MOL0     C99958   4.920   1.155  10.508 -1.0204 -0.3056 -0.2675
  758MOL0     O99959   4.864   1.116  10.624 -0.3212  0.1110  0.4087
  758MOL0     C99960   4.857   1.206  10.736  0.0632  0.8542  1.0474
  758MOL0     C99961   4.768   1.150  10.837  0.7439 -0.5042 -0.4319
  758MOL0     C99962   4.707   1.262  10.922  0.3146  0.3424  0.4169
  758MOL0     C99963   4.821   1.340  10.997  0.0183  0.9563  0.6603
  758MOL0     C99964   4.827   1.478  10.935 -0.5401  0.2322 -0.5755
  758MOL0     C99965   4.962   1.546  10.967  0.1200 -0.4117  0.2014
  758MOL0     C99966   4.955   1.686  10.910  0.0496  0.1350 -0.0275
  758MOL0     C99967   5.034   1.791  10.993 -0.1222 -0.1683  0.1362
  758MOL0    Cl99968   5.184   1.713  11.029  0.4487 -0.3841 -0.0980
  758MOL0     C99969   4.966   1.279  10.475  0.3317  0.4309  0.2299
  758MOL0     C99970   5.039   1.301  10.353  0.4354  1.3840  0.6906
  758MOL0     O99971   5.076   1.390  10.062 -0.2682 -0.1566  0.3225
  758MOL0     C99972   5.374   1.208  10.003 -1.1091 -1.0035  0.4631
  758MOL0     C99973   5.491   1.218   9.922 -0.1606  0.3440  0.2112
  758MOL0     N99974   5.385   1.621   9.296  0.7142 -0.3342 -0.1704
  758MOL0     N99975   5.316   1.696   9.215 -0.0422  0.0620 -0.3642
  758MOL0     C99976   5.854   2.578   9.043  0.6587  0.2819  0.0120
  758MOL0     C99977   5.970   2.636   8.996 -0.2675  0.3006  0.6117
  758MOL0     C99978   6.336   2.652   8.699 -1.5196 -0.1354  0.0907
  758MOL0     C99979   6.451   2.597   8.628  0.4025 -0.4210  0.1434
  758MOL0     C99980   6.552   2.674   8.575 -1.1448  0.0970 -0.4563
  758MOL0     C99981   6.535   2.810   8.575  0.1220 -0.0430 -0.6130
  758MOL0     O99982   6.621   2.907   8.523  0.3401 -0.3148 -0.2999
  758MOL0     C99983   6.684   2.883   8.398 -0.4596  0.0220 -0.0937
  758MOL0     C99984   6.593   2.835   8.288 -0.6461 -0.0169  1.3603
  758MOL0     C99985   6.657   2.873   8.155 -0.6531 -0.3759 -0.1829
  758MOL0     C99986   6.702   2.757   8.074  0.6788 -0.4552 -0.2796
  758MOL0     C99987   6.808   2.680   8.129 -0.1674  0.3356  0.2783
  758MOL0     C99988   6.909   2.627   8.161  0.9088 -0.9419 -1.0726
  758MOL0     C99989   6.432   2.865   8.654 -0.1624 -0.1279  0.6572
  758MOL0     C99990   6.332   2.791   8.713 -0.2883  0.3140 -0.1887
  758MOL0     H99991   5.944   2.496   8.691 -3.0080  1.6235  0.0275
  758MOL0     H99992   5.756   2.380   8.777 -1.5025  1.0914 -0.0805
  758MOL0     H99993   5.632   2.280   8.901  2.1925 -1.6598  1.0999
  758MOL0     H99994   5.514   2.395   8.970  1.1628  2.3185  3.2000
  758MOL0     H99995   5.495   2.269   9.179  1.6496  2.8815  0.8207
  758MOL0     H99996   5.626   2.159   9.134 -0.7286  1.4904  2.5580
  758MOL0     H99997   5.494   2.091   8.936  0.0623  0.7608 -0.2705
  758MOL0     H99998   5.361   2.187   8.990 -0.4492 -1.5501  1.3480
  758MOL0     H99999   5.469   1.956   9.163  2.6710  2.2885  1.8612
  758MOL0     H    0   5.373   2.087   9.219 -0.4855  1.8877 -1.2981
  758MOL0     H    1   5.184   2.065   9.071 -0.8757 -0.9969 -0.0352
  758MOL0     H    2   5.211   1.905   9.145  0.6966  0.6670  1.3257
  758MOL0     H    3   5.316   1.990   8.869 -1.0958 -0.4544 -1.7920
  758MOL0     H    4   5.152   1.910   8.901 -0.0852 -0.6109 -0.0007
  758MOL0     H    5   5.348   1.778   8.825 -0.0423 -4.0021  0.4445
  758MOL0     H    6   5.420   1.807   8.984  0.5377  0.9673 -1.3353
  758MOL0     H    7   5.229   1.607   8.905  3.5799  0.4911  0.1112
  758MOL0     H    8   5.138   1.715   9.025 -0.7303  0.8496  1.4542
  758MOL0     H    9   5.411   1.450   9.010  3.4107  2.4752 -0.5046
  758MOL0     H   10   5.610   1.406   9.186 -3.5321 -1.4430 -1.2571
  758MOL0     H   11   5.485   1.314   9.280 -3.3503  1.4715 -2.0628
  758MOL0     H   12   5.629   1.544   9.434  2.9929  0.6376 -1.3763
  758MOL0     H   13   5.713   1.392   9.395  0.4694  2.7752 -0.2250
  758MOL0     H   14   5.446   1.424   9.524 -0.8994 -1.0137 -0.4541
  758MOL0     H   15   5.534   1.268   9.501 -1.7139  1.7540 -3.0454
  758MOL0     H   16   5.612   1.509   9.681  0.0149 -0.5068  0.7354
  758MOL0     H   17   5.732   1.403   9.620 -0.4758  1.4227 -2.2692
  758MOL0     H   18   5.405   1.485   9.734  1.8459 -1.2958 -0.6383
  758MOL0     H   19   5.224   1.503   9.906  0.4168  0.2145 -0.7521
  758MOL0     H   20   5.038   0.977  10.239 -0.0379 -0.1513  1.7917
  758MOL0     H   21   4.894   0.962  10.434  0.7021  0.2213 -0.0104
  758MOL0     H   22   4.812   1.298  10.697  0.7266  1.3127  1.3465
  758MOL0     H   23   4.953   1.233  10.780  0.2182  0.2461  1.0881
  758MOL0     H   24   4.831   1.084  10.897  1.2074  1.9333  1.9546
  758MOL0     H   25   4.692   1.094  10.781  1.3986  0.8052 -2.7526
  758MOL0     H   26   4.645   1.216  11.000  0.3183 -0.1392  0.1396
  758MOL0     H   27   4.635   1.314  10.857 -0.7225  0.4297  1.5852
  758MOL0     H   28   4.790   1.340  11.102 -1.5268 -3.4903  0.4253
  758MOL0     H   29   4.915   1.284  10.996  0.4894  1.7306  0.9367
  758MOL0     H   30   4.740   1.535  10.969 -1.1538 -0.9919 -0.0162
  758MOL0     H   31   4.832   1.460  10.828  0.1569 -1.8487 -0.2402
  758MOL0     H   32   5.047   1.495  10.921  0.2924 -0.9861  1.1360
  758MOL0     H   33   4.978   1.562  11.074  1.2854  2.1250 -0.2999
  758MOL0     H   34   5.000   1.695  10.811 -0.7024  1.5978 -0.2707
  758MOL0     H   35   4.851   1.718  10.900 -1.0331 -2.6713  1.2731
  758MOL0     H   36   4.976   1.818  11.082  1.0448  2.9290  0.1043
  758MOL0     H   37   5.052   1.886  10.941  1.4229 -0.3018  0.3779
  758MOL0     H   38   4.954   1.360  10.547  0.4977 -1.6323  2.7463
  758MOL0     H   39   5.065   1.405  10.336  1.8596  0.5819 -3.1903
  758MOL0     H   40   5.353   1.122  10.066 -2.0752 -2.2172 -1.4367
  758MOL0     H   41   5.563   1.137   9.931  1.1108  1.5868  1.6902
  758MOL0     H   42   5.812   2.607   9.138 -0.8810 -1.0847 -0.2274
  758MOL0     H   43   6.025   2.705   9.060  0.2614  0.7474 -0.3012
  758MOL0     H   44   6.468   2.490   8.618 -0.2030 -0.4919 -0.1622
  758MOL0     H   45   6.630   2.636   8.510  1.3169  0.0456  2.3467
  758MOL0     H   46   6.767   2.813   8.409  3.0608  3.8465  0.1312
  758MOL0     H   47   6.724   2.979   8.365  2.4521 -1.0591  0.0327
  758MOL0     H   48   6.598   2.726   8.285  2.3710  0.0493  0.9248
  758MOL0     H   49   6.489   2.867   8.294 -0.7029  0.0770  0.1124
  758MOL0     H   50   6.749   2.929   8.175 -2.3494  1.9500  1.7488
  758MOL0     H   51   6.586   2.939   8.104 -1.0073 -2.4212 -2.4777
  758MOL0     H   52   6.617   2.691   8.058  0.7194 -0.4618 -0.4737
  758MOL0     H   53   6.735   2.794   7.977  0.8074  1.0320  0.3015
  758MOL0     H   54   6.998   2.571   8.183 -0.7550 -2.1897  3.4572
  758MOL0     H   55   6.429   2.972   8.675 -1.5972 -0.0561  0.2111
  758MOL0     H   56   6.250   2.835   8.768  0.2771  2.0705 -0.6924
  759MOL0     O   57   8.054   5.633   4.895 -0.3816  0.0997 -0.2361
  759MOL0     C   58   8.126   5.587   4.805 -0.2986 -0.4325 -0.0017
  759MOL0     O   59   8.149   5.653   4.683 -0.9785 -0.1708 -0.3276
  759MOL0     C   60   8.128   5.788   4.688 -1.0372 -0.2606 -0.1450
  759MOL0     C   61   8.230   5.882   4.661  0.1205 -0.4473  0.9549
  759MOL0     C   62   8.193   6.016   4.670 -1.1408  0.7646  0.9031
  759MOL0     C   63   8.067   6.068   4.698  0.5746 -0.0106 -1.0585
  759MOL0     O   64   8.042   6.202   4.705 -0.0013  1.5455  0.8728
  759MOL0     C   65   8.100   6.277   4.603 -0.1923  0.0104  0.1397
  759MOL0     C   66   8.006   6.382   4.565  0.0342 -0.1535 -0.7488
  759MOL0     C   67   8.006   6.497   4.663  0.3754 -0.9563 -0.7254
  759MOL0     C   68   7.923   6.616   4.628 -0.5302  0.5113  0.7020
  759MOL0     C   69   7.989   6.709   4.544 -1.2116  0.1683 -0.5814
  759MOL0     C   70   7.910   6.807   4.469 -0.9455 -0.0002 -0.2181
  759MOL0     C   71   7.813   6.898   4.553  1.3142  0.6764  0.5490
  759MOL0     C   72   7.759   7.030   4.488  0.6004 -0.6162 -0.0887
  759MOL0     N   73   7.687   6.995   4.371  0.2253 -0.1591  0.0910
  759MOL0     C   74   7.552   6.971   4.375 -0.5428  0.5782 -0.1280
  759MOL0     C   75   7.532   6.948   4.245  1.5635 -0.7870  0.2493
  759MOL0     C   76   7.397   6.927   4.192  0.3601  1.6461  0.3288
  759MOL0     C   77   7.364   6.775   4.195  0.2399  0.7951  1.0481
  759MOL0     C   78   7.224   6.732   4.140 -0.5938 -0.8569  1.7538
  759MOL0     C   79   7.109   6.779   4.234  0.8386  0.2352  0.1882
  759MOL0     O   80   6.990   6.753   4.156 -0.0316  0.0923 -0.5842
  759MOL0     C   81   6.889   6.687   4.221  0.1144  0.3956 -0.0481
  759MOL0     C   82   6.836   6.572   4.168 -0.3276  0.0462 -0.4310
  759MOL0     C   83   6.762   6.483   4.248 -0.2822 -0.5460 -0.0401
  759MOL0     C   84   6.724   6.518   4.377 -0.6349  0.2103 -0.7084
  759MOL0     C   85   6.634   6.420   4.438  1.2419 -0.6417 -0.5265
  759MOL0     O   86   6.575   6.327   4.349  0.3846 -0.7620 -0.6851
  759MOL0     C   87   6.454   6.267   4.396  0.1105  0.0753  0.2171
  759MOL0     C   88   6.330   6.332   4.377 -0.5668  0.4542 -0.2874
  759MOL0     C   89   6.209   6.262   4.420 -0.4456 -0.5476 -0.1148
  759MOL0     C   90   6.224   6.145   4.494 -0.9643 -0.1154  0.0986
  759MOL0     O   91   6.119   6.090   4.551  0.5668 -0.7046  0.0116
  759MOL0     C   92   6.122   6.088   4.698 -0.4138  0.0663  0.7519
  759MOL0     C   93   5.977   6.085   4.737  0.4398 -0.1012  0.9601
  759MOL0     C   94   5.953   6.064   4.883  1.7167 -0.3689 -0.2777
  759MOL0     C   95   5.798   6.050   4.905 -0.6534 -0.2757  0.2965
  759MOL0     C   96   5.761   6.050   5.057 -0.6385  0.3043  0.1089
  759MOL0     C   97   5.610   6.017   5.068  0.5902 -0.1451  0.1786
  759MOL0     C   98   5.575   6.030   5.214  0.2221  0.0493 -1.0438
  759MOL0     C   99   5.454   5.956   5.252  0.6953 -0.1293  0.3418
  759MOL0    Cl  100   5.313   6.059   5.212  0.3938 -0.6248 -0.1879
  759MOL0     C  101   6.341   6.073   4.497  0.0454  0.2595 -0.5596
  759MOL0     C  102   6.454   6.140   4.447 -0.3362 -0.0624 -0.9018
  759MOL0     O  103   6.604   6.435   4.555  0.1993 -0.6945 -0.0224
  759MOL0     C  104   6.769   6.641   4.435  0.5204 -0.5123  0.4914
  759MOL0     C  105   6.849   6.726   4.352  0.3169  0.2600 -0.3523
  759MOL0     N  106   7.651   6.958   4.170 -0.4083  0.2965 -0.7296
  759MOL0     N  107   7.750   6.986   4.251 -0.1055  0.1137  0.3632
  759MOL0     C  108   7.965   5.976   4.723 -0.4452 -0.1746 -0.3542
  759MOL0     C  109   8.004   5.842   4.717 -0.1965 -0.0177 -0.2582
  759MOL0     C  110   8.167   5.441   4.818  0.2239 -0.6852  0.6723
  759MOL0     C  111   8.232   5.385   4.713 -0.1028  0.1437  0.7146
  759MOL0     C  112   8.284   5.263   4.734 -0.8079  1.1450  0.0992
  759MOL0     C  113   8.282   5.197   4.860 -0.6392 -0.3665 -0.0512
  759MOL0     O  114   8.350   5.084   4.885  0.5765  0.0779  0.1895
  759MOL0     C  115   8.481   5.081   4.948 -0.0677 -0.5051  0.5671
  759MOL0     C  116   8.503   4.946   5.011 -0.1854 -0.6115 -0.4011
  759MOL0     C  117   8.540   4.838   4.916 -0.3705 -0.5230 -0.3719
  759MOL0     C  118   8.525   4.696   4.954 -0.0602 -0.5376 -0.1882
  759MOL0     C  119   8.575   4.608   4.850 -0.0786 -0.0012 -0.0480
  759MOL0     C  120   8.613   4.543   4.755  0.0103 -0.4889  0.4032
  759MOL0     C  121   8.206   5.252   4.958 -0.8345  1.3062  0.0998
  759MOL0     C  122   8.145   5.369   4.937 -0.0387 -0.1122  1.2894
  759MOL0     H  123   8.327   5.850   4.625 -1.2482 -0.3440 -3.3801
  759MOL0     H  124   8.269   6.088   4.643 -0.8616 -0.6281 -2.5198
  759MOL0     H  125   8.121   6.217   4.513 -2.0977 -0.4240 -0.0497
  759MOL0     H  126   8.197   6.319   4.631 -0.2885  0.7350 -0.5920
  759MOL0     H  127   7.905   6.340   4.557 -1.4531  3.0537 -0.3767
  759MOL0     H  128   8.033   6.415   4.464  0.3194  0.5561 -0.4433
  759MOL0     H  129   8.107   6.531   4.687  0.1303 -1.3045  0.9218
  759MOL0     H  130   7.961   6.446   4.748 -0.4239  2.2870  0.9844
  759MOL0     H  131   7.828   6.587   4.581  0.6870 -2.7508  0.0142
  759MOL0     H  132   7.885   6.664   4.719 -3.0670 -2.6576  1.5027
  759MOL0     H  133   8.039   6.661   4.459 -1.9449 -0.5052 -0.6473
  759MOL0     H  134   8.066   6.759   4.604  1.1060 -2.1023 -1.4767
  759MOL0     H  135   7.847   6.753   4.397  0.0203 -0.9677 -0.3510
  759MOL0     H  136   7.984   6.868   4.415  1.6000 -1.5319  1.3769
  759MOL0     H  137   7.731   6.829   4.576  1.8018  0.0335  0.3880
  759MOL0     H  138   7.863   6.933   4.644 -1.0973  2.0128  1.4703
  759MOL0     H  139   7.842   7.095   4.460  1.9388 -1.4581  1.7716
  759MOL0     H  140   7.701   7.090   4.559  1.7654 -0.4779  0.7808
  759MOL0     H  141   7.487   6.969   4.462  0.3839  1.2549  0.6012
  759MOL0     H  142   7.382   6.982   4.099 -3.2223  0.3776  0.0052
  759MOL0     H  143   7.331   6.980   4.261 -0.0620  2.8704 -0.9635
  759MOL0     H  144   7.372   6.726   4.293 -0.0383 -2.7586 -0.5427
  759MOL0     H  145   7.451   6.740   4.137 -0.6512  0.1635  0.0624
  759MOL0     H  146   7.213   6.784   4.045  0.6416 -1.4068  1.3027
  759MOL0     H  147   7.217   6.625   4.119 -1.2269 -0.9079  2.1722
  759MOL0     H  148   7.123   6.886   4.255 -0.6539  0.3483  0.7191
  759MOL0     H  149   7.127   6.745   4.336  1.1092  0.3343  0.1753
  759MOL0     H  150   6.864   6.552   4.065 -0.5091 -0.1395 -0.4431
  759MOL0     H  151   6.740   6.394   4.190  0.3365 -0.8308  0.1618
  759MOL0     H  152   6.342   6.431   4.332 -3.7405  1.2875  0.4722
  759MOL0     H  153   6.121   6.319   4.393  0.2306  0.6170  0.0577
  759MOL0     H  154   6.176   6.169   4.748 -0.7904 -0.1569  1.5357
  759MOL0     H  155   6.175   6.000   4.739 -0.1016 -1.5898 -2.8454
  759MOL0     H  156   5.929   6.003   4.681  0.0579  3.0606 -4.0196
  759MOL0     H  157   5.926   6.175   4.701 -0.7004 -0.7012  1.0167
  759MOL0     H  158   5.998   6.146   4.941  1.1242 -0.6000  0.5197
  759MOL0     H  159   5.992   5.966   4.911 -0.3657 -1.5380 -1.2102
  759MOL0     H  160   5.743   6.122   4.843  1.3215  0.3670 -0.7889
  759MOL0     H  161   5.760   5.955   4.864  1.3856 -0.4460 -1.3897
  759MOL0     H  162   5.792   6.141   5.109  2.7269  0.0191 -1.1226
  759MOL0     H  163   5.815   5.974   5.114 -1.1455  0.1610  0.4004
  759MOL0     H  164   5.597   5.914   5.033 -1.9072 -0.6671  2.3130
  759MOL0     H  165   5.559   6.094   5.010 -0.8909  1.3072  3.1942
  759MOL0     H  166   5.653   5.985   5.277  0.4923 -1.2860 -2.2725
  759MOL0     H  167   5.573   6.137   5.235  0.0204  0.2913 -2.2270
  759MOL0     H  168   5.473   5.948   5.359 -3.0021  3.2258  1.4927
  759MOL0     H  169   5.433   5.866   5.193  0.2873 -0.0705  0.3990
  759MOL0     H  170   6.350   5.978   4.548 -0.2067  0.2978 -0.4436
  759MOL0     H  171   6.548   6.085   4.448 -0.8674 -1.1450  2.8239
  759MOL0     H  172   6.755   6.678   4.536  2.2127  3.4361 -0.5171
  759MOL0     H  173   6.907   6.810   4.390  0.3392  0.0648  0.0512
  759MOL0     H  174   7.862   6.007   4.739  0.4581  1.9420  1.9678
  759MOL0     H  175   7.924   5.775   4.746 -1.3727  0.5890 -1.9672
  759MOL0     H  176   8.237   5.445   4.623  0.6146  1.0567  1.3455
  759MOL0     H  177   8.346   5.216   4.658 -1.3125 -0.0820  0.4141
  759MOL0     H  178   8.515   5.167   5.007  1.7814  0.7539 -2.1522
  759MOL0     H  179   8.552   5.092   4.866  0.0990  0.6218  0.8360
  759MOL0     H  180   8.571   4.949   5.096 -0.4305 -0.4362 -0.2078
  759MOL0     H  181   8.406   4.923   5.057  0.7657 -1.4825  1.2753
  759MOL0     H  182   8.639   4.846   4.869 -0.0504 -2.0626  0.0017
  759MOL0     H  183   8.476   4.860   4.830 -2.1040  1.2644  1.2909
  759MOL0     H  184   8.580   4.665   5.043 -1.9203  0.0695  1.2407
  759MOL0     H  185   8.422   4.661   4.967  0.1745 -1.2762 -0.2521
  759MOL0     H  186   8.640   4.501   4.660  0.1172  1.1037 -0.3106
  759MOL0     H  187   8.203   5.186   5.044 -0.0416 -2.2065 -2.3464
  759MOL0     H  188   8.086   5.402   5.022 -1.6466 -0.5619  0.3798
  760MOL0     O  189   9.692   7.471   6.779  0.1718 -0.3254  0.1972
  760MOL0     C  190   9.664   7.585   6.764 -0.6638 -1.4488 -0.0247
  760MOL0     O  191   9.557   7.645   6.824  1.0439  0.6400 -0.5471
  760MOL0     C  192   9.481   7.585   6.924  0.0736 -0.1812 -0.1821
  760MOL0     C  193   9.354   7.560   6.881  0.1750 -0.4071 -0.6945
  760MOL0     C  194   9.262   7.501   6.962  0.8023 -0.0556 -0.1429
  760MOL0     C  195   9.303   7.469   7.093  0.7919  0.1527  0.7088
  760MOL0     O  196   9.204   7.402   7.160 -0.1302  1.0209 -0.0217
  760MOL0     C  197   9.244   7.304   7.253 -0.1107  0.3060  0.2984
  760MOL0     C  198   9.120   7.244   7.315 -0.5020 -0.8223  0.6402
  760MOL0     C  199   9.066   7.139   7.219  0.1286 -0.3436  0.1259
  760MOL0     C  200   8.972   7.211   7.125  0.0747 -0.2494 -0.3806
  760MOL0     C  201   8.926   7.137   6.997 -0.5250  0.3116  0.2758
  760MOL0     C  202   8.827   7.028   7.010  0.8722 -0.2911 -0.4765
  760MOL0     C  203   8.776   7.005   6.859 -0.3946 -0.2606  0.1781
  760MOL0     C  204   8.680   6.888   6.853 -1.1223  0.0271  0.9345
  760MOL0     N  205   8.550   6.913   6.919  0.8088  0.6376 -1.0907
  760MOL0     C  206   8.427   6.933   6.857 -0.2829 -0.7372  0.7481
  760MOL0     C  207   8.334   6.937   6.952 -0.5416 -0.8187 -0.1221
  760MOL0     C  208   8.183   6.966   6.952 -0.0391  0.2865 -1.1175
  760MOL0     C  209   8.153   7.101   6.909 -0.0224 -0.6871  0.1652
  760MOL0     C  210   8.027   7.131   6.851  1.4921  0.8721  0.2703
  760MOL0     C  211   7.918   7.112   6.959  0.3305 -0.1889 -0.0270
  760MOL0     O  212   7.792   7.153   6.909  0.9295  0.6474  0.4268
  760MOL0     C  213   7.675   7.117   6.970 -0.6870  0.4344 -0.6379
  760MOL0     C  214   7.576   7.211   6.963 -0.1827  0.3979 -0.7544
  760MOL0     C  215   7.449   7.181   7.023 -0.4500 -0.8953 -0.3461
  760MOL0     C  216   7.433   7.077   7.112 -1.5467 -0.9787 -0.3924
  760MOL0     C  217   7.309   7.050   7.184 -0.3692 -0.0513  0.7759
  760MOL0     O  218   7.314   6.956   7.279  0.6713 -0.4056 -1.0673
  760MOL0     C  219   7.219   6.938   7.379  0.0581  0.2496 -0.1681
  760MOL0     C  220   7.179   6.810   7.410  0.1701 -0.0514  0.4919
  760MOL0     C  221   7.077   6.786   7.501  0.9952  0.1242  0.2633
  760MOL0     C  222   7.039   6.886   7.589 -0.6298  0.8226 -0.2185
  760MOL0     O  223   6.946   6.867   7.683  0.2823  0.0083  0.1131
  760MOL0     C  224   6.830   6.958   7.710  0.4583  0.3214 -0.2575
  760MOL0     C  225   6.853   7.053   7.827  0.5202 -0.6789  0.4381
  760MOL0     C  226   6.719   7.099   7.871 -0.4309 -0.0708  0.4070
  760MOL0     C  227   6.731   7.192   8.003  0.1862  1.4987  0.6311
  760MOL0     C  228   6.591   7.228   8.056  0.2344 -0.0583 -0.6021
  760MOL0     C  229   6.607   7.304   8.195  0.2669  0.4885  0.6369
  760MOL0     C  230   6.587   7.221   8.320  0.1330  1.1369  0.7871
  760MOL0     C  231   6.607   7.293   8.446 -0.1072  0.6309 -0.0213
  760MOL0    Cl  232   6.550   7.185   8.581 -0.1062 -0.2170 -0.0130
  760MOL0     C  233   7.080   7.017   7.553 -0.3901 -1.0508  0.7821
  760MOL0     C  234   7.172   7.048   7.452  0.7878 -0.0815 -0.1008
  760MOL0     O  235   7.215   7.123   7.164 -0.7827  0.8192  0.4712
  760MOL0     C  236   7.545   6.983   7.122  0.0629  0.0873  0.3627
  760MOL0     C  237   7.659   7.009   7.049  0.3079  0.8440 -0.0092
  760MOL0     N  238   8.394   6.923   7.075  0.0469 -1.2877  0.1338
  760MOL0     N  239   8.525   6.903   7.054  0.7931  0.3511 -0.1706
  760MOL0     C  240   9.439   7.480   7.134 -0.9313 -0.6515  0.4299
  760MOL0     C  241   9.527   7.544   7.052 -0.4768 -0.2562 -0.6712
  760MOL0     C  242   9.749   7.663   6.685 -0.4051 -0.6473 -0.1619
  760MOL0     C  243   9.851   7.604   6.612  0.2890 -0.5589  0.1722
  760MOL0     C  244   9.957   7.678   6.550 -0.5377 -0.0054 -0.1441
  760MOL0     C  245   9.964   7.818   6.556 -0.4842 -0.3949  0.1075
  760MOL0     O  246  10.054   7.903   6.497  0.9028  0.1856 -0.4127
  760MOL0     C  247  10.153   7.833   6.413  0.0886  0.2404  0.5607
  760MOL0     C  248  10.246   7.922   6.327 -0.3400 -0.9200  0.3015
  760MOL0     C  249  10.161   8.006   6.238  0.1197  0.2159 -0.1538
  760MOL0     C  250  10.231   8.088   6.135  0.7509 -0.7814 -0.1921
  760MOL0     C  251  10.302   8.205   6.198  0.3424  0.6669 -0.0637
  760MOL0     C  252  10.334   8.305   6.256  0.8544 -0.5317 -0.6586
  760MOL0     C  253   9.859   7.877   6.623  0.9590  0.3514 -0.2217
  760MOL0     C  254   9.756   7.801   6.691 -0.1104 -0.1285 -0.1298
  760MOL0     H  255   9.327   7.580   6.778  0.6541 -2.8171 -1.3536
  760MOL0     H  256   9.166   7.468   6.922  1.1975 -5.3427  2.3527
  760MOL0     H  257   9.293   7.363   7.330 -0.1768  2.1188 -1.0045
  760MOL0     H  258   9.316   7.235   7.207 -1.1210  1.5016 -3.4593
  760MOL0     H  259   9.052   7.327   7.335  0.4166 -0.1306  0.9720
  760MOL0     H  260   9.148   7.195   7.409  2.3666 -2.0661 -0.7412
  760MOL0     H  261   9.015   7.055   7.267  2.4246 -1.8891  0.0199
  760MOL0     H  262   9.145   7.103   7.152  1.2805 -0.2197  1.3695
  760MOL0     H  263   8.883   7.241   7.182  0.5275 -0.9728  0.7600
  760MOL0     H  264   9.006   7.308   7.087 -0.1041 -0.0251  0.0276
  760MOL0     H  265   9.017   7.109   6.943  0.5604  1.6317  1.3535
  760MOL0     H  266   8.896   7.208   6.920 -0.2178  1.6440  1.3410
  760MOL0     H  267   8.737   7.066   7.058 -0.9017 -0.0439 -3.6838
  760MOL0     H  268   8.866   6.940   7.062  0.6906 -1.0190 -1.5188
  760MOL0     H  269   8.728   7.099   6.829  0.2836 -0.1138 -0.4725
  760MOL0     H  270   8.860   6.971   6.797  0.4780  0.4240  0.9639
  760MOL0     H  271   8.728   6.801   6.898  1.4746  1.3184  0.8378
  760MOL0     H  272   8.647   6.864   6.752 -1.8504  3.1353  0.3305
  760MOL0     H  273   8.407   6.940   6.751 -1.7200  0.8705  1.0892
  760MOL0     H  274   8.139   6.957   7.051  0.2763  2.5497 -0.7271
  760MOL0     H  275   8.135   6.898   6.881  2.9142 -1.1904 -1.8915
  760MOL0     H  276   8.226   7.130   6.833  0.3904  1.0531  1.1670
  760MOL0     H  277   8.162   7.170   6.994  1.1620  1.9194 -1.9320
  760MOL0     H  278   8.020   7.232   6.809 -1.7135  0.4090 -0.6088
  760MOL0     H  279   8.008   7.061   6.769  2.2876  1.6788 -0.6330
  760MOL0     H  280   7.930   7.179   7.045  1.2344 -2.1573  1.4632
  760MOL0     H  281   7.919   7.007   6.989  1.0777 -1.1686 -3.1676
  760MOL0     H  282   7.592   7.300   6.903  0.1936 -0.2669 -1.6608
  760MOL0     H  283   7.366   7.248   7.004 -0.5289 -0.7776  0.3847
  760MOL0     H  284   7.227   6.723   7.368 -1.6470 -1.1951  0.6857
  760MOL0     H  285   7.046   6.683   7.515 -1.4683  0.9808  1.6069
  760MOL0     H  286   6.747   6.892   7.735 -1.2865  2.0830 -1.1915
  760MOL0     H  287   6.781   7.008   7.626 -0.4207  1.4606  0.9008
  760MOL0     H  288   6.909   7.140   7.793 -3.8101  1.0890 -3.2263
  760MOL0     H  289   6.903   7.003   7.911  1.7249 -1.0956 -0.4908
  760MOL0     H  290   6.666   7.006   7.894  0.7064 -0.5953  0.9396
  760MOL0     H  291   6.668   7.152   7.790  2.2045 -1.2797 -2.1912
  760MOL0     H  292   6.792   7.141   8.079  0.1084 -0.8296 -0.7594
  760MOL0     H  293   6.787   7.282   7.978  5.5614 -1.1237  1.7030
  760MOL0     H  294   6.523   7.142   8.058 -0.6400  0.6042 -1.0709
  760MOL0     H  295   6.536   7.300   7.995  1.0336  0.5748 -0.5907
  760MOL0     H  296   6.531   7.383   8.195 -0.0414  0.2943 -2.5126
  760MOL0     H  297   6.702   7.357   8.196 -0.2371  1.4494  2.0401
  760MOL0     H  298   6.487   7.177   8.323  1.7145 -3.2540 -1.1697
  760MOL0     H  299   6.655   7.135   8.313  0.6326  1.6651 -2.1968
  760MOL0     H  300   6.548   7.383   8.467  1.2834  2.3052 -2.7270
  760MOL0     H  301   6.713   7.320   8.456 -0.2227  1.6373 -1.2333
  760MOL0     H  302   7.061   7.093   7.628  1.0329  1.3804 -1.1564
  760MOL0     H  303   7.198   7.151   7.430 -1.7249  0.7537  0.4538
  760MOL0     H  304   7.554   6.898   7.189  0.8926 -1.9610 -2.2174
  760MOL0     H  305   7.725   6.925   7.069 -0.5486  0.5103  1.5519
  760MOL0     H  306   9.472   7.459   7.235  1.4091 -0.0506 -0.1463
  760MOL0     H  307   9.629   7.565   7.085 -0.1443 -0.0369 -1.8038
  760MOL0     H  308   9.856   7.495   6.606  1.2411 -0.7655  3.0834
  760MOL0     H  309  10.037   7.628   6.498 -0.0617  0.7741 -0.1744
  760MOL0     H  310  10.100   7.766   6.344 -1.9938  1.7175  0.6486
  760MOL0     H  311  10.224   7.781   6.478  1.9181  2.1344  0.1693
  760MOL0     H  312  10.302   7.988   6.394 -0.1709  0.9422 -1.5614
  760MOL0     H  313  10.321   7.860   6.276 -1.0799 -0.9047 -0.8332
  760MOL0     H  314  10.090   8.067   6.294 -0.1671  1.3088 -1.6408
  760MOL0     H  315  10.099   7.937   6.180  0.5318  0.2751 -0.6739
  760MOL0     H  316  10.308   8.020   6.097 -0.7124 -3.8927  2.0162
  760MOL0     H  317  10.167   8.124   6.053  2.7847  4.9822  0.2637
  760MOL0     H  318  10.346   8.401   6.301 -1.6849  0.4362 -1.9053
  760MOL0     H  319   9.843   7.984   6.629 -2.5775 -0.0495 -0.5444
  760MOL0     H  320   9.675   7.857   6.736 -0.4115 -0.6470 -0.0224
  761MOL0     O  321   5.522   1.474  10.233 -0.4115 -0.6691  0.4174
  761MOL0     C  322   5.563   1.588  10.260  0.8945 -0.1300  0.3075
  761MOL0     O  323   5.559   1.654  10.379  0.1664  0.9041 -0.1497
  761MOL0     C  324   5.512   1.579  10.484  0.1769  0.4858 -0.0160
  761MOL0     C  325   5.577   1.578  10.604  0.3556 -0.6480 -0.4204
  761MOL0     C  326   5.516   1.511  10.714 -0.3452  0.7543 -0.4072
  761MOL0     C  327   5.383   1.456  10.708  0.3138 -0.0012  0.1823
  761MOL0     O  328   5.306   1.400  10.809 -0.7969  0.0065  0.5457
  761MOL0     C  329   5.359   1.412  10.942 -0.6368  0.2793  0.4989
  761MOL0     C  330   5.272   1.347  11.038 -0.1784 -0.1152 -0.0519
  761MOL0     C  331   5.244   1.202  10.999 -0.0232 -0.1688 -0.9464
  761MOL0     C  332   5.169   1.150  11.121 -0.0698  0.0096 -0.7003
  761MOL0     C  333   5.162   1.005  11.099  0.1393  1.0524 -0.0115
  761MOL0     C  334   5.085   0.917  11.198  0.1182 -0.1118  0.5403
  761MOL0     C  335   4.943   0.964  11.225 -0.1972  0.5769  0.0105
  761MOL0     C  336   4.837   0.858  11.243 -0.3341 -0.1543 -1.0479
  761MOL0     N  337   4.697   0.915  11.257  0.3397 -0.0604 -0.3975
  761MOL0     C  338   4.632   0.953  11.375  0.5069  0.1228  0.6220
  761MOL0     C  339   4.533   1.038  11.326 -0.9452 -0.2107 -0.4401
  761MOL0     C  340   4.428   1.073  11.431 -0.9396  0.9475 -0.5235
  761MOL0     C  341   4.486   1.170  11.531  0.2552 -0.4471 -0.0589
  761MOL0     C  342   4.501   1.307  11.480 -0.3178  0.2990  0.7393
  761MOL0     C  343   4.518   1.405  11.595 -0.3260  0.3145 -0.1876
  761MOL0     O  344   4.624   1.370  11.680  0.3471  0.1187  0.0853
  761MOL0     C  345   4.664   1.462  11.775  1.0276 -0.0825  0.0930
  761MOL0     C  346   4.614   1.595  11.783 -0.4178  0.6907  0.3482
  761MOL0     C  347   4.660   1.679  11.878 -0.0949  0.7679 -0.2671
  761MOL0     C  348   4.751   1.635  11.976 -1.0893  0.3151 -1.0550
  761MOL0     C  349   4.810   1.712  12.093 -0.2382 -0.3838  0.0364
  761MOL0     O  350   4.861   1.665  12.209 -0.3923  0.4909 -0.1810
  761MOL0     C  351   4.903   1.762  12.291  1.0681 -0.4282 -0.1395
  761MOL0     C  352   5.030   1.822  12.264  0.1560 -0.1503  0.1249
  761MOL0     C  353   5.073   1.930  12.338  0.5775  0.2188  0.2527
  761MOL0     C  354   4.988   1.984  12.439 -0.0551 -0.2638 -0.3127
  761MOL0     O  355   5.037   2.097  12.502 -0.6519  0.1835 -0.3652
  761MOL0     C  356   4.937   2.187  12.558 -1.0673 -0.4916 -0.0703
  761MOL0     C  357   4.993   2.331  12.590  0.0456  0.5100  0.0130
  761MOL0     C  358   4.886   2.408  12.665  0.2863 -0.3517  0.3720
  761MOL0     C  359   4.756   2.443  12.577  0.6309  0.1967  0.1629
  761MOL0     C  360   4.670   2.553  12.652 -0.4131  0.2703  1.0865
  761MOL0     C  361   4.733   2.690  12.677  0.0825 -0.0587 -0.3926
  761MOL0     C  362   4.759   2.772  12.550  0.5963 -0.3839 -0.2493
  761MOL0     C  363   4.627   2.851  12.505  0.9598  0.0892 -0.2783
  761MOL0    Cl  364   4.676   2.946  12.364 -0.2342  0.0294 -0.1997
  761MOL0     C  365   4.863   1.927  12.472 -0.0724 -0.5644  0.5917
  761MOL0     C  366   4.821   1.814  12.399 -0.1895 -0.6254  1.3169
  761MOL0     O  367   4.807   1.833  12.063 -0.0971 -0.2709  0.1670
  761MOL0     C  368   4.795   1.503  11.972  0.5714  0.8590 -0.8998
  761MOL0     C  369   4.752   1.418  11.878 -0.0991 -1.9605  0.0976
  761MOL0     N  370   4.541   1.059  11.188  0.5137  0.3808 -0.0528
  761MOL0     N  371   4.644   0.984  11.152 -0.2976 -0.7734  0.1004
  761MOL0     C  372   5.312   1.468  10.588 -0.5489  0.2739  0.5270
  761MOL0     C  373   5.379   1.531  10.481  0.3779 -1.5599  1.6130
  761MOL0     C  374   5.597   1.672  10.153 -0.3269 -0.3059  0.8330
  761MOL0     C  375   5.595   1.814  10.174 -0.4686  0.4681 -0.8014
  761MOL0     C  376   5.622   1.897  10.068 -0.0794  1.4235 -0.5439
  761MOL0     C  377   5.635   1.844   9.930 -0.5494 -0.0055 -0.0552
  761MOL0     O  378   5.656   1.944   9.839 -0.4313  0.2663 -0.1362
  761MOL0     C  379   5.687   1.915   9.706  0.5110  0.6743 -0.7823
  761MOL0     C  380   5.590   1.975   9.610  0.4213 -0.2892  1.1712
  761MOL0     C  381   5.606   1.927   9.457  0.2521  0.3294 -0.1823
  761MOL0     C  382   5.734   1.986   9.399 -0.2094 -0.5794  0.1986
  761MOL0     C  383   5.745   1.932   9.258  0.3864  0.3653  0.6566
  761MOL0     C  384   5.751   1.879   9.151  1.0273  0.9926 -0.4040
  761MOL0     C  385   5.609   1.706   9.910 -0.0963 -0.6184  0.3464
  761MOL0     C  386   5.603   1.618  10.017 -0.1710  0.5546 -0.7622
  761MOL0     H  387   5.678   1.617  10.609 -1.1071  3.4268  1.0017
  761MOL0     H  388   5.566   1.512  10.810  0.6265  1.0326 -0.9113
  761MOL0     H  389   5.367   1.516  10.972 -0.7446 -0.3448  2.8568
  761MOL0     H  390   5.453   1.357  10.929 -0.0844  1.4799 -0.7978
  761MOL0     H  391   5.174   1.391  11.055 -0.2022 -0.5401  1.0218
  761MOL0     H  392   5.308   1.355  11.141  0.8014 -0.8725 -0.3212
  761MOL0     H  393   5.346   1.165  10.987  0.1089 -0.3121  0.4524
  761MOL0     H  394   5.197   1.197  10.900  2.4038  2.5310 -2.4058
  761MOL0     H  395   5.218   1.162  11.219 -2.9268 -2.4500  1.1908
  761MOL0     H  396   5.068   1.188  11.137  1.2211  2.7754  1.7001
  761MOL0     H  397   5.262   0.960  11.089 -0.8619 -0.7650 -4.4756
  761MOL0     H  398   5.106   0.991  11.006 -2.3607  1.3101  1.3701
  761MOL0     H  399   5.134   0.902  11.294  0.7170 -4.2314 -0.2102
  761MOL0     H  400   5.083   0.819  11.150 -0.2688  0.3127 -0.3471
  761MOL0     H  401   4.952   1.036  11.307 -0.0111  0.0651  0.4458
  761MOL0     H  402   4.910   1.004  11.128 -1.0388 -1.2772 -0.5153
  761MOL0     H  403   4.855   0.812  11.341 -2.7489  0.9845  0.0370
  761MOL0     H  404   4.842   0.780  11.168  1.8958 -2.2458  1.1056
  761MOL0     H  405   4.637   0.918  11.478 -0.2525  0.8315  0.9110
  761MOL0     H  406   4.397   0.985  11.488  0.3270  1.8011  1.6050
  761MOL0     H  407   4.336   1.114  11.388 -2.0898  0.5599  1.4692
  761MOL0     H  408   4.578   1.126  11.570  0.2503 -0.3865  0.0224
  761MOL0     H  409   4.412   1.175  11.612 -0.9697  0.6378 -1.1875
  761MOL0     H  410   4.590   1.306  11.416 -0.8331 -1.2174 -0.0248
  761MOL0     H  411   4.417   1.344  11.420  1.3163  1.8889 -0.7135
  761MOL0     H  412   4.423   1.404  11.650 -0.0396  1.1668  0.3422
  761MOL0     H  413   4.541   1.506  11.560  1.0937  1.1394  2.8396
  761MOL0     H  414   4.559   1.635  11.698  0.3766 -0.9755 -0.9979
  761MOL0     H  415   4.629   1.782  11.894 -2.1791  0.0451  0.7088
  761MOL0     H  416   5.101   1.786  12.190  1.4109  0.7055  0.8708
  761MOL0     H  417   5.173   1.966  12.317 -0.9566  3.6716 -2.0976
  761MOL0     H  418   4.917   2.152  12.660 -1.7484 -0.2576 -0.1188
  761MOL0     H  419   4.848   2.190  12.494 -0.9089 -0.2846 -0.2841
  761MOL0     H  420   5.023   2.382  12.498  0.3531  2.3609  1.0882
  761MOL0     H  421   5.071   2.318  12.666 -2.4383 -2.0691  2.3752
  761MOL0     H  422   4.935   2.500  12.696  1.9217  0.3776 -3.7542
  761MOL0     H  423   4.869   2.360  12.762  2.2367  1.6319  1.7965
  761MOL0     H  424   4.786   2.481  12.479  0.1698 -0.5936 -0.2930
  761MOL0     H  425   4.698   2.352  12.561  1.2433 -0.4108  1.3094
  761MOL0     H  426   4.621   2.513  12.741 -1.4747  0.5987  0.6732
  761MOL0     H  427   4.587   2.575  12.584  0.1711  1.3506  0.6983
  761MOL0     H  428   4.823   2.672  12.737 -1.5767 -0.5058  2.1071
  761MOL0     H  429   4.668   2.751  12.740  2.1419  0.6788  1.1255
  761MOL0     H  430   4.843   2.838  12.572  0.6469 -1.0746  1.8610
  761MOL0     H  431   4.794   2.709  12.468 -1.3726  0.4768 -1.8489
  761MOL0     H  432   4.604   2.915  12.590  2.0311  1.8465 -1.2520
  761MOL0     H  433   4.538   2.789  12.495  1.0486  0.0780 -1.0701
  761MOL0     H  434   4.799   1.962  12.552  1.5772 -1.3368  2.2979
  761MOL0     H  435   4.720   1.778  12.415 -0.1622 -0.2191  2.4833
  761MOL0     H  436   4.878   1.469  12.034  0.3505 -1.3191 -1.7048
  761MOL0     H  437   4.796   1.319  11.868  2.0843 -0.9295 -1.0835
  761MOL0     H  438   5.211   1.432  10.572 -0.8843  1.9261 -1.6701
  761MOL0     H  439   5.322   1.547  10.390 -3.7941 -0.3439  4.1640
  761MOL0     H  440   5.577   1.857  10.272 -0.1420 -2.1605  0.5067
  761MOL0     H  441   5.634   2.005  10.061 -0.6073  1.6129  1.1421
  761MOL0     H  442   5.690   1.808   9.688  1.7680  0.6853 -0.7312
  761MOL0     H  443   5.788   1.952   9.688  0.9491  0.4267  0.9199
  761MOL0     H  444   5.486   1.953   9.635  0.7053 -1.2145  1.6008
  761MOL0     H  445   5.608   2.082   9.625  1.1632 -0.0621 -1.0766
  761MOL0     H  446   5.525   1.960   9.392  1.7292  1.1520 -1.6743
  761MOL0     H  447   5.615   1.819   9.445 -1.6041 -0.0037  0.9918
  761MOL0     H  448   5.732   2.095   9.393  0.7489 -0.5573  0.0323
  761MOL0     H  449   5.821   1.958   9.460 -0.9866 -0.7885  1.2358
  761MOL0     H  450   5.754   1.821   9.061  2.1579 -3.0245  1.9707
  761MOL0     H  451   5.619   1.669   9.809  3.2753 -2.1466  1.0838
  761MOL0     H  452   5.588   1.512   9.998  0.1437 -0.2048  2.5660
  762MOL0     O  453   3.613   5.562   6.441  0.1470 -0.8078 -0.1234
  762MOL0     C  454   3.495   5.541   6.411 -0.2547  0.0382 -0.6598
  762MOL0     O  455   3.410   5.615   6.323  0.3150  1.3456  0.4737
  762MOL0     C  456   3.472   5.698   6.241  0.1411  0.9508  1.1720
  762MOL0     C  457   3.556   5.658   6.137  0.3273  0.0463 -0.7946
  762MOL0     C  458   3.597   5.742   6.038 -0.1050 -0.0581 -0.2490
  762MOL0     C  459   3.566   5.872   6.033 -0.0385 -0.1198  0.2528
  762MOL0     O  460   3.617   5.976   5.961 -0.0898 -0.0491  0.1269
  762MOL0     C  461   3.752   5.959   5.911 -0.0738 -0.1043  0.0643
  762MOL0     C  462   3.746   5.904   5.775  0.1683 -0.2024 -0.2924
  762MOL0     C  463   3.887   5.926   5.719  0.7024 -0.2523 -0.3785
  762MOL0     C  464   3.888   5.863   5.582 -0.9659  0.8935 -0.1014
  762MOL0     C  465   4.020   5.896   5.517 -0.3161 -0.0574  1.0353
  762MOL0     C  466   4.033   5.795   5.390  0.7662  0.3947 -0.2426
  762MOL0     C  467   4.165   5.809   5.312 -0.0551  0.5866  0.1417
  762MOL0     C  468   4.148   5.851   5.169  0.3617 -0.3220  0.2150
  762MOL0     N  469   4.081   5.977   5.154 -0.1735  0.2845  0.1852
  762MOL0     C  470   4.097   6.087   5.229  0.1564 -1.1507  0.3861
  762MOL0     C  471   3.984   6.168   5.202  0.0464  0.8654 -0.1125
  762MOL0     C  472   3.944   6.295   5.266 -0.2222 -1.0588 -0.6062
  762MOL0     C  473   3.991   6.409   5.172  0.0373 -0.6069  0.6513
  762MOL0     C  474   3.958   6.554   5.230 -1.1829  0.8210  1.2575
  762MOL0     C  475   4.035   6.672   5.180 -0.3478 -0.3183 -0.1785
  762MOL0     O  476   4.016   6.682   5.038 -0.1172  0.2054  0.3135
  762MOL0     C  477   4.083   6.767   4.953 -0.3026  0.9768 -0.8622
  762MOL0     C  478   4.134   6.890   5.001  0.2949  0.4818  0.7237
  762MOL0     C  479   4.198   6.979   4.915  1.0240  0.0808  0.7861
  762MOL0     C  480   4.194   6.958   4.769 -0.1971  0.8264  0.2830
  762MOL0     C  481   4.280   7.046   4.687  0.7141  0.0365 -0.1029
  762MOL0     O  482   4.346   7.148   4.758  0.1498 -0.2184  0.1891
  762MOL0     C  483   4.406   7.243   4.681 -0.3234  0.1470 -0.4533
  762MOL0     C  484   4.366   7.373   4.689  0.4298  0.1610  0.3151
  762MOL0     C  485   4.429   7.475   4.618 -0.3933  0.5513 -0.1625
  762MOL0     C  486   4.547   7.442   4.542  1.5990 -0.4869  0.1345
  762MOL0     O  487   4.598   7.549   4.476 -0.2325  0.2514  0.3702
  762MOL0     C  488   4.665   7.653   4.554  0.2697  0.4535  0.1709
  762MOL0     C  489   4.651   7.792   4.486 -0.4436  0.6489 -0.7552
  762MOL0     C  490   4.662   7.912   4.579 -0.0972  0.7915  0.8759
  762MOL0     C  491   4.689   8.045   4.503 -0.1145 -0.1589  0.2374
  762MOL0     C  492   4.684   8.167   4.594  0.4610  0.2451 -0.4785
  762MOL0     C  493   4.740   8.157   4.740  0.4601 -0.2106 -0.2395
  762MOL0     C  494   4.750   8.292   4.803 -0.3816 -1.3528 -0.3262
  762MOL0     C  495   4.646   8.293   4.933 -0.4930  0.2245 -0.6964
  762MOL0    Cl  496   4.483   8.234   4.914  0.4787 -0.1924  0.3643
  762MOL0     C  497   4.593   7.315   4.539 -0.6515 -0.8442 -0.4348
  762MOL0     C  498   4.518   7.212   4.604 -0.8028  0.3682 -0.3425
  762MOL0     O  499   4.269   7.038   4.563 -0.4602  0.9276 -0.7728
  762MOL0     C  500   4.128   6.846   4.719  0.4015 -0.8571 -0.0438
  762MOL0     C  501   4.071   6.757   4.817  0.3786  0.5462 -0.3299
  762MOL0     N  502   3.905   6.109   5.101 -0.2436  1.1558 -0.2374
  762MOL0     N  503   3.963   6.000   5.083 -1.1120 -0.4607 -0.7002
  762MOL0     C  504   3.476   5.914   6.128 -0.3946 -0.9902 -0.0163
  762MOL0     C  505   3.431   5.832   6.227 -0.2026  0.0921  0.0179
  762MOL0     C  506   3.427   5.424   6.483  0.2134 -0.1855 -0.2000
  762MOL0     C  507   3.286   5.409   6.469 -0.5611 -0.4343  0.3370
  762MOL0     C  508   3.216   5.299   6.514 -0.1752  0.4786 -1.0625
  762MOL0     C  509   3.288   5.193   6.579 -0.0398 -0.4362 -0.4599
  762MOL0     O  510   3.235   5.076   6.624 -0.3780 -0.8410 -0.3014
  762MOL0     C  511   3.096   5.055   6.630 -0.5524 -0.1603  0.2698
  762MOL0     C  512   3.056   4.917   6.688  1.3124  0.1015 -0.7311
  762MOL0     C  513   3.135   4.793   6.637 -0.7632 -0.0923  0.6636
  762MOL0     C  514   3.116   4.668   6.721  0.1239 -0.6583 -0.6092
  762MOL0     C  515   3.127   4.541   6.642  0.3064 -0.4919  0.2091
  762MOL0     C  516   3.120   4.429   6.590 -0.4751 -0.6223 -0.4663
  762MOL0     C  517   3.427   5.215   6.607 -0.1055  1.4705 -0.8633
  762MOL0     C  518   3.499   5.325   6.555  0.3811 -0.1094  1.0010
  762MOL0     H  519   3.577   5.552   6.135 -2.5881 -0.6171 -1.1234
  762MOL0     H  520   3.637   5.686   5.954 -1.0952 -1.0404 -0.0829
  762MOL0     H  521   3.807   5.897   5.982 -0.0001  0.9868  0.9757
  762MOL0     H  522   3.794   6.060   5.906  3.3502 -1.4215 -0.8696
  762MOL0     H  523   3.662   5.941   5.715  0.5014  1.1571  0.0529
  762MOL0     H  524   3.726   5.797   5.782  0.8159 -0.2750  0.6557
  762MOL0     H  525   3.957   5.872   5.784  1.4188  1.7487  0.5873
  762MOL0     H  526   3.915   6.031   5.725 -3.6308  1.0496  0.9377
  762MOL0     H  527   3.876   5.755   5.593  0.4561  0.5135 -1.7941
  762MOL0     H  528   3.816   5.901   5.509 -0.5889 -0.6764 -1.3435
  762MOL0     H  529   4.104   5.873   5.582  1.0914  1.7076 -0.0819
  762MOL0     H  530   4.021   6.000   5.484 -2.3797 -0.7108 -1.5220
  762MOL0     H  531   3.954   5.813   5.317  1.4187  2.4919 -0.5180
  762MOL0     H  532   4.030   5.694   5.431  0.4230 -0.0923 -1.4218
  762MOL0     H  533   4.222   5.894   5.351  0.8820 -0.1210  0.3613
  762MOL0     H  534   4.219   5.715   5.329  1.9309  1.7169  0.4703
  762MOL0     H  535   4.094   5.780   5.106 -0.9125 -0.1769  1.0997
  762MOL0     H  536   4.244   5.862   5.120  0.1903  0.2809  0.0037
  762MOL0     H  537   4.167   6.112   5.309  1.7198 -2.0457 -0.6712
  762MOL0     H  538   3.996   6.305   5.362 -1.8713 -4.3369  0.8030
  762MOL0     H  539   3.835   6.300   5.272 -0.5066 -1.7548 -3.6862
  762MOL0     H  540   3.952   6.399   5.071 -1.0375 -0.9411  1.0816
  762MOL0     H  541   4.100   6.401   5.161 -0.0079 -1.9939  0.9558
  762MOL0     H  542   3.851   6.568   5.213 -0.6701  2.0622 -1.5573
  762MOL0     H  543   3.971   6.556   5.339  1.7501 -1.5319  1.0721
  762MOL0     H  544   4.143   6.665   5.198 -0.0932  2.6139 -0.0519
  762MOL0     H  545   4.007   6.764   5.231 -1.2501 -0.1690 -0.9338
  762MOL0     H  546   4.136   6.920   5.106 -0.6516  0.5851  0.7227
  762MOL0     H  547   4.259   7.062   4.951  0.7795  0.9273 -0.6638
  762MOL0     H  548   4.272   7.391   4.740 -1.2769 -1.3620 -2.0818
  762MOL0     H  549   4.403   7.580   4.620 -0.2653  0.5764  0.5093
  762MOL0     H  550   4.772   7.641   4.572  0.0205  1.7574  3.0713
  762MOL0     H  551   4.616   7.661   4.652 -0.3941  0.1929 -0.1286
  762MOL0     H  552   4.555   7.795   4.434 -0.0266  0.1358 -1.5931
  762MOL0     H  553   4.717   7.805   4.399  0.7873  3.4779  0.5005
  762MOL0     H  554   4.749   7.885   4.639 -0.9602 -0.9446  1.4200
  762MOL0     H  555   4.570   7.902   4.638  0.8775  1.7255  2.6711
  762MOL0     H  556   4.785   8.055   4.451 -1.6080  0.0293 -2.6680
  762MOL0     H  557   4.611   8.066   4.429 -1.9077 -0.3352  2.0029
  762MOL0     H  558   4.585   8.214   4.597  0.2777 -0.1448 -0.3636
  762MOL0     H  559   4.755   8.243   4.560 -0.0753  0.7711 -0.4300
  762MOL0     H  560   4.831   8.097   4.742  2.6259  2.7699 -1.0382
  762MOL0     H  561   4.663   8.095   4.785  0.1740  0.9001  0.8498
  762MOL0     H  562   4.850   8.310   4.843 -0.7396 -0.1700  0.0873
  762MOL0     H  563   4.723   8.374   4.736  0.1580 -0.1504  0.8690
  762MOL0     H  564   4.638   8.393   4.975 -2.8382  1.6330 -4.0609
  762MOL0     H  565   4.689   8.216   4.997 -0.5635 -0.3650 -1.3385
  762MOL0     H  566   4.686   7.308   4.484  0.7376  2.7691  1.1663
  762MOL0     H  567   4.542   7.106   4.596 -1.0522  0.3456 -0.7988
  762MOL0     H  568   4.107   6.818   4.617 -2.1552 -2.3754  0.7873
  762MOL0     H  569   4.019   6.666   4.789 -0.4508  1.3831 -1.5797
  762MOL0     H  570   3.429   6.011   6.117  0.9554 -0.3268 -0.1600
  762MOL0     H  571   3.359   5.883   6.290 -0.3407 -0.0432 -0.0289
  762MOL0     H  572   3.226   5.478   6.410  0.7467  1.4040  1.0739
  762MOL0     H  573   3.112   5.290   6.486 -0.7210  2.5406  0.1484
  762MOL0     H  574   3.061   5.053   6.526 -2.1006 -1.8577  0.7728
  762MOL0     H  575   3.055   5.146   6.675 -1.5770  0.5066 -1.8514
  762MOL0     H  576   3.073   4.921   6.796  0.8038 -2.6521 -0.4653
  762MOL0     H  577   2.948   4.905   6.674  1.2898  0.3599 -0.7684
  762MOL0     H  578   3.241   4.815   6.619 -0.6197 -2.6808 -2.9593
  762MOL0     H  579   3.093   4.775   6.538  0.3509  1.3496 -0.1229
  762MOL0     H  580   3.191   4.666   6.801  0.0286 -0.9018 -0.5249
  762MOL0     H  581   3.019   4.674   6.771  0.3470  1.1050 -0.3160
  762MOL0     H  582   3.126   4.331   6.546  1.6900 -1.0083  0.5399
  762MOL0     H  583   3.464   5.146   6.682 -4.4317 -0.7157 -0.4283
  762MOL0     H  584   3.605   5.346   6.569  0.7983 -2.3981  1.7968
  763MOL0     O  585   1.530   7.606   9.559  1.0911  0.1125  0.3940
  763MOL0     C  586   1.568   7.609   9.441  0.1677  0.2204 -0.0575
  763MOL0     O  587   1.516   7.691   9.349  0.1448  0.4501  0.1568
  763MOL0     C  588   1.459   7.815   9.368 -0.8008 -0.4046 -0.6365
  763MOL0     C  589   1.405   7.865   9.256  0.3859  0.5156  0.1806
  763MOL0     C  590   1.371   8.005   9.253  0.5162  0.1763 -0.2392
  763MOL0     C  591   1.372   8.083   9.372  0.5446  0.5901 -0.2458
  763MOL0     O  592   1.306   8.201   9.375 -0.0452  0.1844  0.0065
  763MOL0     C  593   1.224   8.243   9.489  0.0589 -0.3602  0.9897
  763MOL0     C  594   1.125   8.336   9.417  0.6066 -0.6933  1.2123
  763MOL0     C  595   1.184   8.474   9.370  0.1949  0.2074  0.0939
  763MOL0     C  596   1.072   8.555   9.313 -0.5942  0.1865  0.6653
  763MOL0     C  597   1.092   8.689   9.248 -0.1054 -0.7850  0.1471
  763MOL0     C  598   1.187   8.676   9.125  0.1641  0.2637  0.1654
  763MOL0     C  599   1.197   8.807   9.051  0.0326 -0.3830 -0.5738
  763MOL0     C  600   1.276   8.917   9.123  0.1349 -0.1357 -1.0364
  763MOL0     N  601   1.229   9.054   9.092 -0.5250  0.6197 -0.1577
  763MOL0     C  602   1.138   9.127   9.160 -0.1031 -0.4457 -0.2180
  763MOL0     C  603   1.110   9.240   9.093  0.0544  0.2630  0.0125
  763MOL0     C  604   1.013   9.358   9.137 -0.0848  0.8147 -0.7756
  763MOL0     C  605   1.053   9.422   9.261  0.0893 -0.8134 -0.2858
  763MOL0     C  606   1.172   9.512   9.220  0.2199  0.2520 -0.1997
  763MOL0     C  607   1.249   9.573   9.334 -0.9085 -1.1632  0.0033
  763MOL0     O  608   1.369   9.622   9.264 -0.0378 -0.0801 -0.3419
  763MOL0     C  609   1.478   9.666   9.337 -0.3540  0.2225  0.3314
  763MOL0     C  610   1.505   9.636   9.468  0.2250 -0.4283 -0.0148
  763MOL0     C  611   1.612   9.686   9.548  0.0675  0.8833  0.4606
  763MOL0     C  612   1.693   9.774   9.486 -0.1070 -0.4280  0.7957
  763MOL0     C  613   1.813   9.827   9.549 -0.0114  0.4933  0.1801
  763MOL0     O  614   1.882   9.922   9.474 -0.1527 -0.4337 -0.3725
  763MOL0     C  615   1.969  10.004   9.550 -0.7004  0.1618 -0.8344
  763MOL0     C  616   1.936  10.114   9.628  0.0845  0.6061  0.3779
  763MOL0     C  617   2.035  10.193   9.690  0.2715  0.4681 -0.2038
  763MOL0     C  618   2.172  10.160   9.688 -0.2204 -0.3404  0.4059
  763MOL0     O  619   2.263  10.246   9.745  0.0279 -0.6280  0.6631
  763MOL0     C  620   2.223  10.363   9.809 -0.7470 -1.0331 -0.4149
  763MOL0     C  621   2.353  10.444   9.859  0.6072  1.1602 -0.5690
  763MOL0     C  622   2.450  10.503   9.755 -0.6258  0.7512 -0.0685
  763MOL0     C  623   2.565  10.584   9.828 -0.1715 -0.3041  0.2511
  763MOL0     C  624   2.636  10.681   9.729 -0.0577 -0.2094 -0.4643
  763MOL0     C  625   2.708  10.791   9.814 -1.1708  0.6673  0.7903
  763MOL0     C  626   2.806  10.879   9.735  0.9450  0.3754  0.4614
  763MOL0     C  627   2.884  10.965   9.834 -0.6862  0.4086  0.9502
  763MOL0    Cl  628   3.038  11.014   9.754 -0.2041 -0.0806  0.2641
  763MOL0     C  629   2.202  10.042   9.624  0.8570  1.2302  0.1674
  763MOL0     C  630   2.103   9.964   9.549  0.8325 -0.4944  0.1739
  763MOL0     O  631   1.838   9.795   9.662  0.6690 -0.2332 -0.2795
  763MOL0     C  632   1.665   9.824   9.356  0.9502 -0.6800 -0.1387
  763MOL0     C  633   1.563   9.773   9.278  0.0272  0.7189 -1.0494
  763MOL0     N  634   1.203   9.242   8.990 -0.4671  0.5201 -0.6833
  763MOL0     N  635   1.273   9.134   8.993  0.4792  0.2915 -0.8585
  763MOL0     C  636   1.410   8.021   9.493  0.5388  0.1569  0.0399
  763MOL0     C  637   1.468   7.896   9.485  0.2691 -0.7766 -0.0571
  763MOL0     C  638   1.681   7.512   9.403 -0.2060 -1.1776  1.1098
  763MOL0     C  639   1.736   7.410   9.488  0.0142 -0.8080  0.9485
  763MOL0     C  640   1.842   7.334   9.446 -0.6315 -0.2516  0.2171
  763MOL0     C  641   1.902   7.344   9.320 -0.3744 -0.8245 -0.5631
  763MOL0     O  642   2.004   7.262   9.299 -0.3255  0.1802 -0.0427
  763MOL0     C  643   2.042   7.247   9.160 -0.4845 -0.9205  0.3102
  763MOL0     C  644   2.137   7.136   9.130 -0.3818  0.5860 -0.1739
  763MOL0     C  645   2.065   7.007   9.132  1.1804 -0.5627  0.2234
  763MOL0     C  646   2.154   6.884   9.108 -0.1467  0.4553  0.3776
  763MOL0     C  647   2.291   6.874   9.161  0.3097 -1.2249  0.3703
  763MOL0     C  648   2.403   6.849   9.210 -0.0429  0.0985  0.0940
  763MOL0     C  649   1.839   7.431   9.229 -0.6717  0.7728  0.5400
  763MOL0     C  650   1.734   7.511   9.275  0.4193 -0.1170 -0.3674
  763MOL0     H  651   1.395   7.793   9.175 -0.5295  0.4059  0.3801
  763MOL0     H  652   1.319   8.049   9.169  1.4771 -0.2648 -1.0740
  763MOL0     H  653   1.285   8.295   9.563  0.1404  4.6388 -2.1309
  763MOL0     H  654   1.172   8.157   9.533 -2.5501 -0.4668 -1.9208
  763MOL0     H  655   1.049   8.347   9.494  1.6762 -4.4830  3.0946
  763MOL0     H  656   1.077   8.291   9.330 -1.1533  0.0874  1.7341
  763MOL0     H  657   1.259   8.451   9.295  1.0566  0.5347  0.8319
  763MOL0     H  658   1.231   8.526   9.455  0.6305  0.2460 -0.1707
  763MOL0     H  659   1.018   8.495   9.239 -2.7123  1.3869  1.1631
  763MOL0     H  660   0.998   8.569   9.392  0.1921  0.0541  1.4376
  763MOL0     H  661   1.143   8.762   9.313  1.1722  1.4552 -3.1105
  763MOL0     H  662   1.001   8.741   9.217  2.2971  2.8444 -1.5000
  763MOL0     H  663   1.154   8.597   9.057  1.6870 -0.5642  0.3268
  763MOL0     H  664   1.284   8.648   9.169 -0.3498 -0.5809  0.8163
  763MOL0     H  665   1.239   8.784   8.953  0.1968 -0.4833 -0.4813
  763MOL0     H  666   1.094   8.842   9.042 -0.4654 -1.6298 -0.0144
  763MOL0     H  667   1.374   8.909   9.074  0.7569  1.5817 -0.1973
  763MOL0     H  668   1.288   8.913   9.232  3.0241 -1.6122 -1.2914
  763MOL0     H  669   1.088   9.086   9.247  0.3055  0.5994  0.5366
  763MOL0     H  670   0.911   9.322   9.148 -0.2692  1.7064  0.7348
  763MOL0     H  671   1.017   9.429   9.054 -1.7718  0.3673 -1.2603
  763MOL0     H  672   1.081   9.346   9.335 -0.4061 -0.2394  0.5129
  763MOL0     H  673   0.975   9.485   9.305  0.3238  0.1557 -1.2244
  763MOL0     H  674   1.251   9.464   9.161 -0.1058  0.5739 -0.9187
  763MOL0     H  675   1.126   9.575   9.143 -3.2495 -1.6082  0.1661
  763MOL0     H  676   1.284   9.503   9.410  4.2329  1.8771  0.8695
  763MOL0     H  677   1.181   9.642   9.386 -2.1123 -2.9891  0.9656
  763MOL0     H  678   1.436   9.569   9.517 -0.9183  0.5947 -0.1487
  763MOL0     H  679   1.634   9.647   9.647  0.6206 -0.6873 -0.2459
  763MOL0     H  680   1.837  10.158   9.617  0.2832  0.6816 -1.4707
  763MOL0     H  681   1.998  10.276   9.750 -1.9000 -0.7509  0.2329
  763MOL0     H  682   2.156  10.345   9.894 -1.1033 -0.0442 -0.4739
  763MOL0     H  683   2.161  10.433   9.752  0.3588  1.7665  1.6307
  763MOL0     H  684   2.397  10.379   9.935  0.6300 -2.1562 -3.1654
  763MOL0     H  685   2.320  10.533   9.913  2.6664  1.2684  0.5957
  763MOL0     H  686   2.398  10.565   9.682  3.1407  1.9403 -1.9946
  763MOL0     H  687   2.491  10.417   9.701 -0.8807 -0.3413  1.3958
  763MOL0     H  688   2.526  10.647   9.908  3.0862  0.5905  1.2576
  763MOL0     H  689   2.652  10.530   9.866  1.9748  3.3721  1.1017
  763MOL0     H  690   2.574  10.742   9.663 -1.0995  0.0370  0.6990
  763MOL0     H  691   2.714  10.631   9.672  0.8590  1.4590 -0.7641
  763MOL0     H  692   2.773  10.737   9.884 -0.7929  1.7652  1.3067
  763MOL0     H  693   2.636  10.851   9.871 -3.6834 -0.4236 -1.0557
  763MOL0     H  694   2.883  10.819   9.685  3.3850  2.8037  1.0576
  763MOL0     H  695   2.747  10.941   9.667  0.2166 -0.1260  0.6297
  763MOL0     H  696   2.905  10.902   9.921 -3.1033  1.3116  2.2952
  763MOL0     H  697   2.832  11.047   9.884  2.1295  0.9716  3.2489
  763MOL0     H  698   2.301  10.002   9.639 -0.6654 -3.0337  0.3322
  763MOL0     H  699   2.127   9.879   9.486 -1.4500  0.9025 -2.8114
  763MOL0     H  700   1.727   9.902   9.312  1.6178 -0.3967  1.2728
  763MOL0     H  701   1.561   9.830   9.185  4.2590  0.4666 -1.5181
  763MOL0     H  702   1.418   8.075   9.587 -0.2747  0.4516 -0.0479
  763MOL0     H  703   1.515   7.855   9.574  0.5008  1.5727  0.9827
  763MOL0     H  704   1.678   7.401   9.579 -0.6640  1.5705  0.8249
  763MOL0     H  705   1.871   7.258   9.517 -0.1046 -0.2087  0.0538
  763MOL0     H  706   2.098   7.337   9.133  0.4410 -1.8763 -1.1005
  763MOL0     H  707   1.952   7.238   9.099 -2.2460  0.9587  2.4279
  763MOL0     H  708   2.185   7.158   9.034  0.2131 -3.3816 -0.9710
  763MOL0     H  709   2.218   7.136   9.203 -1.6457 -0.0396  1.2965
  763MOL0     H  710   1.974   7.019   9.073 -1.8576  2.2342  4.8666
  763MOL0     H  711   2.027   7.005   9.234  1.7514 -1.1437  0.4328
  763MOL0     H  712   2.099   6.797   9.145  0.0966  0.0083 -0.2728
  763MOL0     H  713   2.160   6.874   8.999 -1.2762 -0.5842  0.3786
  763MOL0     H  714   2.507   6.847   9.236  0.4841  2.3367 -1.4969
  763MOL0     H  715   1.872   7.424   9.126  0.2025 -0.8614  0.8843
  763MOL0     H  716   1.706   7.600   9.220  0.2240 -2.0396 -3.6326
  764MOL0     O  717   9.954   3.448   3.971  0.2577  0.1024  0.0699
  764MOL0     C  718   9.923   3.331   3.976 -0.8060 -0.0661 -0.4635
  764MOL0     O  719   9.845   3.274   4.073  1.3839  0.2887 -0.0924
  764MOL0     C  720   9.818   3.348   4.187  0.1155  0.0054 -0.1853
  764MOL0     C  721   9.684   3.345   4.235  0.0274  0.2486  0.7714
  764MOL0     C  722   9.653   3.415   4.344  0.5648  0.5737 -0.6813
  764MOL0     C  723   9.743   3.477   4.428 -0.5569 -0.0888  0.7675
  764MOL0     O  724   9.709   3.515   4.553  0.4698 -0.2320 -0.0518
  764MOL0     C  725   9.652   3.647   4.580 -1.3654 -0.4538 -0.2936
  764MOL0     C  726   9.741   3.767   4.577 -0.1139 -0.6670 -0.8676
  764MOL0     C  727   9.832   3.782   4.699 -0.3772  0.1320 -0.3073
  764MOL0     C  728   9.745   3.850   4.811 -0.5961  0.2359  1.1853
  764MOL0     C  729   9.757   4.005   4.799  0.6422 -0.1162 -0.3256
  764MOL0     C  730   9.888   4.054   4.860  1.0586 -0.3943 -0.1752
  764MOL0     C  731   9.919   4.199   4.826  1.0468  0.0820 -0.2352
  764MOL0     C  732  10.065   4.250   4.855 -0.0441 -0.4417 -0.2422
  764MOL0     N  733  10.082   4.266   5.001  0.8150 -0.3893  0.4980
  764MOL0     C  734  10.125   4.169   5.088 -0.7214 -0.1767  0.5350
  764MOL0     C  735  10.116   4.228   5.212 -0.1408  0.2970 -0.2605
  764MOL0     C  736  10.145   4.152   5.341 -0.0640 -0.7058  0.2050
  764MOL0     C  737  10.132   4.228   5.475  0.5968  0.1899 -0.6505
  764MOL0     C  738  10.131   4.124   5.580  0.7172 -0.0512 -0.2943
  764MOL0     C  739  10.129   4.194   5.715 -0.2085  0.1769  0.0948
  764MOL0     O  740  10.260   4.211   5.760 -0.1807  0.4137  0.4111
  764MOL0     C  741  10.324   4.108   5.831 -0.2082  0.6375 -0.5416
  764MOL0     C  742  10.252   4.007   5.910  0.2761 -0.1534 -0.6710
  764MOL0     C  743  10.326   3.925   6.005  1.1396  0.2916 -0.4831
  764MOL0     C  744  10.463   3.934   5.999 -0.9806 -0.7612  0.3294
  764MOL0     C  745  10.552   3.848   6.087 -0.3356 -0.2230 -0.5934
  764MOL0     O  746  10.651   3.762   6.035  0.3736 -0.3911  0.1667
  764MOL0     C  747  10.719   3.698   6.127  0.8434 -0.3913  0.5534
  764MOL0     C  748  10.848   3.737   6.155  0.0794  0.3809 -0.9814
  764MOL0     C  749  10.922   3.672   6.251  0.3341 -0.0435 -0.1633
  764MOL0     C  750  10.879   3.546   6.307  0.2258  0.5768  0.4398
  764MOL0     O  751  10.956   3.482   6.397  0.7514 -1.0746 -0.2941
  764MOL0     C  752  10.895   3.398   6.494 -0.4893 -0.0015 -0.1669
  764MOL0     C  753  10.987   3.405   6.613 -0.1531 -0.6657 -0.1855
  764MOL0     C  754  10.978   3.268   6.684  0.0221  0.0950 -0.0418
  764MOL0     C  755  11.115   3.243   6.760  0.6763 -0.1409 -1.1642
  764MOL0     C  756  11.117   3.099   6.829 -0.8404 -0.1555  0.4882
  764MOL0     C  757  10.995   3.051   6.910  0.7718 -0.7823  0.0256
  764MOL0     C  758  11.015   2.914   6.963 -0.1309  0.6061 -0.9120
  764MOL0     C  759  10.920   2.867   7.076 -0.1514  0.5460  0.3940
  764MOL0    Cl  760  10.918   2.996   7.209 -0.1777 -0.2169 -0.0057
  764MOL0     C  761  10.756   3.489   6.256  0.4928  0.3196  0.0802
  764MOL0     C  762  10.669   3.568   6.174 -0.5036 -0.2983  1.0056
  764MOL0     O  763  10.507   3.845   6.202 -0.3055 -0.2672 -0.0952
  764MOL0     C  764  10.520   4.036   5.928 -0.6855  0.2316 -1.0942
  764MOL0     C  765  10.460   4.125   5.846  0.3131  0.1296 -0.1786
  764MOL0     N  766  10.061   4.352   5.192 -0.5232 -0.0694  1.2112
  764MOL0     N  767  10.036   4.370   5.072  0.7927  0.4572 -0.2196
  764MOL0     C  768   9.876   3.473   4.390  0.5917 -0.4986 -0.4303
  764MOL0     C  769   9.911   3.412   4.273 -0.6474 -0.0712  0.2025
  764MOL0     C  770   9.960   3.236   3.868 -0.0637 -1.0156 -0.1166
  764MOL0     C  771  10.057   3.270   3.764 -0.7630  0.1064 -0.6467
  764MOL0     C  772  10.108   3.188   3.672  0.2258  1.4299 -0.8132
  764MOL0     C  773  10.073   3.050   3.675 -0.0983 -0.3596  1.6971
  764MOL0     O  774  10.125   2.962   3.583 -0.7515  0.6101  0.6272
  764MOL0     C  775  10.133   3.014   3.445  1.3346 -0.7977  0.0729
  764MOL0     C  776  10.195   2.923   3.349  0.8520 -0.2762  0.5571
  764MOL0     C  777  10.166   2.961   3.205  1.2000  0.7612 -0.2321
  764MOL0     C  778  10.230   2.863   3.109 -0.7063  0.5486  0.9139
  764MOL0     C  779  10.204   2.875   2.968  0.0805 -0.7739  0.1011
  764MOL0     C  780  10.191   2.887   2.845  0.6711 -0.0637 -0.3460
  764MOL0     C  781   9.995   3.006   3.782  0.2939  0.3971 -0.1630
  764MOL0     C  782   9.946   3.099   3.875  0.8184 -1.4057  0.6170
  764MOL0     H  783   9.607   3.299   4.175  0.0988 -2.9618  2.8881
  764MOL0     H  784   9.547   3.411   4.369  0.5700  3.5135  0.1323
  764MOL0     H  785   9.611   3.646   4.682 -2.0649  0.8731 -0.5469
  764MOL0     H  786   9.564   3.656   4.516 -1.6030  1.8691  0.2618
  764MOL0     H  787   9.678   3.857   4.574 -0.4438 -0.9010 -1.1140
  764MOL0     H  788   9.801   3.766   4.486 -0.1161  3.1474 -1.0666
  764MOL0     H  789   9.920   3.843   4.678 -0.8992  0.8766 -0.3794
  764MOL0     H  790   9.870   3.687   4.738 -1.6538 -0.3941 -0.2755
  764MOL0     H  791   9.643   3.810   4.806 -0.3237 -0.4782 -4.0661
  764MOL0     H  792   9.779   3.830   4.913 -0.4770  1.4006  1.3837
  764MOL0     H  793   9.679   4.052   4.860  0.3059  1.6640 -2.0524
  764MOL0     H  794   9.745   4.033   4.694 -2.2060 -0.0193 -0.0341
  764MOL0     H  795   9.971   3.997   4.817  0.9718  1.9199 -3.8931
  764MOL0     H  796   9.888   4.049   4.969  2.1166 -0.6833 -0.1732
  764MOL0     H  797   9.900   4.227   4.722  2.1423 -0.0113 -0.4714
  764MOL0     H  798   9.842   4.253   4.881 -0.0170 -0.5927 -1.0093
  764MOL0     H  799  10.067   4.350   4.810  0.8568  1.0386  2.8004
  764MOL0     H  800  10.140   4.179   4.818 -0.3785 -1.2571  0.6243
  764MOL0     H  801  10.167   4.073   5.060  0.3790  0.6672 -0.8696
  764MOL0     H  802  10.236   4.094   5.355  2.5891  3.3576  1.8792
  764MOL0     H  803  10.073   4.070   5.343  1.3856 -2.0013  0.5191
  764MOL0     H  804  10.035   4.277   5.486  0.1706 -0.8164  0.1239
  764MOL0     H  805  10.213   4.300   5.491  1.6265 -1.1892  0.5468
  764MOL0     H  806  10.036   4.070   5.576  0.8237 -0.5768  2.6367
  764MOL0     H  807  10.215   4.055   5.575  0.0686 -0.8145 -1.0743
  764MOL0     H  808  10.074   4.127   5.781 -0.1367 -1.7086 -1.6313
  764MOL0     H  809  10.076   4.289   5.705  0.8363  0.6993 -0.7567
  764MOL0     H  810  10.146   3.986   5.903  0.4070 -2.3206  1.9814
  764MOL0     H  811  10.283   3.860   6.080  0.0372 -0.5829 -1.8234
  764MOL0     H  812  10.880   3.828   6.104  0.3647  1.0926  0.4288
  764MOL0     H  813  11.012   3.725   6.279  0.8156 -1.0218  0.1936
  764MOL0     H  814  10.892   3.299   6.447  0.3758  0.1317 -0.5277
  764MOL0     H  815  10.795   3.430   6.523  0.8685  1.7854  3.1646
  764MOL0     H  816  10.957   3.490   6.675  1.3697 -0.3071  0.1014
  764MOL0     H  817  11.092   3.430   6.594  0.3226 -0.4091  2.3512
  764MOL0     H  818  10.982   3.198   6.600  0.7798  0.4055 -0.2672
  764MOL0     H  819  10.885   3.256   6.740 -1.2935  0.7691 -1.9782
  764MOL0     H  820  11.191   3.246   6.682 -1.5910  1.7810 -3.4831
  764MOL0     H  821  11.137   3.326   6.828 -1.3800 -1.1353  0.8983
  764MOL0     H  822  11.220   3.100   6.864  0.1608 -0.9963 -2.1483
  764MOL0     H  823  11.115   3.027   6.747 -1.3073 -0.4285  0.7335
  764MOL0     H  824  10.915   3.051   6.836 -0.4131  1.4659  1.2024
  764MOL0     H  825  10.963   3.122   6.987 -1.5974 -0.7275 -0.9215
  764MOL0     H  826  11.015   2.834   6.888 -0.7049 -1.1019  0.8120
  764MOL0     H  827  11.114   2.910   7.010 -0.6283 -1.1216  0.0816
  764MOL0     H  828  10.960   2.773   7.113 -0.3222  0.6506  0.8569
  764MOL0     H  829  10.815   2.844   7.055  0.2261 -0.9072  0.0511
  764MOL0     H  830  10.733   3.385   6.277  1.4047  0.0868 -0.0439
  764MOL0     H  831  10.583   3.524   6.125 -1.6123  3.1886 -0.5041
  764MOL0     H  832  10.622   4.061   5.954 -0.3597 -2.7146  0.8814
  764MOL0     H  833  10.502   4.208   5.789  1.5403 -0.3716 -0.0203
  764MOL0     H  834   9.951   3.517   4.455  2.4344  0.5415 -3.0964
  764MOL0     H  835  10.015   3.432   4.249 -0.5104 -0.1373  0.7195
  764MOL0     H  836  10.081   3.376   3.759  3.4168 -0.4762  2.0355
  764MOL0     H  837  10.175   3.239   3.604 -1.2559  3.8285 -0.6031
  764MOL0     H  838  10.184   3.108   3.423  2.7376 -1.7692 -0.9855
  764MOL0     H  839  10.029   3.030   3.413  0.9202 -1.8617  0.8528
  764MOL0     H  840  10.301   2.924   3.377  0.3871 -1.0594  2.4760
  764MOL0     H  841  10.150   2.828   3.378  3.3012 -0.9039  2.6357
  764MOL0     H  842  10.208   3.062   3.193  0.5137  0.9654 -1.0466
  764MOL0     H  843  10.059   2.956   3.184  0.8323 -1.8188  1.7608
  764MOL0     H  844  10.336   2.888   3.118  0.6015 -1.7626 -4.5525
  764MOL0     H  845  10.219   2.761   3.145  4.5297 -0.0221  1.6383
  764MOL0     H  846  10.178   2.902   2.740 -0.3211  3.6490  0.1691
  764MOL0     H  847   9.972   2.901   3.799  1.2486 -0.3866 -3.2102
  764MOL0     H  848   9.887   3.058   3.957 -0.8997 -2.2217 -0.9636
  765MOL0     O  849   3.652   0.221   7.698  0.0790 -0.0516  0.4307
  765MOL0     C  850   3.569   0.161   7.626  0.3001 -0.2441 -0.9008
  765MOL0     O  851   3.610   0.084   7.511 -0.0523 -1.5033 -0.6246
  765MOL0     C  852   3.745   0.075   7.473 -0.1538  0.5591 -0.1389
  765MOL0     C  853   3.829   0.190   7.465  0.2069 -1.0078  0.1376
  765MOL0     C  854   3.959   0.166   7.434 -0.0753  0.9034  0.4205
  765MOL0     C  855   4.020   0.039   7.418 -0.3387 -0.0906 -0.3483
  765MOL0     O  856   4.155   0.023   7.402 -0.0990  0.2535 -0.3817
  765MOL0     C  857   4.197   0.005   7.257  0.0894 -0.1008 -0.6053
  765MOL0     C  858   4.350  -0.013   7.245 -0.4669  1.1902 -0.2692
  765MOL0     C  859   4.439   0.114   7.280  0.4379 -0.7010  0.9908
  765MOL0     C  860   4.490   0.185   7.160 -0.9258 -0.4235 -0.3652
  765MOL0     C  861   4.555   0.318   7.204  0.2736  0.3072 -0.2400
  765MOL0     C  862   4.675   0.298   7.301 -0.9250 -0.7345  0.5048
  765MOL0     C  863   4.784   0.411   7.281 -0.5505  0.4152 -0.0151
  765MOL0     C  864   4.874   0.414   7.411 -0.4873  0.0358 -1.1341
  765MOL0     N  865   4.879   0.299   7.499  0.2621 -0.8749  0.3615
  765MOL0     C  866   4.927   0.174   7.484 -0.8302  0.0332  1.5702
  765MOL0     C  867   4.894   0.102   7.594 -0.3282 -0.1140  1.1485
  765MOL0     C  868   4.941  -0.040   7.625  0.0073  0.0559  0.9754
  765MOL0     C  869   5.085  -0.032   7.675  0.6352  0.5606  0.5443
  765MOL0     C  870   5.133  -0.166   7.720  0.1139  0.6822 -0.0303
  765MOL0     C  871   5.150  -0.263   7.607  0.7258  0.1127 -0.5175
  765MOL0     O  872   5.196  -0.199   7.485  0.2768 -0.1476  0.4107
  765MOL0     C  873   5.326  -0.161   7.481 -0.0127 -1.0607  0.7561
  765MOL0     C  874   5.430  -0.226   7.540  0.2738 -0.3974 -0.2340
  765MOL0     C  875   5.560  -0.181   7.520 -0.8045  0.7074  0.5772
  765MOL0     C  876   5.589  -0.069   7.436  0.7036 -0.0243  0.0931
  765MOL0     C  877   5.726  -0.017   7.418  0.4088 -0.9406  0.1407
  765MOL0     O  878   5.740   0.102   7.344 -0.6069 -0.0766  0.3648
  765MOL0     C  879   5.871   0.131   7.286  0.1680 -0.8077 -0.4263
  765MOL0     C  880   5.976   0.044   7.261 -0.2300  0.7995 -1.0468
  765MOL0     C  881   6.096   0.089   7.195  1.1343 -0.8362 -0.5850
  765MOL0     C  882   6.122   0.225   7.178 -0.1223  0.1870  0.5547
  765MOL0     O  883   6.229   0.279   7.126  0.2793  0.1170  0.2669
  765MOL0     C  884   6.342   0.237   7.201 -0.7225  0.9855  0.3164
  765MOL0     C  885   6.468   0.257   7.121  0.0757 -0.4260  0.2283
  765MOL0     C  886   6.452   0.380   7.019  1.0084  0.5514 -0.3893
  765MOL0     C  887   6.579   0.408   6.944  1.2360 -0.2359  0.1833
  765MOL0     C  888   6.561   0.517   6.836 -0.1964 -0.7289 -0.1504
  765MOL0     C  889   6.515   0.652   6.885 -0.4186 -0.9940 -0.1056
  765MOL0     C  890   6.585   0.723   6.998 -0.4193  0.1638  0.0001
  765MOL0     C  891   6.510   0.848   7.048 -0.3609  0.0138 -0.0257
  765MOL0    Cl  892   6.454   0.968   6.924 -0.3840 -0.3585 -0.5338
  765MOL0     C  893   6.018   0.311   7.210  0.0055 -0.1132 -0.0945
  765MOL0     C  894   5.897   0.267   7.258  0.2523  0.9448  0.3629
  765MOL0     O  895   5.820  -0.072   7.475 -0.5382 -0.2690 -0.1892
  765MOL0     C  896   5.484  -0.001   7.383  0.9052 -0.9882  0.2707
  765MOL0     C  897   5.349  -0.050   7.404 -0.2017 -1.1224 -0.8754
  765MOL0     N  898   4.835   0.189   7.682 -0.3360 -1.1083  0.6523
  765MOL0     N  899   4.828   0.309   7.623 -1.1335 -0.1580  0.1006
  765MOL0     C  900   3.938  -0.073   7.421 -0.8129  0.0946 -0.1670
  765MOL0     C  901   3.802  -0.052   7.454 -0.7883 -0.1288  0.3817
  765MOL0     C  902   3.422   0.162   7.660  0.3116  1.4799 -0.0448
  765MOL0     C  903   3.374   0.245   7.750 -0.4893  0.4536  0.3814
  765MOL0     C  904   3.236   0.256   7.780 -0.0623 -0.8552  0.1070
  765MOL0     C  905   3.140   0.177   7.715 -0.4319  0.1042 -0.8443
  765MOL0     O  906   3.011   0.203   7.755 -0.0197  0.0275  0.1679
  765MOL0     C  907   2.906   0.128   7.695  0.1481 -0.1089  0.4662
  765MOL0     C  908   2.777   0.140   7.766  0.1406 -0.1626 -0.9385
  765MOL0     C  909   2.739   0.292   7.780  0.6800  0.1422 -0.3522
  765MOL0     C  910   2.588   0.306   7.803 -0.1982  0.1543 -0.4647
  765MOL0     C  911   2.514   0.296   7.675 -0.2543  1.3422  0.0337
  765MOL0     C  912   2.464   0.283   7.562 -0.2685  0.1092  1.2294
  765MOL0     C  913   3.186   0.093   7.609 -0.0438  0.7662  0.1379
  765MOL0     C  914   3.324   0.082   7.589  0.1625  0.5691  0.0303
  765MOL0     H  915   3.801   0.294   7.476  0.6997 -0.6178 -1.9803
  765MOL0     H  916   4.030   0.246   7.412  2.2564 -2.0944 -4.8502
  765MOL0     H  917   4.166   0.094   7.202  0.5024  0.1454 -0.4499
  765MOL0     H  918   4.146  -0.081   7.212 -3.1370  0.0333  2.3713
  765MOL0     H  919   4.377  -0.067   7.154 -0.3491  0.5471  0.1382
  765MOL0     H  920   4.377  -0.080   7.327 -0.5169  3.3465  1.5769
  765MOL0     H  921   4.518   0.090   7.352  1.2163 -0.9185  0.0795
  765MOL0     H  922   4.368   0.182   7.329 -1.1834 -0.1927 -1.8690
  765MOL0     H  923   4.564   0.119   7.114 -0.2061 -0.7224  1.1705
  765MOL0     H  924   4.415   0.203   7.082 -1.6039  0.1061  0.3958
  765MOL0     H  925   4.485   0.379   7.262  0.7074 -0.7260  1.4447
  765MOL0     H  926   4.578   0.369   7.110  0.4284  2.1133  0.7251
  765MOL0     H  927   4.727   0.202   7.291  0.8209  0.1422  0.8164
  765MOL0     H  928   4.635   0.298   7.403  2.7509  1.3884  2.1445
  765MOL0     H  929   4.859   0.394   7.204  1.4636 -2.7457  2.3783
  765MOL0     H  930   4.734   0.508   7.270  0.6441  0.8817 -1.6395
  765MOL0     H  931   4.832   0.497   7.470 -0.5555  0.7343 -2.1404
  765MOL0     H  932   4.976   0.454   7.404 -0.4792  1.7059  4.0925
  765MOL0     H  933   4.983   0.147   7.396 -1.5381  1.0884  0.7648
  765MOL0     H  934   4.943  -0.073   7.521 -0.4921 -0.3514  1.0938
  765MOL0     H  935   4.876  -0.095   7.694 -0.8602 -0.0400  0.1053
  765MOL0     H  936   5.079   0.022   7.770 -0.9436 -0.7898  1.2599
  765MOL0     H  937   5.158   0.026   7.617  0.7603  2.9844  2.9201
  765MOL0     H  938   5.233  -0.162   7.764 -0.7769 -0.3691  2.2138
  765MOL0     H  939   5.070  -0.209   7.798  1.5980  0.9376  1.3601
  765MOL0     H  940   5.048  -0.301   7.591  1.4460 -1.8947 -0.6817
  765MOL0     H  941   5.210  -0.351   7.633  0.7493  0.3052  0.0939
  765MOL0     H  942   5.403  -0.316   7.595  1.0183  0.4103  1.5293
  765MOL0     H  943   5.646  -0.233   7.561 -0.5279  0.4421 -0.3328
  765MOL0     H  944   5.967  -0.060   7.292 -2.4435  1.7439  1.9685
  765MOL0     H  945   6.178   0.033   7.151  1.4718 -0.2637 -0.7029
  765MOL0     H  946   6.332   0.128   7.210 -2.0848  0.8746 -1.8880
  765MOL0     H  947   6.349   0.299   7.290 -0.2452 -1.1904  1.8886
  765MOL0     H  948   6.486   0.164   7.067 -1.2682 -1.8564  2.1165
  765MOL0     H  949   6.552   0.292   7.183  2.1871 -0.9421 -2.1840
  765MOL0     H  950   6.433   0.460   7.091 -0.3196  0.0278 -0.1407
  765MOL0     H  951   6.367   0.360   6.953  0.0548  0.7535  0.7449
  765MOL0     H  952   6.664   0.423   7.012  2.1570  3.8849 -1.5767
  765MOL0     H  953   6.604   0.317   6.889  0.2030  0.4753 -1.5187
  765MOL0     H  954   6.505   0.472   6.753  1.9323 -2.4262 -0.7585
  765MOL0     H  955   6.657   0.544   6.793 -0.9422  0.3603 -1.1900
  765MOL0     H  956   6.412   0.646   6.920 -0.4841  1.9280  0.5146
  765MOL0     H  957   6.509   0.715   6.796 -0.2732 -0.3958  0.2979
  765MOL0     H  958   6.594   0.655   7.084  1.7120 -0.5226 -0.7126
  765MOL0     H  959   6.686   0.747   6.963 -0.7924 -0.2321 -1.4277
  765MOL0     H  960   6.588   0.892   7.112  2.2693 -2.0317 -1.6157
  765MOL0     H  961   6.426   0.822   7.113 -2.1010 -2.5957 -3.0092
  765MOL0     H  962   6.037   0.414   7.181  0.4498  0.2812  1.5120
  765MOL0     H  963   5.817   0.337   7.281 -0.9934 -0.3373  0.0580
  765MOL0     H  964   5.504   0.088   7.324 -2.2703 -1.2571 -1.4382
  765MOL0     H  965   5.264  -0.004   7.355 -2.5408  0.1204  3.7034
  765MOL0     H  966   3.974  -0.175   7.416 -4.5395 -1.3898 -0.1246
  765MOL0     H  967   3.743  -0.137   7.488 -2.1349  0.0748 -1.2858
  765MOL0     H  968   3.444   0.317   7.791 -0.3235 -0.0472  0.9916
  765MOL0     H  969   3.208   0.332   7.853  1.9833  0.3566 -0.3193
  765MOL0     H  970   2.926   0.025   7.667  0.0894  0.2098 -0.7930
  765MOL0     H  971   2.896   0.176   7.597 -3.4363 -0.6408  0.4304
  765MOL0     H  972   2.708   0.100   7.691 -0.0631  0.4827 -1.1043
  765MOL0     H  973   2.778   0.068   7.848 -0.6858 -2.3256 -2.7067
  765MOL0     H  974   2.767   0.343   7.687 -2.4627  2.2636 -0.2678
  765MOL0     H  975   2.794   0.323   7.869  0.0901 -2.4985  1.0337
  765MOL0     H  976   2.559   0.227   7.873  1.8375 -0.1859  0.0473
  765MOL0     H  977   2.572   0.404   7.850 -0.1646 -0.4461  0.8359
  765MOL0     H  978   2.426   0.298   7.463 -2.4661 -0.2694  1.9510
  765MOL0     H  979   3.124   0.026   7.551  1.3681 -1.4000  1.0020
  765MOL0     H  980   3.345   0.014   7.507 -1.0336  2.1437 -1.6664
  766MOL0     O  981   2.737   2.473   5.838  1.0151  0.5657 -0.4620
  766MOL0     C  982   2.646   2.523   5.786 -0.0258  0.5163  1.0228
  766MOL0     O  983   2.626   2.518   5.654  0.4015 -0.6498  0.0352
  766MOL0     C  984   2.705   2.434   5.579 -0.0783 -0.4691  0.2667
  766MOL0     C  985   2.643   2.332   5.504 -0.3421  0.8703 -0.9339
  766MOL0     C  986   2.724   2.237   5.425  0.4377  0.3847  0.5290
  766MOL0     C  987   2.863   2.252   5.419  0.8051  0.9366  0.4192
  766MOL0     O  988   2.927   2.170   5.324  0.6424  0.0550  0.0682
  766MOL0     C  989   3.067   2.137   5.345  1.2046  0.0871  0.4680
  766MOL0     C  990   3.127   2.063   5.230 -0.5992  0.1910  0.0222
  766MOL0     C  991   3.277   2.032   5.259 -0.0401 -0.7742 -0.7602
  766MOL0     C  992   3.347   1.986   5.133 -0.0593  0.2693 -0.5295
  766MOL0     C  993   3.483   1.937   5.163 -0.3320  0.8910 -0.2725
  766MOL0     C  994   3.601   2.034   5.196  0.1587 -0.0332  0.4479
  766MOL0     C  995   3.737   1.975   5.221  0.1253 -0.0928  0.1446
  766MOL0     C  996   3.849   2.083   5.199 -0.4289  0.8974 -0.3538
  766MOL0     N  997   3.910   2.067   5.054 -0.3170 -0.6741 -0.2669
  766MOL0     C  998   3.841   2.005   4.951 -0.4447 -0.1382 -0.1849
  766MOL0     C  999   3.934   1.954   4.870 -0.6999  0.1407 -0.3286
  766MOL0     C 1000   3.895   1.858   4.762  0.3086 -0.3766 -0.1717
  766MOL0     C 1001   4.000   1.826   4.654  0.1447 -0.5757 -0.6752
  766MOL0     C 1002   4.066   1.943   4.583  0.2663  0.1730  0.4449
  766MOL0     C 1003   3.965   2.054   4.544 -0.2386 -0.0938 -1.1624
  766MOL0     O 1004   3.851   1.999   4.474  0.6311  0.4130  0.0253
  766MOL0     C 1005   3.870   1.972   4.342 -0.8913  0.9948  0.3326
  766MOL0     C 1006   3.931   2.056   4.245  0.0484 -0.7833  0.5811
  766MOL0     C 1007   3.955   2.014   4.117  0.0990 -0.9021 -0.9901
  766MOL0     C 1008   3.901   1.892   4.067  0.4814 -0.0307  0.1077
  766MOL0     C 1009   3.914   1.852   3.927  0.4346 -0.0240  0.4107
  766MOL0     O 1010   3.937   1.953   3.834  0.3751 -1.1360 -0.8533
  766MOL0     C 1011   3.977   1.936   3.702 -0.0987 -0.4536 -0.1737
  766MOL0     C 1012   3.989   1.814   3.632 -0.0697 -0.7180 -0.3506
  766MOL0     C 1013   4.022   1.819   3.493 -0.7605  0.0876 -0.0011
  766MOL0     C 1014   4.042   1.943   3.424 -0.5097  0.7340 -0.5439
  766MOL0     O 1015   4.076   1.963   3.290  0.9856  0.2809 -0.0492
  766MOL0     C 1016   4.116   1.843   3.209  0.6036 -0.3689 -1.1917
  766MOL0     C 1017   4.220   1.878   3.105  0.2998  0.1246  0.6691
  766MOL0     C 1018   4.307   1.749   3.065 -0.4257  0.4497 -0.7548
  766MOL0     C 1019   4.208   1.633   3.034  0.5849  0.5719  0.1977
  766MOL0     C 1020   4.280   1.530   2.950  0.7360  0.4209  0.0385
  766MOL0     C 1021   4.273   1.556   2.793 -0.1929  0.5768 -0.5199
  766MOL0     C 1022   4.129   1.518   2.735 -0.6363 -0.1931  0.3667
  766MOL0     C 1023   4.109   1.377   2.698  0.0420  0.5747 -0.3711
  766MOL0    Cl 1024   3.948   1.352   2.625  0.3543 -0.3499 -0.2628
  766MOL0     C 1025   4.035   2.060   3.500 -0.1273  0.4449  0.4325
  766MOL0     C 1026   3.995   2.060   3.639 -1.3959  0.9440 -0.5146
  766MOL0     O 1027   3.898   1.729   3.903  0.7514 -0.3794  0.0012
  766MOL0     C 1028   3.828   1.813   4.153  0.4892  1.3715 -0.6814
  766MOL0     C 1029   3.815   1.851   4.289 -0.3138 -0.7249  0.0512
  766MOL0     N 1030   4.060   1.989   4.916 -0.0659 -0.2578  0.0261
  766MOL0     N 1031   4.040   2.057   5.018  0.0410  0.3166 -0.3274
  766MOL0     C 1032   2.918   2.356   5.489 -0.8393  0.3339 -0.3480
  766MOL0     C 1033   2.846   2.450   5.567 -0.5285  0.3006  0.3507
  766MOL0     C 1034   2.569   2.623   5.860  0.1551 -1.0946 -0.6025
  766MOL0     C 1035   2.432   2.649   5.825 -0.5087 -0.5413  0.0406
  766MOL0     C 1036   2.356   2.745   5.890  0.5584 -0.3678  0.5990
  766MOL0     C 1037   2.416   2.816   5.998 -0.5120  0.4473  0.5820
  766MOL0     O 1038   2.335   2.927   6.028 -0.0280  0.0959 -0.3009
  766MOL0     C 1039   2.369   2.988   6.149 -0.5309 -0.3007  0.3200
  766MOL0     C 1040   2.264   3.079   6.207 -0.6742  0.6399  0.7346
  766MOL0     C 1041   2.116   3.030   6.230 -0.1350 -0.9414 -0.7362
  766MOL0     C 1042   2.110   2.922   6.336  0.2303  0.0868  0.5609
  766MOL0     C 1043   2.165   2.960   6.467  1.3869 -0.6002  0.0202
  766MOL0     C 1044   2.229   2.971   6.574  0.4927  0.2655 -0.0999
  766MOL0     C 1045   2.553   2.796   6.032 -0.1280  0.6291 -0.9183
  766MOL0     C 1046   2.631   2.704   5.966  1.1196 -0.0651 -0.0855
  766MOL0     H 1047   2.536   2.325   5.517  0.1014 -1.1390  3.2354
  766MOL0     H 1048   2.679   2.175   5.348 -1.7625  2.7962 -0.2626
  766MOL0     H 1049   3.079   2.067   5.429  1.5577 -3.1765 -2.0878
  766MOL0     H 1050   3.124   2.227   5.369  0.3641  1.3694 -2.0128
  766MOL0     H 1051   3.109   2.108   5.132 -0.0016 -1.5645 -0.9264
  766MOL0     H 1052   3.070   1.970   5.227  1.1795 -0.9340 -0.4353
  766MOL0     H 1053   3.258   1.955   5.334 -1.1237  0.8281  0.6826
  766MOL0     H 1054   3.329   2.113   5.312  0.8660 -1.8199  0.0169
  766MOL0     H 1055   3.301   1.904   5.077  2.8566 -0.5588 -1.9283
  766MOL0     H 1056   3.357   2.075   5.070  1.4787  1.5588  1.3837
  766MOL0     H 1057   3.522   1.870   5.085  2.6213 -0.2073  1.9269
  766MOL0     H 1058   3.463   1.869   5.247  1.9520 -2.7214 -2.3540
  766MOL0     H 1059   3.580   2.093   5.286 -0.8716  0.8175 -0.3179
  766MOL0     H 1060   3.606   2.092   5.104  0.6088 -1.4535 -0.4538
  766MOL0     H 1061   3.734   1.950   5.327 -1.7821 -2.6244 -0.4290
  766MOL0     H 1062   3.755   1.887   5.158  1.2073 -0.4458  0.9003
  766MOL0     H 1063   3.934   2.072   5.266 -0.5477 -0.8741 -0.4384
  766MOL0     H 1064   3.812   2.186   5.203  0.4853  1.2407 -0.4389
  766MOL0     H 1065   3.734   1.997   4.938 -0.4584  0.9359 -0.8062
  766MOL0     H 1066   3.815   1.900   4.700 -0.0784 -1.2730 -0.2937
  766MOL0     H 1067   3.850   1.768   4.805 -2.8344  0.0214 -2.3528
  766MOL0     H 1068   3.946   1.766   4.580 -2.7885  1.2255 -0.1358
  766MOL0     H 1069   4.078   1.767   4.702  1.7542  1.3918 -0.7114
  766MOL0     H 1070   4.139   1.987   4.650  0.6417  0.1583  0.0476
  766MOL0     H 1071   4.119   1.924   4.489 -1.0580  2.5968 -0.9068
  766MOL0     H 1072   4.022   2.129   4.488 -0.1822 -0.7987 -2.0631
  766MOL0     H 1073   3.924   2.111   4.628 -1.5568  0.9364 -2.4475
  766MOL0     H 1074   3.978   2.147   4.281  0.0982 -0.1691 -0.9328
  766MOL0     H 1075   4.013   2.080   4.054 -0.9223  0.8338 -0.1734
  766MOL0     H 1076   3.965   1.724   3.688  3.9000 -2.9622 -1.8502
  766MOL0     H 1077   4.022   1.724   3.441 -1.8561  1.3037 -2.3653
  766MOL0     H 1078   4.023   1.806   3.164 -0.4501 -0.0299  0.6187
  766MOL0     H 1079   4.165   1.770   3.274 -2.0415 -0.5362  0.7433
  766MOL0     H 1080   4.286   1.961   3.132  0.6684 -0.0264  0.2356
  766MOL0     H 1081   4.163   1.909   3.017  1.8168  1.5088  0.1185
  766MOL0     H 1082   4.374   1.712   3.143 -1.2029  0.9166  0.1477
  766MOL0     H 1083   4.354   1.780   2.971 -2.0942 -0.9965 -2.1468
  766MOL0     H 1084   4.183   1.592   3.132  3.8020 -0.7589  0.5733
  766MOL0     H 1085   4.121   1.669   2.978  1.7724  1.3281 -1.2095
  766MOL0     H 1086   4.232   1.434   2.971 -0.4371  0.9789 -0.0025
  766MOL0     H 1087   4.385   1.520   2.980  1.7128  3.1183 -2.0236
  766MOL0     H 1088   4.342   1.497   2.732  1.1338  3.0367 -1.5459
  766MOL0     H 1089   4.307   1.658   2.774  0.7550  0.2215 -0.7554
  766MOL0     H 1090   4.059   1.563   2.806  0.7925  1.2387  0.9459
  766MOL0     H 1091   4.122   1.583   2.646  1.7352  2.8843  2.1951
  766MOL0     H 1092   4.109   1.315   2.787  1.1614 -0.1683 -0.8644
  766MOL0     H 1093   4.192   1.345   2.634 -0.5938 -3.0100  0.3964
  766MOL0     H 1094   4.065   2.152   3.450  3.0463 -0.4330  0.5479
  766MOL0     H 1095   3.974   2.149   3.698 -2.6428  0.8616 -0.8240
  766MOL0     H 1096   3.775   1.720   4.135  0.5859  0.8202  1.5534
  766MOL0     H 1097   3.769   1.788   4.364  0.6187 -1.3212  0.1395
  766MOL0     H 1098   3.026   2.365   5.481 -0.2434 -3.3322  1.4591
  766MOL0     H 1099   2.905   2.521   5.625 -1.8200  0.9233  0.9439
  766MOL0     H 1100   2.383   2.605   5.738 -0.3075  0.6000 -0.6703
  766MOL0     H 1101   2.256   2.767   5.853  0.8417 -2.2391 -1.4850
  766MOL0     H 1102   2.466   3.037   6.140  1.1692 -3.0364  2.1455
  766MOL0     H 1103   2.403   2.903   6.208  2.4459 -2.0296 -3.4934
  766MOL0     H 1104   2.303   3.133   6.293 -0.6435 -1.1415  1.8984
  766MOL0     H 1105   2.252   3.157   6.131 -0.5156  0.0045  0.0408
  766MOL0     H 1106   2.070   2.983   6.142  0.4654  0.4469 -1.8275
  766MOL0     H 1107   2.048   3.109   6.263 -0.4960 -2.2264  1.7968
  766MOL0     H 1108   2.004   2.895   6.343 -0.6792  3.5454  2.3352
  766MOL0     H 1109   2.165   2.838   6.293  0.5485  0.8017 -0.4663
  766MOL0     H 1110   2.277   2.986   6.668 -2.1554  0.6698  1.2838
  766MOL0     H 1111   2.613   2.855   6.101  3.7349  0.8588 -4.1196
  766MOL0     H 1112   2.730   2.686   6.007 -0.1017 -0.1396  3.0972
  767MOL0     O 1113   8.406   2.829   7.465 -0.4949 -0.0482  0.2007
  767MOL0     C 1114   8.371   2.905   7.560  0.9084  0.4083  0.6993
  767MOL0     O 1115   8.254   2.896   7.626  0.2974  0.0658 -0.3379
  767MOL0     C 1116   8.186   2.770   7.624 -1.2710 -0.8884  0.1732
  767MOL0     C 1117   8.058   2.758   7.567 -0.0451  0.0399 -0.0486
  767MOL0     C 1118   7.979   2.641   7.587  0.2685 -0.2478  0.3282
  767MOL0     C 1119   8.035   2.521   7.650 -0.0161 -0.1371 -0.3012
  767MOL0     O 1120   7.959   2.405   7.648  0.1400 -0.1932 -0.0114
  767MOL0     C 1121   8.019   2.296   7.578  0.3099 -0.2861 -0.0502
  767MOL0     C 1122   7.956   2.163   7.630  0.1580  0.4688  0.3910
  767MOL0     C 1123   8.047   2.036   7.610 -0.9828 -1.2892  0.4648
  767MOL0     C 1124   7.985   1.905   7.660  0.5718 -0.3269  0.3808
  767MOL0     C 1125   8.092   1.808   7.715 -0.8158 -0.3071 -0.0017
  767MOL0     C 1126   8.187   1.772   7.600 -1.0581  0.3887  0.3559
  767MOL0     C 1127   8.326   1.841   7.623  0.8530  0.7407  0.1545
  767MOL0     C 1128   8.438   1.760   7.545 -1.2532 -0.5209  0.1897
  767MOL0     N 1129   8.574   1.818   7.572  0.4933 -0.4056 -0.5651
  767MOL0     C 1130   8.634   1.786   7.701 -0.7014  0.3639  0.8039
  767MOL0     C 1131   8.757   1.844   7.691  0.5480  0.1783 -0.2169
  767MOL0     C 1132   8.870   1.822   7.799 -0.1662 -0.3555 -0.1041
  767MOL0     C 1133   8.852   1.940   7.889 -0.0062 -0.6538  0.2716
  767MOL0     C 1134   8.962   1.939   7.997  0.3267  0.2098 -0.5354
  767MOL0     C 1135   8.956   1.812   8.097  0.6168  1.1191  0.1289
  767MOL0     O 1136   9.090   1.775   8.129  0.6145  0.2668 -0.0879
  767MOL0     C 1137   9.108   1.675   8.218 -0.3654  0.3202 -0.1795
  767MOL0     C 1138   9.018   1.608   8.299  0.4591 -0.1383 -0.9604
  767MOL0     C 1139   9.042   1.500   8.375 -0.3193  0.7455  0.7380
  767MOL0     C 1140   9.170   1.447   8.382  0.2155  0.4249  0.1044
  767MOL0     C 1141   9.191   1.334   8.478 -0.4543  0.5058 -0.8432
  767MOL0     O 1142   9.335   1.297   8.486  1.2101  0.2386  0.8826
  767MOL0     C 1143   9.347   1.166   8.511 -0.4055  0.2049  0.1506
  767MOL0     C 1144   9.388   1.063   8.415  0.0845  0.0150  0.6466
  767MOL0     C 1145   9.418   0.929   8.453 -0.1630 -0.2133 -1.0544
  767MOL0     C 1146   9.409   0.888   8.590  0.1659 -0.3033  0.2059
  767MOL0     O 1147   9.427   0.756   8.625  0.7282 -0.3455  0.1644
  767MOL0     C 1148   9.489   0.749   8.753 -0.5496  0.5131  0.8164
  767MOL0     C 1149   9.557   0.616   8.760 -0.5514 -0.2949 -0.0646
  767MOL0     C 1150   9.438   0.515   8.768 -0.5186 -0.2718 -0.2280
  767MOL0     C 1151   9.497   0.374   8.782 -0.1104  0.2843 -0.6040
  767MOL0     C 1152   9.378   0.271   8.767  0.3408 -0.1047  0.3045
  767MOL0     C 1153   9.435   0.132   8.819 -0.0366 -0.1885 -0.3339
  767MOL0     C 1154   9.335   0.018   8.768 -0.3284 -0.5712 -0.8372
  767MOL0     C 1155   9.199   0.029   8.829 -0.1466 -0.1637  0.2732
  767MOL0    Cl 1156   9.177   0.021   8.996  0.1685 -0.1421 -0.5616
  767MOL0     C 1157   9.373   0.991   8.683 -0.8819 -0.3819 -0.6776
  767MOL0     C 1158   9.343   1.123   8.646 -0.2052 -0.1370  0.7378
  767MOL0     O 1159   9.098   1.279   8.539  0.6361 -0.3168  0.9419
  767MOL0     C 1160   9.269   1.509   8.307 -1.0125 -0.2324  0.0354
  767MOL0     C 1161   9.243   1.624   8.222 -0.2330 -0.0407  0.3876
  767MOL0     N 1162   8.762   1.921   7.580 -0.7839  0.1524  0.1644
  767MOL0     N 1163   8.651   1.910   7.519 -0.6998 -0.2370  0.7560
  767MOL0     C 1164   8.177   2.527   7.682  0.0062 -0.6535  0.6349
  767MOL0     C 1165   8.245   2.651   7.667 -0.5080 -0.1888 -0.4348
  767MOL0     C 1166   8.459   3.022   7.580  1.2102 -0.0444 -0.2756
  767MOL0     C 1167   8.427   3.116   7.664  0.6267  0.9810 -0.7572
  767MOL0     C 1168   8.501   3.233   7.680  0.2325  0.1214  0.6805
  767MOL0     C 1169   8.624   3.241   7.613  0.3229 -0.6790 -1.6396
  767MOL0     O 1170   8.721   3.341   7.646  0.0859  0.1779 -0.3435
  767MOL0     C 1171   8.704   3.465   7.572 -0.3995  0.4859 -0.2273
  767MOL0     C 1172   8.635   3.570   7.654  0.1820  1.1297  0.4631
  767MOL0     C 1173   8.718   3.639   7.762  0.2407 -0.8198 -0.8553
  767MOL0     C 1174   8.760   3.548   7.882  0.5005  0.5223 -0.2734
  767MOL0     C 1175   8.647   3.496   7.966  0.0201  0.2443 -0.1690
  767MOL0     C 1176   8.553   3.434   8.027 -0.9053 -0.6385 -0.4372
  767MOL0     C 1177   8.671   3.141   7.542  0.2012  0.0760  0.0388
  767MOL0     C 1178   8.581   3.032   7.508 -0.7261 -0.8903  0.0071
  767MOL0     H 1179   8.002   2.834   7.513 -2.0402 -1.7244 -0.5787
  767MOL0     H 1180   7.878   2.630   7.551  0.8167 -5.1996 -0.3631
  767MOL0     H 1181   8.128   2.291   7.583  0.7184 -2.2523 -4.9552
  767MOL0     H 1182   8.005   2.309   7.470  1.0402  2.2423  0.1070
  767MOL0     H 1183   7.871   2.134   7.569  1.5675 -1.2157 -0.8740
  767MOL0     H 1184   7.919   2.168   7.733 -2.9670  0.9224 -0.6745
  767MOL0     H 1185   8.140   2.062   7.661 -1.9839  3.4728  0.3716
  767MOL0     H 1186   8.066   2.034   7.502 -0.8951 -1.6483  0.4876
  767MOL0     H 1187   7.912   1.937   7.734  1.1705  1.0345  0.4029
  767MOL0     H 1188   7.932   1.854   7.579  0.5820  1.4854 -0.8100
  767MOL0     H 1189   8.027   1.734   7.762 -3.1881  2.7996  2.0044
  767MOL0     H 1190   8.151   1.856   7.793 -0.5510  2.5355 -1.7932
  767MOL0     H 1191   8.146   1.809   7.506  1.8927  2.0242 -0.4308
  767MOL0     H 1192   8.202   1.664   7.588  0.5088  0.3564  2.2390
  767MOL0     H 1193   8.323   1.941   7.578  0.6807  1.2094  1.1611
  767MOL0     H 1194   8.344   1.846   7.731 -2.1872 -0.5786  0.8364
  767MOL0     H 1195   8.424   1.743   7.438  0.7163 -1.9822  0.1085
  767MOL0     H 1196   8.442   1.660   7.589  1.8373 -1.6555 -2.2689
  767MOL0     H 1197   8.609   1.726   7.787 -2.5433  2.3891  1.7797
  767MOL0     H 1198   8.970   1.828   7.756  0.1057  1.9009  0.7367
  767MOL0     H 1199   8.854   1.721   7.839  0.2003 -0.5490 -0.4334
  767MOL0     H 1200   8.756   1.943   7.941 -1.6275  4.1901 -2.3718
  767MOL0     H 1201   8.859   2.031   7.829 -0.3518  0.5911  2.0693
  767MOL0     H 1202   9.061   1.927   7.951  0.5517 -1.3390  0.2800
  767MOL0     H 1203   8.952   2.032   8.053  1.0233  0.3156 -0.5834
  767MOL0     H 1204   8.900   1.730   8.051 -2.2284  2.1245  1.5279
  767MOL0     H 1205   8.907   1.840   8.191  2.0384  4.5579 -0.0300
  767MOL0     H 1206   8.914   1.640   8.301  0.7468  1.0353 -2.7585
  767MOL0     H 1207   8.970   1.457   8.443 -0.7336 -1.1782 -0.8139
  767MOL0     H 1208   9.400   1.099   8.313 -0.5124  0.6235  0.7828
  767MOL0     H 1209   9.457   0.864   8.376 -0.6499  0.4455 -1.8665
  767MOL0     H 1210   9.413   0.756   8.831 -0.7590 -1.6784  0.8796
  767MOL0     H 1211   9.564   0.828   8.764  1.0577 -1.1181  2.2482
  767MOL0     H 1212   9.616   0.605   8.851  2.9344  2.4775 -1.7008
  767MOL0     H 1213   9.618   0.598   8.670  0.9722  0.7795  0.7174
  767MOL0     H 1214   9.372   0.524   8.682 -3.1122 -0.9783  1.5964
  767MOL0     H 1215   9.377   0.535   8.856  1.8620  3.6198  0.8005
  767MOL0     H 1216   9.569   0.357   8.702 -0.2117 -1.3587 -0.3732
  767MOL0     H 1217   9.545   0.358   8.879 -2.3276 -2.9163  0.1327
  767MOL0     H 1218   9.362   0.273   8.659  0.5348 -1.2399  0.2406
  767MOL0     H 1219   9.292   0.299   8.828 -0.3574  1.2159 -1.1969
  767MOL0     H 1220   9.447   0.141   8.927  0.7353  0.7867 -0.4883
  767MOL0     H 1221   9.531   0.098   8.778  0.5588 -0.3321  1.1269
  767MOL0     H 1222   9.323   0.017   8.659  0.1388 -0.8639 -0.8865
  767MOL0     H 1223   9.384  -0.075   8.797 -2.1990 -1.6702 -1.0075
  767MOL0     H 1224   9.147  -0.061   8.795 -0.4820 -1.1856  3.2031
  767MOL0     H 1225   9.150   0.120   8.792 -1.1144 -0.7852 -0.0215
  767MOL0     H 1226   9.364   0.979   8.790  2.0823 -0.8235 -0.3929
  767MOL0     H 1227   9.296   1.191   8.716  1.1399  0.0671  1.4801
  767MOL0     H 1228   9.367   1.464   8.295  1.7145  4.3562  2.4591
  767MOL0     H 1229   9.332   1.675   8.184 -1.3253  1.8019  0.1659
  767MOL0     H 1230   8.217   2.436   7.727 -1.5986 -0.8822  1.7000
  767MOL0     H 1231   8.350   2.635   7.688 -0.3440  0.0323 -1.0619
  767MOL0     H 1232   8.349   3.112   7.739  1.5392  0.6683  0.2054
  767MOL0     H 1233   8.459   3.305   7.750 -2.8050 -0.4371 -0.4330
  767MOL0     H 1234   8.649   3.452   7.478  0.5629 -1.6897 -0.5466
  767MOL0     H 1235   8.800   3.505   7.540 -1.2384  3.0412  0.1762
  767MOL0     H 1236   8.604   3.641   7.577  3.9972  0.9012 -1.5072
  767MOL0     H 1237   8.547   3.527   7.703  0.2372  3.0169  2.3561
  767MOL0     H 1238   8.663   3.723   7.805  1.0739 -0.2764 -0.8151
  767MOL0     H 1239   8.808   3.682   7.716  0.6269 -3.8272 -3.1955
  767MOL0     H 1240   8.834   3.477   7.845 -1.3431 -1.8292  0.3404
  767MOL0     H 1241   8.817   3.613   7.949 -1.4881  0.1734  1.8968
  767MOL0     H 1242   8.471   3.397   8.086 -0.2969  0.7932  1.3944
  767MOL0     H 1243   8.774   3.160   7.512  0.0711 -1.6805 -1.6788
  767MOL0     H 1244   8.619   2.955   7.442 -0.9074 -1.0734  0.1151
  768MOL0     O 1245   9.451   2.812   3.023  0.2720  0.3549  0.1998
  768MOL0     C 1246   9.461   2.740   2.921 -0.2707 -0.2781 -0.5103
  768MOL0     O 1247   9.359   2.645   2.881 -0.5015  0.1184 -0.2452
  768MOL0     C 1248   9.262   2.614   2.974 -0.4572  0.0486 -0.8326
  768MOL0     C 1249   9.148   2.695   2.990 -0.1467 -0.1531 -0.0799
  768MOL0     C 1250   9.047   2.670   3.078  0.1782  0.2972 -0.7194
  768MOL0     C 1251   9.058   2.553   3.162 -0.7206 -0.2048  1.0218
  768MOL0     O 1252   8.960   2.494   3.239 -0.1772 -0.9720  0.4711
  768MOL0     C 1253   8.835   2.559   3.258  0.2049 -0.4134  0.0073
  768MOL0     C 1254   8.759   2.491   3.369 -0.2000 -0.2333 -0.2647
  768MOL0     C 1255   8.614   2.521   3.353  0.1379 -0.5244  0.1369
  768MOL0     C 1256   8.543   2.449   3.463  0.7632 -0.0153  0.2207
  768MOL0     C 1257   8.520   2.304   3.445 -0.4093  0.4460 -0.6693
  768MOL0     C 1258   8.422   2.231   3.535  0.6887  0.4138  0.6127
  768MOL0     C 1259   8.403   2.088   3.481 -0.8602 -0.8799 -0.6851
  768MOL0     C 1260   8.285   2.015   3.552 -0.1947 -0.2408 -0.8782
  768MOL0     N 1261   8.271   2.053   3.695  0.6184  0.5291  0.3489
  768MOL0     C 1262   8.179   2.131   3.762  0.0219 -0.3160 -0.0321
  768MOL0     C 1263   8.197   2.101   3.894  0.6616  0.3917  0.5680
  768MOL0     C 1264   8.118   2.128   4.006 -0.0609 -0.3430 -0.2724
  768MOL0     C 1265   8.086   2.277   4.050 -0.8011 -0.2666  0.1925
  768MOL0     C 1266   8.214   2.368   4.044 -0.0466  1.2541  1.0166
  768MOL0     C 1267   8.333   2.316   4.118 -0.8545 -0.4014  0.4582
  768MOL0     O 1268   8.299   2.253   4.239 -0.2478 -0.2575 -0.4835
  768MOL0     C 1269   8.380   2.191   4.332  1.5201  0.0495  0.1510
  768MOL0     C 1270   8.319   2.096   4.412  0.0243  0.3628 -0.3653
  768MOL0     C 1271   8.389   2.040   4.524  0.9375 -0.6456  0.0063
  768MOL0     C 1272   8.526   2.070   4.537  0.0849  0.2019  0.8853
  768MOL0     C 1273   8.616   2.018   4.642  0.1347 -0.6671 -0.3356
  768MOL0     O 1274   8.748   2.034   4.630 -0.7612 -0.5131  0.5934
  768MOL0     C 1275   8.830   1.992   4.732 -0.3021 -0.3368 -0.4687
  768MOL0     C 1276   8.801   2.035   4.860 -0.2870 -0.8652 -0.3653
  768MOL0     C 1277   8.904   2.023   4.963  0.0085  1.1850 -1.0672
  768MOL0     C 1278   9.020   1.941   4.939 -0.5035 -0.5043  0.6077
  768MOL0     O 1279   9.121   1.944   5.026 -0.1667 -0.8894  0.1126
  768MOL0     C 1280   9.252   1.883   4.999  0.4050 -0.3358 -0.3107
  768MOL0     C 1281   9.341   1.892   5.123  0.0352  0.0884 -0.2689
  768MOL0     C 1282   9.487   1.847   5.105 -0.5773  1.1087 -0.7173
  768MOL0     C 1283   9.511   1.698   5.089 -0.5142 -1.0202  0.0559
  768MOL0     C 1284   9.659   1.672   5.099  0.6216  0.1881  0.4298
  768MOL0     C 1285   9.697   1.527   5.076 -0.3486 -0.7174  0.0569
  768MOL0     C 1286   9.850   1.504   5.089  0.0955  0.1214  0.1510
  768MOL0     C 1287   9.901   1.365   5.039  1.4073 -0.0355 -0.8161
  768MOL0    Cl 1288   9.843   1.232   5.161  0.2568  0.4444  0.2370
  768MOL0     C 1289   9.026   1.884   4.810 -0.1261  0.8277  0.4732
  768MOL0     C 1290   8.941   1.908   4.709  0.2840 -0.4142 -0.5336
  768MOL0     O 1291   8.558   1.941   4.724  0.0936 -0.5556  0.1216
  768MOL0     C 1292   8.594   2.158   4.446  0.1342 -0.4616 -0.1704
  768MOL0     C 1293   8.509   2.227   4.348  0.0481  0.6742 -0.2537
  768MOL0     N 1294   8.308   2.014   3.896  0.1588 -0.0688  0.1954
  768MOL0     N 1295   8.354   1.986   3.776 -0.9434  0.8421 -0.2366
  768MOL0     C 1296   9.172   2.472   3.153 -0.0660  0.6390 -0.0354
  768MOL0     C 1297   9.274   2.507   3.066 -1.2070 -0.7236 -0.7619
  768MOL0     C 1298   9.595   2.737   2.854 -0.4454  0.7448  0.1074
  768MOL0     C 1299   9.620   2.683   2.729 -0.1325 -0.2407 -0.0837
  768MOL0     C 1300   9.748   2.680   2.676  0.8452  0.7466  0.7698
  768MOL0     C 1301   9.862   2.735   2.735 -0.1734  0.9715 -1.0080
  768MOL0     O 1302   9.991   2.701   2.682 -0.3114  0.1566  0.0927
  768MOL0     C 1303  10.039   2.706   2.547 -0.3618  0.2090  0.3990
  768MOL0     C 1304  10.022   2.849   2.489 -0.3035  0.0873 -0.3561
  768MOL0     C 1305  10.120   2.862   2.369  0.4945 -0.1804 -0.8150
  768MOL0     C 1306  10.088   2.986   2.289 -1.0578 -1.1752  0.6543
  768MOL0     C 1307   9.960   2.977   2.225  0.4467 -0.0293  0.3490
  768MOL0     C 1308   9.845   2.950   2.186 -0.0328  0.2583  0.3938
  768MOL0     C 1309   9.840   2.785   2.859  1.7143 -0.9844 -0.8606
  768MOL0     C 1310   9.708   2.792   2.919 -0.0440  1.2228 -0.4451
  768MOL0     H 1311   9.160   2.788   2.936 -2.1472  1.2842  1.7900
  768MOL0     H 1312   8.964   2.739   3.082 -0.7392 -0.8022  0.0783
  768MOL0     H 1313   8.775   2.565   3.167 -1.0594  0.6382  0.8734
  768MOL0     H 1314   8.858   2.662   3.285 -1.5821  1.2636 -4.1484
  768MOL0     H 1315   8.785   2.545   3.460 -1.3872 -2.4465  1.4831
  768MOL0     H 1316   8.779   2.383   3.376 -1.3482 -0.7525 -3.4815
  768MOL0     H 1317   8.579   2.487   3.255  2.2207 -1.8616 -0.2133
  768MOL0     H 1318   8.597   2.628   3.369 -0.3462 -0.0641 -2.8308
  768MOL0     H 1319   8.594   2.460   3.559  3.1305  1.6165 -1.1270
  768MOL0     H 1320   8.451   2.507   3.468  2.2444  2.3910  1.0595
  768MOL0     H 1321   8.615   2.249   3.444 -0.6300 -0.0363  1.1822
  768MOL0     H 1322   8.487   2.292   3.342  1.7027  0.1914 -1.3815
  768MOL0     H 1323   8.321   2.272   3.536  0.1884 -0.6494 -1.5658
  768MOL0     H 1324   8.450   2.223   3.641  1.8546 -0.1701  0.2787
  768MOL0     H 1325   8.388   2.080   3.373 -0.5707  0.5378 -0.8502
  768MOL0     H 1326   8.501   2.046   3.508 -0.5461  0.2023 -0.0965
  768MOL0     H 1327   8.293   1.906   3.545 -2.9138 -0.8908  2.8347
  768MOL0     H 1328   8.190   2.057   3.517  0.5695  3.9578  1.3974
  768MOL0     H 1329   8.109   2.193   3.707  0.2029 -0.4850 -0.4599
  768MOL0     H 1330   8.155   2.080   4.096 -0.5963 -1.4377 -0.6200
  768MOL0     H 1331   8.024   2.073   3.994 -1.7968  1.9542  1.7488
  768MOL0     H 1332   8.030   2.287   4.143 -2.3354 -0.6382 -0.6659
  768MOL0     H 1333   8.006   2.316   3.986  0.4770  2.0258 -0.1608
  768MOL0     H 1334   8.247   2.376   3.940 -0.7463  0.6112  0.7340
  768MOL0     H 1335   8.179   2.465   4.078 -0.0768  1.9016 -0.7300
  768MOL0     H 1336   8.396   2.403   4.140 -3.0940  0.9081  2.1753
  768MOL0     H 1337   8.392   2.245   4.060  2.7144  2.8591 -0.3376
  768MOL0     H 1338   8.213   2.075   4.404  0.1343 -1.1824  1.3893
  768MOL0     H 1339   8.336   1.980   4.597 -1.7168  3.6418  2.0134
  768MOL0     H 1340   8.709   2.090   4.878  0.0236 -0.9318  1.7630
  768MOL0     H 1341   8.886   2.078   5.054 -1.9086 -1.2245  0.1484
  768MOL0     H 1342   9.309   1.924   4.916  0.1831 -1.1830 -0.8979
  768MOL0     H 1343   9.232   1.778   4.974  1.3698 -0.1997 -1.7591
  768MOL0     H 1344   9.297   1.836   5.206  2.8554  0.6281  1.7175
  768MOL0     H 1345   9.342   1.997   5.157 -1.0392 -0.1281  0.4858
  768MOL0     H 1346   9.537   1.872   5.200 -0.2526 -0.2069 -0.5161
  768MOL0     H 1347   9.534   1.909   5.028 -0.8827 -0.4457 -2.1973
  768MOL0     H 1348   9.459   1.655   5.175 -0.7499 -0.7440  0.0519
  768MOL0     H 1349   9.466   1.666   4.994  1.1062  0.6766 -1.3555
  768MOL0     H 1350   9.709   1.710   5.189  1.3106  4.2585 -1.4789
  768MOL0     H 1351   9.710   1.737   5.027 -0.4814  0.7763  0.1648
  768MOL0     H 1352   9.653   1.501   4.979 -0.9150  3.0994 -0.8899
  768MOL0     H 1353   9.648   1.470   5.155  1.0880 -0.7326  0.9621
  768MOL0     H 1354   9.902   1.578   5.028 -3.5828  0.8230 -2.5264
  768MOL0     H 1355   9.886   1.519   5.191  1.3754  2.1546 -0.5505
  768MOL0     H 1356  10.010   1.363   5.029  1.3201  1.6098 -2.7309
  768MOL0     H 1357   9.852   1.343   4.944  2.0611  0.0726 -1.1832
  768MOL0     H 1358   9.113   1.820   4.800 -0.6683  0.2050 -0.4458
  768MOL0     H 1359   8.955   1.874   4.607  2.1856  2.8703 -1.5417
  768MOL0     H 1360   8.701   2.174   4.452  1.5860 -6.1315 -3.7741
  768MOL0     H 1361   8.549   2.298   4.276 -1.5481 -1.6213 -3.6259
  768MOL0     H 1362   9.184   2.388   3.221  0.2559 -0.3302 -1.2509
  768MOL0     H 1363   9.365   2.449   3.064 -1.0989 -0.9295  3.2501
  768MOL0     H 1364   9.551   2.628   2.666  0.4320 -4.4516  2.5752
  768MOL0     H 1365   9.756   2.629   2.580  2.9439  1.6100  0.4476
  768MOL0     H 1366   9.986   2.641   2.477  2.8673  0.0991 -2.1370
  768MOL0     H 1367  10.140   2.667   2.558 -0.6198  0.0811  2.9012
  768MOL0     H 1368   9.918   2.860   2.456 -0.5641  1.6246  0.8311
  768MOL0     H 1369  10.040   2.922   2.569  1.4153  1.0223 -1.5351
  768MOL0     H 1370  10.113   2.777   2.300 -2.1143  1.9165 -3.3926
  768MOL0     H 1371  10.221   2.880   2.408  0.1525 -0.8659  0.4457
  768MOL0     H 1372  10.117   3.077   2.343  2.5555 -2.5268  1.2827
  768MOL0     H 1373  10.164   2.994   2.211  0.4636  2.7749  2.2554
  768MOL0     H 1374   9.742   2.938   2.159  0.0861  1.7856 -0.8821
  768MOL0     H 1375   9.920   2.819   2.925  0.8050  1.8479 -1.1000
  768MOL0     H 1376   9.695   2.817   3.024 -2.2378 -4.0823  0.8867
  769MOL0     O 1377   5.383   5.424   6.994 -1.0677  0.1290 -0.8839
  769MOL0     C 1378   5.287   5.465   6.933  0.9794 -0.4509  0.3774
  769MOL0     O 1379   5.167   5.516   6.986 -0.6498  0.2393 -0.2297
  769MOL0     C 1380   5.147   5.493   7.118 -0.3716 -0.7593 -1.0833
  769MOL0     C 1381   5.225   5.550   7.217 -0.3187  0.5307  0.7832
  769MOL0     C 1382   5.201   5.522   7.356 -0.3269  0.0042  0.8642
  769MOL0     C 1383   5.100   5.441   7.389 -0.5835  0.4058  0.3812
  769MOL0     O 1384   5.094   5.393   7.511  0.1805  0.3001 -0.3410
  769MOL0     C 1385   5.073   5.254   7.531 -0.0477  0.5741  0.4699
  769MOL0     C 1386   4.925   5.232   7.576 -0.9129 -0.1737 -0.7538
  769MOL0     C 1387   4.882   5.273   7.724 -0.5531 -0.5125  0.3441
  769MOL0     C 1388   4.755   5.195   7.747 -0.3936  0.6052  0.0977
  769MOL0     C 1389   4.691   5.206   7.880  0.8600 -0.6346 -1.2669
  769MOL0     C 1390   4.590   5.097   7.899  0.3897 -1.1131  0.3168
  769MOL0     C 1391   4.551   5.115   8.040 -0.1705 -0.2371 -0.1787
  769MOL0     C 1392   4.460   5.002   8.103  0.8945 -0.4647 -0.1171
  769MOL0     N 1393   4.446   5.014   8.246  0.2744 -0.4134 -0.1286
  769MOL0     C 1394   4.333   5.054   8.313 -0.9837 -0.4631 -0.1509
  769MOL0     C 1395   4.373   5.090   8.431 -0.2781  0.4737  0.3158
  769MOL0     C 1396   4.287   5.145   8.537 -0.2980  0.2845  0.2481
  769MOL0     C 1397   4.349   5.279   8.588 -0.5566 -1.1222  0.7473
  769MOL0     C 1398   4.331   5.395   8.493 -0.6195 -0.4079 -0.5837
  769MOL0     C 1399   4.463   5.416   8.413 -0.6288 -0.4880  0.8906
  769MOL0     O 1400   4.571   5.489   8.468  0.5931  0.2944  0.8587
  769MOL0     C 1401   4.668   5.538   8.389  0.1203  0.3366  0.2417
  769MOL0     C 1402   4.726   5.469   8.286  0.0997 -0.0163 -0.0818
  769MOL0     C 1403   4.836   5.517   8.219  0.4149  0.0769 -0.6004
  769MOL0     C 1404   4.889   5.635   8.260 -0.3793 -0.4124  0.6626
  769MOL0     C 1405   5.009   5.679   8.183 -0.4637  0.3488 -0.2805
  769MOL0     O 1406   5.015   5.813   8.167  0.2930 -0.2849  0.0294
  769MOL0     C 1407   5.119   5.878   8.107 -0.0834 -0.3624 -0.1459
  769MOL0     C 1408   5.090   6.006   8.050  0.8771 -0.8521  0.2934
  769MOL0     C 1409   5.192   6.078   7.989 -1.5083 -0.2631 -0.0298
  769MOL0     C 1410   5.323   6.033   7.980  0.7222 -0.8163 -0.4687
  769MOL0     O 1411   5.418   6.121   7.936  0.0021 -0.4581 -0.1868
  769MOL0     C 1412   5.527   6.074   7.852  0.5545 -0.4007 -0.3276
  769MOL0     C 1413   5.540   6.158   7.733 -0.3683 -0.2727 -0.0916
  769MOL0     C 1414   5.680   6.158   7.669  0.1630 -0.1402  0.5546
  769MOL0     C 1415   5.679   6.192   7.522  0.0380  0.3673 -0.3410
  769MOL0     C 1416   5.818   6.184   7.455 -0.1153 -0.6193 -0.2062
  769MOL0     C 1417   5.810   6.251   7.318  0.2359  0.1679  0.4467
  769MOL0     C 1418   5.946   6.258   7.247  0.0495 -0.0071 -0.1222
  769MOL0     C 1419   6.047   6.364   7.295 -0.3831 -1.0760  0.5302
  769MOL0    Cl 1420   6.208   6.305   7.244 -0.1106  0.2506 -0.2052
  769MOL0     C 1421   5.353   5.903   8.013 -0.8287  0.7429  0.0603
  769MOL0     C 1422   5.254   5.837   8.085 -0.0246  0.8206 -0.9113
  769MOL0     O 1423   5.091   5.602   8.137 -1.1908  0.1564 -0.0114
  769MOL0     C 1424   4.831   5.711   8.358  0.4578 -0.2258 -0.3805
  769MOL0     C 1425   4.715   5.661   8.426 -0.3854 -0.5015 -0.2995
  769MOL0     N 1426   4.504   5.051   8.450  0.2998  0.8258 -0.3976
  769MOL0     N 1427   4.549   5.012   8.337 -0.5522 -0.6761  0.1590
  769MOL0     C 1428   5.017   5.395   7.288  0.2607  0.2853 -0.0283
  769MOL0     C 1429   5.036   5.418   7.150 -0.5249 -0.4072 -0.3844
  769MOL0     C 1430   5.308   5.488   6.789 -0.1756  0.6485  0.4817
  769MOL0     C 1431   5.441   5.518   6.737 -0.0810  0.4430  0.0836
  769MOL0     C 1432   5.447   5.553   6.603 -0.6638  0.1456  0.0896
  769MOL0     C 1433   5.333   5.557   6.521  0.2523 -0.2752  0.5833
  769MOL0     O 1434   5.326   5.559   6.385 -1.1171 -0.3122 -0.4717
  769MOL0     C 1435   5.432   5.511   6.295  0.4308 -0.1167 -0.1072
  769MOL0     C 1436   5.545   5.630   6.278  0.7551  0.4257 -0.0401
  769MOL0     C 1437   5.485   5.756   6.203  0.9533  0.4203 -0.5496
  769MOL0     C 1438   5.574   5.888   6.234  0.1219  0.2017 -0.2957
  769MOL0     C 1439   5.687   5.909   6.144 -0.3353 -1.0317  0.8923
  769MOL0     C 1440   5.773   5.942   6.064  0.5213 -0.1308 -0.6508
  769MOL0     C 1441   5.206   5.537   6.574 -0.2959  0.3837  0.0346
  769MOL0     C 1442   5.203   5.491   6.706 -0.1224  0.1729 -0.0650
  769MOL0     H 1443   5.312   5.608   7.190  0.5354  0.9552  4.0245
  769MOL0     H 1444   5.267   5.554   7.435  0.4837 -1.8363  0.9908
  769MOL0     H 1445   5.134   5.224   7.617  0.1491  2.0262  0.8590
  769MOL0     H 1446   5.094   5.185   7.449 -0.7615 -2.1940  2.4688
  769MOL0     H 1447   4.921   5.124   7.559  2.8868 -0.1225 -3.1946
  769MOL0     H 1448   4.854   5.281   7.508 -1.3662 -1.1303 -0.9778
  769MOL0     H 1449   4.865   5.381   7.728  0.6587 -0.3201  0.5805
  769MOL0     H 1450   4.954   5.252   7.803 -2.2800  1.6792  2.6575
  769MOL0     H 1451   4.677   5.226   7.677 -2.0895  1.4419  2.2501
  769MOL0     H 1452   4.775   5.089   7.727 -0.3676  1.1688 -3.4684
  769MOL0     H 1453   4.643   5.305   7.881 -0.2085 -1.1421 -0.5913
  769MOL0     H 1454   4.762   5.195   7.963 -0.6800 -1.8376 -0.0485
  769MOL0     H 1455   4.624   4.994   7.885 -0.7667 -1.5697  0.7696
  769MOL0     H 1456   4.498   5.114   7.842  1.1204 -3.0602 -1.5694
  769MOL0     H 1457   4.640   5.125   8.103  0.7511 -0.2920 -1.4280
  769MOL0     H 1458   4.505   5.215   8.048  1.7484  0.6015  1.1527
  769MOL0     H 1459   4.492   4.899   8.084 -0.6183 -2.0877  4.7896
  769MOL0     H 1460   4.359   4.993   8.061  1.2074 -0.4629 -0.8964
  769MOL0     H 1461   4.234   5.056   8.269 -1.2127  1.3265  0.3611
  769MOL0     H 1462   4.281   5.074   8.620  2.8345 -2.0439 -1.3059
  769MOL0     H 1463   4.187   5.176   8.505 -0.2768 -2.0395 -2.4947
  769MOL0     H 1464   4.449   5.261   8.628  0.0894 -0.3578 -0.4674
  769MOL0     H 1465   4.297   5.312   8.679  4.6734 -0.5915  3.9151
  769MOL0     H 1466   4.247   5.391   8.422 -0.8941  3.4097 -0.7073
  769MOL0     H 1467   4.314   5.481   8.558  2.9529  0.2933 -0.3757
  769MOL0     H 1468   4.448   5.471   8.320  0.3343  1.6219  1.9387
  769MOL0     H 1469   4.501   5.314   8.399 -0.7087 -1.0580  4.1898
  769MOL0     H 1470   4.673   5.377   8.263 -2.9149  1.2561  1.2176
  769MOL0     H 1471   4.882   5.467   8.134  2.3873  1.7215 -0.5883
  769MOL0     H 1472   4.989   6.045   8.054  1.5503  1.0680 -0.1526
  769MOL0     H 1473   5.168   6.177   7.952  1.6476 -0.0971 -1.9307
  769MOL0     H 1474   5.520   5.970   7.817 -0.5583  0.4321 -2.8105
  769MOL0     H 1475   5.615   6.094   7.913  0.1031  0.7468 -0.0373
  769MOL0     H 1476   5.515   6.262   7.757  0.2295  0.4085 -2.2355
  769MOL0     H 1477   5.468   6.120   7.660  1.1955 -0.2113 -1.7449
  769MOL0     H 1478   5.722   6.057   7.672 -1.6356 -1.3582 -4.7457
  769MOL0     H 1479   5.731   6.229   7.734 -1.2317 -0.5822  2.2067
  769MOL0     H 1480   5.602   6.137   7.466  0.3975  2.1997 -2.8111
  769MOL0     H 1481   5.645   6.295   7.504  0.3328  0.8426  1.5778
  769MOL0     H 1482   5.852   6.080   7.447  1.3126 -0.2887  0.9524
  769MOL0     H 1483   5.892   6.242   7.512 -0.9789 -1.1914  1.5793
  769MOL0     H 1484   5.754   6.344   7.312 -2.5049 -1.4263 -0.0721
  769MOL0     H 1485   5.738   6.187   7.266  0.1265  0.5619  0.1138
  769MOL0     H 1486   5.999   6.163   7.261  1.3150  0.2857 -2.3731
  769MOL0     H 1487   5.933   6.268   7.139 -1.7029  0.0265  0.0636
  769MOL0     H 1488   6.046   6.376   7.403  1.5491  1.0559  0.3633
  769MOL0     H 1489   6.032   6.461   7.247  0.3932 -0.1850  2.0564
  769MOL0     H 1490   5.448   5.855   7.994 -0.8596  1.0095 -0.7936
  769MOL0     H 1491   5.276   5.737   8.121  1.0086 -0.2463 -4.1561
  769MOL0     H 1492   4.856   5.813   8.384 -1.0464 -0.2822  1.5612
  769MOL0     H 1493   4.663   5.711   8.508  0.8515  0.0434  0.1773
  769MOL0     H 1494   4.928   5.342   7.321 -2.3458  4.6264  0.7158
  769MOL0     H 1495   4.969   5.388   7.069 -1.0472  1.3708 -0.6483
  769MOL0     H 1496   5.515   5.522   6.817 -0.0381  1.0673  0.0159
  769MOL0     H 1497   5.548   5.562   6.566 -0.8692  0.7981 -0.3280
  769MOL0     H 1498   5.390   5.492   6.197 -0.4154  0.6073  0.1068
  769MOL0     H 1499   5.485   5.425   6.339  4.2951  1.7649 -0.6314
  769MOL0     H 1500   5.589   5.647   6.377 -0.4895 -0.6442  0.7345
  769MOL0     H 1501   5.625   5.593   6.214 -0.8549  2.1776 -3.3045
  769MOL0     H 1502   5.385   5.758   6.249  1.0836  0.7312 -0.2732
  769MOL0     H 1503   5.471   5.732   6.098 -0.2894  1.6383 -0.7057
  769MOL0     H 1504   5.511   5.977   6.223 -1.1020 -0.7125 -0.9702
  769MOL0     H 1505   5.615   5.874   6.335 -1.8252 -0.6549  0.4198
  769MOL0     H 1506   5.838   5.978   5.987 -0.8430 -1.4056 -2.4812
  769MOL0     H 1507   5.120   5.546   6.509 -0.3831 -0.4384  0.0307
  769MOL0     H 1508   5.102   5.474   6.742  0.3063  0.5019  1.3423
  770MOL0     O 1509   4.099   5.472   0.119 -0.2931 -0.2853 -0.1202
  770MOL0     C 1510   4.000   5.538   0.143 -0.5311 -0.2190 -0.4990
  770MOL0     O 1511   3.894   5.560   0.062  0.4301  0.5184 -0.1612
  770MOL0     C 1512   3.881   5.483  -0.039  0.8029 -0.0786  0.7933
  770MOL0     C 1513   3.814   5.360  -0.026  1.1602  0.2672 -0.1946
  770MOL0     C 1514   3.792   5.284  -0.143 -0.0741  1.0017 -0.2404
  770MOL0     C 1515   3.813   5.327  -0.267 -0.1904 -0.3534  0.0928
  770MOL0     O 1516   3.799   5.249  -0.374 -0.6179 -0.2278 -0.0762
  770MOL0     C 1517   3.920   5.184  -0.421  0.0187 -1.1061  0.9583
  770MOL0     C 1518   3.981   5.238  -0.555  0.7793  0.0229 -0.1529
  770MOL0     C 1519   4.090   5.141  -0.602  0.1087 -0.6361 -0.3684
  770MOL0     C 1520   4.172   5.193  -0.716 -0.5342  0.3098 -0.1645
  770MOL0     C 1521   4.275   5.080  -0.753  0.5356 -0.0539 -0.0349
  770MOL0     C 1522   4.352   5.108  -0.887  0.5287  0.3184  0.1481
  770MOL0     C 1523   4.474   5.031  -0.929 -0.7832  0.3243 -0.2616
  770MOL0     C 1524   4.453   4.883  -0.950  0.1903  0.8727 -0.6143
  770MOL0     N 1525   4.580   4.801  -0.971  0.5396 -0.0989 -0.6896
  770MOL0     C 1526   4.662   4.797  -1.081 -1.1955  0.1648  0.8117
  770MOL0     C 1527   4.743   4.690  -1.063  0.2498 -0.3325  0.3150
  770MOL0     C 1528   4.857   4.644  -1.142 -0.1441 -0.5230 -0.0021
  770MOL0     C 1529   4.942   4.760  -1.171 -0.3206 -0.1639  0.1735
  770MOL0     C 1530   5.072   4.729  -1.250 -0.5144  0.8045 -0.4719
  770MOL0     C 1531   5.047   4.711  -1.400  0.1701 -1.2209 -0.0792
  770MOL0     O 1532   5.161   4.753  -1.479 -0.3146  0.6395 -0.3992
  770MOL0     C 1533   5.146   4.792  -1.605 -0.2378  0.6909 -1.3776
  770MOL0     C 1534   5.270   4.812  -1.669 -0.0247  0.0220  0.6796
  770MOL0     C 1535   5.270   4.847  -1.805  0.0812  0.9144  0.0772
  770MOL0     C 1536   5.152   4.861  -1.884  0.2977  0.3301  0.7936
  770MOL0     C 1537   5.162   4.904  -2.021  0.4588  0.9900  0.3173
  770MOL0     O 1538   5.289   4.917  -2.078  0.4655 -0.0401  0.5002
  770MOL0     C 1539   5.291   4.940  -2.216 -0.1361 -1.2556 -0.6881
  770MOL0     C 1540   5.352   5.057  -2.262 -0.0407  0.6214 -0.9441
  770MOL0     C 1541   5.372   5.065  -2.402  0.7332  0.0611  0.5457
  770MOL0     C 1542   5.325   4.960  -2.489  0.1074  0.0271  1.0011
  770MOL0     O 1543   5.354   4.965  -2.625  0.1628  0.9933 -0.4293
  770MOL0     C 1544   5.377   5.094  -2.690  1.0458 -0.0298  0.0917
  770MOL0     C 1545   5.527   5.138  -2.688 -0.6183 -0.3183  0.6904
  770MOL0     C 1546   5.596   5.090  -2.821  0.2264 -0.2846  0.8899
  770MOL0     C 1547   5.734   5.146  -2.836  1.1433  0.6688 -0.9491
  770MOL0     C 1548   5.795   5.120  -2.974  1.2660 -0.1356  0.8977
  770MOL0     C 1549   5.938   5.149  -2.967 -0.4064  0.2150 -0.6769
  770MOL0     C 1550   5.973   5.303  -2.980  0.8827  0.1525  1.2367
  770MOL0     C 1551   6.079   5.344  -2.883  0.6753  0.5214 -0.7789
  770MOL0    Cl 1552   6.072   5.528  -2.876  0.3626  0.0592  0.2117
  770MOL0     C 1553   5.257   4.847  -2.444  0.2344 -0.0445 -0.3908
  770MOL0     C 1554   5.232   4.844  -2.309 -0.5777  0.0147 -0.2142
  770MOL0     O 1555   5.056   4.927  -2.078  0.2357  0.5815 -0.1592
  770MOL0     C 1556   5.026   4.838  -1.824 -0.4979 -0.4202 -0.8569
  770MOL0     C 1557   5.024   4.799  -1.682  0.7507 -0.5451  0.0602
  770MOL0     N 1558   4.728   4.639  -0.942  0.3990 -0.3345 -0.5876
  770MOL0     N 1559   4.620   4.698  -0.886  0.4070 -0.2790 -0.0444
  770MOL0     C 1560   3.872   5.454  -0.277 -0.3183  0.1188  0.0773
  770MOL0     C 1561   3.901   5.526  -0.163 -0.2949  0.0645  0.9441
  770MOL0     C 1562   4.008   5.625   0.262 -1.2677 -0.9020 -0.2646
  770MOL0     C 1563   3.884   5.670   0.309 -0.7092 -0.8313 -0.0265
  770MOL0     C 1564   3.883   5.750   0.421  0.4824 -0.3692  0.0903
  770MOL0     C 1565   3.998   5.799   0.480 -1.0513  0.3724 -0.6121
  770MOL0     O 1566   3.999   5.891   0.578 -0.5153 -0.0219 -0.9637
  770MOL0     C 1567   4.030   5.846   0.713 -0.0171 -0.8011  0.1780
  770MOL0     C 1568   3.902   5.772   0.763 -0.6296  0.0470 -0.6050
  770MOL0     C 1569   3.899   5.765   0.915  0.6107  0.1691 -0.1511
  770MOL0     C 1570   4.033   5.724   0.979  0.4289  0.7473 -0.0294
  770MOL0     C 1571   4.073   5.584   0.930 -0.2545  0.9308 -0.3607
  770MOL0     C 1572   4.116   5.471   0.898  0.4085  0.3548 -0.0634
  770MOL0     C 1573   4.123   5.772   0.420 -0.5154 -0.6657  0.2240
  770MOL0     C 1574   4.127   5.674   0.311 -0.4539 -0.3108 -0.4231
  770MOL0     H 1575   3.771   5.327   0.068  0.2750 -0.7097 -0.9164
  770MOL0     H 1576   3.760   5.181  -0.128  0.3146  0.7871 -0.8649
  770MOL0     H 1577   3.896   5.080  -0.446 -0.8678 -0.6740 -0.1140
  770MOL0     H 1578   3.995   5.211  -0.347  2.8340  2.0764 -2.6629
  770MOL0     H 1579   4.031   5.331  -0.527  0.6900  0.9562 -2.7623
  770MOL0     H 1580   3.904   5.260  -0.630 -2.1272 -2.1766  1.9529
  770MOL0     H 1581   4.039   5.050  -0.635 -1.7833  0.9955 -2.2133
  770MOL0     H 1582   4.160   5.122  -0.520  1.1502  0.5290 -0.9492
  770MOL0     H 1583   4.119   5.229  -0.805  0.9107  0.0682 -1.1610
  770MOL0     H 1584   4.223   5.282  -0.679  2.2602 -1.2173 -0.1063
  770MOL0     H 1585   4.219   4.988  -0.768  2.8368 -1.0687 -3.6937
  770MOL0     H 1586   4.339   5.070  -0.665  0.7326 -1.4974 -0.3231
  770MOL0     H 1587   4.384   5.213  -0.893 -3.2336  1.5590 -0.7327
  770MOL0     H 1588   4.293   5.098  -0.978  1.2986 -0.5351 -0.2649
  770MOL0     H 1589   4.500   5.074  -1.027  1.5393  5.0485  2.0896
  770MOL0     H 1590   4.563   5.048  -0.867 -1.4468  0.0977  0.7730
  770MOL0     H 1591   4.392   4.877  -1.041 -1.8436 -0.2249  0.7385
  770MOL0     H 1592   4.402   4.846  -0.861  0.0250  3.6493  0.5436
  770MOL0     H 1593   4.652   4.860  -1.169 -1.5236 -1.7865 -0.6244
  770MOL0     H 1594   4.821   4.605  -1.238 -0.4999  3.0857 -1.5077
  770MOL0     H 1595   4.910   4.567  -1.085 -2.5467 -0.6608  2.1848
  770MOL0     H 1596   4.991   4.780  -1.076  0.9221  0.5987 -0.5995
  770MOL0     H 1597   4.885   4.837  -1.224  0.0707 -0.3692 -0.5631
  770MOL0     H 1598   5.138   4.812  -1.223  2.2792 -1.9649  1.9405
  770MOL0     H 1599   5.125   4.637  -1.224  0.0254  1.4218  0.6918
  770MOL0     H 1600   4.965   4.777  -1.429  2.5414  1.4383 -1.1920
  770MOL0     H 1601   5.019   4.608  -1.425  1.9404 -1.1497 -2.7433
  770MOL0     H 1602   5.365   4.798  -1.620  0.6542  0.1441 -0.5717
  770MOL0     H 1603   5.366   4.854  -1.854  0.4350 -0.4776  0.5307
  770MOL0     H 1604   5.396   5.128  -2.193  1.1059 -2.6408  1.9380
  770MOL0     H 1605   5.427   5.150  -2.441  0.0369  0.1194 -0.3489
  770MOL0     H 1606   5.316   5.169  -2.640  0.6428 -0.3402  0.0750
  770MOL0     H 1607   5.347   5.092  -2.796 -0.6345  4.6206  0.2417
  770MOL0     H 1608   5.583   5.093  -2.606 -0.4160  1.5485  1.6268
  770MOL0     H 1609   5.527   5.247  -2.675  0.3689 -0.4994  2.3684
  770MOL0     H 1610   5.540   5.135  -2.904  2.4259 -1.0304 -1.1185
  770MOL0     H 1611   5.595   4.981  -2.836  1.1065 -0.0794 -1.0873
  770MOL0     H 1612   5.727   5.255  -2.827 -0.8418  0.7250 -2.4220
  770MOL0     H 1613   5.795   5.106  -2.755 -1.5824 -2.2420 -0.1225
  770MOL0     H 1614   5.743   5.177  -3.051  0.9531 -0.8312  0.5836
  770MOL0     H 1615   5.777   5.013  -2.992 -1.2728  0.8797 -4.7569
  770MOL0     H 1616   5.981   5.086  -3.046 -1.4005 -1.0890 -0.2274
  770MOL0     H 1617   5.979   5.111  -2.873 -1.5477 -1.9707 -0.9764
  770MOL0     H 1618   6.012   5.317  -3.082 -1.8615 -1.2262 -0.1075
  770MOL0     H 1619   5.885   5.365  -2.961  1.9329  2.2892 -0.3889
  770MOL0     H 1620   6.180   5.323  -2.917 -0.1080 -1.0293 -2.3058
  770MOL0     H 1621   6.055   5.310  -2.782  0.0925  0.5464 -0.9032
  770MOL0     H 1622   5.212   4.767  -2.502  1.1029 -1.4617  0.8148
  770MOL0     H 1623   5.167   4.769  -2.266  4.1332 -2.3338  3.8713
  770MOL0     H 1624   4.929   4.850  -1.872 -1.3657 -3.6614 -0.1797
  770MOL0     H 1625   4.927   4.775  -1.639  0.2312 -2.6561 -2.0335
  770MOL0     H 1626   3.898   5.505  -0.368 -0.7012 -0.4810 -0.3743
  770MOL0     H 1627   3.935   5.628  -0.170 -1.1554  0.2408 -2.3467
  770MOL0     H 1628   3.787   5.643   0.267 -0.6520 -1.9923  0.5316
  770MOL0     H 1629   3.794   5.781   0.475  2.0546  0.1037  2.5979
  770MOL0     H 1630   4.033   5.937   0.774  0.0526 -1.0552  0.5576
  770MOL0     H 1631   4.122   5.786   0.714  1.6066  1.5626  0.6366
  770MOL0     H 1632   3.812   5.826   0.734 -0.5106  0.5583 -0.0541
  770MOL0     H 1633   3.902   5.671   0.721  1.1177  0.3798 -1.5131
  770MOL0     H 1634   3.816   5.701   0.946 -0.3566 -0.1844 -3.2169
  770MOL0     H 1635   3.863   5.861   0.954 -1.6224 -0.3036 -0.8862
  770MOL0     H 1636   4.109   5.803   0.977 -0.3519  1.5084 -0.2061
  770MOL0     H 1637   4.011   5.716   1.085 -3.2226  2.4711 -0.5131
  770MOL0     H 1638   4.136   5.366   0.889 -2.8851 -0.8727  3.8445
  770MOL0     H 1639   4.210   5.817   0.466 -0.5781 -1.5733  1.2528
  770MOL0     H 1640   4.227   5.649   0.276  0.6958  1.4621  1.3599
  771MOL0     O 1641   0.357   5.653   6.351 -0.0296  0.0067  0.0125
  771MOL0     C 1642   0.390   5.563   6.433 -0.3179 -0.2725 -0.0694
  771MOL0     O 1643   0.510   5.487   6.444  0.2608 -0.5643  0.7417
  771MOL0     C 1644   0.613   5.503   6.355 -0.2910  0.6193 -0.2196
  771MOL0     C 1645   0.735   5.539   6.407  0.6984  0.2063 -0.5599
  771MOL0     C 1646   0.847   5.564   6.330  0.2609  0.1382 -0.2878
  771MOL0     C 1647   0.841   5.538   6.190  0.4681 -0.4347 -0.3185
  771MOL0     O 1648   0.941   5.555   6.095  0.6495 -0.6306 -0.2540
  771MOL0     C 1649   1.034   5.670   6.115  0.0610  0.5930  0.1669
  771MOL0     C 1650   0.968   5.806   6.150 -0.2164  0.1569  0.9293
  771MOL0     C 1651   0.855   5.836   6.043 -0.6606 -0.0196 -0.1171
  771MOL0     C 1652   0.901   5.838   5.898 -0.1530  0.1926 -0.3352
  771MOL0     C 1653   0.812   5.730   5.841  0.4088 -1.2165  0.5909
  771MOL0     C 1654   0.853   5.701   5.691  0.0449 -0.1881  1.1650
  771MOL0     C 1655   0.984   5.628   5.687 -1.2532 -0.9679  0.2264
  771MOL0     C 1656   0.960   5.478   5.719 -0.1496 -0.3463 -1.0514
  771MOL0     N 1657   1.065   5.397   5.665 -0.2896 -0.4347  0.8869
  771MOL0     C 1658   1.082   5.350   5.539 -0.7986 -0.5106  0.4466
  771MOL0     C 1659   1.169   5.252   5.539  0.0878 -0.1216  0.0959
  771MOL0     C 1660   1.200   5.177   5.414  1.2302 -0.9895  0.3084
  771MOL0     C 1661   1.279   5.052   5.441  0.2146 -0.6321 -0.6106
  771MOL0     C 1662   1.303   4.963   5.321  0.0993 -0.5206 -0.5443
  771MOL0     C 1663   1.413   5.014   5.218  0.8059  0.9944 -0.5019
  771MOL0     O 1664   1.545   5.046   5.275  0.2073 -0.0742  0.2859
  771MOL0     C 1665   1.643   4.957   5.291 -0.9410 -0.2554 -0.6842
  771MOL0     C 1666   1.640   4.814   5.282  0.1094  0.1408  0.9242
  771MOL0     C 1667   1.757   4.739   5.289  0.0596 -0.0060 -0.2223
  771MOL0     C 1668   1.874   4.798   5.327 -0.8316  1.1281 -0.2663
  771MOL0     C 1669   1.999   4.717   5.340 -0.4443 -0.3087  0.0990
  771MOL0     O 1670   2.097   4.773   5.421 -0.0297  0.9381 -0.2998
  771MOL0     C 1671   2.219   4.710   5.454 -0.0088 -0.3464  0.3359
  771MOL0     C 1672   2.283   4.627   5.363  0.3681  0.4049 -0.5429
  771MOL0     C 1673   2.405   4.575   5.401  0.3232 -0.9356  1.2365
  771MOL0     C 1674   2.469   4.591   5.518 -0.6664  0.3275 -0.7231
  771MOL0     O 1675   2.573   4.519   5.562  0.5137  0.3048 -0.1325
  771MOL0     C 1676   2.538   4.377   5.607 -1.5577 -0.4052 -0.4214
  771MOL0     C 1677   2.675   4.314   5.610 -0.0301  0.2245  0.6280
  771MOL0     C 1678   2.660   4.165   5.648  0.1061 -0.3881  0.6882
  771MOL0     C 1679   2.801   4.103   5.667  1.0055 -0.5028  0.5406
  771MOL0     C 1680   2.797   3.968   5.740  0.4825 -0.4633 -0.7481
  771MOL0     C 1681   2.942   3.913   5.747  0.0321  0.0514 -0.0612
  771MOL0     C 1682   3.029   3.965   5.856 -0.1445  0.2257 -0.6375
  771MOL0     C 1683   3.007   3.891   5.991 -0.4062 -0.0670 -0.4207
  771MOL0    Cl 1684   3.038   4.006   6.128 -0.1103  0.1327  0.1502
  771MOL0     C 1685   2.401   4.687   5.610 -0.2304  0.2407  0.1744
  771MOL0     C 1686   2.275   4.733   5.580 -0.2923 -0.5470 -0.1320
  771MOL0     O 1687   1.990   4.601   5.297 -1.1915  0.7790 -0.1616
  771MOL0     C 1688   1.875   4.931   5.345 -0.9140  0.3767  0.2315
  771MOL0     C 1689   1.763   5.014   5.332 -1.0092  0.7027 -0.4788
  771MOL0     N 1690   1.200   5.231   5.672  0.2059  0.2298 -0.3743
  771MOL0     N 1691   1.141   5.322   5.742 -0.2125  0.4958  0.1131
  771MOL0     C 1692   0.720   5.490   6.144 -0.0813  0.1772  0.3884
  771MOL0     C 1693   0.607   5.485   6.220  0.1239 -0.2826  0.2879
  771MOL0     C 1694   0.281   5.527   6.535 -0.3501 -0.3792  0.3757
  771MOL0     C 1695   0.302   5.421   6.631 -0.8087 -0.0731  0.6944
  771MOL0     C 1696   0.196   5.373   6.714 -0.6229 -0.6228  0.0418
  771MOL0     C 1697   0.071   5.427   6.713  0.8661  0.4741 -0.3551
  771MOL0     O 1698  -0.028   5.392   6.804 -0.4955  0.0561 -0.3540
  771MOL0     C 1699  -0.014   5.279   6.897 -0.3176  0.2456 -0.3244
  771MOL0     C 1700  -0.140   5.213   6.957 -0.6290 -0.2861  0.3000
  771MOL0     C 1701  -0.109   5.156   7.096 -0.0015  0.1386 -0.8218
  771MOL0     C 1702  -0.031   5.025   7.082 -0.3981 -0.3103 -0.0871
  771MOL0     C 1703  -0.104   4.915   7.013  0.2123  0.2140  0.6458
  771MOL0     C 1704  -0.146   4.829   6.939 -0.4107  1.0148  0.1591
  771MOL0     C 1705   0.046   5.534   6.633 -0.3807  1.1695 -0.0560
  771MOL0     C 1706   0.153   5.586   6.555 -0.2501  0.5245  0.3740
  771MOL0     H 1707   0.747   5.546   6.515 -1.7993  1.3014 -0.2836
  771MOL0     H 1708   0.938   5.596   6.380  0.3932 -0.8747  0.1499
  771MOL0     H 1709   1.103   5.682   6.031  1.3485  3.2241  1.4932
  771MOL0     H 1710   1.097   5.636   6.198  0.7079  1.9242  0.2400
  771MOL0     H 1711   1.055   5.873   6.155 -0.5913  1.0725 -2.5233
  771MOL0     H 1712   0.919   5.818   6.248  0.2961  4.9011  0.8357
  771MOL0     H 1713   0.823   5.939   6.060  0.8655  0.3363  0.7797
  771MOL0     H 1714   0.776   5.764   6.066 -0.0404 -0.3088  1.1876
  771MOL0     H 1715   0.877   5.932   5.848 -0.5252  0.4688  0.3496
  771MOL0     H 1716   1.009   5.822   5.898 -0.3502 -1.3522 -0.7291
  771MOL0     H 1717   0.706   5.754   5.845 -0.3068 -3.6459 -1.3680
  771MOL0     H 1718   0.831   5.633   5.889  5.2016 -0.7383  0.2183
  771MOL0     H 1719   0.867   5.793   5.633 -0.7352 -1.5350 -1.3051
  771MOL0     H 1720   0.770   5.652   5.638 -0.5111  1.1048  0.7893
  771MOL0     H 1721   1.019   5.626   5.583  0.6408 -1.3167  0.8160
  771MOL0     H 1722   1.061   5.672   5.752 -3.6109  2.9982  0.6460
  771MOL0     H 1723   0.865   5.451   5.671 -1.3285 -1.5888  1.7426
  771MOL0     H 1724   0.935   5.469   5.825 -2.0432  3.9150 -0.9691
  771MOL0     H 1725   1.032   5.377   5.446 -0.2794  2.1732  0.8626
  771MOL0     H 1726   1.255   5.242   5.345  2.4469  1.0688  3.0407
  771MOL0     H 1727   1.110   5.141   5.363 -0.2701  2.5789  0.0715
  771MOL0     H 1728   1.223   4.999   5.519 -1.0890 -0.8643 -1.6706
  771MOL0     H 1729   1.371   5.070   5.498  2.0203 -0.1710 -3.4887
  771MOL0     H 1730   1.342   4.871   5.364  0.3636  0.7193  2.0248
  771MOL0     H 1731   1.204   4.936   5.284 -0.5986 -1.5236  1.8856
  771MOL0     H 1732   1.378   5.109   5.177  4.0262  2.5872  0.1471
  771MOL0     H 1733   1.427   4.942   5.137  0.2024  0.7630 -0.4085
  771MOL0     H 1734   1.543   4.767   5.267 -0.1442  0.3055  1.9359
  771MOL0     H 1735   1.762   4.632   5.277  0.8341 -0.2914  2.2386
  771MOL0     H 1736   2.243   4.606   5.264 -0.1547 -3.9335  0.3868
  771MOL0     H 1737   2.456   4.523   5.320 -0.5374  0.9264 -0.5974
  771MOL0     H 1738   2.484   4.336   5.521  2.8771 -2.6245 -2.5156
  771MOL0     H 1739   2.478   4.379   5.698 -0.3446  0.3007  0.3915
  771MOL0     H 1740   2.743   4.358   5.684  1.0678  0.4950 -0.5113
  771MOL0     H 1741   2.722   4.322   5.512  0.0668 -0.8775  0.5721
  771MOL0     H 1742   2.614   4.105   5.569  0.9884  2.2477 -1.9656
  771MOL0     H 1743   2.607   4.158   5.744  2.2024  2.5128  2.2060
  771MOL0     H 1744   2.836   4.094   5.564 -1.3330  0.2891 -0.3802
  771MOL0     H 1745   2.866   4.176   5.717 -1.2249  1.1753  1.1320
  771MOL0     H 1746   2.728   3.898   5.690 -1.6911  0.8651  0.2379
  771MOL0     H 1747   2.762   3.972   5.843  1.8524 -2.0640 -0.1820
  771MOL0     H 1748   2.994   3.931   5.652  0.8468  1.2645  0.5943
  771MOL0     H 1749   2.941   3.807   5.775  0.6356  0.4559  1.5778
  771MOL0     H 1750   3.133   3.940   5.832  0.2936 -1.7451  2.6454
  771MOL0     H 1751   3.018   4.073   5.861  2.0332  0.4974 -0.5147
  771MOL0     H 1752   3.070   3.802   5.999 -1.2156 -0.5111  1.7286
  771MOL0     H 1753   2.902   3.859   5.993 -0.7441  0.8396  3.4418
  771MOL0     H 1754   2.446   4.715   5.705  0.0129 -2.3386  0.9127
  771MOL0     H 1755   2.225   4.797   5.652  0.0315 -2.7362  2.2118
  771MOL0     H 1756   1.972   4.973   5.369 -0.3023 -1.5221  1.2557
  771MOL0     H 1757   1.780   5.115   5.367  4.7134  0.5541 -1.9261
  771MOL0     H 1758   0.708   5.479   6.037 -1.8107 -1.2155  0.6943
  771MOL0     H 1759   0.509   5.467   6.178 -0.4874 -1.8942  2.2413
  771MOL0     H 1760   0.398   5.370   6.633  0.0904  1.2635 -2.4601
  771MOL0     H 1761   0.223   5.291   6.781 -2.0932 -1.2704 -0.1108
  771MOL0     H 1762   0.041   5.326   6.980 -1.8016  3.7409 -1.1365
  771MOL0     H 1763   0.042   5.200   6.847  1.7644  1.6037 -0.2702
  771MOL0     H 1764  -0.213   5.290   6.983 -3.2623 -1.5492 -2.7312
  771MOL0     H 1765  -0.182   5.143   6.884  0.7239 -1.6685  0.7982
  771MOL0     H 1766  -0.205   5.147   7.148  1.3307 -1.3530  1.5740
  771MOL0     H 1767  -0.056   5.233   7.152  1.6459 -2.2779  1.1738
  771MOL0     H 1768   0.070   5.035   7.042 -0.0003  0.5318  1.0926
  771MOL0     H 1769  -0.020   4.987   7.184 -4.1627  0.9108  0.9576
  771MOL0     H 1770  -0.152   4.748   6.870 -1.6917  3.4442 -2.8036
  771MOL0     H 1771  -0.050   5.584   6.645  0.5050  2.3609  3.6470
  771MOL0     H 1772   0.129   5.676   6.499 -0.5973  0.3112  0.1801
  772MOL0     O 1773   5.597   3.825   7.231 -0.8824  0.2423 -0.6015
  772MOL0     C 1774   5.691   3.753   7.269  0.4909 -1.1044  0.8015
  772MOL0     O 1775   5.709   3.701   7.387 -0.3287  0.2114 -0.3529
  772MOL0     C 1776   5.601   3.717   7.468  0.4551 -0.6198  0.7912
  772MOL0     C 1777   5.502   3.622   7.480 -0.4249  0.6301  0.1526
  772MOL0     C 1778   5.401   3.647   7.574  0.2443 -0.3770 -1.3011
  772MOL0     C 1779   5.393   3.759   7.657 -0.5608 -0.4503  0.1387
  772MOL0     O 1780   5.279   3.776   7.736  0.1879 -0.0305  0.2062
  772MOL0     C 1781   5.279   3.881   7.826  0.4068  0.3940 -0.1874
  772MOL0     C 1782   5.169   3.842   7.924  0.7749 -0.0010  0.0465
  772MOL0     C 1783   5.156   3.968   8.029  0.9423  0.4403  1.0291
  772MOL0     C 1784   5.129   3.928   8.175 -0.1541  0.2720  0.6077
  772MOL0     C 1785   5.090   4.047   8.266  0.4101 -0.4000 -0.0057
  772MOL0     C 1786   5.049   3.999   8.403 -0.0904  0.2576 -0.9406
  772MOL0     C 1787   4.930   3.904   8.396 -0.6302 -0.6232 -0.2973
  772MOL0     C 1788   4.863   3.857   8.532  0.5666  0.3680  0.0109
  772MOL0     N 1789   4.952   3.796   8.628  0.8975 -0.4621  0.9650
  772MOL0     C 1790   5.005   3.672   8.618 -0.0729 -0.1813 -0.2910
  772MOL0     C 1791   5.098   3.666   8.718  0.1398 -0.5731  0.6986
  772MOL0     C 1792   5.173   3.544   8.763  1.3381  1.0931 -0.6970
  772MOL0     C 1793   5.164   3.508   8.917  0.7636  0.7617 -0.3488
  772MOL0     C 1794   5.038   3.445   8.966  1.3804  0.8911  0.1100
  772MOL0     C 1795   4.918   3.529   8.970 -0.2997  0.4947  0.1750
  772MOL0     O 1796   4.832   3.509   8.855  0.3098 -0.4969  0.7882
  772MOL0     C 1797   4.733   3.602   8.834 -0.0045  0.7263  0.3911
  772MOL0     C 1798   4.698   3.697   8.926  0.3207 -0.2963 -0.3326
  772MOL0     C 1799   4.599   3.786   8.915  0.1572  0.5315  0.5852
  772MOL0     C 1800   4.532   3.799   8.792  0.4058  0.4027 -0.5378
  772MOL0     C 1801   4.425   3.900   8.779 -0.0816  0.2441  0.2834
  772MOL0     O 1802   4.338   3.885   8.673 -0.3823  0.1312  0.3768
  772MOL0     C 1803   4.248   3.986   8.652 -0.1186  0.0400  0.3586
  772MOL0     C 1804   4.116   3.975   8.715 -0.9610 -0.0007  0.4583
  772MOL0     C 1805   4.024   4.092   8.690  0.1993  0.8280  0.6453
  772MOL0     C 1806   4.063   4.199   8.607  0.1682  0.5573  0.4530
  772MOL0     O 1807   3.996   4.316   8.591  0.2978  0.2547 -0.7450
  772MOL0     C 1808   3.854   4.300   8.586 -0.0294 -0.5426 -0.4541
  772MOL0     C 1809   3.807   4.439   8.569 -0.2430  0.2025 -0.5854
  772MOL0     C 1810   3.877   4.517   8.455  0.5192 -0.5233  0.5099
  772MOL0     C 1811   3.797   4.644   8.422 -0.5904  0.3993 -0.8319
  772MOL0     C 1812   3.877   4.747   8.333 -0.4153  0.7690 -0.4845
  772MOL0     C 1813   3.915   4.678   8.203 -0.2684 -0.4986 -0.7247
  772MOL0     C 1814   3.945   4.772   8.097  0.8130 -0.3982  0.3749
  772MOL0     C 1815   4.082   4.839   8.087  1.1166  0.3900  0.3061
  772MOL0    Cl 1816   4.211   4.699   8.102 -0.1896 -0.2599  0.0133
  772MOL0     C 1817   4.185   4.201   8.539  0.0911  0.5984  0.6427
  772MOL0     C 1818   4.278   4.095   8.565 -0.1479 -0.3347  0.2841
  772MOL0     O 1819   4.432   4.006   8.849  0.0310  0.4208 -0.3015
  772MOL0     C 1820   4.566   3.700   8.696 -0.1473 -1.1002  0.1316
  772MOL0     C 1821   4.668   3.603   8.711  0.2048 -0.1535  0.1804
  772MOL0     N 1822   5.088   3.774   8.800  0.1585 -0.7756  0.4270
  772MOL0     N 1823   5.015   3.858   8.727 -0.1647  0.3848  0.1240
  772MOL0     C 1824   5.492   3.849   7.636 -0.5371 -0.2243 -0.0417
  772MOL0     C 1825   5.606   3.820   7.554 -0.2408 -1.1898 -0.1392
  772MOL0     C 1826   5.800   3.719   7.167  0.0280  0.2590 -0.0719
  772MOL0     C 1827   5.922   3.659   7.205  0.5603 -0.0208  0.7665
  772MOL0     C 1828   6.029   3.641   7.119  0.1189  0.0530 -0.4739
  772MOL0     C 1829   6.012   3.645   6.988  0.0670  0.0492  1.2621
  772MOL0     O 1830   6.116   3.584   6.918  0.1566 -0.2059 -0.5524
  772MOL0     C 1831   6.099   3.595   6.779 -0.2277  0.6231  0.6876
  772MOL0     C 1832   6.205   3.528   6.687  0.2157 -1.0461 -0.4041
  772MOL0     C 1833   6.232   3.382   6.709 -0.3668 -0.7976 -0.5094
  772MOL0     C 1834   6.131   3.299   6.637  0.4680  1.0447 -0.2972
  772MOL0     C 1835   6.172   3.289   6.502 -0.8134 -0.5222 -0.0532
  772MOL0     C 1836   6.194   3.281   6.386 -0.3294 -0.7853  0.3354
  772MOL0     C 1837   5.888   3.694   6.937  0.4682 -0.4807  0.7399
  772MOL0     C 1838   5.785   3.733   7.021  0.5094  0.5623  1.0628
  772MOL0     H 1839   5.492   3.530   7.425 -2.9869  0.4320  0.8065
  772MOL0     H 1840   5.318   3.577   7.575  0.0481 -0.1584  0.7755
  772MOL0     H 1841   5.253   3.971   7.770  0.1772  0.0061 -0.7176
  772MOL0     H 1842   5.370   3.884   7.886  0.2695 -0.9278  0.1251
  772MOL0     H 1843   5.189   3.753   7.985 -3.4935  0.1311  1.9836
  772MOL0     H 1844   5.082   3.826   7.860 -0.4326  6.1521 -0.3902
  772MOL0     H 1845   5.072   4.032   8.002  1.0154 -1.1412 -3.7685
  772MOL0     H 1846   5.240   4.038   8.030 -0.0213  1.6673 -0.1110
  772MOL0     H 1847   5.052   3.852   8.164 -0.5826  0.6264  1.0937
  772MOL0     H 1848   5.218   3.878   8.214 -0.4362 -1.4766 -0.8673
  772MOL0     H 1849   5.017   4.124   8.237  0.6255 -0.0723  0.3170
  772MOL0     H 1850   5.185   4.100   8.276 -0.0624  1.4826 -3.5016
  772MOL0     H 1851   5.000   4.075   8.465 -1.2215 -2.9000  2.4015
  772MOL0     H 1852   5.127   3.946   8.458 -0.7878  0.0031 -0.1665
  772MOL0     H 1853   4.845   3.949   8.343  1.0952  0.8943 -1.9157
  772MOL0     H 1854   4.955   3.811   8.344  0.6411 -0.8982  0.7631
  772MOL0     H 1855   4.783   3.785   8.510 -0.1886 -0.0721  3.5862
  772MOL0     H 1856   4.817   3.947   8.573 -1.3371 -0.0612 -1.0530
  772MOL0     H 1857   4.987   3.594   8.545  1.6009 -0.4503 -0.4615
  772MOL0     H 1858   5.277   3.556   8.734  2.3809 -0.0433  2.2244
  772MOL0     H 1859   5.142   3.457   8.705  2.0346 -0.0911  0.6336
  772MOL0     H 1860   5.173   3.595   8.981  0.3082 -0.3638  1.3192
  772MOL0     H 1861   5.250   3.445   8.943  0.0466 -0.1174 -0.0416
  772MOL0     H 1862   5.033   3.343   8.925  0.7656 -0.5779  3.4888
  772MOL0     H 1863   5.059   3.424   9.071  1.1906  0.3337  0.0404
  772MOL0     H 1864   4.946   3.633   8.989  0.5122 -0.2120  3.6392
  772MOL0     H 1865   4.857   3.492   9.054 -0.5024  0.1697 -0.1149
  772MOL0     H 1866   4.739   3.699   9.027  1.2102  1.5315 -0.6965
  772MOL0     H 1867   4.579   3.861   8.991  2.3604  3.4255 -1.4970
  772MOL0     H 1868   4.100   3.898   8.790  1.0169 -2.1736 -1.2011
  772MOL0     H 1869   3.926   4.102   8.734 -1.1922  0.5920 -2.1667
  772MOL0     H 1870   3.803   4.254   8.671 -0.1574  2.2802  1.0844
  772MOL0     H 1871   3.807   4.259   8.496 -2.4977  1.0481  0.0129
  772MOL0     H 1872   3.818   4.500   8.659 -0.8394  0.4089 -0.6505
  772MOL0     H 1873   3.701   4.418   8.554  0.0798 -0.8037 -1.6288
  772MOL0     H 1874   3.877   4.463   8.360  3.6937 -0.5286  0.4050
  772MOL0     H 1875   3.979   4.539   8.485  0.2327 -0.6322  1.6011
  772MOL0     H 1876   3.707   4.607   8.371 -0.6732  1.5678 -1.5633
  772MOL0     H 1877   3.776   4.688   8.520  0.7049  1.5543 -1.0531
  772MOL0     H 1878   3.965   4.781   8.389 -0.6918  1.9043 -0.7200
  772MOL0     H 1879   3.819   4.836   8.309  0.1885  0.1703 -4.9380
  772MOL0     H 1880   3.827   4.617   8.177 -0.9408  0.9757 -2.1358
  772MOL0     H 1881   4.003   4.616   8.220  1.2727  1.9970  0.9249
  772MOL0     H 1882   3.929   4.722   8.002  1.2703 -0.9825  0.5992
  772MOL0     H 1883   3.871   4.853   8.098  1.7264  0.4637  0.4786
  772MOL0     H 1884   4.089   4.908   8.172  4.6691  2.9198 -1.7495
  772MOL0     H 1885   4.084   4.907   8.002 -1.0475 -1.3183 -1.2233
  772MOL0     H 1886   4.213   4.285   8.476  1.7048  0.1861  0.7602
  772MOL0     H 1887   4.376   4.109   8.519 -0.2684 -1.0158 -0.1953
  772MOL0     H 1888   4.521   3.708   8.597  1.6133  2.0709 -0.5540
  772MOL0     H 1889   4.694   3.539   8.628  1.3197  2.7401 -1.8836
  772MOL0     H 1890   5.491   3.944   7.688 -0.7662 -0.5113  0.4927
  772MOL0     H 1891   5.681   3.895   7.532 -1.3178  0.8664  2.7253
  772MOL0     H 1892   5.932   3.627   7.308  0.6652  1.5309  1.2610
  772MOL0     H 1893   6.116   3.593   7.164 -0.0897  0.0516 -0.0616
  772MOL0     H 1894   6.092   3.698   6.744  1.6736  0.1236 -1.4102
  772MOL0     H 1895   6.006   3.542   6.757  0.4445 -0.7031  0.8945
  772MOL0     H 1896   6.174   3.552   6.584  0.6011  0.9781 -0.0911
  772MOL0     H 1897   6.288   3.594   6.714 -0.0967  2.3250 -6.0392
  772MOL0     H 1898   6.243   3.367   6.817  0.6493  1.8941 -0.1657
  772MOL0     H 1899   6.334   3.352   6.682 -1.3705 -3.8787 -1.2631
  772MOL0     H 1900   6.136   3.197   6.677 -0.7193  0.6820 -1.0124
  772MOL0     H 1901   6.030   3.333   6.664 -0.3591 -0.7392 -0.9454
  772MOL0     H 1902   6.212   3.282   6.280 -1.1065  2.6374  0.1221
  772MOL0     H 1903   5.856   3.701   6.833 -0.2783  3.9368  1.1010
  772MOL0     H 1904   5.709   3.795   6.974 -0.4807 -2.1881 -1.2955
  773MOL0     O 1905   5.166   2.701   3.115  0.1453  0.5065 -0.1249
  773MOL0     C 1906   5.198   2.726   2.999  0.2676  0.0273  1.0420
  773MOL0     O 1907   5.264   2.638   2.915  0.3144 -1.0849  0.5354
  773MOL0     C 1908   5.303   2.520   2.963 -1.3310 -0.0656  0.2220
  773MOL0     C 1909   5.229   2.434   3.037 -0.6256 -0.5767 -0.3143
  773MOL0     C 1910   5.273   2.304   3.057 -0.3308 -0.2594  0.3326
  773MOL0     C 1911   5.398   2.259   3.005  0.3508 -0.5957 -0.0346
  773MOL0     O 1912   5.434   2.130   3.008 -0.1084 -0.4091 -0.6668
  773MOL0     C 1913   5.363   2.025   3.087  1.4972 -0.4414 -0.2903
  773MOL0     C 1914   5.420   1.885   3.064 -0.4982  0.1054 -0.2942
  773MOL0     C 1915   5.397   1.831   2.926 -0.1903  0.2097  0.3220
  773MOL0     C 1916   5.474   1.696   2.912  0.6959 -1.0605  0.5994
  773MOL0     C 1917   5.391   1.593   2.842 -0.1419  0.1583  0.7858
  773MOL0     C 1918   5.326   1.503   2.958  0.8724 -0.0587  0.4740
  773MOL0     C 1919   5.214   1.406   2.903 -0.0534 -0.1833  0.1246
  773MOL0     C 1920   5.278   1.314   2.795  0.5187  0.2294 -0.3298
  773MOL0     N 1921   5.187   1.205   2.755  0.4296  0.1623  0.0181
  773MOL0     C 1922   5.200   1.079   2.811 -0.9404 -0.4205 -0.6269
  773MOL0     C 1923   5.100   1.020   2.757 -0.4081  0.0946 -0.5518
  773MOL0     C 1924   5.059   0.890   2.818  0.0070  0.8842 -0.2351
  773MOL0     C 1925   5.131   0.773   2.744 -0.0104  0.6716 -0.1828
  773MOL0     C 1926   5.055   0.634   2.766  0.4689  0.6146 -1.0150
  773MOL0     C 1927   5.103   0.540   2.658  0.0643  0.6374  0.0525
  773MOL0     O 1928   5.019   0.544   2.545 -1.0768 -0.2405 -0.2906
  773MOL0     C 1929   4.890   0.505   2.565 -0.2607  0.1672  0.4588
  773MOL0     C 1930   4.780   0.550   2.483 -0.8981 -0.6737 -0.6501
  773MOL0     C 1931   4.653   0.496   2.501  0.4663 -0.7608  0.5185
  773MOL0     C 1932   4.622   0.408   2.598  0.0095  0.6599  0.1865
  773MOL0     C 1933   4.471   0.357   2.612 -0.2256  0.2620 -0.1686
  773MOL0     O 1934   4.436   0.259   2.691  0.7492 -0.7185  0.3571
  773MOL0     C 1935   4.302   0.204   2.679 -1.2014  0.0376 -0.4237
  773MOL0     C 1936   4.296   0.062   2.659 -1.0423 -0.6278  0.5741
  773MOL0     C 1937   4.171   0.001   2.666 -0.2954 -1.8597 -0.1932
  773MOL0     C 1938   4.055   0.076   2.685  0.3257  0.1062  0.1971
  773MOL0     O 1939   3.930   0.017   2.671  0.4053 -0.0325  0.7696
  773MOL0     C 1940   3.903  -0.057   2.783 -0.0027 -0.6440 -0.3426
  773MOL0     C 1941   3.828   0.032   2.889 -0.3855 -0.0680  1.1367
  773MOL0     C 1942   3.687   0.083   2.839 -0.7353  0.1327  0.1726
  773MOL0     C 1943   3.599   0.130   2.962 -0.7241 -0.1719 -0.5213
  773MOL0     C 1944   3.449   0.149   2.918  0.6081 -0.5619  0.8104
  773MOL0     C 1945   3.371   0.026   2.942 -0.8920  0.4651  0.7571
  773MOL0     C 1946   3.232   0.029   2.903 -0.7559 -0.3564 -0.1807
  773MOL0     C 1947   3.128  -0.040   2.985  0.2492  0.3574  0.6022
  773MOL0    Cl 1948   3.163  -0.197   3.047 -0.0482 -0.6353 -0.0849
  773MOL0     C 1949   4.067   0.216   2.704 -0.5361  0.6433 -0.1740
  773MOL0     C 1950   4.191   0.276   2.699 -0.2248  0.0470  0.5651
  773MOL0     O 1951   4.390   0.422   2.545 -0.8556  0.4654 -0.0239
  773MOL0     C 1952   4.725   0.363   2.672  0.4041  0.4269 -0.3378
  773MOL0     C 1953   4.855   0.413   2.665 -0.2919  1.4745  0.1125
  773MOL0     N 1954   5.029   1.103   2.672 -0.6203 -0.6526  0.3022
  773MOL0     N 1955   5.075   1.218   2.672 -0.6646 -0.0272  0.4071
  773MOL0     C 1956   5.480   2.349   2.946 -0.6092 -0.3757 -0.6894
  773MOL0     C 1957   5.430   2.479   2.921 -0.5057 -0.0232  0.7034
  773MOL0     C 1958   5.172   2.859   2.957 -0.3665 -0.2592 -0.5082
  773MOL0     C 1959   5.110   2.957   3.039  0.1099 -0.1262  0.3018
  773MOL0     C 1960   5.116   3.091   3.006  0.0668 -0.2450 -0.7444
  773MOL0     C 1961   5.160   3.128   2.877 -0.5397  0.4042  1.3599
  773MOL0     O 1962   5.172   3.259   2.830 -1.2453  0.1328 -0.1417
  773MOL0     C 1963   5.061   3.347   2.867  0.0154  0.4969  1.0218
  773MOL0     C 1964   5.034   3.447   2.752  0.1018 -0.1076 -0.1968
  773MOL0     C 1965   5.159   3.535   2.766 -0.5025 -0.3471  0.9738
  773MOL0     C 1966   5.164   3.642   2.650 -1.2664  0.2605  0.3806
  773MOL0     C 1967   5.304   3.689   2.670 -0.1482 -0.3988 -0.1699
  773MOL0     C 1968   5.422   3.715   2.701  0.0146  0.5985 -0.0414
  773MOL0     C 1969   5.231   3.033   2.800 -0.2067 -0.0380  0.2379
  773MOL0     C 1970   5.240   2.902   2.841  0.1566  0.1089  0.8317
  773MOL0     H 1971   5.126   2.462   3.057 -2.7887 -4.5673 -4.0993
  773MOL0     H 1972   5.195   2.245   3.105 -0.6904 -1.0632 -1.1757
  773MOL0     H 1973   5.255   2.032   3.069  0.9714 -2.5508  1.4880
  773MOL0     H 1974   5.386   2.057   3.188 -2.3500  0.3070  0.5062
  773MOL0     H 1975   5.373   1.813   3.132 -3.6483  0.9006 -1.4634
  773MOL0     H 1976   5.527   1.876   3.085 -0.7938 -1.9862  0.6234
  773MOL0     H 1977   5.443   1.900   2.854 -1.8839  0.2831 -0.7385
  773MOL0     H 1978   5.290   1.838   2.909 -0.4844  2.0927  2.5602
  773MOL0     H 1979   5.556   1.716   2.842 -0.8997 -2.4911 -1.8287
  773MOL0     H 1980   5.517   1.650   3.001  0.0693  0.7768  1.9177
  773MOL0     H 1981   5.458   1.542   2.772 -1.9099  0.2836 -1.0985
  773MOL0     H 1982   5.321   1.644   2.775  1.7743  0.0451 -1.4382
  773MOL0     H 1983   5.278   1.572   3.027 -0.8262 -2.4858  1.8828
  773MOL0     H 1984   5.399   1.441   3.012 -2.9201 -3.4118  2.3010
  773MOL0     H 1985   5.180   1.342   2.985 -1.0364 -3.0802 -2.3703
  773MOL0     H 1986   5.124   1.455   2.865  2.6922  2.5021 -3.6487
  773MOL0     H 1987   5.361   1.259   2.840 -0.6253 -1.1862  0.1193
  773MOL0     H 1988   5.327   1.367   2.712  2.3339  0.5227  0.8849
  773MOL0     H 1989   5.274   1.040   2.880 -3.2188 -1.3146  1.4627
  773MOL0     H 1990   4.951   0.886   2.801  0.1098  0.1247 -0.7528
  773MOL0     H 1991   5.067   0.876   2.926 -2.4188  1.5825  0.0998
  773MOL0     H 1992   5.231   0.756   2.784  0.2969  0.3684 -1.0458
  773MOL0     H 1993   5.142   0.798   2.638 -0.4929  3.2543  0.3261
  773MOL0     H 1994   5.088   0.594   2.863  0.2616 -0.2601 -1.3024
  773MOL0     H 1995   4.947   0.647   2.773  0.3686 -0.9029  3.0617
  773MOL0     H 1996   5.122   0.443   2.704 -0.8926  1.2719  1.8727
  773MOL0     H 1997   5.203   0.573   2.626 -0.7866  0.5149 -3.0319
  773MOL0     H 1998   4.800   0.619   2.401 -1.6513  0.2876 -0.0499
  773MOL0     H 1999   4.572   0.520   2.433  0.2215  2.1054  1.6967
  773MOL0     H 2000   4.389   0.011   2.635  1.2779  3.2751  0.3308
  773MOL0     H 2001   4.168  -0.107   2.659  0.2671 -2.0342  1.5851
  773MOL0     H 2002   3.992  -0.104   2.826 -0.6573 -0.5450  1.1855
  773MOL0     H 2003   3.832  -0.138   2.766  0.3796 -0.9606 -0.4575
  773MOL0     H 2004   3.879   0.123   2.923 -1.1765  1.6576 -1.9453
  773MOL0     H 2005   3.815  -0.035   2.975  1.7986 -2.3553 -0.1666
  773MOL0     H 2006   3.638  -0.004   2.794  2.7432 -3.0670  2.0115
  773MOL0     H 2007   3.692   0.158   2.760  1.8824 -1.5512 -1.4181
  773MOL0     H 2008   3.607   0.055   3.041 -2.5753 -1.1768 -1.2281
  773MOL0     H 2009   3.642   0.225   2.996 -1.8131  0.8760 -1.9142
  773MOL0     H 2010   3.442   0.178   2.813  0.2007 -2.0671  0.3874
  773MOL0     H 2011   3.410   0.231   2.980  0.1563 -1.7369  2.1580
  773MOL0     H 2012   3.392  -0.003   3.045 -0.0425  0.2013  0.5137
  773MOL0     H 2013   3.420  -0.044   2.874 -1.0742 -0.3356  1.4300
  773MOL0     H 2014   3.218   0.137   2.891  0.2799  0.1588  2.5316
  773MOL0     H 2015   3.214  -0.014   2.804 -2.4752 -1.3668  0.5283
  773MOL0     H 2016   3.029  -0.045   2.938 -1.7832  1.2805  4.3120
  773MOL0     H 2017   3.108   0.011   3.080  1.1420  2.9862 -0.5130
  773MOL0     H 2018   3.977   0.268   2.735 -0.0884 -0.0234  2.4526
  773MOL0     H 2019   4.213   0.379   2.725  3.4770 -0.4165 -0.1998
  773MOL0     H 2020   4.689   0.299   2.752  1.2529 -1.0845 -1.1245
  773MOL0     H 2021   4.930   0.362   2.724 -0.3692 -0.0177 -1.0275
  773MOL0     H 2022   5.572   2.318   2.897 -0.8635 -2.2628 -0.0332
  773MOL0     H 2023   5.485   2.550   2.859 -2.3822  3.2494  2.5112
  773MOL0     H 2024   5.072   2.916   3.132 -0.6212 -0.9037 -0.3264
  773MOL0     H 2025   5.067   3.160   3.074  0.0020 -0.7259 -0.3066
  773MOL0     H 2026   5.085   3.407   2.955  3.0577  2.1172 -0.7301
  773MOL0     H 2027   4.971   3.285   2.875 -0.3001  0.9078  0.6456
  773MOL0     H 2028   5.036   3.392   2.658 -2.0637  0.3686 -0.5813
  773MOL0     H 2029   4.937   3.497   2.760 -0.9350 -1.4703 -2.9740
  773MOL0     H 2030   5.246   3.469   2.756 -0.6133 -0.2897 -0.5935
  773MOL0     H 2031   5.176   3.583   2.863 -0.0853 -4.6072  3.2455
  773MOL0     H 2032   5.160   3.599   2.549  2.1677  0.9843 -0.1902
  773MOL0     H 2033   5.102   3.728   2.676 -0.0438  0.8633  1.4423
  773MOL0     H 2034   5.519   3.737   2.740 -0.2796  0.6440  0.6989
  773MOL0     H 2035   5.273   3.062   2.704 -3.4175  1.1561 -0.9788
  773MOL0     H 2036   5.299   2.833   2.782 -1.0263  1.0255 -1.5644
  774MOL0     O 2037   8.612   6.136   9.775  0.1571  0.9358  0.5693
  774MOL0     C 2038   8.498   6.113   9.809  0.7929 -0.0873 -0.0628
  774MOL0     O 2039   8.396   6.146   9.731 -0.1329  0.5371 -0.6702
  774MOL0     C 2040   8.425   6.188   9.604  0.0790 -0.2532  0.1899
  774MOL0     C 2041   8.363   6.128   9.493 -0.7577 -0.1638  0.1412
  774MOL0     C 2042   8.394   6.162   9.361 -0.4905 -1.7321 -0.3352
  774MOL0     C 2043   8.472   6.276   9.342 -0.5587  0.2701  0.2801
  774MOL0     O 2044   8.477   6.330   9.217  0.0097 -0.3097 -0.7019
  774MOL0     C 2045   8.601   6.378   9.171 -0.2920  0.7335  0.7087
  774MOL0     C 2046   8.588   6.400   9.018  0.2282  0.0271  0.4086
  774MOL0     C 2047   8.724   6.462   8.977 -0.2632  0.3528  0.1630
  774MOL0     C 2048   8.723   6.609   8.948 -0.9006  0.2675 -0.1057
  774MOL0     C 2049   8.667   6.631   8.804  0.4178 -0.1865 -0.4035
  774MOL0     C 2050   8.670   6.784   8.782  0.6474 -0.0503  0.0910
  774MOL0     C 2051   8.607   6.823   8.650 -0.9291  0.2377  0.6465
  774MOL0     C 2052   8.455   6.791   8.659 -1.2044 -0.1243  0.1891
  774MOL0     N 2053   8.394   6.893   8.564 -0.5719  0.2027  0.1814
  774MOL0     C 2054   8.342   6.861   8.439  0.8750  0.1413  0.0004
  774MOL0     C 2055   8.315   6.981   8.383 -1.0297  0.2501  0.7128
  774MOL0     C 2056   8.284   6.998   8.239  0.5229  0.5903  0.1423
  774MOL0     C 2057   8.240   7.144   8.205  0.2664  0.3143  0.2782
  774MOL0     C 2058   8.227   7.153   8.048  0.0729 -0.4182  0.1766
  774MOL0     C 2059   8.117   7.064   7.978 -0.7879  0.7598  1.0536
  774MOL0     O 2060   8.102   7.083   7.840 -0.0683 -0.2493  0.0051
  774MOL0     C 2061   8.072   7.216   7.795  0.0793  0.2121 -0.2303
  774MOL0     C 2062   8.174   7.287   7.741 -0.6310  0.3342 -0.4514
  774MOL0     C 2063   8.147   7.404   7.667 -0.3277 -0.6604 -0.1305
  774MOL0     C 2064   8.007   7.446   7.658 -0.0769 -0.2607  0.5214
  774MOL0     C 2065   7.970   7.557   7.573  0.4936  0.0700  0.2105
  774MOL0     O 2066   7.855   7.637   7.613 -0.5356  0.4438 -0.5458
  774MOL0     C 2067   7.848   7.768   7.578  0.8383  0.3158  0.4405
  774MOL0     C 2068   7.950   7.849   7.526 -0.1672  0.0342 -0.2531
  774MOL0     C 2069   7.942   7.989   7.508 -0.4231  0.7236 -0.1824
  774MOL0     C 2070   7.823   8.056   7.528 -0.1356 -0.0657 -0.2549
  774MOL0     O 2071   7.810   8.188   7.490  0.2004 -0.4345  0.0432
  774MOL0     C 2072   7.703   8.263   7.550 -0.6225  0.0493 -0.0163
  774MOL0     C 2073   7.593   8.277   7.444  0.7486  0.6889 -0.2222
  774MOL0     C 2074   7.474   8.356   7.478 -0.0272  0.2704 -0.8326
  774MOL0     C 2075   7.422   8.343   7.618 -0.2825  0.4236 -0.5235
  774MOL0     C 2076   7.277   8.411   7.619 -0.0521  0.9495 -0.7614
  774MOL0     C 2077   7.208   8.390   7.757  0.0223  0.4309  0.5430
  774MOL0     C 2078   7.098   8.484   7.802  0.5942  0.9341  0.5158
  774MOL0     C 2079   7.020   8.409   7.910 -0.7729  0.3526 -0.6405
  774MOL0    Cl 2080   7.122   8.398   8.066  0.2843  0.8902 -0.1960
  774MOL0     C 2081   7.720   7.975   7.578 -0.6687  0.0647 -0.5671
  774MOL0     C 2082   7.728   7.837   7.602  0.1503 -0.2989 -0.3334
  774MOL0     O 2083   8.033   7.574   7.469 -0.0862  0.0148  0.0456
  774MOL0     C 2084   7.910   7.371   7.720 -0.0553 -0.0634  0.3609
  774MOL0     C 2085   7.935   7.257   7.791  0.9751 -0.0773  0.2221
  774MOL0     N 2086   8.308   7.070   8.483 -0.0154 -0.3107  0.2782
  774MOL0     N 2087   8.354   7.027   8.592 -0.4930 -0.3792 -0.7084
  774MOL0     C 2088   8.520   6.347   9.453  0.5355  0.9516  0.1708
  774MOL0     C 2089   8.505   6.297   9.579 -0.6627 -0.0812 -0.2288
  774MOL0     C 2090   8.468   6.073   9.956  0.8303  0.5162  0.5170
  774MOL0     C 2091   8.336   6.085  10.013 -0.3736 -0.5454  0.1033
  774MOL0     C 2092   8.313   6.029  10.138  0.2337  0.0112  0.7360
  774MOL0     C 2093   8.420   5.988  10.222 -0.0096  0.7535 -1.2095
  774MOL0     O 2094   8.393   5.955  10.354  0.0298 -0.2722  0.0165
  774MOL0     C 2095   8.487   5.938  10.457 -1.2157  0.1666 -0.5056
  774MOL0     C 2096   8.584   6.064  10.486 -0.2114  0.5279  0.4520
  774MOL0     C 2097   8.692   6.017  10.591 -0.1840 -0.0415 -0.2743
  774MOL0     C 2098   8.763   6.133  10.656 -0.6653 -0.5257 -0.1444
  774MOL0     C 2099   8.686   6.194  10.763  0.4950  0.3336  0.2666
  774MOL0     C 2100   8.607   6.239  10.849  0.2569  0.0840  0.0912
  774MOL0     C 2101   8.551   5.981  10.163  0.2518 -0.5889 -0.3478
  774MOL0     C 2102   8.566   6.026  10.041 -0.5261 -0.3429 -0.0711
  774MOL0     H 2103   8.292   6.049   9.516 -0.2852 -0.5395  0.3286
  774MOL0     H 2104   8.328   6.122   9.285 -3.0149  1.6154 -0.1610
  774MOL0     H 2105   8.674   6.301   9.197 -0.3815 -1.0381 -3.4902
  774MOL0     H 2106   8.638   6.467   9.222  1.3093 -0.0747  1.0203
  774MOL0     H 2107   8.509   6.470   8.989 -0.4582 -0.8649  0.0709
  774MOL0     H 2108   8.568   6.303   8.970 -0.7420  1.2292 -1.7814
  774MOL0     H 2109   8.761   6.401   8.894  1.9961 -2.2171  2.8100
  774MOL0     H 2110   8.797   6.438   9.054  1.8513  4.0955 -0.3896
  774MOL0     H 2111   8.656   6.658   9.019 -2.3371 -2.6036  0.6830
  774MOL0     H 2112   8.826   6.641   8.965  0.0107 -2.8089  0.7164
  774MOL0     H 2113   8.561   6.605   8.793  0.0968  1.4711 -1.6330
  774MOL0     H 2114   8.727   6.585   8.725 -0.6867 -0.2572 -1.2352
  774MOL0     H 2115   8.773   6.822   8.786  0.9758 -0.8519 -0.3787
  774MOL0     H 2116   8.609   6.828   8.861 -1.2284  4.6446 -3.5389
  774MOL0     H 2117   8.621   6.932   8.649 -3.2941  0.6160  1.2445
  774MOL0     H 2118   8.655   6.774   8.565 -1.9608 -0.1302  0.2535
  774MOL0     H 2119   8.415   6.793   8.761  0.1954 -1.7415  0.8144
  774MOL0     H 2120   8.443   6.685   8.637  0.9958  0.0834 -2.5500
  774MOL0     H 2121   8.343   6.765   8.389 -0.8009 -1.5238  2.9140
  774MOL0     H 2122   8.205   6.924   8.221 -0.2150  1.2901  0.4653
  774MOL0     H 2123   8.366   6.963   8.175  1.1285 -1.4100  1.8974
  774MOL0     H 2124   8.316   7.212   8.246 -0.0333  0.5657  0.4192
  774MOL0     H 2125   8.140   7.158   8.245 -0.2203  0.2649 -0.8824
  774MOL0     H 2126   8.194   7.257   8.036 -2.2435 -0.4219  4.3552
  774MOL0     H 2127   8.321   7.137   7.995 -0.1979  0.1681 -0.4919
  774MOL0     H 2128   8.020   7.084   8.025 -1.0664  1.9845  0.0262
  774MOL0     H 2129   8.139   6.958   7.992  2.3563  1.1156 -0.3785
  774MOL0     H 2130   8.277   7.255   7.750  0.7625  4.6897  2.1382
  774MOL0     H 2131   8.234   7.448   7.619 -0.8289  1.0842  0.4796
  774MOL0     H 2132   8.044   7.805   7.493  0.7874  2.5006 -0.9911
  774MOL0     H 2133   8.029   8.037   7.464  0.0846 -0.6024 -0.6727
  774MOL0     H 2134   7.757   8.357   7.570  3.5643 -2.0273 -0.3568
  774MOL0     H 2135   7.658   8.221   7.640 -1.3641  0.2733 -0.2831
  774MOL0     H 2136   7.574   8.170   7.437  5.1974 -0.2943 -0.0205
  774MOL0     H 2137   7.624   8.304   7.343 -2.5914  3.7259 -0.6789
  774MOL0     H 2138   7.399   8.327   7.405 -1.0440  4.4815 -1.7519
  774MOL0     H 2139   7.488   8.460   7.446 -3.8587  1.1870 -0.0352
  774MOL0     H 2140   7.407   8.237   7.642  1.2455 -0.0694 -1.6255
  774MOL0     H 2141   7.490   8.375   7.697 -0.0513  1.1798 -1.0201
  774MOL0     H 2142   7.224   8.371   7.532 -0.7446  1.6230 -0.6578
  774MOL0     H 2143   7.293   8.519   7.614  1.9588  0.7830  0.6413
  774MOL0     H 2144   7.281   8.414   7.835 -2.2557 -0.2057  3.0314
  774MOL0     H 2145   7.180   8.286   7.778  1.4919 -0.2295 -0.5637
  774MOL0     H 2146   7.136   8.579   7.840  3.0336  0.4976 -0.6229
  774MOL0     H 2147   7.020   8.499   7.727 -0.2139 -0.3623  1.0585
  774MOL0     H 2148   7.003   8.305   7.880 -0.4675  0.2204 -0.3519
  774MOL0     H 2149   6.922   8.456   7.919 -0.8626  0.2026 -0.8217
  774MOL0     H 2150   7.621   8.016   7.600 -0.4659 -0.5229  1.6953
  774MOL0     H 2151   7.650   7.769   7.635 -0.1717 -1.6946 -3.5794
  774MOL0     H 2152   7.806   7.401   7.726  0.1762  0.4772  1.9043
  774MOL0     H 2153   7.843   7.219   7.834  0.8061 -1.2539 -1.0913
  774MOL0     H 2154   8.553   6.450   9.440 -1.2986  1.9714  2.7531
  774MOL0     H 2155   8.551   6.348   9.663 -1.0416  0.8209 -0.5577
  774MOL0     H 2156   8.252   6.140   9.972 -2.4565 -1.7214  2.5043
  774MOL0     H 2157   8.219   6.036  10.193  0.9494 -0.1706  2.0194
  774MOL0     H 2158   8.551   5.850  10.443  1.9608  1.9393  1.6557
  774MOL0     H 2159   8.427   5.918  10.546 -0.5486 -0.4099 -0.1714
  774MOL0     H 2160   8.633   6.106  10.398  0.4830 -1.2502 -0.0518
  774MOL0     H 2161   8.535   6.151  10.532 -0.1254  0.5284  0.5426
  774MOL0     H 2162   8.770   5.958  10.543 -0.3719 -1.4606  1.0850
  774MOL0     H 2163   8.646   5.961  10.673 -5.1957  2.1892 -1.1402
  774MOL0     H 2164   8.848   6.087  10.706  0.3452  1.5988  0.2276
  774MOL0     H 2165   8.784   6.222  10.595  1.0525  0.3268  1.5825
  774MOL0     H 2166   8.529   6.265  10.918  0.7177  3.2714 -0.3958
  774MOL0     H 2167   8.627   5.937  10.227 -2.1081 -0.4035  2.8325
  774MOL0     H 2168   8.667   6.032  10.000 -0.7975  0.4137 -0.6463
  775MOL0     O 2169   3.046   6.301   7.268  0.4490 -0.0765 -0.3109
  775MOL0     C 2170   2.946   6.242   7.318 -0.0763 -0.5110  0.9621
  775MOL0     O 2171   2.816   6.261   7.294  0.2933  0.5455  0.6384
  775MOL0     C 2172   2.784   6.372   7.214 -0.1974  0.9714 -0.5619
  775MOL0     C 2173   2.696   6.335   7.107 -0.8310 -0.0394  0.0790
  775MOL0     C 2174   2.654   6.449   7.019 -0.5823  0.6896 -0.5332
  775MOL0     C 2175   2.697   6.579   7.045 -0.2316 -0.5848  0.7069
  775MOL0     O 2176   2.651   6.680   6.966  0.1679 -0.6549  0.1367
  775MOL0     C 2177   2.691   6.824   6.985 -0.2903  1.2042  1.1749
  775MOL0     C 2178   2.608   6.918   6.885  0.8558 -0.4517 -0.1484
  775MOL0     C 2179   2.599   6.874   6.738 -0.6912  0.5808 -0.7827
  775MOL0     C 2180   2.483   6.937   6.655 -0.4053 -0.0245 -1.3340
  775MOL0     C 2181   2.446   7.093   6.675  0.2023  0.6405  0.5487
  775MOL0     C 2182   2.557   7.188   6.637 -0.0315 -0.2795 -0.7075
  775MOL0     C 2183   2.624   7.159   6.503  0.0059 -0.6386  0.4187
  775MOL0     C 2184   2.740   7.259   6.480 -0.2671  0.5937 -0.5615
  775MOL0     N 2185   2.796   7.242   6.348 -0.8789  0.0239  0.1783
  775MOL0     C 2186   2.728   7.280   6.233  0.2191 -0.2939  0.5530
  775MOL0     C 2187   2.805   7.233   6.132  0.0388  1.0307 -0.6590
  775MOL0     C 2188   2.775   7.216   5.981 -0.3772 -0.2659  0.7446
  775MOL0     C 2189   2.739   7.353   5.906 -0.3640  1.3627 -0.5189
  775MOL0     C 2190   2.863   7.440   5.885  0.4927 -0.6062  1.0118
  775MOL0     C 2191   2.897   7.444   5.734 -0.7724 -0.0044 -0.0988
  775MOL0     O 2192   3.008   7.528   5.751 -0.6501  0.2891 -0.2941
  775MOL0     C 2193   3.091   7.566   5.649  0.1289  0.1352 -1.0470
  775MOL0     C 2194   3.050   7.591   5.516  1.4535  0.1423  0.7523
  775MOL0     C 2195   3.147   7.639   5.419  0.5239  0.0725  0.1916
  775MOL0     C 2196   3.282   7.671   5.454 -0.0676  0.1670 -0.5387
  775MOL0     C 2197   3.378   7.740   5.353  0.1231  0.1557  0.9648
  775MOL0     O 2198   3.488   7.801   5.407  0.7306 -0.3466  0.1374
  775MOL0     C 2199   3.584   7.871   5.344 -0.0787  0.1681 -0.6865
  775MOL0     C 2200   3.679   7.925   5.441 -0.1272  0.6393 -0.0669
  775MOL0     C 2201   3.787   8.002   5.390 -1.0548  0.0762  0.5233
  775MOL0     C 2202   3.809   8.015   5.252 -0.2625  0.0782 -0.3091
  775MOL0     O 2203   3.923   8.072   5.207 -0.8646  0.1547  0.1535
  775MOL0     C 2204   3.915   8.173   5.108  0.0884  0.2755 -1.1864
  775MOL0     C 2205   4.054   8.231   5.082  0.6667 -0.0580 -0.5440
  775MOL0     C 2206   4.125   8.303   5.199  0.0334  0.9502  0.0553
  775MOL0     C 2207   4.269   8.327   5.181 -0.5321 -0.3400  0.0443
  775MOL0     C 2208   4.312   8.474   5.200 -0.0584  0.0124  1.1913
  775MOL0     C 2209   4.449   8.521   5.152  0.0554 -0.0368 -0.8736
  775MOL0     C 2210   4.557   8.466   5.239 -0.1813  0.4378 -0.3936
  775MOL0     C 2211   4.686   8.552   5.230 -1.1764 -0.8161  0.6022
  775MOL0    Cl 2212   4.814   8.477   5.326 -0.0830 -0.3538  0.1783
  775MOL0     C 2213   3.722   7.948   5.168  0.2623 -0.6512 -0.6760
  775MOL0     C 2214   3.601   7.888   5.211  0.4112  0.2392  0.5193
  775MOL0     O 2215   3.336   7.748   5.241  0.3272 -0.9837  0.4556
  775MOL0     C 2216   3.320   7.646   5.590 -0.0557 -0.3353  1.2073
  775MOL0     C 2217   3.223   7.594   5.680  0.2745  0.1601  0.0017
  775MOL0     N 2218   2.917   7.181   6.193 -0.3489 -0.2876  0.0904
  775MOL0     N 2219   2.918   7.183   6.323 -0.0878 -0.7949  0.0863
  775MOL0     C 2220   2.776   6.610   7.159  0.1827 -0.7036  0.2667
  775MOL0     C 2221   2.814   6.505   7.247  0.2010  0.1496  0.5076
  775MOL0     C 2222   2.961   6.143   7.429 -1.2070 -0.7016 -0.6093
  775MOL0     C 2223   3.084   6.115   7.479 -0.4638 -0.9256  0.6911
  775MOL0     C 2224   3.097   6.010   7.568 -0.4871 -0.7013 -0.1294
  775MOL0     C 2225   2.988   5.920   7.610 -0.3865  0.3410 -0.1929
  775MOL0     O 2226   2.984   5.818   7.702  0.0297 -0.7996  1.2450
  775MOL0     C 2227   2.878   5.821   7.798 -0.1613 -0.5042  0.2571
  775MOL0     C 2228   2.890   5.704   7.900  0.2374 -0.6404 -0.1585
  775MOL0     C 2229   2.780   5.722   8.008 -0.0181 -0.7475 -0.6504
  775MOL0     C 2230   2.821   5.648   8.144 -0.2976 -0.9614 -0.5473
  775MOL0     C 2231   2.830   5.501   8.121 -0.2680  0.6440  0.7856
  775MOL0     C 2232   2.858   5.381   8.112  0.1824  0.3835 -0.5361
  775MOL0     C 2233   2.873   5.949   7.548 -1.0784 -0.8204  0.9960
  775MOL0     C 2234   2.858   6.058   7.462  0.3369  0.9225 -0.5267
  775MOL0     H 2235   2.674   6.230   7.095  0.8117 -0.2333 -1.7172
  775MOL0     H 2236   2.590   6.421   6.936 -2.4235 -0.5167  1.1874
  775MOL0     H 2237   2.797   6.847   6.977 -0.1496  0.2597 -0.0856
  775MOL0     H 2238   2.650   6.857   7.081 -0.8854  1.8087  0.7255
  775MOL0     H 2239   2.641   7.021   6.874 -0.7009 -0.1678 -3.5166
  775MOL0     H 2240   2.507   6.922   6.927  1.5655 -2.1462  1.9310
  775MOL0     H 2241   2.597   6.765   6.736 -0.4324  0.4811  1.6628
  775MOL0     H 2242   2.693   6.899   6.688 -0.8362  1.4882 -0.6146
  775MOL0     H 2243   2.499   6.929   6.547  0.7004  0.1885 -1.1973
  775MOL0     H 2244   2.391   6.884   6.683 -1.6261  2.3121 -0.6431
  775MOL0     H 2245   2.409   7.109   6.777 -0.4949  2.8608  0.0091
  775MOL0     H 2246   2.371   7.123   6.602  2.5806  0.6289 -2.0373
  775MOL0     H 2247   2.628   7.202   6.719  0.1263 -4.4933  0.0732
  775MOL0     H 2248   2.502   7.282   6.626 -0.1161 -0.3580 -0.9561
  775MOL0     H 2249   2.665   7.058   6.510 -0.1074 -0.8005 -0.9712
  775MOL0     H 2250   2.553   7.161   6.420 -1.9942 -1.5839  2.0262
  775MOL0     H 2251   2.814   7.255   6.561  2.0792  2.0330 -2.4562
  775MOL0     H 2252   2.696   7.359   6.484 -1.9471 -0.1224  4.2543
  775MOL0     H 2253   2.641   7.346   6.230  1.7546  1.8165 -0.3952
  775MOL0     H 2254   2.694   7.144   5.974 -1.0600  0.4734  0.9265
  775MOL0     H 2255   2.864   7.175   5.931 -1.3255 -1.2380 -0.1978
  775MOL0     H 2256   2.653   7.397   5.958 -0.6546  0.0007  0.2118
  775MOL0     H 2257   2.699   7.325   5.809 -0.3891 -1.8015  0.3037
  775MOL0     H 2258   2.849   7.542   5.924 -1.5494 -0.7526  0.7989
  775MOL0     H 2259   2.942   7.404   5.951  0.8334  0.8400  1.4204
  775MOL0     H 2260   2.836   7.503   5.666  1.8276  0.4499 -2.1707
  775MOL0     H 2261   2.922   7.347   5.690  0.4832  0.9561 -1.5914
  775MOL0     H 2262   2.956   7.554   5.477  3.3123 -2.8410 -1.3495
  775MOL0     H 2263   3.125   7.641   5.313  1.2808 -0.5407  0.0178
  775MOL0     H 2264   3.663   7.914   5.548  0.3347  1.5647  0.1048
  775MOL0     H 2265   3.860   8.053   5.453  2.3369 -1.8075 -1.5564
  775MOL0     H 2266   3.858   8.255   5.154 -0.1608  1.0658 -2.8076
  775MOL0     H 2267   3.856   8.140   5.022 -0.6019 -2.6102  0.2800
  775MOL0     H 2268   4.051   8.291   4.990 -0.9973 -1.2459 -1.3129
  775MOL0     H 2269   4.116   8.144   5.055  1.7302  1.3632 -3.1185
  775MOL0     H 2270   4.112   8.248   5.293 -0.2146 -0.0003 -0.5126
  775MOL0     H 2271   4.060   8.389   5.217 -1.3588  0.1047 -0.7130
  775MOL0     H 2272   4.332   8.261   5.243  0.4452 -1.6917 -2.2595
  775MOL0     H 2273   4.303   8.302   5.080  1.1508  0.9891  0.2426
  775MOL0     H 2274   4.310   8.496   5.307 -1.2525 -0.6623  1.3309
  775MOL0     H 2275   4.240   8.537   5.148  0.4202 -0.8241 -0.5569
  775MOL0     H 2276   4.458   8.630   5.156  1.0587 -0.1402  0.3653
  775MOL0     H 2277   4.451   8.498   5.045  0.3258 -0.4347 -0.7861
  775MOL0     H 2278   4.527   8.492   5.341 -0.9211  2.3230 -1.0579
  775MOL0     H 2279   4.580   8.360   5.221  0.1802  0.4777 -0.1755
  775MOL0     H 2280   4.670   8.652   5.269  2.2765  0.0930 -0.0192
  775MOL0     H 2281   4.724   8.560   5.128  1.0582 -0.0707  1.4360
  775MOL0     H 2282   3.741   7.942   5.062 -1.5133  1.8765 -1.2265
  775MOL0     H 2283   3.546   7.838   5.132  1.6056  1.5498 -1.2434
  775MOL0     H 2284   3.425   7.659   5.615  0.6227 -1.6060 -0.7205
  775MOL0     H 2285   3.249   7.574   5.784  1.4519 -4.3335 -0.9420
  775MOL0     H 2286   2.805   6.710   7.186 -1.4452  1.4988 -4.9548
  775MOL0     H 2287   2.869   6.524   7.338  1.9081 -1.2632 -0.1833
  775MOL0     H 2288   3.165   6.185   7.461 -1.9649  1.0816  1.4027
  775MOL0     H 2289   3.196   6.002   7.612 -0.0715 -3.6827 -1.3717
  775MOL0     H 2290   2.781   5.811   7.750 -0.4842 -1.1559  1.0285
  775MOL0     H 2291   2.895   5.910   7.858  0.1193 -0.8576  0.7094
  775MOL0     H 2292   2.880   5.610   7.845 -1.3639 -0.4480 -0.2218
  775MOL0     H 2293   2.991   5.707   7.944 -0.5789  2.0062  1.7998
  775MOL0     H 2294   2.683   5.680   7.984 -1.1059 -1.4267  3.8722
  775MOL0     H 2295   2.758   5.829   8.017 -4.8296 -1.6502  1.3991
  775MOL0     H 2296   2.918   5.675   8.186  0.9299 -1.0538 -3.1439
  775MOL0     H 2297   2.751   5.674   8.224  1.5301  2.9540  0.0393
  775MOL0     H 2298   2.896   5.283   8.132  1.3076  1.0004  0.4664
  775MOL0     H 2299   2.797   5.872   7.562 -1.2371 -0.8654 -0.0546
  775MOL0     H 2300   2.764   6.077   7.412 -0.9633 -1.8387  0.6321
  776MOL0     O 2301  10.884   0.872   0.015  0.1102 -0.3387  0.6839
  776MOL0     C 2302  10.790   0.850  -0.057  0.4610  0.6680 -0.3466
  776MOL0     O 2303  10.732   0.720  -0.063  0.6942 -0.0800  0.9508
  776MOL0     C 2304  10.747   0.599   0.005 -0.3061  0.0075  0.3940
  776MOL0     C 2305  10.671   0.489  -0.032  0.2905  0.7906  0.1729
  776MOL0     C 2306  10.692   0.362   0.030 -0.7696 -0.2279 -0.3552
  776MOL0     C 2307  10.800   0.339   0.119  0.3226 -1.1945 -0.0171
  776MOL0     O 2308  10.823   0.210   0.153  0.5058  0.1957 -0.0907
  776MOL0     C 2309  10.919   0.189   0.256 -0.1477  0.6275 -0.9302
  776MOL0     C 2310  10.904   0.048   0.317  0.5214 -0.2239  0.5918
  776MOL0     C 2311  10.956  -0.067   0.226  0.2556 -0.6775 -0.1419
  776MOL0     C 2312  10.922  -0.208   0.269 -0.6238  0.5435 -0.1617
  776MOL0     C 2313  10.954  -0.317   0.159  0.1384 -0.5458 -0.2802
  776MOL0     C 2314  11.109  -0.353   0.151  0.3072 -0.5320  0.3702
  776MOL0     C 2315  11.140  -0.423   0.016 -0.3475 -0.2016 -0.2157
  776MOL0     C 2316  11.141  -0.340  -0.116  0.2239 -0.1873 -0.4649
  776MOL0     N 2317  11.252  -0.247  -0.108 -0.0911 -0.2457  0.0761
  776MOL0     C 2318  11.391  -0.290  -0.094 -0.5288  0.5319  1.0858
  776MOL0     C 2319  11.459  -0.182  -0.047  0.0556  1.0109 -0.2254
  776MOL0     C 2320  11.607  -0.170  -0.035  0.0399 -0.2764  1.3275
  776MOL0     C 2321  11.664  -0.118   0.104 -0.4437  0.1559  0.3341
  776MOL0     C 2322  11.725   0.021   0.101  0.4311 -0.3420  0.1405
  776MOL0     C 2323  11.643   0.123   0.017  0.3451  0.2395  0.7046
  776MOL0     O 2324  11.707   0.251   0.022 -0.8154 -0.3047  0.1331
  776MOL0     C 2325  11.648   0.359  -0.040  0.5629 -0.1002  0.8472
  776MOL0     C 2326  11.714   0.479  -0.026  0.0805  0.1419  0.0523
  776MOL0     C 2327  11.668   0.591  -0.094 -1.1484  0.4799  0.6360
  776MOL0     C 2328  11.560   0.591  -0.185  0.8965  0.4653 -0.1775
  776MOL0     C 2329  11.523   0.717  -0.269 -0.9091 -1.2991  0.6501
  776MOL0     O 2330  11.610   0.824  -0.254  0.8078  0.6373  0.5622
  776MOL0     C 2331  11.605   0.944  -0.327  0.3623  0.1144 -0.0362
  776MOL0     C 2332  11.492   1.009  -0.362  0.3476 -0.9566 -0.0054
  776MOL0     C 2333  11.503   1.131  -0.431  0.7833 -0.1237  0.0631
  776MOL0     C 2334  11.625   1.197  -0.451  0.1194  0.2597 -0.0939
  776MOL0     O 2335  11.605   1.325  -0.498 -0.1211  0.6450  0.1557
  776MOL0     C 2336  11.636   1.345  -0.634  0.7926  0.4381 -0.1600
  776MOL0     C 2337  11.626   1.498  -0.647  0.1996  0.0965 -0.4597
  776MOL0     C 2338  11.677   1.551  -0.793  0.1570 -0.5322 -0.6683
  776MOL0     C 2339  11.702   1.706  -0.807 -0.7077 -0.6596  0.0503
  776MOL0     C 2340  11.813   1.766  -0.723  0.5433  0.1128 -0.0544
  776MOL0     C 2341  11.801   1.916  -0.717 -0.4397 -0.1941 -0.2760
  776MOL0     C 2342  11.884   1.987  -0.611  0.3237  0.5523  0.0639
  776MOL0     C 2343  11.880   2.140  -0.595 -0.5066  0.2204  0.8409
  776MOL0    Cl 2344  11.721   2.184  -0.507  0.1497  0.5742 -0.3313
  776MOL0     C 2345  11.739   1.135  -0.404  0.1673  0.7468 -0.7268
  776MOL0     C 2346  11.730   1.005  -0.335  0.6430 -0.2245  1.2505
  776MOL0     O 2347  11.432   0.712  -0.347  0.4743 -0.3182  1.1879
  776MOL0     C 2348  11.508   0.457  -0.208  0.6110  0.0977  0.6069
  776MOL0     C 2349  11.539   0.346  -0.129 -0.1666 -0.5424 -0.3973
  776MOL0     N 2350  11.370  -0.078  -0.040  0.2656  0.3858  0.1948
  776MOL0     N 2351  11.245  -0.119  -0.062 -0.3200  0.0197 -0.0778
  776MOL0     C 2352  10.873   0.463   0.155  0.2146  0.8052 -0.1570
  776MOL0     C 2353  10.838   0.587   0.104 -1.1187  0.5172  0.9868
  776MOL0     C 2354  10.743   0.962  -0.128 -0.1761 -0.0793  1.3427
  776MOL0     C 2355  10.807   1.083  -0.131 -0.0919 -0.4461 -1.3696
  776MOL0     C 2356  10.762   1.181  -0.208  0.0402 -0.6137 -1.0396
  776MOL0     C 2357  10.670   1.159  -0.308 -0.2615  0.2575 -1.1917
  776MOL0     O 2358  10.603   1.257  -0.383  0.1061 -1.2777  0.0216
  776MOL0     C 2359  10.631   1.395  -0.362  0.9742 -0.6185  0.5724
  776MOL0     C 2360  10.517   1.457  -0.442 -1.5400 -0.1987  0.5127
  776MOL0     C 2361  10.550   1.484  -0.590  0.3304 -0.0598  0.3577
  776MOL0     C 2362  10.416   1.462  -0.670  0.3437 -0.3597  0.4221
  776MOL0     C 2363  10.381   1.320  -0.694 -0.1208  0.2599  0.7131
  776MOL0     C 2364  10.352   1.199  -0.704  0.1371 -0.1348 -0.1025
  776MOL0     C 2365  10.604   1.037  -0.313  0.1333 -1.1128 -0.7116
  776MOL0     C 2366  10.635   0.939  -0.218  0.1023  0.7875 -0.1447
  776MOL0     H 2367  10.582   0.510  -0.090 -1.0543  0.8000  2.1288
  776MOL0     H 2368  10.633   0.276  -0.001  1.9817 -0.9117 -4.4438
  776MOL0     H 2369  10.919   0.264   0.336  1.3699 -0.7945  0.4846
  776MOL0     H 2370  11.021   0.205   0.219 -1.0153  1.7297 -2.9605
  776MOL0     H 2371  10.799   0.022   0.336  0.7429 -2.4716 -0.8895
  776MOL0     H 2372  10.948   0.047   0.417  0.1680 -1.7441  0.7647
  776MOL0     H 2373  11.063  -0.051   0.212 -0.4392  2.8841 -2.4263
  776MOL0     H 2374  10.904  -0.062   0.130 -0.2045  0.4669  0.1556
  776MOL0     H 2375  10.969  -0.240   0.363 -1.8400 -2.4290 -0.4475
  776MOL0     H 2376  10.813  -0.216   0.279 -0.6650 -1.2504 -1.6021
  776MOL0     H 2377  10.912  -0.277   0.066  1.2777  4.7689  1.1391
  776MOL0     H 2378  10.895  -0.407   0.178  2.8588 -2.8587 -1.8539
  776MOL0     H 2379  11.134  -0.417   0.236 -1.6272 -0.5580  0.9654
  776MOL0     H 2380  11.174  -0.265   0.157 -0.0221  0.0060 -2.4405
  776MOL0     H 2381  11.242  -0.461   0.028  0.7449  2.1515 -1.3310
  776MOL0     H 2382  11.064  -0.498  -0.007 -0.7918  0.8356 -2.3857
  776MOL0     H 2383  11.049  -0.282  -0.116  0.3967  0.1073  0.3901
  776MOL0     H 2384  11.141  -0.396  -0.210  2.1309  0.6025 -0.9845
  776MOL0     H 2385  11.419  -0.392  -0.117  0.2754  0.2758  3.0570
  776MOL0     H 2386  11.633  -0.118  -0.127  0.0482 -1.7301  0.4762
  776MOL0     H 2387  11.642  -0.273  -0.050 -1.8784 -0.6899 -0.8905
  776MOL0     H 2388  11.746  -0.189   0.119 -1.1939 -1.1600 -1.4717
  776MOL0     H 2389  11.586  -0.126   0.180 -1.7586  1.2441 -0.8593
  776MOL0     H 2390  11.743   0.053   0.204 -2.2745  0.3444  0.4740
  776MOL0     H 2391  11.823   0.019   0.052  1.6030 -0.5818  2.3736
  776MOL0     H 2392  11.538   0.123   0.050 -0.2065  1.5520 -0.9267
  776MOL0     H 2393  11.650   0.093  -0.088 -3.5438  1.2118 -0.0009
  776MOL0     H 2394  11.803   0.483   0.036  2.1385 -2.1915 -2.5072
  776MOL0     H 2395  11.722   0.685  -0.094 -0.3173  0.8064 -7.8129
  776MOL0     H 2396  11.397   0.975  -0.322  0.6981  0.2614  1.9453
  776MOL0     H 2397  11.409   1.185  -0.441 -0.3801 -1.9633  0.6052
  776MOL0     H 2398  11.581   1.287  -0.709 -0.4308  0.0455  1.0005
  776MOL0     H 2399  11.737   1.302  -0.636  1.0983  1.1363 -1.7872
  776MOL0     H 2400  11.693   1.544  -0.573 -0.8859  0.9375  0.0234
  776MOL0     H 2401  11.526   1.536  -0.625 -0.2487 -0.0466 -2.1212
  776MOL0     H 2402  11.592   1.525  -0.858  0.3497 -0.7568 -0.8314
  776MOL0     H 2403  11.754   1.482  -0.828 -1.8028 -3.4989  0.3425
  776MOL0     H 2404  11.714   1.726  -0.914 -2.3624 -1.5263 -0.3327
  776MOL0     H 2405  11.609   1.757  -0.783  0.6581  2.7428 -1.2317
  776MOL0     H 2406  11.910   1.735  -0.763  0.9676  0.9847  0.2806
  776MOL0     H 2407  11.800   1.716  -0.626 -1.7404  0.4777 -0.1171
  776MOL0     H 2408  11.697   1.941  -0.693 -0.7169  0.5573 -2.0455
  776MOL0     H 2409  11.817   1.946  -0.821 -3.8451 -0.3031 -0.9590
  776MOL0     H 2410  11.859   1.938  -0.517 -1.2155 -0.6122 -0.9165
  776MOL0     H 2411  11.986   1.956  -0.636  0.5186  2.2610 -1.5063
  776MOL0     H 2412  11.893   2.189  -0.692 -1.3460  4.6669  2.7197
  776MOL0     H 2413  11.963   2.175  -0.534  3.4695 -1.5101 -3.0155
  776MOL0     H 2414  11.836   1.185  -0.405  0.8719 -0.5354  0.6455
  776MOL0     H 2415  11.806   0.938  -0.297  0.1882 -2.8753 -2.0234
  776MOL0     H 2416  11.423   0.454  -0.275 -1.0774  0.5912  2.6047
  776MOL0     H 2417  11.493   0.248  -0.143 -1.3944  0.3648 -3.6607
  776MOL0     H 2418  10.965   0.461   0.212 -0.1691 -0.4685  0.4532
  776MOL0     H 2419  10.895   0.672   0.140  1.6309 -1.3219  1.2464
  776MOL0     H 2420  10.892   1.105  -0.066  0.7419  1.0841 -2.8964
  776MOL0     H 2421  10.807   1.277  -0.188  1.8065 -1.9765  2.1194
  776MOL0     H 2422  10.734   1.413  -0.396  2.6397 -4.6089  2.7612
  776MOL0     H 2423  10.625   1.416  -0.255 -3.7630 -0.3880  0.4676
  776MOL0     H 2424  10.430   1.391  -0.436  0.5726 -3.2443 -0.4048
  776MOL0     H 2425  10.496   1.549  -0.385 -0.5839  0.8115 -0.7277
  776MOL0     H 2426  10.619   1.416  -0.641 -0.0949 -0.4618  0.3144
  776MOL0     H 2427  10.582   1.588  -0.603 -0.3049  0.0032 -0.9224
  776MOL0     H 2428  10.326   1.502  -0.624  1.3639  1.4789  0.9202
  776MOL0     H 2429  10.416   1.503  -0.772 -1.4564 -0.2760  0.4370
  776MOL0     H 2430  10.353   1.092  -0.709 -0.0511 -0.2039  1.0253
  776MOL0     H 2431  10.520   1.023  -0.380  1.2968  0.6092 -2.6229
  776MOL0     H 2432  10.580   0.845  -0.216 -0.5989  1.1210  3.2403
  777MOL0     O 2433   6.741   0.066   6.983  0.3470 -0.1159 -0.0944
  777MOL0     C 2434   6.757  -0.030   6.915  0.1962  0.1091 -0.2648
  777MOL0     O 2435   6.763  -0.032   6.779  0.1943 -0.7157  0.1782
  777MOL0     C 2436   6.746   0.075   6.687 -0.5109  0.1076 -0.7358
  777MOL0     C 2437   6.774   0.205   6.727 -0.3490 -0.6663  0.2867
  777MOL0     C 2438   6.764   0.313   6.635 -0.3603 -0.3436  0.1178
  777MOL0     C 2439   6.699   0.290   6.509  0.6971 -0.2341 -0.4703
  777MOL0     O 2440   6.685   0.400   6.425 -0.3820  0.1623 -0.4214
  777MOL0     C 2441   6.651   0.365   6.293  0.1788 -0.2690  0.5539
  777MOL0     C 2442   6.636   0.491   6.218 -0.0561 -0.3748  0.4958
  777MOL0     C 2443   6.757   0.583   6.199 -0.7449  0.1404  1.8153
  777MOL0     C 2444   6.883   0.522   6.129 -0.4327 -0.3325 -0.2836
  777MOL0     C 2445   6.996   0.621   6.162  0.1560  0.8765  0.2160
  777MOL0     C 2446   7.132   0.591   6.105  0.8592 -0.4980  0.2117
  777MOL0     C 2447   7.141   0.613   5.958  0.2281 -0.2608 -0.5523
  777MOL0     C 2448   7.285   0.600   5.910 -0.7286 -0.1928 -0.2811
  777MOL0     N 2449   7.339   0.706   5.832  0.0507  0.4608  0.1659
  777MOL0     C 2450   7.329   0.832   5.891  0.3599  0.3722 -0.6126
  777MOL0     C 2451   7.391   0.915   5.809 -0.1259 -0.5314  0.3172
  777MOL0     C 2452   7.410   1.062   5.819 -0.2836 -0.3150  0.0076
  777MOL0     C 2453   7.378   1.135   5.682 -0.2038 -0.6665  0.1619
  777MOL0     C 2454   7.396   1.289   5.668 -0.3095 -0.2129 -0.7971
  777MOL0     C 2455   7.368   1.372   5.798 -0.3975  0.0548  0.0242
  777MOL0     O 2456   7.224   1.367   5.824 -0.0186  0.1708  0.6145
  777MOL0     C 2457   7.166   1.456   5.908  1.1040 -0.1296 -0.5063
  777MOL0     C 2458   7.213   1.456   6.041  0.9612  0.3720 -0.2958
  777MOL0     C 2459   7.158   1.546   6.127  0.2277 -0.1723  0.5048
  777MOL0     C 2460   7.054   1.635   6.091 -0.3755  0.2153  0.3814
  777MOL0     C 2461   7.004   1.742   6.178  0.4730 -0.0998  0.7430
  777MOL0     O 2462   7.081   1.769   6.296 -0.1553  0.6344  0.3091
  777MOL0     C 2463   7.039   1.865   6.375 -0.0593 -0.4184  1.3111
  777MOL0     C 2464   7.133   1.957   6.424  0.1901 -0.0078 -0.0430
  777MOL0     C 2465   7.100   2.057   6.519 -0.4483  0.0730  0.0331
  777MOL0     C 2466   6.976   2.065   6.569 -0.6663  0.3428  0.1581
  777MOL0     O 2467   6.947   2.166   6.659 -0.4450  0.0199 -0.4247
  777MOL0     C 2468   6.848   2.151   6.761  0.1582  0.2546 -0.0565
  777MOL0     C 2469   6.868   2.251   6.870  0.0101 -0.1676 -0.0850
  777MOL0     C 2470   6.796   2.214   7.001 -0.1357  0.5903 -1.8899
  777MOL0     C 2471   6.808   2.324   7.108  0.8393  0.5737  0.0797
  777MOL0     C 2472   6.722   2.306   7.235 -0.2245 -0.9796  0.4271
  777MOL0     C 2473   6.755   2.172   7.303 -0.1475 -0.1839  0.6699
  777MOL0     C 2474   6.698   2.145   7.446  0.2926 -0.3177  0.4672
  777MOL0     C 2475   6.771   2.028   7.505  0.8612 -1.2371 -0.0739
  777MOL0    Cl 2476   6.675   1.915   7.597 -0.1690  0.0771  0.0099
  777MOL0     C 2477   6.881   1.966   6.522  0.2246 -0.3047  0.0931
  777MOL0     C 2478   6.911   1.873   6.424 -0.3760  0.5010 -0.3525
  777MOL0     O 2479   6.914   1.815   6.132 -0.2834 -0.2213 -0.0757
  777MOL0     C 2480   6.996   1.618   5.968  0.3319 -0.0155  0.4005
  777MOL0     C 2481   7.056   1.532   5.872  0.1139 -0.6773  0.1893
  777MOL0     N 2482   7.421   0.841   5.691  0.2103 -0.7675  0.3375
  777MOL0     N 2483   7.410   0.717   5.714 -0.0886  0.0811 -0.4290
  777MOL0     C 2484   6.660   0.160   6.476 -0.2184  0.5264 -0.5817
  777MOL0     C 2485   6.688   0.049   6.561  0.4024  0.0439  0.6809
  777MOL0     C 2486   6.752  -0.158   6.990  0.2676 -0.7123  0.0007
  777MOL0     C 2487   6.744  -0.286   6.927  0.4769 -0.0999  0.3527
  777MOL0     C 2488   6.748  -0.405   7.004  0.1282  0.2252 -0.9445
  777MOL0     C 2489   6.763  -0.389   7.141  0.9130  0.0684 -0.7235
  777MOL0     O 2490   6.731  -0.494   7.224 -0.4871  0.0472 -0.6284
  777MOL0     C 2491   6.853  -0.547   7.261 -0.4691  0.9631 -1.1690
  777MOL0     C 2492   6.813  -0.665   7.355  0.1122  0.9026 -0.0226
  777MOL0     C 2493   6.758  -0.603   7.492 -0.0694  0.1203  0.3828
  777MOL0     C 2494   6.680  -0.692   7.585 -0.4993 -0.1435  0.1098
  777MOL0     C 2495   6.767  -0.806   7.622  1.1039  0.0249  1.0609
  777MOL0     C 2496   6.808  -0.915   7.644 -0.6397  0.4561  0.1273
  777MOL0     C 2497   6.765  -0.263   7.206  0.0029 -0.1567  0.0588
  777MOL0     C 2498   6.769  -0.151   7.135 -0.4361  0.3201  0.2599
  777MOL0     H 2499   6.798   0.224   6.831 -1.3398 -1.7950  0.7604
  777MOL0     H 2500   6.782   0.417   6.659 -0.9925 -0.5356  1.5394
  777MOL0     H 2501   6.558   0.308   6.285  0.4738 -0.9449  1.7423
  777MOL0     H 2502   6.723   0.303   6.237 -0.9611 -1.0318 -0.1249
  777MOL0     H 2503   6.556   0.557   6.253 -0.3100  0.7581 -1.9590
  777MOL0     H 2504   6.604   0.461   6.118  0.5184  0.8670 -0.1014
  777MOL0     H 2505   6.793   0.618   6.296  0.3023  0.8450  1.1988
  777MOL0     H 2506   6.738   0.672   6.138  1.5651  1.9125  3.4778
  777MOL0     H 2507   6.916   0.427   6.170  2.0319  0.6094  0.0769
  777MOL0     H 2508   6.880   0.497   6.023  0.9828 -1.1255 -0.1544
  777MOL0     H 2509   7.001   0.611   6.271  2.2578  0.0957  0.1035
  777MOL0     H 2510   6.955   0.717   6.131 -2.1415 -0.1075  0.0129
  777MOL0     H 2511   7.155   0.490   6.140 -3.9753 -1.4241  1.4172
  777MOL0     H 2512   7.198   0.662   6.155 -2.8932  2.1213  1.9011
  777MOL0     H 2513   7.085   0.536   5.904  1.2655 -0.1821 -1.8048
  777MOL0     H 2514   7.097   0.710   5.935 -1.5901 -0.1942  2.7165
  777MOL0     H 2515   7.299   0.500   5.868 -3.0086 -0.2885 -0.9668
  777MOL0     H 2516   7.356   0.598   5.993  0.1313 -3.0795 -0.9713
  777MOL0     H 2517   7.287   0.854   5.989  2.4003 -0.0628  0.4126
  777MOL0     H 2518   7.513   1.068   5.855  0.2372 -0.0577 -1.4496
  777MOL0     H 2519   7.356   1.101   5.906 -0.6693 -0.7771 -0.0188
  777MOL0     H 2520   7.277   1.109   5.648 -0.9951  0.7718  1.2877
  777MOL0     H 2521   7.447   1.087   5.613  2.4318  0.7196  1.6769
  777MOL0     H 2522   7.501   1.310   5.649  0.1929 -0.8279  1.0692
  777MOL0     H 2523   7.340   1.332   5.584 -0.0157  2.6886  0.4098
  777MOL0     H 2524   7.406   1.474   5.796  0.5695 -0.2801  0.3898
  777MOL0     H 2525   7.425   1.328   5.881 -0.5325  0.7364  0.4856
  777MOL0     H 2526   7.292   1.389   6.076  0.4861 -0.1294 -0.1745
  777MOL0     H 2527   7.190   1.556   6.230  0.2395  1.1759  0.3871
  777MOL0     H 2528   7.234   1.946   6.386  0.7946  5.0506 -0.5410
  777MOL0     H 2529   7.175   2.130   6.548 -0.7235  2.0194 -3.5774
  777MOL0     H 2530   6.851   2.048   6.798 -1.3764  0.1319 -0.1851
  777MOL0     H 2531   6.752   2.172   6.713  0.6010  1.4783 -0.4460
  777MOL0     H 2532   6.842   2.351   6.835  1.5096  0.0429 -0.6351
  777MOL0     H 2533   6.976   2.254   6.889  0.0979  1.0407 -0.7314
  777MOL0     H 2534   6.833   2.119   7.041 -5.4122 -0.9290  0.2480
  777MOL0     H 2535   6.692   2.188   6.979 -0.3865  1.3149 -1.5961
  777MOL0     H 2536   6.912   2.328   7.141  0.6426 -0.3600  0.8330
  777MOL0     H 2537   6.782   2.419   7.060  2.4030  3.9140  5.0317
  777MOL0     H 2538   6.616   2.311   7.209 -0.6162 -2.2863  1.6518
  777MOL0     H 2539   6.733   2.384   7.311  1.0428 -2.4791  1.8783
  777MOL0     H 2540   6.864   2.165   7.311 -0.2614 -0.1443  3.1548
  777MOL0     H 2541   6.723   2.092   7.236 -0.7951  2.1265 -1.9516
  777MOL0     H 2542   6.722   2.238   7.498  0.4667  0.7278 -1.3712
  777MOL0     H 2543   6.589   2.131   7.445 -0.1693  2.4789  1.3776
  777MOL0     H 2544   6.852   2.057   7.572  2.3512 -2.0412 -1.4709
  777MOL0     H 2545   6.822   1.976   7.424 -1.8399 -3.1365 -0.7085
  777MOL0     H 2546   6.775   1.965   6.544  0.4510 -0.5693  1.2166
  777MOL0     H 2547   6.836   1.799   6.399 -0.9998  1.0524 -0.1100
  777MOL0     H 2548   6.928   1.696   5.936  0.8321  0.4515  0.4569
  777MOL0     H 2549   7.009   1.526   5.775 -0.0700  3.2873 -0.1314
  777MOL0     H 2550   6.615   0.125   6.384 -1.1342 -1.1636  0.4477
  777MOL0     H 2551   6.668  -0.054   6.532  2.1280 -0.1640  0.1062
  777MOL0     H 2552   6.736  -0.304   6.821 -3.4326  0.7526  0.3299
  777MOL0     H 2553   6.727  -0.501   6.958 -2.3176 -1.6715  3.5120
  777MOL0     H 2554   6.908  -0.481   7.329 -1.5046 -1.6853  2.5380
  777MOL0     H 2555   6.926  -0.577   7.185  2.7171  0.7892  1.6894
  777MOL0     H 2556   6.744  -0.729   7.300  1.6411 -0.2126 -0.7043
  777MOL0     H 2557   6.890  -0.741   7.372 -0.7668 -0.2948 -1.2195
  777MOL0     H 2558   6.710  -0.509   7.464  0.0523  0.1883  0.3986
  777MOL0     H 2559   6.836  -0.563   7.558  1.1361 -0.3550 -0.7133
  777MOL0     H 2560   6.653  -0.643   7.678 -1.1800 -1.4082  0.6077
  777MOL0     H 2561   6.591  -0.726   7.532 -2.0965 -2.4022  3.8862
  777MOL0     H 2562   6.838  -1.017   7.648  1.2028  0.8756 -1.6903
  777MOL0     H 2563   6.757  -0.254   7.314 -3.0871  2.4174 -0.2328
  777MOL0     H 2564   6.757  -0.056   7.186 -4.0239 -1.3471  2.9141
  778MOL0     O 2565   7.096  10.543  11.157  0.5109  0.0984 -0.1664
  778MOL0     C 2566   7.000  10.483  11.200 -0.0381  0.7549  0.2763
  778MOL0     O 2567   6.964  10.476  11.328 -1.0096  0.2363 -0.0022
  778MOL0     C 2568   7.050  10.474  11.430 -1.2325 -0.3666  1.1812
  778MOL0     C 2569   7.196  10.453  11.416  0.3393 -0.1426  1.0803
  778MOL0     C 2570   7.272  10.461  11.530 -0.6896  0.2083 -0.5159
  778MOL0     C 2571   7.220  10.492  11.655 -0.2886 -0.0212 -0.1704
  778MOL0     O 2572   7.306  10.502  11.765 -0.1819 -0.0756  0.7879
  778MOL0     C 2573   7.444  10.482  11.756 -0.5073  0.4909 -0.4230
  778MOL0     C 2574   7.498  10.472  11.897  0.5479 -1.1959  0.6212
  778MOL0     C 2575   7.414  10.567  11.993  0.2023  0.6124  0.2170
  778MOL0     C 2576   7.487  10.569  12.131 -0.1616  0.5874  0.1479
  778MOL0     C 2577   7.399  10.619  12.239  0.1944 -0.6643 -0.6954
  778MOL0     C 2578   7.496  10.649  12.360  0.3458  0.3714  1.3488
  778MOL0     C 2579   7.422  10.720  12.470 -1.0647  0.2318 -0.4231
  778MOL0     C 2580   7.492  10.715  12.604 -0.5918 -0.5987  0.2600
  778MOL0     N 2581   7.476  10.842  12.675 -0.2643  0.7752 -0.1448
  778MOL0     C 2582   7.575  10.894  12.765  1.0182 -0.4437  0.1307
  778MOL0     C 2583   7.512  10.995  12.834 -0.0114 -1.1458  0.0030
  778MOL0     C 2584   7.557  11.080  12.954  0.1884  0.8761  0.4485
  778MOL0     C 2585   7.484  11.034  13.070 -0.8278 -1.0380  0.8352
  778MOL0     C 2586   7.515  11.119  13.192  1.1365 -0.1141 -1.2866
  778MOL0     C 2587   7.468  11.053  13.325  0.5556 -1.2556 -0.5263
  778MOL0     O 2588   7.461  11.160  13.419 -0.8506 -0.0904 -0.0497
  778MOL0     C 2589   7.577  11.200  13.481 -0.3709  0.0703 -0.2214
  778MOL0     C 2590   7.696  11.119  13.485 -0.6489  0.5792  0.4860
  778MOL0     C 2591   7.812  11.170  13.554  0.3877 -1.0641  0.4319
  778MOL0     C 2592   7.816  11.300  13.603  0.2809  1.1015 -0.4913
  778MOL0     C 2593   7.935  11.356  13.663  0.4003  0.6319  0.2932
  778MOL0     O 2594   8.052  11.300  13.615 -0.6582 -0.3740 -0.1508
  778MOL0     C 2595   8.165  11.374  13.657  0.3411  0.0303  0.9317
  778MOL0     C 2596   8.232  11.355  13.771 -0.9635 -0.2085  0.1877
  778MOL0     C 2597   8.340  11.421  13.818  0.7042  0.3435 -0.1600
  778MOL0     C 2598   8.384  11.533  13.743 -0.7661 -0.2698 -0.1180
  778MOL0     O 2599   8.478  11.622  13.776  0.1260  0.0317 -0.4846
  778MOL0     C 2600   8.477  11.650  13.918  0.0861 -0.2644  0.1468
  778MOL0     C 2601   8.595  11.747  13.939 -0.3970 -0.4734 -0.2594
  778MOL0     C 2602   8.552  11.895  13.897  0.8599  0.9233  0.3615
  778MOL0     C 2603   8.657  11.987  13.942 -0.5066  0.3461  0.6883
  778MOL0     C 2604   8.619  12.131  13.895  0.1147  0.8181  0.6480
  778MOL0     C 2605   8.741  12.223  13.893 -0.5286 -0.3070 -0.0697
  778MOL0     C 2606   8.876  12.174  13.824  0.5415  0.0149 -0.0494
  778MOL0     C 2607   8.961  12.291  13.798 -0.0075  0.0953  1.2388
  778MOL0    Cl 2608   9.090  12.238  13.701 -0.2366  0.0200  0.2768
  778MOL0     C 2609   8.323  11.561  13.620  0.2806  1.1091  0.5094
  778MOL0     C 2610   8.216  11.483  13.578 -0.2065  0.9220  0.6452
  778MOL0     O 2611   7.921  11.453  13.736  0.1944 -0.9302 -0.0349
  778MOL0     C 2612   7.691  11.378  13.604 -0.3029  0.9779 -0.9809
  778MOL0     C 2613   7.573  11.325  13.548 -0.2122 -0.1993 -0.0874
  778MOL0     N 2614   7.379  11.001  12.786  0.7508 -0.6715  0.6901
  778MOL0     N 2615   7.363  10.915  12.696  0.0413 -0.1176 -1.0765
  778MOL0     C 2616   7.089  10.527  11.657  0.5234 -0.2799  0.8455
  778MOL0     C 2617   7.001  10.502  11.551  0.5462  0.1229 -0.9914
  778MOL0     C 2618   6.922  10.434  11.087 -0.5242 -0.4914 -0.4413
  778MOL0     C 2619   6.975  10.427  10.958  0.6585 -0.5423 -0.4799
  778MOL0     C 2620   6.891  10.385  10.849 -0.9260 -0.2002 -0.7409
  778MOL0     C 2621   6.762  10.357  10.871  0.8910  0.5948 -0.4103
  778MOL0     O 2622   6.682  10.298  10.772  0.0829  0.5588 -0.3675
  778MOL0     C 2623   6.664  10.382  10.657  0.3892  0.5950  0.6080
  778MOL0     C 2624   6.575  10.294  10.556  0.7462 -0.2618  0.1290
  778MOL0     C 2625   6.672  10.184  10.497 -0.0362 -0.1826  0.3976
  778MOL0     C 2626   6.574  10.071  10.451  0.4767 -0.7493  0.4943
  778MOL0     C 2627   6.479  10.108  10.341  0.2009  0.9796  0.4556
  778MOL0     C 2628   6.415  10.128  10.240 -0.7424  0.4448 -0.0976
  778MOL0     C 2629   6.707  10.362  10.995 -0.3054 -0.5141  0.1822
  778MOL0     C 2630   6.787  10.412  11.105 -0.8312 -0.3840  0.2621
  778MOL0     H 2631   7.245  10.424  11.323 -2.3843 -5.0447  0.8430
  778MOL0     H 2632   7.376  10.431  11.526 -0.5985  0.3037  0.7905
  778MOL0     H 2633   7.488  10.562  11.695  0.3140 -0.2119 -0.7762
  778MOL0     H 2634   7.459  10.386  11.707 -3.8632 -0.7952  0.7922
  778MOL0     H 2635   7.601  10.510  11.893 -0.6533  2.8010  2.2440
  778MOL0     H 2636   7.496  10.368  11.930 -1.5315 -1.2768  0.3732
  778MOL0     H 2637   7.318  10.515  12.006  0.8317 -0.2788  1.4952
  778MOL0     H 2638   7.395  10.668  11.957  0.2112  1.0917  1.4848
  778MOL0     H 2639   7.505  10.462  12.142 -0.0689  0.6288  0.3953
  778MOL0     H 2640   7.586  10.614  12.138  0.8324 -1.6282  1.4799
  778MOL0     H 2641   7.327  10.543  12.272 -0.4640  0.8774  1.7646
  778MOL0     H 2642   7.334  10.700  12.204  1.5576  0.2477 -1.2164
  778MOL0     H 2643   7.577  10.715  12.327 -1.4008  0.9239 -2.2712
  778MOL0     H 2644   7.546  10.554  12.382 -2.3628 -1.0999  1.5395
  778MOL0     H 2645   7.411  10.823  12.434  1.2730  0.5678 -0.3544
  778MOL0     H 2646   7.325  10.669  12.471 -1.3522  0.7672  0.2131
  778MOL0     H 2647   7.598  10.690  12.597 -0.8738 -2.2724  1.4479
  778MOL0     H 2648   7.450  10.627  12.654 -1.4983  0.3823  1.2560
  778MOL0     H 2649   7.672  10.850  12.784 -0.0131 -2.4311  1.1851
  778MOL0     H 2650   7.545  11.187  12.934  1.5182  1.1575  1.0574
  778MOL0     H 2651   7.660  11.065  12.986  0.2585  2.1908  0.9320
  778MOL0     H 2652   7.507  10.929  13.090 -1.0204 -1.2122  0.1819
  778MOL0     H 2653   7.376  11.047  13.057 -0.5170  0.4599 -0.5724
  778MOL0     H 2654   7.621  11.139  13.208  0.1811  2.6168  3.7629
  778MOL0     H 2655   7.482  11.224  13.195  1.1232 -0.1359  0.0062
  778MOL0     H 2656   7.544  10.975  13.337  1.0656 -0.7575 -0.4775
  778MOL0     H 2657   7.368  11.009  13.319  1.4576 -3.7276  0.9856
  778MOL0     H 2658   7.695  11.016  13.452 -0.8656  1.4039 -2.3905
  778MOL0     H 2659   7.903  11.112  13.569  0.6753 -0.5690  0.6379
  778MOL0     H 2660   8.194  11.273  13.832 -1.1879 -0.1858  0.0791
  778MOL0     H 2661   8.387  11.391  13.911  2.0923 -0.2783 -1.0257
  778MOL0     H 2662   8.499  11.555  13.967  0.4070  0.3922  1.3196
  778MOL0     H 2663   8.383  11.693  13.954  0.3727  2.2493 -1.8660
  778MOL0     H 2664   8.681  11.719  13.877 -1.9413 -1.0480 -2.2557
  778MOL0     H 2665   8.626  11.742  14.044  0.8816  0.2110 -0.5867
  778MOL0     H 2666   8.454  11.923  13.938  0.3808  1.2869 -0.9673
  778MOL0     H 2667   8.541  11.894  13.788  0.5515 -0.6101  0.3812
  778MOL0     H 2668   8.667  11.998  14.050 -0.9958  1.6624  0.6171
  778MOL0     H 2669   8.753  11.963  13.896 -0.5611  2.1295 -0.4171
  778MOL0     H 2670   8.542  12.164  13.966 -1.1814 -0.9429  0.1576
  778MOL0     H 2671   8.570  12.131  13.797 -1.1465 -0.9944  1.1968
  778MOL0     H 2672   8.754  12.267  13.993 -2.1016  1.7364 -0.7039
  778MOL0     H 2673   8.708  12.304  13.829 -4.0710 -1.8645 -0.4378
  778MOL0     H 2674   8.925  12.108  13.896 -1.6111 -2.8385 -1.0040
  778MOL0     H 2675   8.860  12.126  13.727  1.3107 -0.9870  0.3042
  778MOL0     H 2676   8.993  12.348  13.886 -1.9119  1.3804  1.1673
  778MOL0     H 2677   8.912  12.366  13.735  0.9325  0.0474  0.4190
  778MOL0     H 2678   8.365  11.636  13.554  0.2827 -0.9179 -1.9371
  778MOL0     H 2679   8.179  11.501  13.478  2.5364  1.5308 -0.3374
  778MOL0     H 2680   7.704  11.468  13.664  1.8574  0.2813 -0.2963
  778MOL0     H 2681   7.486  11.389  13.541 -0.1657 -0.0709  0.4728
  778MOL0     H 2682   7.058  10.563  11.755  0.8395  0.1457  0.7932
  778MOL0     H 2683   6.895  10.520  11.569  0.2510 -2.7221  0.9242
  778MOL0     H 2684   7.068  10.470  10.922 -0.4110  2.0049 -0.3710
  778MOL0     H 2685   6.942  10.374  10.754  0.9658  0.4366  0.1462
  778MOL0     H 2686   6.760  10.398  10.607 -1.4698  2.2421 -2.7808
  778MOL0     H 2687   6.617  10.479  10.675 -0.6717 -0.3158  3.1104
  778MOL0     H 2688   6.488  10.251  10.607  0.5077 -0.6027 -0.5538
  778MOL0     H 2689   6.535  10.356  10.476 -1.1163 -0.5860  0.7763
  778MOL0     H 2690   6.741  10.140  10.570 -1.7507 -0.9737  1.5992
  778MOL0     H 2691   6.730  10.227  10.415 -2.7134  3.1308  0.0604
  778MOL0     H 2692   6.627   9.983  10.413  1.4964 -0.2682  0.7669
  778MOL0     H 2693   6.519  10.032  10.537 -2.1336  1.8121  0.1408
  778MOL0     H 2694   6.352  10.169  10.163 -1.9067 -0.0884  0.5373
  778MOL0     H 2695   6.606  10.324  11.012 -0.4498  0.7511  2.7873
  778MOL0     H 2696   6.749  10.418  11.206 -3.4799  1.9503 -0.7566
  779MOL0     O 2697   5.928   9.551  10.099 -0.2277  0.2095 -0.2465
  779MOL0     C 2698   6.001   9.573  10.192 -0.2084  0.3721  0.0778
  779MOL0     O 2699   6.056   9.474  10.275  0.3689  0.5198  0.3848
  779MOL0     C 2700   6.031   9.339  10.252  0.5858 -0.1432  0.9624
  779MOL0     C 2701   6.010   9.268  10.369  0.2391 -0.0830  0.2609
  779MOL0     C 2702   5.988   9.129  10.366 -0.2553 -0.7236 -0.9314
  779MOL0     C 2703   5.973   9.062  10.245  0.3538 -0.1973  0.1383
  779MOL0     O 2704   5.945   8.928  10.229 -0.8795  0.0847 -0.2688
  779MOL0     C 2705   5.844   8.909  10.134 -0.9083 -0.5006 -0.4565
  779MOL0     C 2706   5.793   8.768  10.161  0.8335 -0.4110  0.0340
  779MOL0     C 2707   5.677   8.737  10.075  0.1305 -0.6356  0.2933
  779MOL0     C 2708   5.627   8.599  10.105 -0.0782  0.1085  0.1376
  779MOL0     C 2709   5.499   8.563  10.024  0.2580  0.5236 -0.0641
  779MOL0     C 2710   5.537   8.515   9.889  1.3412  0.5952 -0.3041
  779MOL0     C 2711   5.411   8.466   9.806 -0.6267 -0.4574 -0.1610
  779MOL0     C 2712   5.358   8.329   9.850  0.5278  0.0230  0.1916
  779MOL0     N 2713   5.246   8.284   9.769 -0.0062  0.1889  0.4031
  779MOL0     C 2714   5.223   8.287   9.632  0.6069  0.0204  0.1822
  779MOL0     C 2715   5.101   8.240   9.611 -0.6413 -0.7350 -0.5233
  779MOL0     C 2716   5.044   8.226   9.466  0.1517  0.0917 -0.6454
  779MOL0     C 2717   4.954   8.106   9.457  0.3223  0.0919  0.1117
  779MOL0     C 2718   4.852   8.123   9.345  0.3595  0.2011  1.2664
  779MOL0     C 2719   4.757   8.002   9.317 -0.2344  0.2045 -0.1240
  779MOL0     O 2720   4.661   8.027   9.208 -0.6113  0.0088 -0.0462
  779MOL0     C 2721   4.707   7.977   9.084  0.3427 -0.6550  0.3524
  779MOL0     C 2722   4.621   7.888   9.032  0.5908  0.9530 -0.3516
  779MOL0     C 2723   4.634   7.825   8.909  0.0253  0.2315  0.4107
  779MOL0     C 2724   4.747   7.847   8.834 -0.1365 -0.7495  0.1121
  779MOL0     C 2725   4.772   7.780   8.706 -0.7625  0.4097  0.3290
  779MOL0     O 2726   4.906   7.795   8.665 -0.5182  0.4296 -1.1343
  779MOL0     C 2727   4.952   7.740   8.547 -0.7273  0.2480  0.5213
  779MOL0     C 2728   4.902   7.758   8.422 -0.6324  0.1734  0.0484
  779MOL0     C 2729   4.972   7.716   8.306 -0.0031  0.2499  0.5317
  779MOL0     C 2730   5.092   7.651   8.317  0.3842 -0.0830  0.7242
  779MOL0     O 2731   5.158   7.589   8.218 -0.1676 -0.1950  0.4788
  779MOL0     C 2732   5.210   7.672   8.112  0.0908 -0.7207  1.2561
  779MOL0     C 2733   5.297   7.597   8.011  0.2861  0.2916  0.0306
  779MOL0     C 2734   5.374   7.680   7.914  0.3932 -0.2395  0.2923
  779MOL0     C 2735   5.444   7.583   7.809 -0.6029 -0.1666 -0.2734
  779MOL0     C 2736   5.579   7.639   7.764  0.4296  0.0207 -1.4746
  779MOL0     C 2737   5.586   7.782   7.709  0.3503 -0.6265 -0.4476
  779MOL0     C 2738   5.733   7.824   7.713  0.5084 -0.0503 -0.1831
  779MOL0     C 2739   5.742   7.949   7.620  0.0297 -0.7407 -0.0826
  779MOL0    Cl 2740   5.892   8.041   7.595 -0.6714 -0.3987 -0.0208
  779MOL0     C 2741   5.145   7.629   8.441 -0.9324 -0.1438  0.3232
  779MOL0     C 2742   5.072   7.669   8.557  0.9818  0.7169 -0.0128
  779MOL0     O 2743   4.689   7.701   8.657 -0.6830 -0.0490  0.8390
  779MOL0     C 2744   4.848   7.934   8.891 -0.7510 -0.5837  0.2887
  779MOL0     C 2745   4.829   8.004   9.013  0.0469  0.3571 -0.8505
  779MOL0     N 2746   5.054   8.205   9.735  0.2477 -0.4878 -0.4295
  779MOL0     N 2747   5.138   8.232   9.822  0.6062  0.2702  0.0032
  779MOL0     C 2748   6.005   9.133  10.137 -0.0426 -0.5197  0.3101
  779MOL0     C 2749   6.038   9.270  10.131  0.2146 -0.2177 -0.6867
  779MOL0     C 2750   6.038   9.720  10.213  0.3085  0.1327 -0.0779
  779MOL0     C 2751   6.103   9.768  10.321  0.2883  0.4250 -0.1953
  779MOL0     C 2752   6.129   9.909  10.341 -0.1903  1.3013  0.2029
  779MOL0     C 2753   6.077  10.001  10.244 -0.1686 -0.7420 -0.5458
  779MOL0     O 2754   6.101  10.131  10.262 -0.3938 -0.5979 -0.4300
  779MOL0     C 2755   6.058  10.244  10.172 -0.0685  0.5305 -0.7382
  779MOL0     C 2756   6.032  10.374  10.258  0.3770  0.8394  0.5584
  779MOL0     C 2757   6.169  10.418  10.324  0.2982 -0.2366  0.5265
  779MOL0     C 2758   6.219  10.340  10.443 -0.5145  0.7304 -1.0209
  779MOL0     C 2759   6.112  10.342  10.546  0.2526 -0.1587  1.1423
  779MOL0     C 2760   6.030  10.368  10.636 -0.9450 -0.7560 -0.2664
  779MOL0     C 2761   6.011   9.952  10.131 -1.3706  0.6503  0.4105
  779MOL0     C 2762   5.990   9.814  10.121 -0.0524  0.3010 -0.7733
  779MOL0     H 2763   6.011   9.317  10.466  0.0023  0.0002  0.2229
  779MOL0     H 2764   5.968   9.069  10.454  0.3714  0.2345 -0.1093
  779MOL0     H 2765   5.881   8.932  10.034  1.0293  0.8495  0.4935
  779MOL0     H 2766   5.760   8.976  10.156 -0.6629  0.1341 -1.4170
  779MOL0     H 2767   5.766   8.765  10.267 -4.0541  1.6147 -0.8903
  779MOL0     H 2768   5.876   8.705  10.128  0.5929 -0.4603 -0.4784
  779MOL0     H 2769   5.696   8.745   9.967  0.6535  2.0048  0.5025
  779MOL0     H 2770   5.596   8.810  10.084 -1.1947 -2.0856  0.4530
  779MOL0     H 2771   5.705   8.525  10.089  1.2486  1.5213 -0.1662
  779MOL0     H 2772   5.596   8.591  10.210 -0.4545 -1.7005 -0.0760
  779MOL0     H 2773   5.434   8.646   9.998  1.0646  1.0578 -0.4040
  779MOL0     H 2774   5.445   8.487  10.083  5.1591 -1.7880  2.0385
  779MOL0     H 2775   5.612   8.436   9.898 -2.1772 -2.8745  2.2370
  779MOL0     H 2776   5.572   8.607   9.841 -0.2100  0.2031 -2.3167
  779MOL0     H 2777   5.338   8.539   9.843 -0.2788 -1.5386  2.9866
  779MOL0     H 2778   5.418   8.469   9.697 -2.9574 -0.1255 -0.3539
  779MOL0     H 2779   5.321   8.341   9.952  0.2738  0.2336  0.0738
  779MOL0     H 2780   5.440   8.256   9.842  0.3273 -0.0693 -1.2552
  779MOL0     H 2781   5.289   8.321   9.553 -0.3699 -0.8108 -1.0193
  779MOL0     H 2782   5.123   8.236   9.390  1.5220 -0.2073  0.6914
  779MOL0     H 2783   4.975   8.306   9.439 -1.2491 -0.2205  1.7999
  779MOL0     H 2784   4.896   8.082   9.547 -1.5345  0.1574 -1.0124
  779MOL0     H 2785   5.024   8.023   9.446  0.8598  0.1804  2.3627
  779MOL0     H 2786   4.789   8.207   9.374  0.0957 -0.1423  1.7039
  779MOL0     H 2787   4.912   8.150   9.258 -0.1457 -3.1433 -0.2956
  779MOL0     H 2788   4.709   7.984   9.414  5.3977  3.8456  3.9299
  779MOL0     H 2789   4.822   7.916   9.299  3.6692  2.8977 -0.0853
  779MOL0     H 2790   4.533   7.866   9.091 -1.3408 -0.4234 -3.5013
  779MOL0     H 2791   4.565   7.746   8.880  3.0064 -1.8629 -1.4787
  779MOL0     H 2792   4.813   7.821   8.423 -1.5645 -1.0275  2.5990
  779MOL0     H 2793   4.932   7.738   8.208 -0.0902  1.0561  0.7354
  779MOL0     H 2794   5.281   7.744   8.152  2.3303 -1.5735 -0.9066
  779MOL0     H 2795   5.128   7.724   8.062  1.6861  0.9550  0.2554
  779MOL0     H 2796   5.235   7.527   7.954 -1.7187  0.7674  1.4915
  779MOL0     H 2797   5.364   7.536   8.071 -1.0557  0.8615  2.2234
  779MOL0     H 2798   5.449   7.735   7.971 -0.9357  1.0169  0.8960
  779MOL0     H 2799   5.302   7.739   7.858 -1.8295  0.6221  3.7452
  779MOL0     H 2800   5.471   7.491   7.861  0.2927  0.1148 -0.2237
  779MOL0     H 2801   5.369   7.560   7.733 -3.2001 -0.9378  2.3445
  779MOL0     H 2802   5.627   7.575   7.690  0.1808 -0.7812 -0.9536
  779MOL0     H 2803   5.636   7.627   7.857 -0.5134 -2.1507 -1.1344
  779MOL0     H 2804   5.526   7.852   7.767 -3.0735 -0.9947 -3.1738
  779MOL0     H 2805   5.554   7.771   7.605 -1.6104 -1.4308  0.1841
  779MOL0     H 2806   5.746   7.857   7.817 -3.2548 -1.0232  0.7449
  779MOL0     H 2807   5.808   7.746   7.696 -0.7601 -1.4772  0.5196
  779MOL0     H 2808   5.660   8.016   7.649 -0.4495 -2.3762  2.7076
  779MOL0     H 2809   5.705   7.910   7.524 -2.2763  2.2204 -0.5435
  779MOL0     H 2810   5.238   7.576   8.456 -1.1953 -0.5027  0.7021
  779MOL0     H 2811   5.115   7.651   8.654  4.1285 -1.0401 -1.5796
  779MOL0     H 2812   4.947   7.931   8.848 -1.6657 -1.9704 -1.9666
  779MOL0     H 2813   4.912   8.057   9.057  1.2601 -2.3917  0.4065
  779MOL0     H 2814   6.037   9.082  10.046  5.1072  1.6989  0.5325
  779MOL0     H 2815   6.075   9.322  10.043  3.1236 -0.6564  0.1785
  779MOL0     H 2816   6.133   9.698  10.397  2.2888  2.5349  1.0856
  779MOL0     H 2817   6.174   9.950  10.431  3.4493  0.8400 -1.2107
  779MOL0     H 2818   5.966  10.226  10.116 -0.9185  0.8879  0.5147
  779MOL0     H 2819   6.129  10.269  10.092 -0.4571 -0.1757 -1.3111
  779MOL0     H 2820   6.008  10.450  10.184 -0.3944 -1.1451 -1.3468
  779MOL0     H 2821   5.946  10.348  10.321  0.5809  1.2737  1.0222
  779MOL0     H 2822   6.138  10.516  10.362 -1.8631 -1.9417  3.6592
  779MOL0     H 2823   6.254  10.418  10.255  2.4371 -4.0714  2.8008
  779MOL0     H 2824   6.229  10.235  10.413  2.8951  1.5171 -3.2864
  779MOL0     H 2825   6.319  10.372  10.472 -0.3955  0.8881 -1.5804
  779MOL0     H 2826   5.963  10.420  10.701 -0.2244 -0.4346  0.2365
  779MOL0     H 2827   5.981  10.018  10.050  0.0365  0.6224 -0.1628
  779MOL0     H 2828   5.927   9.778  10.040  1.0816  1.1539 -2.0829
  780MOL0     O 2829   3.034   2.726   3.913  0.3342  0.0386  0.6451
  780MOL0     C 2830   2.912   2.710   3.903 -0.0701  0.5733  0.0281
  780MOL0     O 2831   2.841   2.583   3.932 -0.6341 -0.3505 -0.1674
  780MOL0     C 2832   2.930   2.486   3.958 -0.4136 -0.1406  0.7910
  780MOL0     C 2833   2.981   2.390   3.865 -0.2740 -0.6437 -0.1339
  780MOL0     C 2834   3.054   2.286   3.903  0.4472 -0.2104 -0.6849
  780MOL0     C 2835   3.071   2.252   4.037 -0.3225  0.9504 -0.9839
  780MOL0     O 2836   3.158   2.147   4.089  0.5450  0.3157 -0.1159
  780MOL0     C 2837   3.242   2.091   3.988 -0.0577 -1.0505  0.1183
  780MOL0     C 2838   3.344   2.002   4.059 -0.2948 -0.0348  0.2915
  780MOL0     C 2839   3.278   1.883   4.129  1.1901  0.4164  0.2038
  780MOL0     C 2840   3.389   1.792   4.179  0.2840 -0.6579 -0.2407
  780MOL0     C 2841   3.348   1.648   4.202  0.4604 -0.3043  0.0127
  780MOL0     C 2842   3.266   1.626   4.331  0.4534 -0.5843  0.3888
  780MOL0     C 2843   3.231   1.486   4.365  0.3066  0.2048  0.1507
  780MOL0     C 2844   3.116   1.477   4.460 -0.2863  0.9581  0.4521
  780MOL0     N 2845   3.092   1.336   4.500 -0.4961  0.5090 -0.6206
  780MOL0     C 2846   3.040   1.251   4.404 -0.0041  0.4048 -0.2791
  780MOL0     C 2847   3.094   1.130   4.435  0.6174  0.3443  0.4941
  780MOL0     C 2848   3.069   1.006   4.358  0.4516  0.5358  0.0169
  780MOL0     C 2849   3.199   0.965   4.285  0.0978  0.4084 -0.0075
  780MOL0     C 2850   3.253   1.075   4.185  0.1801 -0.8428  0.0548
  780MOL0     C 2851   3.388   1.031   4.122  0.5333 -0.1225 -0.3987
  780MOL0     O 2852   3.457   1.135   4.057  0.3497 -0.3792  0.6748
  780MOL0     C 2853   3.550   1.211   4.129  0.3858  0.3835 -0.8479
  780MOL0     C 2854   3.649   1.283   4.062  0.1978  0.4614  0.1960
  780MOL0     C 2855   3.735   1.362   4.140 -0.5496  0.7997  0.4629
  780MOL0     C 2856   3.721   1.366   4.282  0.0482 -0.3344 -0.4468
  780MOL0     C 2857   3.819   1.446   4.359  0.8915 -0.4489  0.9900
  780MOL0     O 2858   3.949   1.434   4.331  0.9581 -0.2992 -0.5684
  780MOL0     C 2859   4.032   1.480   4.434  0.4375 -0.3510 -0.2306
  780MOL0     C 2860   4.034   1.408   4.555  0.9081 -0.7837  0.4032
  780MOL0     C 2861   4.131   1.436   4.646 -0.1586  1.7466 -1.1213
  780MOL0     C 2862   4.231   1.528   4.629  0.5503  0.4034  0.4347
  780MOL0     O 2863   4.340   1.548   4.707  0.1522  0.4201  0.5092
  780MOL0     C 2864   4.353   1.469   4.831  0.3558  0.1917  0.8341
  780MOL0     C 2865   4.239   1.494   4.934 -0.1855  0.4340  0.9592
  780MOL0     C 2866   4.285   1.545   5.074 -1.1356  0.1661 -0.2916
  780MOL0     C 2867   4.174   1.556   5.189  0.5091 -0.5627  0.4203
  780MOL0     C 2868   4.236   1.594   5.317 -0.4858  0.8413  0.2940
  780MOL0     C 2869   4.285   1.745   5.312 -0.8760  0.0257 -0.6309
  780MOL0     C 2870   4.310   1.800   5.455  0.3806  0.8043  0.0500
  780MOL0     C 2871   4.402   1.719   5.547  0.8460 -0.7484  0.8536
  780MOL0    Cl 2872   4.535   1.650   5.462  0.0764  0.3715  0.4131
  780MOL0     C 2873   4.225   1.611   4.509 -0.4534  0.6706  0.0894
  780MOL0     C 2874   4.128   1.584   4.413 -0.1030  0.6733  0.0120
  780MOL0     O 2875   3.766   1.515   4.446  0.6249 -0.3386  0.0146
  780MOL0     C 2876   3.619   1.302   4.347 -0.7138  1.0454 -0.5101
  780MOL0     C 2877   3.538   1.223   4.265  0.6007  0.4092 -0.6039
  780MOL0     N 2878   3.165   1.149   4.547 -0.3930  0.8745 -1.4464
  780MOL0     N 2879   3.170   1.264   4.593 -0.3369 -0.1425 -0.2619
  780MOL0     C 2880   3.012   2.326   4.131 -0.0767 -0.3991  1.4995
  780MOL0     C 2881   2.946   2.440   4.093 -0.3856  0.0572 -0.4519
  780MOL0     C 2882   2.820   2.824   3.850 -0.1589 -0.2113  0.2590
  780MOL0     C 2883   2.692   2.805   3.866  1.1174 -0.2748  0.8658
  780MOL0     C 2884   2.601   2.900   3.798 -0.2336  0.8749 -0.9294
  780MOL0     C 2885   2.653   3.015   3.736 -1.6702  0.5396  0.9296
  780MOL0     O 2886   2.580   3.116   3.681 -0.7109 -0.3171  0.1593
  780MOL0     C 2887   2.434   3.094   3.680 -0.3063 -0.8249  0.3950
  780MOL0     C 2888   2.375   3.202   3.586  0.1448  0.0876 -0.2306
  780MOL0     C 2889   2.406   3.180   3.436 -0.4342  0.4384 -0.4929
  780MOL0     C 2890   2.346   3.279   3.343 -0.9160 -0.2447  0.2665
  780MOL0     C 2891   2.400   3.246   3.207  0.3395  0.2982 -0.4216
  780MOL0     C 2892   2.464   3.221   3.106 -1.1191 -1.0245  0.4117
  780MOL0     C 2893   2.794   3.030   3.729  0.2683  1.6055  0.0867
  780MOL0     C 2894   2.871   2.930   3.783 -0.5572  0.4485 -0.2472
  780MOL0     H 2895   2.962   2.404   3.759 -0.3659 -3.8816 -0.6341
  780MOL0     H 2896   3.094   2.226   3.822 -0.5789 -3.2026  0.8737
  780MOL0     H 2897   3.286   2.178   3.938 -0.0807 -1.8322 -1.2981
  780MOL0     H 2898   3.191   2.029   3.914 -1.0290  0.9484 -0.9455
  780MOL0     H 2899   3.404   2.058   4.132  2.2198 -2.2048  0.0553
  780MOL0     H 2900   3.411   1.963   3.981 -1.3183 -2.3498  0.4890
  780MOL0     H 2901   3.212   1.834   4.058  2.1188 -1.7955  0.7866
  780MOL0     H 2902   3.217   1.924   4.209 -0.3337  1.1057 -1.2381
  780MOL0     H 2903   3.474   1.790   4.110  2.4297 -0.8268  2.2478
  780MOL0     H 2904   3.417   1.828   4.279  0.4668 -0.0263 -0.5136
  780MOL0     H 2905   3.437   1.586   4.206  0.4904 -0.2297  0.8078
  780MOL0     H 2906   3.293   1.623   4.111 -2.7061 -1.0893  1.9807
  780MOL0     H 2907   3.184   1.698   4.321  0.9108 -0.2460 -1.2668
  780MOL0     H 2908   3.334   1.662   4.409  0.3771 -0.2883  0.3224
  780MOL0     H 2909   3.215   1.425   4.276  3.6304  0.8116 -1.0197
  780MOL0     H 2910   3.318   1.445   4.417 -1.4330 -0.4720  2.7067
  780MOL0     H 2911   3.026   1.499   4.402  1.2788  1.7034 -1.8398
  780MOL0     H 2912   3.139   1.546   4.542  0.6176  0.5119  0.5788
  780MOL0     H 2913   2.965   1.271   4.328 -2.3654 -3.3178  0.8267
  780MOL0     H 2914   2.999   1.009   4.274 -0.7803  1.1368  1.0277
  780MOL0     H 2915   3.031   0.927   4.423 -1.3200 -0.6331 -2.2951
  780MOL0     H 2916   3.181   0.870   4.234 -1.5426 -0.2497  1.6933
  780MOL0     H 2917   3.274   0.946   4.363 -0.8040 -2.0286  0.3585
  780MOL0     H 2918   3.177   1.099   4.111  1.0687  1.4540 -0.1800
  780MOL0     H 2919   3.276   1.166   4.242 -0.0269  0.0478 -1.2522
  780MOL0     H 2920   3.360   0.953   4.050 -0.7335 -0.6107  0.5750
  780MOL0     H 2921   3.454   0.987   4.198  0.1294 -0.1415 -0.0572
  780MOL0     H 2922   3.665   1.272   3.955  1.4204 -0.4837  0.4560
  780MOL0     H 2923   3.807   1.421   4.084 -2.5808  1.8093 -1.2311
  780MOL0     H 2924   3.961   1.329   4.570 -0.8769  0.3884 -1.4576
  780MOL0     H 2925   4.109   1.367   4.727  1.0924  0.6230 -1.6970
  780MOL0     H 2926   4.452   1.479   4.875  0.8713 -5.3271  1.6929
  780MOL0     H 2927   4.355   1.362   4.805 -0.6258  0.6367 -1.3286
  780MOL0     H 2928   4.182   1.402   4.950  3.7111 -2.1524  1.2624
  780MOL0     H 2929   4.174   1.574   4.898 -0.3276 -1.7177 -4.3745
  780MOL0     H 2930   4.343   1.637   5.065 -0.6969 -0.0903 -0.1439
  780MOL0     H 2931   4.350   1.467   5.116 -3.6306 -0.3565  3.0646
  780MOL0     H 2932   4.096   1.632   5.175 -0.3014 -1.2825  0.8822
  780MOL0     H 2933   4.126   1.459   5.208  0.9297 -0.2756  3.2900
  780MOL0     H 2934   4.323   1.531   5.334  0.1104  0.9027 -2.2134
  780MOL0     H 2935   4.161   1.579   5.395 -0.9754 -1.1962 -0.4931
  780MOL0     H 2936   4.206   1.810   5.273 -1.0783 -0.1517 -0.5191
  780MOL0     H 2937   4.375   1.753   5.251  1.4804  0.3137  2.6014
  780MOL0     H 2938   4.352   1.901   5.453  1.0569  0.5086 -1.7163
  780MOL0     H 2939   4.210   1.805   5.500  0.9247  0.6546  1.3072
  780MOL0     H 2940   4.352   1.636   5.598 -2.4699  2.3604  3.2395
  780MOL0     H 2941   4.440   1.783   5.627 -0.4434 -0.4362  1.2379
  780MOL0     H 2942   4.302   1.686   4.494  0.0419  0.4474  1.3606
  780MOL0     H 2943   4.122   1.630   4.315  0.4549  0.2068 -0.2497
  780MOL0     H 2944   3.621   1.318   4.454  1.6675  1.0310 -0.5137
  780MOL0     H 2945   3.466   1.166   4.323  0.4085 -1.4856 -2.5739
  780MOL0     H 2946   3.017   2.291   4.234  1.1689 -0.0726  1.5700
  780MOL0     H 2947   2.902   2.502   4.171 -1.0685 -0.0610 -0.7403
  780MOL0     H 2948   2.659   2.719   3.923 -1.2516 -0.2234 -0.2968
  780MOL0     H 2949   2.495   2.878   3.788 -0.1768 -1.1314  1.7638
  780MOL0     H 2950   2.383   3.106   3.776  1.0393 -1.6750  1.2334
  780MOL0     H 2951   2.418   2.999   3.629 -0.6238 -0.4239 -0.2847
  780MOL0     H 2952   2.268   3.199   3.606 -0.3334  1.9033 -2.1571
  780MOL0     H 2953   2.396   3.304   3.619 -3.1742  0.9777 -0.4842
  780MOL0     H 2954   2.364   3.083   3.409 -0.5969  0.2821  0.2804
  780MOL0     H 2955   2.515   3.183   3.431 -0.4720  0.7144 -1.2815
  780MOL0     H 2956   2.237   3.276   3.334 -0.9395  1.9007 -0.7779
  780MOL0     H 2957   2.379   3.381   3.365  0.7662 -0.6039 -0.4247
  780MOL0     H 2958   2.509   3.193   3.013 -3.3353 -4.1492  0.0829
  780MOL0     H 2959   2.834   3.107   3.663 -0.1008 -0.2362 -2.4490
  780MOL0     H 2960   2.978   2.935   3.802 -0.6788 -1.1238  1.0479
  781MOL0     O 2961   7.866   5.388   8.927 -0.1712  0.3918  0.1101
  781MOL0     C 2962   7.992   5.394   8.905 -0.9562 -0.1277 -0.6675
  781MOL0     O 2963   8.068   5.291   8.850 -1.2557  0.3916 -1.0327
  781MOL0     C 2964   7.996   5.181   8.807 -0.2752  0.3891  0.3700
  781MOL0     C 2965   7.980   5.153   8.668 -1.2251 -0.0106  0.4076
  781MOL0     C 2966   7.920   5.041   8.627 -0.5030  0.0578  0.6883
  781MOL0     C 2967   7.887   4.941   8.723  0.4396 -0.4044 -0.9057
  781MOL0     O 2968   7.836   4.811   8.694 -0.5647  0.9323 -0.0262
  781MOL0     C 2969   7.797   4.785   8.558  1.0624  0.4903  0.9173
  781MOL0     C 2970   7.813   4.630   8.549  0.1529  0.0882 -0.3174
  781MOL0     C 2971   7.950   4.563   8.552 -0.5767  0.5185  0.2576
  781MOL0     C 2972   7.930   4.415   8.519  0.2003 -0.2368  0.1367
  781MOL0     C 2973   8.063   4.352   8.486  0.2454  0.1077 -0.2006
  781MOL0     C 2974   8.061   4.196   8.486 -0.6046 -0.2635 -0.2523
  781MOL0     C 2975   8.161   4.123   8.397 -0.1334 -0.5841 -0.5995
  781MOL0     C 2976   8.154   3.975   8.437 -0.7422  0.6040 -0.7342
  781MOL0     N 2977   8.246   3.879   8.367  0.0521  0.6899  0.6566
  781MOL0     C 2978   8.379   3.890   8.346  1.0538  0.3614 -0.3480
  781MOL0     C 2979   8.413   3.789   8.261  0.5295  0.9505  0.0088
  781MOL0     C 2980   8.544   3.749   8.227 -0.2733 -1.7362 -0.3981
  781MOL0     C 2981   8.602   3.642   8.311  0.5404 -0.5530  0.0115
  781MOL0     C 2982   8.600   3.663   8.465 -0.4742  0.6075  0.1249
  781MOL0     C 2983   8.711   3.568   8.528 -0.9368 -0.2580  0.0887
  781MOL0     O 2984   8.841   3.590   8.467  0.0253  0.2628 -0.2260
  781MOL0     C 2985   8.923   3.682   8.523  0.3995 -0.2051  0.4144
  781MOL0     C 2986   8.925   3.718   8.660  0.7684  0.0411 -0.5417
  781MOL0     C 2987   9.034   3.791   8.714 -0.0943  0.6277  0.0559
  781MOL0     C 2988   9.141   3.836   8.636  0.0987 -0.0689  0.6094
  781MOL0     C 2989   9.256   3.926   8.692 -0.1751  1.1228 -0.3811
  781MOL0     O 2990   9.329   3.999   8.605  0.2883  0.9333 -0.0174
  781MOL0     C 2991   9.409   4.094   8.639  0.6777  0.7589 -0.4657
  781MOL0     C 2992   9.365   4.219   8.673  0.1518 -0.4121  0.2592
  781MOL0     C 2993   9.450   4.324   8.696 -0.5798  0.5253 -0.1130
  781MOL0     C 2994   9.593   4.299   8.683  0.5360 -1.0833  0.3091
  781MOL0     O 2995   9.670   4.412   8.722  1.0001  0.3964  0.6703
  781MOL0     C 2996   9.811   4.386   8.749  0.2920 -0.6964 -0.5128
  781MOL0     C 2997   9.880   4.489   8.839  0.1206  0.4034  0.1558
  781MOL0     C 2998  10.003   4.454   8.924 -0.3945  0.0717 -0.5088
  781MOL0     C 2999  10.128   4.469   8.848  0.5075 -0.6199  1.1408
  781MOL0     C 3000  10.254   4.432   8.928  1.0646 -0.6594  0.1780
  781MOL0     C 3001  10.358   4.544   8.929  0.7775  0.5087  0.2055
  781MOL0     C 3002  10.403   4.581   8.792 -2.0904  0.5280 -0.0230
  781MOL0     C 3003  10.522   4.682   8.787 -0.0483 -0.3893 -0.7119
  781MOL0    Cl 3004  10.566   4.693   8.613  0.0846 -0.3207 -0.0689
  781MOL0     C 3005   9.636   4.174   8.647  0.1214 -0.3937 -0.2923
  781MOL0     C 3006   9.544   4.074   8.619 -0.4038 -0.1362  0.1995
  781MOL0     O 3007   9.264   3.923   8.820  0.9439 -0.5118  0.0919
  781MOL0     C 3008   9.128   3.821   8.493  1.1796 -0.4630  0.1338
  781MOL0     C 3009   9.027   3.746   8.439 -0.0947  0.7423  0.2240
  781MOL0     N 3010   8.311   3.700   8.268 -0.2476 -0.6544 -0.0432
  781MOL0     N 3011   8.208   3.752   8.329 -0.3894 -0.0048 -0.0125
  781MOL0     C 3012   7.906   4.968   8.859  0.2415 -0.0645  0.5656
  781MOL0     C 3013   7.960   5.087   8.904  0.6788  0.0451 -0.1252
  781MOL0     C 3014   8.063   5.528   8.933 -0.3916 -0.9864 -0.4595
  781MOL0     C 3015   8.201   5.523   8.955  0.4994  1.4149  0.1344
  781MOL0     C 3016   8.293   5.633   8.976 -0.0920  0.2800  0.3806
  781MOL0     C 3017   8.232   5.760   8.971  0.3839 -0.4275  0.6722
  781MOL0     O 3018   8.317   5.863   9.005  0.0318  0.1836  0.0954
  781MOL0     C 3019   8.406   5.912   8.901  0.4634  0.5126 -0.3826
  781MOL0     C 3020   8.520   6.000   8.944 -0.0490  0.5530 -0.4097
  781MOL0     C 3021   8.610   5.931   9.042 -0.0458  0.5587 -0.2605
  781MOL0     C 3022   8.727   6.021   9.092 -0.3897 -0.2897 -0.0199
  781MOL0     C 3023   8.809   6.097   9.001 -0.3164  0.8343  0.5021
  781MOL0     C 3024   8.890   6.133   8.919 -0.5248  0.6168 -0.2681
  781MOL0     C 3025   8.090   5.768   8.950  0.5746  0.5831 -0.7649
  781MOL0     C 3026   8.004   5.655   8.927 -0.1781 -0.3644 -1.0098
  781MOL0     H 3027   8.005   5.227   8.592 -0.5836 -1.2090 -0.5804
  781MOL0     H 3028   7.919   5.047   8.518 -3.5409  3.8705  0.6873
  781MOL0     H 3029   7.867   4.829   8.486  1.8553 -1.0670  0.6912
  781MOL0     H 3030   7.694   4.808   8.530  1.3884 -0.5382 -1.3278
  781MOL0     H 3031   7.762   4.591   8.460  0.5315  1.5882 -1.2419
  781MOL0     H 3032   7.743   4.597   8.626 -0.8279 -1.1193 -1.6714
  781MOL0     H 3033   7.996   4.573   8.651 -0.3854 -0.6950  0.3058
  781MOL0     H 3034   8.011   4.617   8.479  1.1976 -2.7272 -0.8270
  781MOL0     H 3035   7.885   4.358   8.600 -3.6431  1.4999 -0.5768
  781MOL0     H 3036   7.856   4.397   8.441  1.0132 -2.8717 -0.1094
  781MOL0     H 3037   8.142   4.392   8.550 -0.3086 -2.1609  2.0842
  781MOL0     H 3038   8.087   4.390   8.386 -1.5961  2.2911  0.1097
  781MOL0     H 3039   7.960   4.163   8.463 -0.9493  2.3258 -3.1345
  781MOL0     H 3040   8.072   4.175   8.593 -0.4268  0.3268 -0.1488
  781MOL0     H 3041   8.142   4.132   8.289  0.4535  0.8764 -0.5973
  781MOL0     H 3042   8.260   4.161   8.421  1.0353 -2.5788 -2.0045
  781MOL0     H 3043   8.050   3.943   8.435 -1.1909  0.0728  6.3823
  781MOL0     H 3044   8.181   3.977   8.543 -3.7365  1.3613  0.1001
  781MOL0     H 3045   8.445   3.963   8.393  0.7070 -1.7760  3.9348
  781MOL0     H 3046   8.603   3.840   8.239 -1.9764 -0.5918 -0.3579
  781MOL0     H 3047   8.553   3.724   8.121  0.4471 -0.6768 -0.6025
  781MOL0     H 3048   8.695   3.616   8.259  1.1760 -0.7992  1.2449
  781MOL0     H 3049   8.545   3.552   8.284  0.5170 -0.0183 -1.8646
  781MOL0     H 3050   8.610   3.770   8.485 -2.2561  0.4044  2.4692
  781MOL0     H 3051   8.505   3.629   8.506 -0.4626  1.5910  1.0228
  781MOL0     H 3052   8.659   3.475   8.502 -0.4978 -1.0185  1.8075
  781MOL0     H 3053   8.714   3.578   8.637  0.4624  1.5489 -0.0748
  781MOL0     H 3054   8.854   3.678   8.731 -0.5310  0.3825 -1.6178
  781MOL0     H 3055   9.024   3.810   8.820 -0.4614 -1.6264  0.4634
  781MOL0     H 3056   9.257   4.229   8.676  0.2124  0.0615  0.9763
  781MOL0     H 3057   9.401   4.414   8.730  0.4138  0.1992  2.4247
  781MOL0     H 3058   9.870   4.370   8.659  2.0245  4.0438 -0.5199
  781MOL0     H 3059   9.828   4.290   8.799  4.0155  1.0213  2.0248
  781MOL0     H 3060   9.803   4.514   8.912 -0.1352  1.1745 -0.3630
  781MOL0     H 3061   9.902   4.583   8.789 -2.4465  0.0851 -1.7429
  781MOL0     H 3062   9.993   4.347   8.946 -4.8643  0.0576 -1.4997
  781MOL0     H 3063  10.015   4.509   9.018 -2.2042  0.6742 -0.5882
  781MOL0     H 3064  10.126   4.421   8.749 -0.7454 -2.4142  1.9762
  781MOL0     H 3065  10.129   4.577   8.832 -2.3740 -0.4052  1.8762
  781MOL0     H 3066  10.298   4.343   8.882 -0.1564 -0.1638 -2.0722
  781MOL0     H 3067  10.230   4.404   9.031 -2.7632 -0.4167 -0.4783
  781MOL0     H 3068  10.434   4.497   8.992 -0.2913 -3.4462 -1.1443
  781MOL0     H 3069  10.319   4.631   8.984 -1.0489 -1.1750  1.7582
  781MOL0     H 3070  10.440   4.486   8.751  2.3015  1.1220  1.9048
  781MOL0     H 3071  10.325   4.620   8.727 -1.9084 -0.4698 -0.8641
  781MOL0     H 3072  10.607   4.649   8.848 -1.2445  2.5653  2.9555
  781MOL0     H 3073  10.499   4.780   8.829  2.2564  0.2050 -0.6793
  781MOL0     H 3074   9.742   4.157   8.642  0.1717 -0.5675  1.0395
  781MOL0     H 3075   9.575   3.978   8.578  0.7251 -0.4290  1.6666
  781MOL0     H 3076   9.212   3.847   8.428 -0.2655 -2.5729 -2.8042
  781MOL0     H 3077   9.046   3.726   8.334  1.8629  3.4561 -0.0432
  781MOL0     H 3078   7.865   4.895   8.928  2.4712 -1.1926  0.7571
  781MOL0     H 3079   7.972   5.109   9.010 -1.5891  0.4907  0.1026
  781MOL0     H 3080   8.248   5.425   8.961 -2.3372 -0.4784 -3.9294
  781MOL0     H 3081   8.398   5.616   8.995  0.1216 -0.3574 -1.2319
  781MOL0     H 3082   8.347   5.971   8.830 -1.9003  0.1625  1.1764
  781MOL0     H 3083   8.442   5.831   8.838 -1.7826 -0.3303 -0.6801
  781MOL0     H 3084   8.581   6.048   8.867  1.8737  2.5655  2.1984
  781MOL0     H 3085   8.466   6.083   8.992 -0.0941 -0.4617  1.3526
  781MOL0     H 3086   8.646   5.842   8.990 -0.4510  1.5985 -2.4118
  781MOL0     H 3087   8.556   5.897   9.130 -0.2593 -2.1696 -1.3703
  781MOL0     H 3088   8.678   6.100   9.150 -1.6136 -2.1770  1.6685
  781MOL0     H 3089   8.793   5.964   9.159 -0.9714 -0.3167  0.5448
  781MOL0     H 3090   8.961   6.157   8.843 -0.3034  0.2353 -0.1890
  781MOL0     H 3091   8.038   5.864   8.944  3.6019  2.3892 -0.0167
  781MOL0     H 3092   7.897   5.662   8.911 -0.2706 -0.3315 -0.4004
  782MOL0     O 3093  11.264   9.027   2.022  0.0794  0.7943 -1.1632
  782MOL0     C 3094  11.303   9.009   1.903 -0.3761 -0.4586 -0.8549
  782MOL0     O 3095  11.269   8.903   1.824  0.4530 -0.4960 -0.0281
  782MOL0     C 3096  11.173   8.817   1.870 -1.1597  0.1183 -0.5097
  782MOL0     C 3097  11.039   8.847   1.862  0.2536  0.6062 -0.3574
  782MOL0     C 3098  10.932   8.757   1.907  0.0090 -0.0489 -0.3201
  782MOL0     C 3099  10.981   8.629   1.944  0.4391  0.5694  0.3745
  782MOL0     O 3100  10.889   8.519   1.969 -0.3243 -0.3809  0.2238
  782MOL0     C 3101  10.755   8.542   1.974 -0.3252  0.4206 -0.4490
  782MOL0     C 3102  10.688   8.411   2.029 -0.4598 -0.8119 -0.0587
  782MOL0     C 3103  10.619   8.323   1.931  0.2954 -0.0031 -0.9730
  782MOL0     C 3104  10.480   8.373   1.881  1.0011 -0.0730  0.0876
  782MOL0     C 3105  10.394   8.259   1.825  0.2002  0.6855 -0.7550
  782MOL0     C 3106  10.457   8.149   1.740 -0.3345  0.4967  0.6672
  782MOL0     C 3107  10.358   8.056   1.675  0.1146 -0.2661 -0.1905
  782MOL0     C 3108  10.427   7.966   1.573 -0.5856  0.2925 -0.7641
  782MOL0     N 3109  10.346   7.873   1.497 -0.0279 -0.1235  0.4853
  782MOL0     C 3110  10.232   7.903   1.427 -0.3872 -0.2096 -0.1252
  782MOL0     C 3111  10.167   7.785   1.419  0.5112 -0.6111  0.1091
  782MOL0     C 3112  10.034   7.778   1.341 -0.4490 -0.4324  1.0442
  782MOL0     C 3113   9.970   7.912   1.307 -0.0354 -0.3021  0.0486
  782MOL0     C 3114   9.832   7.900   1.236  0.2001 -0.1796 -0.4888
  782MOL0     C 3115   9.818   7.786   1.131  0.3483  0.1718  0.0536
  782MOL0     O 3116   9.792   7.660   1.191  0.6025 -0.4936  0.6343
  782MOL0     C 3117   9.798   7.545   1.114 -0.1243 -0.1450  1.3132
  782MOL0     C 3118   9.859   7.525   0.991  0.1946 -0.6989 -0.5452
  782MOL0     C 3119   9.862   7.395   0.933 -0.6096  0.4348 -0.4718
  782MOL0     C 3120   9.815   7.284   0.999 -0.9688 -0.1318  0.3805
  782MOL0     C 3121   9.825   7.147   0.940 -0.0984  0.0532  0.6270
  782MOL0     O 3122   9.848   7.144   0.800 -1.0913 -0.2205  0.2340
  782MOL0     C 3123   9.897   7.040   0.732 -0.3737 -0.0288 -0.4881
  782MOL0     C 3124   9.957   6.927   0.787  0.4022 -1.4198 -0.5838
  782MOL0     C 3125  10.014   6.830   0.702  0.5155 -0.3714 -1.1770
  782MOL0     C 3126  10.007   6.830   0.565 -0.8752  0.0834 -0.1676
  782MOL0     O 3127  10.080   6.745   0.476  0.2564  0.0002 -0.2923
  782MOL0     C 3128  10.155   6.650   0.543 -1.3667 -0.8047  0.8190
  782MOL0     C 3129  10.222   6.549   0.461  0.7317  1.0507  0.2092
  782MOL0     C 3130  10.335   6.480   0.535  0.0985 -0.5387 -0.7115
  782MOL0     C 3131  10.389   6.361   0.455 -0.2095 -0.6165  0.3035
  782MOL0     C 3132  10.467   6.273   0.553  0.4582  0.4121  0.3048
  782MOL0     C 3133  10.593   6.336   0.605 -0.1717  0.0988  0.8670
  782MOL0     C 3134  10.680   6.415   0.502  0.3970 -0.6314 -0.5695
  782MOL0     C 3135  10.821   6.430   0.543  0.2614  0.2002 -0.4975
  782MOL0    Cl 3136  10.900   6.571   0.467 -0.1718 -0.0897  0.5154
  782MOL0     C 3137   9.924   6.931   0.514 -0.6322 -0.6204  0.6119
  782MOL0     C 3138   9.873   7.039   0.592  0.2127  0.4014  0.0804
  782MOL0     O 3139   9.805   7.054   1.015  0.1939 -0.5923 -0.4757
  782MOL0     C 3140   9.741   7.300   1.113 -0.5341 -0.1600 -0.4298
  782MOL0     C 3141   9.733   7.429   1.171 -0.9060  0.7894 -0.2746
  782MOL0     N 3142  10.243   7.684   1.465 -0.9252 -0.5092 -0.0937
  782MOL0     N 3143  10.349   7.740   1.524  0.2051  0.5506 -0.7987
  782MOL0     C 3144  11.110   8.588   1.937 -0.7688 -0.8326 -0.4169
  782MOL0     C 3145  11.206   8.687   1.901  0.3024  0.2071  0.0043
  782MOL0     C 3146  11.378   9.124   1.842 -0.8871  0.6786 -0.6515
  782MOL0     C 3147  11.381   9.133   1.705  0.6501  0.0101 -0.3804
  782MOL0     C 3148  11.466   9.233   1.646  0.7924  0.8420  0.1210
  782MOL0     C 3149  11.532   9.327   1.730 -0.0112 -0.6427 -0.2631
  782MOL0     O 3150  11.575   9.441   1.675  0.2807  0.6035  0.1791
  782MOL0     C 3151  11.656   9.517   1.759 -0.3605  0.5999 -0.0747
  782MOL0     C 3152  11.715   9.627   1.675 -0.4683  0.3482  0.0281
  782MOL0     C 3153  11.613   9.738   1.637 -0.5641  0.6711 -0.3370
  782MOL0     C 3154  11.668   9.829   1.527 -0.0435  0.0821 -0.2530
  782MOL0     C 3155  11.585   9.949   1.522  0.2264  0.1094 -0.4450
  782MOL0     C 3156  11.532  10.059   1.519 -0.3767  0.0627 -0.6458
  782MOL0     C 3157  11.514   9.318   1.871  0.0481  0.2047 -0.7656
  782MOL0     C 3158  11.436   9.220   1.926 -0.0997  0.0031 -0.3607
  782MOL0     H 3159  11.008   8.948   1.837 -1.6028  0.9995  2.8871
  782MOL0     H 3160  10.829   8.785   1.922  0.5804  0.5718  3.5239
  782MOL0     H 3161  10.715   8.572   1.877 -0.9202 -2.0680 -1.0199
  782MOL0     H 3162  10.737   8.619   2.049  1.5869  1.1724 -0.7052
  782MOL0     H 3163  10.612   8.442   2.102 -1.6663 -3.1956 -0.2124
  782MOL0     H 3164  10.761   8.348   2.081 -2.7818 -5.0049 -1.4949
  782MOL0     H 3165  10.608   8.221   1.969 -2.0894 -0.7544 -3.3609
  782MOL0     H 3166  10.682   8.312   1.843 -0.5763  0.0802 -1.6178
  782MOL0     H 3167  10.423   8.425   1.959  0.6816  2.6616 -1.8406
  782MOL0     H 3168  10.508   8.435   1.795  0.9539  1.2965  1.0172
  782MOL0     H 3169  10.315   8.312   1.772  1.2269  1.7776 -1.2476
  782MOL0     H 3170  10.338   8.203   1.900  3.4399 -0.4539  1.0159
  782MOL0     H 3171  10.522   8.107   1.817 -2.2717  0.8924  2.6161
  782MOL0     H 3172  10.515   8.201   1.663 -2.2561 -0.3440 -1.4724
  782MOL0     H 3173  10.335   7.996   1.763  0.9772  0.6951  0.7169
  782MOL0     H 3174  10.271   8.108   1.634 -1.2368 -0.5399  2.1781
  782MOL0     H 3175  10.499   7.906   1.630  1.0030  1.7878 -1.0851
  782MOL0     H 3176  10.496   8.018   1.505  0.9025  1.0206  1.1839
  782MOL0     H 3177  10.202   8.002   1.397 -3.6412  0.1244  3.5042
  782MOL0     H 3178   9.970   7.716   1.405  0.5430 -0.4861  2.0164
  782MOL0     H 3179  10.056   7.723   1.249 -1.5538  0.3204  0.3088
  782MOL0     H 3180  10.033   7.976   1.243  1.9480 -2.0979  0.0929
  782MOL0     H 3181   9.962   7.983   1.390  0.7130  0.5848 -0.6137
  782MOL0     H 3182   9.751   7.900   1.309  0.2075 -4.5807 -0.1877
  782MOL0     H 3183   9.819   7.993   1.180  1.1443 -1.6496 -3.3140
  782MOL0     H 3184   9.915   7.779   1.080  0.8152 -0.3770  0.9751
  782MOL0     H 3185   9.742   7.804   1.054 -2.2805 -2.6084  1.7683
  782MOL0     H 3186   9.904   7.605   0.931  1.9080 -0.9213  0.3862
  782MOL0     H 3187   9.934   7.367   0.857 -0.0982 -2.1909  0.8740
  782MOL0     H 3188   9.959   6.910   0.895 -4.0732  0.0103 -0.0669
  782MOL0     H 3189  10.078   6.756   0.750  1.1187  1.0913  0.3667
  782MOL0     H 3190  10.102   6.585   0.614 -3.0478  2.0421  2.3662
  782MOL0     H 3191  10.232   6.711   0.591 -1.7983 -0.7958  1.5174
  782MOL0     H 3192  10.243   6.588   0.361  0.2540 -1.0360 -0.7627
  782MOL0     H 3193  10.148   6.469   0.448 -0.6318  2.4357 -1.0123
  782MOL0     H 3194  10.293   6.435   0.626  0.9170  2.7680  1.4916
  782MOL0     H 3195  10.409   6.553   0.570 -2.7580  1.8563  0.7858
  782MOL0     H 3196  10.305   6.307   0.410 -0.1515  1.1153 -2.0728
  782MOL0     H 3197  10.452   6.405   0.378  1.3715  0.6569  2.2059
  782MOL0     H 3198  10.486   6.178   0.502 -2.5809  1.0786 -2.4050
  782MOL0     H 3199  10.393   6.237   0.625 -0.8909 -0.3822 -1.4091
  782MOL0     H 3200  10.652   6.259   0.655  0.2562  0.1524  0.4486
  782MOL0     H 3201  10.567   6.417   0.674 -2.0769  1.5652 -1.4318
  782MOL0     H 3202  10.672   6.371   0.402  0.6584 -0.7781 -0.5274
  782MOL0     H 3203  10.639   6.515   0.485  0.3260 -0.7311 -0.9901
  782MOL0     H 3204  10.862   6.330   0.531 -1.7065 -1.0224  1.8462
  782MOL0     H 3205  10.825   6.454   0.650  1.1253  2.4146 -0.9587
  782MOL0     H 3206   9.904   6.942   0.408 -0.3211 -0.0954  0.6028
  782MOL0     H 3207   9.803   7.100   0.536 -1.4946 -1.1901  0.3875
  782MOL0     H 3208   9.696   7.214   1.160 -0.1019 -0.3139 -0.2889
  782MOL0     H 3209   9.681   7.432   1.266 -1.0231 -1.5060 -0.2127
  782MOL0     H 3210  11.152   8.492   1.966 -1.9923 -1.2778 -0.0764
  782MOL0     H 3211  11.309   8.654   1.900  0.4183  0.5447  0.3495
  782MOL0     H 3212  11.332   9.060   1.641  2.6037  0.5265 -2.6192
  782MOL0     H 3213  11.485   9.243   1.539 -0.4350 -1.3202 -0.3669
  782MOL0     H 3214  11.729   9.454   1.810  1.1060  1.7049 -0.7204
  782MOL0     H 3215  11.603   9.566   1.841  1.1747  2.6859 -0.2398
  782MOL0     H 3216  11.804   9.658   1.730  2.4596 -1.9027 -2.9817
  782MOL0     H 3217  11.762   9.584   1.586  1.3463  3.4928 -0.6640
  782MOL0     H 3218  11.588   9.800   1.724  0.1990 -1.7268  1.7273
  782MOL0     H 3219  11.519   9.691   1.610  0.7166 -0.6155 -2.8694
  782MOL0     H 3220  11.773   9.842   1.553 -0.0973  1.0081 -0.4925
  782MOL0     H 3221  11.655   9.774   1.434 -0.8933 -0.8844  0.4132
  782MOL0     H 3222  11.469  10.145   1.509  0.8329  0.6997 -4.1164
  782MOL0     H 3223  11.559   9.384   1.944  0.4066 -0.9226  0.0579
  782MOL0     H 3224  11.438   9.202   2.033 -0.4830 -0.7626 -0.4727
  783MOL0     O 3225   1.792   5.813  10.549 -0.2296 -0.4221  0.2771
  783MOL0     C 3226   1.853   5.775  10.646  0.1038 -0.0105  0.0655
  783MOL0     O 3227   1.890   5.856  10.749 -0.2927 -0.3794  0.1486
  783MOL0     C 3228   1.861   5.990  10.751  0.3742 -0.1531 -0.4277
  783MOL0     C 3229   1.958   6.083  10.786 -0.4840  0.1380  0.2989
  783MOL0     C 3230   1.924   6.217  10.791  0.3140  0.2217 -0.1383
  783MOL0     C 3231   1.789   6.266  10.760 -0.5552 -0.1972 -0.4601
  783MOL0     O 3232   1.757   6.402  10.781 -0.1053 -0.9919  0.7204
  783MOL0     C 3233   1.650   6.454  10.697  0.3232  0.2497 -1.5756
  783MOL0     C 3234   1.684   6.605  10.660 -0.7585 -0.7044  0.3689
  783MOL0     C 3235   1.655   6.714  10.777 -0.3033  1.2240  1.1243
  783MOL0     C 3236   1.728   6.838  10.748 -0.0527 -0.5944  0.0653
  783MOL0     C 3237   1.697   6.926  10.862  0.0453 -0.2754  0.6345
  783MOL0     C 3238   1.765   7.062  10.853 -0.1403  0.4121  0.9577
  783MOL0     C 3239   1.725   7.147  10.724 -0.3793 -0.5097  0.5164
  783MOL0     C 3240   1.772   7.296  10.748  1.0268 -0.7541  0.5243
  783MOL0     N 3241   1.690   7.382  10.663  0.0284 -0.3758  0.2742
  783MOL0     C 3242   1.699   7.379  10.522  1.4372  0.7046 -0.4044
  783MOL0     C 3243   1.623   7.479  10.485 -0.0816 -0.3109 -0.2986
  783MOL0     C 3244   1.607   7.539  10.343 -0.5363 -0.4518 -0.3139
  783MOL0     C 3245   1.513   7.461  10.254  0.7625  0.5188 -0.6170
  783MOL0     C 3246   1.524   7.475  10.102  0.4791 -0.3814  0.7332
  783MOL0     C 3247   1.397   7.430  10.019 -0.0044  0.3321 -0.0867
  783MOL0     O 3248   1.288   7.498  10.070  0.4610  0.2731 -0.6858
  783MOL0     C 3249   1.258   7.630  10.042 -0.0537 -0.8634  0.1218
  783MOL0     C 3250   1.181   7.702  10.132  0.7523  1.1084  0.4030
  783MOL0     C 3251   1.133   7.827  10.094  1.3227 -0.5255  0.4615
  783MOL0     C 3252   1.184   7.899   9.979  0.5840 -0.4234  0.0075
  783MOL0     C 3253   1.154   8.043   9.959 -0.9294 -0.1698 -1.2130
  783MOL0     O 3254   1.204   8.103   9.851  0.5882 -0.4962 -0.0016
  783MOL0     C 3255   1.160   8.228   9.824  0.6682  0.4560 -1.4460
  783MOL0     C 3256   1.255   8.333   9.832 -0.1857  0.5041 -0.3285
  783MOL0     C 3257   1.216   8.462   9.810 -0.1666 -0.1370 -0.3212
  783MOL0     C 3258   1.080   8.495   9.775 -0.4000  0.6251  0.1189
  783MOL0     O 3259   1.039   8.615   9.734 -0.4235 -0.3050  0.6456
  783MOL0     C 3260   1.137   8.717   9.688 -0.2081  0.1787 -0.1992
  783MOL0     C 3261   1.069   8.839   9.623 -0.1030 -0.1415  0.4355
  783MOL0     C 3262   1.156   8.948   9.567 -0.3849 -0.4181  0.0964
  783MOL0     C 3263   1.193   9.061   9.665 -0.0497  0.4013  0.2225
  783MOL0     C 3264   1.267   9.177   9.608  0.1453 -0.8718 -0.4329
  783MOL0     C 3265   1.390   9.114   9.542  0.1206  0.7387  0.1055
  783MOL0     C 3266   1.486   9.234   9.501  1.3507  0.4447  0.8520
  783MOL0     C 3267   1.542   9.319   9.613  0.0551  0.3297  0.0448
  783MOL0    Cl 3268   1.632   9.230   9.749 -0.0128 -0.0551  0.0697
  783MOL0     C 3269   0.990   8.387   9.771 -0.3195 -0.5278 -0.2105
  783MOL0     C 3270   1.026   8.255   9.801  0.0631  0.9491 -0.8091
  783MOL0     O 3271   1.099   8.097  10.056  0.8045 -0.4256  0.3835
  783MOL0     C 3272   1.281   7.833   9.904 -0.1656  0.2026  0.3145
  783MOL0     C 3273   1.307   7.700   9.930 -0.4652 -0.5039 -0.9195
  783MOL0     N 3274   1.564   7.546  10.594 -0.0864 -0.3877  0.2662
  783MOL0     N 3275   1.612   7.489  10.702 -0.5250 -0.2131 -0.9365
  783MOL0     C 3276   1.696   6.167  10.740 -0.1821  0.2826  0.6671
  783MOL0     C 3277   1.729   6.034  10.731  0.2593  0.5266  0.2487
  783MOL0     C 3278   1.878   5.639  10.658  0.9496  0.2300 -0.5920
  783MOL0     C 3279   1.841   5.546  10.558  1.1022  0.2294  0.9465
  783MOL0     C 3280   1.860   5.406  10.566  0.1347  0.3877 -0.0727
  783MOL0     C 3281   1.940   5.360  10.658 -0.4328  0.4107 -0.1645
  783MOL0     O 3282   1.952   5.224  10.659  0.4391  0.3762  0.1132
  783MOL0     C 3283   2.081   5.177  10.670 -0.9086  0.9103  0.4980
  783MOL0     C 3284   2.090   5.045  10.604  0.2963  0.0032  0.9196
  783MOL0     C 3285   2.227   4.982  10.632  0.6247 -1.0467 -0.0948
  783MOL0     C 3286   2.240   4.919  10.771  0.2241  0.3472  0.7467
  783MOL0     C 3287   2.380   4.875  10.784 -1.8683  0.4642 -0.0889
  783MOL0     C 3288   2.502   4.859  10.808  1.0811  1.0311  0.9001
  783MOL0     C 3289   1.989   5.447  10.755 -0.3975  0.0164 -0.9695
  783MOL0     C 3290   1.959   5.585  10.755  0.5593 -0.0938 -0.4633
  783MOL0     H 3291   2.060   6.061  10.816 -0.2955  0.8143  0.1633
  783MOL0     H 3292   2.003   6.288  10.812  0.7226 -0.8931  2.4515
  783MOL0     H 3293   1.549   6.436  10.734  0.0661  0.6243 -2.0784
  783MOL0     H 3294   1.643   6.399  10.603  0.5011  1.4322 -2.3146
  783MOL0     H 3295   1.643   6.638  10.564 -1.5388 -0.8385  0.6551
  783MOL0     H 3296   1.793   6.611  10.647 -0.5647 -0.3896  1.8553
  783MOL0     H 3297   1.679   6.664  10.871 -2.3214 -1.3804  0.3690
  783MOL0     H 3298   1.547   6.727  10.772 -0.1239  2.5004  0.1876
  783MOL0     H 3299   1.832   6.810  10.731  0.2395  0.9525 -0.8989
  783MOL0     H 3300   1.686   6.882  10.657  1.7378  0.1643 -0.4422
  783MOL0     H 3301   1.717   6.881  10.960 -1.1153  1.1791  1.5835
  783MOL0     H 3302   1.589   6.945  10.867 -0.1208 -0.9017 -0.3536
  783MOL0     H 3303   1.872   7.041  10.863 -0.1721  1.3132  4.6469
  783MOL0     H 3304   1.740   7.119  10.943 -1.2237  2.0168 -0.2990
  783MOL0     H 3305   1.767   7.094  10.637 -0.3652  0.5218 -0.1253
  783MOL0     H 3306   1.617   7.164  10.713 -0.0273  5.4006  2.8950
  783MOL0     H 3307   1.878   7.307  10.724  0.4017 -0.0705 -2.1530
  783MOL0     H 3308   1.760   7.318  10.855  2.0468  0.7776  0.3638
  783MOL0     H 3309   1.755   7.304  10.466  2.5833  0.4677  0.9734
  783MOL0     H 3310   1.708   7.533  10.301  0.0656  1.7144  0.6508
  783MOL0     H 3311   1.570   7.641  10.355  1.5970  0.3988 -0.4778
  783MOL0     H 3312   1.415   7.497  10.285 -0.2201 -0.7270 -2.1268
  783MOL0     H 3313   1.515   7.354  10.275 -3.4039  0.6837  1.7489
  783MOL0     H 3314   1.557   7.575  10.072 -2.1051  0.7384  1.3799
  783MOL0     H 3315   1.601   7.405  10.066  0.4572 -0.4481  0.8160
  783MOL0     H 3316   1.383   7.326  10.052 -0.1330  0.1205 -0.7894
  783MOL0     H 3317   1.404   7.426   9.910 -1.2702 -1.5935 -0.1549
  783MOL0     H 3318   1.149   7.647  10.220  1.4682  1.4258  0.8781
  783MOL0     H 3319   1.070   7.883  10.162  1.7312  3.5442 -2.1608
  783MOL0     H 3320   1.360   8.315   9.850 -0.5970 -3.0751 -0.8638
  783MOL0     H 3321   1.291   8.541   9.815  0.2727 -0.5944  3.6836
  783MOL0     H 3322   1.194   8.666   9.610 -5.0000 -2.2691 -2.5161
  783MOL0     H 3323   1.203   8.753   9.767  0.5176 -0.7936 -0.3461
  783MOL0     H 3324   0.996   8.880   9.693  3.3867 -0.2098  4.5053
  783MOL0     H 3325   1.008   8.800   9.540 -3.0052  1.0856  1.8236
  783MOL0     H 3326   1.104   8.999   9.485  1.6225  1.3748 -0.1459
  783MOL0     H 3327   1.242   8.900   9.519 -1.3837  0.1751 -2.4913
  783MOL0     H 3328   1.099   9.103   9.704 -1.1892  1.2246 -3.0213
  783MOL0     H 3329   1.254   9.009   9.740 -1.2618  0.2547  1.1448
  783MOL0     H 3330   1.293   9.245   9.690 -3.7687  0.6690 -0.2539
  783MOL0     H 3331   1.212   9.240   9.537  0.4665  0.1226  0.1884
  783MOL0     H 3332   1.354   9.059   9.454  0.6663 -2.9867  2.0407
  783MOL0     H 3333   1.438   9.037   9.602 -2.9082  1.2405  3.4481
  783MOL0     H 3334   1.577   9.194   9.456  2.5433  1.6005  2.1294
  783MOL0     H 3335   1.431   9.302   9.434 -1.8625 -2.3658  0.3768
  783MOL0     H 3336   1.475   9.389   9.662  1.8094  1.3939  1.0360
  783MOL0     H 3337   1.622   9.374   9.563  0.1923 -1.6988 -2.1999
  783MOL0     H 3338   0.887   8.415   9.749  0.0031  0.8166 -0.0751
  783MOL0     H 3339   0.948   8.183   9.822  2.2021 -0.8611  1.4968
  783MOL0     H 3340   1.327   7.895   9.829  0.1117 -1.7414 -1.2086
  783MOL0     H 3341   1.391   7.648   9.885  0.8804 -1.4885  2.4086
  783MOL0     H 3342   1.589   6.185  10.736 -0.3974 -0.9991 -2.0715
  783MOL0     H 3343   1.653   5.956  10.729  2.2139 -1.5460  1.5475
  783MOL0     H 3344   1.777   5.569  10.473  1.4377 -0.7507  0.4186
  783MOL0     H 3345   1.817   5.345  10.488 -2.7678  3.1931 -0.8642
  783MOL0     H 3346   2.100   5.153  10.775 -3.9179 -3.3535  0.3413
  783MOL0     H 3347   2.154   5.247  10.630  2.8660 -2.9155  0.0364
  783MOL0     H 3348   2.013   4.980  10.648  0.9340 -1.3950  0.0302
  783MOL0     H 3349   2.071   5.059  10.498 -2.5783  1.7592  1.5370
  783MOL0     H 3350   2.303   5.057  10.609  0.0023 -0.9587 -1.9730
  783MOL0     H 3351   2.252   4.900  10.565 -3.4724  0.0055 -3.2796
  783MOL0     H 3352   2.225   4.992  10.850  2.1164  1.5941  0.0340
  783MOL0     H 3353   2.173   4.833  10.781  1.8594 -0.8800  1.6173
  783MOL0     H 3354   2.606   4.835  10.821  0.8993 -1.5758 -1.4350
  783MOL0     H 3355   2.059   5.406  10.827  0.4964  1.4877 -0.9732
  783MOL0     H 3356   2.010   5.640  10.833 -0.0668  0.1784 -0.2441
  784MOL0     O 3357  10.707  10.732   2.045 -1.1796 -0.5645 -0.5731
  784MOL0     C 3358  10.675  10.691   1.933  0.0935  0.3936  0.3249
  784MOL0     O 3359  10.646  10.771   1.830  0.9648 -0.1270  0.4755
  784MOL0     C 3360  10.694  10.899   1.832  0.6110 -0.2895 -0.2432
  784MOL0     C 3361  10.665  10.988   1.930 -0.1332 -0.4768  0.1501
  784MOL0     C 3362  10.699  11.117   1.923  0.5072 -0.1498  0.5216
  784MOL0     C 3363  10.777  11.169   1.822 -0.3881 -1.2052  0.9152
  784MOL0     O 3364  10.785  11.305   1.821  0.4034 -0.3102  0.5301
  784MOL0     C 3365  10.889  11.363   1.752 -0.8715 -0.1954  0.7211
  784MOL0     C 3366  10.892  11.512   1.763 -0.4862 -0.1651  0.1070
  784MOL0     C 3367  10.782  11.597   1.689 -0.3463  0.1630  0.3268
  784MOL0     C 3368  10.770  11.733   1.732 -0.7777 -0.0108  0.1393
  784MOL0     C 3369  10.664  11.816   1.650  0.0619  0.0147  0.0871
  784MOL0     C 3370  10.644  11.961   1.707  0.0305  0.3018  0.5809
  784MOL0     C 3371  10.641  11.967   1.867  0.7019  0.4867 -0.2154
  784MOL0     C 3372  10.540  11.877   1.940 -0.0398 -0.7237 -0.3585
  784MOL0     N 3373  10.484  11.941   2.058  0.4700 -0.7665 -1.2221
  784MOL0     C 3374  10.558  11.999   2.163 -0.5032  0.2418  0.4292
  784MOL0     C 3375  10.467  12.088   2.212 -0.0728 -0.5166 -0.5216
  784MOL0     C 3376  10.486  12.197   2.310 -0.3969  1.0972 -1.1514
  784MOL0     C 3377  10.484  12.155   2.460 -0.0152  0.5011 -0.3208
  784MOL0     C 3378  10.623  12.084   2.480  0.0641  0.2805  0.7738
  784MOL0     C 3379  10.635  12.000   2.608  0.6718  0.5591 -0.3106
  784MOL0     O 3380  10.767  11.961   2.645 -0.0061 -0.4138  0.3664
  784MOL0     C 3381  10.788  11.821   2.686  0.6214 -0.6978 -0.0935
  784MOL0     C 3382  10.744  11.779   2.813  0.3755 -0.3054 -0.3245
  784MOL0     C 3383  10.760  11.641   2.841  0.0569 -0.3658 -0.6998
  784MOL0     C 3384  10.809  11.543   2.751 -0.0802 -0.4791 -0.0152
  784MOL0     C 3385  10.822  11.396   2.774 -0.9300  0.9754 -0.8781
  784MOL0     O 3386  10.876  11.322   2.675 -0.5470 -0.0954 -0.0991
  784MOL0     C 3387  10.846  11.194   2.650 -0.8243  0.1769  0.4462
  784MOL0     C 3388  10.737  11.123   2.698  0.2068 -0.6146 -0.2696
  784MOL0     C 3389  10.712  10.991   2.673 -0.3067 -0.1242  0.4300
  784MOL0     C 3390  10.804  10.914   2.604  0.2241 -0.5913 -0.3114
  784MOL0     O 3391  10.774  10.780   2.596 -0.8484 -0.3146  0.5693
  784MOL0     C 3392  10.834  10.710   2.490 -0.0656 -0.1862  0.2276
  784MOL0     C 3393  10.776  10.566   2.498 -0.2114 -0.5683  0.4838
  784MOL0     C 3394  10.885  10.454   2.470  0.1471 -0.9742 -0.3534
  784MOL0     C 3395  10.816  10.324   2.415  1.0308 -0.5705 -0.1643
  784MOL0     C 3396  10.922  10.211   2.406 -0.0740 -0.0061 -0.1938
  784MOL0     C 3397  10.863  10.089   2.337  0.5906 -0.1918  0.1261
  784MOL0     C 3398  10.973   9.982   2.323 -0.2966 -0.1026 -0.1165
  784MOL0     C 3399  10.912   9.853   2.277  0.3386  0.3360  0.4100
  784MOL0    Cl 3400  11.026   9.749   2.196  0.2857 -0.0085  0.0351
  784MOL0     C 3401  10.918  10.976   2.552  0.1410 -0.3289 -0.1422
  784MOL0     C 3402  10.935  11.117   2.565 -0.4000  0.2006  0.3044
  784MOL0     O 3403  10.786  11.350   2.880 -0.0975 -0.4934  0.7023
  784MOL0     C 3404  10.865  11.596   2.636 -0.9401 -0.0321 -0.2660
  784MOL0     C 3405  10.850  11.734   2.601 -0.6612  0.6334 -0.9240
  784MOL0     N 3406  10.337  12.062   2.160  0.3842 -0.4226 -0.6448
  784MOL0     N 3407  10.349  11.971   2.070  0.4706 -0.4538 -0.0175
  784MOL0     C 3408  10.820  11.080   1.727  0.0888 -0.8810  0.2431
  784MOL0     C 3409  10.780  10.949   1.734 -0.1436  0.2723 -0.3274
  784MOL0     C 3410  10.654  10.553   1.925  0.4517  0.1521  0.5758
  784MOL0     C 3411  10.711  10.468   2.023 -0.1567  0.3470  0.2949
  784MOL0     C 3412  10.715  10.330   2.005  0.0641 -0.5717 -0.6757
  784MOL0     C 3413  10.672  10.277   1.895 -0.4966  0.1503  0.7538
  784MOL0     O 3414  10.705  10.140   1.879 -0.5610  0.3099 -0.1703
  784MOL0     C 3415  10.639  10.051   1.793 -0.4133 -0.0803  1.1894
  784MOL0     C 3416  10.703   9.910   1.801 -0.4863 -0.6555  0.0949
  784MOL0     C 3417  10.629   9.792   1.717 -0.6002  0.0414  0.5373
  784MOL0     C 3418  10.737   9.676   1.704  0.2492 -0.6321  0.4089
  784MOL0     C 3419  10.665   9.558   1.678  0.3565 -0.1554  0.8481
  784MOL0     C 3420  10.623   9.448   1.658 -0.3979 -0.3754  0.2954
  784MOL0     C 3421  10.596  10.350   1.801 -0.5631 -0.1935 -0.7529
  784MOL0     C 3422  10.599  10.488   1.811 -0.1713 -0.3063  0.9569
  784MOL0     H 3423  10.595  10.955   2.006  0.2856  2.1547  1.7939
  784MOL0     H 3424  10.656  11.189   1.992 -2.3945 -1.7328  0.4884
  784MOL0     H 3425  10.858  11.352   1.647 -3.2155 -0.4472  1.3872
  784MOL0     H 3426  10.987  11.324   1.780 -0.9431 -0.0631  1.1650
  784MOL0     H 3427  10.994  11.543   1.741  0.4314 -2.7436  0.4045
  784MOL0     H 3428  10.881  11.530   1.870  0.9950 -0.0195  0.2526
  784MOL0     H 3429  10.691  11.539   1.709 -0.2220 -0.1191  0.0800
  784MOL0     H 3430  10.805  11.600   1.582 -1.5734  1.6885  0.0796
  784MOL0     H 3431  10.750  11.731   1.839  1.0754 -0.1822  0.5087
  784MOL0     H 3432  10.873  11.771   1.731 -0.0132 -1.9504  0.7172
  784MOL0     H 3433  10.570  11.760   1.652  0.7372 -1.2090  2.8932
  784MOL0     H 3434  10.704  11.820   1.549  0.2327  1.8461  0.1929
  784MOL0     H 3435  10.552  12.004   1.666 -1.6940  0.6025  4.3217
  784MOL0     H 3436  10.718  12.033   1.671 -0.0227 -1.3028 -3.2103
  784MOL0     H 3437  10.742  11.956   1.907 -0.0467 -1.0827  1.3805
  784MOL0     H 3438  10.630  12.072   1.894  3.9642  0.6667  0.7973
  784MOL0     H 3439  10.580  11.782   1.976  0.9331  0.3971  1.6732
  784MOL0     H 3440  10.460  11.847   1.871 -0.4127  0.1268 -0.3019
  784MOL0     H 3441  10.661  11.974   2.186 -0.7259 -0.5447  0.5817
  784MOL0     H 3442  10.397  12.260   2.299 -2.6849 -2.0676 -1.8928
  784MOL0     H 3443  10.580  12.251   2.295  2.1250 -2.4850  0.2447
  784MOL0     H 3444  10.409  12.075   2.468 -1.1308  0.6702 -5.4480
  784MOL0     H 3445  10.489  12.237   2.532  4.5073 -1.2627  1.7693
  784MOL0     H 3446  10.659  12.030   2.392 -6.2870 -2.8198 -0.5848
  784MOL0     H 3447  10.688  12.171   2.488  1.3679 -0.5687 -0.2488
  784MOL0     H 3448  10.570  11.912   2.599  0.0717  0.5829  2.6969
  784MOL0     H 3449  10.592  12.061   2.689  1.0008  0.3807 -0.0002
  784MOL0     H 3450  10.710  11.849   2.888  1.4090  2.1462 -2.0173
  784MOL0     H 3451  10.727  11.610   2.940  1.2296 -1.1279 -0.5218
  784MOL0     H 3452  10.658  11.182   2.743  0.0557  0.1321 -1.4824
  784MOL0     H 3453  10.629  10.936   2.715  0.1987 -0.7420  0.6234
  784MOL0     H 3454  10.942  10.720   2.503  0.0768 -0.8342 -0.4576
  784MOL0     H 3455  10.802  10.756   2.396 -0.9293  0.2719  0.7276
  784MOL0     H 3456  10.694  10.567   2.425  1.5192  2.0209 -1.6161
  784MOL0     H 3457  10.730  10.542   2.594 -3.9339 -1.3497 -1.2991
  784MOL0     H 3458  10.940  10.445   2.564  1.8728 -0.2740 -1.2497
  784MOL0     H 3459  10.948  10.498   2.392  1.6971  1.9416  2.2755
  784MOL0     H 3460  10.733  10.304   2.483  0.3275  1.4710 -0.3376
  784MOL0     H 3461  10.775  10.355   2.319 -0.6224  4.4023  1.8212
  784MOL0     H 3462  10.959  10.185   2.505 -3.6738 -1.6669  0.8693
  784MOL0     H 3463  11.002  10.248   2.341  1.5764 -2.6742  0.1896
  784MOL0     H 3464  10.813  10.100   2.240 -1.7320 -0.8869  1.1703
  784MOL0     H 3465  10.789  10.035   2.397  2.4355 -1.7415  1.1407
  784MOL0     H 3466  11.044  10.034   2.259  0.5784  1.1341  1.7621
  784MOL0     H 3467  11.023   9.967   2.420  0.6205  2.6551 -0.0676
  784MOL0     H 3468  10.834   9.875   2.203 -0.2395 -2.1795  0.1510
  784MOL0     H 3469  10.860   9.803   2.359 -1.3443 -2.6532 -2.2315
  784MOL0     H 3470  10.988  10.915   2.496  0.2735 -1.5410  1.2831
  784MOL0     H 3471  11.013  11.175   2.516  1.0263 -2.1139 -0.2931
  784MOL0     H 3472  10.898  11.528   2.559 -2.2944  2.2317 -3.0074
  784MOL0     H 3473  10.894  11.773   2.510  2.3269  1.9345  0.9214
  784MOL0     H 3474  10.880  11.098   1.639  0.0876 -1.1812  0.1810
  784MOL0     H 3475  10.800  10.876   1.656 -1.8092 -1.4345  0.7616
  784MOL0     H 3476  10.770  10.502   2.108  0.3686  0.3382 -0.0644
  784MOL0     H 3477  10.757  10.249   2.064  0.6004 -1.2275 -1.9228
  784MOL0     H 3478  10.658  10.083   1.690 -2.1646  4.5923  2.0620
  784MOL0     H 3479  10.530  10.043   1.794 -0.4516 -1.8840 -2.2156
  784MOL0     H 3480  10.800   9.933   1.757 -1.3563  1.2254 -0.9707
  784MOL0     H 3481  10.709   9.875   1.904  0.7507  1.6949  0.8806
  784MOL0     H 3482  10.604   9.834   1.619 -0.5630  0.8138  0.8540
  784MOL0     H 3483  10.535   9.758   1.761  0.4642 -0.4876  2.5504
  784MOL0     H 3484  10.802   9.708   1.622 -0.3923 -0.9266 -0.2227
  784MOL0     H 3485  10.785   9.657   1.800 -1.8982 -1.7341  1.3317
  784MOL0     H 3486  10.587   9.353   1.624 -1.9582 -0.0282  0.9175
  784MOL0     H 3487  10.546  10.303   1.716 -2.2656  1.9827 -1.0468
  784MOL0     H 3488  10.551  10.546   1.733  2.0635 -2.4544 -2.2941
  785MOL0     O 3489   0.668   9.500   0.647  0.0714 -0.9387  1.2093
  785MOL0     C 3490   0.567   9.430   0.667  0.5594 -0.6046 -0.3560
  785MOL0     O 3491   0.439   9.454   0.645  0.8624 -0.6745  0.3955
  785MOL0     C 3492   0.389   9.565   0.578 -0.1025  0.3743  0.0987
  785MOL0     C 3493   0.262   9.563   0.525  0.6976  0.5662 -1.1203
  785MOL0     C 3494   0.197   9.666   0.460 -0.0776 -0.4862  0.8117
  785MOL0     C 3495   0.262   9.781   0.416  0.1126  0.9810  1.1164
  785MOL0     O 3496   0.200   9.888   0.348  0.0438  0.0338 -0.2857
  785MOL0     C 3497   0.193  10.011   0.425  0.0330  0.7665 -0.4031
  785MOL0     C 3498   0.064  10.075   0.376  0.4527  0.2022  0.7014
  785MOL0     C 3499   0.016  10.202   0.447 -0.1454  0.4408 -1.0068
  785MOL0     C 3500   0.105  10.322   0.433  0.8887 -0.1084  0.4453
  785MOL0     C 3501   0.043  10.433   0.509 -0.3805 -0.3744 -0.3337
  785MOL0     C 3502  -0.066  10.511   0.436 -0.4137  0.7632 -0.2877
  785MOL0     C 3503  -0.133  10.603   0.531 -0.4107  0.3251  0.0874
  785MOL0     C 3504  -0.062  10.740   0.541 -0.1842  0.4240 -0.5432
  785MOL0     N 3505  -0.086  10.807   0.670  0.6008 -0.4319 -0.3235
  785MOL0     C 3506  -0.171  10.904   0.692 -0.6735 -0.1380  0.7226
  785MOL0     C 3507  -0.131  10.967   0.804  0.9208  0.4959 -0.9507
  785MOL0     C 3508  -0.177  11.100   0.877  0.0017 -0.5798  0.5369
  785MOL0     C 3509  -0.276  11.064   0.996 -0.4145 -0.5745  0.1433
  785MOL0     C 3510  -0.414  11.023   0.957 -0.2469 -0.1876  0.2898
  785MOL0     C 3511  -0.509  11.129   0.890 -0.4644 -0.3458  0.3418
  785MOL0     O 3512  -0.473  11.254   0.945  0.0292  0.2010  0.6097
  785MOL0     C 3513  -0.542  11.346   0.882 -0.1916  0.1890  0.3419
  785MOL0     C 3514  -0.680  11.345   0.896 -0.5528 -0.6581  0.1373
  785MOL0     C 3515  -0.760  11.436   0.823 -0.2133 -0.2984  0.2636
  785MOL0     C 3516  -0.697  11.528   0.733 -0.1190  0.0247 -0.1104
  785MOL0     C 3517  -0.785  11.627   0.650 -0.2858  0.1682 -0.7146
  785MOL0     O 3518  -0.729  11.702   0.558  0.5104 -0.6376  0.4089
  785MOL0     C 3519  -0.809  11.791   0.487 -0.2927 -0.4474 -0.1542
  785MOL0     C 3520  -0.816  11.928   0.515 -0.6941  0.1887 -0.0875
  785MOL0     C 3521  -0.914  12.006   0.463 -0.0122 -0.0464  1.3638
  785MOL0     C 3522  -0.990  11.956   0.359  0.9239 -0.1512 -0.4397
  785MOL0     O 3523  -1.081  12.041   0.300 -0.3167  0.6850 -0.6724
  785MOL0     C 3524  -1.039  12.063   0.161  0.4841 -0.2000 -0.4057
  785MOL0     C 3525  -1.098  12.187   0.096 -0.2857 -0.3233 -0.5183
  785MOL0     C 3526  -1.026  12.315   0.149  0.9944  0.4290 -0.1439
  785MOL0     C 3527  -1.082  12.454   0.120 -0.3340  0.2566 -0.2339
  785MOL0     C 3528  -0.990  12.563   0.164 -0.0221  0.3023  0.1325
  785MOL0     C 3529  -1.045  12.702   0.120 -0.4660 -0.2500 -0.2700
  785MOL0     C 3530  -0.999  12.748  -0.021 -0.2023  0.2897 -0.1307
  785MOL0     C 3531  -1.056  12.869  -0.072  0.0925 -0.6001 -0.8266
  785MOL0    Cl 3532  -0.959  13.017  -0.004 -0.0466  0.6027 -0.2522
  785MOL0     C 3533  -0.972  11.821   0.321  0.1133  0.4304 -0.6605
  785MOL0     C 3534  -0.886  11.737   0.389  0.1196 -1.0062 -0.2352
  785MOL0     O 3535  -0.904  11.627   0.683 -1.0275 -0.4136  0.7491
  785MOL0     C 3536  -0.561  11.525   0.715 -0.9080 -0.3598 -0.0534
  785MOL0     C 3537  -0.480  11.438   0.792 -0.6261 -0.4331  1.0377
  785MOL0     N 3538  -0.028  10.899   0.857 -0.3180 -0.3517 -0.2203
  785MOL0     N 3539  -0.022  10.792   0.785 -0.4580  0.8037  0.4721
  785MOL0     C 3540   0.397   9.782   0.452  0.4287 -0.3793  0.5915
  785MOL0     C 3541   0.457   9.679   0.536 -0.1572  0.0775 -0.1027
  785MOL0     C 3542   0.599   9.293   0.732  0.0771  0.0245  0.0855
  785MOL0     C 3543   0.730   9.255   0.772 -0.1657  0.1693 -0.3249
  785MOL0     C 3544   0.766   9.122   0.812 -0.4095 -0.0126  0.1660
  785MOL0     C 3545   0.662   9.027   0.828  1.2159  0.4286 -0.1512
  785MOL0     O 3546   0.669   8.896   0.863 -0.0600 -0.6847  0.0834
  785MOL0     C 3547   0.776   8.853   0.945  0.5087  0.2694 -1.1655
  785MOL0     C 3548   0.894   8.772   0.866  0.8340  0.0028 -0.4976
  785MOL0     C 3549   1.029   8.765   0.931 -0.3246 -0.9296  0.6927
  785MOL0     C 3550   1.148   8.790   0.840 -0.5595  0.2618  0.4584
  785MOL0     C 3551   1.273   8.799   0.916  0.4379 -0.1946 -0.1655
  785MOL0     C 3552   1.372   8.793   0.986 -0.1511  0.2400  0.4477
  785MOL0     C 3553   0.529   9.065   0.797  0.3347  0.7328 -0.9284
  785MOL0     C 3554   0.506   9.191   0.744  0.1230 -0.3113  0.6199
  785MOL0     H 3555   0.207   9.473   0.548  1.6416  0.1475 -0.4011
  785MOL0     H 3556   0.092   9.650   0.439  0.1917 -1.0444 -0.1809
  785MOL0     H 3557   0.278  10.077   0.405  0.3522  1.1156  1.8322
  785MOL0     H 3558   0.194   9.989   0.532 -0.4526  2.0989 -0.1102
  785MOL0     H 3559  -0.011   9.997   0.388 -1.3216  1.4250 -1.5846
  785MOL0     H 3560   0.069  10.089   0.268 -0.3610  0.5936  0.7020
  785MOL0     H 3561   0.006  10.164   0.549  0.1915  0.5572 -0.9301
  785MOL0     H 3562  -0.088  10.227   0.427 -0.7801 -0.9216  0.3723
  785MOL0     H 3563   0.205  10.298   0.470  0.2801  0.0966  2.3655
  785MOL0     H 3564   0.098  10.358   0.330  0.2053 -0.8691  0.2144
  785MOL0     H 3565   0.120  10.507   0.532 -1.1319  0.1294  0.6644
  785MOL0     H 3566   0.021  10.387   0.606  2.3834 -3.4572 -0.9776
  785MOL0     H 3567  -0.142  10.447   0.391  0.0862  0.3616 -0.5767
  785MOL0     H 3568  -0.029  10.559   0.345  1.5113 -2.4853 -1.3866
  785MOL0     H 3569  -0.231  10.627   0.489  0.5121 -1.5992 -3.6007
  785MOL0     H 3570  -0.134  10.547   0.625  2.4162  0.0027  0.0008
  785MOL0     H 3571  -0.108  10.795   0.459  0.9196  0.9203 -0.8366
  785MOL0     H 3572   0.047  10.732   0.540 -0.2601 -1.3051  0.7109
  785MOL0     H 3573  -0.253  10.934   0.628 -0.3062  2.9245  1.4988
  785MOL0     H 3574  -0.221  11.164   0.800  1.6138 -0.7028 -0.5176
  785MOL0     H 3575  -0.088  11.140   0.926  0.1759 -3.6087  3.0549
  785MOL0     H 3576  -0.269  11.146   1.068  0.8022 -0.7005  0.1812
  785MOL0     H 3577  -0.227  10.977   1.040  1.8575  1.7536  2.6332
  785MOL0     H 3578  -0.417  10.927   0.905 -0.0662 -1.5081  2.5797
  785MOL0     H 3579  -0.468  10.991   1.047  0.7941  1.7256  1.6541
  785MOL0     H 3580  -0.614  11.108   0.912 -1.6538  2.6727 -1.7786
  785MOL0     H 3581  -0.494  11.128   0.782  1.5647 -2.8336  0.5469
  785MOL0     H 3582  -0.728  11.272   0.960  0.5646  0.5184  2.4491
  785MOL0     H 3583  -0.867  11.430   0.839 -0.3851  2.3926  0.5897
  785MOL0     H 3584  -0.754  11.981   0.586  1.8074  1.6149 -3.0889
  785MOL0     H 3585  -0.939  12.111   0.479 -2.1126  0.1104 -1.9896
  785MOL0     H 3586  -1.071  11.985   0.090 -1.4268  1.3528 -1.3158
  785MOL0     H 3587  -0.930  12.065   0.168  0.6162 -3.9729  1.5664
  785MOL0     H 3588  -1.204  12.170   0.114  0.2297 -1.5536  1.7047
  785MOL0     H 3589  -1.078  12.194  -0.011  1.6700  1.6275 -0.1063
  785MOL0     H 3590  -0.928  12.321   0.100  2.4303  1.3787  2.6104
  785MOL0     H 3591  -1.007  12.308   0.257 -4.5968  1.4034  1.1986
  785MOL0     H 3592  -1.096  12.470   0.013  1.1557  1.6165 -0.2518
  785MOL0     H 3593  -1.180  12.458   0.170  0.0130  0.1286  0.4669
  785MOL0     H 3594  -0.882  12.558   0.151  0.0069 -1.0534  0.8013
  785MOL0     H 3595  -1.005  12.562   0.272 -1.5656  1.2225 -0.0265
  785MOL0     H 3596  -0.999  12.774   0.189 -0.8899 -1.9562  1.9011
  785MOL0     H 3597  -1.154  12.703   0.128 -0.5003  1.6517 -0.5121
  785MOL0     H 3598  -0.890  12.753  -0.015 -0.2925  0.6135  2.0319
  785MOL0     H 3599  -1.030  12.676  -0.098  0.5637 -1.5369  1.1888
  785MOL0     H 3600  -1.165  12.873  -0.061  0.0366  4.2491 -1.2714
  785MOL0     H 3601  -1.043  12.870  -0.180  2.3342  0.5801 -0.6022
  785MOL0     H 3602  -1.028  11.797   0.231 -3.4090  1.1066  1.1627
  785MOL0     H 3603  -0.882  11.634   0.355 -1.0834 -1.2775  0.3744
  785MOL0     H 3604  -0.511  11.586   0.640 -1.6048 -0.2328 -0.4217
  785MOL0     H 3605  -0.374  11.434   0.768 -0.6911 -3.4914  0.8093
  785MOL0     H 3606   0.447   9.874   0.425  0.6068 -0.9755 -1.3155
  785MOL0     H 3607   0.560   9.706   0.556  0.8874 -2.5468 -1.3418
  785MOL0     H 3608   0.811   9.328   0.772 -0.2439  0.3479  2.4623
  785MOL0     H 3609   0.872   9.101   0.822 -0.3220  0.2546 -0.2030
  785MOL0     H 3610   0.728   8.786   1.017  3.5471 -2.8136 -1.7260
  785MOL0     H 3611   0.830   8.930   1.002 -1.8556  2.1905 -1.4082
  785MOL0     H 3612   0.854   8.672   0.846  1.7878 -0.6197  0.5921
  785MOL0     H 3613   0.914   8.835   0.780  0.8183  0.8536  0.1070
  785MOL0     H 3614   1.047   8.676   0.991  3.9899 -1.4579 -1.0246
  785MOL0     H 3615   1.032   8.853   0.997  0.8147 -0.5651  0.1784
  785MOL0     H 3616   1.156   8.712   0.764  1.0482 -0.6921  1.5435
  785MOL0     H 3617   1.140   8.890   0.796  3.0534  0.3893 -0.2379
  785MOL0     H 3618   1.450   8.799   1.059 -0.2260 -1.6146  0.7279
  785MOL0     H 3619   0.443   8.998   0.801 -1.0591  2.4491 -0.8987
  785MOL0     H 3620   0.414   9.210   0.688  1.5400  2.0916 -1.0805
  786MOL0     O 3621   8.390   9.099   8.214 -0.2283 -0.5615  0.1861
  786MOL0     C 3622   8.460   9.071   8.309 -0.7588 -0.4917  0.3043
  786MOL0     O 3623   8.495   9.161   8.408 -0.7255  0.0206  1.1007
  786MOL0     C 3624   8.436   9.288   8.414 -0.2557  0.2260  0.5834
  786MOL0     C 3625   8.474   9.352   8.529 -0.2217 -0.3994  0.2260
  786MOL0     C 3626   8.420   9.486   8.569  0.5841 -0.4227 -0.5528
  786MOL0     C 3627   8.321   9.547   8.485  0.5379 -0.1402  0.1478
  786MOL0     O 3628   8.262   9.669   8.522 -0.2387 -0.6995 -0.5263
  786MOL0     C 3629   8.339   9.762   8.603  0.7512  0.1565  0.2965
  786MOL0     C 3630   8.280   9.903   8.583  1.2740  0.3791 -0.4402
  786MOL0     C 3631   8.313   9.966   8.438  0.1649  0.1568 -0.4462
  786MOL0     C 3632   8.231   9.901   8.326 -0.5131 -0.6167  0.2943
  786MOL0     C 3633   8.203   9.991   8.210 -0.0771 -0.9229  0.2821
  786MOL0     C 3634   8.139  10.130   8.235  0.9720 -0.4643 -0.3622
  786MOL0     C 3635   8.052  10.175   8.112 -0.9144  0.4802 -0.7668
  786MOL0     C 3636   7.971  10.298   8.150 -0.1440  0.3535 -0.3545
  786MOL0     N 3637   7.922  10.374   8.039 -0.8040 -0.5212  0.8862
  786MOL0     C 3638   7.898  10.323   7.914  0.2989 -0.4480  0.2465
  786MOL0     C 3639   7.862  10.434   7.848  0.1838 -0.2310  0.0775
  786MOL0     C 3640   7.812  10.446   7.710  0.8110 -0.0000 -0.4852
  786MOL0     C 3641   7.892  10.368   7.596 -0.3891 -1.1257 -0.5286
  786MOL0     C 3642   8.030  10.441   7.559  0.7530  0.9042  0.3289
  786MOL0     C 3643   8.109  10.347   7.460 -0.5588 -0.3181 -1.1782
  786MOL0     O 3644   8.024  10.355   7.343  0.0217  0.2121 -0.1914
  786MOL0     C 3645   8.058  10.263   7.248 -0.9746 -0.0208  0.7742
  786MOL0     C 3646   7.968  10.238   7.146 -0.8466  0.8533 -1.1984
  786MOL0     C 3647   7.995  10.146   7.046  0.2371  0.2224 -0.6393
  786MOL0     C 3648   8.119  10.076   7.029 -0.3165 -0.6103  1.5756
  786MOL0     C 3649   8.142   9.974   6.927 -0.2276  0.1043  0.9352
  786MOL0     O 3650   8.032   9.899   6.908  1.3097 -0.0275  0.5451
  786MOL0     C 3651   8.025   9.801   6.804 -0.5370  1.7863 -0.2340
  786MOL0     C 3652   7.959   9.827   6.682 -1.2114  0.4672  0.7267
  786MOL0     C 3653   7.938   9.723   6.584  0.1241  0.5446 -0.1706
  786MOL0     C 3654   7.967   9.586   6.614  0.4579 -1.2132  0.6579
  786MOL0     O 3655   7.943   9.504   6.508 -0.0729  0.7594  0.6888
  786MOL0     C 3656   7.986   9.365   6.509  0.2646 -0.4761 -0.7197
  786MOL0     C 3657   7.955   9.309   6.373 -0.1927 -0.3156  0.1783
  786MOL0     C 3658   7.980   9.159   6.370  0.3986  0.6695 -0.2986
  786MOL0     C 3659   7.951   9.089   6.242 -0.8396  0.5829 -1.0887
  786MOL0     C 3660   7.998   8.936   6.239 -0.1563  0.0209 -0.0943
  786MOL0     C 3661   7.887   8.842   6.297  0.6688  1.0346  0.4244
  786MOL0     C 3662   7.786   8.812   6.184 -0.2057  0.0867 -0.1248
  786MOL0     C 3663   7.693   8.704   6.228 -0.8062  0.7480 -0.0367
  786MOL0    Cl 3664   7.757   8.540   6.269 -0.3454  0.3777  0.1483
  786MOL0     C 3665   8.029   9.554   6.736  0.0121  0.0049  0.5570
  786MOL0     C 3666   8.067   9.661   6.831 -0.6863  0.3702  0.5298
  786MOL0     O 3667   8.256   9.956   6.886 -0.1311  0.5112  0.5211
  786MOL0     C 3668   8.217  10.107   7.123  0.1265 -0.8882 -0.5465
  786MOL0     C 3669   8.182  10.195   7.232  0.1571  0.2923 -0.5657
  786MOL0     N 3670   7.874  10.548   7.924 -0.4257  0.7200 -0.2203
  786MOL0     N 3671   7.907  10.508   8.043  0.1589  0.2338 -0.3284
  786MOL0     C 3672   8.296   9.480   8.365  0.2405 -0.5077 -0.8617
  786MOL0     C 3673   8.347   9.355   8.325 -0.0905  0.2199 -0.8384
  786MOL0     C 3674   8.503   8.934   8.324  0.1382 -0.2517 -0.5347
  786MOL0     C 3675   8.498   8.842   8.221 -0.6310  0.7907  0.7345
  786MOL0     C 3676   8.536   8.708   8.232  0.4179 -0.1651 -0.1318
  786MOL0     C 3677   8.559   8.656   8.360  0.1236  0.8385 -1.5695
  786MOL0     O 3678   8.563   8.528   8.408 -0.0783  0.4669 -0.1677
  786MOL0     C 3679   8.683   8.455   8.363 -0.5430  0.4364  0.4629
  786MOL0     C 3680   8.706   8.332   8.451  0.3146  0.0104  1.0246
  786MOL0     C 3681   8.831   8.344   8.547  0.6182  0.3741  0.9573
  786MOL0     C 3682   8.816   8.235   8.659 -1.4329 -0.0211 -0.0405
  786MOL0     C 3683   8.932   8.242   8.748  0.1111 -0.2479  0.4546
  786MOL0     C 3684   9.031   8.270   8.825  0.3336 -0.4631  0.4378
  786MOL0     C 3685   8.580   8.749   8.462 -0.0563  0.1714 -0.2342
  786MOL0     C 3686   8.556   8.884   8.444  0.6195  0.3292 -0.5392
  786MOL0     H 3687   8.547   9.304   8.594 -0.4523 -1.9333 -0.6137
  786MOL0     H 3688   8.445   9.521   8.669 -2.5506 -0.6604  0.4236
  786MOL0     H 3689   8.445   9.756   8.576  0.6373  4.7749 -2.2791
  786MOL0     H 3690   8.325   9.737   8.709 -0.4838 -3.4326 -0.6029
  786MOL0     H 3691   8.332   9.965   8.656  1.0377 -1.5553  1.4733
  786MOL0     H 3692   8.172   9.907   8.595  1.3913 -2.7429  4.5926
  786MOL0     H 3693   8.419   9.947   8.417 -0.2333 -2.4166 -0.4693
  786MOL0     H 3694   8.286  10.072   8.441 -1.9989 -0.3737  0.0170
  786MOL0     H 3695   8.290   9.815   8.293 -0.3967 -0.1195 -0.8325
  786MOL0     H 3696   8.137   9.867   8.370 -0.1396  2.0488  3.6191
  786MOL0     H 3697   8.144   9.938   8.135  1.7580 -0.7949 -1.3550
  786MOL0     H 3698   8.303  10.006   8.169 -0.8523  0.6471 -1.1770
  786MOL0     H 3699   8.210  10.211   8.255 -0.8015  1.1054 -0.1640
  786MOL0     H 3700   8.075  10.115   8.322 -0.3126  1.9147 -0.8140
  786MOL0     H 3701   8.114  10.196   8.024 -3.0103 -2.6398 -3.2448
  786MOL0     H 3702   7.978  10.096   8.094 -2.6706  0.6203  4.2373
  786MOL0     H 3703   8.038  10.356   8.214  0.4575 -2.1570  1.4473
  786MOL0     H 3704   7.889  10.261   8.212 -1.7885  2.5481 -1.0803
  786MOL0     H 3705   7.904  10.218   7.888  2.3588  0.1886 -2.2672
  786MOL0     H 3706   7.812  10.554   7.693  2.9851 -0.2805 -2.7202
  786MOL0     H 3707   7.713  10.401   7.700  1.4914 -1.9873  1.1397
  786MOL0     H 3708   7.828  10.361   7.507 -0.0588 -1.9485 -0.7061
  786MOL0     H 3709   7.926  10.268   7.621  3.0470  0.0608  0.0961
  786MOL0     H 3710   8.009  10.536   7.508  0.6864  1.4127  1.2885
  786MOL0     H 3711   8.090  10.455   7.650  2.7277 -1.5738 -0.4431
  786MOL0     H 3712   8.124  10.246   7.499 -1.5685 -0.8084 -2.0200
  786MOL0     H 3713   8.200  10.400   7.429 -1.1553  1.3230 -0.2374
  786MOL0     H 3714   7.873  10.290   7.150 -0.5986  1.2250  0.4269
  786MOL0     H 3715   7.916  10.121   6.976  1.7995 -0.7955 -2.1339
  786MOL0     H 3716   7.930   9.929   6.660 -2.2953  0.4254  1.8693
  786MOL0     H 3717   7.894   9.757   6.491  2.2488 -0.9664 -1.8365
  786MOL0     H 3718   7.930   9.316   6.589  0.7214  2.5711  1.6732
  786MOL0     H 3719   8.092   9.356   6.535  0.4732 -4.2259 -2.2317
  786MOL0     H 3720   8.031   9.349   6.305 -2.6978  0.3746 -2.3922
  786MOL0     H 3721   7.854   9.335   6.340  0.5942  0.0973 -2.0785
  786MOL0     H 3722   7.905   9.117   6.438  1.6046  0.3958  0.9142
  786MOL0     H 3723   8.083   9.138   6.400 -0.9201 -1.4019  3.4815
  786MOL0     H 3724   7.848   9.096   6.207 -0.9390 -6.2863 -3.7564
  786MOL0     H 3725   8.012   9.146   6.172  1.3080  0.4497  0.5598
  786MOL0     H 3726   8.089   8.919   6.298 -1.1386  0.0905  1.4870
  786MOL0     H 3727   8.008   8.909   6.133 -6.1105 -3.5779 -0.1677
  786MOL0     H 3728   7.853   8.889   6.390 -1.0455 -1.4477  1.1527
  786MOL0     H 3729   7.938   8.754   6.338 -1.2310  0.1206  0.9303
  786MOL0     H 3730   7.733   8.900   6.146 -1.3618 -0.1059  0.9620
  786MOL0     H 3731   7.836   8.753   6.107  2.3153 -3.7050  3.9196
  786MOL0     H 3732   7.629   8.683   6.141  0.4403 -1.2146 -0.5511
  786MOL0     H 3733   7.635   8.745   6.311  2.6671  0.5762  2.6975
  786MOL0     H 3734   8.074   9.457   6.750 -0.1033 -0.1174  0.0928
  786MOL0     H 3735   8.121   9.649   6.924  2.4820 -1.8376 -1.4046
  786MOL0     H 3736   8.309  10.051   7.126  0.9722  0.3959  3.2912
  786MOL0     H 3737   8.246  10.217   7.317 -3.1401 -0.0369  2.1960
  786MOL0     H 3738   8.223   9.539   8.311  0.1659  2.2467  1.9154
  786MOL0     H 3739   8.348   9.318   8.223 -0.1167  1.5808 -1.3624
  786MOL0     H 3740   8.467   8.872   8.121  4.1385 -1.5567 -1.8266
  786MOL0     H 3741   8.538   8.645   8.144 -0.7823 -0.2989 -0.0831
  786MOL0     H 3742   8.777   8.512   8.368  0.2533 -0.7957  0.0511
  786MOL0     H 3743   8.671   8.415   8.262  0.6756 -1.7041  1.0806
  786MOL0     H 3744   8.627   8.313   8.525  0.5979 -2.8618  0.7282
  786MOL0     H 3745   8.717   8.238   8.396 -3.6075  0.1168 -0.2589
  786MOL0     H 3746   8.817   8.441   8.596  2.3482  0.7195  0.8472
  786MOL0     H 3747   8.930   8.350   8.499 -0.2731  1.9868 -0.8453
  786MOL0     H 3748   8.727   8.255   8.719 -1.6643 -1.4858  0.1317
  786MOL0     H 3749   8.825   8.131   8.626  1.9986 -1.1067  3.5489
  786MOL0     H 3750   9.107   8.303   8.893 -0.2642  2.8267 -0.3224
  786MOL0     H 3751   8.601   8.720   8.564 -0.3315  2.2320  0.4681
  786MOL0     H 3752   8.577   8.951   8.528 -0.0737 -1.1072  0.8408
  787MOL0     O 3753  11.311  10.374   2.071  0.0297 -0.0693  0.0062
  787MOL0     C 3754  11.379  10.289   2.010 -0.0923 -0.1286 -0.5623
  787MOL0     O 3755  11.514  10.285   2.002  0.7705 -0.6104  0.6638
  787MOL0     C 3756  11.582  10.383   2.060 -0.0179  0.4012 -0.5011
  787MOL0     C 3757  11.662  10.343   2.170  0.5265 -0.0571 -0.1861
  787MOL0     C 3758  11.735  10.444   2.245  0.2952 -0.0218  0.3175
  787MOL0     C 3759  11.733  10.579   2.213 -0.8890 -0.3071 -0.2634
  787MOL0     O 3760  11.815  10.665   2.281  1.2465 -0.4192  0.2339
  787MOL0     C 3761  11.871  10.770   2.201  0.0362 -0.1716  0.0866
  787MOL0     C 3762  11.795  10.910   2.233 -0.5899  0.3482 -0.4815
  787MOL0     C 3763  11.825  10.969   2.375  0.0414  0.2278  0.6851
  787MOL0     C 3764  11.741  11.103   2.387  1.3260 -0.4165  0.1433
  787MOL0     C 3765  11.763  11.176   2.517 -0.1458  0.4311 -0.0403
  787MOL0     C 3766  11.669  11.293   2.532 -0.7150 -0.3909  0.0349
  787MOL0     C 3767  11.726  11.407   2.629 -0.5829 -0.5737 -0.5334
  787MOL0     C 3768  11.653  11.540   2.617  0.8802 -1.1619 -0.1522
  787MOL0     N 3769  11.734  11.650   2.677  0.0398 -0.0474 -0.0587
  787MOL0     C 3770  11.792  11.652   2.801 -0.3539  0.4390  0.1503
  787MOL0     C 3771  11.882  11.753   2.802  0.1922 -0.5480  0.1650
  787MOL0     C 3772  11.958  11.791   2.918 -0.2344  0.4279 -0.2824
  787MOL0     C 3773  12.054  11.683   2.949 -0.5963 -0.2437  0.4112
  787MOL0     C 3774  12.143  11.732   3.062 -0.4367 -0.2314  0.9232
  787MOL0     C 3775  12.245  11.627   3.111 -0.0249  0.1909  0.2319
  787MOL0     O 3776  12.178  11.531   3.195 -0.0662 -0.1167  0.3351
  787MOL0     C 3777  12.172  11.399   3.154  0.5671  0.4012  0.1551
  787MOL0     C 3778  12.214  11.340   3.025 -0.4445  0.4049 -1.1019
  787MOL0     C 3779  12.211  11.196   3.019  0.5050 -0.1729 -0.2780
  787MOL0     C 3780  12.161  11.121   3.121 -0.1758  0.0755  0.7472
  787MOL0     C 3781  12.167  10.974   3.104  0.9410 -0.0918  0.8747
  787MOL0     O 3782  12.159  10.894   3.215  0.6102  0.0151 -0.9063
  787MOL0     C 3783  12.193  10.766   3.204  0.2298 -0.2749 -0.5018
  787MOL0     C 3784  12.302  10.717   3.280 -0.0622  0.2851 -1.1433
  787MOL0     C 3785  12.318  10.580   3.299  0.1979 -0.2148 -0.3977
  787MOL0     C 3786  12.249  10.485   3.230  0.4279  0.0379  0.0768
  787MOL0     O 3787  12.265  10.347   3.257 -0.4556  0.2242  0.4406
  787MOL0     C 3788  12.392  10.304   3.227  0.1168  1.7777  0.7707
  787MOL0     C 3789  12.397  10.159   3.255  0.4004 -0.3190 -0.6170
  787MOL0     C 3790  12.533  10.103   3.217  0.3558 -0.1775  0.2367
  787MOL0     C 3791  12.552   9.955   3.249 -0.4584  0.1136  0.1869
  787MOL0     C 3792  12.436   9.861   3.214  0.2177 -0.1993  0.6858
  787MOL0     C 3793  12.459   9.712   3.223  0.2459  1.3803 -0.9964
  787MOL0     C 3794  12.320   9.643   3.205 -0.0255  0.9182 -0.2997
  787MOL0     C 3795  12.316   9.494   3.214  0.7391 -0.1736  0.2487
  787MOL0    Cl 3796  12.447   9.415   3.120  0.1928  0.1374  0.0814
  787MOL0     C 3797  12.150  10.535   3.135  1.5422 -0.1724  0.3937
  787MOL0     C 3798  12.122  10.677   3.121 -0.6781 -0.1452  0.1721
  787MOL0     O 3799  12.169  10.930   2.989  0.3307 -0.6154 -0.1006
  787MOL0     C 3800  12.124  11.187   3.240  0.5397  0.5911  0.7467
  787MOL0     C 3801  12.127  11.322   3.253  0.2778 -0.6415  0.0889
  787MOL0     N 3802  11.869  11.821   2.675 -0.5978  0.2095 -0.3937
  787MOL0     N 3803  11.782  11.754   2.604 -0.4176 -0.4580  0.0263
  787MOL0     C 3804  11.647  10.621   2.111 -0.6965 -0.4226  0.4556
  787MOL0     C 3805  11.579  10.523   2.043 -0.6643  0.5883  0.8522
  787MOL0     C 3806  11.289  10.196   1.938  0.1752 -0.3356  0.3423
  787MOL0     C 3807  11.341  10.132   1.827  0.8217  0.0063  0.6725
  787MOL0     C 3808  11.262  10.079   1.728  0.4590  0.2672  0.4141
  787MOL0     C 3809  11.129  10.061   1.739  0.9959  0.7471 -0.5333
  787MOL0     O 3810  11.042   9.998   1.656 -0.0351  0.8815 -0.2485
  787MOL0     C 3811  11.084   9.934   1.531  0.4165 -0.4130  0.0846
  787MOL0     C 3812  11.164   9.805   1.536 -0.7684  0.9824  0.3417
  787MOL0     C 3813  11.203   9.743   1.406 -0.9912  0.2080  0.4745
  787MOL0     C 3814  11.252   9.597   1.415  0.8270  0.5505  0.3806
  787MOL0     C 3815  11.135   9.508   1.458 -0.5730  0.1122 -0.0005
  787MOL0     C 3816  11.044   9.434   1.482 -0.0064 -0.4712 -0.3886
  787MOL0     C 3817  11.075  10.121   1.857 -0.4574  0.3561 -0.0216
  787MOL0     C 3818  11.148  10.181   1.951 -0.4547  0.3497 -0.1057
  787MOL0     H 3819  11.662  10.236   2.192  2.6075 -0.2201 -0.7641
  787MOL0     H 3820  11.788  10.426   2.338 -2.8087  0.8968  2.4002
  787MOL0     H 3821  11.862  10.755   2.093 -2.6783 -0.9611  0.3466
  787MOL0     H 3822  11.978  10.779   2.221 -0.1767  0.1910  1.0964
  787MOL0     H 3823  11.687  10.894   2.229 -0.7388  1.1953 -0.0792
  787MOL0     H 3824  11.812  10.992   2.162 -0.2365  0.6236 -0.0864
  787MOL0     H 3825  11.934  10.983   2.375 -0.0431  0.9823 -0.4242
  787MOL0     H 3826  11.790  10.902   2.453 -1.5320  0.9357  0.6293
  787MOL0     H 3827  11.762  11.174   2.307 -0.5344 -2.0720 -1.9363
  787MOL0     H 3828  11.633  11.088   2.391  1.2329  0.4704  1.0714
  787MOL0     H 3829  11.865  11.215   2.522 -0.1216  0.2312  1.2827
  787MOL0     H 3830  11.756  11.114   2.606  2.4139  2.6686  1.8873
  787MOL0     H 3831  11.574  11.246   2.556 -0.9054 -1.8460 -3.0611
  787MOL0     H 3832  11.652  11.344   2.436 -3.9404 -1.2053  0.0653
  787MOL0     H 3833  11.712  11.364   2.729  0.7151 -1.4719 -0.7172
  787MOL0     H 3834  11.834  11.403   2.613 -0.0565 -1.4084  2.6410
  787MOL0     H 3835  11.561  11.537   2.675  1.7420  0.6886  1.4539
  787MOL0     H 3836  11.639  11.565   2.512  5.9095 -0.0158 -0.8306
  787MOL0     H 3837  11.787  11.574   2.876 -0.0690 -0.4056 -0.6887
  787MOL0     H 3838  11.893  11.781   3.005  1.1434 -4.0214  0.5167
  787MOL0     H 3839  12.001  11.891   2.914  0.6929  0.2153  2.1253
  787MOL0     H 3840  12.121  11.674   2.864 -0.1541 -1.6847  0.8796
  787MOL0     H 3841  12.007  11.586   2.968  1.4113 -0.8875  2.5391
  787MOL0     H 3842  12.193  11.823   3.029 -0.0707 -1.0164 -0.8063
  787MOL0     H 3843  12.080  11.766   3.145  0.1512 -0.8274  1.6276
  787MOL0     H 3844  12.320  11.685   3.167  0.9566 -1.2395  0.4571
  787MOL0     H 3845  12.286  11.589   3.017  0.6255  0.7452  0.2769
  787MOL0     H 3846  12.257  11.394   2.942 -0.1590 -1.3149 -2.1130
  787MOL0     H 3847  12.257  11.158   2.928 -0.9818  0.9093 -1.5256
  787MOL0     H 3848  12.356  10.778   3.351 -0.6093  1.2458 -1.5291
  787MOL0     H 3849  12.390  10.554   3.376 -0.2661 -0.7648 -0.1464
  787MOL0     H 3850  12.466  10.361   3.284 -0.6075  2.4874  1.0180
  787MOL0     H 3851  12.395  10.314   3.118  3.6658 -0.4674  0.4928
  787MOL0     H 3852  12.314  10.117   3.197 -0.5612  0.2006  0.3401
  787MOL0     H 3853  12.378  10.145   3.362  2.7994  4.8278  0.7887
  787MOL0     H 3854  12.612  10.153   3.274  1.3113 -2.6140  1.2073
  787MOL0     H 3855  12.552  10.125   3.112 -0.0055 -1.0945 -0.0309
  787MOL0     H 3856  12.648   9.921   3.210 -0.6087  0.7361 -0.7478
  787MOL0     H 3857  12.565   9.957   3.358 -0.1278  2.1735  0.1367
  787MOL0     H 3858  12.396   9.883   3.114  0.9632 -0.9885  0.1968
  787MOL0     H 3859  12.354   9.876   3.285 -1.2794 -2.0124 -0.5575
  787MOL0     H 3860  12.487   9.695   3.328  1.6425 -0.4567 -1.5957
  787MOL0     H 3861  12.545   9.677   3.166  0.1978  2.3751 -1.7040
  787MOL0     H 3862  12.253   9.665   3.289  0.5564 -4.3656  1.9564
  787MOL0     H 3863  12.274   9.681   3.113  1.0800  2.3431 -0.3049
  787MOL0     H 3864  12.213   9.463   3.193  0.2870  0.4381  1.4702
  787MOL0     H 3865  12.328   9.457   3.316  1.2801 -1.3492 -0.2251
  787MOL0     H 3866  12.099  10.462   3.074  0.0796  1.2609 -0.1824
  787MOL0     H 3867  12.032  10.710   3.071 -0.6473 -2.1739 -1.3851
  787MOL0     H 3868  12.091  11.121   3.320 -3.0450  2.5008  1.0495
  787MOL0     H 3869  12.098  11.382   3.339 -0.6173 -0.0825 -0.5830
  787MOL0     H 3870  11.636  10.725   2.084 -0.7212 -0.4685  0.2929
  787MOL0     H 3871  11.500  10.557   1.976 -1.0518  0.8960  1.4577
  787MOL0     H 3872  11.445  10.131   1.793  0.1585 -0.6712 -1.4960
  787MOL0     H 3873  11.309  10.031   1.642 -0.7502 -1.5869  0.7378
  787MOL0     H 3874  11.138  10.000   1.463  0.6438 -1.7722 -1.1084
  787MOL0     H 3875  11.000   9.892   1.475 -1.2393 -1.1009  2.8942
  787MOL0     H 3876  11.251   9.815   1.602 -2.6009  0.2670  3.0199
  787MOL0     H 3877  11.105   9.731   1.589 -1.2205 -0.0457 -1.5006
  787MOL0     H 3878  11.282   9.802   1.358 -2.1432  1.3650 -0.0712
  787MOL0     H 3879  11.124   9.751   1.331 -1.2856  2.7902  0.9669
  787MOL0     H 3880  11.265   9.560   1.313 -1.4236  1.6553 -0.3666
  787MOL0     H 3881  11.350   9.585   1.461  1.3362 -1.0648 -1.0310
  787MOL0     H 3882  10.960   9.375   1.514 -0.2046 -0.7908 -1.4681
  787MOL0     H 3883  10.968  10.114   1.871 -0.1783 -1.0962  1.8858
  787MOL0     H 3884  11.111  10.252   2.024  3.2573  1.9080  0.4869
  788MOL0     O 3885  10.347  11.073   6.811  0.2903  0.2265  0.0255
  788MOL0     C 3886  10.459  11.021   6.806 -0.6262  0.0179 -0.8919
  788MOL0     O 3887  10.567  11.051   6.878  0.4674 -0.2119 -0.0045
  788MOL0     C 3888  10.564  11.167   6.966  0.6083 -0.4200  0.1852
  788MOL0     C 3889  10.614  11.158   7.098  0.6834  0.1043 -0.4737
  788MOL0     C 3890  10.625  11.275   7.171 -0.0844  0.4980  0.1542
  788MOL0     C 3891  10.598  11.403   7.122 -0.5983 -0.7795  0.0674
  788MOL0     O 3892  10.620  11.508   7.199  0.3679 -0.2282 -0.5875
  788MOL0     C 3893  10.500  11.576   7.250  0.0043  0.0141 -0.1287
  788MOL0     C 3894  10.524  11.675   7.374  0.8857  0.1792 -0.2688
  788MOL0     C 3895  10.423  11.646   7.486  1.0159  0.1395  1.4101
  788MOL0     C 3896  10.452  11.737   7.605 -0.3340 -0.1965 -0.3881
  788MOL0     C 3897  10.581  11.706   7.685  0.6752  0.6305 -0.5459
  788MOL0     C 3898  10.617  11.798   7.798  0.8326  0.3134 -1.1054
  788MOL0     C 3899  10.511  11.831   7.901  0.7335  0.0186 -0.4239
  788MOL0     C 3900  10.576  11.924   8.010  0.2376 -0.4777 -0.4692
  788MOL0     N 3901  10.476  11.961   8.119  0.0483 -0.2711 -0.3157
  788MOL0     C 3902  10.393  11.870   8.188 -0.3718 -0.4327 -0.0962
  788MOL0     C 3903  10.332  11.954   8.275  0.6370  1.0759  0.4558
  788MOL0     C 3904  10.217  11.901   8.358  1.0160  0.8006 -0.4328
  788MOL0     C 3905  10.088  11.937   8.293 -0.9709  0.4799 -0.5808
  788MOL0     C 3906   9.971  11.887   8.365  0.0675 -0.7676 -0.9121
  788MOL0     C 3907   9.942  11.959   8.496 -0.2546 -0.0217 -0.7773
  788MOL0     O 3908  10.026  11.911   8.609 -0.2817  0.2731  0.9677
  788MOL0     C 3909   9.993  11.782   8.663 -0.0410  0.0492  1.0291
  788MOL0     C 3910   9.863  11.749   8.694  1.0160  0.5227  0.6095
  788MOL0     C 3911   9.832  11.617   8.725  0.5741  0.1796  0.1285
  788MOL0     C 3912   9.933  11.520   8.740  0.2427  0.3415 -0.8509
  788MOL0     C 3913   9.897  11.392   8.798  0.3839 -0.0994 -0.2337
  788MOL0     O 3914   9.765  11.364   8.826  0.2632  0.3642 -0.1314
  788MOL0     C 3915   9.722  11.241   8.880  0.1997 -1.2821  0.2107
  788MOL0     C 3916   9.606  11.254   8.960 -0.2309  0.1947 -0.5636
  788MOL0     C 3917   9.548  11.146   9.026 -0.2114 -0.6740 -0.2079
  788MOL0     C 3918   9.611  11.021   9.008  1.0305  0.5394  0.2562
  788MOL0     O 3919   9.557  10.909   9.073 -0.2723 -0.0565 -1.1514
  788MOL0     C 3920   9.428  10.917   9.130  0.2844 -1.0219 -0.2598
  788MOL0     C 3921   9.322  10.924   9.023 -0.1048  0.1412  0.0498
  788MOL0     C 3922   9.184  10.898   9.087 -0.0168  0.4219 -0.3046
  788MOL0     C 3923   9.064  10.934   9.001 -0.5025 -0.0254 -0.7380
  788MOL0     C 3924   9.064  11.081   8.946 -0.5918  0.0375 -0.1313
  788MOL0     C 3925   8.993  11.110   8.826  0.3137  1.0587 -0.1995
  788MOL0     C 3926   8.842  11.084   8.848  0.1719 -0.7408 -0.1587
  788MOL0     C 3927   8.754  11.104   8.723 -0.1550 -0.0507 -0.0164
  788MOL0    Cl 3928   8.578  11.107   8.772  0.0783  0.4828 -0.3249
  788MOL0     C 3929   9.726  11.009   8.945  0.1452 -0.5940 -0.2803
  788MOL0     C 3930   9.784  11.111   8.869 -0.2038  0.3017  0.4152
  788MOL0     O 3931   9.992  11.309   8.807  0.2211 -0.4353 -0.6465
  788MOL0     C 3932  10.058  11.556   8.716 -0.7587 -0.1913  0.1116
  788MOL0     C 3933  10.094  11.682   8.675 -0.1364  0.1457 -0.3562
  788MOL0     N 3934  10.375  12.078   8.266 -0.1189  0.2021 -0.3536
  788MOL0     N 3935  10.455  12.087   8.171 -0.5354  0.0505 -0.3340
  788MOL0     C 3936  10.546  11.416   6.989  1.5790  0.0979  0.2267
  788MOL0     C 3937  10.537  11.298   6.907  0.4134  0.3315  0.2488
  788MOL0     C 3938  10.486  10.906   6.704 -0.0139 -0.7683  0.1305
  788MOL0     C 3939  10.381  10.858   6.620 -0.0626 -0.1277  0.3208
  788MOL0     C 3940  10.404  10.750   6.532  0.1777 -0.7360 -0.3008
  788MOL0     C 3941  10.541  10.697   6.525 -0.2056  0.9098  0.1137
  788MOL0     O 3942  10.586  10.589   6.448 -0.2258 -0.3751  0.6443
  788MOL0     C 3943  10.544  10.606   6.315 -1.1364  0.1181 -0.5103
  788MOL0     C 3944  10.487  10.471   6.272 -0.5302 -0.1971 -0.9865
  788MOL0     C 3945  10.418  10.462   6.142  0.0527  0.0968  0.8350
  788MOL0     C 3946  10.412  10.599   6.055 -0.1816  0.8263  0.5060
  788MOL0     C 3947  10.369  10.561   5.919  0.4180  0.4088 -0.8205
  788MOL0     C 3948  10.344  10.507   5.816 -0.6616 -0.9833  1.3100
  788MOL0     C 3949  10.644  10.746   6.608 -0.0334 -0.6463  0.3337
  788MOL0     C 3950  10.610  10.853   6.693 -0.5459  0.6299 -1.0565
  788MOL0     H 3951  10.647  11.070   7.152 -1.3361 -2.1815 -2.7203
  788MOL0     H 3952  10.678  11.260   7.265 -0.7362 -0.0534  0.4392
  788MOL0     H 3953  10.433  11.497   7.285  1.9540 -1.9039 -0.5055
  788MOL0     H 3954  10.447  11.623   7.167 -2.8152 -0.7867  1.0858
  788MOL0     H 3955  10.524  11.780   7.342  0.2531  0.3180  0.1581
  788MOL0     H 3956  10.622  11.646   7.413 -0.9042 -4.0240  1.6423
  788MOL0     H 3957  10.431  11.538   7.505  0.4125  0.0938  1.4149
  788MOL0     H 3958  10.320  11.654   7.451  2.1906 -2.6663 -3.9022
  788MOL0     H 3959  10.450  11.839   7.567  1.0624 -0.5993 -1.6433
  788MOL0     H 3960  10.371  11.737   7.678  1.3792  2.2970  1.7091
  788MOL0     H 3961  10.670  11.708   7.622  0.8245 -0.5161 -0.4006
  788MOL0     H 3962  10.578  11.607   7.733 -0.8590  1.1849  0.5782
  788MOL0     H 3963  10.650  11.894   7.756 -0.9844  2.5854  2.2293
  788MOL0     H 3964  10.704  11.750   7.844 -1.0890 -2.8001 -0.4295
  788MOL0     H 3965  10.427  11.871   7.843  0.5453 -0.5618 -0.5540
  788MOL0     H 3966  10.481  11.744   7.961 -0.1898 -1.7692 -3.2712
  788MOL0     H 3967  10.621  12.015   7.970 -0.2137  0.1789  0.4586
  788MOL0     H 3968  10.650  11.864   8.063  2.2263  1.7131 -0.5926
  788MOL0     H 3969  10.393  11.762   8.188  1.2462 -0.4678 -0.4579
  788MOL0     H 3970  10.217  11.949   8.456 -0.3496 -2.7780  1.5009
  788MOL0     H 3971  10.231  11.793   8.368  0.8507  0.8047 -0.1662
  788MOL0     H 3972  10.080  11.893   8.193  2.4203 -5.3266  1.2430
  788MOL0     H 3973  10.085  12.046   8.285  3.5131  0.8800  0.8650
  788MOL0     H 3974   9.883  11.914   8.306  0.2671  2.7077  0.1922
  788MOL0     H 3975   9.964  11.781   8.393  2.0606  0.1858  4.3349
  788MOL0     H 3976   9.834  11.951   8.514  0.3158 -1.8810  3.1350
  788MOL0     H 3977   9.974  12.062   8.480  0.2757 -0.3449 -1.8787
  788MOL0     H 3978   9.782  11.821   8.688  0.9245  0.4395  0.8411
  788MOL0     H 3979   9.730  11.592   8.752  1.7859 -0.1106  5.5558
  788MOL0     H 3980   9.569  11.356   8.956  2.2081  1.1853 -0.0087
  788MOL0     H 3981   9.460  11.160   9.088  1.2247 -1.3671  2.1147
  788MOL0     H 3982   9.420  10.999   9.202 -1.4991 -0.8779 -0.5674
  788MOL0     H 3983   9.410  10.826   9.187  1.6304 -1.5023 -0.5640
  788MOL0     H 3984   9.336  10.845   8.948 -4.8014 -2.6607  1.6908
  788MOL0     H 3985   9.322  11.015   8.963  0.9963 -0.7616 -1.3863
  788MOL0     H 3986   9.174  10.942   9.187 -1.1641 -5.3510  2.5349
  788MOL0     H 3987   9.171  10.790   9.102 -0.0658 -0.0502 -3.1673
  788MOL0     H 3988   9.043  10.851   8.934 -1.0924 -2.5486  2.3126
  788MOL0     H 3989   8.977  10.928   9.067 -0.8338 -2.5475 -1.3273
  788MOL0     H 3990   9.167  11.118   8.939 -0.9693  0.7388 -2.8490
  788MOL0     H 3991   9.013  11.150   9.013 -0.9525  0.0966 -0.4675
  788MOL0     H 3992   9.015  11.048   8.738 -0.0224  0.0588  0.4053
  788MOL0     H 3993   9.000  11.215   8.798 -0.9407  0.7880 -1.6227
  788MOL0     H 3994   8.828  10.980   8.880 -2.7074  0.1777  2.0072
  788MOL0     H 3995   8.800  11.147   8.927 -3.4839  0.1080 -2.5225
  788MOL0     H 3996   8.767  11.020   8.654  0.1400  0.8187 -1.0338
  788MOL0     H 3997   8.783  11.203   8.687 -0.9590  0.3617  0.4361
  788MOL0     H 3998   9.792  10.923   8.936 -0.4105 -1.1292  0.6017
  788MOL0     H 3999   9.862  11.084   8.798  0.1323 -1.8575  1.5053
  788MOL0     H 4000  10.138  11.483   8.724 -1.3594 -1.0214 -1.0910
  788MOL0     H 4001  10.198  11.701   8.653 -0.4127  0.0858 -1.8002
  788MOL0     H 4002  10.512  11.512   6.952 -0.2074 -0.8644 -0.7316
  788MOL0     H 4003  10.513  11.313   6.802  0.6881  1.6840  0.3604
  788MOL0     H 4004  10.280  10.897   6.627 -0.0668 -0.4415  2.9023
  788MOL0     H 4005  10.322  10.699   6.483 -1.7568 -0.1790  2.1047
  788MOL0     H 4006  10.621  10.626   6.240 -2.5501  0.0420 -2.0302
  788MOL0     H 4007  10.479  10.691   6.296 -3.1061 -1.0257  0.7826
  788MOL0     H 4008  10.564  10.394   6.270 -2.4001 -2.2069 -4.4658
  788MOL0     H 4009  10.427  10.429   6.354 -0.4927  1.0954 -0.2555
  788MOL0     H 4010  10.316  10.424   6.152 -1.3126  1.0855 -5.2993
  788MOL0     H 4011  10.461  10.379   6.085  1.5210  1.5489 -0.2764
  788MOL0     H 4012  10.335  10.664   6.098  0.1534  1.1275  0.6541
  788MOL0     H 4013  10.502  10.660   6.057 -1.7743  3.3680 -0.1372
  788MOL0     H 4014  10.315  10.485   5.715 -0.6278  0.7325  0.9005
  788MOL0     H 4015  10.740  10.699   6.591 -1.0410 -2.7868  0.1673
  788MOL0     H 4016  10.689  10.881   6.762  0.0942 -2.3763 -0.4623
  789MOL0     O 4017   9.231   8.440  10.662 -0.1530 -0.3833  0.1905
  789MOL0     C 4018   9.315   8.488  10.589 -0.1570  0.9527 -0.0640
  789MOL0     O 4019   9.385   8.603  10.617 -0.7740  0.1536 -0.2017
  789MOL0     C 4020   9.354   8.686  10.724  0.4901  0.0068 -0.0699
  789MOL0     C 4021   9.225   8.726  10.766  0.0317 -0.1246 -0.4258
  789MOL0     C 4022   9.198   8.803  10.880 -0.0014  0.4436 -0.7875
  789MOL0     C 4023   9.299   8.858  10.956 -0.3801 -0.0629 -0.1298
  789MOL0     O 4024   9.264   8.933  11.065 -0.3313 -0.3774 -0.5678
  789MOL0     C 4025   9.304   8.877  11.193 -0.7136  0.7888 -0.3123
  789MOL0     C 4026   9.244   8.974  11.296  0.4724  0.4320 -0.2043
  789MOL0     C 4027   9.308   9.109  11.279 -0.2332 -0.3894 -0.5504
  789MOL0     C 4028   9.435   9.131  11.363 -0.6157 -0.1866 -0.0668
  789MOL0     C 4029   9.428   9.272  11.429 -0.1483 -0.1236 -0.1840
  789MOL0     C 4030   9.435   9.385  11.322  0.6833 -0.7494  0.3374
  789MOL0     C 4031   9.398   9.522  11.385 -0.8061  0.0787  0.2234
  789MOL0     C 4032   9.251   9.537  11.405  0.4791 -0.4674  0.0382
  789MOL0     N 4033   9.214   9.677  11.419 -0.1874 -0.7200  1.1533
  789MOL0     C 4034   9.186   9.762  11.316 -1.2270 -0.3786  0.6745
  789MOL0     C 4035   9.178   9.889  11.375  0.5745  0.2156  0.0482
  789MOL0     C 4036   9.146  10.012  11.306 -0.3377  0.4746  0.1840
  789MOL0     C 4037   8.985  10.013  11.295 -0.0851 -0.3391  0.0003
  789MOL0     C 4038   8.927  10.159  11.281 -0.2187 -0.3372  1.2584
  789MOL0     C 4039   8.934  10.221  11.423  0.3819 -0.4059  0.5791
  789MOL0     O 4040   8.942  10.361  11.415  0.3580 -0.5790 -0.0516
  789MOL0     C 4041   8.970  10.427  11.536  0.0118 -0.1559  0.2080
  789MOL0     C 4042   8.931  10.376  11.657  0.1868 -0.8489 -0.1020
  789MOL0     C 4043   8.967  10.437  11.776  0.3758 -0.8186 -0.3556
  789MOL0     C 4044   9.045  10.555  11.779  0.1335 -0.1049  0.4201
  789MOL0     C 4045   9.106  10.621  11.901  0.4246 -0.8662 -0.8300
  789MOL0     O 4046   9.201  10.721  11.885 -0.9583 -0.7387 -0.1760
  789MOL0     C 4047   9.259  10.775  11.995  0.4837  0.0160  0.1460
  789MOL0     C 4048   9.182  10.867  12.076  0.9028  0.9717  1.2511
  789MOL0     C 4049   9.245  10.926  12.184  0.8210  0.3966 -0.7679
  789MOL0     C 4050   9.377  10.892  12.225 -0.0988 -0.2579  0.7168
  789MOL0     O 4051   9.460  10.935  12.328 -0.4648  0.2721 -0.7363
  789MOL0     C 4052   9.414  11.052  12.399 -0.1356  0.7213 -0.3228
  789MOL0     C 4053   9.524  11.146  12.433 -0.9075 -1.3584  0.2389
  789MOL0     C 4054   9.502  11.225  12.566  0.5949 -0.2877  0.1185
  789MOL0     C 4055   9.564  11.154  12.691 -0.2380 -0.4275 -0.1786
  789MOL0     C 4056   9.563  11.228  12.830  0.2063 -1.5514 -0.7614
  789MOL0     C 4057   9.432  11.263  12.894  0.5339  0.0094 -0.2105
  789MOL0     C 4058   9.440  11.362  13.004  0.4192 -0.1077  0.2570
  789MOL0     C 4059   9.518  11.305  13.119  1.1244 -0.0536  0.7592
  789MOL0    Cl 4060   9.521  11.401  13.270  0.4415  0.1709  0.7592
  789MOL0     C 4061   9.447  10.802  12.150 -0.1477 -0.5626 -0.2108
  789MOL0     C 4062   9.391  10.750  12.034  0.1882 -1.2660  0.5545
  789MOL0     O 4063   9.066  10.586  12.005 -0.2360  1.0809 -0.7937
  789MOL0     C 4064   9.084  10.609  11.646  0.1418  0.8137 -0.7278
  789MOL0     C 4065   9.044  10.544  11.532 -0.9312 -0.1692  0.1306
  789MOL0     N 4066   9.200   9.876  11.508  0.4074  0.4548 -0.6547
  789MOL0     N 4067   9.219   9.751  11.533  0.0403 -0.0041 -0.4363
  789MOL0     C 4068   9.426   8.826  10.915 -0.4918  0.0189 -0.6952
  789MOL0     C 4069   9.452   8.734  10.813 -0.6300  0.7230 -0.0549
  789MOL0     C 4070   9.340   8.428  10.453  0.1403  0.0640 -0.3881
  789MOL0     C 4071   9.242   8.344  10.402 -0.1975 -1.3000 -0.5656
  789MOL0     C 4072   9.269   8.277  10.279 -0.2874  0.6290 -0.2587
  789MOL0     C 4073   9.388   8.300  10.206  0.2503  0.0251 -0.8739
  789MOL0     O 4074   9.397   8.219  10.099  0.0975  0.5209  0.6293
  789MOL0     C 4075   9.501   8.239  10.007 -0.3946  0.7372  0.3511
  789MOL0     C 4076   9.478   8.379   9.938  0.1335  0.2816 -0.8549
  789MOL0     C 4077   9.603   8.425   9.864  0.1231  0.9158 -0.5866
  789MOL0     C 4078   9.696   8.491   9.968  0.1711 -0.5858  0.5250
  789MOL0     C 4079   9.768   8.596   9.908 -0.8171  0.4306  0.5186
  789MOL0     C 4080   9.810   8.691   9.852 -0.6850  0.0307 -0.0508
  789MOL0     C 4081   9.480   8.390  10.263  0.6140 -0.6080  0.7643
  789MOL0     C 4082   9.455   8.444  10.394 -0.7431  0.8636  0.1003
  789MOL0     H 4083   9.139   8.670  10.729  0.3472 -3.9142  3.6502
  789MOL0     H 4084   9.100   8.835  10.914  0.0304  1.1658 -1.3691
  789MOL0     H 4085   9.413   8.875  11.200 -0.6225  2.7008 -0.8482
  789MOL0     H 4086   9.262   8.777  11.210 -0.2452  0.4714 -0.9854
  789MOL0     H 4087   9.234   8.936  11.398 -0.0413  3.1998  0.8620
  789MOL0     H 4088   9.141   8.995  11.266  0.0816  1.2132  1.5811
  789MOL0     H 4089   9.233   9.178  11.320  1.8380  0.0592  2.8866
  789MOL0     H 4090   9.331   9.142  11.177  1.2622  0.1122 -0.0856
  789MOL0     H 4091   9.427   9.055  11.441  0.9814 -2.0945 -1.6434
  789MOL0     H 4092   9.526   9.099  11.311 -1.9271 -0.8171 -2.1158
  789MOL0     H 4093   9.518   9.279  11.491 -0.9554 -0.9551  1.1091
  789MOL0     H 4094   9.337   9.285  11.489 -1.2525 -2.2750 -1.2774
  789MOL0     H 4095   9.366   9.361  11.242  2.3439 -2.1030 -0.7650
  789MOL0     H 4096   9.540   9.404  11.297  1.2763 -0.1972  2.9074
  789MOL0     H 4097   9.450   9.535  11.480  0.2294 -2.2478  0.0531
  789MOL0     H 4098   9.452   9.591  11.319  0.1738 -1.7987 -1.0325
  789MOL0     H 4099   9.209   9.490  11.495 -0.8118 -3.9448 -2.1614
  789MOL0     H 4100   9.194   9.493  11.322  1.9154 -5.0266  1.1707
  789MOL0     H 4101   9.180   9.746  11.209  1.8259  3.7352 -0.3481
  789MOL0     H 4102   9.202  10.013  11.212  0.7650  0.2864  0.8180
  789MOL0     H 4103   9.181  10.098  11.364 -0.7722 -0.1141  1.3554
  789MOL0     H 4104   8.941   9.971  11.385  0.9216  0.0642  0.6976
  789MOL0     H 4105   8.956   9.954  11.208  0.4542 -0.8594  0.1685
  789MOL0     H 4106   8.988  10.220  11.215 -0.5730 -0.3067  0.9575
  789MOL0     H 4107   8.826  10.150  11.239 -1.2134 -0.0695  3.4098
  789MOL0     H 4108   9.018  10.186  11.482  0.7379 -0.2896  0.1435
  789MOL0     H 4109   8.835  10.198  11.465 -1.4575 -1.2629 -3.6880
  789MOL0     H 4110   8.873  10.285  11.662  1.7489 -2.0030 -1.7223
  789MOL0     H 4111   8.942  10.395  11.874  0.1496 -4.1337 -1.6924
  789MOL0     H 4112   9.081  10.897  12.049  1.0320  0.1591 -0.2459
  789MOL0     H 4113   9.181  10.994  12.241 -2.5542 -2.3806 -0.9235
  789MOL0     H 4114   9.375  11.008  12.491  0.8231  0.0308 -0.2408
  789MOL0     H 4115   9.332  11.110  12.354 -0.7667  1.0684  1.1927
  789MOL0     H 4116   9.536  11.217  12.350 -0.7771  0.5028  1.7874
  789MOL0     H 4117   9.622  11.097  12.440  0.6017  1.1579 -1.3822
  789MOL0     H 4118   9.396  11.245  12.587  0.9989  0.5159  1.5867
  789MOL0     H 4119   9.548  11.322  12.547  1.4746 -1.0192 -1.6660
  789MOL0     H 4120   9.517  11.056  12.701  1.5126 -1.3064 -0.1133
  789MOL0     H 4121   9.670  11.136  12.674  0.6903  1.8656  2.3703
  789MOL0     H 4122   9.620  11.319  12.813  0.7421 -1.6041  0.6104
  789MOL0     H 4123   9.602  11.159  12.906  3.6348  1.5417  0.5947
  789MOL0     H 4124   9.378  11.173  12.924 -1.3442  1.0353 -0.3845
  789MOL0     H 4125   9.366  11.314  12.824  1.9382  0.9543 -0.9063
  789MOL0     H 4126   9.476  11.458  12.965  0.1811  0.6352  1.8218
  789MOL0     H 4127   9.339  11.392  13.033  0.7567  0.7136  0.6066
  789MOL0     H 4128   9.622  11.287  13.088  1.2186  1.9206 -0.2755
  789MOL0     H 4129   9.481  11.204  13.137  2.5946 -0.8663 -0.5150
  789MOL0     H 4130   9.549  10.780  12.180 -0.3085  0.0403  0.8115
  789MOL0     H 4131   9.456  10.696  11.967  2.6393  0.9015  1.0350
  789MOL0     H 4132   9.147  10.698  11.641  0.0699  0.8075 -2.0306
  789MOL0     H 4133   9.068  10.576  11.431 -2.4120  0.9161  0.0855
  789MOL0     H 4134   9.516   8.851  10.969 -0.3810 -1.2700 -0.2400
  789MOL0     H 4135   9.555   8.702  10.809  0.3593  3.6637 -1.4206
  789MOL0     H 4136   9.153   8.325  10.462  1.1509 -1.2363  1.5542
  789MOL0     H 4137   9.206   8.198  10.241  0.6468 -2.4401  3.8535
  789MOL0     H 4138   9.520   8.166   9.928  0.6976  2.6203 -1.2174
  789MOL0     H 4139   9.594   8.252  10.063 -2.2366  1.0964  3.5552
  789MOL0     H 4140   9.393   8.370   9.870  0.3043  1.0752 -1.1849
  789MOL0     H 4141   9.430   8.455  10.000  1.5464  1.1623 -0.8050
  789MOL0     H 4142   9.567   8.494   9.787  0.5811  1.8517  0.0204
  789MOL0     H 4143   9.651   8.344   9.809 -2.1778 -1.9933  1.3354
  789MOL0     H 4144   9.633   8.534  10.047 -2.3773 -2.1710 -0.5141
  789MOL0     H 4145   9.774   8.417   9.986  0.7324 -1.0647 -3.2000
  789MOL0     H 4146   9.845   8.785   9.813 -0.5644 -1.3046 -3.5064
  789MOL0     H 4147   9.573   8.430  10.225  1.2436 -0.3113  2.5442
  789MOL0     H 4148   9.538   8.505  10.428  0.1465  0.1858 -0.7961
  790MOL0     O 4149   2.505   1.524   9.689 -0.4286  0.5531  0.2975
  790MOL0     C 4150   2.409   1.582   9.733 -0.3134 -0.0555  0.3492
  790MOL0     O 4151   2.392   1.606   9.862  0.6872  0.1371  1.4715
  790MOL0     C 4152   2.453   1.540   9.967  0.8249  0.9219  0.1128
  790MOL0     C 4153   2.499   1.409   9.951  0.5568  0.9941 -0.1154
  790MOL0     C 4154   2.554   1.331  10.059 -0.7640 -0.5464  0.0261
  790MOL0     C 4155   2.576   1.397  10.181 -0.4978 -0.2654 -0.5736
  790MOL0     O 4156   2.631   1.338  10.295  0.5473 -0.1510  1.0172
  790MOL0     C 4157   2.677   1.203  10.271 -0.3944  0.8368  0.0133
  790MOL0     C 4158   2.733   1.145  10.404 -0.4777  0.8843  0.3657
  790MOL0     C 4159   2.631   1.103  10.510 -0.0873 -1.0988  0.0547
  790MOL0     C 4160   2.531   0.993  10.455  0.8243 -0.2663 -0.7743
  790MOL0     C 4161   2.412   0.976  10.558 -0.4940 -0.8470 -0.1595
  790MOL0     C 4162   2.462   0.908  10.684 -0.1304  0.5891 -0.2598
  790MOL0     C 4163   2.346   0.900  10.792 -0.7360  0.0168  0.7712
  790MOL0     C 4164   2.216   0.841  10.745  1.1393 -0.1086 -1.3296
  790MOL0     N 4165   2.110   0.817  10.847  0.3038  0.9968 -0.0267
  790MOL0     C 4166   2.004   0.899  10.866  0.9093  0.1367 -1.0429
  790MOL0     C 4167   1.934   0.825  10.961 -0.2759  0.4995 -0.0104
  790MOL0     C 4168   1.810   0.868  11.028 -0.9719  0.3991 -0.2427
  790MOL0     C 4169   1.740   0.760  11.115 -0.0597  0.5296 -0.0848
  790MOL0     C 4170   1.615   0.821  11.176  1.0995 -0.3406  0.2710
  790MOL0     C 4171   1.520   0.705  11.237  0.4598 -0.7730 -0.3714
  790MOL0     O 4172   1.393   0.762  11.261  0.3598  0.2657  0.2200
  790MOL0     C 4173   1.313   0.690  11.346  0.1997 -0.1374  0.1071
  790MOL0     C 4174   1.184   0.739  11.383 -0.7659 -0.6381  0.0428
  790MOL0     C 4175   1.086   0.664  11.454  0.0766  0.8195 -0.4383
  790MOL0     C 4176   1.124   0.535  11.502  0.4739  0.0797 -0.0774
  790MOL0     C 4177   1.027   0.454  11.579 -0.0834 -0.0850  0.5203
  790MOL0     O 4178   1.055   0.331  11.618 -0.1619 -0.4095 -0.1928
  790MOL0     C 4179   0.957   0.248  11.664 -0.4168 -0.9916  0.0350
  790MOL0     C 4180   1.001   0.133  11.731 -0.4428 -0.4482  0.5782
  790MOL0     C 4181   0.921   0.034  11.763  0.4560 -0.1067  0.4882
  790MOL0     C 4182   0.785   0.033  11.738 -0.0030 -0.3917  0.1003
  790MOL0     O 4183   0.711  -0.084  11.750 -0.5972 -0.8078 -0.4660
  790MOL0     C 4184   0.638  -0.135  11.638  0.3511  0.5407  0.1552
  790MOL0     C 4185   0.578  -0.270  11.702 -0.0806 -0.4494 -0.1892
  790MOL0     C 4186   0.596  -0.403  11.629  0.0710  0.4355  0.6150
  790MOL0     C 4187   0.536  -0.525  11.680  0.1583  0.4013 -0.4615
  790MOL0     C 4188   0.384  -0.530  11.665 -0.0658  0.2562  0.0158
  790MOL0     C 4189   0.330  -0.669  11.700  0.3778 -0.4345 -0.6761
  790MOL0     C 4190   0.181  -0.690  11.685 -0.8882  0.3638  0.0700
  790MOL0     C 4191   0.137  -0.734  11.543  0.4007 -0.3934  0.9484
  790MOL0    Cl 4192  -0.046  -0.715  11.552  0.4916 -0.4720  0.5635
  790MOL0     C 4193   0.730   0.145  11.670 -0.0451 -0.3560  0.3704
  790MOL0     C 4194   0.821   0.249  11.637 -0.6293 -0.5496  0.7477
  790MOL0     O 4195   0.940   0.520  11.631 -0.3463 -0.2699  0.7435
  790MOL0     C 4196   1.254   0.488  11.472 -0.3424 -0.4684 -0.2628
  790MOL0     C 4197   1.338   0.562  11.393  0.1969  0.1523  0.6865
  790MOL0     N 4198   1.994   0.703  10.975 -0.2933  0.9306 -0.8917
  790MOL0     N 4199   2.107   0.707  10.925 -0.2178  0.6842  0.1998
  790MOL0     C 4200   2.521   1.523  10.200 -0.2608  0.5849 -0.5147
  790MOL0     C 4201   2.465   1.601  10.094  0.0397  0.0500  0.8730
  790MOL0     C 4202   2.311   1.636   9.633 -0.1433  0.1943 -0.0902
  790MOL0     C 4203   2.208   1.726   9.683 -0.8197  0.8049 -0.6396
  790MOL0     C 4204   2.115   1.773   9.602  0.4037 -0.4302 -0.7273
  790MOL0     C 4205   2.110   1.743   9.467  0.1969  1.7046  0.5767
  790MOL0     O 4206   2.012   1.796   9.394 -0.0179 -0.0178 -0.3193
  790MOL0     C 4207   1.996   1.766   9.250  0.0923  0.4159  0.3998
  790MOL0     C 4208   1.927   1.869   9.170 -0.5062  0.8298  0.1729
  790MOL0     C 4209   2.025   1.990   9.165  0.2607  0.4345 -0.8950
  790MOL0     C 4210   1.968   2.104   9.075  0.4250  0.7037 -0.4795
  790MOL0     C 4211   2.029   2.233   9.113  0.5791  0.1963  0.2137
  790MOL0     C 4212   2.063   2.344   9.145  0.0243 -1.0182  0.4322
  790MOL0     C 4213   2.200   1.642   9.416 -0.5772 -0.8527 -0.3627
  790MOL0     C 4214   2.312   1.606   9.493 -0.3206 -0.1089 -0.5848
  790MOL0     H 4215   2.481   1.359   9.856 -2.2968 -1.0068  1.3444
  790MOL0     H 4216   2.581   1.228  10.040  0.0165 -0.3873  0.2266
  790MOL0     H 4217   2.748   1.206  10.188 -1.2159 -0.6802 -0.7857
  790MOL0     H 4218   2.593   1.142  10.235 -1.5797  2.2117  0.3437
  790MOL0     H 4219   2.806   1.215  10.448 -0.3843  0.7805  0.3766
  790MOL0     H 4220   2.795   1.061  10.371 -3.6102 -1.9357  1.0996
  790MOL0     H 4221   2.564   1.186  10.536  0.1772 -0.0758 -2.2437
  790MOL0     H 4222   2.688   1.065  10.596  1.0395 -1.1741 -0.7077
  790MOL0     H 4223   2.484   1.043  10.371 -3.0298  2.8038  2.7924
  790MOL0     H 4224   2.586   0.902  10.430  0.0828 -2.5042  4.4785
  790MOL0     H 4225   2.335   0.923  10.501 -0.8850 -1.6490  1.0634
  790MOL0     H 4226   2.373   1.076  10.580  0.7577 -0.6946  1.5421
  790MOL0     H 4227   2.546   0.964  10.727  3.2217 -3.2649 -1.2210
  790MOL0     H 4228   2.494   0.808  10.654 -3.6389 -1.7772  2.8972
  790MOL0     H 4229   2.384   0.832  10.869  3.1747 -0.6879 -1.4651
  790MOL0     H 4230   2.336   1.001  10.832 -0.5267  0.3631 -0.0168
  790MOL0     H 4231   2.232   0.747  10.692 -2.2756 -2.6560  1.6622
  790MOL0     H 4232   2.167   0.925  10.696  1.7884  3.2024  3.0217
  790MOL0     H 4233   1.993   1.005  10.844  0.8607  0.2777 -0.3755
  790MOL0     H 4234   1.728   0.895  10.962 -1.3556 -1.4476 -0.5806
  790MOL0     H 4235   1.837   0.950  11.095 -0.5803  0.0536  0.0298
  790MOL0     H 4236   1.811   0.733  11.194 -1.2191 -0.7385  0.5784
  790MOL0     H 4237   1.722   0.671  11.054  1.8263 -0.9293  1.3651
  790MOL0     H 4238   1.634   0.897  11.253  1.6545  1.2054 -1.3190
  790MOL0     H 4239   1.555   0.868  11.098 -0.2375 -4.0362 -1.1027
  790MOL0     H 4240   1.568   0.652  11.320 -0.2165 -0.7738  0.0264
  790MOL0     H 4241   1.516   0.621  11.166 -1.6013 -2.8616  2.0269
  790MOL0     H 4242   1.170   0.842  11.354  2.1930  1.3973  4.6637
  790MOL0     H 4243   0.986   0.692  11.486  0.8711  1.0451  2.0522
  790MOL0     H 4244   1.105   0.109  11.749 -0.9803 -2.7392  0.9991
  790MOL0     H 4245   0.958  -0.057  11.808  3.6253 -0.2834 -2.0975
  790MOL0     H 4246   0.695  -0.162  11.548 -0.7564 -0.3936 -0.2769
  790MOL0     H 4247   0.558  -0.068  11.604  0.4251 -0.1421 -1.4466
  790MOL0     H 4248   0.470  -0.254  11.709  0.2945  2.2560  0.3500
  790MOL0     H 4249   0.618  -0.280  11.804  0.0031 -2.1074 -0.3633
  790MOL0     H 4250   0.700  -0.432  11.643 -0.4660 -1.0972  1.6274
  790MOL0     H 4251   0.576  -0.393  11.522 -1.1831 -3.5688  0.3293
  790MOL0     H 4252   0.580  -0.616  11.638  0.9841 -0.6348  2.4412
  790MOL0     H 4253   0.563  -0.529  11.786  1.6186 -0.6316 -0.8364
  790MOL0     H 4254   0.353  -0.505  11.563 -1.4425  2.2793  0.8456
  790MOL0     H 4255   0.329  -0.457  11.727 -3.0321 -2.3813  0.7629
  790MOL0     H 4256   0.352  -0.687  11.806 -2.7970 -0.9793  0.0090
  790MOL0     H 4257   0.386  -0.745  11.646  4.8401  3.8133 -2.7633
  790MOL0     H 4258   0.171  -0.780  11.747  1.2969  1.1330  1.6523
  790MOL0     H 4259   0.117  -0.607  11.713 -2.2964 -1.7399  3.8886
  790MOL0     H 4260   0.167  -0.836  11.518  5.4917 -0.7865  6.2419
  790MOL0     H 4261   0.175  -0.654  11.478 -0.1399  0.9164  2.1686
  790MOL0     H 4262   0.631   0.157  11.627  1.0395  1.8447 -1.8155
  790MOL0     H 4263   0.777   0.337  11.590  1.3989  1.1648  1.8582
  790MOL0     H 4264   1.285   0.389  11.505 -1.8889 -1.3797 -1.4056
  790MOL0     H 4265   1.433   0.513  11.376  0.5649  1.1903 -0.4082
  790MOL0     H 4266   2.534   1.571  10.297  1.4747  2.0335 -1.4114
  790MOL0     H 4267   2.437   1.703  10.117  3.4417  0.9838  1.5717
  790MOL0     H 4268   2.184   1.753   9.786 -2.7404  0.0761 -0.8437
  790MOL0     H 4269   2.044   1.847   9.639  2.0594  0.2312  1.2953
  790MOL0     H 4270   1.932   1.677   9.243 -0.4473  0.5735  2.4687
  790MOL0     H 4271   2.091   1.743   9.201 -0.6033  1.2206 -1.4155
  790MOL0     H 4272   1.899   1.848   9.066  0.0803  2.5155 -0.3555
  790MOL0     H 4273   1.838   1.892   9.229 -0.2277  0.9482  0.5462
  790MOL0     H 4274   2.125   1.978   9.122  0.2446  2.6706 -1.6835
  790MOL0     H 4275   2.037   2.027   9.268 -2.8862  0.2831 -0.3692
  790MOL0     H 4276   1.978   2.066   8.973  0.7951 -3.0243  0.8078
  790MOL0     H 4277   1.862   2.119   9.095  0.3979  1.6628 -1.2363
  790MOL0     H 4278   2.084   2.442   9.182 -1.2549 -0.4564 -0.2480
  790MOL0     H 4279   2.187   1.592   9.320  2.7307 -3.4117  0.3294
  790MOL0     H 4280   2.387   1.534   9.463  1.7383  1.5647  0.2554
  791MOL0     O 4281   3.636   8.170   6.274  0.0820 -0.2579  0.3151
  791MOL0     C 4282   3.694   8.226   6.370  0.1167  0.5756  0.7779
  791MOL0     O 4283   3.822   8.205   6.404 -0.5667 -0.6645  0.1674
  791MOL0     C 4284   3.895   8.128   6.317 -0.6871  0.7944 -0.6508
  791MOL0     C 4285   3.949   8.011   6.367 -0.0994  0.4222  0.7027
  791MOL0     C 4286   4.041   7.938   6.291  0.5741 -0.1674 -1.5025
  791MOL0     C 4287   4.097   7.988   6.171 -0.6458  0.0770  0.5601
  791MOL0     O 4288   4.198   7.924   6.115  0.2842 -0.4861 -0.1688
  791MOL0     C 4289   4.192   7.781   6.087 -0.0481  0.0303  0.4421
  791MOL0     C 4290   4.325   7.717   6.072 -0.3157 -0.2889 -0.1639
  791MOL0     C 4291   4.394   7.749   5.931  0.5172  0.2574  0.3457
  791MOL0     C 4292   4.520   7.678   5.912  0.2306 -0.5652  0.1129
  791MOL0     C 4293   4.600   7.714   5.795  0.3415 -0.6837 -0.7050
  791MOL0     C 4294   4.531   7.693   5.670 -0.4683  0.2303  0.2017
  791MOL0     C 4295   4.629   7.689   5.552 -0.1226 -0.2040  0.1683
  791MOL0     C 4296   4.709   7.554   5.548 -0.3317  0.1715 -0.1477
  791MOL0     N 4297   4.839   7.559   5.491 -0.0867  0.0785  0.7501
  791MOL0     C 4298   4.954   7.579   5.567  0.2810  0.2004  0.0079
  791MOL0     C 4299   5.055   7.602   5.486  0.9329  0.2290  0.3638
  791MOL0     C 4300   5.191   7.641   5.525  0.9920 -0.0082  0.6676
  791MOL0     C 4301   5.199   7.796   5.514  0.4473  0.1799 -0.4161
  791MOL0     C 4302   5.313   7.849   5.592  0.1370 -0.5855  0.3639
  791MOL0     C 4303   5.445   7.771   5.567  0.1650  0.2410 -0.2108
  791MOL0     O 4304   5.565   7.832   5.627 -0.2909  0.2351 -0.0441
  791MOL0     C 4305   5.641   7.736   5.697  0.6623 -0.2514 -1.1717
  791MOL0     C 4306   5.641   7.727   5.839  1.3076 -0.9466  1.0200
  791MOL0     C 4307   5.708   7.619   5.908  0.2532  0.2811 -0.1536
  791MOL0     C 4308   5.780   7.524   5.836  0.8563 -0.9699  0.8886
  791MOL0     C 4309   5.843   7.417   5.909  0.1826 -0.1033  0.2308
  791MOL0     O 4310   5.837   7.439   6.051 -0.9384  0.3874  0.0223
  791MOL0     C 4311   5.913   7.358   6.130 -1.0506 -0.9958  0.1866
  791MOL0     C 4312   6.051   7.379   6.133 -0.1468 -0.8238 -0.1537
  791MOL0     C 4313   6.116   7.298   6.223 -0.2410  1.2759 -0.8339
  791MOL0     C 4314   6.050   7.216   6.312  0.1367 -0.6171 -0.0233
  791MOL0     O 4315   6.112   7.137   6.404  0.0226  0.1735  0.1984
  791MOL0     C 4316   6.224   7.040   6.372  0.1842 -0.9175 -0.5293
  791MOL0     C 4317   6.347   7.066   6.470 -0.1468 -0.1548 -0.4388
  791MOL0     C 4318   6.311   7.097   6.611  0.3464  0.2100 -0.3055
  791MOL0     C 4319   6.319   7.247   6.642 -0.1449 -0.1761  0.4094
  791MOL0     C 4320   6.249   7.282   6.772 -0.8433  0.0760  0.3155
  791MOL0     C 4321   6.364   7.261   6.879 -0.0170  0.2940  0.5225
  791MOL0     C 4322   6.357   7.375   6.986  0.0570  0.0171 -0.6079
  791MOL0     C 4323   6.457   7.370   7.096 -0.4041  0.1001  0.4194
  791MOL0    Cl 4324   6.421   7.244   7.217  0.2143  0.1088 -0.0822
  791MOL0     C 4325   5.920   7.192   6.302  0.6221 -0.6167 -0.2344
  791MOL0     C 4326   5.846   7.271   6.205  0.4659  0.2669  0.0213
  791MOL0     O 4327   5.908   7.330   5.842 -0.2566 -0.4571 -0.1187
  791MOL0     C 4328   5.787   7.539   5.698  0.5340  0.8076 -0.9423
  791MOL0     C 4329   5.711   7.642   5.632  0.0393 -0.5238  0.5977
  791MOL0     N 4330   4.998   7.611   5.353  0.1561  0.0643 -0.5703
  791MOL0     N 4331   4.872   7.571   5.357 -0.3315  0.5802  0.4267
  791MOL0     C 4332   4.063   8.122   6.139 -0.2271 -0.2488 -0.3622
  791MOL0     C 4333   3.958   8.186   6.203  0.1895 -0.3816 -1.6853
  791MOL0     C 4334   3.593   8.309   6.452  0.0061 -0.2467  0.3355
  791MOL0     C 4335   3.607   8.317   6.590 -0.2733 -0.4271  0.7101
  791MOL0     C 4336   3.522   8.390   6.681  0.1387  0.0341 -0.1740
  791MOL0     C 4337   3.416   8.462   6.624  0.2551 -1.1200  1.3900
  791MOL0     O 4338   3.327   8.524   6.704 -0.3715 -0.7595 -0.3266
  791MOL0     C 4339   3.188   8.541   6.653 -0.2666 -0.3772 -0.3783
  791MOL0     C 4340   3.102   8.559   6.774 -0.0702 -0.3332 -0.2606
  791MOL0     C 4341   2.960   8.567   6.739  0.2636  0.8663  0.0742
  791MOL0     C 4342   2.871   8.592   6.856 -0.0531  0.0992 -0.0052
  791MOL0     C 4343   2.909   8.703   6.943  0.6296  0.3451 -0.4122
  791MOL0     C 4344   2.932   8.781   7.034 -0.9136 -0.8693  0.4584
  791MOL0     C 4345   3.396   8.455   6.486  1.1826  0.6132  0.3042
  791MOL0     C 4346   3.487   8.381   6.408 -0.3113  0.4689  0.1895
  791MOL0     H 4347   3.894   7.978   6.454 -2.4982 -5.1940 -2.3384
  791MOL0     H 4348   4.069   7.843   6.336 -0.9240 -1.3722 -2.9841
  791MOL0     H 4349   4.148   7.765   5.988 -1.2089  3.1596  0.3129
  791MOL0     H 4350   4.147   7.727   6.170  2.7725  0.4444  2.4010
  791MOL0     H 4351   4.311   7.609   6.083  0.3762 -0.4971 -1.1917
  791MOL0     H 4352   4.386   7.745   6.158 -2.3632 -0.2566  1.3238
  791MOL0     H 4353   4.418   7.855   5.931  1.8927 -0.0352 -0.1522
  791MOL0     H 4354   4.321   7.723   5.854 -1.9501  1.9766  1.9540
  791MOL0     H 4355   4.570   7.711   6.004 -0.7806  3.3785 -0.5886
  791MOL0     H 4356   4.503   7.570   5.907 -0.4212 -0.5533  1.4599
  791MOL0     H 4357   4.700   7.671   5.795  1.5816  1.9578 -1.3693
  791MOL0     H 4358   4.625   7.821   5.796  0.9777 -0.8384 -0.2246
  791MOL0     H 4359   4.445   7.758   5.653 -0.3514  0.9822  2.2153
  791MOL0     H 4360   4.490   7.592   5.679 -2.8638  0.6204 -3.9438
  791MOL0     H 4361   4.574   7.703   5.459 -0.4655  2.9198  0.7270
  791MOL0     H 4362   4.697   7.774   5.559  0.6513 -0.7567 -0.4262
  791MOL0     H 4363   4.647   7.472   5.510  1.4112 -2.4312  2.2149
  791MOL0     H 4364   4.729   7.518   5.649 -0.1444  2.5378  0.7313
  791MOL0     H 4365   4.951   7.567   5.674  3.2363 -0.8249  0.0717
  791MOL0     H 4366   5.254   7.591   5.451  1.3834  1.6179 -0.1556
  791MOL0     H 4367   5.216   7.597   5.622  1.2737 -1.8059 -0.1837
  791MOL0     H 4368   5.106   7.841   5.552  0.9602 -0.7257  2.1288
  791MOL0     H 4369   5.206   7.823   5.408  1.2012 -1.6047 -0.8560
  791MOL0     H 4370   5.327   7.953   5.561  0.9534 -0.2609  1.7422
  791MOL0     H 4371   5.284   7.845   5.697 -2.5808 -2.3335 -0.3183
  791MOL0     H 4372   5.462   7.756   5.460  0.0389 -1.2217 -0.0412
  791MOL0     H 4373   5.444   7.671   5.611  2.2910 -0.2032 -1.0192
  791MOL0     H 4374   5.585   7.798   5.899  4.0526 -0.1693  2.8552
  791MOL0     H 4375   5.691   7.597   6.013 -1.6769  1.1159 -0.2384
  791MOL0     H 4376   6.102   7.454   6.074  0.8026 -2.3866 -1.4295
  791MOL0     H 4377   6.223   7.313   6.233  0.6955 -4.5100  5.0020
  791MOL0     H 4378   6.256   7.036   6.268  1.6060 -3.4181 -0.0951
  791MOL0     H 4379   6.188   6.939   6.397  0.2205 -0.5759  1.0406
  791MOL0     H 4380   6.409   7.143   6.424  0.0774 -1.6107 -2.7432
  791MOL0     H 4381   6.407   6.975   6.462 -1.2538 -1.2515  2.4283
  791MOL0     H 4382   6.369   7.049   6.690  1.2614  1.0482 -0.4514
  791MOL0     H 4383   6.209   7.060   6.625 -0.9248  3.8111  1.0570
  791MOL0     H 4384   6.419   7.289   6.629 -1.1778  2.0657 -1.1578
  791MOL0     H 4385   6.260   7.304   6.569 -0.7808  0.4483  1.3826
  791MOL0     H 4386   6.166   7.214   6.793  0.1937 -0.8603  1.5130
  791MOL0     H 4387   6.222   7.388   6.777  0.6324  0.6252 -2.0710
  791MOL0     H 4388   6.464   7.263   6.834 -0.5909 -0.2674 -0.8243
  791MOL0     H 4389   6.357   7.167   6.935 -0.2356 -0.4449 -0.7070
  791MOL0     H 4390   6.370   7.472   6.937  0.2301 -0.0778 -0.7547
  791MOL0     H 4391   6.256   7.386   7.025 -0.0526 -0.7657 -0.6567
  791MOL0     H 4392   6.459   7.463   7.154  1.4303 -0.2791  1.0136
  791MOL0     H 4393   6.551   7.347   7.045 -0.4391  1.4665 -0.2977
  791MOL0     H 4394   5.869   7.120   6.366 -4.2846  0.8872 -1.9989
  791MOL0     H 4395   5.740   7.250   6.195  1.0845 -3.6037 -0.2456
  791MOL0     H 4396   5.849   7.462   5.652 -1.9308 -1.2027 -1.1539
  791MOL0     H 4397   5.711   7.645   5.524  0.5180 -0.3612  0.5987
  791MOL0     H 4398   4.103   8.172   6.052  1.2443 -0.4374  0.1728
  791MOL0     H 4399   3.944   8.290   6.175  0.1733  0.6062  1.5874
  791MOL0     H 4400   3.684   8.262   6.642 -0.0529  0.4181  1.2987
  791MOL0     H 4401   3.545   8.386   6.787  1.4523  0.1944 -0.4334
  791MOL0     H 4402   3.168   8.448   6.598 -2.0103  0.6756 -1.6352
  791MOL0     H 4403   3.185   8.621   6.578  1.9039  1.9148  1.8048
  791MOL0     H 4404   3.119   8.479   6.847 -0.2059 -0.4220 -0.3281
  791MOL0     H 4405   3.130   8.655   6.820 -1.1213  0.6729 -1.6555
  791MOL0     H 4406   2.917   8.472   6.706 -6.2944  1.8231  4.1931
  791MOL0     H 4407   2.948   8.645   6.662 -0.5396 -0.2652 -0.9762
  791MOL0     H 4408   2.768   8.598   6.821 -0.5116 -1.9275  0.8554
  791MOL0     H 4409   2.865   8.500   6.915  0.6974 -0.5506 -0.9010
  791MOL0     H 4410   2.942   8.849   7.116 -1.3238  3.3783 -2.6929
  791MOL0     H 4411   3.324   8.513   6.429 -0.6291 -1.6029  0.1827
  791MOL0     H 4412   3.462   8.368   6.304  2.7962  1.4156 -0.7879
  792MOL0     O 4413   6.871   5.997   4.939  0.1606 -0.3871 -0.3195
  792MOL0     C 4414   6.956   5.917   4.902  0.6327 -0.7757 -1.1135
  792MOL0     O 4415   7.091   5.947   4.900 -0.0227  0.1473 -1.0115
  792MOL0     C 4416   7.121   6.060   4.976 -0.0287  0.3616 -0.4101
  792MOL0     C 4417   7.151   6.185   4.918 -0.2273  0.2523 -0.3159
  792MOL0     C 4418   7.168   6.297   4.991 -1.5230 -0.0418 -0.1503
  792MOL0     C 4419   7.167   6.289   5.128  0.0955 -0.9272 -1.1140
  792MOL0     O 4420   7.187   6.406   5.195 -0.1558 -0.7214 -0.4559
  792MOL0     C 4421   7.298   6.409   5.284 -0.5700  0.1074 -0.4533
  792MOL0     C 4422   7.412   6.484   5.220  0.0713  0.2480 -0.0954
  792MOL0     C 4423   7.387   6.629   5.223  0.4339 -0.1682 -0.0490
  792MOL0     C 4424   7.492   6.708   5.146 -0.6252  0.3980  0.2624
  792MOL0     C 4425   7.634   6.687   5.189 -0.4298  0.7164  0.0268
  792MOL0     C 4426   7.672   6.738   5.326 -0.0463  0.7706  0.7212
  792MOL0     C 4427   7.823   6.716   5.335  0.3358  0.4997 -0.5277
  792MOL0     C 4428   7.881   6.792   5.453 -0.4526 -0.8675 -0.4008
  792MOL0     N 4429   8.026   6.768   5.460  1.0928  0.1050  1.5224
  792MOL0     C 4430   8.111   6.858   5.404 -0.1731 -0.9501 -0.8513
  792MOL0     C 4431   8.233   6.806   5.428 -0.1209 -0.6326  1.1547
  792MOL0     C 4432   8.360   6.880   5.402  0.3684 -0.2992  0.3456
  792MOL0     C 4433   8.353   7.028   5.341 -0.4073  0.5953  0.0535
  792MOL0     C 4434   8.426   7.058   5.203  0.9407  0.5072  0.1414
  792MOL0     C 4435   8.568   7.006   5.186 -0.1204 -0.5586  0.2555
  792MOL0     O 4436   8.612   7.034   5.055 -0.0131  0.2654 -0.0267
  792MOL0     C 4437   8.670   7.161   5.028  0.0992  0.3300 -0.1910
  792MOL0     C 4438   8.693   7.256   5.125  0.0254  0.9094  0.4432
  792MOL0     C 4439   8.780   7.359   5.090  0.7109  0.5239 -1.2626
  792MOL0     C 4440   8.856   7.352   4.972  0.2127 -0.1554 -1.2000
  792MOL0     C 4441   8.959   7.458   4.953  0.0096  0.1643  0.8045
  792MOL0     O 4442   8.961   7.553   5.044 -0.2667 -0.5593 -0.1391
  792MOL0     C 4443   9.017   7.674   5.005  0.0096 -0.9856  0.1604
  792MOL0     C 4444   9.131   7.721   5.070  0.4983  0.1681  0.9933
  792MOL0     C 4445   9.173   7.857   5.040  0.0294 -0.0862 -0.5381
  792MOL0     C 4446   9.086   7.944   4.972  0.2058 -0.5131 -0.1506
  792MOL0     O 4447   9.100   8.078   4.972  0.5413  0.0761  1.1364
  792MOL0     C 4448   9.227   8.111   4.897  0.6496  0.9096  0.1383
  792MOL0     C 4449   9.268   8.255   4.923  0.0567 -0.3250  0.0352
  792MOL0     C 4450   9.327   8.285   5.060  0.8345  0.0592 -0.4767
  792MOL0     C 4451   9.371   8.441   5.072  0.2986  1.1387  0.0803
  792MOL0     C 4452   9.515   8.467   5.001 -0.3388 -0.6409  0.8381
  792MOL0     C 4453   9.633   8.405   5.069 -0.1167 -0.6921  0.1646
  792MOL0     C 4454   9.763   8.403   4.979 -1.3798  0.0173  0.1319
  792MOL0     C 4455   9.870   8.326   5.055  1.2952  0.3397 -0.2763
  792MOL0    Cl 4456  10.005   8.276   4.958  0.0760 -0.2048 -0.5763
  792MOL0     C 4457   8.974   7.894   4.911  0.8791 -0.1788  0.1173
  792MOL0     C 4458   8.938   7.762   4.932 -0.5668 -0.9226  0.3694
  792MOL0     O 4459   9.029   7.455   4.852 -0.1283 -0.7459  0.2930
  792MOL0     C 4460   8.825   7.262   4.877  0.5995  0.3356  0.0386
  792MOL0     C 4461   8.729   7.164   4.904  0.9086 -0.5785  0.0516
  792MOL0     N 4462   8.211   6.678   5.483  0.1567 -0.4644  0.4489
  792MOL0     N 4463   8.085   6.655   5.499 -0.4956 -0.0139 -0.8296
  792MOL0     C 4464   7.146   6.170   5.200 -0.2192 -0.5344  0.1308
  792MOL0     C 4465   7.130   6.051   5.120  0.5090  0.6270 -0.5275
  792MOL0     C 4466   6.910   5.804   4.844  0.0871  0.2251  0.5826
  792MOL0     C 4467   6.995   5.698   4.836 -0.5105 -0.3442  0.9526
  792MOL0     C 4468   6.945   5.575   4.781  1.0821  0.2973 -0.4041
  792MOL0     C 4469   6.812   5.569   4.734 -0.8744 -0.1214  0.7028
  792MOL0     O 4470   6.781   5.441   4.694 -0.5427 -0.2786  0.8957
  792MOL0     C 4471   6.655   5.398   4.663 -0.3703  0.0708 -0.2848
  792MOL0     C 4472   6.584   5.369   4.794  0.4914  0.0312 -0.5439
  792MOL0     C 4473   6.439   5.322   4.768 -0.0905  0.0119 -0.0739
  792MOL0     C 4474   6.386   5.275   4.902  0.1689  0.3508 -0.3732
  792MOL0     C 4475   6.261   5.207   4.883  0.1552  0.0925  0.1073
  792MOL0     C 4476   6.148   5.165   4.861 -0.1560  0.0676 -0.8736
  792MOL0     C 4477   6.724   5.678   4.759  0.2137 -0.2801 -0.6973
  792MOL0     C 4478   6.776   5.793   4.805  0.7724 -0.6955 -0.3226
  792MOL0     H 4479   7.154   6.193   4.810 -0.1200 -1.5015 -0.4818
  792MOL0     H 4480   7.179   6.395   4.944 -1.8764 -0.2274 -0.6261
  792MOL0     H 4481   7.341   6.313   5.313  1.4668  0.8569 -0.8932
  792MOL0     H 4482   7.252   6.455   5.372  0.3878 -0.9320  0.6187
  792MOL0     H 4483   7.419   6.445   5.118 -3.0394 -4.1285  1.0768
  792MOL0     H 4484   7.501   6.445   5.271 -0.8974  0.3148  1.7260
  792MOL0     H 4485   7.371   6.662   5.326 -2.6362 -5.7425  1.6617
  792MOL0     H 4486   7.290   6.650   5.176 -0.8645  0.3955  2.7195
  792MOL0     H 4487   7.473   6.686   5.041 -2.9340 -0.6094  0.8241
  792MOL0     H 4488   7.476   6.814   5.170 -3.2388 -0.4284  2.6431
  792MOL0     H 4489   7.690   6.764   5.134 -0.5410  0.4625 -0.4479
  792MOL0     H 4490   7.665   6.587   5.160  0.4323  1.0024 -0.0664
  792MOL0     H 4491   7.617   6.676   5.396 -0.3874  0.0958 -0.1383
  792MOL0     H 4492   7.657   6.847   5.330  0.5608  0.8966 -0.0637
  792MOL0     H 4493   7.842   6.608   5.340  0.4278  0.4288 -1.8390
  792MOL0     H 4494   7.878   6.751   5.247 -0.6727  1.5795 -0.7595
  792MOL0     H 4495   7.835   6.746   5.541  0.3707 -2.9810 -1.0100
  792MOL0     H 4496   7.842   6.894   5.458  1.2806 -0.1024 -1.6122
  792MOL0     H 4497   8.094   6.958   5.367  2.4647  0.5220  1.4701
  792MOL0     H 4498   8.411   6.826   5.322  0.3867  1.1019 -0.6145
  792MOL0     H 4499   8.409   6.902   5.497 -0.4789 -1.8114  1.1827
  792MOL0     H 4500   8.388   7.095   5.420  0.7780  0.1464 -0.0724
  792MOL0     H 4501   8.252   7.067   5.328 -1.0517 -1.6475 -2.7258
  792MOL0     H 4502   8.368   7.019   5.119  1.2396  2.4459 -1.0436
  792MOL0     H 4503   8.429   7.168   5.209 -0.9989  0.4955  2.9857
  792MOL0     H 4504   8.568   6.897   5.201  1.5396 -0.5082  0.8411
  792MOL0     H 4505   8.629   7.058   5.260 -0.6006 -1.0073  0.9754
  792MOL0     H 4506   8.649   7.266   5.224 -3.7636  1.1264 -1.0934
  792MOL0     H 4507   8.794   7.435   5.167  1.0117  1.6950 -2.4358
  792MOL0     H 4508   9.199   7.662   5.130  0.3186 -0.0224  1.0132
  792MOL0     H 4509   9.256   7.903   5.092 -1.5724  3.0024 -0.5351
  792MOL0     H 4510   9.198   8.113   4.791 -0.9738  0.6017  0.5457
  792MOL0     H 4511   9.311   8.046   4.924  0.1007 -0.1065 -0.5174
  792MOL0     H 4512   9.182   8.318   4.898  0.1910 -0.0514  0.2447
  792MOL0     H 4513   9.354   8.260   4.856  4.7124 -1.1603  5.2428
  792MOL0     H 4514   9.410   8.217   5.079  0.8463 -0.0283 -0.8236
  792MOL0     H 4515   9.240   8.258   5.120  1.2793 -2.5141 -0.8658
  792MOL0     H 4516   9.292   8.503   5.030  1.4593  0.3608 -3.5898
  792MOL0     H 4517   9.378   8.460   5.180  1.0656  3.4464 -0.3116
  792MOL0     H 4518   9.549   8.571   5.001  2.6189 -1.1668 -5.1839
  792MOL0     H 4519   9.511   8.442   4.895  2.4145 -0.7346  0.6912
  792MOL0     H 4520   9.602   8.303   5.095  1.5867 -1.2861 -0.0181
  792MOL0     H 4521   9.653   8.441   5.170 -1.9155  1.2260 -0.0908
  792MOL0     H 4522   9.737   8.345   4.891 -1.3723  0.1638  0.0325
  792MOL0     H 4523   9.806   8.497   4.942  1.9991 -0.3199  2.6687
  792MOL0     H 4524   9.820   8.235   5.089 -0.3164  0.8933 -1.0145
  792MOL0     H 4525   9.914   8.390   5.133 -3.0325  1.0314  1.9303
  792MOL0     H 4526   8.905   7.967   4.870  0.1987 -0.1872  1.1878
  792MOL0     H 4527   8.854   7.748   4.865 -1.0265  1.5249  0.3418
  792MOL0     H 4528   8.894   7.259   4.793  2.5397 -2.7784  1.5427
  792MOL0     H 4529   8.700   7.095   4.825  0.0227 -0.1687  0.0048
  792MOL0     H 4530   7.138   6.167   5.308 -0.6265  1.2844  0.1914
  792MOL0     H 4531   7.126   5.949   5.156 -0.2914  0.9616  0.3787
  792MOL0     H 4532   7.100   5.706   4.862  0.2816  2.8449 -2.3659
  792MOL0     H 4533   7.016   5.496   4.759  0.6403  0.8783 -4.8830
  792MOL0     H 4534   6.667   5.309   4.601 -0.2764 -0.5331  0.5930
  792MOL0     H 4535   6.597   5.474   4.608 -0.6866 -0.6761 -1.0089
  792MOL0     H 4536   6.633   5.300   4.863 -3.0017 -1.2703  0.8630
  792MOL0     H 4537   6.588   5.462   4.853 -1.4750  0.4718 -1.0011
  792MOL0     H 4538   6.434   5.235   4.703  1.0671  0.5059 -0.8593
  792MOL0     H 4539   6.391   5.407   4.717 -1.9425 -1.7144 -1.3675
  792MOL0     H 4540   6.462   5.209   4.944 -1.6703 -0.8839  1.1308
  792MOL0     H 4541   6.371   5.370   4.955  0.2734  1.4544 -2.1980
  792MOL0     H 4542   6.052   5.122   4.842 -0.3274 -0.3399  0.7097
  792MOL0     H 4543   6.618   5.668   4.735 -0.4018 -0.1527  1.7037
  792MOL0     H 4544   6.712   5.880   4.799  0.1237 -1.0521  1.2253
  793MOL0     O 4545   2.449  10.147   6.915  0.8526 -0.4871 -0.0695
  793MOL0     C 4546   2.476  10.092   7.024  0.6391  0.3631  0.1194
  793MOL0     O 4547   2.411  10.107   7.147 -0.0493  0.1195 -0.2107
  793MOL0     C 4548   2.291  10.170   7.142 -0.3684 -0.3578 -0.1785
  793MOL0     C 4549   2.177  10.094   7.145  0.4837 -0.8151  0.2453
  793MOL0     C 4550   2.049  10.152   7.155  0.1889 -1.2893  1.0173
  793MOL0     C 4551   2.034  10.290   7.177 -0.6229 -0.2097  0.0388
  793MOL0     O 4552   1.917  10.360   7.193  0.9599 -0.2732  0.2667
  793MOL0     C 4553   1.783  10.303   7.180  0.3991 -0.4141 -0.5774
  793MOL0     C 4554   1.686  10.407   7.127  0.4252 -0.5093  0.1646
  793MOL0     C 4555   1.727  10.450   6.984  0.5704  0.2760  1.0427
  793MOL0     C 4556   1.738  10.338   6.881  0.6832 -0.2400  0.0968
  793MOL0     C 4557   1.740  10.382   6.732  0.0190  1.1834  0.0438
  793MOL0     C 4558   1.600  10.417   6.683  0.7056  0.6662  1.1764
  793MOL0     C 4559   1.587  10.451   6.535  0.3317  0.1265 -0.1528
  793MOL0     C 4560   1.450  10.482   6.490  0.6494  1.2107 -0.1626
  793MOL0     N 4561   1.439  10.560   6.363 -0.2368  0.4941  0.2375
  793MOL0     C 4562   1.496  10.685   6.351  0.2829 -0.6173  0.0219
  793MOL0     C 4563   1.532  10.677   6.212 -0.9897  0.1296 -0.5929
  793MOL0     C 4564   1.612  10.785   6.136  0.6862 -0.0018  0.0200
  793MOL0     C 4565   1.514  10.889   6.082  0.0935  0.3519 -0.0068
  793MOL0     C 4566   1.585  10.987   5.994  0.0614 -0.4397 -0.9044
  793MOL0     C 4567   1.499  11.104   5.975  0.0901  0.0424 -0.1576
  793MOL0     O 4568   1.495  11.188   6.086  0.1748 -0.4531 -0.0403
  793MOL0     C 4569   1.480  11.325   6.076 -0.2445  0.7870  0.7113
  793MOL0     C 4570   1.509  11.404   6.186 -1.4075 -0.7167 -0.5046
  793MOL0     C 4571   1.493  11.539   6.178 -0.1264 -0.3230 -0.0530
  793MOL0     C 4572   1.427  11.604   6.070  0.5770  0.6513 -0.3724
  793MOL0     C 4573   1.402  11.750   6.080  0.2493 -0.7111 -0.0001
  793MOL0     O 4574   1.431  11.809   6.197  0.4318  0.2085 -0.2927
  793MOL0     C 4575   1.438  11.945   6.208 -0.3048  0.3382 -0.0924
  793MOL0     C 4576   1.332  12.023   6.259  0.5223  0.5884 -0.2180
  793MOL0     C 4577   1.325  12.156   6.254 -0.1291 -0.6348  0.1709
  793MOL0     C 4578   1.434  12.227   6.198 -0.1874  0.3119  0.3219
  793MOL0     O 4579   1.450  12.357   6.168  0.1339 -0.5616  0.5786
  793MOL0     C 4580   1.359  12.451   6.246 -0.2518 -0.7223  0.9334
  793MOL0     C 4581   1.374  12.588   6.186 -0.0541 -1.1410  0.0324
  793MOL0     C 4582   1.508  12.654   6.184 -0.3183  0.3016 -0.4759
  793MOL0     C 4583   1.492  12.780   6.115  0.4365  0.1796 -0.1852
  793MOL0     C 4584   1.633  12.829   6.068  0.5173 -0.1863 -0.0115
  793MOL0     C 4585   1.644  12.976   5.999  1.5430 -0.1397  0.2093
  793MOL0     C 4586   1.792  13.021   5.980  1.2406  0.3384  0.5676
  793MOL0     C 4587   1.798  13.152   5.910  0.0179  0.2924  0.5478
  793MOL0    Cl 4588   1.977  13.211   5.911 -0.0403  0.1826 -0.0030
  793MOL0     C 4589   1.545  12.149   6.169  0.0978  0.3934  0.0554
  793MOL0     C 4590   1.557  12.014   6.166 -0.0240 -0.4224 -0.1602
  793MOL0     O 4591   1.352  11.809   5.986 -0.3692  0.1784  0.5076
  793MOL0     C 4592   1.385  11.532   5.962  0.3656  0.1883  1.2013
  793MOL0     C 4593   1.411  11.390   5.968  0.0256 -0.6856 -0.3216
  793MOL0     N 4594   1.492  10.555   6.151  0.0329  0.2111  0.0731
  793MOL0     N 4595   1.422  10.493   6.246  0.0817  0.6105 -0.0070
  793MOL0     C 4596   2.145  10.370   7.170 -0.1085  0.4552  0.4620
  793MOL0     C 4597   2.275  10.311   7.148 -0.2424 -0.4383  0.9260
  793MOL0     C 4598   2.594  10.008   7.037 -0.2165 -0.0205  0.9105
  793MOL0     C 4599   2.673   9.991   6.928 -0.5926 -0.5057  0.5259
  793MOL0     C 4600   2.788   9.910   6.933  0.2484  0.1185 -0.4914
  793MOL0     C 4601   2.820   9.843   7.059  0.6213 -0.6395  0.2332
  793MOL0     O 4602   2.935   9.767   7.078 -0.6170  0.0959  0.0482
  793MOL0     C 4603   3.042   9.761   6.980 -0.0649 -0.0059  0.1788
  793MOL0     C 4604   3.132   9.650   7.025  0.0583  0.0903  0.3122
  793MOL0     C 4605   3.248   9.630   6.924  0.6731  0.7554 -0.4216
  793MOL0     C 4606   3.336   9.493   6.943 -0.1688  0.0715  0.4012
  793MOL0     C 4607   3.417   9.451   6.827  0.4379  1.4087 -0.7600
  793MOL0     C 4608   3.496   9.418   6.742 -0.8278  0.5480 -0.9370
  793MOL0     C 4609   2.728   9.855   7.167 -0.0416  0.3258 -1.2161
  793MOL0     C 4610   2.618   9.930   7.161 -0.2005 -0.4193 -0.0823
  793MOL0     H 4611   2.194   9.988   7.162  3.4800 -0.3036  1.0996
  793MOL0     H 4612   1.974  10.075   7.167  1.1605 -2.4362  0.0798
  793MOL0     H 4613   1.739  10.278   7.276 -3.3742  2.5106 -1.3205
  793MOL0     H 4614   1.787  10.218   7.111 -2.4714 -1.6847  0.6448
  793MOL0     H 4615   1.679  10.500   7.184 -4.4759 -0.9641  0.7246
  793MOL0     H 4616   1.583  10.371   7.127 -0.5214  1.9651 -0.3980
  793MOL0     H 4617   1.825  10.499   6.978  0.5946  0.2602  1.2975
  793MOL0     H 4618   1.647  10.519   6.953  0.5617  0.9755  2.5128
  793MOL0     H 4619   1.833  10.289   6.905 -0.0195 -1.9766 -0.5462
  793MOL0     H 4620   1.659  10.263   6.884 -1.6069  1.9728 -1.0262
  793MOL0     H 4621   1.789  10.307   6.669 -0.2182  0.3648  0.8117
  793MOL0     H 4622   1.794  10.477   6.726 -1.3872  2.1176  1.4621
  793MOL0     H 4623   1.552  10.500   6.736  0.2381  2.0623 -1.2525
  793MOL0     H 4624   1.544  10.327   6.709  3.2409 -1.0219  1.1601
  793MOL0     H 4625   1.651  10.539   6.523  1.1827 -0.3573  0.6798
  793MOL0     H 4626   1.637  10.378   6.470  0.4006  1.5650 -1.7949
  793MOL0     H 4627   1.398  10.541   6.566 -1.4423 -0.6377 -0.0348
  793MOL0     H 4628   1.385  10.393   6.487  1.8662  0.2678  0.5189
  793MOL0     H 4629   1.512  10.758   6.429 -0.7009  0.2176 -0.5311
  793MOL0     H 4630   1.641  10.732   6.045  2.6264  2.2659 -0.7972
  793MOL0     H 4631   1.698  10.822   6.193 -1.5563  3.3463  1.5241
  793MOL0     H 4632   1.481  10.941   6.173  0.8371  1.3502 -0.2966
  793MOL0     H 4633   1.429  10.839   6.036 -0.0851  0.9954 -0.3899
  793MOL0     H 4634   1.676  11.010   6.049 -0.4351  0.4819 -0.4315
  793MOL0     H 4635   1.625  10.952   5.898  0.4880  0.6889 -1.1553
  793MOL0     H 4636   1.395  11.070   5.970  0.6554 -1.8832  0.5300
  793MOL0     H 4637   1.533  11.167   5.892 -0.8818  2.3047  1.0559
  793MOL0     H 4638   1.557  11.358   6.272 -2.1795  0.6230  0.6652
  793MOL0     H 4639   1.515  11.596   6.268 -2.5684 -2.2825  1.9039
  793MOL0     H 4640   1.244  11.966   6.284  1.6490 -0.6613  1.1188
  793MOL0     H 4641   1.239  12.203   6.301 -3.0458 -4.5313 -0.7005
  793MOL0     H 4642   1.386  12.449   6.352  3.5335  0.0395  0.1304
  793MOL0     H 4643   1.258  12.409   6.237 -1.0550  1.4736 -1.5078
  793MOL0     H 4644   1.307  12.656   6.241  1.1239  0.4938 -0.4833
  793MOL0     H 4645   1.336  12.576   6.084 -2.2073  2.4600  0.2332
  793MOL0     H 4646   1.582  12.582   6.147 -2.2814 -1.8660 -0.3820
  793MOL0     H 4647   1.536  12.672   6.288  0.0806  0.3033 -0.5798
  793MOL0     H 4648   1.425  12.781   6.029 -0.0743  1.6080  0.1894
  793MOL0     H 4649   1.437  12.850   6.179 -0.1230  2.0209 -2.5466
  793MOL0     H 4650   1.678  12.754   6.001 -1.5917 -3.7542  2.2223
  793MOL0     H 4651   1.698  12.829   6.156  1.1468  2.3982 -0.4072
  793MOL0     H 4652   1.586  13.044   6.062  0.9863 -1.9694  1.7828
  793MOL0     H 4653   1.587  12.970   5.906  0.9263  1.7373  0.4264
  793MOL0     H 4654   1.857  13.006   6.066  2.0925 -4.2463 -0.5942
  793MOL0     H 4655   1.821  12.940   5.912 -0.1397 -0.4852  0.9051
  793MOL0     H 4656   1.742  13.237   5.951  2.7395  2.8660 -0.6418
  793MOL0     H 4657   1.765  13.140   5.807 -0.3879 -1.7396  0.8824
  793MOL0     H 4658   1.630  12.205   6.132  1.0552 -2.1133 -1.8409
  793MOL0     H 4659   1.646  11.969   6.124 -0.0854 -0.0870 -0.6624
  793MOL0     H 4660   1.332  11.590   5.887  0.0242  2.3495  3.0177
  793MOL0     H 4661   1.388  11.321   5.887  0.5169  1.6133 -2.5408
  793MOL0     H 4662   2.156  10.477   7.184  1.2793  0.2934  0.7643
  793MOL0     H 4663   2.363  10.376   7.149 -0.0670 -0.6717  0.8273
  793MOL0     H 4664   2.644  10.041   6.836 -3.1166  3.9233  3.3654
  793MOL0     H 4665   2.842   9.889   6.841  1.7469 -1.2201  0.6297
  793MOL0     H 4666   3.093   9.857   6.968 -1.9875  1.0204 -0.2789
  793MOL0     H 4667   3.001   9.740   6.881 -0.1643  0.7310  0.0613
  793MOL0     H 4668   3.171   9.683   7.122 -1.1525  0.8213  0.5673
  793MOL0     H 4669   3.092   9.550   7.044  1.1613  0.0460  2.9514
  793MOL0     H 4670   3.322   9.711   6.929  3.9936 -2.0691  0.9140
  793MOL0     H 4671   3.197   9.615   6.829 -1.3737 -2.7269  1.0159
  793MOL0     H 4672   3.390   9.498   7.038  0.5324 -1.1275  0.0826
  793MOL0     H 4673   3.257   9.419   6.959 -1.2462  0.6455 -1.7793
  793MOL0     H 4674   3.564   9.388   6.665 -0.2697  1.0708 -0.6526
  793MOL0     H 4675   2.750   9.811   7.264 -2.4136  1.3795 -0.1165
  793MOL0     H 4676   2.539   9.918   7.235  2.9014 -0.5731  3.4660
  794MOL0     O 4677   3.387   4.839   9.639  0.4591 -0.0391  0.2592
  794MOL0     C 4678   3.434   4.777   9.542  0.0128 -0.1196 -0.7894
  794MOL0     O 4679   3.466   4.646   9.538 -0.8230  0.3288 -0.8256
  794MOL0     C 4680   3.459   4.564   9.642  0.4185  0.2706 -0.9227
  794MOL0     C 4681   3.571   4.484   9.685 -0.7343 -0.6839  0.4194
  794MOL0     C 4682   3.570   4.405   9.797  0.2152  0.0598  0.5668
  794MOL0     C 4683   3.454   4.382   9.869  0.8328 -0.2779  0.5277
  794MOL0     O 4684   3.458   4.293   9.964  0.2124  0.9863 -0.3371
  794MOL0     C 4685   3.340   4.262  10.039 -0.4543  0.0445 -0.4113
  794MOL0     C 4686   3.354   4.161  10.152  0.1127  0.5339 -0.1475
  794MOL0     C 4687   3.230   4.180  10.245  0.1160 -0.4273 -0.3956
  794MOL0     C 4688   3.219   4.062  10.352  0.5938  1.2074  0.0052
  794MOL0     C 4689   3.077   4.047  10.421 -0.1738 -0.7868 -0.0888
  794MOL0     C 4690   2.953   4.024  10.335  0.1921  0.5002  1.0878
  794MOL0     C 4691   2.820   4.056  10.409 -0.7222 -1.2032  0.6218
  794MOL0     C 4692   2.795   3.967  10.539 -0.9469  0.5674  1.0043
  794MOL0     N 4693   2.641   3.937  10.537 -0.0956  0.0237  0.2207
  794MOL0     C 4694   2.576   3.821  10.501 -0.5042  0.4016 -0.4246
  794MOL0     C 4695   2.445   3.839  10.490  0.3576  0.3709  0.6604
  794MOL0     C 4696   2.340   3.724  10.459 -0.5947  0.0999  0.5907
  794MOL0     C 4697   2.211   3.768  10.387  0.1000 -0.0531 -0.7300
  794MOL0     C 4698   2.135   3.648  10.314 -0.8507  0.1865 -0.5487
  794MOL0     C 4699   2.154   3.647  10.162 -0.5556  0.1177 -0.2543
  794MOL0     O 4700   2.100   3.775  10.107  0.2966 -1.3324 -0.2772
  794MOL0     C 4701   2.090   3.781   9.968  0.3934  0.0675  0.2896
  794MOL0     C 4702   2.168   3.696   9.888  0.3013  1.0423  0.7230
  794MOL0     C 4703   2.145   3.695   9.751 -0.1895  0.5748  0.2750
  794MOL0     C 4704   2.045   3.790   9.704 -0.0845  0.5665  0.3694
  794MOL0     C 4705   2.029   3.788   9.556  0.5546  0.1841  0.5733
  794MOL0     O 4706   1.958   3.890   9.509 -0.2404 -0.1822  0.4743
  794MOL0     C 4707   1.945   3.918   9.374 -0.0719 -0.6163 -0.4680
  794MOL0     C 4708   2.030   4.014   9.325  0.4315 -0.9311 -0.0410
  794MOL0     C 4709   2.025   4.038   9.186  0.4757  0.4331  0.5775
  794MOL0     C 4710   1.940   3.958   9.102 -0.2465  0.0781 -0.2243
  794MOL0     O 4711   1.929   3.963   8.969 -0.0184  0.5132  0.2610
  794MOL0     C 4712   1.986   4.072   8.895 -0.7772 -1.4223 -1.0900
  794MOL0     C 4713   1.917   4.099   8.759  0.2628  0.6480  0.0740
  794MOL0     C 4714   2.002   4.131   8.638 -0.9022 -0.0871  1.0579
  794MOL0     C 4715   2.017   4.009   8.550 -0.5906 -0.8805  0.6348
  794MOL0     C 4716   2.049   4.038   8.407  0.6725  0.0962  0.0636
  794MOL0     C 4717   2.188   4.096   8.381 -0.3317  0.2018 -0.1092
  794MOL0     C 4718   2.209   4.132   8.234  0.3958  0.4361  0.0126
  794MOL0     C 4719   2.350   4.099   8.195  0.4607 -0.5196  0.4389
  794MOL0    Cl 4720   2.361   4.130   8.026  0.0185 -0.3035 -0.3592
  794MOL0     C 4721   1.866   3.861   9.158  0.4848  0.6056  0.0789
  794MOL0     C 4722   1.873   3.838   9.291  0.3889  0.2206  0.8507
  794MOL0     O 4723   2.064   3.686   9.495 -0.4418 -0.2160 -0.2946
  794MOL0     C 4724   1.986   3.889   9.782 -0.3011 -0.1253 -0.2748
  794MOL0     C 4725   2.009   3.885   9.918  0.2899  1.0160  0.5177
  794MOL0     N 4726   2.427   3.975  10.500  0.5753 -0.0999 -0.3807
  794MOL0     N 4727   2.541   4.030  10.526  0.4030 -0.2674  0.7229
  794MOL0     C 4728   3.337   4.448   9.820  0.5953  1.0513  0.6794
  794MOL0     C 4729   3.341   4.540   9.713 -0.3154 -0.9229  0.9753
  794MOL0     C 4730   3.452   4.846   9.405  0.3373  0.4641  0.2778
  794MOL0     C 4731   3.491   4.770   9.294 -0.5073 -1.5057  0.6935
  794MOL0     C 4732   3.507   4.823   9.160  0.1885 -0.5341  0.3593
  794MOL0     C 4733   3.483   4.960   9.143  0.5662 -0.2488  0.2370
  794MOL0     O 4734   3.514   5.021   9.028  1.3572 -0.1164  0.5120
  794MOL0     C 4735   3.637   5.086   9.039  0.0895 -1.0258  0.4406
  794MOL0     C 4736   3.631   5.186   8.919  0.8518  0.7713 -1.2538
  794MOL0     C 4737   3.510   5.290   8.935 -0.4338  0.1507  0.1235
  794MOL0     C 4738   3.553   5.399   9.037 -0.7997  0.8083  0.3145
  794MOL0     C 4739   3.640   5.493   8.983 -0.6794 -0.1787  0.5513
  794MOL0     C 4740   3.709   5.592   8.970  0.6629 -0.4342  0.1985
  794MOL0     C 4741   3.437   5.040   9.251 -0.2390 -0.4941 -0.9356
  794MOL0     C 4742   3.423   4.981   9.379 -0.2373 -0.3225 -0.6807
  794MOL0     H 4743   3.667   4.481   9.635 -1.0581 -1.4533 -0.1991
  794MOL0     H 4744   3.657   4.345   9.820  3.3368  3.3553 -1.5697
  794MOL0     H 4745   3.252   4.238   9.978  0.7385  0.0708 -2.2285
  794MOL0     H 4746   3.312   4.357  10.084 -1.5142  0.1413 -1.2237
  794MOL0     H 4747   3.445   4.178  10.210 -0.2444  3.9683 -0.3422
  794MOL0     H 4748   3.358   4.062  10.107 -0.3054  2.1135 -4.1354
  794MOL0     H 4749   3.146   4.190  10.175 -0.3206  2.3710  0.3933
  794MOL0     H 4750   3.233   4.271  10.305  2.6633 -0.9341  0.3268
  794MOL0     H 4751   3.246   3.964  10.312  0.4456  1.3162 -0.3664
  794MOL0     H 4752   3.286   4.104  10.428  1.1385 -0.4415  0.4714
  794MOL0     H 4753   3.056   4.140  10.474  0.8497  1.0448 -2.6921
  794MOL0     H 4754   3.088   3.972  10.500  0.2246  2.1201  2.8320
  794MOL0     H 4755   2.951   3.924  10.290 -1.7186  1.2679 -0.6929
  794MOL0     H 4756   2.951   4.101  10.257  1.1233 -0.2455  0.2998
  794MOL0     H 4757   2.824   4.164  10.425 -0.7272 -0.3111 -3.9089
  794MOL0     H 4758   2.741   4.032  10.337  0.5861 -3.5356 -0.1242
  794MOL0     H 4759   2.834   4.019  10.627  1.7721 -1.9875  1.4353
  794MOL0     H 4760   2.847   3.874  10.517 -2.1363  0.1344 -0.0950
  794MOL0     H 4761   2.637   3.731  10.498  0.3388  0.9308  0.4766
  794MOL0     H 4762   2.317   3.668  10.550  1.1637  0.1639  1.1246
  794MOL0     H 4763   2.393   3.662  10.386 -1.4381  1.6426 -1.4500
  794MOL0     H 4764   2.243   3.842  10.314 -0.0375 -0.7677 -1.5312
  794MOL0     H 4765   2.144   3.816  10.459 -0.6441 -3.2681  0.8971
  794MOL0     H 4766   2.175   3.553  10.350  0.5702  1.8775  2.8839
  794MOL0     H 4767   2.039   3.648  10.366 -0.0999  1.4501  0.9280
  794MOL0     H 4768   2.103   3.563  10.115 -0.3855  0.5941 -1.3238
  794MOL0     H 4769   2.262   3.636  10.148 -0.0656 -1.5286  3.6362
  794MOL0     H 4770   2.236   3.629   9.940 -0.6934  1.5171  2.7604
  794MOL0     H 4771   2.195   3.629   9.680 -0.1664  1.7300 -0.8135
  794MOL0     H 4772   2.086   4.063   9.404  1.1588 -0.6440 -0.7228
  794MOL0     H 4773   2.097   4.099   9.132 -0.4437 -1.9871 -3.8563
  794MOL0     H 4774   2.086   4.030   8.878 -0.6067 -1.1515 -0.7584
  794MOL0     H 4775   1.983   4.164   8.954  1.1296 -0.0035 -3.0627
  794MOL0     H 4776   1.841   4.178   8.764  1.1545  1.6353 -1.2111
  794MOL0     H 4777   1.854   4.010   8.755  2.9726 -1.4666  0.7944
  794MOL0     H 4778   2.095   4.161   8.686 -1.4797  1.0187  1.5246
  794MOL0     H 4779   1.944   4.201   8.577 -0.8805 -3.0695 -2.7611
  794MOL0     H 4780   2.106   3.950   8.576  1.7760  2.1143 -0.0988
  794MOL0     H 4781   1.927   3.947   8.554  1.2067 -3.6120  1.2296
  794MOL0     H 4782   1.967   4.103   8.374 -1.2521 -2.1820  0.1010
  794MOL0     H 4783   2.049   3.944   8.352  4.1515  0.8719 -1.4807
  794MOL0     H 4784   2.264   4.028   8.421  0.7087  1.8704  0.8700
  794MOL0     H 4785   2.202   4.191   8.434  1.3342  2.1623 -3.6675
  794MOL0     H 4786   2.146   4.069   8.170  0.8557  2.3947 -2.4965
  794MOL0     H 4787   2.179   4.235   8.215 -2.3626 -0.3755 -0.5404
  794MOL0     H 4788   2.367   3.993   8.213  0.2431 -1.3010 -3.1469
  794MOL0     H 4789   2.418   4.161   8.254  1.9414  0.2943 -1.9699
  794MOL0     H 4790   1.807   3.799   9.092 -0.5735  2.6549 -0.9920
  794MOL0     H 4791   1.803   3.767   9.335 -2.0362  0.7415 -1.8189
  794MOL0     H 4792   1.917   3.969   9.758  0.8150  1.9331  2.7150
  794MOL0     H 4793   1.971   3.961   9.986  4.8466  1.1316  3.3567
  794MOL0     H 4794   3.241   4.431   9.868  1.2714 -1.4457  1.3172
  794MOL0     H 4795   3.246   4.574   9.673  0.8104  1.4291  0.1504
  794MOL0     H 4796   3.528   4.669   9.309  1.1355 -1.1713 -0.7026
  794MOL0     H 4797   3.536   4.769   9.070 -2.2106  0.2206 -0.9618
  794MOL0     H 4798   3.713   5.010   9.016  1.6859  1.3152 -2.6725
  794MOL0     H 4799   3.656   5.140   9.132  0.1188  1.8140 -1.0933
  794MOL0     H 4800   3.727   5.236   8.903  1.1748  0.9801  1.0235
  794MOL0     H 4801   3.601   5.116   8.841  2.3263  0.5786 -1.6767
  794MOL0     H 4802   3.415   5.239   8.954 -0.6547  0.3997 -0.3020
  794MOL0     H 4803   3.493   5.340   8.839  0.2948 -3.8736 -2.2996
  794MOL0     H 4804   3.460   5.449   9.069 -0.6820  1.9566 -1.0606
  794MOL0     H 4805   3.599   5.363   9.130 -1.8328  0.2991  0.6410
  794MOL0     H 4806   3.741   5.691   8.945 -2.4421  0.6898  0.3220
  794MOL0     H 4807   3.409   5.145   9.245 -2.4247 -1.0600 -1.7832
  794MOL0     H 4808   3.396   5.050   9.458  0.0217 -0.2225 -0.6756
  795MOL0     O 4809  10.533   7.031   2.746 -0.3025  0.6932  0.4011
  795MOL0     C 4810  10.557   7.118   2.832 -0.0936 -0.2121  0.6309
  795MOL0     O 4811  10.476   7.213   2.874  0.3217 -0.5257  0.0802
  795MOL0     C 4812  10.350   7.215   2.826 -0.6158 -0.8889  0.0787
  795MOL0     C 4813  10.250   7.222   2.916  0.1874 -0.3533  0.1860
  795MOL0     C 4814  10.118   7.223   2.862  0.5038 -0.2138 -0.0075
  795MOL0     C 4815  10.094   7.205   2.722 -0.8814  0.6603 -0.1420
  795MOL0     O 4816   9.963   7.223   2.679  0.2246 -0.5550 -0.0892
  795MOL0     C 4817   9.923   7.139   2.575 -0.5729 -0.3223 -0.2007
  795MOL0     C 4818   9.774   7.167   2.540 -1.3141  0.7251  0.2983
  795MOL0     C 4819   9.750   7.131   2.396  0.0271  0.4139 -0.2867
  795MOL0     C 4820   9.594   7.145   2.356 -0.0317 -0.5015 -0.3254
  795MOL0     C 4821   9.561   7.111   2.212 -0.1441  0.0103 -0.4015
  795MOL0     C 4822   9.651   7.201   2.116  0.4765  0.1107 -0.2080
  795MOL0     C 4823   9.609   7.190   1.962 -0.0712  0.0960  0.1313
  795MOL0     C 4824   9.502   7.295   1.935 -0.2367  0.1099  0.0694
  795MOL0     N 4825   9.475   7.320   1.791 -0.2937  0.0012  0.9359
  795MOL0     C 4826   9.478   7.228   1.687 -0.4382 -0.5070 -0.0111
  795MOL0     C 4827   9.453   7.288   1.576 -0.5605  0.1338  0.3302
  795MOL0     C 4828   9.464   7.237   1.435  1.3073 -0.5685 -1.3168
  795MOL0     C 4829   9.474   7.079   1.418  0.1147  0.7756  0.1743
  795MOL0     C 4830   9.351   7.005   1.489  0.6103 -0.5151 -0.4985
  795MOL0     C 4831   9.221   7.049   1.422  1.4223  0.3725  0.2219
  795MOL0     O 4832   9.100   6.994   1.486  0.4270 -0.3452  0.2665
  795MOL0     C 4833   9.074   6.872   1.442 -0.6214  0.8183  0.5085
  795MOL0     C 4834   8.983   6.804   1.529 -0.4307  0.4412  0.6648
  795MOL0     C 4835   8.912   6.694   1.482  0.0681  0.2284  0.5061
  795MOL0     C 4836   8.948   6.627   1.373 -0.6002  0.6484  0.5391
  795MOL0     C 4837   8.898   6.495   1.339  0.0325  0.0400 -0.0540
  795MOL0     O 4838   8.951   6.428   1.238  0.0575 -0.2043  0.4796
  795MOL0     C 4839   8.898   6.318   1.178  0.2791 -0.2871  1.2131
  795MOL0     C 4840   8.996   6.210   1.150  0.4896  0.3288  0.9712
  795MOL0     C 4841   8.950   6.098   1.071  0.6228  0.1810 -0.3196
  795MOL0     C 4842   8.826   6.097   1.016  0.6640  0.8628  0.3908
  795MOL0     O 4843   8.802   5.982   0.940  0.2670 -0.1379  0.0373
  795MOL0     C 4844   8.664   5.976   0.883  0.6940 -0.0641  0.2151
  795MOL0     C 4845   8.652   5.840   0.817  0.3514  0.0265 -0.3440
  795MOL0     C 4846   8.520   5.811   0.744  0.2847 -0.1760 -0.7175
  795MOL0     C 4847   8.389   5.886   0.777  0.9067 -0.2463 -0.2177
  795MOL0     C 4848   8.312   5.815   0.893  0.3264 -0.0796  0.2168
  795MOL0     C 4849   8.370   5.825   1.032  0.6207  0.8208 -0.9855
  795MOL0     C 4850   8.320   5.958   1.099 -0.4612  0.5291 -0.7717
  795MOL0     C 4851   8.335   5.963   1.254  1.0726  0.4818  0.4764
  795MOL0    Cl 4852   8.369   6.134   1.295  0.2304 -0.3095  0.1281
  795MOL0     C 4853   8.739   6.200   1.032 -0.8060 -0.2496 -0.2317
  795MOL0     C 4854   8.768   6.313   1.114  0.3885  0.6577  0.9065
  795MOL0     O 4855   8.794   6.459   1.401 -0.5307  0.4181  0.4705
  795MOL0     C 4856   9.044   6.689   1.291  0.9815 -0.2884 -0.6948
  795MOL0     C 4857   9.106   6.807   1.319  0.1751  0.8632 -0.1133
  795MOL0     N 4858   9.431   7.420   1.604 -0.3279  0.1594 -0.1294
  795MOL0     N 4859   9.441   7.442   1.730  0.0865 -0.2653 -0.2502
  795MOL0     C 4860  10.201   7.208   2.639 -0.2800 -0.1772 -0.1608
  795MOL0     C 4861  10.338   7.221   2.684  0.4011  0.7651 -0.3524
  795MOL0     C 4862  10.692   7.126   2.890 -0.4106  0.0626 -0.6635
  795MOL0     C 4863  10.711   7.236   2.977 -0.9351  1.0204  0.3488
  795MOL0     C 4864  10.830   7.232   3.063 -0.0923  0.7007 -0.8653
  795MOL0     C 4865  10.926   7.136   3.048 -0.5030  0.1213 -0.3237
  795MOL0     O 4866  11.039   7.133   3.128 -0.1171 -0.1287 -0.1182
  795MOL0     C 4867  11.142   7.222   3.091 -1.0854  0.6397 -0.1668
  795MOL0     C 4868  11.266   7.210   3.178 -0.1671 -1.2511 -0.3308
  795MOL0     C 4869  11.230   7.229   3.327 -0.4589  0.6639  0.1007
  795MOL0     C 4870  11.356   7.201   3.402 -0.4962  0.3426 -0.9925
  795MOL0     C 4871  11.357   7.276   3.529  0.8287  1.0012  1.2116
  795MOL0     C 4872  11.365   7.341   3.634  0.8403  1.0555  0.2559
  795MOL0     C 4873  10.910   7.037   2.949 -0.5619  0.1244  0.2404
  795MOL0     C 4874  10.797   7.037   2.859 -0.0930  1.1798  0.3220
  795MOL0     H 4875  10.262   7.221   3.024  1.2518  0.2970  0.0875
  795MOL0     H 4876  10.035   7.238   2.931  0.8966 -0.5581  0.5475
  795MOL0     H 4877   9.927   7.032   2.596 -0.8413 -0.3858 -0.4680
  795MOL0     H 4878   9.993   7.168   2.496  0.5383  1.8360  1.4707
  795MOL0     H 4879   9.753   7.274   2.549  1.8126  1.4431 -0.0182
  795MOL0     H 4880   9.707   7.118   2.612 -1.1931  2.5707  1.7485
  795MOL0     H 4881   9.794   7.033   2.373  0.4051  0.5872 -0.3260
  795MOL0     H 4882   9.817   7.197   2.340  1.6632 -0.6159  0.3719
  795MOL0     H 4883   9.531   7.084   2.420 -2.7960  0.8620 -1.5397
  795MOL0     H 4884   9.562   7.248   2.377 -2.6492 -0.7622 -2.5255
  795MOL0     H 4885   9.453   7.120   2.198 -0.4374  0.9357  1.8938
  795MOL0     H 4886   9.595   7.008   2.198  1.9980  0.4757  0.8345
  795MOL0     H 4887   9.755   7.167   2.118  0.5174  0.2667  1.0296
  795MOL0     H 4888   9.660   7.306   2.143 -0.0144 -0.0239  0.5196
  795MOL0     H 4889   9.696   7.218   1.902 -0.8463  0.8543 -0.6736
  795MOL0     H 4890   9.580   7.087   1.940  0.3778  0.0221 -0.1232
  795MOL0     H 4891   9.522   7.393   1.979 -3.2411  1.6434 -1.6568
  795MOL0     H 4892   9.411   7.260   1.985 -0.9312  1.7414 -0.0098
  795MOL0     H 4893   9.515   7.125   1.689 -1.2246 -0.7844  0.8235
  795MOL0     H 4894   9.551   7.285   1.390  0.7495  0.2468 -1.5460
  795MOL0     H 4895   9.376   7.274   1.382 -1.3549 -3.0370  0.9975
  795MOL0     H 4896   9.568   7.038   1.456  0.7609  1.3403 -0.7842
  795MOL0     H 4897   9.473   7.054   1.312 -0.0735  2.4064 -0.2338
  795MOL0     H 4898   9.370   6.897   1.490  0.6676 -0.5168 -1.1819
  795MOL0     H 4899   9.346   7.034   1.594  2.3645  2.9977 -1.2535
  795MOL0     H 4900   9.235   7.020   1.318  0.7785 -1.3843  0.5882
  795MOL0     H 4901   9.211   7.158   1.414 -0.4058  0.1154 -1.8070
  795MOL0     H 4902   8.955   6.849   1.623 -1.6326  0.6740  0.2188
  795MOL0     H 4903   8.836   6.644   1.543 -1.0883  1.6738  0.3093
  795MOL0     H 4904   9.102   6.201   1.175  0.6824  0.5047  0.2345
  795MOL0     H 4905   9.024   6.019   1.061  0.9821  0.3501  0.8039
  795MOL0     H 4906   8.644   6.053   0.808 -2.9026  3.5057  4.2436
  795MOL0     H 4907   8.585   5.991   0.958 -1.2445  1.8752 -2.0334
  795MOL0     H 4908   8.649   5.775   0.904 -4.7179  0.5365  0.1681
  795MOL0     H 4909   8.732   5.819   0.746  3.8291  6.2489  0.9990
  795MOL0     H 4910   8.496   5.704   0.740 -1.2108  0.1446 -1.1005
  795MOL0     H 4911   8.541   5.841   0.641 -0.1455 -0.2844 -0.8402
  795MOL0     H 4912   8.401   5.989   0.809 -0.1524 -0.0194 -0.5281
  795MOL0     H 4913   8.327   5.885   0.687  2.4701  1.2644 -1.3709
  795MOL0     H 4914   8.297   5.707   0.880 -0.8910  0.0155  0.7416
  795MOL0     H 4915   8.213   5.861   0.899  0.1106 -0.1952 -1.7811
  795MOL0     H 4916   8.479   5.828   1.026  0.5878  3.4131 -1.6796
  795MOL0     H 4917   8.333   5.739   1.089  2.2174  0.2402 -0.7865
  795MOL0     H 4918   8.376   6.043   1.057  1.5552 -0.3091  0.0719
  795MOL0     H 4919   8.223   5.990   1.059  0.3687  1.3415 -2.2391
  795MOL0     H 4920   8.414   5.902   1.299  0.7801 -1.7261 -1.7874
  795MOL0     H 4921   8.242   5.923   1.295  0.2107 -0.5806 -2.2503
  795MOL0     H 4922   8.638   6.199   0.991 -0.8152  0.2949 -0.2288
  795MOL0     H 4923   8.695   6.390   1.138 -1.9572 -1.1044 -0.2102
  795MOL0     H 4924   9.079   6.634   1.204  1.4232  1.4453 -1.6681
  795MOL0     H 4925   9.169   6.851   1.243  0.7667  0.6549  0.2543
  795MOL0     H 4926  10.200   7.221   2.531  2.8133 -2.3258 -0.5762
  795MOL0     H 4927  10.415   7.220   2.607  1.0163 -0.5685  0.2594
  795MOL0     H 4928  10.641   7.318   2.986 -0.3434  1.3600  2.3897
  795MOL0     H 4929  10.848   7.303   3.144  1.3571 -0.4486 -0.1077
  795MOL0     H 4930  11.105   7.325   3.093 -0.6322  1.3258 -6.5004
  795MOL0     H 4931  11.174   7.224   2.987 -0.4919  1.0464  0.0132
  795MOL0     H 4932  11.305   7.109   3.170 -0.1852 -1.5535  2.3883
  795MOL0     H 4933  11.339   7.286   3.149 -0.9903 -0.3089 -0.0103
  795MOL0     H 4934  11.154   7.157   3.359 -0.9405  0.6818 -0.9699
  795MOL0     H 4935  11.196   7.332   3.343 -0.7112  0.5378  0.4084
  795MOL0     H 4936  11.361   7.096   3.432  1.0750  0.9621  1.1946
  795MOL0     H 4937  11.452   7.209   3.349  0.4641 -0.3921  0.5560
  795MOL0     H 4938  11.352   7.395   3.725 -1.7924  0.4946  0.2671
  795MOL0     H 4939  10.981   6.957   2.935  0.4989  0.7774  1.6119
  795MOL0     H 4940  10.789   6.957   2.785 -1.4381  1.3192  0.2928
  796MOL0     O 4941   9.677   9.026   4.408 -0.6191  0.2098 -0.7988
  796MOL0     C 4942   9.731   8.980   4.511 -0.0181 -0.0820 -0.6663
  796MOL0     O 4943   9.822   9.051   4.590 -0.3908 -0.3273  0.4759
  796MOL0     C 4944   9.811   9.189   4.590 -0.4025  0.6297 -0.0998
  796MOL0     C 4945   9.921   9.246   4.648  0.0150  0.5350  0.4025
  796MOL0     C 4946   9.934   9.384   4.664  0.4048 -0.6458  0.6404
  796MOL0     C 4947   9.830   9.469   4.613 -0.8004  0.0574 -0.1804
  796MOL0     O 4948   9.848   9.610   4.605  0.1878  0.4760 -0.6560
  796MOL0     C 4949   9.898   9.680   4.720 -0.0939 -1.1390 -0.2107
  796MOL0     C 4950  10.024   9.761   4.676 -0.0103  0.1855 -0.4542
  796MOL0     C 4951   9.980   9.908   4.632 -0.2231 -0.0596  0.0738
  796MOL0     C 4952  10.097  10.005   4.607 -0.3688 -1.4973 -0.7974
  796MOL0     C 4953  10.061  10.093   4.487  0.2804 -0.4936  0.4015
  796MOL0     C 4954  10.175  10.186   4.439 -0.1334 -0.4337 -0.6800
  796MOL0     C 4955  10.235  10.282   4.554 -0.3534 -0.0342  0.5482
  796MOL0     C 4956  10.131  10.369   4.611  0.2184  0.3940 -0.1381
  796MOL0     N 4957  10.053  10.442   4.512 -0.2409  0.4762  0.0459
  796MOL0     C 4958  10.103  10.512   4.404  0.2577 -0.0283 -0.4440
  796MOL0     C 4959   9.987  10.567   4.349  0.1178  0.1546 -0.2131
  796MOL0     C 4960   9.984  10.636   4.215  1.1178  0.5838 -0.4834
  796MOL0     C 4961  10.057  10.767   4.230 -0.1938  0.8755  0.3472
  796MOL0     C 4962  10.158  10.788   4.117  0.2765 -0.1616 -0.2120
  796MOL0     C 4963  10.166  10.933   4.089 -0.3746  0.1749  0.4343
  796MOL0     O 4964  10.208  10.992   4.212 -0.2699 -0.5013  0.2820
  796MOL0     C 4965  10.278  11.113   4.210  0.9838 -0.2630  1.2846
  796MOL0     C 4966  10.307  11.176   4.330 -0.4441  0.6115 -0.6775
  796MOL0     C 4967  10.387  11.292   4.327 -0.1155  1.0834  0.0705
  796MOL0     C 4968  10.425  11.352   4.213  0.2189 -0.4632 -0.4730
  796MOL0     C 4969  10.500  11.470   4.205 -0.2455 -0.1335  0.6614
  796MOL0     O 4970  10.514  11.537   4.085 -0.6649  0.3646  0.2520
  796MOL0     C 4971  10.575  11.662   4.085 -0.7107 -0.2444 -1.0039
  796MOL0     C 4972  10.713  11.662   4.086  0.4385  0.1526  0.0177
  796MOL0     C 4973  10.786  11.772   4.095  0.2720 -0.0624  0.0915
  796MOL0     C 4974  10.722  11.895   4.083 -0.9089 -0.0665 -0.1560
  796MOL0     O 4975  10.794  12.011   4.079 -1.1449  0.1365 -0.1727
  796MOL0     C 4976  10.852  12.062   4.197  0.0846  0.4998  0.3303
  796MOL0     C 4977  10.741  12.115   4.284  0.2113 -0.5079 -0.1626
  796MOL0     C 4978  10.784  12.238   4.377 -0.2072 -0.2638  0.4989
  796MOL0     C 4979  10.669  12.303   4.453 -0.3916 -0.2938  0.1173
  796MOL0     C 4980  10.708  12.440   4.515  0.7432 -0.0956  0.5047
  796MOL0     C 4981  10.588  12.484   4.610 -0.4747  0.0012  0.8476
  796MOL0     C 4982  10.623  12.617   4.685 -0.2012  0.3233 -0.2164
  796MOL0     C 4983  10.750  12.603   4.776  0.7288 -0.1619  0.4293
  796MOL0    Cl 4984  10.689  12.592   4.945  0.1808 -0.4925  0.1607
  796MOL0     C 4985  10.587  11.902   4.074 -0.1363  1.1760  0.0841
  796MOL0     C 4986  10.508  11.781   4.073 -0.1534 -0.2161  0.3308
  796MOL0     O 4987  10.544  11.503   4.314  0.4853 -0.8653  0.0172
  796MOL0     C 4988  10.393  11.286   4.094  0.4110  0.6986 -0.9263
  796MOL0     C 4989  10.315  11.169   4.087 -0.0021 -0.5643 -0.4352
  796MOL0     N 4990   9.881  10.522   4.429  0.0964 -0.7074  0.8501
  796MOL0     N 4991   9.917  10.453   4.523  0.3504  0.5907 -0.3856
  796MOL0     C 4992   9.709   9.409   4.568 -1.4518 -0.1905 -0.1500
  796MOL0     C 4993   9.696   9.268   4.563  0.1778  0.3976 -0.0297
  796MOL0     C 4994   9.706   8.837   4.545  0.3919 -0.3402 -0.2562
  796MOL0     C 4995   9.586   8.774   4.508  0.4668  0.7737  0.2346
  796MOL0     C 4996   9.558   8.641   4.547  0.7625 -0.4292 -0.3832
  796MOL0     C 4997   9.662   8.575   4.625 -0.0779  0.2055 -0.4994
  796MOL0     O 4998   9.656   8.450   4.684  0.1796 -0.4621 -0.3743
  796MOL0     C 4999   9.566   8.366   4.622  0.1197  0.5589 -0.8920
  796MOL0     C 5000   9.603   8.223   4.648  0.8568  0.1455 -0.6021
  796MOL0     C 5001   9.538   8.114   4.563  0.2720 -1.0295 -0.4280
  796MOL0     C 5002   9.584   7.971   4.596  0.2388  0.4872  1.1315
  796MOL0     C 5003   9.518   7.898   4.708 -0.6403  0.1021 -0.4221
  796MOL0     C 5004   9.455   7.844   4.801  0.4027 -0.4159  0.2031
  796MOL0     C 5005   9.775   8.641   4.656 -0.3102  0.7242 -0.4293
  796MOL0     C 5006   9.804   8.764   4.606  0.3271 -0.2544  0.0553
  796MOL0     H 5007  10.015   9.197   4.672  0.5329  1.7518  0.9631
  796MOL0     H 5008  10.014   9.441   4.712 -1.8328  4.2088 -0.7359
  796MOL0     H 5009   9.922   9.623   4.810 -0.4916 -1.0164 -0.0212
  796MOL0     H 5010   9.815   9.741   4.757  1.5813  0.3745  1.2660
  796MOL0     H 5011  10.069   9.701   4.597 -4.2419 -2.7549 -1.0063
  796MOL0     H 5012  10.098   9.773   4.756  0.6713 -3.3268 -0.4290
  796MOL0     H 5013   9.922   9.940   4.719  2.8360 -1.4730  2.8438
  796MOL0     H 5014   9.908   9.901   4.550 -2.5197  3.8055  1.4681
  796MOL0     H 5015  10.118  10.064   4.697  1.8722 -1.9627 -0.9370
  796MOL0     H 5016  10.189   9.951   4.584 -0.0968 -0.5186 -2.1383
  796MOL0     H 5017   9.974  10.152   4.517  0.6203  0.8659 -1.1325
  796MOL0     H 5018  10.031  10.037   4.398  0.3404  1.3186 -0.8220
  796MOL0     H 5019  10.146  10.250   4.356  1.9193 -1.6206 -2.4234
  796MOL0     H 5020  10.255  10.124   4.396  0.7506 -1.5958  2.3233
  796MOL0     H 5021  10.278  10.229   4.639  2.2552  0.9463 -0.0754
  796MOL0     H 5022  10.314  10.344   4.512 -0.3033 -0.3530  0.1773
  796MOL0     H 5023  10.185  10.446   4.668  0.8123  0.7561 -1.1716
  796MOL0     H 5024  10.062  10.316   4.678  0.1327 -5.7049 -4.2707
  796MOL0     H 5025  10.202  10.522   4.363 -0.1133  1.5033 -1.0400
  796MOL0     H 5026   9.876  10.649   4.198  1.1612  1.8529  0.1050
  796MOL0     H 5027  10.030  10.578   4.135 -0.5792 -0.5358 -0.7070
  796MOL0     H 5028  10.121  10.773   4.319 -0.7924  3.0928  0.6771
  796MOL0     H 5029   9.988  10.851   4.244 -0.1607  0.6277  2.1699
  796MOL0     H 5030  10.256  10.748   4.143  2.8143  4.5677 -1.3604
  796MOL0     H 5031  10.121  10.749   4.022 -0.2297  3.5124 -1.7052
  796MOL0     H 5032  10.070  10.980   4.064 -0.4816  1.1937  2.5659
  796MOL0     H 5033  10.243  10.934   4.011  1.0091  0.6549  1.7566
  796MOL0     H 5034  10.275  11.119   4.416  0.3824  1.7702  0.4277
  796MOL0     H 5035  10.395  11.346   4.421 -0.3473  1.1093  0.0755
  796MOL0     H 5036  10.778  11.576   4.076 -1.9702 -1.9380  1.2374
  796MOL0     H 5037  10.894  11.765   4.105  0.5249  0.3772 -1.9144
  796MOL0     H 5038  10.927  12.140   4.179  1.8103 -0.3759  3.0401
  796MOL0     H 5039  10.897  11.985   4.260  1.2753  1.5108  0.7595
  796MOL0     H 5040  10.702  12.039   4.352  2.1755 -1.0459  0.4318
  796MOL0     H 5041  10.671  12.149   4.208 -0.1628  0.7072  0.6875
  796MOL0     H 5042  10.816  12.308   4.299 -1.9818 -1.0304 -0.9775
  796MOL0     H 5043  10.871  12.212   4.439 -1.1403 -2.3000  1.0360
  796MOL0     H 5044  10.585  12.321   4.385 -0.7669 -0.7839  0.4421
  796MOL0     H 5045  10.633  12.230   4.526  0.4550 -1.1570 -0.3064
  796MOL0     H 5046  10.740  12.517   4.444 -2.7791 -0.9361 -2.2969
  796MOL0     H 5047  10.798  12.407   4.568  1.5979 -2.4687 -2.2025
  796MOL0     H 5048  10.568  12.409   4.687  2.8813 -0.8543  1.0332
  796MOL0     H 5049  10.501  12.488   4.544 -1.6524  0.0638  2.3517
  796MOL0     H 5050  10.660  12.672   4.598  3.9414 -2.1088 -0.2568
  796MOL0     H 5051  10.535  12.663   4.731 -0.0600 -0.3533  0.7570
  796MOL0     H 5052  10.808  12.695   4.762 -0.4066  0.5452  0.2719
  796MOL0     H 5053  10.810  12.513   4.757  3.6999  1.7811 -0.1873
  796MOL0     H 5054  10.543  12.001   4.063  0.9106  1.4190 -3.0032
  796MOL0     H 5055  10.400  11.776   4.085 -0.2992 -1.2044 -1.0960
  796MOL0     H 5056  10.424  11.331   4.001  0.6377  0.6998 -0.8500
  796MOL0     H 5057  10.286  11.120   3.994 -2.8844 -0.8813  0.5149
  796MOL0     H 5058   9.624   9.466   4.534 -1.1007  0.4285  0.0003
  796MOL0     H 5059   9.598   9.223   4.552  1.1974 -2.3244  1.0886
  796MOL0     H 5060   9.509   8.827   4.453 -1.2687 -2.1565 -0.3677
  796MOL0     H 5061   9.457   8.601   4.533  1.0440 -1.6486  0.8114
  796MOL0     H 5062   9.565   8.387   4.514 -1.0730  0.4947 -0.9088
  796MOL0     H 5063   9.465   8.389   4.659  0.3114  1.1499 -0.7304
  796MOL0     H 5064   9.712   8.220   4.634  1.3761  0.9419  2.5381
  796MOL0     H 5065   9.596   8.203   4.755 -1.9073  1.5898 -0.4323
  796MOL0     H 5066   9.572   8.139   4.462 -0.6886  0.4580 -0.4137
  796MOL0     H 5067   9.429   8.119   4.556  0.1443 -2.9756 -0.3596
  796MOL0     H 5068   9.564   7.906   4.511 -1.0283 -1.2420  2.6819
  796MOL0     H 5069   9.693   7.971   4.607  0.5328 -0.2015 -1.3000
  796MOL0     H 5070   9.390   7.795   4.871  1.8508 -0.1251  1.8095
  796MOL0     H 5071   9.859   8.590   4.700 -1.0320  1.1777  1.5834
  796MOL0     H 5072   9.902   8.810   4.621  0.7620 -0.2773 -2.2920
  797MOL0     O 5073   4.240   5.366   8.028 -0.0135  0.6519  0.4722
  797MOL0     C 5074   4.276   5.366   7.908  0.0216  0.9091 -0.2838
  797MOL0     O 5075   4.197   5.328   7.802 -0.5785  0.1809 -1.1718
  797MOL0     C 5076   4.064   5.288   7.824  0.4358 -0.3845 -0.4045
  797MOL0     C 5077   3.972   5.339   7.726 -0.9187  0.0433 -0.3919
  797MOL0     C 5078   3.838   5.315   7.736  0.6794  0.7496 -0.9171
  797MOL0     C 5079   3.791   5.230   7.835 -0.3314 -0.1079 -0.3515
  797MOL0     O 5080   3.651   5.218   7.834  0.2575  0.4185 -0.1395
  797MOL0     C 5081   3.600   5.086   7.870 -0.4545  0.2237 -0.9393
  797MOL0     C 5082   3.557   5.094   8.018  0.8685 -0.1940 -0.2791
  797MOL0     C 5083   3.506   4.963   8.076  0.5540  0.5643 -0.4313
  797MOL0     C 5084   3.525   4.982   8.224 -0.3117  0.5710 -0.1689
  797MOL0     C 5085   3.423   4.901   8.300  0.7132  0.3621 -0.0558
  797MOL0     C 5086   3.424   4.748   8.289 -0.3037 -0.7349 -0.2099
  797MOL0     C 5087   3.334   4.684   8.400  0.3223 -0.0877  0.3729
  797MOL0     C 5088   3.184   4.702   8.398 -0.0930  0.4415  0.2263
  797MOL0     N 5089   3.120   4.685   8.273  0.1157 -0.6819  0.4791
  797MOL0     C 5090   3.088   4.772   8.162 -0.5265  0.5708 -0.0333
  797MOL0     C 5091   3.039   4.686   8.062 -0.7561 -0.7452  0.4822
  797MOL0     C 5092   2.991   4.717   7.927  0.1338 -0.1144 -0.0819
  797MOL0     C 5093   2.857   4.797   7.948  0.5627  0.5870  0.0536
  797MOL0     C 5094   2.787   4.809   7.812  0.6265 -0.5216  0.2751
  797MOL0     C 5095   2.655   4.884   7.838 -0.6165  0.3386  0.7612
  797MOL0     O 5096   2.661   5.031   7.848  0.5089 -1.1922 -0.1792
  797MOL0     C 5097   2.683   5.117   7.738  0.7080  0.7727 -0.5106
  797MOL0     C 5098   2.693   5.086   7.596 -0.0487  0.6549 -0.8938
  797MOL0     C 5099   2.720   5.182   7.505  1.4587  1.2421  0.2872
  797MOL0     C 5100   2.721   5.320   7.545  0.0201 -0.3401  0.5752
  797MOL0     C 5101   2.767   5.426   7.453 -0.9140 -0.9921  0.8094
  797MOL0     O 5102   2.743   5.565   7.481 -0.6481  0.2932  0.0888
  797MOL0     C 5103   2.757   5.646   7.375  0.6867 -0.1002  0.3174
  797MOL0     C 5104   2.635   5.669   7.296 -0.1125  0.3948  0.5762
  797MOL0     C 5105   2.639   5.754   7.188 -0.5651 -0.1509  0.1637
  797MOL0     C 5106   2.756   5.823   7.153 -0.0751 -0.3184  0.5342
  797MOL0     O 5107   2.739   5.901   7.042  0.9047 -0.5215 -0.5571
  797MOL0     C 5108   2.819   5.850   6.937  0.3082  0.4607 -0.1063
  797MOL0     C 5109   2.832   5.941   6.817  1.0359 -1.3048  0.0232
  797MOL0     C 5110   2.906   6.069   6.842 -0.0067 -0.2875 -0.1246
  797MOL0     C 5111   2.903   6.171   6.729 -0.4367  0.4905 -0.2181
  797MOL0     C 5112   2.925   6.313   6.766  0.0563 -1.0570 -0.0158
  797MOL0     C 5113   3.029   6.336   6.870  0.2663  0.2090 -0.9791
  797MOL0     C 5114   3.067   6.479   6.885 -0.6809 -0.7118 -0.4843
  797MOL0     C 5115   3.139   6.516   7.017 -0.2151  0.9810  0.2355
  797MOL0    Cl 5116   3.207   6.683   7.016  0.3011 -0.2919 -0.0040
  797MOL0     C 5117   2.879   5.792   7.219  0.4470 -0.2366 -0.3672
  797MOL0     C 5118   2.880   5.699   7.328 -0.1399 -1.2060  0.4314
  797MOL0     O 5119   2.804   5.386   7.342 -0.7199  0.0164 -0.4362
  797MOL0     C 5120   2.691   5.357   7.678  0.2810 -0.3844  0.1098
  797MOL0     C 5121   2.673   5.251   7.776  0.9809  0.2167 -0.9986
  797MOL0     N 5122   3.064   4.553   8.105  0.5191 -0.1449  0.8293
  797MOL0     N 5123   3.095   4.561   8.228 -0.3666 -0.3271  0.8927
  797MOL0     C 5124   3.879   5.166   7.919 -0.1014 -0.1689 -1.1360
  797MOL0     C 5125   4.018   5.197   7.919 -0.1591 -0.3704  0.0816
  797MOL0     C 5126   4.394   5.450   7.859  0.8955 -0.5639 -0.6423
  797MOL0     C 5127   4.428   5.456   7.723  0.2017 -0.4251 -0.9080
  797MOL0     C 5128   4.536   5.532   7.684  0.0331 -0.1745  0.1579
  797MOL0     C 5129   4.603   5.618   7.770  0.5875 -0.2172 -0.0652
  797MOL0     O 5130   4.709   5.688   7.721 -0.1048  0.2234  0.8926
  797MOL0     C 5131   4.819   5.717   7.804 -0.0441 -0.0719  0.5579
  797MOL0     C 5132   4.929   5.758   7.707 -0.1638 -0.7365  0.6562
  797MOL0     C 5133   5.068   5.744   7.763 -1.2229  0.6881  0.6563
  797MOL0     C 5134   5.178   5.810   7.667 -0.0611  0.1543 -0.1155
  797MOL0     C 5135   5.151   5.953   7.635 -0.7062 -0.3373 -0.3299
  797MOL0     C 5136   5.128   6.066   7.604  0.3310  0.2657 -0.4218
  797MOL0     C 5137   4.566   5.613   7.906  0.7067  0.2933 -0.1669
  797MOL0     C 5138   4.464   5.529   7.948 -0.0293  0.3221 -0.1913
  797MOL0     H 5139   4.016   5.396   7.645  1.8108 -0.1363  0.8349
  797MOL0     H 5140   3.761   5.362   7.675 -1.4416 -0.5088  0.6381
  797MOL0     H 5141   3.676   5.008   7.851 -0.0194  1.1566 -3.3868
  797MOL0     H 5142   3.516   5.060   7.805 -0.0958 -2.0390 -0.6098
  797MOL0     H 5143   3.492   5.179   8.041  3.6988  1.7174  1.1738
  797MOL0     H 5144   3.651   5.124   8.066  1.1590  0.7465 -1.4045
  797MOL0     H 5145   3.563   4.877   8.040 -2.3009 -1.3403 -0.7470
  797MOL0     H 5146   3.399   4.957   8.051  0.1665  2.0489  0.7629
  797MOL0     H 5147   3.625   4.943   8.246 -2.2163 -3.3791  2.9672
  797MOL0     H 5148   3.514   5.086   8.257 -4.0435  0.5356 -0.9027
  797MOL0     H 5149   3.324   4.943   8.279  0.5907 -0.1698 -0.5745
  797MOL0     H 5150   3.438   4.920   8.406 -0.0755  0.0119  0.1256
  797MOL0     H 5151   3.532   4.731   8.291 -0.3185 -0.7970  0.0096
  797MOL0     H 5152   3.384   4.716   8.192 -1.9970 -0.5972  0.4084
  797MOL0     H 5153   3.354   4.582   8.365  1.7039  0.0318  0.7850
  797MOL0     H 5154   3.377   4.697   8.500 -1.8249  0.4173  1.3066
  797MOL0     H 5155   3.159   4.804   8.429 -0.6395  0.6908 -0.9484
  797MOL0     H 5156   3.144   4.632   8.471  2.9612 -0.4843  1.1426
  797MOL0     H 5157   3.094   4.879   8.182  1.6737  0.6623 -0.9731
  797MOL0     H 5158   2.988   4.623   7.871  3.7907 -0.1883 -0.4003
  797MOL0     H 5159   3.056   4.780   7.866 -1.1949 -0.8861 -2.4338
  797MOL0     H 5160   2.882   4.900   7.975  0.6727  0.6554 -0.3030
  797MOL0     H 5161   2.781   4.761   8.017 -0.3706  1.6318 -0.4010
  797MOL0     H 5162   2.851   4.856   7.736 -0.4223 -2.3405 -1.8437
  797MOL0     H 5163   2.757   4.712   7.773 -0.9538  0.5712 -1.3864
  797MOL0     H 5164   2.621   4.860   7.939 -0.2162 -1.0298  0.5898
  797MOL0     H 5165   2.585   4.840   7.767  0.7898 -2.8311  1.1759
  797MOL0     H 5166   2.702   4.982   7.567  1.2675  0.9991 -1.8315
  797MOL0     H 5167   2.735   5.150   7.402 -0.2179  0.4106  0.2675
  797MOL0     H 5168   2.543   5.616   7.318  0.8917 -1.2455  0.9952
  797MOL0     H 5169   2.559   5.751   7.114  0.7673  1.9192 -1.4961
  797MOL0     H 5170   2.770   5.755   6.913 -1.7022  0.8336  2.1469
  797MOL0     H 5171   2.922   5.827   6.967  1.4638 -0.6265 -4.2661
  797MOL0     H 5172   2.734   5.959   6.771  0.9714 -1.3155  0.1574
  797MOL0     H 5173   2.891   5.887   6.742  3.7861 -1.9770  2.4739
  797MOL0     H 5174   3.009   6.050   6.875  1.0471  4.0844 -0.3013
  797MOL0     H 5175   2.857   6.114   6.929  0.4302 -1.4708  0.7586
  797MOL0     H 5176   2.992   6.148   6.670  1.2491  1.6110  1.7422
  797MOL0     H 5177   2.811   6.168   6.669  1.5203 -0.1293 -3.4601
  797MOL0     H 5178   2.833   6.364   6.799  0.1974  0.7407 -2.1608
  797MOL0     H 5179   2.951   6.367   6.674 -3.6305  2.0628  0.4871
  797MOL0     H 5180   3.114   6.267   6.864 -0.1592 -0.5178  0.7175
  797MOL0     H 5181   2.977   6.313   6.964 -3.6850  1.2817 -2.7031
  797MOL0     H 5182   3.129   6.520   6.805 -1.0150  2.2966  0.6622
  797MOL0     H 5183   2.978   6.542   6.899 -0.8819 -1.0347 -0.3017
  797MOL0     H 5184   3.217   6.441   7.004 -1.7995 -0.9884  1.5752
  797MOL0     H 5185   3.082   6.491   7.107  1.0536 -0.1757  0.7467
  797MOL0     H 5186   2.974   5.842   7.204 -0.0805  1.6650  2.0608
  797MOL0     H 5187   2.965   5.684   7.394  0.2774  0.1061  0.2236
  797MOL0     H 5188   2.702   5.458   7.717  1.5878 -1.2194  2.0763
  797MOL0     H 5189   2.660   5.275   7.880  1.2401 -0.4467 -0.8048
  797MOL0     H 5190   3.840   5.104   7.999 -2.2505  3.1629  0.6144
  797MOL0     H 5191   4.082   5.152   7.995  2.9615  2.3798 -0.7481
  797MOL0     H 5192   4.356   5.404   7.661 -1.0264 -1.6440  1.3819
  797MOL0     H 5193   4.567   5.554   7.583  5.3877  1.7288  1.8478
  797MOL0     H 5194   4.846   5.629   7.863 -0.5998 -0.3513  0.3944
  797MOL0     H 5195   4.796   5.799   7.873 -2.1125 -0.6953  0.6735
  797MOL0     H 5196   4.930   5.693   7.619  2.1116  0.1076 -0.0055
  797MOL0     H 5197   4.907   5.860   7.676 -2.1749 -1.6585 -1.2804
  797MOL0     H 5198   5.089   5.640   7.790 -5.2352 -0.5344 -0.2552
  797MOL0     H 5199   5.078   5.800   7.857 -1.3927  1.8920 -0.0243
  797MOL0     H 5200   5.275   5.813   7.718  0.2569  3.4726 -0.7118
  797MOL0     H 5201   5.168   5.754   7.573 -1.4080 -0.9823  0.6745
  797MOL0     H 5202   5.119   6.164   7.562 -0.3663  1.6440  2.6525
  797MOL0     H 5203   4.609   5.679   7.981  1.8735  3.1156 -3.0841
  797MOL0     H 5204   4.429   5.526   8.050  1.5586  0.3320  0.3874
  798MOL0     O 5205   3.420   9.281   0.857  0.2972  0.1989 -0.2222
  798MOL0     C 5206   3.491   9.379   0.877 -1.4438 -0.2514 -0.2805
  798MOL0     O 5207   3.563   9.402   0.991 -0.0750 -0.2427  0.1038
  798MOL0     C 5208   3.552   9.299   1.087  0.0440  0.1917  0.4933
  798MOL0     C 5209   3.460   9.312   1.193 -0.0046  0.3463  0.4968
  798MOL0     C 5210   3.480   9.229   1.305  0.1272  0.5381  0.4279
  798MOL0     C 5211   3.582   9.127   1.306 -0.8292  0.2127 -0.4793
  798MOL0     O 5212   3.596   9.035   1.404  0.1434 -0.3177  0.0615
  798MOL0     C 5213   3.638   9.095   1.525  0.2196  0.6456  0.1959
  798MOL0     C 5214   3.620   8.986   1.626  0.7215 -0.2916  0.1689
  798MOL0     C 5215   3.711   8.865   1.598  0.6926 -0.8708 -0.4337
  798MOL0     C 5216   3.723   8.774   1.705 -0.2086  0.7131 -0.3514
  798MOL0     C 5217   3.587   8.717   1.748  0.8018  0.0790 -0.5575
  798MOL0     C 5218   3.509   8.639   1.642 -0.2522 -0.8757 -0.7263
  798MOL0     C 5219   3.359   8.602   1.690 -0.6369  0.2054 -0.8977
  798MOL0     C 5220   3.278   8.551   1.586  0.2370 -0.3533 -0.3381
  798MOL0     N 5221   3.247   8.657   1.489 -0.4501  0.0549  0.2064
  798MOL0     C 5222   3.296   8.657   1.354 -0.0711 -0.3016 -0.3434
  798MOL0     C 5223   3.237   8.765   1.288  0.7227  0.7759  0.1002
  798MOL0     C 5224   3.230   8.801   1.150 -0.6880  0.8404 -0.6668
  798MOL0     C 5225   3.364   8.860   1.099 -0.2377 -0.3646  0.6838
  798MOL0     C 5226   3.338   8.949   0.973  0.5001 -0.0727 -0.8688
  798MOL0     C 5227   3.424   8.926   0.852  0.2794 -0.3082 -0.6337
  798MOL0     O 5228   3.562   8.928   0.883  0.2244  0.8331 -0.2862
  798MOL0     C 5229   3.651   8.942   0.778  0.1109  0.0461  0.0080
  798MOL0     C 5230   3.789   8.956   0.796 -0.3055  0.7951  0.2813
  798MOL0     C 5231   3.870   8.956   0.693  0.0389 -0.6513  0.3068
  798MOL0     C 5232   3.830   8.941   0.561  0.1187  1.0836 -0.1687
  798MOL0     C 5233   3.923   8.948   0.443 -0.3287 -0.1024 -0.1903
  798MOL0     O 5234   4.060   8.975   0.478  0.6524 -0.1254  0.5965
  798MOL0     C 5235   4.140   8.962   0.372 -1.1595  0.4461  0.5081
  798MOL0     C 5236   4.126   9.033   0.248  0.7995  0.5876 -0.2966
  798MOL0     C 5237   4.224   9.042   0.159 -0.8664  0.2581 -0.3012
  798MOL0     C 5238   4.348   8.986   0.181 -0.0476  0.5385 -0.4225
  798MOL0     O 5239   4.457   9.008   0.097  0.1694  0.6007 -0.5802
  798MOL0     C 5240   4.523   8.901   0.038 -0.2233 -0.1056 -0.6973
  798MOL0     C 5241   4.592   8.941  -0.097 -0.2818 -0.4960 -0.0777
  798MOL0     C 5242   4.511   9.026  -0.201  1.0332  0.4919  0.3234
  798MOL0     C 5243   4.429   8.952  -0.304 -0.3954  0.0378 -0.1707
  798MOL0     C 5244   4.345   9.048  -0.390  0.6268 -0.4659 -0.4916
  798MOL0     C 5245   4.329   8.997  -0.524 -1.2108  1.1606  0.5592
  798MOL0     C 5246   4.245   9.092  -0.601  0.2694 -0.4840  0.2067
  798MOL0     C 5247   4.248   9.074  -0.752  0.1753  0.8778 -0.1163
  798MOL0    Cl 5248   4.403   9.098  -0.829  0.1639 -0.3139 -0.3084
  798MOL0     C 5249   4.367   8.905   0.297  0.6486  0.4291  0.1634
  798MOL0     C 5250   4.260   8.891   0.391 -1.2452 -0.2704 -0.3433
  798MOL0     O 5251   3.881   8.922   0.333 -0.0805  0.5057 -0.7075
  798MOL0     C 5252   3.690   8.930   0.539  0.2649 -0.1279 -0.8385
  798MOL0     C 5253   3.603   8.938   0.644  0.0816  0.3826 -0.2349
  798MOL0     N 5254   3.158   8.834   1.387  0.9663  0.0552  0.1941
  798MOL0     N 5255   3.166   8.771   1.506 -0.2232 -0.1136 -0.1965
  798MOL0     C 5256   3.673   9.112   1.201 -0.1577 -1.0689  0.2988
  798MOL0     C 5257   3.658   9.204   1.090  0.6644  0.0495 -0.5842
  798MOL0     C 5258   3.528   9.465   0.768  0.8452  0.1540  0.3862
  798MOL0     C 5259   3.654   9.547   0.781 -0.2156  0.3001 -0.6273
  798MOL0     C 5260   3.680   9.639   0.683 -0.2463  0.5133  0.8627
  798MOL0     C 5261   3.608   9.646   0.563  0.3977  0.3037 -0.1608
  798MOL0     O 5262   3.624   9.722   0.448  0.0611 -0.2138 -0.0516
  798MOL0     C 5263   3.704   9.841   0.445 -0.4456  0.2419 -0.3111
  798MOL0     C 5264   3.754   9.851   0.294  0.1869 -0.6606  0.2885
  798MOL0     C 5265   3.833   9.714   0.251 -0.0132 -1.0694 -0.4439
  798MOL0     C 5266   3.869   9.728   0.105  0.0489  0.2486  0.1119
  798MOL0     C 5267   3.956   9.848   0.076 -0.4201  0.5024 -0.6385
  798MOL0     C 5268   4.016   9.952   0.069 -1.0530  0.9129  0.2211
  798MOL0     C 5269   3.505   9.553   0.541  0.3417  0.2491 -0.3733
  798MOL0     C 5270   3.461   9.456   0.645  0.1846  0.1439 -0.1667
  798MOL0     H 5271   3.393   9.396   1.211 -0.1892  0.3864 -0.3535
  798MOL0     H 5272   3.415   9.234   1.392  0.0282  1.8002  0.3106
  798MOL0     H 5273   3.585   9.186   1.556 -0.6729 -0.4641  2.0562
  798MOL0     H 5274   3.744   9.123   1.533  0.7000 -1.2134  0.7710
  798MOL0     H 5275   3.515   8.960   1.633  0.7597 -1.2512 -2.0631
  798MOL0     H 5276   3.646   9.020   1.727  0.4078  0.8754 -0.1296
  798MOL0     H 5277   3.813   8.903   1.584 -0.2828  1.2362 -2.3411
  798MOL0     H 5278   3.678   8.816   1.506 -1.1234  1.7403 -1.3047
  798MOL0     H 5279   3.786   8.696   1.663 -0.2373 -0.8063  2.1981
  798MOL0     H 5280   3.774   8.806   1.796 -1.4534  2.6964 -0.2619
  798MOL0     H 5281   3.527   8.786   1.807  2.1677 -0.1392  1.1592
  798MOL0     H 5282   3.614   8.635   1.816 -0.5231  0.8063  0.8881
  798MOL0     H 5283   3.545   8.542   1.608  1.5510 -0.2673 -0.6519
  798MOL0     H 5284   3.502   8.700   1.552  0.3618  2.8903  1.5566
  798MOL0     H 5285   3.365   8.529   1.771 -0.3023  0.3047 -0.8292
  798MOL0     H 5286   3.319   8.696   1.730 -0.8679 -0.0919 -0.4312
  798MOL0     H 5287   3.193   8.495   1.627 -0.2008 -0.0787 -0.8661
  798MOL0     H 5288   3.330   8.471   1.532  1.3184  0.1026  0.0011
  798MOL0     H 5289   3.353   8.581   1.302 -0.6630 -0.1207 -1.2897
  798MOL0     H 5290   3.155   8.881   1.147 -0.1242  1.3885 -0.2548
  798MOL0     H 5291   3.195   8.720   1.085  1.2835  2.2717 -3.6969
  798MOL0     H 5292   3.425   8.772   1.078  2.8355  1.3209  1.9536
  798MOL0     H 5293   3.412   8.923   1.174 -1.4177  0.4955  0.7373
  798MOL0     H 5294   3.234   8.938   0.943  0.7511 -0.2930 -1.6555
  798MOL0     H 5295   3.343   9.055   1.001 -0.5377 -0.0373 -0.7595
  798MOL0     H 5296   3.403   9.009   0.784 -0.0439  1.2362  1.2653
  798MOL0     H 5297   3.397   8.835   0.799 -1.0564 -0.9948  1.1279
  798MOL0     H 5298   3.834   8.967   0.895 -0.1488 -1.0383  0.4394
  798MOL0     H 5299   3.976   8.970   0.708  0.4789  1.4471 -3.4483
  798MOL0     H 5300   4.037   9.094   0.240  0.7122  0.3033 -1.5913
  798MOL0     H 5301   4.214   9.100   0.068  0.7227  1.4290  0.2291
  798MOL0     H 5302   4.449   8.821   0.021 -1.6887  1.2146 -0.7484
  798MOL0     H 5303   4.594   8.868   0.114  0.4667  2.4983 -0.1103
  798MOL0     H 5304   4.633   8.853  -0.146 -1.8689 -1.1907 -0.2199
  798MOL0     H 5305   4.672   9.006  -0.060 -1.0186  0.1996  0.3376
  798MOL0     H 5306   4.575   9.093  -0.259  1.6129  0.6463  1.1241
  798MOL0     H 5307   4.449   9.089  -0.137 -0.4641 -1.9795  1.4645
  798MOL0     H 5308   4.493   8.899  -0.376 -1.6526  0.2600 -1.4915
  798MOL0     H 5309   4.384   8.867  -0.252 -1.7630  1.3323  0.8381
  798MOL0     H 5310   4.389   9.148  -0.385  0.4438 -0.4258  0.4655
  798MOL0     H 5311   4.243   9.046  -0.350  1.0566  0.8209  0.7557
  798MOL0     H 5312   4.278   8.901  -0.529 -2.9528  2.0794 -0.0112
  798MOL0     H 5313   4.430   8.988  -0.565 -1.9190 -0.7619 -0.9326
  798MOL0     H 5314   4.147   9.053  -0.571 -1.3419  3.1161  0.2161
  798MOL0     H 5315   4.260   9.196  -0.571 -2.0423 -0.6426  2.1600
  798MOL0     H 5316   4.166   9.123  -0.804 -4.8553 -0.5546  5.3679
  798MOL0     H 5317   4.234   8.967  -0.770 -3.5279  1.4025 -1.2772
  798MOL0     H 5318   4.464   8.870   0.330  0.9167 -0.8911 -1.8461
  798MOL0     H 5319   4.271   8.838   0.485 -0.0691  1.2728  0.4351
  798MOL0     H 5320   3.654   8.909   0.439 -3.1582  3.0786 -0.4930
  798MOL0     H 5321   3.501   8.921   0.610  0.4537 -2.2231 -0.2507
  798MOL0     H 5322   3.742   9.028   1.197 -0.8856 -1.7685  1.8528
  798MOL0     H 5323   3.717   9.197   0.999  0.4144 -2.4197 -0.6087
  798MOL0     H 5324   3.714   9.533   0.871 -0.3193 -2.1548 -0.8588
  798MOL0     H 5325   3.765   9.707   0.687  0.5734 -0.2487 -1.7090
  798MOL0     H 5326   3.794   9.846   0.508  0.0130  2.1284 -1.0296
  798MOL0     H 5327   3.654   9.936   0.468 -0.9594  0.1515 -1.0407
  798MOL0     H 5328   3.674   9.866   0.221 -1.4270  0.9411  2.2614
  798MOL0     H 5329   3.809   9.945   0.300  0.0817 -0.6482  1.3121
  798MOL0     H 5330   3.774   9.623   0.262 -0.8237 -0.3247  1.9283
  798MOL0     H 5331   3.921   9.707   0.315  1.4932  0.0435 -2.2749
  798MOL0     H 5332   3.928   9.638   0.088 -0.4164 -0.0751  0.1872
  798MOL0     H 5333   3.779   9.735   0.043 -0.2429 -0.1108  0.4869
  798MOL0     H 5334   4.080  10.038   0.070  1.0513 -0.5799  0.7521
  798MOL0     H 5335   3.458   9.557   0.443 -1.3612  2.2988  0.4392
  798MOL0     H 5336   3.387   9.379   0.626 -1.2935  2.0171 -2.7974
  799MOL0     O 5337   8.832   6.555   6.022 -0.6084 -0.3916  0.3413
  799MOL0     C 5338   8.785   6.548   5.905 -0.0561  0.3419 -0.4233
  799MOL0     O 5339   8.815   6.451   5.806  0.6152 -0.6055  0.6936
  799MOL0     C 5340   8.910   6.356   5.813  0.0188 -0.5827  0.0728
  799MOL0     C 5341   8.863   6.225   5.839 -0.4374 -0.5353 -0.4011
  799MOL0     C 5342   8.963   6.122   5.849  0.3953  0.1572  0.4646
  799MOL0     C 5343   9.098   6.152   5.827 -0.0765  0.8300  0.4071
  799MOL0     O 5344   9.184   6.047   5.831  0.9478  0.1582 -0.6691
  799MOL0     C 5345   9.308   6.063   5.900 -0.3033 -0.2097  0.5601
  799MOL0     C 5346   9.408   6.002   5.801  1.1161  1.6033 -0.5710
  799MOL0     C 5347   9.402   5.849   5.808  0.1128  0.0254 -0.6737
  799MOL0     C 5348   9.525   5.814   5.734  0.3234 -1.1024 -0.7159
  799MOL0     C 5349   9.528   5.663   5.715  0.6365 -0.1713  0.5473
  799MOL0     C 5350   9.662   5.597   5.716 -0.2137 -0.2635  0.3680
  799MOL0     C 5351   9.646   5.446   5.737 -0.0711  0.8069  0.1998
  799MOL0     C 5352   9.605   5.363   5.603 -0.6723  0.4399 -0.1907
  799MOL0     N 5353   9.714   5.331   5.513  0.4973 -0.4420  0.4484
  799MOL0     C 5354   9.758   5.420   5.425  0.6958 -0.9489  0.2427
  799MOL0     C 5355   9.862   5.356   5.363 -0.1408  0.8371 -1.1696
  799MOL0     C 5356   9.943   5.401   5.244 -0.0382 -0.3111 -0.9176
  799MOL0     C 5357  10.093   5.421   5.264  0.2401  0.2898  0.7310
  799MOL0     C 5358  10.157   5.477   5.144  1.1573  0.2551  1.3324
  799MOL0     C 5359  10.305   5.438   5.127  0.0301 -0.2473  0.1025
  799MOL0     O 5360  10.373   5.493   5.244 -0.0383  0.5807 -0.0583
  799MOL0     C 5361  10.415   5.400   5.335  0.0504  0.1505  0.3844
  799MOL0     C 5362  10.495   5.295   5.292 -0.0291  0.1233 -0.2505
  799MOL0     C 5363  10.541   5.206   5.390  0.3562 -0.2273 -0.8078
  799MOL0     C 5364  10.519   5.219   5.533  0.0994  0.7132  0.6276
  799MOL0     C 5365  10.579   5.126   5.633 -0.8672 -0.1210 -0.2529
  799MOL0     O 5366  10.694   5.059   5.604 -0.0225 -0.1890 -0.3684
  799MOL0     C 5367  10.755   4.958   5.682  0.4905 -0.5645  0.3856
  799MOL0     C 5368  10.695   4.891   5.789 -0.1561  0.0936  0.0600
  799MOL0     C 5369  10.768   4.792   5.855 -0.6877  1.0952  0.7815
  799MOL0     C 5370  10.902   4.767   5.837  0.0084 -0.1936 -0.1830
  799MOL0     O 5371  10.975   4.676   5.916 -0.0058 -0.1905  0.4803
  799MOL0     C 5372  10.934   4.674   6.054 -0.0243 -0.4973 -0.1215
  799MOL0     C 5373  11.051   4.649   6.144 -0.8300 -0.9953  0.2781
  799MOL0     C 5374  11.104   4.510   6.155  0.1934  0.5074  0.0233
  799MOL0     C 5375  11.187   4.475   6.279  0.0003  0.0740 -0.3085
  799MOL0     C 5376  11.248   4.336   6.264 -0.5236  0.6119  0.7667
  799MOL0     C 5377  11.354   4.305   6.372 -0.4411 -0.0061 -0.1138
  799MOL0     C 5378  11.283   4.280   6.507  0.1186 -0.3691 -0.2627
  799MOL0     C 5379  11.370   4.323   6.627  0.1545  1.2456 -0.1481
  799MOL0    Cl 5380  11.537   4.262   6.621  0.2021  0.3798  0.1728
  799MOL0     C 5381  10.954   4.831   5.725 -0.1702  0.4428  0.1241
  799MOL0     C 5382  10.879   4.912   5.640 -0.4367 -0.8570 -0.1422
  799MOL0     O 5383  10.508   5.118   5.731 -0.2862  0.4970  0.2528
  799MOL0     C 5384  10.433   5.323   5.570 -0.3724 -0.2752 -0.8177
  799MOL0     C 5385  10.393   5.412   5.470 -0.7008 -0.0527  0.2036
  799MOL0     N 5386   9.886   5.235   5.437 -0.7071 -0.1581  0.5078
  799MOL0     N 5387   9.792   5.229   5.525 -0.3550  0.1063  0.1302
  799MOL0     C 5388   9.138   6.285   5.809  0.6393 -0.5792 -0.5318
  799MOL0     C 5389   9.042   6.386   5.811  0.2993 -0.2999  1.1969
  799MOL0     C 5390   8.701   6.655   5.863 -0.0500  0.1969  0.0507
  799MOL0     C 5391   8.709   6.780   5.928 -1.7729  0.7348  0.9900
  799MOL0     C 5392   8.631   6.888   5.890  0.6670 -0.3924  0.7840
  799MOL0     C 5393   8.510   6.862   5.809  0.1015  0.3481 -0.7359
  799MOL0     O 5394   8.415   6.958   5.778  0.0696  0.1898  0.4974
  799MOL0     C 5395   8.339   6.992   5.896  0.0999 -0.1464 -0.3987
  799MOL0     C 5396   8.205   7.065   5.861 -1.3041  0.5016 -0.3819
  799MOL0     C 5397   8.177   7.085   5.711 -0.1047  0.9215 -0.0675
  799MOL0     C 5398   8.038   7.128   5.689  0.4306 -0.1152  0.8566
  799MOL0     C 5399   8.033   7.183   5.555  0.0128 -0.2551  0.7299
  799MOL0     C 5400   8.041   7.232   5.444  0.3718  0.5361 -0.4748
  799MOL0     C 5401   8.495   6.735   5.755 -0.1612  0.1815 -0.1752
  799MOL0     C 5402   8.592   6.631   5.773 -0.2771 -0.1310  0.8053
  799MOL0     H 5403   8.755   6.214   5.833 -0.4522  0.0289 -1.3910
  799MOL0     H 5404   8.934   6.018   5.864 -2.4166  0.4719 -1.9372
  799MOL0     H 5405   9.299   6.009   5.995 -0.2525 -1.5578 -0.1888
  799MOL0     H 5406   9.333   6.169   5.914 -2.9042  0.5060  0.3053
  799MOL0     H 5407   9.508   6.034   5.833  1.8660 -1.8463  0.9524
  799MOL0     H 5408   9.391   6.040   5.699  0.0402 -0.5670 -1.2509
  799MOL0     H 5409   9.309   5.818   5.761 -0.9891  3.7471 -1.1875
  799MOL0     H 5410   9.396   5.815   5.912 -0.9411 -0.3287 -0.8364
  799MOL0     H 5411   9.518   5.876   5.644 -2.2152  0.9002  0.7211
  799MOL0     H 5412   9.618   5.840   5.786 -1.0544 -0.4425  1.5807
  799MOL0     H 5413   9.495   5.648   5.612  1.0611  1.3996  0.1577
  799MOL0     H 5414   9.458   5.612   5.782 -0.6923 -3.0637 -2.7169
  799MOL0     H 5415   9.733   5.636   5.789  2.1658  1.4972 -2.6723
  799MOL0     H 5416   9.715   5.613   5.622 -3.4328 -2.4155 -2.0808
  799MOL0     H 5417   9.748   5.413   5.759 -0.5715 -0.1752  1.0822
  799MOL0     H 5418   9.585   5.413   5.821 -0.0322 -0.5266 -0.2603
  799MOL0     H 5419   9.524   5.414   5.551 -0.9966  0.0775 -0.0433
  799MOL0     H 5420   9.572   5.264   5.636  1.8682 -0.2166  0.6001
  799MOL0     H 5421   9.727   5.517   5.388 -0.3570 -1.3352  0.1002
  799MOL0     H 5422   9.910   5.499   5.211  2.4971  0.7453 -0.5379
  799MOL0     H 5423   9.930   5.342   5.153  0.4595 -0.5463 -0.8463
  799MOL0     H 5424  10.133   5.320   5.276 -1.0178 -0.1567  1.3229
  799MOL0     H 5425  10.112   5.478   5.355  0.7207  3.1716 -1.0324
  799MOL0     H 5426  10.110   5.431   5.056  5.2196  0.5858 -1.3197
  799MOL0     H 5427  10.139   5.580   5.115  1.8347  0.3439  1.1950
  799MOL0     H 5428  10.337   5.481   5.031  0.0939  1.8160  0.9788
  799MOL0     H 5429  10.319   5.330   5.118  1.3084 -0.2216  1.4925
  799MOL0     H 5430  10.519   5.292   5.186  1.5306  1.3497  0.0253
  799MOL0     H 5431  10.618   5.131   5.376  0.4258 -1.5267  4.3792
  799MOL0     H 5432  10.590   4.906   5.815 -0.6580 -1.4494 -0.9294
  799MOL0     H 5433  10.726   4.731   5.934  1.6224  0.4492  1.6022
  799MOL0     H 5434  10.864   4.594   6.079 -0.9400 -0.8124 -3.2078
  799MOL0     H 5435  10.888   4.769   6.079  1.4015 -0.3953  2.4464
  799MOL0     H 5436  11.013   4.673   6.244 -0.3643  1.8780 -0.1271
  799MOL0     H 5437  11.134   4.714   6.114 -1.1984 -1.7320 -2.6253
  799MOL0     H 5438  11.168   4.486   6.070  0.6686 -3.1422  1.2409
  799MOL0     H 5439  11.024   4.436   6.150  0.9634 -0.2600 -2.3039
  799MOL0     H 5440  11.253   4.561   6.283  1.3646 -0.9680  0.8514
  799MOL0     H 5441  11.128   4.477   6.372  3.3064 -0.7635  1.9958
  799MOL0     H 5442  11.295   4.333   6.165  1.1853 -3.0990  1.4932
  799MOL0     H 5443  11.169   4.260   6.266 -2.0004  2.0977  0.9870
  799MOL0     H 5444  11.419   4.393   6.376 -2.1283  1.2462  0.8083
  799MOL0     H 5445  11.413   4.223   6.330 -2.7650 -0.6927 -2.2593
  799MOL0     H 5446  11.190   4.334   6.527  0.2933 -0.5635  1.1219
  799MOL0     H 5447  11.259   4.173   6.507  0.9646 -0.5775 -1.4889
  799MOL0     H 5448  11.329   4.289   6.723 -0.2492  1.5558 -0.2125
  799MOL0     H 5449  11.370   4.431   6.638 -1.3040  1.2157  0.2950
  799MOL0     H 5450  11.056   4.811   5.693 -0.7008 -0.3671 -1.1793
  799MOL0     H 5451  10.926   4.950   5.550  0.3710  2.4089  1.5243
  799MOL0     H 5452  10.407   5.336   5.675  3.9461 -3.6446  0.9921
  799MOL0     H 5453  10.343   5.501   5.505  1.7862  1.5957 -0.1515
  799MOL0     H 5454   9.241   6.317   5.798 -0.0342  1.6470 -0.9950
  799MOL0     H 5455   9.082   6.487   5.813  1.3154 -0.4986 -2.2259
  799MOL0     H 5456   8.769   6.811   6.013 -1.3092  1.0667  0.5483
  799MOL0     H 5457   8.653   6.985   5.933 -2.5303  1.0203 -0.3996
  799MOL0     H 5458   8.406   7.037   5.970  2.7159 -3.5676 -0.4495
  799MOL0     H 5459   8.312   6.898   5.944  0.3517 -0.2140 -0.3897
  799MOL0     H 5460   8.120   7.015   5.909  0.3712 -1.3229  0.8419
  799MOL0     H 5461   8.222   7.163   5.907  2.6339  0.3689 -1.2756
  799MOL0     H 5462   8.220   7.005   5.651  0.7903  0.8030  0.7048
  799MOL0     H 5463   8.231   7.176   5.684 -2.0729  2.4527  0.8492
  799MOL0     H 5464   7.970   7.043   5.693  1.5030 -1.1932 -1.5018
  799MOL0     H 5465   8.006   7.201   5.763 -2.5206 -1.3120  0.8826
  799MOL0     H 5466   8.074   7.281   5.355  0.3750  1.4161 -0.0053
  799MOL0     H 5467   8.417   6.715   5.683  0.0441 -3.0227  0.3434
  799MOL0     H 5468   8.575   6.541   5.715 -1.0192  1.5117 -1.6727
  800MOL0     O 5469   0.367   6.667   1.595  0.4207 -0.0848 -1.2545
  800MOL0     C 5470   0.310   6.568   1.629 -0.3822 -0.0239 -0.0767
  800MOL0     O 5471   0.249   6.551   1.744  0.1552  0.1196  0.5408
  800MOL0     C 5472   0.244   6.648   1.839  0.3656 -0.3195 -0.4151
  800MOL0     C 5473   0.242   6.783   1.813 -0.5214 -0.4240  0.1211
  800MOL0     C 5474   0.245   6.862   1.918  0.6274  0.0926 -0.9500
  800MOL0     C 5475   0.221   6.823   2.050 -0.0288  0.0394 -0.6549
  800MOL0     O 5476   0.221   6.915   2.149 -0.3180 -0.6074  0.4343
  800MOL0     C 5477   0.221   6.875   2.289 -0.5321  0.1345 -0.1671
  800MOL0     C 5478   0.229   6.989   2.396 -0.2756 -0.1077  0.0140
  800MOL0     C 5479   0.131   7.106   2.395 -0.6649  0.9377  0.1054
  800MOL0     C 5480  -0.011   7.062   2.420  0.3491 -0.0512  0.0960
  800MOL0     C 5481  -0.099   7.094   2.296  0.0189 -0.2347  0.3138
  800MOL0     C 5482  -0.252   7.021   2.291  0.2054 -0.1178  0.0495
  800MOL0     C 5483  -0.315   7.022   2.149 -0.2660 -0.2669 -0.3904
  800MOL0     C 5484  -0.317   7.162   2.093 -0.6586 -0.8642  0.2328
  800MOL0     N 5485  -0.383   7.164   1.960 -0.2124  0.7736 -0.6319
  800MOL0     C 5486  -0.316   7.143   1.840  0.1360  0.3388  0.7409
  800MOL0     C 5487  -0.414   7.135   1.750  0.2106 -0.0925  0.6289
  800MOL0     C 5488  -0.375   7.130   1.601  0.1772  0.2820 -0.9615
  800MOL0     C 5489  -0.422   7.258   1.527 -0.8525  0.1010 -0.3433
  800MOL0     C 5490  -0.367   7.386   1.588  0.8601  0.0629  1.0118
  800MOL0     C 5491  -0.387   7.513   1.491  0.7143 -0.2824  0.5199
  800MOL0     O 5492  -0.348   7.626   1.560  0.3094  0.8458 -0.5041
  800MOL0     C 5493  -0.219   7.672   1.548  0.1279 -0.9241 -0.5243
  800MOL0     C 5494  -0.214   7.797   1.606 -0.2828 -0.9900 -0.2514
  800MOL0     C 5495  -0.097   7.870   1.589  0.6678 -0.3903 -0.5129
  800MOL0     C 5496   0.014   7.818   1.522 -0.0392  0.0053 -0.9799
  800MOL0     C 5497   0.133   7.915   1.506  0.9101 -1.3412 -0.6820
  800MOL0     O 5498   0.227   7.873   1.419 -1.1055 -0.3343  0.1937
  800MOL0     C 5499   0.320   7.971   1.381  0.8560  0.2728  0.5743
  800MOL0     C 5500   0.276   8.085   1.305  1.0503  0.8701 -1.1842
  800MOL0     C 5501   0.376   8.167   1.256 -0.1366  0.0704  0.1669
  800MOL0     C 5502   0.515   8.135   1.264  0.8223 -0.1151  1.0511
  800MOL0     O 5503   0.603   8.221   1.204  0.2900  0.1010 -0.0776
  800MOL0     C 5504   0.616   8.349   1.282 -0.0705 -1.1581 -0.6395
  800MOL0     C 5505   0.562   8.467   1.218 -0.6696 -0.7097  0.4632
  800MOL0     C 5506   0.625   8.512   1.081 -0.8809  0.8920  0.3814
  800MOL0     C 5507   0.543   8.617   1.014  0.7119  0.0645  0.5250
  800MOL0     C 5508   0.409   8.570   0.967 -0.2188 -0.8187 -0.1445
  800MOL0     C 5509   0.328   8.676   0.886 -0.3850 -0.7015 -0.2099
  800MOL0     C 5510   0.300   8.636   0.743 -0.7415 -0.2791 -0.0525
  800MOL0     C 5511   0.273   8.765   0.663 -0.8175 -0.4885 -0.7801
  800MOL0    Cl 5512   0.142   8.861   0.744  0.1814  0.3124  0.0124
  800MOL0     C 5513   0.549   8.032   1.342  0.3516 -0.3247  0.2251
  800MOL0     C 5514   0.452   7.946   1.402 -0.5253 -0.2562 -0.0591
  800MOL0     O 5515   0.135   8.027   1.568  1.3843  0.0826  0.2985
  800MOL0     C 5516   0.014   7.683   1.480  0.4213 -0.5548 -0.2162
  800MOL0     C 5517  -0.111   7.611   1.488 -0.2918  1.0457 -0.0112
  800MOL0     N 5518  -0.542   7.164   1.821 -0.0142 -0.3336  1.1902
  800MOL0     N 5519  -0.516   7.178   1.943 -0.6657 -0.5301 -0.5108
  800MOL0     C 5520   0.211   6.683   2.079 -0.3681  0.3682  0.5745
  800MOL0     C 5521   0.225   6.593   1.971 -0.4476  0.0567 -0.7687
  800MOL0     C 5522   0.304   6.462   1.525  0.2702  0.0338 -0.4427
  800MOL0     C 5523   0.215   6.353   1.540 -0.2580 -0.6280  0.3383
  800MOL0     C 5524   0.217   6.254   1.442 -0.6328  0.3634  0.1575
  800MOL0     C 5525   0.280   6.269   1.317 -0.1658  0.1536  0.1708
  800MOL0     O 5526   0.247   6.171   1.226  0.7861 -0.6684  0.4501
  800MOL0     C 5527   0.359   6.094   1.171 -0.2720 -0.4573  1.1024
  800MOL0     C 5528   0.313   5.993   1.062  0.0564  0.1088  0.5841
  800MOL0     C 5529   0.202   5.906   1.106 -0.5408  1.1451 -0.6582
  800MOL0     C 5530   0.254   5.827   1.234 -0.7597  0.0123 -0.1566
  800MOL0     C 5531   0.174   5.706   1.257 -1.2207  0.4906  0.7164
  800MOL0     C 5532   0.107   5.610   1.283 -0.1970  1.3500 -0.9152
  800MOL0     C 5533   0.374   6.376   1.309 -0.8578  0.4932  0.3448
  800MOL0     C 5534   0.385   6.467   1.412  0.1870  0.1848 -0.3127
  800MOL0     H 5535   0.253   6.832   1.717 -1.7346  0.6510  0.4978
  800MOL0     H 5536   0.262   6.968   1.898  0.5082  0.5899  1.3009
  800MOL0     H 5537   0.308   6.812   2.312 -1.5337 -2.5364 -3.0580
  800MOL0     H 5538   0.131   6.814   2.300  1.8446 -3.5303  1.0493
  800MOL0     H 5539   0.328   7.036   2.390  0.0924 -0.6470  1.4881
  800MOL0     H 5540   0.222   6.939   2.493  0.7943 -3.0973 -1.3331
  800MOL0     H 5541   0.133   7.151   2.295 -1.1376 -0.4896 -0.5705
  800MOL0     H 5542   0.170   7.180   2.465  0.1893  0.3359  0.2836
  800MOL0     H 5543  -0.012   6.959   2.455 -0.0736  1.0086  3.4938
  800MOL0     H 5544  -0.053   7.125   2.499  0.5890 -1.5689  1.4676
  800MOL0     H 5545  -0.053   7.056   2.204  0.8017  0.4054  0.4333
  800MOL0     H 5546  -0.102   7.203   2.283  3.7768  0.0360  0.6689
  800MOL0     H 5547  -0.311   7.075   2.366  1.5616  3.4830 -1.2643
  800MOL0     H 5548  -0.242   6.914   2.307  4.7537  0.5001  3.6601
  800MOL0     H 5549  -0.248   6.968   2.081 -1.2432  0.6032 -2.1140
  800MOL0     H 5550  -0.413   6.974   2.155 -0.6021 -0.0398 -2.9291
  800MOL0     H 5551  -0.216   7.204   2.083 -0.6183 -1.2385 -1.1010
  800MOL0     H 5552  -0.370   7.238   2.152 -0.3173  0.7243 -1.3886
  800MOL0     H 5553  -0.209   7.133   1.825  0.4148  1.9427  1.3984
  800MOL0     H 5554  -0.409   7.049   1.536  1.9571 -0.5192 -0.9471
  800MOL0     H 5555  -0.267   7.139   1.605 -0.0189  2.9813  2.5324
  800MOL0     H 5556  -0.531   7.247   1.530 -0.8807 -0.4168 -2.0028
  800MOL0     H 5557  -0.392   7.262   1.422  4.1511 -2.3835  0.6854
  800MOL0     H 5558  -0.431   7.401   1.675 -3.7633 -0.1573 -1.9700
  800MOL0     H 5559  -0.260   7.367   1.600  1.1224  0.4615 -0.4722
  800MOL0     H 5560  -0.496   7.517   1.485  0.6221  2.6861  2.4280
  800MOL0     H 5561  -0.338   7.494   1.395 -0.6842  0.5559 -0.3941
  800MOL0     H 5562  -0.304   7.844   1.646  0.5428 -0.1148  0.6159
  800MOL0     H 5563  -0.104   7.974   1.619 -0.8332 -0.7702  0.5333
  800MOL0     H 5564   0.176   8.098   1.264  1.8125  1.8275 -2.8672
  800MOL0     H 5565   0.337   8.256   1.206  1.0729  1.1584  1.0932
  800MOL0     H 5566   0.722   8.366   1.300 -0.7662  0.5611  2.4378
  800MOL0     H 5567   0.572   8.343   1.382  1.2444 -0.5389 -0.0019
  800MOL0     H 5568   0.579   8.553   1.283  4.5928 -3.3082  3.2532
  800MOL0     H 5569   0.458   8.447   1.193 -0.0115 -3.1616 -0.6909
  800MOL0     H 5570   0.628   8.430   1.009 -2.0496  2.8576 -2.0420
  800MOL0     H 5571   0.729   8.547   1.078 -0.3503 -0.5781 -2.6326
  800MOL0     H 5572   0.541   8.704   1.080  1.3601 -0.6554  1.5166
  800MOL0     H 5573   0.602   8.636   0.924 -1.1505 -2.5971 -1.4186
  800MOL0     H 5574   0.339   8.540   1.046  2.3871  0.5205  2.9041
  800MOL0     H 5575   0.422   8.483   0.902 -1.4663  1.6747 -4.1201
  800MOL0     H 5576   0.389   8.766   0.881  1.6201 -2.0753 -2.8938
  800MOL0     H 5577   0.236   8.715   0.931 -0.6276 -0.0583 -1.2287
  800MOL0     H 5578   0.391   8.589   0.704 -1.3606  0.5622 -2.7224
  800MOL0     H 5579   0.214   8.569   0.731  0.5082 -1.8497 -0.7087
  800MOL0     H 5580   0.244   8.739   0.561  4.3023 -0.0335 -2.6597
  800MOL0     H 5581   0.365   8.824   0.663  0.9470 -2.6041  4.3290
  800MOL0     H 5582   0.655   8.017   1.360  0.5443  1.9652  1.3657
  800MOL0     H 5583   0.474   7.869   1.474  3.6773  0.0126 -0.8024
  800MOL0     H 5584   0.105   7.632   1.449  0.4918 -0.6826  0.1912
  800MOL0     H 5585  -0.134   7.517   1.439 -1.8212  0.4306  1.7712
  800MOL0     H 5586   0.200   6.634   2.176 -0.0884 -0.9062 -0.0176
  800MOL0     H 5587   0.208   6.487   1.982 -3.3182  0.1123 -3.4019
  800MOL0     H 5588   0.154   6.331   1.627 -3.8696 -1.3798 -2.1585
  800MOL0     H 5589   0.152   6.167   1.450  2.1671 -1.7909  1.1577
  800MOL0     H 5590   0.420   6.048   1.249  3.3601  0.7551 -0.7852
  800MOL0     H 5591   0.432   6.160   1.123 -1.4875  1.9508  2.3998
  800MOL0     H 5592   0.281   6.044   0.971  0.4779 -2.3227 -1.0286
  800MOL0     H 5593   0.384   5.915   1.029 -2.0433 -0.8845 -1.9531
  800MOL0     H 5594   0.165   5.834   1.033 -3.4553  0.0473  1.6736
  800MOL0     H 5595   0.116   5.964   1.142 -0.6554 -0.4549  1.9094
  800MOL0     H 5596   0.359   5.800   1.217 -0.3994  2.2073 -1.9398
  800MOL0     H 5597   0.258   5.903   1.312 -1.1895 -0.2635  0.1373
  800MOL0     H 5598   0.055   5.523   1.315 -1.2137  2.0932 -0.4851
  800MOL0     H 5599   0.431   6.385   1.217 -0.5095 -1.5732  0.3115
  800MOL0     H 5600   0.466   6.538   1.397 -0.3228  0.6561 -0.9232
  801MOL0     O 5601   0.523   3.582   1.179 -0.5439 -0.2719 -0.3349
  801MOL0     C 5602   0.455   3.677   1.141  0.1739  0.3622  0.1748
  801MOL0     O 5603   0.398   3.687   1.013  0.7217  0.3581  0.4421
  801MOL0     C 5604   0.414   3.569   0.932  0.3607 -0.6722 -0.5081
  801MOL0     C 5605   0.539   3.523   0.883  0.7340  1.2921 -0.1808
  801MOL0     C 5606   0.544   3.407   0.807  0.0342  0.3889 -0.3921
  801MOL0     C 5607   0.430   3.324   0.788  0.2677 -0.2020  0.2422
  801MOL0     O 5608   0.449   3.205   0.733 -0.7768  0.0867  0.2290
  801MOL0     C 5609   0.433   3.099   0.827 -0.0486  0.2692 -0.5078
  801MOL0     C 5610   0.452   2.959   0.760 -0.3957  1.3821  0.4751
  801MOL0     C 5611   0.378   2.946   0.624 -1.1895  0.0571  0.2360
  801MOL0     C 5612   0.405   2.810   0.563 -1.4911  0.4248  0.4409
  801MOL0     C 5613   0.307   2.754   0.469  0.1803  0.5789 -0.4487
  801MOL0     C 5614   0.319   2.804   0.328 -0.2175 -0.6459 -0.0428
  801MOL0     C 5615   0.227   2.749   0.225  0.3821  0.1493 -0.4473
  801MOL0     C 5616   0.195   2.843   0.116  0.8981 -0.0998  0.7575
  801MOL0     N 5617   0.130   2.779  -0.001 -0.1714  0.0039 -0.2099
  801MOL0     C 5618   0.020   2.694  -0.009  0.6140 -0.0796 -0.7468
  801MOL0     C 5619   0.037   2.610  -0.122 -0.6622  0.0008 -0.7808
  801MOL0     C 5620  -0.060   2.515  -0.178 -0.0560 -0.0669 -0.5512
  801MOL0     C 5621  -0.111   2.544  -0.321 -0.5711  0.1589  0.2111
  801MOL0     C 5622  -0.196   2.427  -0.372 -1.0478  0.1286 -0.5841
  801MOL0     C 5623  -0.117   2.297  -0.377 -0.0678  0.2362 -0.5789
  801MOL0     O 5624  -0.208   2.190  -0.416 -0.1910 -0.2649  0.0650
  801MOL0     C 5625  -0.255   2.099  -0.323 -0.3387 -0.0555  0.3821
  801MOL0     C 5626  -0.303   1.977  -0.372  0.4257 -0.8219  1.0891
  801MOL0     C 5627  -0.372   1.890  -0.293  0.3379  0.0212  0.5046
  801MOL0     C 5628  -0.365   1.897  -0.149 -0.1285 -0.1601  0.5473
  801MOL0     C 5629  -0.406   1.777  -0.056 -0.2840  0.0346  0.6307
  801MOL0     O 5630  -0.403   1.653  -0.122 -0.1541  0.3459 -1.0640
  801MOL0     C 5631  -0.421   1.537  -0.044 -0.0652 -0.1886  0.7821
  801MOL0     C 5632  -0.547   1.518   0.014  0.7012  0.7376  0.2984
  801MOL0     C 5633  -0.578   1.428   0.115 -0.1774 -0.1229  0.2104
  801MOL0     C 5634  -0.479   1.345   0.167 -0.3361 -0.7201  0.7222
  801MOL0     O 5635  -0.510   1.271   0.283 -0.3287 -0.0582 -0.0697
  801MOL0     C 5636  -0.433   1.148   0.294 -0.7157  0.0601 -0.1619
  801MOL0     C 5637  -0.527   1.035   0.331  0.8055  0.0311 -0.0934
  801MOL0     C 5638  -0.590   1.043   0.477 -0.4776 -0.7961  1.2432
  801MOL0     C 5639  -0.690   0.926   0.489 -0.6599  1.3900  0.4041
  801MOL0     C 5640  -0.759   0.954   0.618  0.0707 -0.1615  0.1647
  801MOL0     C 5641  -0.890   1.044   0.612  0.6760  0.0205  0.5776
  801MOL0     C 5642  -1.019   0.979   0.672 -0.0357  0.2616 -0.2084
  801MOL0     C 5643  -1.077   0.877   0.573  0.9972  0.4231  1.0449
  801MOL0    Cl 5644  -1.248   0.914   0.547 -0.4893 -0.1773 -0.0441
  801MOL0     C 5645  -0.345   1.356   0.103  0.5560 -0.0727  0.8297
  801MOL0     C 5646  -0.320   1.450  -0.006 -1.0852 -0.5997  0.9659
  801MOL0     O 5647  -0.409   1.801   0.065 -0.2626  0.3437 -0.6928
  801MOL0     C 5648  -0.319   2.021  -0.100  0.8469 -0.3706 -0.5200
  801MOL0     C 5649  -0.260   2.118  -0.187 -0.7248 -0.0548 -0.6604
  801MOL0     N 5650   0.154   2.641  -0.183  0.8626 -0.3590 -0.0407
  801MOL0     N 5651   0.217   2.729  -0.105  0.1599  0.0601 -0.4108
  801MOL0     C 5652   0.310   3.370   0.837 -0.6266 -0.0883 -0.3542
  801MOL0     C 5653   0.303   3.500   0.899  0.1260  0.1390  0.1816
  801MOL0     C 5654   0.417   3.775   1.247 -0.3013 -0.6558 -0.7340
  801MOL0     C 5655   0.351   3.899   1.221  0.8453  0.6825 -0.4140
  801MOL0     C 5656   0.321   3.989   1.322  0.3114 -0.6517  0.0546
  801MOL0     C 5657   0.338   3.954   1.455 -0.7604 -0.7041  0.1526
  801MOL0     O 5658   0.304   4.052   1.543  0.1288 -0.3086 -0.2998
  801MOL0     C 5659   0.253   4.027   1.670  0.1680  0.7502 -0.5696
  801MOL0     C 5660   0.156   4.136   1.710 -0.0775 -0.1911 -0.2494
  801MOL0     C 5661   0.145   4.136   1.866 -0.2064  1.0031  0.4173
  801MOL0     C 5662   0.022   4.221   1.904  0.4801  0.6473 -0.6924
  801MOL0     C 5663   0.002   4.358   1.858  0.2793 -0.5672 -0.4894
  801MOL0     C 5664  -0.013   4.481   1.844 -0.4969 -0.3142 -0.5090
  801MOL0     C 5665   0.400   3.828   1.488  0.2095  1.0457  0.1875
  801MOL0     C 5666   0.444   3.744   1.385 -0.4491  0.6205  0.3150
  801MOL0     H 5667   0.629   3.579   0.906  1.9112 -1.2364  1.9365
  801MOL0     H 5668   0.640   3.357   0.797 -0.1411  0.2362 -1.4982
  801MOL0     H 5669   0.341   3.099   0.885 -1.3510 -1.1999 -2.4474
  801MOL0     H 5670   0.518   3.115   0.895  0.2721 -1.9415 -0.3164
  801MOL0     H 5671   0.410   2.890   0.834  0.7077 -0.4442 -0.5581
  801MOL0     H 5672   0.559   2.945   0.743 -0.0366  2.5000  1.5812
  801MOL0     H 5673   0.409   3.031   0.562  2.2224  0.0290  1.6933
  801MOL0     H 5674   0.270   2.962   0.637 -1.1035 -0.5566  2.0179
  801MOL0     H 5675   0.502   2.816   0.512 -1.3062 -0.3033  0.6927
  801MOL0     H 5676   0.417   2.744   0.650 -0.1840  1.2652  0.9272
  801MOL0     H 5677   0.208   2.788   0.501 -1.8983 -0.6940 -4.7867
  801MOL0     H 5678   0.312   2.644   0.469 -0.7595  0.5255  0.3662
  801MOL0     H 5679   0.419   2.794   0.285 -1.4352  0.6266 -3.4777
  801MOL0     H 5680   0.310   2.912   0.340 -1.3078 -0.8889  1.8981
  801MOL0     H 5681   0.262   2.651   0.191  3.2566  0.3601  1.5904
  801MOL0     H 5682   0.130   2.723   0.270  0.0116  1.8795 -0.1724
  801MOL0     H 5683   0.279   2.891   0.064 -1.8830  2.1068 -2.0586
  801MOL0     H 5684   0.142   2.932   0.150 -1.0649 -1.1413  0.5544
  801MOL0     H 5685  -0.058   2.700   0.067 -0.7492 -0.5144 -2.0598
  801MOL0     H 5686  -0.150   2.531  -0.119 -0.3317  1.1680 -1.2592
  801MOL0     H 5687  -0.012   2.420  -0.154  1.8042  1.2913  1.4182
  801MOL0     H 5688  -0.021   2.570  -0.377  0.1335  1.0030  1.6545
  801MOL0     H 5689  -0.175   2.631  -0.336 -0.8032 -0.2202 -1.0784
  801MOL0     H 5690  -0.284   2.403  -0.311 -1.5788 -0.3841 -1.5322
  801MOL0     H 5691  -0.230   2.456  -0.472  0.8268  0.6609 -1.1009
  801MOL0     H 5692  -0.064   2.273  -0.284  1.4627  0.1294 -1.4671
  801MOL0     H 5693  -0.041   2.311  -0.453  0.2352 -2.5468 -0.8761
  801MOL0     H 5694  -0.296   1.965  -0.480  2.7520 -1.0924  1.2349
  801MOL0     H 5695  -0.423   1.803  -0.333  0.3837  0.2178  0.0140
  801MOL0     H 5696  -0.633   1.574  -0.022 -0.5179 -0.8599  0.5968
  801MOL0     H 5697  -0.671   1.429   0.171 -1.7288 -1.9351 -2.1737
  801MOL0     H 5698  -0.355   1.165   0.368 -1.5819 -0.7703  0.9856
  801MOL0     H 5699  -0.387   1.113   0.201  0.0828  2.5136 -0.7429
  801MOL0     H 5700  -0.473   0.942   0.312  2.5647  0.6209  1.6355
  801MOL0     H 5701  -0.609   1.027   0.259  0.4195 -0.3998  0.3908
  801MOL0     H 5702  -0.645   1.137   0.492  0.7128  0.6098 -2.0523
  801MOL0     H 5703  -0.509   1.040   0.550  2.3507  0.3668 -1.5646
  801MOL0     H 5704  -0.755   0.917   0.402  2.2652 -1.1264 -1.7516
  801MOL0     H 5705  -0.628   0.836   0.499  0.0598  0.9510 -5.0976
  801MOL0     H 5706  -0.682   0.990   0.688  0.8219 -0.8434 -0.2923
  801MOL0     H 5707  -0.795   0.865   0.670 -1.5957  1.5822  2.1854
  801MOL0     H 5708  -0.909   1.078   0.510 -0.8136 -1.2290  0.3999
  801MOL0     H 5709  -0.869   1.136   0.667 -0.1793 -0.6898  2.1936
  801MOL0     H 5710  -1.006   0.938   0.772  2.6180 -2.0152 -1.3591
  801MOL0     H 5711  -1.095   1.057   0.682 -3.3604 -2.9644  3.2375
  801MOL0     H 5712  -1.074   0.775   0.614 -2.4909  0.4169  1.5861
  801MOL0     H 5713  -1.019   0.877   0.480 -0.5013 -1.3993  0.0152
  801MOL0     H 5714  -0.267   1.292   0.141 -1.3457 -3.2631 -0.2947
  801MOL0     H 5715  -0.219   1.462  -0.044 -0.0229 -2.5670  2.9394
  801MOL0     H 5716  -0.320   2.045   0.006  0.8334  3.0210 -1.1861
  801MOL0     H 5717  -0.212   2.202  -0.139  0.4056 -1.3704  0.6101
  801MOL0     H 5718   0.225   3.302   0.828  1.6069 -3.4191  1.5429
  801MOL0     H 5719   0.209   3.526   0.947 -0.1439  0.8764 -0.7128
  801MOL0     H 5720   0.330   3.922   1.117 -1.5233 -0.9890 -0.4162
  801MOL0     H 5721   0.275   4.083   1.295  0.9985 -0.9710 -2.4949
  801MOL0     H 5722   0.327   4.023   1.750  1.1172 -4.0171 -1.3363
  801MOL0     H 5723   0.194   3.935   1.664  0.5639  0.2082  2.3583
  801MOL0     H 5724   0.207   4.226   1.677  2.8477 -2.1287 -1.4864
  801MOL0     H 5725   0.055   4.131   1.668 -0.0616  1.4476 -0.5248
  801MOL0     H 5726   0.231   4.181   1.917 -0.6612  0.5041  1.6753
  801MOL0     H 5727   0.137   4.035   1.909 -0.0374 -0.4130 -2.5959
  801MOL0     H 5728  -0.065   4.168   1.867 -0.4736  0.2630  1.8891
  801MOL0     H 5729   0.001   4.228   2.011 -1.2650  0.4249 -1.0060
  801MOL0     H 5730  -0.031   4.586   1.837 -1.9550 -0.6217 -2.3445
  801MOL0     H 5731   0.415   3.804   1.592  0.4121 -2.0167 -0.4495
  801MOL0     H 5732   0.503   3.655   1.404 -0.1816  0.4979 -0.9890
  802MOL0     O 5733   7.799   6.380   0.955  0.0027  0.0472  0.0640
  802MOL0     C 5734   7.856   6.281   1.005 -0.4649  0.6677  0.7889
  802MOL0     O 5735   7.928   6.283   1.121 -0.8725 -0.1283 -0.6653
  802MOL0     C 5736   7.927   6.396   1.202 -0.9520 -0.0844  0.3013
  802MOL0     C 5737   7.816   6.490   1.215  0.1495 -0.5549  0.8483
  802MOL0     C 5738   7.824   6.583   1.319  0.3152  0.4328 -0.2202
  802MOL0     C 5739   7.924   6.601   1.406 -0.4754  0.5002 -0.0594
  802MOL0     O 5740   7.931   6.693   1.512 -0.0420 -0.2624  0.0677
  802MOL0     C 5741   7.998   6.659   1.633  0.2472 -0.5605  0.6565
  802MOL0     C 5742   7.928   6.696   1.761 -0.4292  0.3399 -0.3600
  802MOL0     C 5743   7.990   6.626   1.881 -0.0356  0.4192  0.7293
  802MOL0     C 5744   7.998   6.701   2.007  0.8763  0.5629  0.0550
  802MOL0     C 5745   8.029   6.613   2.130 -0.0654 -0.3602  0.4483
  802MOL0     C 5746   8.162   6.545   2.132 -0.1492  0.5800 -0.2723
  802MOL0     C 5747   8.192   6.435   2.242  0.0764  0.3630 -0.4014
  802MOL0     C 5748   8.159   6.484   2.385  0.2882 -0.1979  0.4363
  802MOL0     N 5749   8.205   6.395   2.497 -0.1534 -0.5873  0.3404
  802MOL0     C 5750   8.174   6.264   2.536 -0.3786 -0.2953  0.1388
  802MOL0     C 5751   8.232   6.253   2.653  1.0448  0.6101 -0.3891
  802MOL0     C 5752   8.219   6.125   2.740  0.1965  0.3010 -0.3761
  802MOL0     C 5753   8.139   6.157   2.870 -0.5250  0.2513 -1.0907
  802MOL0     C 5754   8.247   6.216   2.966  0.1220 -0.0192 -0.3158
  802MOL0     C 5755   8.193   6.249   3.103 -0.6997  0.1050 -0.2770
  802MOL0     O 5756   8.136   6.139   3.174 -0.8824 -0.1779  0.1224
  802MOL0     C 5757   8.049   6.163   3.272 -0.1691  0.3046  1.1306
  802MOL0     C 5758   7.927   6.217   3.238 -0.3683 -0.2562  0.5642
  802MOL0     C 5759   7.829   6.226   3.335 -0.2713 -1.3211  0.2616
  802MOL0     C 5760   7.852   6.175   3.470 -0.3228 -0.1765  0.4559
  802MOL0     C 5761   7.754   6.196   3.580 -0.3395 -0.1526 -0.2353
  802MOL0     O 5762   7.665   6.289   3.579 -0.4922 -0.1187  0.3789
  802MOL0     C 5763   7.587   6.313   3.688  0.0737 -0.1665  0.3420
  802MOL0     C 5764   7.499   6.212   3.741 -0.1270 -0.0448 -0.3285
  802MOL0     C 5765   7.424   6.229   3.863 -0.6072  0.3465 -0.1042
  802MOL0     C 5766   7.430   6.356   3.923 -0.2839  0.6503  0.4677
  802MOL0     O 5767   7.372   6.390   4.038 -0.0119  0.1191  0.5062
  802MOL0     C 5768   7.293   6.287   4.102  0.4039 -0.7672 -0.0923
  802MOL0     C 5769   7.215   6.341   4.228  0.4932  0.3198 -0.5569
  802MOL0     C 5770   7.293   6.412   4.335  0.0350 -0.4666 -0.2938
  802MOL0     C 5771   7.367   6.326   4.441 -0.2603  0.4682  0.4993
  802MOL0     C 5772   7.439   6.405   4.555 -0.1217  0.4192  0.0158
  802MOL0     C 5773   7.488   6.317   4.675  0.2536  0.3863 -0.1353
  802MOL0     C 5774   7.623   6.346   4.735 -0.0384 -0.8878 -0.1473
  802MOL0     C 5775   7.622   6.464   4.829  0.5822  1.1897  0.0613
  802MOL0    Cl 5776   7.623   6.625   4.737 -0.2826 -0.6023  0.0667
  802MOL0     C 5777   7.507   6.455   3.867  0.8155 -0.6286 -0.1462
  802MOL0     C 5778   7.583   6.434   3.751  0.1494 -0.2764 -0.3544
  802MOL0     O 5779   7.776   6.126   3.678  0.1231 -0.0534  0.6075
  802MOL0     C 5780   7.981   6.128   3.494 -0.5086  0.2567  0.2478
  802MOL0     C 5781   8.073   6.112   3.393  0.7665  0.1590 -0.4115
  802MOL0     N 5782   8.308   6.368   2.678 -0.2187 -1.8035 -1.0184
  802MOL0     N 5783   8.291   6.452   2.583  0.3351  0.2619 -0.2239
  802MOL0     C 5784   8.040   6.519   1.380 -0.3684  0.9000  0.2430
  802MOL0     C 5785   8.034   6.418   1.286  0.6052 -0.5861 -0.1759
  802MOL0     C 5786   7.845   6.154   0.926 -0.6056  0.8030  0.6320
  802MOL0     C 5787   7.783   6.142   0.800  0.2277  0.4718 -0.1889
  802MOL0     C 5788   7.791   6.024   0.719  0.5662 -0.5839  0.7125
  802MOL0     C 5789   7.864   5.916   0.762  0.3240  0.1806 -0.7359
  802MOL0     O 5790   7.883   5.807   0.684 -0.5860  0.2098  0.2303
  802MOL0     C 5791   8.014   5.812   0.630 -0.7282 -0.0813  0.5649
  802MOL0     C 5792   8.023   5.693   0.542  0.3997  0.2915 -0.1144
  802MOL0     C 5793   8.140   5.699   0.443 -0.2022 -0.0159  0.3466
  802MOL0     C 5794   8.153   5.568   0.358  1.0600 -0.1070  0.3308
  802MOL0     C 5795   8.063   5.567   0.243  1.4548  0.2293  0.7026
  802MOL0     C 5796   7.983   5.558   0.150 -0.9972  0.2148  0.3367
  802MOL0     C 5797   7.919   5.918   0.897 -0.1815  0.2959  0.0628
  802MOL0     C 5798   7.910   6.035   0.976 -0.1393 -0.1433 -0.1213
  802MOL0     H 5799   7.723   6.463   1.165  1.7645 -2.1437 -1.4568
  802MOL0     H 5800   7.742   6.642   1.360 -0.6385  1.1368 -2.9416
  802MOL0     H 5801   8.098   6.701   1.621  0.0664 -0.3896 -0.3253
  802MOL0     H 5802   7.999   6.550   1.641  0.8070 -0.5544  0.7384
  802MOL0     H 5803   7.830   6.656   1.734  0.2850 -1.3017 -0.6236
  802MOL0     H 5804   7.926   6.804   1.775  0.5003  0.1140  1.8780
  802MOL0     H 5805   8.093   6.598   1.856  0.9629  2.6088  2.0571
  802MOL0     H 5806   7.948   6.525   1.887  1.8853 -0.4143  1.0755
  802MOL0     H 5807   8.090   6.758   1.990  0.8597  1.0927  1.6245
  802MOL0     H 5808   7.905   6.757   2.020  0.3948 -0.6313  2.3091
  802MOL0     H 5809   7.952   6.538   2.149 -0.6246 -1.2632 -4.1423
  802MOL0     H 5810   8.039   6.677   2.218 -0.5405 -1.7503  1.5598
  802MOL0     H 5811   8.239   6.622   2.146  0.9944 -0.5504 -0.1971
  802MOL0     H 5812   8.179   6.500   2.034  2.0867 -0.6724  0.6147
  802MOL0     H 5813   8.124   6.350   2.225  0.9465 -0.6801  1.1409
  802MOL0     H 5814   8.295   6.406   2.220  0.6889  0.1801  2.3500
  802MOL0     H 5815   8.050   6.484   2.386  0.1123  2.2851 -2.9262
  802MOL0     H 5816   8.195   6.588   2.389  2.6382 -0.9473  0.3476
  802MOL0     H 5817   8.087   6.205   2.508  0.2117 -0.5412 -1.2681
  802MOL0     H 5818   8.321   6.092   2.761  0.0031  1.6569  3.3500
  802MOL0     H 5819   8.164   6.046   2.688 -1.2026  3.0129 -3.3694
  802MOL0     H 5820   8.094   6.063   2.904 -1.5652  1.2354  0.3829
  802MOL0     H 5821   8.060   6.230   2.851  0.1931  1.1111 -0.8620
  802MOL0     H 5822   8.321   6.136   2.973 -1.3231 -1.4734 -1.0847
  802MOL0     H 5823   8.289   6.312   2.934 -1.1153  0.7964  0.4289
  802MOL0     H 5824   8.123   6.333   3.099 -0.6201  0.2728  1.2921
  802MOL0     H 5825   8.279   6.295   3.153 -0.8358  1.5248 -1.2833
  802MOL0     H 5826   7.906   6.248   3.136  1.0603 -0.6001  0.1404
  802MOL0     H 5827   7.732   6.260   3.300  2.0229  3.4802 -2.4734
  802MOL0     H 5828   7.488   6.116   3.691 -1.0227  0.2480 -0.7069
  802MOL0     H 5829   7.367   6.148   3.909 -1.8475  0.9564 -0.5384
  802MOL0     H 5830   7.361   6.207   4.132  0.0124 -0.8344  0.6186
  802MOL0     H 5831   7.222   6.240   4.033  0.8606 -0.2988 -0.9099
  802MOL0     H 5832   7.153   6.261   4.268  1.9763 -0.0629  1.0968
  802MOL0     H 5833   7.154   6.424   4.192 -2.6010 -1.0036  1.3059
  802MOL0     H 5834   7.225   6.471   4.397 -0.4827 -0.4042 -0.9051
  802MOL0     H 5835   7.363   6.483   4.290 -0.5595 -0.2375 -0.8679
  802MOL0     H 5836   7.286   6.273   4.491 -0.4957  0.4376  0.0892
  802MOL0     H 5837   7.441   6.255   4.401  3.0114  3.3520  0.9769
  802MOL0     H 5838   7.361   6.474   4.589 -1.7883 -0.8918 -0.9909
  802MOL0     H 5839   7.518   6.468   4.515  2.2528 -1.4584  1.4607
  802MOL0     H 5840   7.483   6.213   4.643  1.9847 -0.0561  0.8922
  802MOL0     H 5841   7.422   6.322   4.762  1.2522  0.0255  0.6609
  802MOL0     H 5842   7.658   6.259   4.792 -2.2500  0.5571  3.7934
  802MOL0     H 5843   7.689   6.372   4.651 -0.7676 -1.9390 -1.0731
  802MOL0     H 5844   7.711   6.465   4.892 -0.7139 -0.0789  2.0273
  802MOL0     H 5845   7.535   6.448   4.893  0.8217 -1.9630 -0.2211
  802MOL0     H 5846   7.517   6.556   3.907 -1.3386  0.1524 -1.4530
  802MOL0     H 5847   7.631   6.523   3.712  2.3797 -1.1302  0.2377
  802MOL0     H 5848   7.995   6.078   3.589 -1.1130 -1.5719 -0.5800
  802MOL0     H 5849   8.160   6.050   3.409  0.6550  0.1770  0.3024
  802MOL0     H 5850   8.134   6.538   1.431 -1.8015  0.2685  3.3496
  802MOL0     H 5851   8.119   6.352   1.272 -0.7381 -1.9557 -2.5595
  802MOL0     H 5852   7.726   6.225   0.760  1.7299  1.3143 -0.6771
  802MOL0     H 5853   7.735   6.012   0.627  1.7646 -4.0263  0.2667
  802MOL0     H 5854   8.094   5.815   0.704 -0.0159  1.8655 -0.2207
  802MOL0     H 5855   8.029   5.898   0.564  3.0552 -2.5282 -2.1863
  802MOL0     H 5856   8.029   5.602   0.602 -1.5842  1.1157  1.4268
  802MOL0     H 5857   7.937   5.678   0.477  1.7006  2.3917 -2.5053
  802MOL0     H 5858   8.241   5.713   0.481  0.7382  0.0121 -1.9653
  802MOL0     H 5859   8.112   5.784   0.380 -0.8082 -0.5256 -0.0827
  802MOL0     H 5860   8.253   5.576   0.314  0.4970 -0.4328 -1.0508
  802MOL0     H 5861   8.143   5.485   0.429 -0.9597  0.3716  0.6662
  802MOL0     H 5862   7.909   5.551   0.072 -2.5253 -2.7002  1.8742
  802MOL0     H 5863   7.964   5.826   0.934 -3.5260 -1.0684  1.1497
  802MOL0     H 5864   7.960   6.048   1.071  1.8372 -1.4770 -0.9080
  803MOL0     O 5865   5.497   1.740   7.464 -0.6337  0.1639  0.5147
  803MOL0     C 5866   5.504   1.743   7.586 -0.0960 -0.5917  0.7651
  803MOL0     O 5867   5.523   1.861   7.659  0.1073 -0.5416 -0.8219
  803MOL0     C 5868   5.534   1.972   7.580 -0.6546 -0.1406 -0.7922
  803MOL0     C 5869   5.656   2.001   7.515  0.3103  0.5107 -0.1728
  803MOL0     C 5870   5.660   2.131   7.453  0.6401  0.0731  0.6445
  803MOL0     C 5871   5.551   2.214   7.451 -0.2204 -0.6998 -0.3391
  803MOL0     O 5872   5.553   2.335   7.387  0.3904 -0.2810 -0.3868
  803MOL0     C 5873   5.514   2.453   7.465  0.2497  0.4939  0.1928
  803MOL0     C 5874   5.552   2.597   7.413 -0.4936 -0.0398  0.3347
  803MOL0     C 5875   5.505   2.710   7.508 -0.1417  0.3448 -0.4317
  803MOL0     C 5876   5.568   2.845   7.478 -0.1925 -0.8797 -0.5156
  803MOL0     C 5877   5.726   2.831   7.491 -0.1491 -0.0595 -0.9233
  803MOL0     C 5878   5.799   2.969   7.468  0.1068  0.4611 -0.8780
  803MOL0     C 5879   5.899   3.029   7.575 -0.1089 -0.0445 -0.2200
  803MOL0     C 5880   5.999   2.916   7.617 -0.0454  0.3100 -0.2185
  803MOL0     N 5881   6.120   2.940   7.694  0.9707 -0.7394  0.6660
  803MOL0     C 5882   6.213   2.845   7.725  0.0748  0.8828 -0.1070
  803MOL0     C 5883   6.314   2.918   7.777 -0.5366 -0.1829 -0.3058
  803MOL0     C 5884   6.442   2.852   7.816 -0.7122 -0.6289  0.1288
  803MOL0     C 5885   6.471   2.703   7.771  0.9608  0.0434 -0.8298
  803MOL0     C 5886   6.496   2.679   7.617  0.6037  0.3787 -0.1430
  803MOL0     C 5887   6.583   2.551   7.606  0.1634  0.5833 -0.2183
  803MOL0     O 5888   6.505   2.427   7.618 -0.4852  0.0579 -0.6020
  803MOL0     C 5889   6.445   2.375   7.506  0.4698  0.5286 -0.1657
  803MOL0     C 5890   6.430   2.429   7.380  0.0475 -0.5314  0.6755
  803MOL0     C 5891   6.351   2.359   7.285 -0.0289  0.9590  0.4234
  803MOL0     C 5892   6.302   2.226   7.312 -0.2307  0.4587 -0.3838
  803MOL0     C 5893   6.239   2.135   7.213 -0.7886 -0.5796 -0.4093
  803MOL0     O 5894   6.148   2.195   7.126  0.1352  0.6582  0.6263
  803MOL0     C 5895   6.051   2.117   7.065 -0.2379  0.5207  0.0366
  803MOL0     C 5896   6.019   2.143   6.932 -0.1030 -0.6814 -0.6109
  803MOL0     C 5897   5.932   2.064   6.865 -0.4615 -0.0067  0.4543
  803MOL0     C 5898   5.858   1.965   6.924  0.8507  0.0986 -0.2867
  803MOL0     O 5899   5.760   1.902   6.845 -0.2233 -0.4809  0.2906
  803MOL0     C 5900   5.696   1.783   6.899 -0.2580  0.5149  1.1912
  803MOL0     C 5901   5.592   1.742   6.787 -0.5249  0.0389  0.2551
  803MOL0     C 5902   5.660   1.698   6.660 -0.3387 -0.0665 -0.0929
  803MOL0     C 5903   5.544   1.645   6.561  0.4302  0.3879 -0.1587
  803MOL0     C 5904   5.429   1.739   6.533 -0.1180  0.3659  0.6786
  803MOL0     C 5905   5.360   1.697   6.400 -0.0436  0.1030 -0.1100
  803MOL0     C 5906   5.279   1.821   6.344  0.2088  0.3517 -0.5703
  803MOL0     C 5907   5.209   1.787   6.211  0.5020  0.6307  0.6862
  803MOL0    Cl 5908   5.316   1.823   6.077 -0.3557 -0.0112 -0.1980
  803MOL0     C 5909   5.875   1.943   7.060  0.6843 -0.0620  0.2413
  803MOL0     C 5910   5.975   2.011   7.126 -0.2285 -0.5083 -1.0454
  803MOL0     O 5911   6.266   2.016   7.221 -0.2633 -0.1082 -0.0751
  803MOL0     C 5912   6.303   2.184   7.443  0.6544 -0.1814  0.2274
  803MOL0     C 5913   6.378   2.256   7.535 -0.4809 -0.7182 -0.7316
  803MOL0     N 5914   6.277   3.049   7.798 -0.4226 -0.1964 -0.7050
  803MOL0     N 5915   6.160   3.065   7.736  0.3222  1.3191 -0.0928
  803MOL0     C 5916   5.424   2.177   7.507  0.2242  0.2990 -0.9549
  803MOL0     C 5917   5.425   2.053   7.575  0.9150 -1.2368  0.4200
  803MOL0     C 5918   5.498   1.613   7.657  0.0342 -1.1019 -0.0755
  803MOL0     C 5919   5.487   1.481   7.592 -0.0949 -0.7962 -0.0428
  803MOL0     C 5920   5.487   1.365   7.676  0.0330 -0.4035  0.6761
  803MOL0     C 5921   5.500   1.374   7.816  0.1986 -0.1835 -0.0750
  803MOL0     O 5922   5.506   1.254   7.876 -0.5045  0.3808 -0.5597
  803MOL0     C 5923   5.522   1.252   8.025 -0.4187  0.4069 -0.6304
  803MOL0     C 5924   5.669   1.279   8.058  0.1184 -0.2677  0.7554
  803MOL0     C 5925   5.742   1.166   8.136  0.2327 -0.7375 -1.1770
  803MOL0     C 5926   5.830   1.081   8.046  0.4061 -0.0506  0.0874
  803MOL0     C 5927   5.876   0.958   8.120  0.3139  0.1370 -0.1222
  803MOL0     C 5928   5.883   0.850   8.180  0.0552 -0.2503  0.5988
  803MOL0     C 5929   5.492   1.503   7.881  0.1249 -0.3340  0.4346
  803MOL0     C 5930   5.495   1.615   7.797 -1.2357  0.7596 -0.1566
  803MOL0     H 5931   5.747   1.945   7.532 -0.6753 -0.8197  0.8854
  803MOL0     H 5932   5.746   2.158   7.393 -0.2990 -1.2573 -1.3716
  803MOL0     H 5933   5.546   2.436   7.568 -3.0248 -3.4074  0.8502
  803MOL0     H 5934   5.405   2.446   7.467  0.1580  0.1674 -2.3664
  803MOL0     H 5935   5.519   2.608   7.309  0.2470 -1.2521 -0.0547
  803MOL0     H 5936   5.658   2.594   7.389 -0.3391 -1.6776  1.0398
  803MOL0     H 5937   5.523   2.685   7.613 -0.2378  1.0545 -0.2404
  803MOL0     H 5938   5.396   2.717   7.496 -0.1419 -0.8127 -1.3124
  803MOL0     H 5939   5.540   2.882   7.379  1.7951  0.3419 -0.6791
  803MOL0     H 5940   5.526   2.918   7.548 -0.2049  1.1062 -2.4791
  803MOL0     H 5941   5.763   2.763   7.414 -2.8662 -2.5181 -0.2527
  803MOL0     H 5942   5.745   2.784   7.588 -1.3188  1.3773  0.0567
  803MOL0     H 5943   5.724   3.046   7.447 -1.9696 -1.3904 -0.6320
  803MOL0     H 5944   5.859   2.957   7.377  2.8915 -0.9729  1.0019
  803MOL0     H 5945   5.951   3.117   7.536 -2.2192  1.0858 -0.6430
  803MOL0     H 5946   5.843   3.061   7.664 -0.0623 -1.3232  0.2869
  803MOL0     H 5947   6.035   2.879   7.520 -1.4392  0.0934 -0.6797
  803MOL0     H 5948   5.950   2.834   7.670  0.6083  0.1914  0.2111
  803MOL0     H 5949   6.226   2.743   7.690  0.3810  2.4553 -5.5154
  803MOL0     H 5950   6.433   2.863   7.925 -0.9612  2.3297 -0.1251
  803MOL0     H 5951   6.515   2.912   7.761 -1.3550 -1.5181 -1.7787
  803MOL0     H 5952   6.374   2.658   7.793  1.4130 -1.9030 -2.5480
  803MOL0     H 5953   6.551   2.669   7.836  0.1316  0.0991  0.2411
  803MOL0     H 5954   6.400   2.676   7.565 -0.1252 -0.0086  1.1734
  803MOL0     H 5955   6.555   2.765   7.581 -0.3200  1.8742  1.7285
  803MOL0     H 5956   6.670   2.558   7.673 -0.6069 -2.0874  1.2295
  803MOL0     H 5957   6.623   2.547   7.504 -1.6798  1.5885 -1.0262
  803MOL0     H 5958   6.490   2.512   7.343 -0.5029 -0.5047 -0.1969
  803MOL0     H 5959   6.351   2.396   7.183 -0.5086 -1.1833 -0.4098
  803MOL0     H 5960   6.090   2.214   6.890 -0.6457 -0.7973 -1.7568
  803MOL0     H 5961   5.939   2.082   6.758  1.9098  3.6205  1.0675
  803MOL0     H 5962   5.649   1.787   6.997 -0.0644 -0.8487  1.3507
  803MOL0     H 5963   5.773   1.707   6.916 -0.2182  0.7776  2.2695
  803MOL0     H 5964   5.526   1.828   6.774 -1.8179 -1.0469 -0.5229
  803MOL0     H 5965   5.533   1.660   6.828  0.2809  0.4799  2.4488
  803MOL0     H 5966   5.724   1.613   6.686 -3.1721 -3.1369 -2.2715
  803MOL0     H 5967   5.723   1.776   6.616  1.9810 -2.8655 -2.1038
  803MOL0     H 5968   5.596   1.620   6.468  1.8329 -2.4008  1.2402
  803MOL0     H 5969   5.505   1.554   6.609  4.2170 -1.0476  0.5208
  803MOL0     H 5970   5.465   1.841   6.519  2.4532 -0.2915  1.9271
  803MOL0     H 5971   5.353   1.747   6.611  0.1533 -1.6822  1.2008
  803MOL0     H 5972   5.292   1.613   6.418 -1.5612  1.3684  0.2949
  803MOL0     H 5973   5.444   1.675   6.333  2.4176  0.9051  2.5106
  803MOL0     H 5974   5.201   1.851   6.414  0.3165  2.2611 -1.1872
  803MOL0     H 5975   5.340   1.907   6.315  0.5339  0.4876  0.4798
  803MOL0     H 5976   5.121   1.850   6.226  1.6836  1.8282  3.2416
  803MOL0     H 5977   5.171   1.685   6.208  0.7833  0.5443 -0.3638
  803MOL0     H 5978   5.819   1.873   7.121  0.8574  0.0170  0.4927
  803MOL0     H 5979   5.999   1.990   7.230 -3.3539 -3.6693 -0.7687
  803MOL0     H 5980   6.267   2.084   7.464  4.5028 -2.5839 -3.0406
  803MOL0     H 5981   6.384   2.219   7.637 -1.7541  1.6737  0.2828
  803MOL0     H 5982   5.334   2.236   7.512  0.7113  0.9381  2.9958
  803MOL0     H 5983   5.332   2.011   7.612  1.9899 -1.9279  2.4831
  803MOL0     H 5984   5.494   1.475   7.484 -0.2274 -4.0382  0.0263
  803MOL0     H 5985   5.486   1.264   7.635  1.8160 -0.7128  1.2901
  803MOL0     H 5986   5.501   1.148   8.053 -0.7131  0.5037 -0.4848
  803MOL0     H 5987   5.454   1.323   8.073 -0.1039 -0.4028  1.0958
  803MOL0     H 5988   5.736   1.293   7.974  1.3398 -2.2266  1.3282
  803MOL0     H 5989   5.670   1.369   8.120  0.4149 -0.4092  0.9618
  803MOL0     H 5990   5.672   1.092   8.176 -0.3476 -0.3548 -1.4735
  803MOL0     H 5991   5.795   1.206   8.224  2.3700 -4.6127 -0.4311
  803MOL0     H 5992   5.761   1.046   7.969 -0.6496 -2.1076  1.8689
  803MOL0     H 5993   5.909   1.128   7.986 -0.2650  0.6458 -0.2777
  803MOL0     H 5994   5.903   0.753   8.222 -0.1566  0.4180  2.3074
  803MOL0     H 5995   5.480   1.519   7.987 -0.7576 -2.3258  0.6811
  803MOL0     H 5996   5.492   1.712   7.846  1.1291  1.5360 -1.3666
  804MOL0     O 5997   9.875   8.838   7.656  0.2115  0.3537  0.4346
  804MOL0     C 5998   9.965   8.893   7.602  0.8088 -0.3478 -0.1087
  804MOL0     O 5999   9.954   8.978   7.497  0.5309 -0.1989 -0.0169
  804MOL0     C 6000   9.835   9.042   7.461  0.0334  0.0257  0.3352
  804MOL0     C 6001   9.757   9.011   7.347 -0.0066  0.4979 -0.0217
  804MOL0     C 6002   9.632   9.071   7.313  0.2855  0.3035 -0.7274
  804MOL0     C 6003   9.579   9.157   7.412  0.9677 -1.0136 -0.0874
  804MOL0     O 6004   9.460   9.217   7.414  0.3630  0.4507 -0.6857
  804MOL0     C 6005   9.375   9.217   7.306  1.1260 -0.3208 -0.0701
  804MOL0     C 6006   9.243   9.280   7.343 -0.4510  0.4695 -0.8902
  804MOL0     C 6007   9.147   9.271   7.227 -0.2719  0.1519  0.5971
  804MOL0     C 6008   9.062   9.143   7.211 -0.3996  0.6585 -0.7145
  804MOL0     C 6009   8.988   9.137   7.084 -0.6828 -0.4294  0.6962
  804MOL0     C 6010   8.875   9.032   7.062  0.4575  0.2455 -0.4276
  804MOL0     C 6011   8.930   8.891   7.050  0.3225 -0.3185 -0.3496
  804MOL0     C 6012   8.825   8.792   6.987  0.5451 -0.0584  0.6029
  804MOL0     N 6013   8.735   8.737   7.076 -0.2561 -0.0265 -1.0499
  804MOL0     C 6014   8.731   8.605   7.118 -0.4168  0.6425  0.0337
  804MOL0     C 6015   8.614   8.598   7.183  0.0543 -0.0347 -0.3198
  804MOL0     C 6016   8.545   8.482   7.239 -0.3917 -0.5554  0.3142
  804MOL0     C 6017   8.609   8.438   7.374  0.3096  0.4266  0.9894
  804MOL0     C 6018   8.750   8.401   7.357 -0.1955 -0.0951 -1.1414
  804MOL0     C 6019   8.808   8.326   7.471 -0.1575 -0.7274 -0.9656
  804MOL0     O 6020   8.825   8.430   7.575 -0.3758  0.3733  0.1981
  804MOL0     C 6021   8.950   8.435   7.637  0.2700 -1.2690  1.3414
  804MOL0     C 6022   9.068   8.399   7.586 -0.7570 -0.1068 -0.0361
  804MOL0     C 6023   9.186   8.380   7.653  0.7537  0.3564 -0.0230
  804MOL0     C 6024   9.182   8.425   7.793  0.2574  0.3548  0.4304
  804MOL0     C 6025   9.304   8.413   7.883 -0.2190  0.4184  0.7252
  804MOL0     O 6026   9.291   8.425   8.017 -0.0450 -0.4816 -0.7230
  804MOL0     C 6027   9.410   8.408   8.083 -0.2122 -0.8380 -0.5934
  804MOL0     C 6028   9.490   8.516   8.104 -1.1364 -0.6552 -0.4078
  804MOL0     C 6029   9.610   8.496   8.171 -0.0702  0.2064  0.4625
  804MOL0     C 6030   9.656   8.373   8.216  0.2607  0.0691 -0.6574
  804MOL0     O 6031   9.777   8.356   8.276  0.4877 -0.8223  0.3656
  804MOL0     C 6032   9.776   8.295   8.405  0.9279  0.6512 -0.8384
  804MOL0     C 6033   9.695   8.379   8.512 -1.0253  0.3029 -0.4614
  804MOL0     C 6034   9.648   8.288   8.632 -0.3891 -0.1149  0.3549
  804MOL0     C 6035   9.765   8.238   8.705  0.1309  0.3775 -0.8816
  804MOL0     C 6036   9.718   8.139   8.807 -0.5245 -0.4705 -0.3434
  804MOL0     C 6037   9.835   8.069   8.878  0.7716  0.6732  0.5743
  804MOL0     C 6038   9.787   8.025   9.015 -0.8585 -0.4019  0.7253
  804MOL0     C 6039   9.676   7.923   9.011  0.0489 -0.3984  1.2247
  804MOL0    Cl 6040   9.609   7.872   9.158 -0.3652 -0.1246 -0.4656
  804MOL0     C 6041   9.558   8.269   8.215  0.0876 -0.2233  1.3615
  804MOL0     C 6042   9.444   8.290   8.147 -0.0974  0.4867  0.3213
  804MOL0     O 6043   9.410   8.415   7.817 -0.0329  0.6568 -0.9100
  804MOL0     C 6044   9.055   8.469   7.846 -0.7962 -0.0600 -0.6437
  804MOL0     C 6045   8.939   8.470   7.770  0.3934 -0.3467  0.5646
  804MOL0     N 6046   8.551   8.725   7.191 -0.0148  0.3524  0.1615
  804MOL0     N 6047   8.630   8.805   7.122  0.0883 -0.1899 -0.5691
  804MOL0     C 6048   9.652   9.178   7.528  0.5267 -0.7810 -0.6876
  804MOL0     C 6049   9.775   9.130   7.543 -1.0592 -0.3018  0.3375
  804MOL0     C 6050  10.101   8.850   7.645 -0.5586 -0.3864  0.7772
  804MOL0     C 6051  10.218   8.912   7.592 -0.1830  0.1443 -0.5801
  804MOL0     C 6052  10.344   8.882   7.647 -0.1997 -0.7474  0.0701
  804MOL0     C 6053  10.359   8.780   7.747 -0.4372  0.1778  0.6445
  804MOL0     O 6054  10.476   8.746   7.811 -0.4263  0.9059  0.5793
  804MOL0     C 6055  10.602   8.812   7.763  0.3417  0.5755  0.1394
  804MOL0     C 6056  10.627   8.952   7.818 -0.4659  0.3384 -0.0189
  804MOL0     C 6057  10.750   9.014   7.745  0.1325 -0.8165  0.7582
  804MOL0     C 6058  10.790   9.146   7.809  0.7119 -0.1991  0.1305
  804MOL0     C 6059  10.914   9.205   7.762 -0.5441  0.0577 -0.3166
  804MOL0     C 6060  11.025   9.228   7.706 -0.0959 -0.3811 -0.3793
  804MOL0     C 6061  10.240   8.703   7.776 -0.6536  0.5461 -0.1755
  804MOL0     C 6062  10.115   8.740   7.728 -0.3883  0.5727  0.3041
  804MOL0     H 6063   9.815   8.945   7.282 -0.1615 -0.8072  1.1225
  804MOL0     H 6064   9.569   9.044   7.229  1.2923  0.4208 -1.5403
  804MOL0     H 6065   9.353   9.113   7.278  0.8510 -0.1218 -0.6007
  804MOL0     H 6066   9.416   9.265   7.217  0.7134 -1.9444 -1.1818
  804MOL0     H 6067   9.256   9.383   7.378 -3.4653 -0.1276  2.6388
  804MOL0     H 6068   9.192   9.225   7.423  0.2981 -1.4326 -1.6654
  804MOL0     H 6069   9.210   9.290   7.140 -0.5768 -0.1826  0.3058
  804MOL0     H 6070   9.077   9.355   7.229 -1.7658 -0.9736 -1.1255
  804MOL0     H 6071   9.130   9.058   7.204 -0.4924  0.5470 -0.3029
  804MOL0     H 6072   8.997   9.130   7.298 -0.8067 -0.6598 -1.1865
  804MOL0     H 6073   9.052   9.129   6.995  0.6725  4.2399  0.9752
  804MOL0     H 6074   8.949   9.236   7.059  2.3411  0.6282 -0.2395
  804MOL0     H 6075   8.818   9.059   6.973 -0.9772 -1.6408 -0.1465
  804MOL0     H 6076   8.803   9.045   7.143 -0.7877  1.5214 -1.6888
  804MOL0     H 6077   9.022   8.894   6.991  0.6349  1.6771  0.1619
  804MOL0     H 6078   8.967   8.850   7.145  1.7357  2.0222  0.2031
  804MOL0     H 6079   8.882   8.707   6.947  3.0489 -0.0624  3.7791
  804MOL0     H 6080   8.767   8.834   6.905  1.9556 -3.4372 -2.4317
  804MOL0     H 6081   8.803   8.529   7.091 -1.4223 -0.8855  1.4681
  804MOL0     H 6082   8.548   8.394   7.175  0.8202 -0.7122  0.5569
  804MOL0     H 6083   8.442   8.516   7.250 -0.1446  0.0776  0.7454
  804MOL0     H 6084   8.553   8.354   7.416 -1.4124  0.2359 -1.4727
  804MOL0     H 6085   8.597   8.515   7.451 -1.3118 -0.7940  2.0169
  804MOL0     H 6086   8.771   8.340   7.269 -1.4346 -0.8722 -0.9241
  804MOL0     H 6087   8.806   8.495   7.361  3.0202 -1.7750 -2.4257
  804MOL0     H 6088   8.898   8.271   7.442  0.3715  0.3581 -1.4537
  804MOL0     H 6089   8.736   8.250   7.503 -0.6001 -0.3953 -1.1498
  804MOL0     H 6090   9.071   8.363   7.484 -0.3298 -0.5637  0.1345
  804MOL0     H 6091   9.279   8.338   7.619  0.5067  0.4322 -0.8205
  804MOL0     H 6092   9.455   8.618   8.091  2.3448  1.0375  1.9042
  804MOL0     H 6093   9.669   8.586   8.179 -0.5753  0.7143 -1.2262
  804MOL0     H 6094   9.881   8.269   8.421  1.2011  0.6275 -2.5258
  804MOL0     H 6095   9.724   8.200   8.399  1.0279  0.4787  0.6663
  804MOL0     H 6096   9.601   8.420   8.472 -2.2854 -0.5353  1.4707
  804MOL0     H 6097   9.768   8.453   8.547 -2.8787  2.6355 -1.2709
  804MOL0     H 6098   9.595   8.202   8.590 -1.0749  0.4111  0.1215
  804MOL0     H 6099   9.572   8.339   8.692  0.4163 -0.3602  1.6387
  804MOL0     H 6100   9.840   8.181   8.649  0.5948 -0.3963  0.4855
  804MOL0     H 6101   9.810   8.324   8.755 -2.0569  2.7922 -2.7977
  804MOL0     H 6102   9.663   8.060   8.753 -2.5953  1.9847 -2.0957
  804MOL0     H 6103   9.652   8.197   8.872 -0.1948 -0.3115 -0.1562
  804MOL0     H 6104   9.925   8.130   8.889  1.1746  0.5309 -1.5436
  804MOL0     H 6105   9.865   7.990   8.809 -1.1469  1.5779 -1.4193
  804MOL0     H 6106   9.867   7.958   9.048 -2.1552 -1.7893  1.1897
  804MOL0     H 6107   9.764   8.102   9.089 -1.2299 -0.6791  0.9040
  804MOL0     H 6108   9.710   7.840   8.947 -0.5118  0.0485  0.3311
  804MOL0     H 6109   9.588   7.964   8.960  0.5472 -0.1773  0.5291
  804MOL0     H 6110   9.566   8.171   8.262 -3.2681 -0.0082  2.6713
  804MOL0     H 6111   9.379   8.207   8.124 -1.2421  0.7146  2.4840
  804MOL0     H 6112   9.046   8.498   7.950 -0.5834  0.3561 -0.7385
  804MOL0     H 6113   8.837   8.494   7.798 -0.0917 -0.2582 -1.1482
  804MOL0     H 6114   9.605   9.249   7.595  1.4998 -0.6172 -0.1640
  804MOL0     H 6115   9.829   9.158   7.633 -0.4240 -0.7359  0.1028
  804MOL0     H 6116  10.212   8.980   7.508  1.8868  1.3477  0.1585
  804MOL0     H 6117  10.416   8.945   7.595 -0.5603  0.2172  0.7231
  804MOL0     H 6118  10.605   8.815   7.654 -2.8056  0.9946 -0.0394
  804MOL0     H 6119  10.683   8.750   7.803  0.4405  2.1095  2.5060
  804MOL0     H 6120  10.538   9.007   7.788 -1.5485 -2.1888 -1.8934
  804MOL0     H 6121  10.647   8.954   7.925  1.8995  2.3916 -0.4227
  804MOL0     H 6122  10.721   9.037   7.642  1.2175  0.5991  0.7441
  804MOL0     H 6123  10.838   8.951   7.764  2.6254  3.3330  5.1030
  804MOL0     H 6124  10.710   9.217   7.789 -2.5733 -2.8228  2.8332
  804MOL0     H 6125  10.793   9.130   7.917  0.2817 -1.2577  0.0016
  804MOL0     H 6126  11.120   9.269   7.675  0.2799  0.4194  1.7007
  804MOL0     H 6127  10.254   8.631   7.856 -0.7915  1.0830  0.3382
  804MOL0     H 6128  10.029   8.692   7.774  0.9137 -0.2667  2.0208
  805MOL0     O 6129   6.680   6.255   2.383 -0.5083  0.3717 -0.7376
  805MOL0     C 6130   6.565   6.244   2.351 -0.2233 -0.3384  0.6974
  805MOL0     O 6131   6.458   6.312   2.409 -1.4571  0.4964  0.2855
  805MOL0     C 6132   6.486   6.409   2.507  0.0761 -0.1265 -0.1891
  805MOL0     C 6133   6.595   6.492   2.518  0.1376 -0.3161  0.3268
  805MOL0     C 6134   6.619   6.566   2.636  0.3893  0.4357  0.6325
  805MOL0     C 6135   6.533   6.569   2.745  0.3542  0.3024 -0.2013
  805MOL0     O 6136   6.571   6.646   2.853  0.6260 -0.1064  0.0805
  805MOL0     C 6137   6.483   6.665   2.972  0.6012 -0.0447  0.7367
  805MOL0     C 6138   6.527   6.795   3.033  1.0582  0.4842 -0.3290
  805MOL0     C 6139   6.477   6.818   3.170  0.7909 -0.2560 -0.4042
  805MOL0     C 6140   6.570   6.892   3.266  0.6314  0.2482  0.5067
  805MOL0     C 6141   6.482   6.939   3.381 -0.2131 -0.1258 -0.1321
  805MOL0     C 6142   6.432   6.829   3.489  0.7738  0.0801  0.3157
  805MOL0     C 6143   6.366   6.896   3.612 -0.9366  0.6175  0.1156
  805MOL0     C 6144   6.460   6.951   3.719 -0.4709  0.5556  0.2549
  805MOL0     N 6145   6.581   6.862   3.746 -0.5415  0.1267  0.4694
  805MOL0     C 6146   6.719   6.896   3.748 -0.1254  0.6818  0.5725
  805MOL0     C 6147   6.769   6.780   3.809 -0.6001  0.5938  0.2228
  805MOL0     C 6148   6.910   6.746   3.830 -0.7885 -0.3588 -0.0961
  805MOL0     C 6149   6.982   6.659   3.723 -0.0416  0.3365 -0.2937
  805MOL0     C 6150   7.121   6.617   3.780  0.5696 -0.3664  0.1741
  805MOL0     C 6151   7.185   6.505   3.695  0.5257 -0.0270 -0.0139
  805MOL0     O 6152   7.182   6.556   3.559 -0.0525  0.0682 -0.4102
  805MOL0     C 6153   7.244   6.488   3.457 -0.0198 -0.1285 -0.0843
  805MOL0     C 6154   7.377   6.459   3.461 -1.0654  0.5922 -0.8071
  805MOL0     C 6155   7.447   6.387   3.358 -0.0662 -0.4309  0.6106
  805MOL0     C 6156   7.372   6.337   3.247 -0.1497 -0.0159  0.4447
  805MOL0     C 6157   7.438   6.283   3.133 -1.2287 -0.0753  0.6889
  805MOL0     O 6158   7.366   6.271   3.019  0.5638 -0.9211  0.4784
  805MOL0     C 6159   7.402   6.180   2.922 -0.6557 -1.1058  0.2309
  805MOL0     C 6160   7.423   6.044   2.937  0.8541 -0.3036 -0.3721
  805MOL0     C 6161   7.448   5.971   2.821  0.2279  1.0614  0.7119
  805MOL0     C 6162   7.455   6.025   2.687 -0.6067 -0.3726  0.1754
  805MOL0     O 6163   7.481   5.959   2.573 -0.1779 -0.0250 -0.4510
  805MOL0     C 6164   7.531   5.826   2.595 -0.2919 -0.8995 -0.3768
  805MOL0     C 6165   7.597   5.768   2.467 -0.0539 -0.0992  1.2198
  805MOL0     C 6166   7.501   5.785   2.343  0.4125  0.4153 -0.0054
  805MOL0     C 6167   7.554   5.715   2.219 -0.3150  0.2847  0.4246
  805MOL0     C 6168   7.659   5.779   2.154 -0.1695  0.7157 -0.4451
  805MOL0     C 6169   7.660   5.733   2.011  0.2984 -1.2195  0.2153
  805MOL0     C 6170   7.692   5.849   1.904  0.2056  0.4336  0.6911
  805MOL0     C 6171   7.561   5.932   1.876 -1.1801 -0.5165 -0.4268
  805MOL0    Cl 6172   7.447   5.849   1.766 -0.3917  0.1000  0.5414
  805MOL0     C 6173   7.447   6.166   2.682  0.2664 -0.0942  0.9892
  805MOL0     C 6174   7.412   6.239   2.795 -0.3553  0.0738 -0.1760
  805MOL0     O 6175   7.557   6.254   3.138  0.0208 -0.0190 -0.7561
  805MOL0     C 6176   7.229   6.353   3.244 -0.1296  0.4388 -0.6890
  805MOL0     C 6177   7.168   6.422   3.356  1.6402  0.6336 -0.9715
  805MOL0     N 6178   6.671   6.686   3.841  0.4333 -0.3497  1.0761
  805MOL0     N 6179   6.559   6.738   3.802 -0.3871 -0.6079 -0.1401
  805MOL0     C 6180   6.416   6.492   2.725  0.5144 -0.3340  0.4340
  805MOL0     C 6181   6.396   6.409   2.613 -0.1820  0.5891 -0.5549
  805MOL0     C 6182   6.537   6.163   2.237 -0.3666  0.5829  0.0492
  805MOL0     C 6183   6.634   6.077   2.186  0.6084 -0.0378 -0.6398
  805MOL0     C 6184   6.617   5.983   2.080  0.1578 -0.2970 -1.2205
  805MOL0     C 6185   6.485   5.970   2.033  0.3636 -0.2951 -0.3132
  805MOL0     O 6186   6.450   5.862   1.949 -1.0138  0.1076 -0.0187
  805MOL0     C 6187   6.492   5.741   2.018 -0.7561  0.7685 -0.6170
  805MOL0     C 6188   6.449   5.626   1.930 -0.7846 -0.3381 -0.3868
  805MOL0     C 6189   6.295   5.598   1.933  0.1786  0.3333  0.0188
  805MOL0     C 6190   6.244   5.499   1.821  0.2772  0.2114 -0.2004
  805MOL0     C 6191   6.283   5.370   1.871  0.3871  0.2379  0.9831
  805MOL0     C 6192   6.321   5.269   1.922  0.1831  1.3399 -0.2359
  805MOL0     C 6193   6.382   6.060   2.072 -0.8930 -0.0312 -0.1015
  805MOL0     C 6194   6.411   6.149   2.174 -0.8124 -0.6152 -0.2674
  805MOL0     H 6195   6.673   6.500   2.443 -0.2694 -0.7235 -0.1459
  805MOL0     H 6196   6.717   6.608   2.653  0.5483 -0.5652  2.4045
  805MOL0     H 6197   6.500   6.581   3.040  0.1318 -1.5880 -0.9633
  805MOL0     H 6198   6.379   6.679   2.942  0.9751 -0.3196 -0.7803
  805MOL0     H 6199   6.493   6.880   2.973 -1.3775  1.6798  2.5123
  805MOL0     H 6200   6.636   6.784   3.045  1.0345 -1.2636 -1.3960
  805MOL0     H 6201   6.436   6.728   3.216  0.2264  0.2462  0.0852
  805MOL0     H 6202   6.387   6.881   3.172  0.0173 -1.3462  1.2772
  805MOL0     H 6203   6.655   6.831   3.298 -1.1006 -1.3610  2.3492
  805MOL0     H 6204   6.605   6.987   3.225  2.0026  0.3233  1.7402
  805MOL0     H 6205   6.388   6.983   3.345 -0.8293 -1.0134  0.3300
  805MOL0     H 6206   6.549   7.010   3.430 -0.5774  0.5041 -0.5318
  805MOL0     H 6207   6.524   6.776   3.516  1.3199  0.2381 -1.1515
  805MOL0     H 6208   6.369   6.755   3.438  1.1316 -1.0242  1.4085
  805MOL0     H 6209   6.297   6.974   3.577  0.0150  0.3397 -2.6775
  805MOL0     H 6210   6.303   6.836   3.678  0.9665  0.9314  2.3099
  805MOL0     H 6211   6.406   6.977   3.811  1.4919  1.9356  1.1000
  805MOL0     H 6212   6.492   7.048   3.680 -3.3164  0.8334 -1.6366
  805MOL0     H 6213   6.784   6.968   3.700  2.5877 -1.2273  1.1232
  805MOL0     H 6214   6.918   6.692   3.925 -2.0362 -1.6629 -0.6923
  805MOL0     H 6215   6.963   6.841   3.828 -3.1129  1.0350 -2.7729
  805MOL0     H 6216   7.013   6.717   3.636 -0.0006 -0.8553 -1.0852
  805MOL0     H 6217   6.924   6.570   3.697 -0.1530  0.1359  0.6110
  805MOL0     H 6218   7.188   6.704   3.777 -2.5804  2.2831  0.5491
  805MOL0     H 6219   7.117   6.591   3.886 -1.7512  2.8069  1.0309
  805MOL0     H 6220   7.143   6.404   3.706  4.4492 -1.8756  0.0831
  805MOL0     H 6221   7.285   6.495   3.739 -1.4147 -2.6137  4.4944
  805MOL0     H 6222   7.431   6.497   3.548 -1.3364 -0.4437 -0.1776
  805MOL0     H 6223   7.554   6.379   3.373  0.8839  1.9416 -3.2777
  805MOL0     H 6224   7.401   6.002   3.034  0.4827 -3.6763 -1.7882
  805MOL0     H 6225   7.433   5.865   2.835  0.6350  0.6479 -1.6126
  805MOL0     H 6226   7.464   5.748   2.633 -0.1079  0.1536  2.3249
  805MOL0     H 6227   7.610   5.833   2.670  0.2813 -2.8604 -0.7456
  805MOL0     H 6228   7.618   5.661   2.474 -2.3317 -1.0701 -2.9765
  805MOL0     H 6229   7.690   5.819   2.441 -1.5398  1.4842 -1.4440
  805MOL0     H 6230   7.496   5.892   2.324 -0.2541  0.6752  1.4834
  805MOL0     H 6231   7.402   5.741   2.354  0.1197  1.1647  0.3901
  805MOL0     H 6232   7.588   5.619   2.260 -2.1603 -0.5727  0.0404
  805MOL0     H 6233   7.464   5.713   2.157 -1.2699 -4.4352  1.5544
  805MOL0     H 6234   7.758   5.756   2.196 -0.7434  0.3365  0.7393
  805MOL0     H 6235   7.654   5.888   2.156  3.6194  1.0120 -0.2294
  805MOL0     H 6236   7.569   5.679   1.982 -0.0832 -1.7171  2.1778
  805MOL0     H 6237   7.739   5.659   1.995  1.8261  1.0907 -4.9611
  805MOL0     H 6238   7.761   5.908   1.964 -0.0138  0.2127  1.1667
  805MOL0     H 6239   7.731   5.806   1.811 -0.8632 -2.9556  1.6441
  805MOL0     H 6240   7.597   6.027   1.834  1.4851  0.2448  3.1320
  805MOL0     H 6241   7.507   5.954   1.968 -0.3991 -1.0372  0.1669
  805MOL0     H 6242   7.455   6.222   2.589  3.6066  3.8207  3.3345
  805MOL0     H 6243   7.394   6.346   2.783 -0.8536  0.1116  0.8278
  805MOL0     H 6244   7.166   6.313   3.166  0.2448 -1.6893  0.0417
  805MOL0     H 6245   7.060   6.427   3.363  1.6364  1.3953 -1.5649
  805MOL0     H 6246   6.332   6.494   2.794 -1.9304  0.5250 -2.3865
  805MOL0     H 6247   6.307   6.347   2.623  0.5523 -0.2583  1.0808
  805MOL0     H 6248   6.732   6.082   2.232  0.2195  1.2926  0.0849
  805MOL0     H 6249   6.700   5.916   2.064  2.5280  2.3663 -0.8947
  805MOL0     H 6250   6.428   5.739   2.106 -0.6355  0.1875 -0.5389
  805MOL0     H 6251   6.598   5.723   2.038 -1.7050 -3.2111  2.0405
  805MOL0     H 6252   6.475   5.652   1.827  1.7501  2.2907  0.7714
  805MOL0     H 6253   6.500   5.537   1.966 -1.4610  0.0587  1.6565
  805MOL0     H 6254   6.234   5.689   1.930  1.5681  1.2867 -0.1834
  805MOL0     H 6255   6.279   5.564   2.036  2.3388  1.2775  0.7398
  805MOL0     H 6256   6.136   5.498   1.809  0.2861 -0.7463 -0.3023
  805MOL0     H 6257   6.298   5.521   1.729 -2.7343 -1.7483 -2.6336
  805MOL0     H 6258   6.356   5.178   1.965 -0.3080  2.0776  1.8432
  805MOL0     H 6259   6.284   6.052   2.026 -1.4386 -0.6676  1.1059
  805MOL0     H 6260   6.329   6.212   2.206  0.8644  2.6508 -1.8968
  806MOL0     O 6261   8.735   6.925   0.862  0.5656 -0.0465 -0.1617
  806MOL0     C 6262   8.710   6.851   0.959 -0.3433 -0.0682  0.0186
  806MOL0     O 6263   8.692   6.721   0.952  0.3219 -0.2821  0.1079
  806MOL0     C 6264   8.740   6.658   0.837  0.2251  0.4372  0.2749
  806MOL0     C 6265   8.838   6.553   0.849  0.4744 -0.1048  0.7184
  806MOL0     C 6266   8.876   6.469   0.743  0.1036  0.1673 -0.4495
  806MOL0     C 6267   8.796   6.478   0.625  0.6645 -0.5349  0.0076
  806MOL0     O 6268   8.799   6.387   0.521 -0.1098  0.4718 -0.0835
  806MOL0     C 6269   8.904   6.290   0.508 -0.0949  0.6316  0.7016
  806MOL0     C 6270   8.864   6.145   0.539 -0.3927  0.4049 -0.4455
  806MOL0     C 6271   8.775   6.055   0.449  0.6038  0.6076 -0.4924
  806MOL0     C 6272   8.819   6.052   0.304  0.0244 -0.1265  0.5494
  806MOL0     C 6273   8.741   5.949   0.215  0.9305  0.2880  0.6541
  806MOL0     C 6274   8.741   5.802   0.277  0.3928 -0.8198 -0.2021
  806MOL0     C 6275   8.684   5.701   0.179 -0.6095 -0.1854  0.7695
  806MOL0     C 6276   8.723   5.557   0.203  0.3526  0.7469  0.1997
  806MOL0     N 6277   8.653   5.509   0.327  0.0335 -0.4591 -0.1395
  806MOL0     C 6278   8.702   5.472   0.450  0.5623  0.0082 -0.2609
  806MOL0     C 6279   8.591   5.458   0.530 -0.3758  0.1852  0.3227
  806MOL0     C 6280   8.627   5.398   0.662 -0.1136 -0.0521  0.8445
  806MOL0     C 6281   8.542   5.278   0.685  0.3167 -0.0296 -0.2747
  806MOL0     C 6282   8.565   5.210   0.820 -0.5623  0.6063  0.1616
  806MOL0     C 6283   8.512   5.298   0.942 -0.7311 -0.4953  0.0397
  806MOL0     O 6284   8.608   5.398   0.952 -0.0368  0.5139  0.1866
  806MOL0     C 6285   8.600   5.483   1.065 -0.5655  0.1799 -0.4288
  806MOL0     C 6286   8.492   5.496   1.150  0.0182 -0.4339  0.5217
  806MOL0     C 6287   8.508   5.584   1.260 -0.0124 -0.2277 -0.0386
  806MOL0     C 6288   8.629   5.658   1.290  0.9543 -0.8547 -0.9504
  806MOL0     C 6289   8.630   5.758   1.409  0.0876  0.6947  0.0162
  806MOL0     O 6290   8.752   5.819   1.445  0.6008 -0.1486 -0.3456
  806MOL0     C 6291   8.743   5.898   1.558  0.6524  0.7948  0.0539
  806MOL0     C 6292   8.717   6.041   1.540 -0.4970 -0.3285 -0.0931
  806MOL0     C 6293   8.724   6.137   1.647 -0.3066  0.6562  0.2817
  806MOL0     C 6294   8.766   6.096   1.772  0.3836  0.9152 -0.7042
  806MOL0     O 6295   8.777   6.181   1.872  0.5101  0.1799 -0.1580
  806MOL0     C 6296   8.901   6.162   1.938 -0.3914 -0.5673 -0.2334
  806MOL0     C 6297   9.023   6.189   1.854  0.2887  0.1420  0.8470
  806MOL0     C 6298   9.036   6.339   1.810 -0.3602  0.6347 -0.1862
  806MOL0     C 6299   9.151   6.358   1.712 -0.2205  0.4524  0.7284
  806MOL0     C 6300   9.171   6.510   1.678  0.4223 -0.3327  0.1367
  806MOL0     C 6301   9.275   6.588   1.765  0.6224  0.8519  0.3030
  806MOL0     C 6302   9.293   6.725   1.721  0.4450 -0.4484 -0.1486
  806MOL0     C 6303   9.387   6.808   1.802  0.9679 -1.0488 -0.6051
  806MOL0    Cl 6304   9.300   6.906   1.920 -0.1946 -0.2132  0.3335
  806MOL0     C 6305   8.803   5.950   1.788 -0.6363 -0.6576 -0.0785
  806MOL0     C 6306   8.796   5.857   1.687  0.2781  0.2860  0.8384
  806MOL0     O 6307   8.525   5.769   1.472  0.6552  0.2109  0.3854
  806MOL0     C 6308   8.738   5.627   1.213  0.1625 -0.2701 -0.1410
  806MOL0     C 6309   8.726   5.542   1.104 -0.1475 -0.7199 -0.8905
  806MOL0     N 6310   8.473   5.476   0.465 -0.1425 -0.0519 -0.2405
  806MOL0     N 6311   8.514   5.507   0.343  0.0991 -0.1315  0.2336
  806MOL0     C 6312   8.696   6.580   0.611 -0.6205 -0.0326 -0.3955
  806MOL0     C 6313   8.677   6.676   0.713 -0.6494  0.0895  0.2115
  806MOL0     C 6314   8.701   6.917   1.093 -0.0247 -0.1015 -0.0724
  806MOL0     C 6315   8.711   6.845   1.219 -1.0438 -0.0996 -0.0572
  806MOL0     C 6316   8.691   6.907   1.344 -0.2364 -0.2684 -0.2950
  806MOL0     C 6317   8.673   7.044   1.347  0.1348  0.2532 -0.2911
  806MOL0     O 6318   8.663   7.128   1.455 -0.5841 -0.7599 -0.0775
  806MOL0     C 6319   8.680   7.075   1.591 -1.0467  0.7659 -0.9445
  806MOL0     C 6320   8.749   7.187   1.680  0.7028  0.7204 -0.0784
  806MOL0     C 6321   8.847   7.271   1.596 -1.2968  0.9237 -0.0169
  806MOL0     C 6322   8.934   7.368   1.687  0.3913  0.2454  0.2699
  806MOL0     C 6323   9.027   7.423   1.590 -0.9520  0.3652  0.2700
  806MOL0     C 6324   9.106   7.468   1.510 -0.3779  0.8913  0.6315
  806MOL0     C 6325   8.658   7.112   1.228  0.1937  0.0934  0.9672
  806MOL0     C 6326   8.674   7.058   1.094  0.4338 -0.0687 -0.6792
  806MOL0     H 6327   8.896   6.546   0.940  2.7177 -0.7089 -0.6688
  806MOL0     H 6328   8.960   6.401   0.754  0.8202  1.0703 -0.1286
  806MOL0     H 6329   8.999   6.323   0.551  0.3932  0.9278 -0.5503
  806MOL0     H 6330   8.929   6.285   0.402 -1.2846 -2.4903  0.4703
  806MOL0     H 6331   8.814   6.147   0.636  0.8498 -1.7232  0.2955
  806MOL0     H 6332   8.961   6.102   0.565 -0.3450  1.3920  1.1076
  806MOL0     H 6333   8.668   6.071   0.434  0.4600 -1.3081 -1.9922
  806MOL0     H 6334   8.788   5.957   0.496 -1.5280  1.3721  1.9464
  806MOL0     H 6335   8.812   6.151   0.258  0.1987 -0.1932  0.3761
  806MOL0     H 6336   8.925   6.023   0.302 -0.1949 -1.6702  3.6556
  806MOL0     H 6337   8.789   5.948   0.117 -1.3345  0.0503 -0.5269
  806MOL0     H 6338   8.637   5.979   0.200 -0.3775 -0.7261  5.6284
  806MOL0     H 6339   8.665   5.802   0.356 -0.8400  2.0836 -1.2323
  806MOL0     H 6340   8.840   5.785   0.320  1.1001  1.0058 -0.9903
  806MOL0     H 6341   8.575   5.707   0.183 -0.7040 -1.5946  4.1252
  806MOL0     H 6342   8.715   5.725   0.077  0.4651 -0.3070  1.0492
  806MOL0     H 6343   8.832   5.559   0.201  0.3500  2.0771 -1.1836
  806MOL0     H 6344   8.708   5.486   0.121  6.6258 -0.2134 -0.6366
  806MOL0     H 6345   8.802   5.451   0.488  0.9177  0.1950 -1.0755
  806MOL0     H 6346   8.592   5.481   0.723  1.4559  1.6936 -0.5211
  806MOL0     H 6347   8.734   5.384   0.680  0.2280 -0.8271 -1.4950
  806MOL0     H 6348   8.555   5.212   0.599  0.0604  0.7635 -0.9334
  806MOL0     H 6349   8.435   5.301   0.685 -0.1709 -2.0553  0.5765
  806MOL0     H 6350   8.529   5.106   0.818 -0.1658  0.3391  2.8155
  806MOL0     H 6351   8.669   5.189   0.844 -0.5505 -0.1828 -0.5264
  806MOL0     H 6352   8.511   5.239   1.034  1.8075  0.4912  0.7619
  806MOL0     H 6353   8.411   5.333   0.917  0.5679  0.5395 -5.0071
  806MOL0     H 6354   8.403   5.435   1.139  1.3902 -3.1339  3.0727
  806MOL0     H 6355   8.419   5.603   1.319 -0.4809 -0.4571 -0.6740
  806MOL0     H 6356   8.701   6.087   1.443  1.7692  0.4704 -0.1579
  806MOL0     H 6357   8.702   6.242   1.634 -3.7218  0.1519  1.0281
  806MOL0     H 6358   8.911   6.072   1.999 -0.0629 -1.2988 -1.3439
  806MOL0     H 6359   8.893   6.240   2.015 -1.0357  0.0403 -0.8904
  806MOL0     H 6360   9.018   6.132   1.761  1.0256 -2.0664  2.0861
  806MOL0     H 6361   9.124   6.160   1.885  0.0249  0.2242  1.8313
  806MOL0     H 6362   9.044   6.403   1.898 -0.8731  1.1888 -0.5384
  806MOL0     H 6363   8.943   6.373   1.764  0.0516  0.9345 -0.8049
  806MOL0     H 6364   9.251   6.324   1.739  0.3020  0.9460 -0.5170
  806MOL0     H 6365   9.120   6.297   1.627 -1.1417  0.8493  0.7561
  806MOL0     H 6366   9.071   6.554   1.683 -0.4712 -2.1011 -1.1942
  806MOL0     H 6367   9.188   6.529   1.572 -1.2711 -0.2756 -0.1512
  806MOL0     H 6368   9.370   6.540   1.739 -0.8738 -2.7201  0.7117
  806MOL0     H 6369   9.254   6.566   1.870  1.7253 -1.7156  0.0729
  806MOL0     H 6370   9.328   6.725   1.617  0.8662 -0.0608 -0.0103
  806MOL0     H 6371   9.193   6.768   1.715  0.8497  0.5239 -0.0969
  806MOL0     H 6372   9.433   6.886   1.741 -1.9307 -0.2130 -1.8861
  806MOL0     H 6373   9.471   6.758   1.851  0.4284  0.4915  2.1848
  806MOL0     H 6374   8.839   5.906   1.880 -1.0026 -1.2384 -0.2040
  806MOL0     H 6375   8.845   5.760   1.686 -0.8441 -0.2995  0.5090
  806MOL0     H 6376   8.839   5.661   1.233  0.0530  0.3187 -0.5527
  806MOL0     H 6377   8.810   5.499   1.051 -0.1791 -2.8002  0.5998
  806MOL0     H 6378   8.624   6.600   0.532 -0.4459 -0.5717 -0.6934
  806MOL0     H 6379   8.598   6.749   0.702 -0.5428  0.1430 -0.2103
  806MOL0     H 6380   8.725   6.737   1.214  1.7758  0.2509 -2.3406
  806MOL0     H 6381   8.694   6.844   1.432  2.5709  4.8765  3.8720
  806MOL0     H 6382   8.750   6.992   1.586  0.1714  1.6571  0.4218
  806MOL0     H 6383   8.584   7.058   1.641 -0.2083  0.7607  0.7461
  806MOL0     H 6384   8.675   7.260   1.712  0.6198  0.7891 -0.4236
  806MOL0     H 6385   8.793   7.136   1.765 -2.7371 -6.2121 -1.7373
  806MOL0     H 6386   8.811   7.326   1.509 -2.5539  4.5570  2.5517
  806MOL0     H 6387   8.918   7.198   1.556 -3.5844 -0.6797 -1.3676
  806MOL0     H 6388   8.882   7.445   1.746  1.7349  0.1954  1.5622
  806MOL0     H 6389   8.997   7.319   1.762  0.1528  1.4584  1.3044
  806MOL0     H 6390   9.178   7.502   1.438 -0.3940  2.2613  1.2418
  806MOL0     H 6391   8.640   7.219   1.232  1.9863  0.4188  1.3843
  806MOL0     H 6392   8.682   7.120   1.006  3.6082 -1.0178 -1.1797
  807MOL0     O 6393   8.414   0.829   6.303 -0.0901  0.5108  0.2131
  807MOL0     C 6394   8.403   0.780   6.193  0.1716  0.1465 -0.9392
  807MOL0     O 6395   8.356   0.839   6.088 -0.6324  0.5029  0.3256
  807MOL0     C 6396   8.324   0.968   6.066 -0.2863 -0.5920 -0.2633
  807MOL0     C 6397   8.338   1.019   5.940  0.1764  0.9706  0.9912
  807MOL0     C 6398   8.320   1.155   5.914 -0.0281  0.2779  0.2212
  807MOL0     C 6399   8.298   1.249   6.018 -0.6968  0.2532  0.0103
  807MOL0     O 6400   8.274   1.385   5.995  0.0751 -0.6137  0.4373
  807MOL0     C 6401   8.232   1.469   6.100 -0.6317  0.1346  0.1270
  807MOL0     C 6402   8.203   1.610   6.053  0.1918  0.0337  0.3404
  807MOL0     C 6403   8.156   1.679   6.180 -0.3723 -0.1204 -0.4972
  807MOL0     C 6404   8.123   1.825   6.156  0.1642  0.7821  0.3485
  807MOL0     C 6405   8.058   1.888   6.282  0.3513  0.3333  0.9884
  807MOL0     C 6406   8.156   1.890   6.411 -0.1693 -0.0723 -0.2787
  807MOL0     C 6407   8.151   2.012   6.489 -0.1544 -0.2874  0.5263
  807MOL0     C 6408   8.018   2.030   6.557  0.4283 -0.1420  0.4938
  807MOL0     N 6409   7.994   1.927   6.664 -0.2913  0.1028 -0.1155
  807MOL0     C 6410   8.056   1.930   6.781  0.7682 -1.0613 -0.6928
  807MOL0     C 6411   8.021   1.819   6.844  0.1699 -0.2603 -0.3631
  807MOL0     C 6412   8.074   1.750   6.967 -1.1966 -0.1798 -0.2967
  807MOL0     C 6413   8.176   1.632   6.953  0.0580 -0.5587 -0.4004
  807MOL0     C 6414   8.179   1.525   7.065 -0.0468  0.5308 -0.2762
  807MOL0     C 6415   8.303   1.434   7.057  0.2664 -0.3695  0.0748
  807MOL0     O 6416   8.409   1.522   7.095 -0.8170 -0.7663  0.5394
  807MOL0     C 6417   8.527   1.472   7.064 -0.2603  0.4780  0.0027
  807MOL0     C 6418   8.577   1.354   7.106  0.9774 -0.1791 -0.4571
  807MOL0     C 6419   8.700   1.308   7.073 -0.2880  0.4415 -0.0604
  807MOL0     C 6420   8.785   1.366   6.976  0.0731  0.4713  0.3895
  807MOL0     C 6421   8.916   1.309   6.922  0.1851 -0.1725 -1.6048
  807MOL0     O 6422   8.978   1.204   7.006 -0.0843 -0.0055  0.4515
  807MOL0     C 6423   9.109   1.180   6.967  0.3929 -0.0179 -0.3801
  807MOL0     C 6424   9.143   1.051   6.912 -0.1576 -0.1268  0.5029
  807MOL0     C 6425   9.267   1.021   6.885 -0.4931  0.2752 -0.2505
  807MOL0     C 6426   9.374   1.110   6.904 -0.1152  0.4258  0.0519
  807MOL0     O 6427   9.494   1.064   6.868  0.0497 -0.2928 -0.2642
  807MOL0     C 6428   9.583   1.165   6.824  0.5053 -0.3155  0.0136
  807MOL0     C 6429   9.708   1.102   6.768 -0.3225  0.1224  0.8338
  807MOL0     C 6430   9.692   1.019   6.638  0.0941 -0.1125 -0.4633
  807MOL0     C 6431   9.835   0.965   6.598  0.0537 -1.2196  0.2464
  807MOL0     C 6432   9.825   0.857   6.487  0.1893  0.1259  0.4823
  807MOL0     C 6433   9.780   0.904   6.347  0.1054 -0.2065 -0.0154
  807MOL0     C 6434   9.847   1.025   6.287 -0.2485  1.1631  0.3139
  807MOL0     C 6435   9.801   1.050   6.149 -0.1110  0.9114  0.5687
  807MOL0    Cl 6436   9.681   1.186   6.147  0.0043 -0.0435 -0.2489
  807MOL0     C 6437   9.338   1.243   6.952  0.1969 -0.5629 -0.2746
  807MOL0     C 6438   9.207   1.276   6.985  0.2873 -0.3737 -0.0058
  807MOL0     O 6439   8.968   1.375   6.834 -0.4335 -0.8041 -1.3024
  807MOL0     C 6440   8.732   1.490   6.925 -1.0280 -0.4378 -0.0726
  807MOL0     C 6441   8.606   1.542   6.966  0.7534 -0.1314 -0.0311
  807MOL0     N 6442   7.937   1.751   6.757 -0.1521 -0.2525  0.6613
  807MOL0     N 6443   7.916   1.821   6.653 -0.2617 -0.3103  0.3627
  807MOL0     C 6444   8.291   1.202   6.153  0.8697 -0.1452 -0.2962
  807MOL0     C 6445   8.303   1.057   6.175  1.0823 -0.7032 -0.2566
  807MOL0     C 6446   8.466   0.651   6.167  0.4073  0.2848  0.1916
  807MOL0     C 6447   8.531   0.632   6.043  0.1782 -0.9152  0.9752
  807MOL0     C 6448   8.598   0.517   6.017 -0.6345 -1.0614  0.0551
  807MOL0     C 6449   8.616   0.424   6.120 -0.8570  0.7555 -0.5467
  807MOL0     O 6450   8.690   0.317   6.081 -0.2125 -0.4895 -0.6179
  807MOL0     C 6451   8.761   0.246   6.182 -0.2874  0.3137  0.3814
  807MOL0     C 6452   8.693   0.126   6.245 -0.5267 -0.5365 -0.3872
  807MOL0     C 6453   8.597   0.063   6.139  0.0228  0.2900 -0.5370
  807MOL0     C 6454   8.518  -0.040   6.218 -0.2539  0.6028 -0.6448
  807MOL0     C 6455   8.621  -0.144   6.259  0.5918 -0.9495 -1.4997
  807MOL0     C 6456   8.692  -0.220   6.310 -0.1834  0.2328 -0.4199
  807MOL0     C 6457   8.561   0.446   6.244  0.3338  0.9733  0.3536
  807MOL0     C 6458   8.487   0.561   6.270 -0.4166  0.3205 -0.8846
  807MOL0     H 6459   8.377   0.946   5.869 -2.2336  1.0813 -0.5710
  807MOL0     H 6460   8.336   1.190   5.813 -1.0973  0.3504  0.0673
  807MOL0     H 6461   8.298   1.469   6.187 -2.7715  0.5171  1.8418
  807MOL0     H 6462   8.136   1.428   6.134  0.3050 -1.6896  0.7131
  807MOL0     H 6463   8.135   1.608   5.968  1.8038 -3.2457 -1.0681
  807MOL0     H 6464   8.294   1.653   6.010  0.2101 -0.2254  0.1152
  807MOL0     H 6465   8.228   1.666   6.261 -2.2596 -0.1526  1.2314
  807MOL0     H 6466   8.063   1.631   6.210 -2.4217  3.1466 -1.0494
  807MOL0     H 6467   8.210   1.885   6.127 -0.0624  2.2902  2.5022
  807MOL0     H 6468   8.048   1.830   6.077 -0.9498  0.1158  1.3369
  807MOL0     H 6469   7.966   1.833   6.304  0.4451 -0.6260 -0.8802
  807MOL0     H 6470   8.033   1.992   6.261  2.3177  0.6621  0.0650
  807MOL0     H 6471   8.259   1.863   6.383  0.0122 -0.9457  1.1252
  807MOL0     H 6472   8.114   1.808   6.470 -0.9459 -0.0903 -0.8450
  807MOL0     H 6473   8.225   2.008   6.568  0.2633 -0.5609  0.1287
  807MOL0     H 6474   8.174   2.093   6.419 -0.0329 -0.8455 -0.1009
  807MOL0     H 6475   7.944   2.022   6.476  1.6977  0.5720 -0.7842
  807MOL0     H 6476   8.013   2.127   6.607 -1.5057 -0.8589  1.8352
  807MOL0     H 6477   8.116   2.011   6.822  0.6981 -0.9321 -0.8428
  807MOL0     H 6478   7.989   1.710   7.023 -1.7678  1.7924  0.3309
  807MOL0     H 6479   8.128   1.824   7.027  0.1172  0.4207 -2.1298
  807MOL0     H 6480   8.274   1.679   6.947 -0.3604  0.4849  0.5570
  807MOL0     H 6481   8.163   1.575   6.861  1.6484  0.0927 -1.0695
  807MOL0     H 6482   8.166   1.558   7.168  0.1627 -0.8635  0.2188
  807MOL0     H 6483   8.096   1.455   7.052  1.0392 -1.0267  0.7873
  807MOL0     H 6484   8.300   1.393   6.956 -1.1029 -0.8746  0.2984
  807MOL0     H 6485   8.296   1.345   7.120 -3.0076  1.3154  2.4251
  807MOL0     H 6486   8.511   1.301   7.175  1.8443  0.4759  0.9302
  807MOL0     H 6487   8.747   1.229   7.131 -0.2677 -0.3335 -1.0942
  807MOL0     H 6488   9.069   0.974   6.893  0.6966 -0.9033  0.2464
  807MOL0     H 6489   9.302   0.923   6.855 -4.8104 -1.9426  1.0476
  807MOL0     H 6490   9.613   1.224   6.910 -1.8906 -0.9233  1.3524
  807MOL0     H 6491   9.538   1.223   6.743  0.1108  0.0924  0.5210
  807MOL0     H 6492   9.749   1.034   6.844 -2.3505 -1.3543  0.6970
  807MOL0     H 6493   9.786   1.174   6.742 -0.0107 -1.1449 -2.0417
  807MOL0     H 6494   9.653   1.092   6.567 -3.9252  0.7292  2.2959
  807MOL0     H 6495   9.618   0.940   6.652 -2.6413  2.4121  0.1308
  807MOL0     H 6496   9.892   1.052   6.562 -0.1527 -0.9160  0.6431
  807MOL0     H 6497   9.878   0.909   6.681 -0.9262 -1.5812  0.5141
  807MOL0     H 6498   9.769   0.767   6.514 -0.3442  0.9790  2.3980
  807MOL0     H 6499   9.926   0.820   6.466 -0.4271 -0.7143 -1.1354
  807MOL0     H 6500   9.673   0.924   6.354 -0.0831 -1.0882 -0.2637
  807MOL0     H 6501   9.775   0.821   6.277 -0.5277 -1.3594  1.3547
  807MOL0     H 6502   9.822   1.107   6.355  1.2523  3.6758 -1.9591
  807MOL0     H 6503   9.955   1.007   6.291 -0.2230  0.7473 -1.6000
  807MOL0     H 6504   9.772   0.952   6.109 -1.6669  0.9334  1.5320
  807MOL0     H 6505   9.884   1.080   6.084  0.6153 -2.2847 -0.1186
  807MOL0     H 6506   9.423   1.309   6.965  2.0589 -2.4218 -2.1802
  807MOL0     H 6507   9.191   1.374   7.030 -0.1465 -1.7247  3.0938
  807MOL0     H 6508   8.785   1.550   6.851 -0.8010  0.1096  0.5289
  807MOL0     H 6509   8.563   1.621   6.905 -4.1176 -2.2316  0.2207
  807MOL0     H 6510   8.293   1.265   6.242  1.3017 -0.0442 -0.3718
  807MOL0     H 6511   8.295   1.027   6.279  0.6577  0.9551  0.2157
  807MOL0     H 6512   8.509   0.693   5.956  0.1134 -2.5233 -0.1893
  807MOL0     H 6513   8.642   0.507   5.918  1.3170  0.3849  0.7009
  807MOL0     H 6514   8.782   0.312   6.267  0.3511 -3.4365  3.4040
  807MOL0     H 6515   8.860   0.213   6.147 -0.3135 -2.2643  2.3992
  807MOL0     H 6516   8.775   0.059   6.272 -0.3662 -1.3109 -2.6100
  807MOL0     H 6517   8.634   0.177   6.322 -0.4210  0.3182 -0.8555
  807MOL0     H 6518   8.654   0.031   6.051 -1.1739 -0.0889 -1.1842
  807MOL0     H 6519   8.524   0.136   6.104  1.5841  2.1972  0.0196
  807MOL0     H 6520   8.474   0.004   6.308 -0.0321 -2.0581  0.8757
  807MOL0     H 6521   8.438  -0.085   6.158  2.0833 -3.1650 -1.2262
  807MOL0     H 6522   8.764  -0.290   6.348 -1.2503 -0.5773  0.1260
  807MOL0     H 6523   8.564   0.371   6.322 -2.6014 -1.0388 -1.2570
  807MOL0     H 6524   8.449   0.590   6.368  3.1946  1.5119  0.3520
  808MOL0     O 6525   7.565   4.839   5.627 -0.4325 -0.3830  0.8098
  808MOL0     C 6526   7.556   4.738   5.698  0.2025  0.9021 -0.2800
  808MOL0     O 6527   7.590   4.729   5.828  0.0798 -0.4769  0.3527
  808MOL0     C 6528   7.644   4.836   5.897 -0.4420  0.3937 -0.3146
  808MOL0     C 6529   7.742   4.915   5.836 -0.6381  0.7126 -0.0867
  808MOL0     C 6530   7.796   5.033   5.901  0.1880  0.4230  0.3710
  808MOL0     C 6531   7.764   5.059   6.037  0.2689  0.0378  0.3467
  808MOL0     O 6532   7.813   5.173   6.100  0.0408  1.0623 -0.3868
  808MOL0     C 6533   7.874   5.288   6.023  0.8141 -0.2892  0.0842
  808MOL0     C 6534   7.917   5.396   6.127  0.4684  0.7201  0.3129
  808MOL0     C 6535   7.797   5.492   6.157 -0.3660 -0.5163 -0.0084
  808MOL0     C 6536   7.693   5.418   6.239 -0.1775  0.1393  0.4441
  808MOL0     C 6537   7.571   5.491   6.308  0.3546  0.4911 -0.1730
  808MOL0     C 6538   7.476   5.543   6.214  0.2517 -0.1267  0.0552
  808MOL0     C 6539   7.353   5.600   6.279 -0.9411  0.8441  0.7715
  808MOL0     C 6540   7.384   5.739   6.331  0.0573 -0.1329 -0.4266
  808MOL0     N 6541   7.258   5.789   6.380  0.6521  0.0708 -0.2683
  808MOL0     C 6542   7.148   5.818   6.299  0.0059 -0.5324  0.3515
  808MOL0     C 6543   7.060   5.870   6.378  0.5473  0.3691 -0.0052
  808MOL0     C 6544   6.928   5.929   6.335  0.7323 -0.0375  0.2684
  808MOL0     C 6545   6.811   5.880   6.420 -0.7260  0.9926  0.4289
  808MOL0     C 6546   6.808   5.724   6.401 -0.1141 -0.4577 -0.2313
  808MOL0     C 6547   6.693   5.657   6.469  0.2545 -0.4890 -0.8787
  808MOL0     O 6548   6.713   5.516   6.477 -0.3852  0.1352  0.1376
  808MOL0     C 6549   6.630   5.439   6.549  0.5210 -0.2990  0.6312
  808MOL0     C 6550   6.492   5.458   6.561  0.2041  0.7026  1.2205
  808MOL0     C 6551   6.420   5.366   6.636 -0.5212 -0.2014  0.3858
  808MOL0     C 6552   6.486   5.246   6.678  0.1714 -0.1577 -0.7021
  808MOL0     C 6553   6.410   5.131   6.725  0.4431 -0.5037 -0.1248
  808MOL0     O 6554   6.318   5.156   6.824  0.1748 -0.5707  0.0397
  808MOL0     C 6555   6.210   5.071   6.848 -0.1236  0.4284  0.6674
  808MOL0     C 6556   6.215   4.934   6.870 -0.3029  0.1399  0.2948
  808MOL0     C 6557   6.098   4.868   6.917  0.0590  0.6701  0.6163
  808MOL0     C 6558   5.971   4.929   6.919 -0.8051  0.1879 -0.4270
  808MOL0     O 6559   5.863   4.855   6.949 -0.4422  0.4786  0.6837
  808MOL0     C 6560   5.759   4.854   6.857  0.5486  0.6259  0.6957
  808MOL0     C 6561   5.656   4.737   6.868  0.0848  0.5373  0.2412
  808MOL0     C 6562   5.589   4.703   7.007 -0.6380 -0.6033  0.9438
  808MOL0     C 6563   5.486   4.607   6.976 -0.2352 -0.1790  0.4152
  808MOL0     C 6564   5.442   4.538   7.102  0.9580 -0.2685  0.2028
  808MOL0     C 6565   5.327   4.441   7.056 -0.2164  0.2663 -0.6013
  808MOL0     C 6566   5.262   4.371   7.170 -0.3929  0.4667 -0.6311
  808MOL0     C 6567   5.115   4.343   7.148 -0.6960  0.5642 -0.6448
  808MOL0    Cl 6568   5.020   4.482   7.138 -0.0088  0.1062 -0.2547
  808MOL0     C 6569   5.961   5.068   6.887 -0.4360  0.6263 -0.4490
  808MOL0     C 6570   6.084   5.138   6.860 -1.0757  0.2768 -0.2136
  808MOL0     O 6571   6.423   5.021   6.673  0.0828 -0.7029  0.0459
  808MOL0     C 6572   6.624   5.241   6.677  0.1491  0.1661  0.2757
  808MOL0     C 6573   6.698   5.338   6.610  0.3933 -0.6470 -0.0890
  808MOL0     N 6574   7.109   5.884   6.506 -0.8048  0.5334  0.1666
  808MOL0     N 6575   7.230   5.834   6.509  0.3764  0.2771 -0.6799
  808MOL0     C 6576   7.673   4.975   6.096 -0.2620  0.1715 -0.6559
  808MOL0     C 6577   7.619   4.864   6.030 -0.4069 -0.1546 -0.6564
  808MOL0     C 6578   7.501   4.622   5.629 -0.7845  0.5688  0.2300
  808MOL0     C 6579   7.408   4.640   5.527 -0.5652 -0.4055 -0.6132
  808MOL0     C 6580   7.339   4.535   5.474 -0.1828  0.1998  0.4832
  808MOL0     C 6581   7.367   4.406   5.520  0.9035  0.1330  0.2326
  808MOL0     O 6582   7.311   4.293   5.468  0.0191 -0.7623  0.2683
  808MOL0     C 6583   7.302   4.290   5.320 -0.0605  0.7579  0.0843
  808MOL0     C 6584   7.224   4.167   5.270  0.3295  0.5661 -0.4131
  808MOL0     C 6585   7.086   4.176   5.319  1.0614  0.8405 -0.4000
  808MOL0     C 6586   7.003   4.054   5.289 -0.3140  0.8509  0.5988
  808MOL0     C 6587   6.862   4.072   5.342 -0.1670  1.0677 -0.3847
  808MOL0     C 6588   6.748   4.068   5.387 -0.3486 -0.0594 -0.2971
  808MOL0     C 6589   7.466   4.378   5.611  0.0855  0.1887  0.1243
  808MOL0     C 6590   7.535   4.492   5.673 -0.1377 -0.0519  0.4379
  808MOL0     H 6591   7.774   4.893   5.735  0.3780  1.2671  0.0973
  808MOL0     H 6592   7.865   5.100   5.852  0.6821  1.8697  2.8676
  808MOL0     H 6593   7.805   5.333   5.950  2.3448  2.7857  0.3568
  808MOL0     H 6594   7.972   5.270   5.978  1.3934  1.0969  0.7186
  808MOL0     H 6595   8.006   5.455   6.103  2.0825 -1.5239  0.4548
  808MOL0     H 6596   7.950   5.347   6.219  0.2218  1.5450  0.8396
  808MOL0     H 6597   7.744   5.529   6.069 -0.4341 -1.3287 -0.3165
  808MOL0     H 6598   7.836   5.575   6.217 -1.2738 -0.4910  0.5745
  808MOL0     H 6599   7.659   5.343   6.167 -0.1307 -0.0446  0.6139
  808MOL0     H 6600   7.741   5.367   6.324 -1.4059 -1.1644  0.3889
  808MOL0     H 6601   7.609   5.573   6.369  0.0753 -0.0598  0.7497
  808MOL0     H 6602   7.534   5.428   6.389  2.1360 -0.3908 -0.0020
  808MOL0     H 6603   7.452   5.455   6.153 -0.0609 -0.7028  0.9808
  808MOL0     H 6604   7.535   5.609   6.149  2.0735 -1.1113  0.6362
  808MOL0     H 6605   7.270   5.611   6.209 -0.1525  0.5094 -0.2453
  808MOL0     H 6606   7.312   5.534   6.357 -2.5298  1.0599  0.1522
  808MOL0     H 6607   7.428   5.803   6.253 -0.7078  1.3788  0.3391
  808MOL0     H 6608   7.456   5.731   6.414  1.4702  0.2235 -1.5692
  808MOL0     H 6609   7.157   5.814   6.191 -1.0218  1.8952  0.1073
  808MOL0     H 6610   6.902   5.908   6.230 -0.9287 -1.7495  0.9553
  808MOL0     H 6611   6.930   6.037   6.352  2.5640  0.0543 -0.3323
  808MOL0     H 6612   6.728   5.941   6.385 -0.6797 -0.8386 -3.4156
  808MOL0     H 6613   6.831   5.912   6.523 -1.4256  0.7701  0.6391
  808MOL0     H 6614   6.817   5.692   6.296 -1.4600  3.4000 -1.7360
  808MOL0     H 6615   6.897   5.684   6.450  0.1082 -0.5547 -0.6991
  808MOL0     H 6616   6.605   5.676   6.406 -0.9987 -1.0344  0.6297
  808MOL0     H 6617   6.687   5.708   6.565  2.4084  0.0048 -0.9713
  808MOL0     H 6618   6.438   5.526   6.497 -1.3006 -3.0614 -1.8943
  808MOL0     H 6619   6.312   5.375   6.645 -1.1814 -0.4722 -4.6758
  808MOL0     H 6620   6.303   4.871   6.857 -0.5078  0.2301 -1.7679
  808MOL0     H 6621   6.105   4.762   6.941 -3.5282  0.4091  1.0075
  808MOL0     H 6622   5.809   4.863   6.760  0.8003  5.0814  1.0635
  808MOL0     H 6623   5.693   4.941   6.861  0.6068  0.6408  1.4569
  808MOL0     H 6624   5.703   4.644   6.835  0.8682 -0.0628  2.8251
  808MOL0     H 6625   5.579   4.750   6.792 -2.0432 -1.8313  1.8023
  808MOL0     H 6626   5.564   4.797   7.057  1.7931 -0.8405  2.8302
  808MOL0     H 6627   5.673   4.654   7.057  0.6583 -0.9059 -1.3726
  808MOL0     H 6628   5.397   4.656   6.934  0.0919  0.3974  0.3820
  808MOL0     H 6629   5.533   4.538   6.906  1.9866 -0.2114  1.8458
  808MOL0     H 6630   5.426   4.625   7.167 -1.0799  0.3094 -0.9758
  808MOL0     H 6631   5.513   4.464   7.141 -0.7099 -0.7320  2.5961
  808MOL0     H 6632   5.359   4.359   6.991 -0.9982 -0.0301 -0.6266
  808MOL0     H 6633   5.251   4.500   7.003 -0.9448 -1.2641 -1.3426
  808MOL0     H 6634   5.299   4.270   7.187 -0.2225  0.0067 -3.2908
  808MOL0     H 6635   5.274   4.436   7.257  0.9920 -0.8492  0.2066
  808MOL0     H 6636   5.083   4.292   7.240 -0.8184 -1.3647 -1.6954
  808MOL0     H 6637   5.097   4.278   7.062  0.5239  0.4052 -0.7859
  808MOL0     H 6638   5.864   5.114   6.880 -1.8359 -2.1150 -0.3788
  808MOL0     H 6639   6.081   5.246   6.847  0.1408  0.2440 -0.8807
  808MOL0     H 6640   6.665   5.155   6.728 -3.0414 -0.8432  1.3983
  808MOL0     H 6641   6.803   5.323   6.587  0.5510  0.3065 -0.0379
  808MOL0     H 6642   7.641   4.989   6.199  0.4960  1.7236 -0.6038
  808MOL0     H 6643   7.548   4.791   6.068 -1.7651  1.0108 -0.8750
  808MOL0     H 6644   7.383   4.737   5.486 -1.3961 -0.7343 -0.9332
  808MOL0     H 6645   7.271   4.553   5.391  1.3561 -0.3316 -0.9510
  808MOL0     H 6646   7.406   4.297   5.286  0.6015  1.6432  2.1862
  808MOL0     H 6647   7.258   4.381   5.279 -0.8298  0.9029  1.2007
  808MOL0     H 6648   7.218   4.169   5.161 -0.6783  0.3307 -0.3701
  808MOL0     H 6649   7.289   4.084   5.301 -1.2316 -0.4932  0.1509
  808MOL0     H 6650   7.046   4.263   5.268 -0.7955  1.0617  1.3045
  808MOL0     H 6651   7.087   4.187   5.428 -1.9001  1.8339 -0.3855
  808MOL0     H 6652   6.988   4.055   5.180  0.4113 -0.0532  0.4771
  808MOL0     H 6653   7.045   3.964   5.335 -0.6251  0.7137  0.6182
  808MOL0     H 6654   6.647   4.073   5.423 -0.9623 -2.7993 -1.3793
  808MOL0     H 6655   7.484   4.273   5.631 -1.2837 -0.3191 -1.1666
  808MOL0     H 6656   7.597   4.477   5.761  1.6083  3.2393 -0.0625
  809MOL0     O 6657  11.287   7.779   6.484 -0.3997 -0.1227  0.7227
  809MOL0     C 6658  11.364   7.877   6.472 -0.7653 -0.1808  0.5982
  809MOL0     O 6659  11.454   7.898   6.373 -0.1769  0.2084 -0.2701
  809MOL0     C 6660  11.443   7.819   6.258 -0.8364 -0.4246 -0.3750
  809MOL0     C 6661  11.325   7.786   6.191 -1.1091 -0.1041 -0.2785
  809MOL0     C 6662  11.329   7.713   6.066  0.9730 -0.1991 -0.0001
  809MOL0     C 6663  11.453   7.666   6.026  0.3942 -0.0268  0.1110
  809MOL0     O 6664  11.451   7.588   5.913 -0.4027  0.2406 -0.2845
  809MOL0     C 6665  11.558   7.493   5.892 -0.2030 -0.4099 -0.4326
  809MOL0     C 6666  11.511   7.385   5.792 -0.0111 -0.3940  0.1675
  809MOL0     C 6667  11.397   7.295   5.838 -1.6100 -0.3191 -0.1942
  809MOL0     C 6668  11.267   7.341   5.785  0.5818  0.1526 -0.4955
  809MOL0     C 6669  11.144   7.263   5.846 -0.5140  0.1007 -0.3104
  809MOL0     C 6670  11.002   7.333   5.818  0.5224 -0.7298  0.9509
  809MOL0     C 6671  10.903   7.228   5.861 -0.7793 -0.1500  0.2745
  809MOL0     C 6672  10.759   7.274   5.861 -0.5726  1.1691  0.2584
  809MOL0     N 6673  10.667   7.167   5.900  0.5533  0.1349  0.4040
  809MOL0     C 6674  10.663   7.091   6.014 -0.0876 -0.1873  0.1044
  809MOL0     C 6675  10.541   7.028   6.010 -0.0497 -0.2959  0.1059
  809MOL0     C 6676  10.493   6.918   6.089  0.2807 -0.5563  0.1027
  809MOL0     C 6677  10.438   6.800   6.014  0.2331 -0.4547 -0.5557
  809MOL0     C 6678  10.539   6.715   5.936  0.2101  0.3950  0.3552
  809MOL0     C 6679  10.636   6.623   6.008 -0.3522  0.4040 -0.0803
  809MOL0     O 6680  10.640   6.505   5.921  0.5297 -0.2317  0.0563
  809MOL0     C 6681  10.658   6.380   5.996 -0.3060 -0.3399  0.6408
  809MOL0     C 6682  10.571   6.342   6.096 -0.3914  0.9925 -0.3438
  809MOL0     C 6683  10.614   6.238   6.187  0.1191  0.6305  0.6836
  809MOL0     C 6684  10.719   6.141   6.159  0.5545 -0.8054 -0.3634
  809MOL0     C 6685  10.744   6.018   6.240  0.2519  0.4554 -0.5465
  809MOL0     O 6686  10.667   5.990   6.360 -0.2870 -0.0003 -0.6870
  809MOL0     C 6687  10.698   5.888   6.447  0.7296 -0.7780 -0.9387
  809MOL0     C 6688  10.835   5.861   6.472  0.0793  0.1612 -0.8184
  809MOL0     C 6689  10.863   5.758   6.564  0.4617  0.2895 -0.0031
  809MOL0     C 6690  10.752   5.689   6.626  1.1659  0.1042  0.6324
  809MOL0     O 6691  10.775   5.613   6.741 -0.3451  0.4030  0.2748
  809MOL0     C 6692  10.735   5.476   6.719 -0.3759  0.3424  0.2353
  809MOL0     C 6693  10.631   5.435   6.819  0.1502  1.0885 -0.3254
  809MOL0     C 6694  10.581   5.288   6.794  0.3284  0.8028  0.5390
  809MOL0     C 6695  10.471   5.291   6.688  0.3324 -0.3436 -0.1078
  809MOL0     C 6696  10.405   5.155   6.675 -0.2846 -0.8416  0.5901
  809MOL0     C 6697  10.317   5.131   6.551  0.3241  0.0870 -0.2746
  809MOL0     C 6698  10.203   5.225   6.530 -0.3811  0.0060 -0.1817
  809MOL0     C 6699  10.101   5.184   6.430 -0.0675 -0.2917  1.2152
  809MOL0    Cl 6700   9.990   5.320   6.399 -0.2366 -0.3110  0.0993
  809MOL0     C 6701  10.616   5.724   6.605  0.0292  0.6552 -0.4707
  809MOL0     C 6702  10.596   5.826   6.516 -0.1501  1.1254  0.3404
  809MOL0     O 6703  10.817   5.935   6.189 -0.3293  0.1346  0.0178
  809MOL0     C 6704  10.790   6.164   6.044  0.3030 -0.2540  1.4065
  809MOL0     C 6705  10.760   6.284   5.960  0.8180 -0.3069  0.2199
  809MOL0     N 6706  10.474   7.061   5.895 -0.6112  0.1706 -0.2840
  809MOL0     N 6707  10.553   7.143   5.827  0.1488  0.0644  0.1373
  809MOL0     C 6708  11.568   7.708   6.087 -0.0542  0.0272  0.5880
  809MOL0     C 6709  11.568   7.783   6.200 -0.0004  0.2587  0.1261
  809MOL0     C 6710  11.359   7.984   6.569  0.2890  0.2607  0.8089
  809MOL0     C 6711  11.302   7.964   6.690 -0.5608 -1.2641 -0.4459
  809MOL0     C 6712  11.266   8.076   6.769  0.1136  0.2232 -0.2508
  809MOL0     C 6713  11.309   8.208   6.737 -0.1328  0.1531  0.1527
  809MOL0     O 6714  11.290   8.323   6.817  0.1148 -0.0409  0.2018
  809MOL0     C 6715  11.290   8.304   6.958  0.7544 -0.1812  0.2673
  809MOL0     C 6716  11.389   8.394   7.036 -0.4287  0.5146 -0.7910
  809MOL0     C 6717  11.370   8.377   7.191 -0.5676  0.0216  0.4993
  809MOL0     C 6718  11.435   8.483   7.267  0.5241  0.4654 -0.3641
  809MOL0     C 6719  11.372   8.612   7.241 -0.1783 -0.4300  0.6009
  809MOL0     C 6720  11.325   8.728   7.235  0.3546  0.2667  0.3031
  809MOL0     C 6721  11.381   8.226   6.622  0.0031 -0.0918  0.4146
  809MOL0     C 6722  11.402   8.121   6.530 -0.1772  0.3075  0.7431
  809MOL0     H 6723  11.228   7.819   6.227 -1.3197 -1.3420  0.3306
  809MOL0     H 6724  11.236   7.688   6.017  1.0439 -0.5524  0.0440
  809MOL0     H 6725  11.591   7.451   5.987 -0.1252 -0.2011 -0.3685
  809MOL0     H 6726  11.651   7.538   5.857 -0.3710  1.8062  1.7179
  809MOL0     H 6727  11.589   7.311   5.771 -1.7896 -1.5646 -2.9701
  809MOL0     H 6728  11.494   7.434   5.696 -0.3594  2.1006  1.4261
  809MOL0     H 6729  11.386   7.302   5.946  0.3557 -0.8219  0.0828
  809MOL0     H 6730  11.422   7.191   5.814  0.3214  0.1226 -0.3273
  809MOL0     H 6731  11.259   7.448   5.803  1.9323  0.7875 -3.1931
  809MOL0     H 6732  11.269   7.325   5.677 -0.9427 -1.6370 -0.3052
  809MOL0     H 6733  11.150   7.252   5.954 -1.1661  4.7424  0.3974
  809MOL0     H 6734  11.147   7.159   5.811  0.1889 -0.8975  2.5097
  809MOL0     H 6735  10.982   7.360   5.713 -3.8171  0.9156  1.9920
  809MOL0     H 6736  10.992   7.428   5.871  1.2069  1.9463 -3.1907
  809MOL0     H 6737  10.922   7.144   5.793 -0.4478  0.2439 -0.1283
  809MOL0     H 6738  10.933   7.205   5.963 -0.0441  3.8924  1.1245
  809MOL0     H 6739  10.717   7.317   5.769 -1.1197 -0.2401 -0.1721
  809MOL0     H 6740  10.760   7.360   5.929  1.9083  0.0502  1.7361
  809MOL0     H 6741  10.740   7.095   6.090 -1.5388  0.0964  1.6124
  809MOL0     H 6742  10.409   6.951   6.151  1.8120 -1.3577  2.7750
  809MOL0     H 6743  10.577   6.888   6.153  0.1851  0.3851  0.6955
  809MOL0     H 6744  10.363   6.838   5.944 -0.3208 -0.0828  0.2194
  809MOL0     H 6745  10.391   6.730   6.084  0.3654  0.4925  0.5102
  809MOL0     H 6746  10.478   6.646   5.876  2.1678 -1.3461  0.2416
  809MOL0     H 6747  10.600   6.770   5.864 -1.4600  2.7275  0.6252
  809MOL0     H 6748  10.609   6.608   6.113 -1.8671  0.4613 -0.4321
  809MOL0     H 6749  10.731   6.676   6.010 -0.5609  0.8490 -1.4024
  809MOL0     H 6750  10.481   6.401   6.107 -0.6093  0.6545 -0.2947
  809MOL0     H 6751  10.553   6.217   6.274  0.0423 -0.3792  0.3980
  809MOL0     H 6752  10.924   5.894   6.420  1.6913 -0.9309  1.0990
  809MOL0     H 6753  10.964   5.726   6.590  0.0527  0.3756  1.7978
  809MOL0     H 6754  10.830   5.429   6.747  0.2342  2.5416  2.1932
  809MOL0     H 6755  10.703   5.453   6.617 -1.9443  0.2005  0.7269
  809MOL0     H 6756  10.547   5.504   6.809 -1.0519 -0.5276 -1.9639
  809MOL0     H 6757  10.659   5.445   6.924 -1.9791 -1.0927  0.5301
  809MOL0     H 6758  10.537   5.240   6.882 -0.8692  0.7615 -0.0596
  809MOL0     H 6759  10.664   5.227   6.759  1.5193  1.8573  1.4294
  809MOL0     H 6760  10.396   5.360   6.728 -0.4643 -1.0233 -0.4121
  809MOL0     H 6761  10.514   5.323   6.593  0.3347  1.3247  0.4190
  809MOL0     H 6762  10.357   5.127   6.769 -0.0836  0.9134  1.2395
  809MOL0     H 6763  10.478   5.075   6.657 -2.0510 -1.9862 -2.3144
  809MOL0     H 6764  10.266   5.035   6.557  0.1254  0.1688 -0.6586
  809MOL0     H 6765  10.377   5.138   6.460 -2.3280  0.6996 -2.0657
  809MOL0     H 6766  10.148   5.249   6.622  0.4156  1.3707 -0.0283
  809MOL0     H 6767  10.253   5.320   6.511 -0.3178  0.3198  1.3718
  809MOL0     H 6768  10.031   5.101   6.447 -0.0280 -1.1632 -2.0763
  809MOL0     H 6769  10.147   5.138   6.342 -2.0106 -1.6915  0.8571
  809MOL0     H 6770  10.554   5.674   6.679  0.5355 -3.8459 -2.7306
  809MOL0     H 6771  10.502   5.876   6.496 -1.5730 -1.4551  0.2043
  809MOL0     H 6772  10.866   6.102   5.999 -0.6911 -0.1394 -0.5229
  809MOL0     H 6773  10.806   6.308   5.864 -0.7418 -0.5967 -0.6238
  809MOL0     H 6774  11.662   7.680   6.039 -1.4447  0.6765 -2.7473
  809MOL0     H 6775  11.666   7.811   6.236 -0.3290  0.8018  0.6176
  809MOL0     H 6776  11.266   7.864   6.712 -0.2169 -2.0382 -3.0078
  809MOL0     H 6777  11.217   8.059   6.865 -2.4811  2.2539 -1.0798
  809MOL0     H 6778  11.308   8.202   6.993 -1.5796 -0.4509  0.8476
  809MOL0     H 6779  11.194   8.327   7.006  1.8160 -0.5531  2.7017
  809MOL0     H 6780  11.492   8.372   7.006 -0.9903 -1.6852 -1.2781
  809MOL0     H 6781  11.363   8.497   7.008 -1.3561  0.6225  0.4061
  809MOL0     H 6782  11.415   8.283   7.226  3.5366  1.7227  0.3003
  809MOL0     H 6783  11.263   8.381   7.213 -0.5724  0.0815  0.4642
  809MOL0     H 6784  11.429   8.468   7.375 -1.6518  4.4006  0.2232
  809MOL0     H 6785  11.535   8.502   7.228  0.0260  2.7497 -0.6684
  809MOL0     H 6786  11.275   8.820   7.214 -0.4404 -0.3330 -0.4821
  809MOL0     H 6787  11.406   8.330   6.604  0.1999 -0.3575 -0.9549
  809MOL0     H 6788  11.453   8.141   6.436  0.8886  1.9765  1.6272
  810MOL0     O 6789   5.391  11.194   8.222 -0.0531 -0.9665 -0.3470
  810MOL0     C 6790   5.394  11.197   8.110 -0.8319  0.1228  0.8406
  810MOL0     O 6791   5.292  11.169   8.024 -0.8520  0.2648  0.0133
  810MOL0     C 6792   5.175  11.115   8.072 -0.3968  0.1191  0.8754
  810MOL0     C 6793   5.106  11.163   8.185 -0.1360 -0.0530 -0.0622
  810MOL0     C 6794   4.977  11.124   8.223  1.1654  0.4187 -0.5363
  810MOL0     C 6795   4.901  11.033   8.151 -0.6630  0.8666  1.2415
  810MOL0     O 6796   4.779  11.000   8.189 -0.9853 -1.3924  0.7646
  810MOL0     C 6797   4.684  10.939   8.102  0.5108 -0.7088  0.1721
  810MOL0     C 6798   4.553  10.899   8.180 -0.1864 -0.2574 -0.4534
  810MOL0     C 6799   4.481  11.018   8.248 -0.1205  0.2379  0.2653
  810MOL0     C 6800   4.489  11.148   8.163 -0.1792 -0.3031 -0.7123
  810MOL0     C 6801   4.396  11.253   8.224  0.0714 -1.0118 -1.0056
  810MOL0     C 6802   4.433  11.288   8.369 -0.2309  0.6980 -0.8248
  810MOL0     C 6803   4.347  11.401   8.435 -0.5846  0.4369  0.5182
  810MOL0     C 6804   4.205  11.356   8.474  0.7742  0.6613  0.8272
  810MOL0     N 6805   4.131  11.451   8.555 -0.8842 -0.2147 -0.0547
  810MOL0     C 6806   4.065  11.562   8.509  0.6065 -0.0208  0.4677
  810MOL0     C 6807   4.002  11.611   8.617  0.4698  0.2362  0.3647
  810MOL0     C 6808   3.897  11.710   8.603 -0.1588  0.1955  0.3972
  810MOL0     C 6809   3.781  11.660   8.523  0.6218  0.5175 -0.2579
  810MOL0     C 6810   3.660  11.759   8.530 -0.3198  0.2331 -0.5059
  810MOL0     C 6811   3.530  11.690   8.483  0.1077  0.8507 -0.1966
  810MOL0     O 6812   3.508  11.565   8.562  0.3031  0.7404 -0.4080
  810MOL0     C 6813   3.374  11.531   8.597 -1.0127 -0.1035 -0.5395
  810MOL0     C 6814   3.324  11.400   8.603 -0.9412 -0.6308  1.3850
  810MOL0     C 6815   3.203  11.376   8.662 -0.0244 -0.8673  0.6595
  810MOL0     C 6816   3.125  11.477   8.713 -0.1845  0.2971 -0.4910
  810MOL0     C 6817   2.986  11.453   8.770 -1.2409  0.2128  0.5197
  810MOL0     O 6818   2.919  11.568   8.816  0.2423  0.6276  0.0286
  810MOL0     C 6819   2.805  11.553   8.892 -0.1087  0.5406 -0.0535
  810MOL0     C 6820   2.764  11.437   8.964  0.3822 -0.3756  0.1983
  810MOL0     C 6821   2.627  11.452   9.009  0.7318 -1.0391  0.9298
  810MOL0     C 6822   2.554  11.563   8.991  0.7085 -0.1275 -0.8576
  810MOL0     O 6823   2.421  11.573   9.011  0.0240 -0.0901 -0.5913
  810MOL0     C 6824   2.370  11.648   9.117 -0.3486 -0.1313 -1.1350
  810MOL0     C 6825   2.299  11.549   9.206 -0.0516  0.7053 -0.1296
  810MOL0     C 6826   2.255  11.609   9.342  0.1604  0.5449  0.6917
  810MOL0     C 6827   2.149  11.526   9.414  0.6267  1.2531 -0.2007
  810MOL0     C 6828   2.116  11.589   9.550 -0.1415  0.3527 -0.6672
  810MOL0     C 6829   2.049  11.731   9.542 -0.2016 -0.6962  0.6571
  810MOL0     C 6830   2.055  11.791   9.689  0.5266  0.1209  0.1138
  810MOL0     C 6831   1.979  11.932   9.705 -0.3549 -0.7385  0.5754
  810MOL0    Cl 6832   1.810  11.920   9.642  0.1398 -0.3645  0.3716
  810MOL0     C 6833   2.612  11.679   8.938 -0.1699 -0.2338 -0.4884
  810MOL0     C 6834   2.738  11.677   8.890  0.0057  1.0555  0.0374
  810MOL0     O 6835   2.947  11.335   8.758 -0.8945  0.1154  0.5453
  810MOL0     C 6836   3.173  11.609   8.710  0.1321 -0.0049  0.0526
  810MOL0     C 6837   3.299  11.632   8.662 -0.5120 -0.1765 -0.7300
  810MOL0     N 6838   4.021  11.520   8.725  0.0441  0.0475 -0.0301
  810MOL0     N 6839   4.102  11.427   8.688 -0.4810  0.6899 -0.5759
  810MOL0     C 6840   4.966  10.992   8.026 -0.4124  0.1032  0.4182
  810MOL0     C 6841   5.106  11.017   7.999  0.5858 -0.5737 -0.5476
  810MOL0     C 6842   5.524  11.254   8.056  1.5355  0.2104  0.0591
  810MOL0     C 6843   5.620  11.323   8.138  0.7704  0.6213 -0.9100
  810MOL0     C 6844   5.734  11.375   8.096  0.2897 -0.4107  0.1062
  810MOL0     C 6845   5.770  11.357   7.958  0.2023  0.6488  0.3629
  810MOL0     O 6846   5.890  11.405   7.928 -0.2296 -0.5689  0.0800
  810MOL0     C 6847   5.932  11.422   7.792  0.1824 -0.0737 -0.0318
  810MOL0     C 6848   6.025  11.543   7.772  0.0215 -0.5825  0.3950
  810MOL0     C 6849   5.951  11.678   7.762  0.1805  0.1957  0.5967
  810MOL0     C 6850   6.050  11.794   7.747 -1.0717  0.1060 -0.1435
  810MOL0     C 6851   5.992  11.917   7.802 -1.2706 -0.0302 -0.5426
  810MOL0     C 6852   5.943  12.026   7.835 -0.9044  0.3843  0.9191
  810MOL0     C 6853   5.679  11.296   7.872  0.8401  0.2208 -0.0616
  810MOL0     C 6854   5.549  11.254   7.920 -0.1223 -0.6121  0.4245
  810MOL0     H 6855   5.164  11.226   8.251 -0.4056  0.0080  0.1163
  810MOL0     H 6856   4.927  11.164   8.311 -1.5972 -0.2567 -1.6773
  810MOL0     H 6857   4.718  10.849   8.052  0.0973  0.7153 -2.9370
  810MOL0     H 6858   4.659  11.011   8.023  4.1895  0.5746  0.0198
  810MOL0     H 6859   4.573  10.824   8.257 -0.8850  2.2804  2.4255
  810MOL0     H 6860   4.481  10.851   8.114 -2.3711  2.2310 -0.0583
  810MOL0     H 6861   4.532  11.041   8.341 -1.0407  2.2495  0.3398
  810MOL0     H 6862   4.377  10.998   8.277  0.8062 -0.2243  3.5994
  810MOL0     H 6863   4.588  11.193   8.163 -0.1615  0.2396  4.4576
  810MOL0     H 6864   4.469  11.127   8.058  2.5937 -0.8170 -1.2026
  810MOL0     H 6865   4.291  11.224   8.217 -0.3699  0.8056 -2.5105
  810MOL0     H 6866   4.395  11.345   8.165 -0.0841 -1.1732 -1.2508
  810MOL0     H 6867   4.538  11.319   8.375  0.6216 -1.8695 -1.1266
  810MOL0     H 6868   4.424  11.199   8.431  0.8503  1.6495  0.7883
  810MOL0     H 6869   4.399  11.425   8.528  1.7411  0.6616 -0.7756
  810MOL0     H 6870   4.339  11.496   8.382 -2.6586  0.1412  0.2101
  810MOL0     H 6871   4.205  11.261   8.529  2.0832  0.4293  0.4514
  810MOL0     H 6872   4.152  11.343   8.379  1.8879  0.0391  0.2708
  810MOL0     H 6873   4.054  11.583   8.403  5.9457 -2.1656 -0.7857
  810MOL0     H 6874   3.948  11.783   8.540  1.5703 -0.7348  0.6614
  810MOL0     H 6875   3.848  11.745   8.695 -0.0072 -0.7307  0.8441
  810MOL0     H 6876   3.768  11.560   8.567 -0.5071 -0.3193 -2.3665
  810MOL0     H 6877   3.807  11.638   8.419 -1.7652  2.6282 -1.4005
  810MOL0     H 6878   3.649  11.802   8.631  1.1851 -0.0762 -0.1991
  810MOL0     H 6879   3.673  11.845   8.464 -1.3806  3.2899  2.9047
  810MOL0     H 6880   3.535  11.664   8.377  1.1707  4.1924 -1.0653
  810MOL0     H 6881   3.447  11.758   8.501 -0.8441 -0.2522 -0.3092
  810MOL0     H 6882   3.404  11.341   8.560 -0.4873  0.3543  0.8334
  810MOL0     H 6883   3.172  11.273   8.676  0.9998 -1.0851  1.4899
  810MOL0     H 6884   2.801  11.335   8.960  2.6983  0.4511 -1.7399
  810MOL0     H 6885   2.571  11.360   9.026  0.8866 -0.5598  4.8835
  810MOL0     H 6886   2.298  11.724   9.084 -0.1543 -0.1899 -1.7105
  810MOL0     H 6887   2.455  11.700   9.162 -0.9575 -1.7042  2.1798
  810MOL0     H 6888   2.366  11.464   9.225 -1.4667 -0.1948  1.0361
  810MOL0     H 6889   2.211  11.516   9.150  0.4266  2.1331 -1.8038
  810MOL0     H 6890   2.213  11.706   9.313  0.3423 -0.0278 -1.6944
  810MOL0     H 6891   2.330  11.624   9.420  0.3652  0.1683  0.5694
  810MOL0     H 6892   2.059  11.508   9.355  1.1335 -0.9487 -0.3936
  810MOL0     H 6893   2.194  11.433   9.451  1.8432  2.6469  2.1177
  810MOL0     H 6894   2.211  11.602   9.602 -0.9235  2.2031  0.4271
  810MOL0     H 6895   2.051  11.519   9.603 -0.4018  1.0636 -0.0234
  810MOL0     H 6896   1.946  11.724   9.505 -1.1072  2.5628  2.2454
  810MOL0     H 6897   2.105  11.796   9.474 -2.3626  0.1358 -0.4331
  810MOL0     H 6898   2.017  11.710   9.752  1.7733 -1.8652 -1.5841
  810MOL0     H 6899   2.161  11.807   9.708  0.8713 -1.4713 -0.3064
  810MOL0     H 6900   2.014  12.011   9.638 -1.8880  0.4495  1.0956
  810MOL0     H 6901   1.982  11.969   9.807 -0.1601 -0.5894  0.5159
  810MOL0     H 6902   2.549  11.768   8.941  0.5596  0.3290 -1.2585
  810MOL0     H 6903   2.783  11.754   8.828  5.9815 -0.6588  1.6098
  810MOL0     H 6904   3.112  11.681   8.765 -0.8480 -1.6962  1.2946
  810MOL0     H 6905   3.348  11.723   8.696  0.9701 -0.7890 -1.1384
  810MOL0     H 6906   4.907  10.921   7.969  2.6761  0.6367 -3.9114
  810MOL0     H 6907   5.145  10.967   7.911  1.4580 -0.2547 -0.3537
  810MOL0     H 6908   5.611  11.337   8.245  0.4143 -1.4533 -0.6321
  810MOL0     H 6909   5.800  11.431   8.162 -0.0005  2.4797 -1.8978
  810MOL0     H 6910   5.843  11.432   7.729 -0.2979  2.1390  0.8810
  810MOL0     H 6911   5.988  11.335   7.758 -2.3846 -1.6370 -0.5657
  810MOL0     H 6912   6.108  11.548   7.843  0.1030  3.3156  0.2172
  810MOL0     H 6913   6.068  11.532   7.672 -2.6771  1.2974 -1.1126
  810MOL0     H 6914   5.883  11.681   7.848 -2.8981  2.0926 -1.6974
  810MOL0     H 6915   5.888  11.673   7.672  1.6958 -1.2947 -0.4440
  810MOL0     H 6916   6.145  11.772   7.798 -1.8127 -0.8596  0.8563
  810MOL0     H 6917   6.075  11.817   7.643 -0.2440  0.2909  0.0867
  810MOL0     H 6918   5.887  12.114   7.860  1.6173  2.1645  0.7301
  810MOL0     H 6919   5.694  11.291   7.765  2.1781 -3.4311  0.1446
  810MOL0     H 6920   5.469  11.211   7.860  0.5227  1.4320 -2.0692
  811MOL0     O 6921   2.142   2.544   1.092 -0.5897 -0.2600  0.2550
  811MOL0     C 6922   2.214   2.519   0.995 -0.1788  0.3465  0.2078
  811MOL0     O 6923   2.209   2.405   0.928  0.2780 -0.6807  0.3085
  811MOL0     C 6924   2.131   2.313   0.984  0.6045 -0.0532 -0.7337
  811MOL0     C 6925   2.151   2.256   1.106  0.8098  0.5989  0.0875
  811MOL0     C 6926   2.071   2.160   1.161 -0.3327 -0.5403 -0.3170
  811MOL0     C 6927   1.961   2.114   1.098  0.4773  0.6321  0.7692
  811MOL0     O 6928   1.871   2.023   1.142 -0.1146 -0.0277 -0.8015
  811MOL0     C 6929   1.903   1.945   1.260  0.1241 -0.0889 -0.2323
  811MOL0     C 6930   1.860   2.023   1.386 -0.4098  0.8620 -0.4145
  811MOL0     C 6931   1.921   1.957   1.512  0.3520 -0.4006 -0.5632
  811MOL0     C 6932   1.846   1.825   1.552 -0.4968  0.2556  0.1698
  811MOL0     C 6933   1.905   1.757   1.674  0.2339  0.1716  0.2185
  811MOL0     C 6934   1.879   1.608   1.668 -0.6139  0.5735 -0.5750
  811MOL0     C 6935   1.934   1.537   1.789  0.6193  0.5752 -0.0550
  811MOL0     C 6936   1.917   1.388   1.807 -0.0491 -0.2931 -0.0712
  811MOL0     N 6937   2.003   1.336   1.916  0.2466 -0.0639 -0.5588
  811MOL0     C 6938   2.129   1.299   1.907 -0.2027 -0.0800 -0.0122
  811MOL0     C 6939   2.166   1.271   2.033 -0.3301  0.1330 -0.2681
  811MOL0     C 6940   2.300   1.216   2.076 -0.1588 -0.4990 -0.5950
  811MOL0     C 6941   2.400   1.325   2.125  1.1217  0.2749 -0.1762
  811MOL0     C 6942   2.350   1.383   2.256 -0.7850 -0.2312 -0.5339
  811MOL0     C 6943   2.439   1.494   2.317 -0.6796 -0.4715  0.1800
  811MOL0     O 6944   2.567   1.445   2.360 -0.8158 -0.3527  0.1332
  811MOL0     C 6945   2.585   1.359   2.456  0.3442  0.3635  0.4225
  811MOL0     C 6946   2.491   1.323   2.559  1.1332  0.3821 -0.2404
  811MOL0     C 6947   2.530   1.239   2.669  0.8894  0.1143  0.3326
  811MOL0     C 6948   2.658   1.178   2.670 -0.3352  0.0112 -0.4494
  811MOL0     C 6949   2.692   1.082   2.773  0.3120 -0.3336  0.0910
  811MOL0     O 6950   2.612   1.089   2.895 -0.7011  1.4059  0.3700
  811MOL0     C 6951   2.630   0.982   2.981  0.4913  0.2281  0.6145
  811MOL0     C 6952   2.745   0.939   3.046 -0.2566  0.2684  0.0193
  811MOL0     C 6953   2.750   0.834   3.140 -0.5042 -0.4977 -0.7311
  811MOL0     C 6954   2.631   0.764   3.158 -0.3287  1.0131  0.0765
  811MOL0     O 6955   2.634   0.648   3.245  0.1023 -0.2382  0.0852
  811MOL0     C 6956   2.530   0.552   3.243 -0.9091  0.2980 -0.5413
  811MOL0     C 6957   2.551   0.455   3.354 -1.1716  0.1583 -1.0094
  811MOL0     C 6958   2.645   0.331   3.324 -0.7679  0.0367 -0.0370
  811MOL0     C 6959   2.646   0.234   3.441  1.2279  0.4207  0.2245
  811MOL0     C 6960   2.766   0.138   3.453  1.0837 -0.9317 -0.2479
  811MOL0     C 6961   2.748   0.011   3.542 -0.0123 -0.2002  0.8012
  811MOL0     C 6962   2.751   0.058   3.686  0.2511 -0.0088 -0.5445
  811MOL0     C 6963   2.722  -0.049   3.783 -0.6591 -1.2000  0.1107
  811MOL0    Cl 6964   2.548  -0.103   3.763 -0.1575 -0.1429 -0.1758
  811MOL0     C 6965   2.519   0.790   3.084 -0.4869 -1.6158 -0.1382
  811MOL0     C 6966   2.518   0.895   2.989 -0.0377 -0.1583  0.2467
  811MOL0     O 6967   2.758   0.985   2.734 -0.8780 -0.1752  0.5626
  811MOL0     C 6968   2.753   1.226   2.573 -0.1727 -0.2679 -0.4778
  811MOL0     C 6969   2.714   1.309   2.467  0.1906 -0.5066  0.9274
  811MOL0     N 6970   2.061   1.309   2.114 -0.0917 -0.0495 -1.0800
  811MOL0     N 6971   1.963   1.348   2.046  0.0028 -0.4536 -0.3787
  811MOL0     C 6972   1.931   2.173   0.972  0.4245 -0.0418 -0.3339
  811MOL0     C 6973   2.020   2.272   0.917  0.5812  0.1723  0.1045
  811MOL0     C 6974   2.328   2.605   0.948  0.2084  0.0125 -0.1754
  811MOL0     C 6975   2.315   2.746   0.966 -0.2195  0.6812 -0.5148
  811MOL0     C 6976   2.413   2.841   0.916  0.1664  0.7143  0.1933
  811MOL0     C 6977   2.517   2.785   0.850 -0.2371 -0.1795  0.7921
  811MOL0     O 6978   2.621   2.864   0.797  0.1335  0.0950 -0.5782
  811MOL0     C 6979   2.755   2.836   0.851  0.5725 -0.0487  1.4379
  811MOL0     C 6980   2.769   2.848   1.005  0.3388  0.5429 -0.3322
  811MOL0     C 6981   2.920   2.817   1.034 -0.1492  1.2469 -0.3736
  811MOL0     C 6982   2.938   2.665   1.037 -0.3783 -0.3334  0.1524
  811MOL0     C 6983   3.074   2.606   1.054 -0.2033  0.4957  0.1581
  811MOL0     C 6984   3.186   2.567   1.058 -1.1097  0.0283 -0.1680
  811MOL0     C 6985   2.527   2.644   0.839  0.3876 -0.1602  0.4865
  811MOL0     C 6986   2.437   2.547   0.887 -0.7846 -0.4893  0.1981
  811MOL0     H 6987   2.239   2.277   1.165  0.6835 -2.3554  1.4861
  811MOL0     H 6988   2.099   2.114   1.255  1.9617  1.1850 -0.0593
  811MOL0     H 6989   2.007   1.913   1.266 -0.1361 -1.1934 -1.2308
  811MOL0     H 6990   1.849   1.851   1.249  0.5321 -0.3675  0.1135
  811MOL0     H 6991   1.751   2.017   1.387 -0.3377 -1.0684 -0.0026
  811MOL0     H 6992   1.894   2.126   1.370 -0.0169  0.6005 -1.3341
  811MOL0     H 6993   1.912   2.021   1.600 -1.2496  0.5216 -1.3430
  811MOL0     H 6994   2.028   1.945   1.492  0.3388 -1.2033 -0.1731
  811MOL0     H 6995   1.739   1.847   1.562  0.1261  3.9206  0.2162
  811MOL0     H 6996   1.863   1.751   1.473  0.4864  1.2137 -0.5597
  811MOL0     H 6997   1.852   1.793   1.762  1.0742  1.6657  0.1573
  811MOL0     H 6998   2.009   1.784   1.697  0.6575 -1.7347  0.7010
  811MOL0     H 6999   1.926   1.559   1.583  0.7391 -0.0651  0.5108
  811MOL0     H 7000   1.771   1.591   1.666 -0.8496  1.8761 -0.1361
  811MOL0     H 7001   2.038   1.566   1.801  0.3306  1.7826 -0.3538
  811MOL0     H 7002   1.874   1.572   1.874 -1.0374  1.3004 -1.4487
  811MOL0     H 7003   1.964   1.345   1.718  1.6504 -0.5830  0.9102
  811MOL0     H 7004   1.810   1.366   1.811  0.0193 -0.4247  1.8787
  811MOL0     H 7005   2.189   1.282   1.817  0.7416 -1.0620  0.7739
  811MOL0     H 7006   2.340   1.160   1.991 -0.4342 -2.3933  0.4770
  811MOL0     H 7007   2.283   1.143   2.155  1.3993  2.0837  2.3046
  811MOL0     H 7008   2.415   1.396   2.043 -2.5454  2.0522  0.5104
  811MOL0     H 7009   2.499   1.279   2.136  2.4954  3.0259 -0.0248
  811MOL0     H 7010   2.246   1.416   2.252 -0.7525 -0.0312  0.0863
  811MOL0     H 7011   2.340   1.306   2.333 -0.6406  1.3125  1.1078
  811MOL0     H 7012   2.389   1.550   2.397 -0.4013  3.0920 -1.8924
  811MOL0     H 7013   2.457   1.576   2.247 -0.3620  0.3124  1.1523
  811MOL0     H 7014   2.388   1.359   2.559  0.2079 -2.0820 -0.1964
  811MOL0     H 7015   2.450   1.202   2.732 -0.8637  0.9252 -1.3067
  811MOL0     H 7016   2.834   0.994   3.015  1.4553 -0.9694  2.3953
  811MOL0     H 7017   2.843   0.805   3.188  0.1897  1.9211 -0.4742
  811MOL0     H 7018   2.530   0.505   3.144 -1.8986 -0.9908  0.0432
  811MOL0     H 7019   2.438   0.610   3.257 -0.8014  0.1013  1.1582
  811MOL0     H 7020   2.455   0.415   3.389  0.7626 -3.0668  1.0729
  811MOL0     H 7021   2.592   0.512   3.438 -0.1824  0.4193 -1.6622
  811MOL0     H 7022   2.747   0.367   3.308 -0.6321 -0.1305  0.4298
  811MOL0     H 7023   2.609   0.273   3.239 -3.6727 -1.8344  2.2752
  811MOL0     H 7024   2.649   0.286   3.537 -0.2414 -1.2378  1.2406
  811MOL0     H 7025   2.547   0.189   3.452  0.9792  1.4403  2.9869
  811MOL0     H 7026   2.855   0.190   3.488 -0.4231  3.1373 -1.8471
  811MOL0     H 7027   2.785   0.107   3.350  0.7621 -2.2339  0.0605
  811MOL0     H 7028   2.832  -0.055   3.520 -2.6132 -3.4394 -0.2006
  811MOL0     H 7029   2.660  -0.045   3.508  1.4987 -0.6130 -2.8728
  811MOL0     H 7030   2.855   0.086   3.706  0.9345 -2.1205 -0.8114
  811MOL0     H 7031   2.681   0.142   3.694  0.9276  0.5684 -0.6327
  811MOL0     H 7032   2.721  -0.012   3.886  0.8955  0.4619 -0.4239
  811MOL0     H 7033   2.793  -0.130   3.770  0.5793 -0.0088 -0.7412
  811MOL0     H 7034   2.422   0.742   3.092 -1.8454  1.2010  2.2595
  811MOL0     H 7035   2.423   0.912   2.940 -0.8739 -1.2977  1.4048
  811MOL0     H 7036   2.859   1.205   2.584  0.5772  3.6085  1.6305
  811MOL0     H 7037   2.797   1.360   2.419 -0.5106 -0.2425 -0.0431
  811MOL0     H 7038   1.843   2.139   0.919  0.3046 -1.8201  0.9070
  811MOL0     H 7039   1.999   2.322   0.823  1.0083  2.5759  1.2083
  811MOL0     H 7040   2.241   2.788   1.034  1.9596  2.6100  0.8193
  811MOL0     H 7041   2.386   2.946   0.918 -1.3798  0.3374  0.7158
  811MOL0     H 7042   2.818   2.922   0.828  2.4802 -1.7667 -0.1144
  811MOL0     H 7043   2.808   2.755   0.800 -0.6388 -0.3745  0.6465
  811MOL0     H 7044   2.754   2.953   1.032  1.1570  0.8213 -0.9597
  811MOL0     H 7045   2.691   2.789   1.055  0.8642 -2.9831 -3.2740
  811MOL0     H 7046   2.953   2.849   1.133  0.3862  0.9676 -0.4558
  811MOL0     H 7047   2.964   2.874   0.952  1.8664 -0.0064 -0.2440
  811MOL0     H 7048   2.872   2.632   1.118 -3.8006 -0.3595 -2.4352
  811MOL0     H 7049   2.889   2.622   0.949 -1.4112 -0.2024  0.6483
  811MOL0     H 7050   3.287   2.532   1.056 -0.3158  2.2447 -1.8660
  811MOL0     H 7051   2.610   2.606   0.780  2.3114  1.3898  2.0557
  811MOL0     H 7052   2.452   2.440   0.874  2.4625 -0.2041  0.6920
  812MOL0     O 7053   8.528   8.611   5.215 -0.3487 -0.7094 -0.5809
  812MOL0     C 7054   8.557   8.495   5.190 -0.1254 -0.8816 -0.0802
  812MOL0     O 7055   8.605   8.409   5.282  0.2704 -0.9595 -0.2891
  812MOL0     C 7056   8.627   8.442   5.416  1.1876 -0.9930  0.0778
  812MOL0     C 7057   8.753   8.463   5.456  0.4950 -0.1086  0.1629
  812MOL0     C 7058   8.777   8.515   5.588  0.4548  0.4227 -0.2838
  812MOL0     C 7059   8.676   8.559   5.677  0.4585  0.6883 -0.7973
  812MOL0     O 7060   8.705   8.629   5.794 -0.5440  0.1771  0.3561
  812MOL0     C 7061   8.606   8.689   5.880  0.2397 -0.3332 -0.1279
  812MOL0     C 7062   8.675   8.776   5.993  0.9379  0.6405  1.0294
  812MOL0     C 7063   8.762   8.901   5.924  1.0630  0.3833  0.3546
  812MOL0     C 7064   8.672   8.997   5.833  0.0791  0.0756  0.2554
  812MOL0     C 7065   8.745   9.111   5.756  0.0380  0.6955  0.3672
  812MOL0     C 7066   8.658   9.221   5.696  0.1646  0.2878  0.9009
  812MOL0     C 7067   8.577   9.181   5.567 -0.8373  0.7953  0.0769
  812MOL0     C 7068   8.445   9.264   5.528 -0.5835  0.9145 -0.0255
  812MOL0     N 7069   8.456   9.408   5.534  0.6204  0.6909  0.5285
  812MOL0     C 7070   8.560   9.480   5.481 -0.4679  0.0150  0.2552
  812MOL0     C 7071   8.547   9.602   5.522 -0.7824 -1.1149  0.0870
  812MOL0     C 7072   8.632   9.719   5.497 -0.0153  0.3001 -0.9618
  812MOL0     C 7073   8.586   9.797   5.375  0.6172 -0.9091 -0.5560
  812MOL0     C 7074   8.448   9.858   5.386  1.1821  0.7688 -0.4544
  812MOL0     C 7075   8.421   9.952   5.278  0.4647  0.3107 -0.1575
  812MOL0     O 7076   8.474  10.080   5.312 -0.2506  0.5164  0.2258
  812MOL0     C 7077   8.512  10.149   5.205 -0.8204 -0.9907  0.5207
  812MOL0     C 7078   8.436  10.261   5.153 -0.3897  0.3746 -0.0423
  812MOL0     C 7079   8.482  10.334   5.054  0.0747  0.3065  1.1116
  812MOL0     C 7080   8.605  10.307   4.993  0.3315  0.0541  0.1330
  812MOL0     C 7081   8.661  10.381   4.884  0.4786  0.1986  0.0203
  812MOL0     O 7082   8.571  10.464   4.812 -0.6133  0.0290  0.2068
  812MOL0     C 7083   8.626  10.561   4.729 -0.1532 -0.3921 -0.2261
  812MOL0     C 7084   8.701  10.539   4.613  0.6064  0.1598 -0.2279
  812MOL0     C 7085   8.731  10.641   4.522  0.5480 -0.1002 -0.2041
  812MOL0     C 7086   8.689  10.773   4.546 -0.7296  1.3100  0.9279
  812MOL0     O 7087   8.712  10.864   4.448 -0.0449 -0.1769  0.1815
  812MOL0     C 7088   8.643  10.988   4.472  0.5982  0.3468 -0.0486
  812MOL0     C 7089   8.648  11.083   4.346  0.6257 -1.0023  0.2503
  812MOL0     C 7090   8.570  11.212   4.359  0.7189 -0.9400  0.0183
  812MOL0     C 7091   8.516  11.276   4.225  0.3304  0.5017  0.3279
  812MOL0     C 7092   8.435  11.400   4.266  0.1544 -0.1186 -0.4380
  812MOL0     C 7093   8.436  11.502   4.151 -0.2299  0.9483  0.4719
  812MOL0     C 7094   8.424  11.645   4.199 -0.4327 -0.0935  0.0753
  812MOL0     C 7095   8.299  11.655   4.291 -0.5113  0.4429 -0.9235
  812MOL0    Cl 7096   8.241  11.824   4.277 -0.2609  0.4087 -0.0342
  812MOL0     C 7097   8.628  10.790   4.664 -0.0303 -0.2781 -0.3497
  812MOL0     C 7098   8.586  10.688   4.754  0.6105  0.2078 -1.0858
  812MOL0     O 7099   8.770  10.344   4.840  0.1146 -0.3802 -0.5501
  812MOL0     C 7100   8.686  10.213   5.051  0.6356 -1.3935  0.5354
  812MOL0     C 7101   8.641  10.131   5.161  0.7979  0.3728  0.1495
  812MOL0     N 7102   8.426   9.610   5.581 -0.2132 -0.5484  0.0513
  812MOL0     N 7103   8.379   9.487   5.601  0.6546  0.3813 -0.1401
  812MOL0     C 7104   8.544   8.525   5.632 -0.7277 -0.9400 -0.7152
  812MOL0     C 7105   8.517   8.477   5.500 -0.4407  0.8748 -0.2236
  812MOL0     C 7106   8.547   8.437   5.060  0.4868 -0.5563 -0.3078
  812MOL0     C 7107   8.449   8.483   4.964  0.0617 -0.2647 -0.0838
  812MOL0     C 7108   8.444   8.429   4.837  0.4951  0.4443 -0.0446
  812MOL0     C 7109   8.517   8.317   4.800 -0.1436  0.5588 -0.4543
  812MOL0     O 7110   8.496   8.279   4.667  0.6652  0.4032 -0.7049
  812MOL0     C 7111   8.539   8.151   4.627 -0.3348  0.6159 -0.5217
  812MOL0     C 7112   8.652   8.156   4.529 -1.4707  0.1365  0.3263
  812MOL0     C 7113   8.617   8.236   4.398  0.8406 -0.7093 -0.7288
  812MOL0     C 7114   8.738   8.265   4.301 -0.2991  0.3062 -0.0767
  812MOL0     C 7115   8.768   8.159   4.196  0.1815 -0.4502 -0.4891
  812MOL0     C 7116   8.788   8.083   4.104 -0.0840  0.5636  0.7041
  812MOL0     C 7117   8.609   8.266   4.894  0.1611  0.3536 -1.0947
  812MOL0     C 7118   8.617   8.317   5.026 -0.5127  0.5969 -0.5865
  812MOL0     H 7119   8.838   8.447   5.392  0.4117  1.6313 -0.4395
  812MOL0     H 7120   8.876   8.525   5.629 -0.9495 -0.6912  3.8476
  812MOL0     H 7121   8.553   8.613   5.938 -1.3436  1.4127  0.8278
  812MOL0     H 7122   8.534   8.744   5.818  1.2045  0.2022 -0.8039
  812MOL0     H 7123   8.743   8.712   6.049 -0.4136 -0.0543  1.9464
  812MOL0     H 7124   8.594   8.807   6.060  0.0530  0.0711  0.2418
  812MOL0     H 7125   8.843   8.872   5.857 -1.2012 -1.8057 -1.6223
  812MOL0     H 7126   8.805   8.962   6.004  3.3233  0.8607 -1.1251
  812MOL0     H 7127   8.644   8.937   5.746  2.2842 -0.0763 -0.4158
  812MOL0     H 7128   8.585   9.029   5.891 -0.2140  1.4038 -0.8672
  812MOL0     H 7129   8.819   9.076   5.684 -1.4359  0.1059 -0.9176
  812MOL0     H 7130   8.804   9.159   5.835  1.4676  0.6497 -0.6322
  812MOL0     H 7131   8.730   9.298   5.665  1.7922 -1.8647 -1.0102
  812MOL0     H 7132   8.587   9.262   5.769 -2.6886  1.8269 -2.4433
  812MOL0     H 7133   8.640   9.204   5.480 -1.8346  2.7347 -0.1651
  812MOL0     H 7134   8.556   9.074   5.559  0.3885  0.5488 -0.1387
  812MOL0     H 7135   8.368   9.232   5.599  0.1114 -1.0545 -0.1127
  812MOL0     H 7136   8.418   9.223   5.430 -3.5101  2.7647 -0.1575
  812MOL0     H 7137   8.636   9.438   5.415  0.0449 -2.1963  2.1555
  812MOL0     H 7138   8.735   9.684   5.488 -0.1080  0.3396 -2.4010
  812MOL0     H 7139   8.626   9.792   5.579 -0.2172 -0.7778  0.0114
  812MOL0     H 7140   8.567   9.728   5.293  0.0120 -1.5890  0.1366
  812MOL0     H 7141   8.661   9.872   5.347  0.2401  0.2673  1.3803
  812MOL0     H 7142   8.372   9.780   5.392 -0.7072  2.5838  0.7804
  812MOL0     H 7143   8.445   9.904   5.486  0.1155  1.2196 -0.6785
  812MOL0     H 7144   8.319   9.968   5.241 -0.1426 -2.5380  0.0454
  812MOL0     H 7145   8.458   9.906   5.186 -1.6206  0.6564 -1.2176
  812MOL0     H 7146   8.341  10.284   5.202 -0.4279  1.9287 -0.7720
  812MOL0     H 7147   8.423  10.416   5.015  0.3324  0.2467  0.5786
  812MOL0     H 7148   8.731  10.436   4.594  1.5380  0.4886 -0.6026
  812MOL0     H 7149   8.785  10.631   4.428 -0.4438 -0.5093 -0.7394
  812MOL0     H 7150   8.692  11.044   4.552  3.9042  0.6220 -2.0620
  812MOL0     H 7151   8.537  10.973   4.494 -0.1097  4.0910 -0.3702
  812MOL0     H 7152   8.619  11.027   4.257  0.0222  1.9378 -1.5246
  812MOL0     H 7153   8.752  11.106   4.323  0.5172 -1.9256 -1.2262
  812MOL0     H 7154   8.633  11.286   4.409 -1.5032  0.2575  1.2321
  812MOL0     H 7155   8.478  11.201   4.418  1.4871  3.4423  2.5315
  812MOL0     H 7156   8.605  11.294   4.163 -0.6911 -0.3528 -1.4398
  812MOL0     H 7157   8.449  11.219   4.161 -0.5466 -0.3408  1.9389
  812MOL0     H 7158   8.475  11.453   4.353 -3.7444 -0.2710  1.7005
  812MOL0     H 7159   8.337  11.370   4.307  0.5894  3.5772  4.1055
  812MOL0     H 7160   8.359  11.462   4.084 -1.1385  0.2054  1.9132
  812MOL0     H 7161   8.530  11.505   4.094 -0.2738  0.3523  0.3582
  812MOL0     H 7162   8.518  11.671   4.249  1.3294 -1.4995 -2.2784
  812MOL0     H 7163   8.420  11.703   4.107 -0.0920 -0.1044  0.0517
  812MOL0     H 7164   8.326  11.635   4.395  1.0621  0.7081 -1.2491
  812MOL0     H 7165   8.215  11.590   4.267 -0.2554 -0.6167  0.9126
  812MOL0     H 7166   8.582  10.886   4.686 -1.3589 -1.3674  2.0785
  812MOL0     H 7167   8.539  10.714   4.848  1.2998 -2.0562 -0.0436
  812MOL0     H 7168   8.789  10.194   5.022  0.9250  0.6841  0.0091
  812MOL0     H 7169   8.706  10.059   5.209  3.5805  2.3643 -0.3883
  812MOL0     H 7170   8.471   8.548   5.708  3.9284  0.8171  3.8289
  812MOL0     H 7171   8.414   8.460   5.469 -0.2052 -1.7618  0.2311
  812MOL0     H 7172   8.377   8.557   4.998 -0.0790 -0.3174 -0.2674
  812MOL0     H 7173   8.360   8.469   4.781  0.4020  4.6564  2.6524
  812MOL0     H 7174   8.455   8.104   4.574  0.1785 -0.4595 -0.4067
  812MOL0     H 7175   8.555   8.083   4.711 -2.0888  0.0989 -0.5703
  812MOL0     H 7176   8.726   8.223   4.574  2.4286 -2.3615 -1.8200
  812MOL0     H 7177   8.715   8.070   4.507 -0.5561  0.3727  1.8454
  812MOL0     H 7178   8.589   8.336   4.433  2.4049 -0.9875  1.5064
  812MOL0     H 7179   8.533   8.191   4.344 -1.3085  1.0777  0.9092
  812MOL0     H 7180   8.716   8.360   4.251 -3.4470 -0.6928 -0.8045
  812MOL0     H 7181   8.829   8.282   4.360  0.2831 -1.9623 -0.2217
  812MOL0     H 7182   8.788   8.021   4.017  1.3864  1.5785 -0.0577
  812MOL0     H 7183   8.679   8.185   4.879 -2.3490 -2.4193  0.9186
  812MOL0     H 7184   8.692   8.273   5.091 -1.2458 -2.0274 -1.3789
  813MOL0     O 7185   0.697   6.426   4.395 -0.0943 -0.6944  0.7300
  813MOL0     C 7186   0.636   6.324   4.424  0.3204 -0.8445  0.2246
  813MOL0     O 7187   0.515   6.314   4.494  0.5020  0.1049 -0.7940
  813MOL0     C 7188   0.451   6.431   4.519  0.5409 -0.3236 -0.7681
  813MOL0     C 7189   0.410   6.470   4.653 -0.2308  0.0650  0.3911
  813MOL0     C 7190   0.364   6.595   4.680  0.0981 -0.2855  0.2206
  813MOL0     C 7191   0.325   6.683   4.574  1.0029  0.3542  0.1885
  813MOL0     O 7192   0.286   6.819   4.590 -0.3919  0.6915 -0.2609
  813MOL0     C 7193   0.275   6.879   4.717 -0.4123 -0.1707  0.3964
  813MOL0     C 7194   0.197   7.010   4.721 -0.5641 -0.3650 -0.1959
  813MOL0     C 7195   0.237   7.119   4.616 -0.0256 -0.5498  0.1682
  813MOL0     C 7196   0.129   7.237   4.615 -0.1020  0.1557 -0.0099
  813MOL0     C 7197   0.156   7.343   4.501 -0.1806  0.7173  0.5650
  813MOL0     C 7198   0.113   7.282   4.365  0.1130 -0.5798 -0.0961
  813MOL0     C 7199   0.124   7.404   4.276 -0.2641 -0.5453 -0.2230
  813MOL0     C 7200   0.093   7.359   4.132 -0.6191  0.5343 -0.0776
  813MOL0     N 7201   0.120   7.477   4.044  0.3552 -0.4100  0.5357
  813MOL0     C 7202   0.057   7.603   4.048  1.0117  0.3469 -0.5511
  813MOL0     C 7203   0.120   7.667   3.944 -0.4414  1.0860  0.5654
  813MOL0     C 7204   0.122   7.823   3.931 -0.5759 -0.4976  0.1917
  813MOL0     C 7205  -0.016   7.878   3.899  0.8417 -0.3750 -0.9652
  813MOL0     C 7206  -0.056   7.889   3.747 -0.1456  0.6667 -0.4549
  813MOL0     C 7207  -0.074   7.763   3.671  1.0170  1.6651 -0.0265
  813MOL0     O 7208  -0.167   7.784   3.564  0.3052 -0.1655 -0.4101
  813MOL0     C 7209  -0.273   7.699   3.561  0.4098  0.7692 -0.4392
  813MOL0     C 7210  -0.289   7.623   3.445  0.9213 -0.6223 -0.5222
  813MOL0     C 7211  -0.393   7.532   3.444  0.0694  0.2020 -0.0537
  813MOL0     C 7212  -0.484   7.525   3.546  0.4287 -0.2381 -0.1873
  813MOL0     C 7213  -0.592   7.439   3.539  0.5079  0.0964  1.1571
  813MOL0     O 7214  -0.636   7.394   3.407 -0.4384  0.6913  0.9380
  813MOL0     C 7215  -0.738   7.300   3.413 -0.2600 -0.6808  0.3796
  813MOL0     C 7216  -0.711   7.174   3.384  0.6864 -0.0965 -0.6110
  813MOL0     C 7217  -0.813   7.078   3.353  0.0625 -0.2127  0.0914
  813MOL0     C 7218  -0.953   7.113   3.372  0.1642  0.1297  0.3704
  813MOL0     O 7219  -1.062   7.041   3.344 -0.4262  0.5397  0.2457
  813MOL0     C 7220  -1.047   6.913   3.265  1.1706 -0.3653  0.3056
  813MOL0     C 7221  -1.027   6.940   3.113  0.2460 -0.4838 -0.0266
  813MOL0     C 7222  -0.973   6.811   3.065  0.3380  0.9771  0.2225
  813MOL0     C 7223  -0.828   6.759   3.097  0.0708  0.0302 -0.5888
  813MOL0     C 7224  -0.832   6.616   3.138  0.1791  0.8210  0.0474
  813MOL0     C 7225  -0.896   6.508   3.053 -0.5044  0.1686  0.4829
  813MOL0     C 7226  -0.943   6.385   3.133 -0.6386 -0.0449 -1.0043
  813MOL0     C 7227  -1.003   6.281   3.034 -0.1127 -0.2185 -1.6709
  813MOL0    Cl 7228  -1.137   6.202   3.140  0.1768  0.1014  0.1573
  813MOL0     C 7229  -0.979   7.244   3.415  0.7341 -0.1915 -0.7101
  813MOL0     C 7230  -0.870   7.337   3.428  0.2150  1.3773  0.3147
  813MOL0     O 7231  -0.644   7.400   3.645 -0.4046  0.9361 -0.6602
  813MOL0     C 7232  -0.470   7.612   3.650  0.5343 -0.4785 -0.1978
  813MOL0     C 7233  -0.364   7.702   3.657  0.6200 -0.1266 -0.7021
  813MOL0     N 7234   0.198   7.583   3.867 -0.6331  0.7185 -0.3062
  813MOL0     N 7235   0.195   7.468   3.929  0.2923  0.3757 -0.4258
  813MOL0     C 7236   0.345   6.636   4.442 -0.5556  0.3826 -0.2525
  813MOL0     C 7237   0.414   6.515   4.413  0.4373 -0.3817  0.7202
  813MOL0     C 7238   0.713   6.194   4.417  0.1551  0.5350  0.2636
  813MOL0     C 7239   0.668   6.083   4.485  0.0949  0.9043 -0.2094
  813MOL0     C 7240   0.742   5.960   4.489  0.7232  0.9246 -0.3058
  813MOL0     C 7241   0.865   5.948   4.428  0.6165 -0.1479  0.1023
  813MOL0     O 7242   0.942   5.840   4.425  0.8057  0.3374  0.7260
  813MOL0     C 7243   0.906   5.738   4.333 -0.9381 -0.6426  0.2909
  813MOL0     C 7244   0.815   5.638   4.392 -0.3721 -0.5183  0.7712
  813MOL0     C 7245   0.865   5.567   4.519 -0.1951 -0.3342 -0.5397
  813MOL0     C 7246   0.773   5.457   4.577 -0.2212  0.5717  0.0326
  813MOL0     C 7247   0.769   5.435   4.725 -0.7063 -0.1634  0.4763
  813MOL0     C 7248   0.762   5.429   4.839 -0.9127  0.4727 -0.1020
  813MOL0     C 7249   0.903   6.053   4.344 -0.3412  0.1522 -0.0689
  813MOL0     C 7250   0.834   6.176   4.342  0.3567 -0.6399  1.0696
  813MOL0     H 7251   0.434   6.400   4.732 -3.0428  0.8212  2.0874
  813MOL0     H 7252   0.385   6.629   4.781  2.1392 -3.4333  0.9989
  813MOL0     H 7253   0.374   6.896   4.761 -0.4027 -2.0251  1.2075
  813MOL0     H 7254   0.228   6.811   4.789 -1.2345  1.9953  2.0005
  813MOL0     H 7255   0.202   7.060   4.818  0.6867  0.1367 -0.5021
  813MOL0     H 7256   0.091   6.986   4.706 -1.1221  2.5613 -1.6044
  813MOL0     H 7257   0.234   7.089   4.510  1.6382  2.4597 -0.8573
  813MOL0     H 7258   0.340   7.156   4.616  0.1806 -0.8701 -2.6828
  813MOL0     H 7259   0.030   7.197   4.594 -0.6338  3.2137 -5.0404
  813MOL0     H 7260   0.138   7.290   4.711 -1.6700  1.1009 -0.3636
  813MOL0     H 7261   0.262   7.371   4.509 -0.0253  0.4212 -0.4043
  813MOL0     H 7262   0.101   7.432   4.530  0.2294  1.9022 -2.0455
  813MOL0     H 7263   0.011   7.245   4.372  0.5815 -1.8239  0.3081
  813MOL0     H 7264   0.187   7.204   4.344 -1.1719 -2.3668  1.7353
  813MOL0     H 7265   0.036   7.468   4.294 -0.5089 -0.8068 -0.4841
  813MOL0     H 7266   0.226   7.441   4.282  0.6728 -2.9990 -0.1353
  813MOL0     H 7267  -0.008   7.320   4.119 -0.1379 -0.5369 -0.8256
  813MOL0     H 7268   0.148   7.274   4.090 -1.7429  0.9420 -2.6089
  813MOL0     H 7269  -0.009   7.651   4.120 -0.2542 -1.7773 -0.1871
  813MOL0     H 7270   0.183   7.846   3.842 -2.3854 -1.2084 -1.3024
  813MOL0     H 7271   0.163   7.866   4.022  0.4687  0.9583 -0.9127
  813MOL0     H 7272  -0.022   7.985   3.922 -3.4987 -0.7513  0.6217
  813MOL0     H 7273  -0.087   7.827   3.965  2.9048 -0.7623  1.0390
  813MOL0     H 7274  -0.151   7.943   3.749 -0.1814  0.6371 -1.1606
  813MOL0     H 7275   0.017   7.946   3.690 -0.2177  0.0542 -1.1738
  813MOL0     H 7276  -0.117   7.683   3.732 -0.1844  0.8820 -1.8121
  813MOL0     H 7277   0.023   7.719   3.645  1.0037  1.8275 -0.3577
  813MOL0     H 7278  -0.215   7.633   3.365  2.2383 -3.6644  0.1557
  813MOL0     H 7279  -0.397   7.470   3.355 -0.8916 -0.0030  0.1207
  813MOL0     H 7280  -0.610   7.136   3.373  1.2289  1.8568 -3.4213
  813MOL0     H 7281  -0.781   6.980   3.322  1.9327 -0.6218  2.9364
  813MOL0     H 7282  -1.134   6.848   3.278 -0.0918  0.8197 -1.7320
  813MOL0     H 7283  -0.963   6.854   3.304 -0.0430 -2.6585 -0.4021
  813MOL0     H 7284  -0.951   7.014   3.087 -0.8855  0.9192  0.5222
  813MOL0     H 7285  -1.127   6.968   3.076  1.6958 -2.0464 -6.2587
  813MOL0     H 7286  -0.992   6.806   2.957  0.4554 -1.3372  0.2481
  813MOL0     H 7287  -1.035   6.731   3.108  0.7663  0.0094 -0.8929
  813MOL0     H 7288  -0.760   6.791   3.017  2.4310  1.1319  1.6729
  813MOL0     H 7289  -0.796   6.818   3.184 -0.7032 -1.8880  1.0839
  813MOL0     H 7290  -0.894   6.624   3.228  2.5060 -2.0160  2.1040
  813MOL0     H 7291  -0.728   6.588   3.156 -0.2616  0.0498  1.5931
  813MOL0     H 7292  -0.827   6.480   2.973  0.0651 -2.0239  1.6509
  813MOL0     H 7293  -0.981   6.548   2.997  0.1001 -1.5039 -1.7984
  813MOL0     H 7294  -0.869   6.328   3.190 -1.5380 -2.1230 -1.7753
  813MOL0     H 7295  -1.028   6.412   3.197 -0.8602 -0.2192 -1.2187
  813MOL0     H 7296  -0.930   6.202   3.011  0.3116 -0.6325  0.7599
  813MOL0     H 7297  -1.049   6.333   2.949 -1.9947  1.1892  0.1181
  813MOL0     H 7298  -1.074   7.295   3.424  1.1252  0.2165  1.9642
  813MOL0     H 7299  -0.903   7.440   3.429  0.5239  1.4769  0.0637
  813MOL0     H 7300  -0.552   7.622   3.721  0.7351 -1.8775  0.2545
  813MOL0     H 7301  -0.344   7.764   3.743 -1.3830 -1.3762  0.7311
  813MOL0     H 7302   0.320   6.703   4.360 -2.1746 -1.0893 -1.0181
  813MOL0     H 7303   0.441   6.487   4.312 -1.4954  1.6961 -0.4571
  813MOL0     H 7304   0.567   6.085   4.525 -0.3694 -5.7927  0.1149
  813MOL0     H 7305   0.697   5.875   4.540 -0.3283 -0.5068 -3.3821
  813MOL0     H 7306   0.996   5.681   4.309 -0.2675 -0.0962  1.4150
  813MOL0     H 7307   0.872   5.777   4.236  3.0686  1.1007 -0.5839
  813MOL0     H 7308   0.718   5.687   4.410  0.1430  0.8691 -0.0385
  813MOL0     H 7309   0.802   5.551   4.327 -0.7189 -0.6846  1.0549
  813MOL0     H 7310   0.875   5.645   4.594 -0.0694 -0.4242 -0.4626
  813MOL0     H 7311   0.964   5.523   4.504 -0.4120 -2.3808  3.0054
  813MOL0     H 7312   0.668   5.478   4.557 -0.1639  1.0684  0.2159
  813MOL0     H 7313   0.785   5.361   4.527  1.7410  0.0335  1.4018
  813MOL0     H 7314   0.769   5.422   4.945 -0.3911 -3.2701 -0.2487
  813MOL0     H 7315   0.992   6.047   4.284 -1.4554 -2.1160 -1.6204
  813MOL0     H 7316   0.875   6.259   4.286  0.3191  0.1662  2.1814
  814MOL0     O 7317   0.579   2.482   5.218 -0.0895  0.2529 -0.0696
  814MOL0     C 7318   0.508   2.511   5.313 -0.4109  0.3072  0.5293
  814MOL0     O 7319   0.459   2.634   5.329 -0.0107  0.1819 -0.9718
  814MOL0     C 7320   0.496   2.734   5.247 -0.1833 -0.1701  0.0027
  814MOL0     C 7321   0.399   2.824   5.201  0.0267 -0.0473  0.4555
  814MOL0     C 7322   0.438   2.922   5.105  0.1482 -0.0933 -0.1924
  814MOL0     C 7323   0.572   2.935   5.061 -0.1956  0.5540  0.2270
  814MOL0     O 7324   0.604   3.025   4.966  0.0482  0.4942 -0.7478
  814MOL0     C 7325   0.739   3.052   4.941  0.2256 -0.2205 -0.2712
  814MOL0     C 7326   0.757   3.167   4.830 -0.7070 -0.5392 -0.4433
  814MOL0     C 7327   0.664   3.279   4.843 -0.7487 -0.9860 -0.0251
  814MOL0     C 7328   0.655   3.360   4.715 -0.1250  0.7343 -0.1738
  814MOL0     C 7329   0.555   3.471   4.719  0.0117 -0.2709  0.2989
  814MOL0     C 7330   0.571   3.567   4.843 -0.0291  0.9024  0.0738
  814MOL0     C 7331   0.483   3.692   4.842  0.5175  0.0278 -0.4787
  814MOL0     C 7332   0.335   3.680   4.844 -0.3319  0.1744 -0.3005
  814MOL0     N 7333   0.268   3.805   4.827  0.3763 -0.5765 -1.3585
  814MOL0     C 7334   0.236   3.860   4.706 -0.0008 -0.3686  0.3378
  814MOL0     C 7335   0.182   3.979   4.738 -0.7017 -0.2099  0.4426
  814MOL0     C 7336   0.127   4.084   4.646 -0.2593 -0.3694  0.6074
  814MOL0     C 7337  -0.015   4.061   4.598 -0.8654 -0.4203  0.4897
  814MOL0     C 7338  -0.038   3.924   4.545  0.4107  0.3075  0.1864
  814MOL0     C 7339  -0.168   3.903   4.471 -0.5089  0.3462  0.6539
  814MOL0     O 7340  -0.187   4.004   4.369  0.2840 -0.2666 -0.3851
  814MOL0     C 7341  -0.258   3.982   4.253 -0.6479 -0.6553  0.2138
  814MOL0     C 7342  -0.337   3.870   4.221 -0.8036  0.2738  0.6832
  814MOL0     C 7343  -0.384   3.852   4.080 -0.3608 -0.2717  0.8442
  814MOL0     C 7344  -0.360   3.958   3.989 -1.2118  0.0119  0.5093
  814MOL0     C 7345  -0.420   3.946   3.859  0.9260 -0.8504 -0.9304
  814MOL0     O 7346  -0.369   4.015   3.757  0.3834 -0.9897  0.2010
  814MOL0     C 7347  -0.429   4.033   3.637 -0.4074  0.3022  0.6260
  814MOL0     C 7348  -0.357   4.117   3.550 -0.1565 -1.5887 -1.1577
  814MOL0     C 7349  -0.418   4.151   3.424 -0.2332 -0.6970 -0.3143
  814MOL0     C 7350  -0.525   4.086   3.377  0.8317  0.3983  0.4939
  814MOL0     O 7351  -0.557   4.117   3.246  0.5225 -0.2939 -0.1336
  814MOL0     C 7352  -0.649   4.223   3.233 -0.8559 -0.3446 -0.0746
  814MOL0     C 7353  -0.653   4.275   3.088 -1.0370 -0.7735  0.8603
  814MOL0     C 7354  -0.773   4.369   3.063 -0.2550 -0.5967 -0.1461
  814MOL0     C 7355  -0.820   4.458   3.172  0.1791 -0.5443 -0.0254
  814MOL0     C 7356  -0.909   4.571   3.133  0.0830 -0.2153 -0.3784
  814MOL0     C 7357  -1.017   4.530   3.028 -0.1624  1.2716  0.8816
  814MOL0     C 7358  -1.162   4.603   3.038 -0.8204 -0.8119 -0.2836
  814MOL0     C 7359  -1.141   4.751   3.017 -0.0383 -0.5020 -0.4741
  814MOL0    Cl 7360  -1.305   4.808   2.995 -0.2345 -0.0353 -0.0747
  814MOL0     C 7361  -0.605   4.004   3.455 -0.9004  0.4803 -1.3266
  814MOL0     C 7362  -0.552   3.970   3.584 -0.6468  0.0626 -0.1329
  814MOL0     O 7363  -0.519   3.869   3.859  0.7588 -0.6191  0.0327
  814MOL0     C 7364  -0.276   4.069   4.023  0.4143 -0.2281  0.2072
  814MOL0     C 7365  -0.228   4.078   4.150 -0.0639 -0.3110  0.0578
  814MOL0     N 7366   0.175   3.984   4.875  1.3445 -0.8838  0.7202
  814MOL0     N 7367   0.210   3.882   4.928 -0.4990 -0.8527 -0.2495
  814MOL0     C 7368   0.667   2.858   5.120 -0.4558 -0.1389 -0.8298
  814MOL0     C 7369   0.630   2.766   5.219 -1.1880 -0.2762 -0.3894
  814MOL0     C 7370   0.466   2.393   5.407  0.7316 -0.2873 -0.5300
  814MOL0     C 7371   0.377   2.425   5.518  0.1288 -0.6699  0.0121
  814MOL0     C 7372   0.322   2.321   5.597 -0.9893  0.3938 -0.1394
  814MOL0     C 7373   0.365   2.190   5.567 -0.1182  0.7460  0.0090
  814MOL0     O 7374   0.320   2.098   5.661  0.7547 -0.3189  0.0457
  814MOL0     C 7375   0.373   1.964   5.673 -0.0890  0.4719 -0.0437
  814MOL0     C 7376   0.330   1.903   5.802  0.3815  0.8875 -0.3987
  814MOL0     C 7377   0.376   1.754   5.823  0.1773 -0.8084 -0.6254
  814MOL0     C 7378   0.300   1.673   5.722  0.1739  0.4943 -0.5197
  814MOL0     C 7379   0.313   1.527   5.745  0.3329 -0.2061  0.7785
  814MOL0     C 7380   0.322   1.409   5.760 -0.3929  0.0220 -0.4298
  814MOL0     C 7381   0.453   2.161   5.465 -0.3483  0.0725  0.0488
  814MOL0     C 7382   0.496   2.260   5.381  0.4218 -1.0492  1.0159
  814MOL0     H 7383   0.297   2.812   5.236 -1.7418  4.9198 -1.9656
  814MOL0     H 7384   0.360   2.988   5.069 -0.8255 -0.0613  1.8376
  814MOL0     H 7385   0.792   2.960   4.916 -1.0629 -1.4732  1.3938
  814MOL0     H 7386   0.793   3.089   5.029  1.2581 -3.8154  0.7889
  814MOL0     H 7387   0.734   3.133   4.729 -1.1365 -1.6676  0.0146
  814MOL0     H 7388   0.861   3.202   4.823 -0.5766 -1.0939 -1.5873
  814MOL0     H 7389   0.700   3.340   4.926 -2.4123  0.0981 -0.0428
  814MOL0     H 7390   0.565   3.243   4.872 -1.3388  0.4403 -0.1395
  814MOL0     H 7391   0.754   3.403   4.698  1.4139 -2.9874 -1.6502
  814MOL0     H 7392   0.639   3.289   4.634 -0.8411 -1.3160  1.6618
  814MOL0     H 7393   0.451   3.437   4.721  0.4874 -1.8013  1.0126
  814MOL0     H 7394   0.559   3.516   4.619  1.6403 -1.0689 -0.0370
  814MOL0     H 7395   0.672   3.608   4.855  0.6740 -1.2045  2.0993
  814MOL0     H 7396   0.547   3.511   4.934 -1.6325 -0.6943 -1.2710
  814MOL0     H 7397   0.511   3.754   4.927  1.2752 -1.0123  0.0581
  814MOL0     H 7398   0.517   3.736   4.748  2.3152 -0.2310  0.0158
  814MOL0     H 7399   0.300   3.641   4.940 -3.7742 -0.2111 -1.5537
  814MOL0     H 7400   0.300   3.609   4.768  2.9893  0.0414 -1.9085
  814MOL0     H 7401   0.253   3.821   4.606  2.0314  0.5367  0.2889
  814MOL0     H 7402   0.198   4.108   4.566  0.4562 -0.2039  1.2751
  814MOL0     H 7403   0.127   4.180   4.699 -0.0304 -0.5394  0.9204
  814MOL0     H 7404  -0.027   4.125   4.510  1.0267 -2.8987 -1.7453
  814MOL0     H 7405  -0.090   4.084   4.675  0.7027  0.6453  1.7632
  814MOL0     H 7406   0.052   3.903   4.488  1.7184  1.4258  1.7487
  814MOL0     H 7407  -0.032   3.855   4.630 -0.5900 -0.3400 -0.2488
  814MOL0     H 7408  -0.249   3.890   4.543 -0.9912  1.5245  0.3462
  814MOL0     H 7409  -0.161   3.810   4.415 -3.7955  0.2211  0.2652
  814MOL0     H 7410  -0.355   3.790   4.293 -2.9900 -0.9100 -1.0521
  814MOL0     H 7411  -0.449   3.767   4.062  1.4521 -1.3974 -0.7630
  814MOL0     H 7412  -0.265   4.166   3.581 -0.5188 -2.5940  1.8676
  814MOL0     H 7413  -0.364   4.216   3.355 -0.7728 -0.6853 -0.7339
  814MOL0     H 7414  -0.633   4.299   3.310 -2.6275  0.9296 -0.8814
  814MOL0     H 7415  -0.740   4.177   3.272 -0.2652 -3.0302 -1.5712
  814MOL0     H 7416  -0.654   4.198   3.011 -2.2940 -1.3906  1.4630
  814MOL0     H 7417  -0.562   4.335   3.077  0.9549 -3.8518 -0.9175
  814MOL0     H 7418  -0.859   4.303   3.044 -1.1260 -0.5908  3.0895
  814MOL0     H 7419  -0.761   4.439   2.980  0.1965  0.7600  1.0187
  814MOL0     H 7420  -0.871   4.403   3.251 -2.9125 -0.9640 -2.1466
  814MOL0     H 7421  -0.723   4.493   3.209  0.7880 -5.4162  4.0697
  814MOL0     H 7422  -0.856   4.654   3.086 -4.0736  1.4199 -2.7739
  814MOL0     H 7423  -0.969   4.612   3.215 -2.0110 -0.9387 -1.4679
  814MOL0     H 7424  -1.032   4.424   3.050  0.4640  1.2675  1.3180
  814MOL0     H 7425  -0.976   4.548   2.928  1.6463  1.1334  1.5613
  814MOL0     H 7426  -1.225   4.557   2.962 -1.0878 -1.6759  0.4436
  814MOL0     H 7427  -1.221   4.582   3.128 -1.0296 -2.2013 -0.7320
  814MOL0     H 7428  -1.077   4.777   2.932 -0.9942  0.5468 -0.9088
  814MOL0     H 7429  -1.092   4.801   3.100 -1.1078  0.2578 -0.2780
  814MOL0     H 7430  -0.700   3.970   3.415 -1.0000 -0.0262 -0.6724
  814MOL0     H 7431  -0.610   3.904   3.647  1.5180  2.2956  4.6941
  814MOL0     H 7432  -0.259   4.141   3.944  0.5200 -1.1873 -0.6670
  814MOL0     H 7433  -0.173   4.166   4.180 -3.6128  2.0023  0.4690
  814MOL0     H 7434   0.773   2.873   5.103 -0.4920  0.3888 -0.5990
  814MOL0     H 7435   0.703   2.702   5.267 -0.5089 -1.5177 -2.8962
  814MOL0     H 7436   0.325   2.520   5.527  0.4851 -0.4344 -0.3669
  814MOL0     H 7437   0.260   2.348   5.682  1.6566  1.7397  1.5283
  814MOL0     H 7438   0.482   1.974   5.679  0.0500 -1.0037  0.2718
  814MOL0     H 7439   0.343   1.916   5.580  0.4814  0.9304 -0.4666
  814MOL0     H 7440   0.374   1.962   5.883  0.2691 -1.3791  1.4341
  814MOL0     H 7441   0.221   1.914   5.799  0.1234 -1.4384 -1.4455
  814MOL0     H 7442   0.338   1.747   5.925  1.0715  1.1562 -0.1065
  814MOL0     H 7443   0.485   1.752   5.816  0.1972 -1.8227 -0.1108
  814MOL0     H 7444   0.196   1.701   5.743  0.8456  2.6523  0.1919
  814MOL0     H 7445   0.319   1.697   5.617 -0.3740  1.8471 -0.3414
  814MOL0     H 7446   0.326   1.303   5.779 -0.4468  0.0886 -0.0321
  814MOL0     H 7447   0.486   2.060   5.447 -0.4755 -0.2302  1.4506
  814MOL0     H 7448   0.552   2.248   5.289 -3.6882 -0.3919 -1.8611
  815MOL0     O 7449   5.515   6.309   4.804  0.3182  0.9562  0.1643
  815MOL0     C 7450   5.609   6.352   4.869  0.0044  0.2654  0.0875
  815MOL0     O 7451   5.601   6.388   5.003 -0.2331  0.3369 -0.0696
  815MOL0     C 7452   5.488   6.391   5.072  0.0690  0.2178 -0.8500
  815MOL0     C 7453   5.361   6.427   5.021  0.6566 -0.2142  0.1173
  815MOL0     C 7454   5.250   6.435   5.107 -0.1062 -0.1374  0.7209
  815MOL0     C 7455   5.265   6.424   5.245 -0.3820 -0.1188  0.2249
  815MOL0     O 7456   5.159   6.434   5.330  0.0385  0.3855 -0.0921
  815MOL0     C 7457   5.070   6.318   5.330  0.0866 -0.2823  0.3565
  815MOL0     C 7458   4.953   6.336   5.412 -0.5666 -0.0423  0.1827
  815MOL0     C 7459   4.967   6.336   5.562 -0.2970  0.6590  0.2603
  815MOL0     C 7460   4.845   6.354   5.640  0.2368  0.6937  0.2728
  815MOL0     C 7461   4.880   6.330   5.789  0.0746  0.1388 -1.0101
  815MOL0     C 7462   4.752   6.337   5.874 -0.4184  0.5569  0.2359
  815MOL0     C 7463   4.758   6.454   5.979 -0.0870 -0.2872 -0.2345
  815MOL0     C 7464   4.634   6.474   6.067  0.8378 -0.9035 -0.6727
  815MOL0     N 7465   4.626   6.358   6.151 -0.6218  0.0872  0.2088
  815MOL0     C 7466   4.706   6.355   6.260 -0.1596  0.7057 -0.8334
  815MOL0     C 7467   4.684   6.227   6.318 -0.3296  0.5690 -0.0698
  815MOL0     C 7468   4.731   6.158   6.438  1.3688 -0.1545 -0.1965
  815MOL0     C 7469   4.877   6.145   6.436  0.0249 -0.5169  1.1047
  815MOL0     C 7470   4.942   6.055   6.332 -0.7398  0.1887 -0.4756
  815MOL0     C 7471   4.895   5.910   6.351 -0.0147  0.8701  0.3153
  815MOL0     O 7472   4.976   5.870   6.466 -0.1801 -0.3700  0.0957
  815MOL0     C 7473   4.952   5.770   6.549 -0.0813 -1.2467  0.5706
  815MOL0     C 7474   4.977   5.791   6.683  0.4097 -0.3877  0.5198
  815MOL0     C 7475   4.926   5.699   6.773 -0.0083 -0.0137  0.0934
  815MOL0     C 7476   4.859   5.589   6.731  0.1148  0.2373  0.1740
  815MOL0     C 7477   4.805   5.488   6.831  0.3775  0.3271  0.3162
  815MOL0     O 7478   4.803   5.352   6.806  0.7837 -0.1795  0.1955
  815MOL0     C 7479   4.751   5.265   6.897  0.5757 -0.2841  0.8015
  815MOL0     C 7480   4.611   5.262   6.912 -1.1700 -0.2799  0.3783
  815MOL0     C 7481   4.558   5.167   6.991 -0.5526  0.4233  0.5363
  815MOL0     C 7482   4.638   5.079   7.069 -0.4756 -1.6028 -0.0666
  815MOL0     O 7483   4.571   4.992   7.147 -0.2732  0.4650  0.2047
  815MOL0     C 7484   4.625   4.968   7.277  1.4470  0.3276  0.2953
  815MOL0     C 7485   4.493   4.961   7.363  0.2563 -0.1787  0.1349
  815MOL0     C 7486   4.523   4.903   7.499  0.2625 -0.0872 -0.5981
  815MOL0     C 7487   4.412   4.941   7.596 -0.2011  0.1795  0.0205
  815MOL0     C 7488   4.274   4.868   7.576  0.5752 -0.5007 -0.9708
  815MOL0     C 7489   4.176   4.903   7.688  0.2222  0.4384 -0.0398
  815MOL0     C 7490   4.042   4.823   7.676  0.8111 -0.1376 -0.0457
  815MOL0     C 7491   3.994   4.777   7.531  0.4504 -0.7886 -0.8457
  815MOL0    Cl 7492   3.828   4.709   7.533 -0.2226 -0.1811 -0.0595
  815MOL0     C 7493   4.770   5.065   7.039 -0.4227 -0.1970 -0.7361
  815MOL0     C 7494   4.831   5.163   6.956  0.1611  0.5980 -0.2479
  815MOL0     O 7495   4.763   5.535   6.928 -0.6756 -0.0677  0.0443
  815MOL0     C 7496   4.836   5.565   6.598 -0.0570 -0.2456 -0.5722
  815MOL0     C 7497   4.876   5.654   6.501  0.4216 -0.3124  0.5673
  815MOL0     N 7498   4.596   6.166   6.230  0.6391  0.5981 -1.0887
  815MOL0     N 7499   4.555   6.245   6.129  0.0003 -0.1519  0.1108
  815MOL0     C 7500   5.393   6.383   5.290  0.2831 -0.2822 -0.0120
  815MOL0     C 7501   5.504   6.372   5.209  0.7689  0.2611 -0.3944
  815MOL0     C 7502   5.733   6.377   4.793 -1.1471 -0.1567  0.3717
  815MOL0     C 7503   5.850   6.425   4.853  0.8889 -0.5822 -0.7867
  815MOL0     C 7504   5.951   6.476   4.781 -0.2045  0.3932  1.7232
  815MOL0     C 7505   5.964   6.480   4.639  0.0952  0.3879  0.6282
  815MOL0     O 7506   6.068   6.539   4.570  0.6401 -0.3513  0.2080
  815MOL0     C 7507   6.168   6.604   4.650  0.8075 -0.4455 -0.3033
  815MOL0     C 7508   6.288   6.641   4.580 -0.1703 -0.4298  1.6353
  815MOL0     C 7509   6.394   6.713   4.670 -0.6721  0.4641  1.3311
  815MOL0     C 7510   6.344   6.829   4.754  0.7423 -0.1100  0.2668
  815MOL0     C 7511   6.455   6.905   4.803  1.1688 -0.0086  0.3849
  815MOL0     C 7512   6.543   6.976   4.840 -0.0361  0.0694 -1.0596
  815MOL0     C 7513   5.851   6.436   4.578  0.3329 -0.9626  0.6114
  815MOL0     C 7514   5.739   6.373   4.646 -0.3775 -0.8077  0.1658
  815MOL0     H 7515   5.353   6.459   4.918  0.9380  1.2499  0.5379
  815MOL0     H 7516   5.155   6.459   5.062  0.5468 -0.2476 -0.7775
  815MOL0     H 7517   5.125   6.229   5.363  1.3797 -0.8149 -2.8390
  815MOL0     H 7518   5.027   6.285   5.235 -1.9929  0.1573  1.1108
  815MOL0     H 7519   4.874   6.267   5.381 -0.1513 -0.5694  0.3022
  815MOL0     H 7520   4.913   6.433   5.380 -1.2615 -0.2315  0.4611
  815MOL0     H 7521   5.021   6.428   5.589 -1.9739  1.8946 -0.4335
  815MOL0     H 7522   5.018   6.244   5.589  3.2131  2.4140  0.2164
  815MOL0     H 7523   4.813   6.458   5.631 -0.5681  0.6701  2.1977
  815MOL0     H 7524   4.758   6.298   5.603 -0.5768  3.3979 -2.3293
  815MOL0     H 7525   4.954   6.403   5.822  0.4445 -0.1400 -1.2037
  815MOL0     H 7526   4.937   6.237   5.803  1.2652  0.9479 -0.3064
  815MOL0     H 7527   4.746   6.248   5.937  1.9019  0.1176 -0.0854
  815MOL0     H 7528   4.657   6.342   5.821  0.4834  2.8370 -1.3194
  815MOL0     H 7529   4.845   6.444   6.044  0.3713 -1.4787 -0.9834
  815MOL0     H 7530   4.768   6.550   5.928 -1.8934 -1.0251 -2.1421
  815MOL0     H 7531   4.546   6.491   6.004 -0.2405 -2.2623  0.4334
  815MOL0     H 7532   4.641   6.564   6.128 -1.5904 -3.9189  4.7295
  815MOL0     H 7533   4.784   6.414   6.308  0.6097 -3.4491  3.8632
  815MOL0     H 7534   4.684   6.061   6.454  0.9893  0.2577  1.3033
  815MOL0     H 7535   4.687   6.216   6.519 -1.9481 -1.6418 -0.7652
  815MOL0     H 7536   4.893   6.128   6.543 -1.8536 -1.7739  1.2427
  815MOL0     H 7537   4.928   6.240   6.419  1.7334 -1.5087  0.4505
  815MOL0     H 7538   4.907   6.080   6.232 -4.0849  0.3776  0.6302
  815MOL0     H 7539   5.051   6.051   6.328 -0.7844 -1.4401 -0.6104
  815MOL0     H 7540   4.914   5.839   6.270 -2.7967 -0.0403  0.3491
  815MOL0     H 7541   4.788   5.921   6.368  0.4913  5.1097  1.9866
  815MOL0     H 7542   5.032   5.878   6.720 -0.2689 -0.2009  1.1105
  815MOL0     H 7543   4.944   5.711   6.879 -0.6132  2.0877 -0.0061
  815MOL0     H 7544   4.569   5.344   6.854 -0.5688  0.1181  0.4954
  815MOL0     H 7545   4.453   5.152   7.014 -0.2636 -6.3349 -0.4894
  815MOL0     H 7546   4.678   5.056   7.313 -0.4158  1.4938  0.2940
  815MOL0     H 7547   4.694   4.883   7.278  4.2588  2.3602 -1.7392
  815MOL0     H 7548   4.415   4.907   7.308 -3.3081  3.6960  0.8485
  815MOL0     H 7549   4.442   5.058   7.369 -3.1216 -1.4870 -3.1406
  815MOL0     H 7550   4.619   4.947   7.530 -0.4775  2.4432 -1.6630
  815MOL0     H 7551   4.523   4.794   7.493  0.9084 -0.0196 -2.6555
  815MOL0     H 7552   4.449   4.908   7.693  3.0170 -2.6379 -1.9564
  815MOL0     H 7553   4.395   5.049   7.607  0.7226  0.2781  0.6695
  815MOL0     H 7554   4.291   4.760   7.567  1.0344 -0.5372  0.1801
  815MOL0     H 7555   4.223   4.894   7.483 -0.5713  0.7061 -0.0456
  815MOL0     H 7556   4.148   5.008   7.684  0.6397  0.7085  2.4708
  815MOL0     H 7557   4.228   4.887   7.783 -0.8989 -0.9204  0.3765
  815MOL0     H 7558   4.064   4.734   7.735  3.2103 -0.4481 -1.2728
  815MOL0     H 7559   3.955   4.874   7.718 -0.0676 -0.2501 -1.6687
  815MOL0     H 7560   4.057   4.699   7.488  0.4173 -1.3205  0.0355
  815MOL0     H 7561   3.995   4.869   7.471  0.2790  1.1807  1.9657
  815MOL0     H 7562   4.813   4.970   7.070 -1.1684 -1.3231 -2.9259
  815MOL0     H 7563   4.932   5.147   6.920 -0.8760  0.9273 -3.5730
  815MOL0     H 7564   4.773   5.478   6.581 -2.6036  1.6742 -1.5242
  815MOL0     H 7565   4.847   5.640   6.397  0.1953  1.8377  0.2892
  815MOL0     H 7566   5.408   6.363   5.396 -0.7504 -4.0680 -0.4244
  815MOL0     H 7567   5.609   6.355   5.232  1.3535 -0.2873 -3.1217
  815MOL0     H 7568   5.859   6.437   4.961  0.1873  0.0776 -0.7975
  815MOL0     H 7569   6.037   6.509   4.840  1.1273  1.4201 -0.6592
  815MOL0     H 7570   6.204   6.527   4.718  1.1816  0.0385  0.0474
  815MOL0     H 7571   6.124   6.686   4.707  1.8312  0.9889 -1.5051
  815MOL0     H 7572   6.327   6.551   4.533 -0.2851  0.6451 -0.6428
  815MOL0     H 7573   6.269   6.713   4.499 -0.5831 -1.8357  0.4475
  815MOL0     H 7574   6.472   6.749   4.602 -0.3266 -1.7911  0.4563
  815MOL0     H 7575   6.457   6.642   4.723  2.7171  1.8756 -0.4752
  815MOL0     H 7576   6.291   6.899   4.688  0.7931 -0.7671 -0.4831
  815MOL0     H 7577   6.288   6.787   4.838  0.1914 -0.6937 -0.3845
  815MOL0     H 7578   6.630   7.028   4.875 -0.3434  0.4078 -0.7873
  815MOL0     H 7579   5.851   6.437   4.470  4.8289 -2.8665  0.3613
  815MOL0     H 7580   5.647   6.341   4.597 -2.1770 -1.1630  3.4777
  816MOL0     O 7581   6.865   5.581   1.609 -0.5550 -0.5183 -0.6676
  816MOL0     C 7582   6.813   5.530   1.715  0.3151 -0.3580  0.0335
  816MOL0     O 7583   6.726   5.424   1.719 -0.2639  0.6530 -0.3189
  816MOL0     C 7584   6.684   5.361   1.600 -0.7229 -0.2046  0.0584
  816MOL0     C 7585   6.553   5.328   1.588  0.0271 -0.4629  0.6852
  816MOL0     C 7586   6.494   5.283   1.470  0.2104 -0.6132  0.2701
  816MOL0     C 7587   6.569   5.256   1.355 -0.8661 -0.0718  0.2762
  816MOL0     O 7588   6.522   5.229   1.236  0.2416 -0.6143 -0.4049
  816MOL0     C 7589   6.545   5.326   1.122 -0.4088  0.4426 -1.3304
  816MOL0     C 7590   6.437   5.293   1.022 -0.1262  0.0106 -0.0337
  816MOL0     C 7591   6.467   5.374   0.889  0.1886 -0.1010 -0.9453
  816MOL0     C 7592   6.607   5.357   0.816  0.5478  1.1487  0.2842
  816MOL0     C 7593   6.621   5.206   0.792 -0.9520 -0.7976 -0.4977
  816MOL0     C 7594   6.767   5.172   0.771 -1.3224  0.0352 -0.5680
  816MOL0     C 7595   6.855   5.188   0.908 -0.0841  0.3124 -0.6415
  816MOL0     C 7596   6.999   5.133   0.896 -0.1353 -0.1312 -0.7594
  816MOL0     N 7597   7.046   5.130   1.030 -0.6140 -0.4290 -0.5783
  816MOL0     C 7598   7.134   5.226   1.061 -0.1296 -0.0655  0.1626
  816MOL0     C 7599   7.172   5.197   1.182  0.4630 -0.6570 -1.5209
  816MOL0     C 7600   7.277   5.259   1.264  0.1958 -1.3821 -0.1638
  816MOL0     C 7601   7.301   5.175   1.393 -0.7886 -0.0265  0.5394
  816MOL0     C 7602   7.420   5.229   1.473 -0.3535 -0.1734  0.0485
  816MOL0     C 7603   7.461   5.134   1.586 -0.3661  0.3910  0.0460
  816MOL0     O 7604   7.422   5.189   1.712  0.2606  0.6230  0.2221
  816MOL0     C 7605   7.524   5.223   1.795  0.0333 -0.5353 -0.9755
  816MOL0     C 7606   7.630   5.311   1.773  0.0208  0.9415 -0.4010
  816MOL0     C 7607   7.721   5.348   1.874  0.3982  0.1249  0.1259
  816MOL0     C 7608   7.698   5.291   2.005 -0.7941 -0.9825  0.9716
  816MOL0     C 7609   7.801   5.325   2.107  0.5828  0.1681 -0.7075
  816MOL0     O 7610   7.888   5.414   2.083  0.1078  0.3233 -0.1486
  816MOL0     C 7611   7.995   5.438   2.173 -0.1482 -0.2328 -0.6945
  816MOL0     C 7612   8.026   5.566   2.223  0.6135 -0.3980 -0.3502
  816MOL0     C 7613   8.130   5.584   2.308  0.0851  0.5185 -1.3317
  816MOL0     C 7614   8.219   5.477   2.352 -0.1573  0.5391  0.2984
  816MOL0     O 7615   8.310   5.498   2.452 -0.1477  0.1471  0.1498
  816MOL0     C 7616   8.313   5.408   2.565 -0.5619  0.0145 -0.1740
  816MOL0     C 7617   8.399   5.471   2.663  0.1788 -0.3337 -0.2444
  816MOL0     C 7618   8.540   5.496   2.609 -1.1234  0.7305  0.5434
  816MOL0     C 7619   8.617   5.369   2.564 -0.1101  0.0572  0.6785
  816MOL0     C 7620   8.654   5.272   2.678  0.8933 -0.2873 -0.6314
  816MOL0     C 7621   8.731   5.150   2.634 -0.1082  0.9766 -0.8144
  816MOL0     C 7622   8.661   5.059   2.534 -1.0543 -0.3510 -0.0363
  816MOL0     C 7623   8.734   4.922   2.511  0.2886  0.0110 -0.7669
  816MOL0    Cl 7624   8.888   4.975   2.430  0.3616  0.4064  0.0414
  816MOL0     C 7625   8.174   5.351   2.313  1.5204 -0.3942 -0.4689
  816MOL0     C 7626   8.067   5.325   2.223 -0.4298 -0.1188  0.6526
  816MOL0     O 7627   7.786   5.276   2.222  0.2570 -0.5468 -0.1506
  816MOL0     C 7628   7.591   5.205   2.038  0.5327  0.1683  0.0952
  816MOL0     C 7629   7.506   5.171   1.927 -0.0769  0.1180  0.4000
  816MOL0     N 7630   7.104   5.084   1.217  0.7766  0.3321  0.2793
  816MOL0     N 7631   7.022   5.042   1.130  0.3770 -0.8668 -0.3758
  816MOL0     C 7632   6.709   5.276   1.368 -0.3803  0.8168 -0.1166
  816MOL0     C 7633   6.768   5.325   1.487  0.8513  1.0256  0.4983
  816MOL0     C 7634   6.846   5.601   1.840 -0.3839  0.5764 -0.1005
  816MOL0     C 7635   6.787   5.559   1.961  0.4415 -0.2098  0.0201
  816MOL0     C 7636   6.828   5.603   2.090 -1.0206 -0.5855  0.2863
  816MOL0     C 7637   6.920   5.711   2.099 -0.3484  1.3338 -0.2755
  816MOL0     O 7638   6.957   5.740   2.231 -0.3024  0.2307 -0.0760
  816MOL0     C 7639   7.066   5.833   2.257 -0.2551 -0.6446 -0.1998
  816MOL0     C 7640   7.062   5.880   2.411 -0.2285  0.1272 -0.3237
  816MOL0     C 7641   7.163   5.994   2.459 -0.2709 -0.1636 -0.4004
  816MOL0     C 7642   7.143   6.120   2.387 -0.7069 -0.6847 -0.3929
  816MOL0     C 7643   7.226   6.138   2.271 -0.3419  0.2749 -0.1791
  816MOL0     C 7644   7.292   6.154   2.171  0.1969 -0.1136 -0.1471
  816MOL0     C 7645   6.976   5.753   1.981  0.3626  1.2139  0.2423
  816MOL0     C 7646   6.945   5.700   1.857  0.7996 -0.6036  0.1770
  816MOL0     H 7647   6.476   5.338   1.663 -2.1965  1.1808 -1.6337
  816MOL0     H 7648   6.387   5.265   1.464  0.5243 -2.8923  0.2875
  816MOL0     H 7649   6.645   5.314   1.080  0.4009  3.3572 -0.4678
  816MOL0     H 7650   6.533   5.426   1.164  2.2672  0.7734 -1.2030
  816MOL0     H 7651   6.337   5.323   1.054 -0.2187 -0.5474  0.2110
  816MOL0     H 7652   6.424   5.187   1.001 -1.9800  0.7318 -3.3125
  816MOL0     H 7653   6.444   5.479   0.910 -1.9325 -0.9337  1.3520
  816MOL0     H 7654   6.390   5.348   0.815 -1.1791  0.5033  0.2275
  816MOL0     H 7655   6.614   5.410   0.721  0.1902  1.4279  0.4109
  816MOL0     H 7656   6.683   5.394   0.886  1.0725 -1.5007  1.2333
  816MOL0     H 7657   6.560   5.174   0.707 -0.2072  0.2990 -1.4850
  816MOL0     H 7658   6.585   5.156   0.883 -1.2082  0.2527  0.0066
  816MOL0     H 7659   6.816   5.227   0.691  1.9569  0.3857  1.4752
  816MOL0     H 7660   6.769   5.066   0.745  0.4846 -0.0375 -0.2505
  816MOL0     H 7661   6.875   5.290   0.941 -0.9498  0.5100 -0.7062
  816MOL0     H 7662   6.809   5.134   0.991  1.0210 -2.1303 -1.5088
  816MOL0     H 7663   7.064   5.196   0.833 -0.6028 -0.5121 -1.6382
  816MOL0     H 7664   6.981   5.034   0.853 -0.1120 -1.3780  1.8914
  816MOL0     H 7665   7.178   5.306   1.002  0.3384 -1.7256 -1.8773
  816MOL0     H 7666   7.250   5.359   1.297  1.0234 -1.1542 -0.1808
  816MOL0     H 7667   7.360   5.282   1.197  0.5951  1.1439  1.1163
  816MOL0     H 7668   7.327   5.070   1.381  0.7422  0.0051  2.8289
  816MOL0     H 7669   7.211   5.189   1.454 -3.0593 -0.6265 -2.4579
  816MOL0     H 7670   7.504   5.257   1.408  0.4488  0.7972  1.4423
  816MOL0     H 7671   7.397   5.323   1.524  0.9785 -1.3145  2.9572
  816MOL0     H 7672   7.568   5.114   1.589 -0.8534 -2.6436  0.5435
  816MOL0     H 7673   7.418   5.034   1.570 -2.1170  1.1387 -0.1489
  816MOL0     H 7674   7.676   5.342   1.679  3.9580 -0.3154  0.8954
  816MOL0     H 7675   7.812   5.408   1.867  0.2958  0.8484  3.4860
  816MOL0     H 7676   7.959   5.648   2.199 -0.1637 -0.0411  2.6117
  816MOL0     H 7677   8.160   5.678   2.353 -0.3459 -0.7487  1.9160
  816MOL0     H 7678   8.352   5.307   2.545  0.7602  0.3286  0.7150
  816MOL0     H 7679   8.215   5.395   2.612 -0.8951  0.1699 -0.8257
  816MOL0     H 7680   8.404   5.409   2.753  1.2966 -0.3889 -0.3333
  816MOL0     H 7681   8.356   5.569   2.688 -0.3481 -0.8731  1.0624
  816MOL0     H 7682   8.597   5.544   2.690 -0.5939  2.6254 -0.8661
  816MOL0     H 7683   8.544   5.571   2.530  2.9110  1.6616  1.3663
  816MOL0     H 7684   8.555   5.324   2.486  1.0239 -1.5341  0.6570
  816MOL0     H 7685   8.712   5.401   2.520 -1.3058  1.9476 -0.6583
  816MOL0     H 7686   8.566   5.256   2.741  0.5156  2.2028 -0.4522
  816MOL0     H 7687   8.717   5.329   2.748 -0.2328 -0.1210  0.2779
  816MOL0     H 7688   8.771   5.100   2.723 -0.4953  2.1292  0.0342
  816MOL0     H 7689   8.824   5.175   2.582  0.6519 -0.9003 -0.4606
  816MOL0     H 7690   8.556   5.050   2.563 -0.3091 -0.8459  2.8242
  816MOL0     H 7691   8.657   5.093   2.431 -0.5636 -2.0879 -0.6694
  816MOL0     H 7692   8.676   4.845   2.461 -0.2742 -2.8166  3.7288
  816MOL0     H 7693   8.752   4.867   2.603 -6.4958  0.5221  1.4036
  816MOL0     H 7694   8.230   5.272   2.362 -0.5823 -0.9208  1.2323
  816MOL0     H 7695   8.040   5.225   2.192 -2.4183 -0.3419  2.8124
  816MOL0     H 7696   7.575   5.171   2.140  0.4774  0.2431  0.1115
  816MOL0     H 7697   7.420   5.109   1.949 -1.4316  0.8325 -2.4104
  816MOL0     H 7698   6.775   5.240   1.290  0.2216  0.5775  0.4990
  816MOL0     H 7699   6.872   5.356   1.483 -0.1958  5.4962  2.3438
  816MOL0     H 7700   6.709   5.485   1.951  0.6392 -0.1825 -2.0563
  816MOL0     H 7701   6.781   5.570   2.182  1.1298 -6.0582 -0.2435
  816MOL0     H 7702   7.045   5.915   2.188 -2.7818  1.0195  2.3040
  816MOL0     H 7703   7.163   5.790   2.230  0.0870  0.2046 -0.3640
  816MOL0     H 7704   6.962   5.919   2.432 -0.5489 -0.2002 -1.1844
  816MOL0     H 7705   7.083   5.791   2.472  2.3920 -0.2757 -1.6699
  816MOL0     H 7706   7.260   5.952   2.429 -1.4659 -2.4822 -1.2338
  816MOL0     H 7707   7.143   6.014   2.565 -0.0461  0.4901 -0.4760
  816MOL0     H 7708   7.039   6.126   2.354 -1.8697 -3.2556  2.3578
  816MOL0     H 7709   7.174   6.195   2.460  2.8787  0.6858 -3.0047
  816MOL0     H 7710   7.349   6.156   2.080 -2.1454  0.7248 -1.6990
  816MOL0     H 7711   7.045   5.837   1.979 -1.0351  2.4831  2.1622
  816MOL0     H 7712   6.986   5.746   1.768 -0.8624  1.0644  0.2190
  817MOL0     O 7713   1.296   7.392   0.782  0.6460  0.2363  0.2564
  817MOL0     C 7714   1.240   7.316   0.874 -0.2991 -0.2359  0.4930
  817MOL0     O 7715   1.123   7.250   0.858 -0.1364 -0.3998 -0.2456
  817MOL0     C 7716   1.046   7.273   0.754  0.4584  1.1197 -0.4988
  817MOL0     C 7717   0.911   7.305   0.774  0.2939 -0.4089  0.5787
  817MOL0     C 7718   0.825   7.340   0.669  0.3169 -0.8406 -0.2347
  817MOL0     C 7719   0.866   7.348   0.536 -0.1133 -0.3478  0.3549
  817MOL0     O 7720   0.783   7.401   0.441  0.6001 -0.0310  0.1984
  817MOL0     C 7721   0.813   7.412   0.298  0.3509  0.4539  0.7894
  817MOL0     C 7722   0.688   7.462   0.225  0.4749 -0.3758  0.6964
  817MOL0     C 7723   0.718   7.452   0.077  0.6190 -0.1089  0.2795
  817MOL0     C 7724   0.627   7.522  -0.012 -0.1710 -0.4400  0.9483
  817MOL0     C 7725   0.692   7.527  -0.154 -0.1728 -0.4012  0.0132
  817MOL0     C 7726   0.597   7.560  -0.273 -0.6340 -0.0471  0.3902
  817MOL0     C 7727   0.473   7.477  -0.291  0.5346 -0.0935  0.4658
  817MOL0     C 7728   0.499   7.321  -0.302 -0.7341 -0.1946 -0.0749
  817MOL0     N 7729   0.379   7.251  -0.259 -0.3330  0.2453  0.5915
  817MOL0     C 7730   0.386   7.139  -0.185 -1.0349  0.8436  0.0749
  817MOL0     C 7731   0.263   7.095  -0.202  1.3654 -0.4355 -0.8991
  817MOL0     C 7732   0.225   6.955  -0.165  0.1211 -0.6048 -0.2391
  817MOL0     C 7733   0.156   6.890  -0.281  0.4695  0.4278  0.4828
  817MOL0     C 7734   0.118   6.748  -0.261  0.5287  0.0185  0.0624
  817MOL0     C 7735   0.010   6.744  -0.157 -0.9666  0.4593  0.6817
  817MOL0     O 7736   0.064   6.676  -0.036  0.6730 -0.7045  0.7624
  817MOL0     C 7737   0.025   6.549   0.004 -0.2246  0.6975  0.0438
  817MOL0     C 7738   0.062   6.500   0.135  0.6003 -0.0972  0.3369
  817MOL0     C 7739   0.035   6.367   0.165 -0.4515 -0.4351  0.0697
  817MOL0     C 7740  -0.027   6.281   0.075  0.9104  0.1745 -0.2984
  817MOL0     C 7741  -0.053   6.142   0.108  0.3372  1.5388  0.2155
  817MOL0     O 7742  -0.076   6.054   0.000 -0.4791  0.1512 -0.1209
  817MOL0     C 7743  -0.084   5.920   0.012 -0.4939 -0.0119  0.0930
  817MOL0     C 7744  -0.038   5.837  -0.098  0.9633 -0.3178 -0.1537
  817MOL0     C 7745  -0.071   5.698  -0.096  0.0872  0.2247 -0.3876
  817MOL0     C 7746  -0.139   5.643   0.015 -0.4530 -1.2415  0.3969
  817MOL0     O 7747  -0.173   5.517  -0.012  0.2717 -0.0531  0.3823
  817MOL0     C 7748  -0.237   5.440   0.091 -0.3865 -0.5495  0.7756
  817MOL0     C 7749  -0.252   5.295   0.040 -0.1044 -0.4082  0.2459
  817MOL0     C 7750  -0.119   5.221   0.035  0.4019  0.1987 -0.4586
  817MOL0     C 7751  -0.024   5.277  -0.067  0.2962 -0.4496  0.3385
  817MOL0     C 7752   0.073   5.173  -0.131  0.1048  0.3080  0.4826
  817MOL0     C 7753   0.157   5.247  -0.224 -0.1018 -0.3535  0.1406
  817MOL0     C 7754   0.253   5.168  -0.326 -0.4326 -0.1238 -0.9470
  817MOL0     C 7755   0.180   5.061  -0.417  0.4342 -0.5027  0.6607
  817MOL0    Cl 7756   0.132   4.912  -0.339 -0.3671  0.3514  0.2075
  817MOL0     C 7757  -0.178   5.723   0.124 -0.3566 -0.7981  0.0203
  817MOL0     C 7758  -0.156   5.863   0.117  0.9783 -0.4985 -0.4829
  817MOL0     O 7759  -0.027   6.107   0.225 -0.3766 -0.0633 -0.8021
  817MOL0     C 7760  -0.067   6.332  -0.054  0.3519 -0.7267 -0.9781
  817MOL0     C 7761  -0.031   6.466  -0.086 -0.2898  0.0152 -0.1045
  817MOL0     N 7762   0.190   7.174  -0.285 -0.3852  0.3267  0.2996
  817MOL0     N 7763   0.263   7.269  -0.328 -0.2835  0.0671 -0.4928
  817MOL0     C 7764   1.002   7.316   0.516  0.2525 -0.2332  0.9691
  817MOL0     C 7765   1.088   7.268   0.618 -0.0068 -0.0878 -0.2120
  817MOL0     C 7766   1.299   7.321   1.008 -0.7229 -0.1879 -0.4144
  817MOL0     C 7767   1.223   7.274   1.118 -0.3783 -0.0821  0.7558
  817MOL0     C 7768   1.272   7.280   1.241 -1.1371 -0.7572 -0.1507
  817MOL0     C 7769   1.409   7.317   1.264  1.0808  0.0807  0.4749
  817MOL0     O 7770   1.468   7.307   1.384 -0.3399 -0.0798  0.0432
  817MOL0     C 7771   1.448   7.182   1.464 -0.4402  0.3070 -0.2207
  817MOL0     C 7772   1.563   7.083   1.463 -0.2171  0.9021 -0.3758
  817MOL0     C 7773   1.689   7.135   1.517 -0.1502 -0.8829 -0.5883
  817MOL0     C 7774   1.788   7.019   1.506 -0.0460 -0.7559  0.5877
  817MOL0     C 7775   1.927   7.054   1.548  0.6556 -0.1693 -0.4090
  817MOL0     C 7776   2.039   7.082   1.594  0.6554 -0.5252 -1.2889
  817MOL0     C 7777   1.486   7.361   1.164  0.5845 -0.7297  0.8789
  817MOL0     C 7778   1.433   7.372   1.033  1.1249 -0.4069 -0.5120
  817MOL0     H 7779   0.858   7.285   0.867 -1.2956 -1.5858 -0.5227
  817MOL0     H 7780   0.722   7.368   0.688 -0.0315 -1.6378 -0.8679
  817MOL0     H 7781   0.840   7.311   0.266  1.1020 -0.5124  4.1286
  817MOL0     H 7782   0.899   7.477   0.275 -0.9624  2.3919  1.1391
  817MOL0     H 7783   0.675   7.565   0.259  4.1699  1.2980 -2.2113
  817MOL0     H 7784   0.593   7.415   0.254  0.4159 -2.3275 -2.1785
  817MOL0     H 7785   0.713   7.344   0.061 -0.3525 -0.1736  0.9043
  817MOL0     H 7786   0.821   7.478   0.055  0.8394 -0.4531  0.8688
  817MOL0     H 7787   0.526   7.481  -0.022  0.2703 -1.8344  1.9300
  817MOL0     H 7788   0.618   7.629   0.007  1.6176  0.0802 -0.7943
  817MOL0     H 7789   0.731   7.429  -0.181  2.6503  0.8028 -0.6909
  817MOL0     H 7790   0.778   7.594  -0.143  0.3742 -1.0965  0.0349
  817MOL0     H 7791   0.668   7.550  -0.356  1.8189  0.3525  2.3215
  817MOL0     H 7792   0.565   7.664  -0.264 -1.8361 -0.3609 -0.0826
  817MOL0     H 7793   0.402   7.493  -0.209 -2.3385  1.8464 -2.1810
  817MOL0     H 7794   0.412   7.513  -0.374 -2.2764  0.5990  2.6495
  817MOL0     H 7795   0.584   7.293  -0.239 -1.4883  1.6118  1.8881
  817MOL0     H 7796   0.527   7.301  -0.406  0.1318  0.9654 -0.0806
  817MOL0     H 7797   0.472   7.098  -0.134 -1.5237 -1.0689 -0.5746
  817MOL0     H 7798   0.145   6.963  -0.091 -2.2899 -3.7139 -2.2186
  817MOL0     H 7799   0.315   6.904  -0.131  0.2928 -0.1237  0.0401
  817MOL0     H 7800   0.227   6.894  -0.365  0.3975 -0.1218  0.3883
  817MOL0     H 7801   0.069   6.949  -0.310  0.7676 -0.5516 -2.8887
  817MOL0     H 7802   0.076   6.692  -0.345  2.4657 -0.9409 -0.3218
  817MOL0     H 7803   0.204   6.691  -0.225 -0.2099 -0.4385  1.1646
  817MOL0     H 7804  -0.069   6.693  -0.212  2.8915 -1.2250 -4.0966
  817MOL0     H 7805  -0.039   6.840  -0.137 -0.1934  0.9252  0.3969
  817MOL0     H 7806   0.096   6.566   0.214 -1.2930 -0.0499  1.1638
  817MOL0     H 7807   0.053   6.324   0.263  1.0216 -2.2861 -0.9564
  817MOL0     H 7808   0.022   5.875  -0.180  0.2971  2.2080  0.4413
  817MOL0     H 7809  -0.040   5.632  -0.177  0.9859  0.4801 -0.2693
  817MOL0     H 7810  -0.334   5.485   0.112 -2.8701 -4.7138 -0.5829
  817MOL0     H 7811  -0.179   5.440   0.184 -0.2592 -0.3363  0.6970
  817MOL0     H 7812  -0.311   5.300  -0.052 -2.1577  1.9434  1.5771
  817MOL0     H 7813  -0.310   5.240   0.114 -0.2502 -0.3601  0.1671
  817MOL0     H 7814  -0.125   5.116   0.006  2.6438  0.1608 -0.9488
  817MOL0     H 7815  -0.076   5.215   0.135  2.7253 -2.4502 -1.4919
  817MOL0     H 7816  -0.086   5.304  -0.152  1.5193  1.4410 -0.0031
  817MOL0     H 7817   0.036   5.353  -0.016  0.0148  0.1823 -0.2710
  817MOL0     H 7818   0.016   5.087  -0.167 -0.5887 -0.6017  3.4579
  817MOL0     H 7819   0.135   5.126  -0.054  0.7315 -1.0027 -0.7689
  817MOL0     H 7820   0.232   5.311  -0.177  0.8214 -2.6678  2.0509
  817MOL0     H 7821   0.086   5.293  -0.293 -1.2339 -3.2526 -0.7579
  817MOL0     H 7822   0.309   5.244  -0.380  4.1033 -3.7980 -1.9622
  817MOL0     H 7823   0.331   5.117  -0.269  0.7470  1.3341 -1.2168
  817MOL0     H 7824   0.234   5.044  -0.510  1.4078 -0.1482  1.1520
  817MOL0     H 7825   0.087   5.108  -0.451  0.0776 -1.9931 -0.5735
  817MOL0     H 7826  -0.237   5.698   0.212  2.2952  0.6105  2.3656
  817MOL0     H 7827  -0.201   5.935   0.185 -2.3210  0.3826 -3.2873
  817MOL0     H 7828  -0.120   6.274  -0.129  1.4218 -1.2607 -1.3385
  817MOL0     H 7829  -0.040   6.497  -0.190 -1.6506 -2.2268 -0.7378
  817MOL0     H 7830   1.036   7.336   0.415 -1.7207  2.5932  0.7284
  817MOL0     H 7831   1.191   7.237   0.607 -0.1054 -0.5527  0.1231
  817MOL0     H 7832   1.120   7.249   1.093 -0.4620 -0.8215  1.7331
  817MOL0     H 7833   1.211   7.251   1.326  0.4432 -1.0003  0.9368
  817MOL0     H 7834   1.353   7.130   1.446 -0.7070  0.9750 -0.7693
  817MOL0     H 7835   1.441   7.204   1.570  2.2951  1.9303 -0.2646
  817MOL0     H 7836   1.539   6.991   1.516  1.2059 -0.4436 -1.9584
  817MOL0     H 7837   1.584   7.041   1.365 -0.8490 -2.2621  0.7462
  817MOL0     H 7838   1.684   7.154   1.624 -2.8841  0.6697 -0.8884
  817MOL0     H 7839   1.728   7.226   1.470 -1.5380 -0.4321 -0.9220
  817MOL0     H 7840   1.755   6.925   1.552  0.1295 -0.9758  0.2639
  817MOL0     H 7841   1.808   7.001   1.400  0.6546 -1.5509  0.8353
  817MOL0     H 7842   2.129   7.118   1.639 -0.1875 -1.4899  1.3546
  817MOL0     H 7843   1.589   7.393   1.178  0.4996  0.9954 -1.7858
  817MOL0     H 7844   1.507   7.406   0.961  1.7746  1.9551  1.1252
  818MOL0     O 7845   6.021  10.799   5.132 -0.7567  0.1313 -0.1865
  818MOL0     C 7846   6.049  10.875   5.047 -1.0310 -0.3078  0.0658
  818MOL0     O 7847   6.023  11.008   5.051  0.2350 -0.2266 -0.0247
  818MOL0     C 7848   5.927  11.048   5.147 -0.1619 -0.9270  1.1083
  818MOL0     C 7849   5.792  11.020   5.122 -0.0046  0.3497 -0.1404
  818MOL0     C 7850   5.695  11.062   5.217 -0.9072  1.1464  1.0413
  818MOL0     C 7851   5.726  11.116   5.334 -0.1111 -0.2343 -0.7135
  818MOL0     O 7852   5.625  11.118   5.422 -0.6916 -0.1461 -0.4137
  818MOL0     C 7853   5.592  11.243   5.484 -0.4745 -0.6807 -0.1660
  818MOL0     C 7854   5.516  11.209   5.609  0.0286  0.6663 -0.5242
  818MOL0     C 7855   5.368  11.165   5.584  0.2036 -0.2406 -0.0301
  818MOL0     C 7856   5.342  11.025   5.514  0.5942  0.7313  0.3997
  818MOL0     C 7857   5.194  10.986   5.477 -0.1804  0.0603 -0.4714
  818MOL0     C 7858   5.123  10.981   5.615 -0.8292 -0.6596  0.9380
  818MOL0     C 7859   4.978  11.013   5.595 -0.6948 -0.2321  0.6646
  818MOL0     C 7860   4.915  11.026   5.732 -0.8382  0.0901  0.3267
  818MOL0     N 7861   4.769  11.027   5.736  0.9043 -0.3127  0.0206
  818MOL0     C 7862   4.690  11.005   5.839  0.7796 -0.1916  0.1816
  818MOL0     C 7863   4.559  11.022   5.792  0.3855 -0.3122 -0.8048
  818MOL0     C 7864   4.419  11.010   5.856 -0.5573 -0.2925 -1.8022
  818MOL0     C 7865   4.302  10.963   5.780 -0.0431 -0.9413 -0.3496
  818MOL0     C 7866   4.296  10.809   5.772  0.0432 -0.1925 -1.3559
  818MOL0     C 7867   4.207  10.755   5.666  0.3324 -0.5679  0.0489
  818MOL0     O 7868   4.282  10.740   5.542 -0.9133 -0.4505  0.0960
  818MOL0     C 7869   4.216  10.683   5.430 -0.1987 -0.6098  0.5960
  818MOL0     C 7870   4.082  10.658   5.415 -0.4707 -0.1651 -0.3951
  818MOL0     C 7871   4.028  10.612   5.290  0.2109 -0.2817 -0.4880
  818MOL0     C 7872   4.112  10.596   5.174  0.5652  0.0900  0.1022
  818MOL0     C 7873   4.041  10.542   5.043  0.3986  0.9598 -0.1621
  818MOL0     O 7874   4.099  10.539   4.917 -0.8432 -0.5895  0.1366
  818MOL0     C 7875   4.036  10.492   4.804  0.5074 -0.2094 -0.5125
  818MOL0     C 7876   4.040  10.565   4.683  0.5127 -0.3339  0.4290
  818MOL0     C 7877   3.984  10.519   4.561 -0.4730  0.5027 -0.8356
  818MOL0     C 7878   3.930  10.387   4.562  0.5528 -0.2841  0.6632
  818MOL0     O 7879   3.889  10.331   4.443 -0.2480 -0.0323 -0.1009
  818MOL0     C 7880   3.974  10.366   4.327  0.1420 -0.5641  1.2450
  818MOL0     C 7881   3.880  10.339   4.208  0.1029  0.6209 -0.2398
  818MOL0     C 7882   3.938  10.389   4.067  0.6990  0.1557 -0.2694
  818MOL0     C 7883   3.813  10.408   3.976  0.4052  0.2275  0.9200
  818MOL0     C 7884   3.833  10.370   3.836  0.4598  1.1925  0.0051
  818MOL0     C 7885   3.707  10.414   3.749 -0.4567 -0.2126 -0.2758
  818MOL0     C 7886   3.730  10.374   3.601 -0.6349 -0.6213  0.6584
  818MOL0     C 7887   3.648  10.264   3.553  0.7032  0.8645  0.4309
  818MOL0    Cl 7888   3.698  10.210   3.393 -0.0952  0.0608  0.1073
  818MOL0     C 7889   3.927  10.310   4.682  1.0720 -0.2980  0.0876
  818MOL0     C 7890   3.976  10.363   4.803 -0.0793  1.3680 -0.7612
  818MOL0     O 7891   3.927  10.497   5.072  0.0198 -0.4334 -0.6739
  818MOL0     C 7892   4.249  10.625   5.195  0.0812  0.1860 -0.3709
  818MOL0     C 7893   4.291  10.665   5.312 -0.0180 -0.4557  0.1956
  818MOL0     N 7894   4.563  11.062   5.665  0.3508 -0.0451  0.6824
  818MOL0     N 7895   4.683  11.053   5.633  0.3549  0.6638 -0.3865
  818MOL0     C 7896   5.860  11.139   5.368 -0.9454 -0.4656  0.8140
  818MOL0     C 7897   5.961  11.111   5.266 -0.0414 -0.5162  0.1151
  818MOL0     C 7898   6.106  10.832   4.915  0.7322  0.3153  1.0854
  818MOL0     C 7899   6.146  10.929   4.821 -0.5787  0.0383  0.2463
  818MOL0     C 7900   6.225  10.885   4.715 -0.5510 -0.1328 -0.6292
  818MOL0     C 7901   6.258  10.753   4.681  0.8953  0.6592  0.3734
  818MOL0     O 7902   6.306  10.734   4.555 -0.7335 -0.4100 -0.6515
  818MOL0     C 7903   6.358  10.604   4.514 -0.1585  0.4662  0.4262
  818MOL0     C 7904   6.249  10.510   4.463 -0.0480 -0.1219  0.4874
  818MOL0     C 7905   6.146  10.575   4.374  0.1617 -0.0235  0.0230
  818MOL0     C 7906   6.102  10.490   4.252  0.4530  0.4076 -0.1859
  818MOL0     C 7907   6.209  10.465   4.156 -0.5270  0.1035  0.2307
  818MOL0     C 7908   6.290  10.435   4.067 -0.9346  0.5137 -0.4713
  818MOL0     C 7909   6.208  10.653   4.768 -0.7714  0.5002  0.4335
  818MOL0     C 7910   6.140  10.694   4.883  0.3187 -0.8082 -0.4250
  818MOL0     H 7911   5.765  10.974   5.027 -2.3601  0.8766  0.2319
  818MOL0     H 7912   5.592  11.028   5.218  0.2721 -2.9186  1.5142
  818MOL0     H 7913   5.524  11.295   5.415  1.9717 -0.7884 -2.8602
  818MOL0     H 7914   5.682  11.298   5.511  1.7701 -3.7323 -0.8278
  818MOL0     H 7915   5.509  11.298   5.672 -0.5276 -0.3430  0.9167
  818MOL0     H 7916   5.570  11.127   5.658  1.9169  1.9751 -0.3018
  818MOL0     H 7917   5.321  11.240   5.520  0.9678 -0.1762 -0.5317
  818MOL0     H 7918   5.323  11.174   5.683 -1.3637  0.7773 -0.7902
  818MOL0     H 7919   5.401  11.026   5.422  0.9860  1.7390  0.6458
  818MOL0     H 7920   5.384  10.954   5.586 -1.4716 -0.7375  0.2469
  818MOL0     H 7921   5.185  10.884   5.438 -0.6993  0.1891 -0.6985
  818MOL0     H 7922   5.157  11.062   5.408 -0.0401  0.8408  0.2944
  818MOL0     H 7923   5.159  11.048   5.694  3.2302  0.2975 -1.4213
  818MOL0     H 7924   5.148  10.878   5.642  2.3427 -0.4460 -0.7339
  818MOL0     H 7925   4.971  11.108   5.542 -1.5283 -1.7853 -2.2374
  818MOL0     H 7926   4.935  10.938   5.528  3.0917 -0.4063 -1.8787
  818MOL0     H 7927   4.944  11.125   5.770 -2.6312  0.3023  1.2519
  818MOL0     H 7928   4.957  10.941   5.786  1.4593  0.1919 -1.1198
  818MOL0     H 7929   4.726  10.983   5.938  2.0952 -0.5637 -0.3583
  818MOL0     H 7930   4.394  11.107   5.900  1.3463 -1.1063  1.4126
  818MOL0     H 7931   4.439  10.944   5.942  2.5858  2.6544  0.0027
  818MOL0     H 7932   4.302  10.996   5.676 -1.6174 -1.6952 -0.6100
  818MOL0     H 7933   4.221  11.012   5.835 -0.0899 -0.7409 -0.5944
  818MOL0     H 7934   4.398  10.770   5.767  0.5833  0.3647  2.2954
  818MOL0     H 7935   4.245  10.788   5.867  0.0216  1.4044 -0.9948
  818MOL0     H 7936   4.123  10.822   5.646 -0.2734 -0.2540  3.1223
  818MOL0     H 7937   4.160  10.658   5.682 -0.2054 -0.6142 -1.6159
  818MOL0     H 7938   4.029  10.653   5.510  2.1370  0.3832  1.1696
  818MOL0     H 7939   3.919  10.608   5.287 -0.2888 -5.2830  5.2426
  818MOL0     H 7940   4.084  10.664   4.686 -0.8687  0.2887  0.9518
  818MOL0     H 7941   3.990  10.584   4.474  1.9962 -1.3846 -2.1970
  818MOL0     H 7942   4.072  10.320   4.316  0.2989 -0.1590  0.9271
  818MOL0     H 7943   4.001  10.472   4.320  2.9291 -1.1366  2.1462
  818MOL0     H 7944   3.778  10.378   4.218 -0.1227  0.1334 -0.5499
  818MOL0     H 7945   3.878  10.229   4.208 -0.3370  0.6079  1.6099
  818MOL0     H 7946   4.010  10.319   4.023 -0.1006 -1.7509  1.2963
  818MOL0     H 7947   3.983  10.488   4.078 -2.5407  2.1444 -2.9617
  818MOL0     H 7948   3.742  10.330   4.004  0.0607 -0.9480 -2.7328
  818MOL0     H 7949   3.778  10.509   4.002 -0.9739 -0.9481  4.0806
  818MOL0     H 7950   3.842  10.262   3.823 -0.6479  1.3880 -3.5121
  818MOL0     H 7951   3.928  10.413   3.801  2.5551  1.2261  4.9259
  818MOL0     H 7952   3.693  10.523   3.752  0.5724  0.0161 -2.3527
  818MOL0     H 7953   3.617  10.365   3.787  1.7081 -2.2633  2.6287
  818MOL0     H 7954   3.708  10.460   3.537 -0.7840  1.0174  2.8087
  818MOL0     H 7955   3.835  10.347   3.588 -0.5565 -1.1219  2.1160
  818MOL0     H 7956   3.546  10.302   3.555  0.0953 -0.7145  1.0845
  818MOL0     H 7957   3.651  10.181   3.625  0.2326 -1.1066 -1.6894
  818MOL0     H 7958   3.891  10.208   4.673 -1.6546  0.5037  1.0833
  818MOL0     H 7959   3.986  10.301   4.892 -0.1139  1.6167 -0.5837
  818MOL0     H 7960   4.316  10.615   5.110  2.0020  1.3952  0.9316
  818MOL0     H 7961   4.395  10.698   5.310  0.2191 -0.4861  4.1039
  818MOL0     H 7962   5.890  11.162   5.469  3.6095  1.0531 -0.6347
  818MOL0     H 7963   6.062  11.134   5.297 -0.3531 -1.9552  2.4922
  818MOL0     H 7964   6.131  11.035   4.836 -0.2249  0.2204 -0.5855
  818MOL0     H 7965   6.260  10.964   4.649 -0.5818  0.1957 -0.2554
  818MOL0     H 7966   6.393  10.548   4.601 -0.0360  2.0612  1.4559
  818MOL0     H 7967   6.439  10.618   4.440  1.1086  0.7429  1.8119
  818MOL0     H 7968   6.298  10.429   4.409 -1.4146 -0.9785  0.4947
  818MOL0     H 7969   6.191  10.472   4.548 -0.2586 -1.2089 -0.1261
  818MOL0     H 7970   6.191  10.662   4.325  1.5368 -1.7040 -1.8713
  818MOL0     H 7971   6.051  10.579   4.428 -1.0242 -0.5232 -1.9242
  818MOL0     H 7972   6.067  10.389   4.279  1.9741 -1.0669 -3.1958
  818MOL0     H 7973   6.015  10.533   4.203 -0.7501 -1.5706  0.0796
  818MOL0     H 7974   6.344  10.433   3.975  0.3927  1.3318  0.2537
  818MOL0     H 7975   6.231  10.549   4.749  2.7757  1.1680  0.3709
  818MOL0     H 7976   6.114  10.618   4.956  0.1592  2.2295  2.9163
  819MOL0     O 7977  11.093   5.379   0.839  0.3474 -0.1750 -0.3360
  819MOL0     C 7978  11.152   5.392   0.950  0.2186 -0.0499  0.4208
  819MOL0     O 7979  11.216   5.297   1.006  0.4243  0.8729 -0.4307
  819MOL0     C 7980  11.199   5.158   0.972  0.6058 -1.2679 -0.5067
  819MOL0     C 7981  11.310   5.077   0.992  0.5750 -0.1744  1.2667
  819MOL0     C 7982  11.298   4.939   0.960 -0.2336 -0.2206 -0.1876
  819MOL0     C 7983  11.180   4.888   0.909  0.0701  0.4904  0.6880
  819MOL0     O 7984  11.183   4.755   0.879  0.2397 -0.5354  0.5257
  819MOL0     C 7985  11.049   4.695   0.870  0.3204  0.3191 -0.1855
  819MOL0     C 7986  11.063   4.542   0.833  0.1972 -0.2297  0.4419
  819MOL0     C 7987  11.131   4.464   0.941  0.7705 -0.3823 -0.7339
  819MOL0     C 7988  11.060   4.459   1.081  0.2248 -0.0199 -0.1163
  819MOL0     C 7989  10.926   4.390   1.079 -0.1410 -0.6563  0.7565
  819MOL0     C 7990  10.929   4.245   1.012  0.0106 -0.6414 -0.8149
  819MOL0     C 7991  10.788   4.192   1.015  0.1889  0.6476 -0.3010
  819MOL0     C 7992  10.725   4.155   1.153 -0.4900 -0.3594  0.0154
  819MOL0     N 7993  10.584   4.148   1.140  0.6726  0.8771 -0.1967
  819MOL0     C 7994  10.513   4.029   1.152 -0.6060  0.6083 -0.1042
  819MOL0     C 7995  10.381   4.059   1.142 -0.6457 -1.0355  0.8585
  819MOL0     C 7996  10.263   3.964   1.144 -0.0888 -0.0086  0.1535
  819MOL0     C 7997  10.137   4.039   1.103 -0.1201 -1.0330  0.2493
  819MOL0     C 7998  10.023   3.942   1.117  0.0490 -0.5088  0.2177
  819MOL0     C 7999   9.985   3.941   1.270  0.5314  0.4036  0.5090
  819MOL0     O 8000   9.956   3.813   1.314 -0.4664  0.5467  0.0320
  819MOL0     C 8001   9.983   3.798   1.443  0.3912  0.9851 -0.6311
  819MOL0     C 8002  10.015   3.669   1.477 -0.7535  0.0571 -1.4378
  819MOL0     C 8003  10.047   3.640   1.615  0.5950 -1.0014 -0.1905
  819MOL0     C 8004  10.028   3.746   1.715  0.0368  0.2075  0.5070
  819MOL0     C 8005  10.059   3.719   1.858 -0.2001 -0.2627 -0.5730
  819MOL0     O 8006  10.022   3.825   1.951 -1.1888 -0.2379  0.5189
  819MOL0     C 8007  10.043   3.797   2.081 -0.1265  0.6246 -0.0680
  819MOL0     C 8008  10.171   3.779   2.141 -0.3380  0.9838 -0.5744
  819MOL0     C 8009  10.190   3.741   2.268 -0.6786 -0.2074 -0.6511
  819MOL0     C 8010  10.080   3.730   2.351  0.5896  0.5574  1.0276
  819MOL0     O 8011  10.104   3.703   2.483  0.7944  0.3658 -0.3752
  819MOL0     C 8012   9.998   3.731   2.583 -0.0552  0.3426 -0.3721
  819MOL0     C 8013  10.063   3.697   2.721  0.4188  0.8137 -0.9732
  819MOL0     C 8014   9.949   3.723   2.826 -0.3080 -0.0283  0.0308
  819MOL0     C 8015  10.005   3.747   2.963  0.0067 -0.1509  0.1894
  819MOL0     C 8016   9.877   3.759   3.070  0.0552 -0.3510  0.4688
  819MOL0     C 8017   9.898   3.681   3.199  0.2939 -0.1932  0.0133
  819MOL0     C 8018   9.893   3.526   3.171  0.6216  0.7585 -0.0417
  819MOL0     C 8019   9.887   3.432   3.294 -0.2887  0.1158 -0.9200
  819MOL0    Cl 8020  10.035   3.469   3.398  0.6327 -0.3952  0.0120
  819MOL0     C 8021   9.949   3.747   2.293 -0.5093  0.3448  0.0671
  819MOL0     C 8022   9.933   3.790   2.163 -0.1955 -0.5030  0.5924
  819MOL0     O 8023  10.112   3.609   1.887  0.5333  0.7562 -0.3507
  819MOL0     C 8024   9.983   3.870   1.682 -0.6946 -0.7915  0.1252
  819MOL0     C 8025   9.969   3.898   1.541  0.2165 -0.8656 -0.9277
  819MOL0     N 8026  10.380   4.202   1.113  0.3764 -0.1281 -0.3353
  819MOL0     N 8027  10.502   4.249   1.119 -0.0414  1.3786  0.0407
  819MOL0     C 8028  11.065   4.963   0.897 -0.3143 -0.7553 -0.2088
  819MOL0     C 8029  11.072   5.104   0.923 -0.2175 -0.8002  0.7418
  819MOL0     C 8030  11.153   5.516   1.019  1.1089 -0.2234  0.7380
  819MOL0     C 8031  11.157   5.634   0.951 -0.2049  0.6319 -0.3118
  819MOL0     C 8032  11.188   5.757   1.018 -0.5626  0.1322 -0.2075
  819MOL0     C 8033  11.207   5.768   1.158  0.6047 -0.0447 -0.4727
  819MOL0     O 8034  11.249   5.890   1.193 -0.1927 -0.7250 -0.4630
  819MOL0     C 8035  11.288   5.913   1.328 -0.9223  0.0085 -0.6522
  819MOL0     C 8036  11.178   5.969   1.418  0.0636  0.6558  0.1935
  819MOL0     C 8037  11.222   6.021   1.559 -0.7437 -1.0408  0.2984
  819MOL0     C 8038  11.290   6.158   1.552  0.5458  0.6738 -0.3302
  819MOL0     C 8039  11.288   6.219   1.683  0.2711  0.5662 -0.3313
  819MOL0     C 8040  11.290   6.260   1.793  0.2878 -0.3367 -0.2154
  819MOL0     C 8041  11.198   5.646   1.232 -0.6129 -0.2518  0.1859
  819MOL0     C 8042  11.167   5.532   1.164 -0.6720 -0.7916 -1.2352
  819MOL0     H 8043  11.395   5.130   1.033  0.8688  0.1364  0.2738
  819MOL0     H 8044  11.374   4.866   0.987 -0.2385 -0.2746 -0.3169
  819MOL0     H 8045  10.993   4.729   0.783  2.3995 -2.4467 -2.8230
  819MOL0     H 8046  11.000   4.718   0.965  1.7234  1.2892  0.3437
  819MOL0     H 8047  11.120   4.531   0.740 -1.7527 -2.0366 -0.6272
  819MOL0     H 8048  10.966   4.499   0.807 -0.7511  1.2242  1.4421
  819MOL0     H 8049  11.231   4.508   0.941 -0.5956  3.2762  2.2767
  819MOL0     H 8050  11.146   4.360   0.909  1.5503 -0.6974  0.5998
  819MOL0     H 8051  11.137   4.415   1.145  0.2734  3.4814  2.5739
  819MOL0     H 8052  11.049   4.557   1.130  2.2771 -0.5361  1.5372
  819MOL0     H 8053  10.856   4.460   1.033  1.9446  0.5238 -0.7731
  819MOL0     H 8054  10.898   4.387   1.185 -3.9875 -2.3842 -0.1572
  819MOL0     H 8055  11.002   4.191   1.072  2.4372  2.2576 -0.8888
  819MOL0     H 8056  10.968   4.240   0.910  5.6272  0.6506  0.9108
  819MOL0     H 8057  10.727   4.280   0.993 -1.6470 -0.2848  0.7773
  819MOL0     H 8058  10.773   4.110   0.945 -1.5910 -0.7108  1.5779
  819MOL0     H 8059  10.759   4.229   1.226 -1.2885 -0.4040  0.4445
  819MOL0     H 8060  10.761   4.060   1.195 -1.0176 -0.6766 -0.2341
  819MOL0     H 8061  10.560   3.931   1.150 -1.4961  0.1741 -1.8373
  819MOL0     H 8062  10.240   3.921   1.242 -3.2991  1.0216 -0.0347
  819MOL0     H 8063  10.291   3.887   1.072  3.5127  1.5736 -0.3669
  819MOL0     H 8064  10.153   4.065   0.999  0.2882  0.0107  0.5619
  819MOL0     H 8065  10.120   4.130   1.162  0.7345 -2.1141  2.3009
  819MOL0     H 8066   9.934   3.973   1.062 -0.7176 -3.1703 -0.2049
  819MOL0     H 8067  10.048   3.842   1.079  0.2545 -0.1145 -0.7128
  819MOL0     H 8068   9.892   3.999   1.276  0.0342 -0.2574 -0.5295
  819MOL0     H 8069  10.059   3.992   1.333  3.3817 -2.4093 -0.2920
  819MOL0     H 8070  10.010   3.591   1.402 -2.3303  0.1574 -1.4781
  819MOL0     H 8071  10.097   3.548   1.645  0.6091 -1.2651 -0.9888
  819MOL0     H 8072  10.267   3.805   2.097 -0.1664 -0.1613 -0.9086
  819MOL0     H 8073  10.286   3.710   2.308 -0.9818  0.8493  0.9510
  819MOL0     H 8074   9.908   3.670   2.585  1.1837 -1.6842  3.0217
  819MOL0     H 8075   9.972   3.837   2.591 -0.1846  0.1706  3.3782
  819MOL0     H 8076  10.149   3.760   2.749  1.6504 -0.7008 -1.2355
  819MOL0     H 8077  10.081   3.589   2.721 -0.7563  0.4846  2.5368
  819MOL0     H 8078   9.876   3.642   2.825  0.2744 -0.6760  2.7222
  819MOL0     H 8079   9.903   3.817   2.795  1.0147  0.2422 -1.2628
  819MOL0     H 8080  10.065   3.658   2.985  2.3993  0.3929 -3.2635
  819MOL0     H 8081  10.072   3.833   2.960  0.0999 -0.1592  1.6407
  819MOL0     H 8082   9.785   3.722   3.023  0.4083 -0.1224 -0.4211
  819MOL0     H 8083   9.856   3.857   3.113 -0.8062 -0.0913 -0.5029
  819MOL0     H 8084   9.815   3.705   3.266 -1.2886 -2.1717 -1.1335
  819MOL0     H 8085   9.993   3.718   3.238 -0.2570  1.4806 -0.1694
  819MOL0     H 8086   9.805   3.488   3.118  1.3409 -2.4477  0.8519
  819MOL0     H 8087   9.990   3.506   3.126  0.5561  0.4703 -0.0528
  819MOL0     H 8088   9.905   3.328   3.263  1.3199  0.6865 -2.0170
  819MOL0     H 8089   9.795   3.443   3.351 -0.0082 -2.4102  0.1401
  819MOL0     H 8090   9.858   3.735   2.352  1.7385 -0.5643  3.6777
  819MOL0     H 8091   9.836   3.817   2.123  0.7001 -1.1841 -2.3414
  819MOL0     H 8092   9.967   3.947   1.756 -0.9577  0.6978 -1.4077
  819MOL0     H 8093   9.916   3.991   1.519 -2.5960 -1.5256  2.1485
  819MOL0     H 8094  10.969   4.931   0.857 -1.9707 -0.5151  3.2526
  819MOL0     H 8095  10.978   5.157   0.911  0.9447  0.9090 -1.4481
  819MOL0     H 8096  11.138   5.635   0.844  3.3742 -2.0327 -1.1553
  819MOL0     H 8097  11.204   5.845   0.958 -2.1467  2.7566  2.9053
  819MOL0     H 8098  11.371   5.985   1.329  0.4539 -1.4957  0.9105
  819MOL0     H 8099  11.338   5.822   1.363  3.2203  1.7996 -1.2199
  819MOL0     H 8100  11.121   6.053   1.376 -1.1126  1.5349  3.2822
  819MOL0     H 8101  11.107   5.888   1.438 -1.4246  2.0657  0.9764
  819MOL0     H 8102  11.295   5.954   1.603  1.9986  1.4388 -0.1625
  819MOL0     H 8103  11.143   6.047   1.630  2.4409  1.8750  3.1650
  819MOL0     H 8104  11.395   6.151   1.522  0.8138  1.9790  0.1922
  819MOL0     H 8105  11.242   6.228   1.483 -1.6035  3.6576  3.7520
  819MOL0     H 8106  11.275   6.280   1.897 -0.7700 -1.5651 -0.1193
  819MOL0     H 8107  11.210   5.644   1.340 -0.6439 -1.8927  0.1879
  819MOL0     H 8108  11.142   5.445   1.225  0.1543 -0.0143  0.2650
  820MOL0     O 8109   1.395   0.037   2.022  0.4349 -0.3037  0.4892
  820MOL0     C 8110   1.491   0.104   2.051  0.2747 -0.5407  0.0767
  820MOL0     O 8111   1.595   0.066   2.126 -0.4066  0.1715  0.2670
  820MOL0     C 8112   1.607  -0.066   2.177 -0.4360 -0.0786 -0.2593
  820MOL0     C 8113   1.618  -0.090   2.315 -0.5183  0.2282 -0.3489
  820MOL0     C 8114   1.608  -0.220   2.354  0.5232  0.1885  0.5839
  820MOL0     C 8115   1.590  -0.337   2.271  0.4188 -0.0526 -0.6265
  820MOL0     O 8116   1.588  -0.457   2.346 -0.0550 -0.3105 -0.0551
  820MOL0     C 8117   1.546  -0.570   2.271 -0.2789 -0.9220 -0.4574
  820MOL0     C 8118   1.506  -0.685   2.355 -0.2208  0.2261  0.0619
  820MOL0     C 8119   1.388  -0.682   2.454  0.1076 -0.2928 -0.6249
  820MOL0     C 8120   1.381  -0.809   2.539 -0.1467  0.7165  0.4253
  820MOL0     C 8121   1.503  -0.823   2.637  0.2339  0.4606  0.1059
  820MOL0     C 8122   1.476  -0.922   2.750  0.8754 -0.0769  0.4661
  820MOL0     C 8123   1.604  -0.947   2.823  0.0421  0.1667 -0.5536
  820MOL0     C 8124   1.593  -1.063   2.935  0.5178 -0.0440  0.9986
  820MOL0     N 8125   1.504  -1.019   3.037 -0.2586 -1.0167 -0.0749
  820MOL0     C 8126   1.531  -0.921   3.131 -0.5811 -0.1203 -0.4895
  820MOL0     C 8127   1.426  -0.922   3.215  0.8931 -0.9188 -0.4929
  820MOL0     C 8128   1.418  -0.828   3.332  0.7346  0.4006  0.5944
  820MOL0     C 8129   1.273  -0.808   3.382 -0.1829  0.6082  0.2239
  820MOL0     C 8130   1.281  -0.727   3.514  0.4324  0.3725 -0.1978
  820MOL0     C 8131   1.157  -0.752   3.599  0.1246 -0.3374 -0.5434
  820MOL0     O 8132   1.144  -0.892   3.606  0.4228  0.2377 -0.1037
  820MOL0     C 8133   1.056  -0.935   3.708 -0.3105 -0.6870  0.7093
  820MOL0     C 8134   1.029  -0.863   3.823  0.1995 -0.7328 -0.4595
  820MOL0     C 8135   0.927  -0.912   3.903  0.0310  0.4253  0.3622
  820MOL0     C 8136   0.871  -1.043   3.885  0.1132  0.2219 -0.1608
  820MOL0     C 8137   0.769  -1.102   3.978 -0.9688 -0.0947 -0.1066
  820MOL0     O 8138   0.697  -1.204   3.929 -0.0722 -0.1690 -0.2256
  820MOL0     C 8139   0.623  -1.275   4.018 -0.4065 -0.3859  0.2665
  820MOL0     C 8140   0.487  -1.254   4.031  0.1172  0.9769 -0.0252
  820MOL0     C 8141   0.411  -1.332   4.124 -0.2818  0.7835  0.5233
  820MOL0     C 8142   0.474  -1.413   4.220  0.2830 -0.0933  0.0994
  820MOL0     O 8143   0.403  -1.455   4.338 -0.1130  0.8390  0.4349
  820MOL0     C 8144   0.452  -1.565   4.412  0.5727  0.3592  0.3342
  820MOL0     C 8145   0.539  -1.537   4.539  0.2612  0.4464 -0.4807
  820MOL0     C 8146   0.606  -1.664   4.605  0.1176 -0.2445 -0.7122
  820MOL0     C 8147   0.619  -1.632   4.751 -0.2674  0.6796 -0.0689
  820MOL0     C 8148   0.695  -1.748   4.822  0.3811  0.2538  0.4015
  820MOL0     C 8149   0.596  -1.825   4.900  0.3149  0.2229  0.1469
  820MOL0     C 8150   0.645  -1.961   4.959 -0.3290 -0.1625 -0.4193
  820MOL0     C 8151   0.527  -2.045   5.011  0.2631 -0.4258 -1.0204
  820MOL0    Cl 8152   0.601  -2.203   5.049  0.4935  0.2902 -0.1344
  820MOL0     C 8153   0.615  -1.433   4.195 -0.0869 -0.7664 -0.9707
  820MOL0     C 8154   0.686  -1.370   4.095  0.1368 -0.1447  0.0240
  820MOL0     O 8155   0.758  -1.056   4.091 -0.1736 -0.6514 -0.3953
  820MOL0     C 8156   0.908  -1.115   3.779  0.5145  0.5783  0.3921
  820MOL0     C 8157   0.994  -1.060   3.687 -0.2792 -0.0055  1.0246
  820MOL0     N 8158   1.336  -1.016   3.169  1.1842  0.4143 -0.1707
  820MOL0     N 8159   1.391  -1.079   3.068 -0.3431  0.0778  0.4986
  820MOL0     C 8160   1.566  -0.312   2.136 -0.8595 -0.2169 -0.1828
  820MOL0     C 8161   1.582  -0.177   2.091 -1.5133  0.9461  0.3540
  820MOL0     C 8162   1.473   0.251   2.026 -0.5695 -0.5420 -0.0120
  820MOL0     C 8163   1.521   0.350   2.110  0.2361 -0.6785 -0.4896
  820MOL0     C 8164   1.494   0.485   2.095 -0.7622 -0.8303  0.5877
  820MOL0     C 8165   1.418   0.524   1.976 -0.0857 -0.7143 -0.4778
  820MOL0     O 8166   1.379   0.655   1.954  0.3161 -0.0709 -0.6195
  820MOL0     C 8167   1.288   0.703   2.037  0.2987  0.0737 -0.0255
  820MOL0     C 8168   1.275   0.856   2.019 -0.5838 -0.7917  0.4576
  820MOL0     C 8169   1.402   0.936   2.045  0.3485 -0.8346 -0.2402
  820MOL0     C 8170   1.494   0.941   1.921 -0.6517  0.1120 -0.0990
  820MOL0     C 8171   1.448   1.031   1.811 -0.6798 -0.6143  0.8400
  820MOL0     C 8172   1.418   1.106   1.723 -0.7741 -0.9714 -0.5339
  820MOL0     C 8173   1.366   0.426   1.887  0.0287  0.2624  1.1895
  820MOL0     C 8174   1.396   0.296   1.911 -0.0523  0.3378 -0.2217
  820MOL0     H 8175   1.625   0.001   2.374 -0.6276 -0.8745  1.4559
  820MOL0     H 8176   1.611  -0.253   2.458 -3.5395  0.0310  0.8071
  820MOL0     H 8177   1.621  -0.621   2.210  2.3728 -0.8738  2.5446
  820MOL0     H 8178   1.452  -0.551   2.217 -0.3700  1.2854  0.3871
  820MOL0     H 8179   1.602  -0.708   2.402  0.1109 -0.0950 -0.7445
  820MOL0     H 8180   1.483  -0.757   2.276 -2.6335  0.6034  0.3374
  820MOL0     H 8181   1.292  -0.684   2.402 -1.0553  0.6901  1.3621
  820MOL0     H 8182   1.388  -0.587   2.510 -3.9908  0.7126 -2.0206
  820MOL0     H 8183   1.292  -0.808   2.602  0.1646  2.6283  0.9034
  820MOL0     H 8184   1.386  -0.890   2.466  1.4929 -0.1499  1.4193
  820MOL0     H 8185   1.532  -0.727   2.681 -1.2782  1.0430 -0.0914
  820MOL0     H 8186   1.596  -0.852   2.587  0.5019 -0.6913  1.2351
  820MOL0     H 8187   1.442  -1.016   2.706  0.6943  0.3984 -0.4357
  820MOL0     H 8188   1.400  -0.889   2.821  1.4698 -1.0061  1.5719
  820MOL0     H 8189   1.676  -0.979   2.747  2.3797  1.0313  1.1753
  820MOL0     H 8190   1.648  -0.855   2.863  0.5839 -0.5001  0.4145
  820MOL0     H 8191   1.689  -1.084   2.982  1.3193  0.8042 -0.2189
  820MOL0     H 8192   1.546  -1.151   2.889  0.5687  0.5791 -0.3007
  820MOL0     H 8193   1.628  -0.873   3.134 -0.3227 -0.0743 -4.3489
  820MOL0     H 8194   1.444  -0.728   3.295  0.4710  1.0923  2.1897
  820MOL0     H 8195   1.491  -0.855   3.409  0.7439  1.8466  1.1300
  820MOL0     H 8196   1.223  -0.905   3.388  2.9910 -1.1609  0.1774
  820MOL0     H 8197   1.224  -0.754   3.300  0.5036  3.9960  1.8717
  820MOL0     H 8198   1.364  -0.761   3.577 -1.2968 -1.4865  1.2178
  820MOL0     H 8199   1.287  -0.621   3.489 -2.5123  0.6561 -0.0610
  820MOL0     H 8200   1.067  -0.710   3.554 -0.7332  0.3665  1.6805
  820MOL0     H 8201   1.174  -0.705   3.696 -1.7985  2.7457 -1.5569
  820MOL0     H 8202   1.065  -0.768   3.861 -0.9100 -1.4282  2.6768
  820MOL0     H 8203   0.899  -0.860   3.994 -0.7056 -1.4068  1.2474
  820MOL0     H 8204   0.441  -1.173   3.977  1.0849  1.3522 -0.3100
  820MOL0     H 8205   0.304  -1.315   4.124 -0.2278  1.1452  1.0415
  820MOL0     H 8206   0.514  -1.639   4.360  0.3704  0.5317 -0.1456
  820MOL0     H 8207   0.362  -1.605   4.459 -0.6204  2.0295 -0.4536
  820MOL0     H 8208   0.467  -1.499   4.612  1.0622  0.1332  0.4942
  820MOL0     H 8209   0.616  -1.460   4.529 -0.7778  2.2808  3.6050
  820MOL0     H 8210   0.697  -1.674   4.544 -1.2310  1.7574 -3.2604
  820MOL0     H 8211   0.554  -1.757   4.578 -0.3079  0.5219 -2.7331
  820MOL0     H 8212   0.692  -1.551   4.746  0.0321  0.3313 -3.1080
  820MOL0     H 8213   0.538  -1.583   4.806  0.8982  2.5966  0.0238
  820MOL0     H 8214   0.767  -1.714   4.897  0.0618 -2.2101  1.9438
  820MOL0     H 8215   0.739  -1.812   4.745 -1.1075  1.6310 -1.7197
  820MOL0     H 8216   0.503  -1.841   4.844  0.8858 -1.0793 -0.4659
  820MOL0     H 8217   0.558  -1.763   4.982  0.1816  1.2068 -0.6463
  820MOL0     H 8218   0.707  -2.011   4.885 -2.4482  0.3738 -2.7065
  820MOL0     H 8219   0.700  -1.940   5.052 -2.1190 -0.9596  0.8890
  820MOL0     H 8220   0.452  -2.059   4.933  1.4411 -3.2654 -1.7509
  820MOL0     H 8221   0.470  -2.009   5.097  0.8203  0.3513 -0.9686
  820MOL0     H 8222   0.663  -1.491   4.274 -0.4302  1.5900  1.1168
  820MOL0     H 8223   0.794  -1.378   4.085  0.1173  1.2958 -1.8216
  820MOL0     H 8224   0.859  -1.210   3.760  0.4894  0.7767 -0.5978
  820MOL0     H 8225   1.001  -1.112   3.593 -0.1657  2.6957 -0.5729
  820MOL0     H 8226   1.553  -0.397   2.070  2.3001  0.2454 -1.5635
  820MOL0     H 8227   1.585  -0.156   1.985  2.9388 -1.2604 -0.1792
  820MOL0     H 8228   1.586   0.315   2.190  3.2069  1.7600 -1.6031
  820MOL0     H 8229   1.521   0.549   2.179 -0.9742 -1.6749  1.3226
  820MOL0     H 8230   1.311   0.688   2.142  0.3363  1.2944  0.1582
  820MOL0     H 8231   1.191   0.654   2.021 -1.7800  2.7997  2.9225
  820MOL0     H 8232   1.246   0.879   1.916  1.9321  4.6364  0.5959
  820MOL0     H 8233   1.200   0.900   2.085  1.0950 -1.4068  2.8894
  820MOL0     H 8234   1.443   0.901   2.140 -0.0920  1.3031  0.8138
  820MOL0     H 8235   1.372   1.040   2.062  0.5023 -1.3013  3.9475
  820MOL0     H 8236   1.591   0.978   1.956  0.1874 -1.9716 -0.0821
  820MOL0     H 8237   1.498   0.840   1.878 -4.5512  0.6718 -2.2312
  820MOL0     H 8238   1.406   1.184   1.651  0.2040 -0.8832 -0.6104
  820MOL0     H 8239   1.287   0.447   1.815 -1.1846 -0.7123  2.1763
  820MOL0     H 8240   1.369   0.215   1.843 -0.2119  1.1135 -1.0893
  821MOL0     O 8241   1.233   5.621   4.302  0.2215  0.0335 -0.2120
  821MOL0     C 8242   1.316   5.632   4.216 -0.1368 -0.3219 -0.0680
  821MOL0     O 8243   1.399   5.737   4.195  0.2123  0.5722  0.1903
  821MOL0     C 8244   1.390   5.862   4.253  0.4136  0.0333  0.3422
  821MOL0     C 8245   1.489   5.957   4.219  0.1188  0.0441 -0.1347
  821MOL0     C 8246   1.482   6.094   4.254  0.2762  0.0484  0.1528
  821MOL0     C 8247   1.378   6.137   4.345 -0.6624  0.0964  0.1184
  821MOL0     O 8248   1.369   6.268   4.372 -0.1337 -0.0252 -0.1277
  821MOL0     C 8249   1.314   6.316   4.499 -0.4771  0.7027  0.7090
  821MOL0     C 8250   1.364   6.455   4.533 -0.9184  0.7458 -0.8796
  821MOL0     C 8251   1.353   6.558   4.421  0.1853  0.4944  0.1844
  821MOL0     C 8252   1.209   6.594   4.387  0.0841 -0.1048  0.9734
  821MOL0     C 8253   1.200   6.746   4.344 -0.8379 -0.2451  0.6943
  821MOL0     C 8254   1.077   6.768   4.263  0.2066 -0.4844  0.5513
  821MOL0     C 8255   1.056   6.915   4.214  0.4744  1.1745 -0.3508
  821MOL0     C 8256   1.007   6.914   4.066 -0.5207 -0.7032  0.4249
  821MOL0     N 8257   0.869   6.875   4.049  0.7266  0.1442  0.8311
  821MOL0     C 8258   0.811   6.753   4.058  0.4514 -0.9308  0.6709
  821MOL0     C 8259   0.677   6.764   4.072  0.5592  0.0495  0.3938
  821MOL0     C 8260   0.589   6.644   4.089 -0.5589  0.2904 -0.3827
  821MOL0     C 8261   0.477   6.638   3.972 -0.3871  0.6186 -0.6940
  821MOL0     C 8262   0.542   6.605   3.831 -0.2809  0.3863  0.4234
  821MOL0     C 8263   0.459   6.609   3.714  0.3675 -0.4226 -0.8973
  821MOL0     O 8264   0.540   6.577   3.604  0.2039 -0.2955  0.0730
  821MOL0     C 8265   0.470   6.551   3.488 -0.1207 -1.1381  0.1615
  821MOL0     C 8266   0.531   6.484   3.382 -0.1513  0.4354 -0.6631
  821MOL0     C 8267   0.456   6.445   3.272  0.0681  0.5546  0.3840
  821MOL0     C 8268   0.316   6.477   3.258  0.1194  0.4864  0.4874
  821MOL0     C 8269   0.250   6.430   3.128  0.3223 -0.0350  0.1585
  821MOL0     O 8270   0.142   6.499   3.101  0.7705 -0.1120  0.5464
  821MOL0     C 8271   0.123   6.515   2.963 -0.2328 -0.5805  0.3091
  821MOL0     C 8272   0.192   6.619   2.892 -0.9974  0.5696 -0.0590
  821MOL0     C 8273   0.182   6.628   2.753 -0.8104 -0.8906 -0.0847
  821MOL0     C 8274   0.105   6.536   2.679 -0.2649 -0.3935  0.4040
  821MOL0     O 8275   0.097   6.562   2.538 -0.1459  0.0528  0.3698
  821MOL0     C 8276  -0.024   6.622   2.480 -0.3627  0.1305  0.6726
  821MOL0     C 8277  -0.130   6.510   2.474 -1.2824  0.0410 -0.4409
  821MOL0     C 8278  -0.220   6.508   2.349 -0.9847  0.5170  0.2984
  821MOL0     C 8279  -0.158   6.490   2.210  0.2408 -0.4646 -0.5267
  821MOL0     C 8280  -0.279   6.500   2.113 -0.0076  0.3996 -0.4510
  821MOL0     C 8281  -0.237   6.546   1.975 -0.3208  0.3054  0.5337
  821MOL0     C 8282  -0.199   6.695   1.974 -0.1572  0.2054  1.1164
  821MOL0     C 8283  -0.137   6.751   1.848  0.3940  0.4523  0.6800
  821MOL0    Cl 8284  -0.059   6.917   1.870  0.1259 -0.0593 -0.1834
  821MOL0     C 8285   0.038   6.440   2.749 -0.6445  0.3464  1.4154
  821MOL0     C 8286   0.043   6.427   2.889  0.4583 -0.5081 -0.3240
  821MOL0     O 8287   0.294   6.335   3.065 -0.2880 -0.2413 -0.6873
  821MOL0     C 8288   0.255   6.539   3.356 -0.2055  0.1199 -0.0170
  821MOL0     C 8289   0.328   6.569   3.472 -0.0280 -0.6520  0.0400
  821MOL0     N 8290   0.651   6.899   4.080 -0.6818 -0.3283  0.0337
  821MOL0     N 8291   0.763   6.961   4.061 -0.5603  0.0589  0.2175
  821MOL0     C 8292   1.286   6.047   4.390 -0.4268  0.5923 -0.6168
  821MOL0     C 8293   1.291   5.910   4.353 -0.4678 -0.1085  0.0188
  821MOL0     C 8294   1.346   5.527   4.130 -0.1162  0.2831  1.1200
  821MOL0     C 8295   1.478   5.510   4.078  0.0033  0.0033  0.0862
  821MOL0     C 8296   1.511   5.399   4.012 -0.4344  0.3809  0.6831
  821MOL0     C 8297   1.424   5.295   3.980 -0.9312 -0.7632 -0.1230
  821MOL0     O 8298   1.465   5.197   3.893 -0.9413 -0.8465  0.4074
  821MOL0     C 8299   1.438   5.061   3.935 -0.1944 -1.1057  0.3699
  821MOL0     C 8300   1.525   5.020   4.052  0.3956  0.4152  0.1272
  821MOL0     C 8301   1.677   5.026   4.026  0.0679 -0.4499  0.8436
  821MOL0     C 8302   1.711   4.932   3.905 -0.3546 -0.5305  0.2524
  821MOL0     C 8303   1.691   4.786   3.926  0.5927 -0.6673  0.0441
  821MOL0     C 8304   1.680   4.670   3.923  0.0476  0.6249 -0.2110
  821MOL0     C 8305   1.290   5.321   4.015  0.0661  0.9012  0.2612
  821MOL0     C 8306   1.249   5.430   4.092  0.5814 -0.1550 -0.4459
  821MOL0     H 8307   1.567   5.921   4.153 -0.3220  1.1542 -1.3140
  821MOL0     H 8308   1.554   6.165   4.215  2.7468 -1.5261  1.5871
  821MOL0     H 8309   1.338   6.255   4.586 -1.8187  1.7717  1.8805
  821MOL0     H 8310   1.206   6.312   4.481 -0.1397 -2.0312 -1.4756
  821MOL0     H 8311   1.470   6.429   4.532 -0.7839  1.2773 -1.6445
  821MOL0     H 8312   1.331   6.494   4.629 -2.5327  0.6812 -1.3844
  821MOL0     H 8313   1.400   6.518   4.331  0.4238 -1.8949  1.3057
  821MOL0     H 8314   1.409   6.651   4.435 -0.6374  0.9568  0.4548
  821MOL0     H 8315   1.184   6.534   4.299 -0.5860  1.5110 -0.0052
  821MOL0     H 8316   1.142   6.565   4.468 -0.6777 -2.0993 -0.2901
  821MOL0     H 8317   1.288   6.763   4.281  0.1623  1.0520  2.3587
  821MOL0     H 8318   1.204   6.808   4.434 -2.2928 -0.7340  1.1213
  821MOL0     H 8319   0.998   6.741   4.333  1.4974  2.2937  3.2881
  821MOL0     H 8320   1.080   6.705   4.173  0.9200  1.2689 -0.7097
  821MOL0     H 8321   0.984   6.972   4.274  0.7929  0.9211  0.2817
  821MOL0     H 8322   1.157   6.957   4.221 -0.3945  3.1796  1.3179
  821MOL0     H 8323   1.074   6.858   4.000  1.6507  0.0163  1.9415
  821MOL0     H 8324   1.017   7.018   4.035  0.5890 -1.0880 -0.5909
  821MOL0     H 8325   0.857   6.657   4.041  1.1929 -0.2522 -1.4508
  821MOL0     H 8326   0.543   6.646   4.188  0.0329 -2.9035  0.0697
  821MOL0     H 8327   0.656   6.558   4.088  0.1095  0.6849  2.3905
  821MOL0     H 8328   0.424   6.732   3.958  0.0076  0.6003 -2.4891
  821MOL0     H 8329   0.394   6.574   4.004 -0.4014  0.4714 -1.0288
  821MOL0     H 8330   0.612   6.687   3.812  0.6772 -0.4315  0.2988
  821MOL0     H 8331   0.602   6.513   3.832  0.1165  0.6414  0.0664
  821MOL0     H 8332   0.408   6.705   3.705  0.4932 -0.3205 -0.5310
  821MOL0     H 8333   0.378   6.538   3.733 -0.6350  1.2424  1.4263
  821MOL0     H 8334   0.632   6.447   3.392 -1.0456 -1.4922  2.9734
  821MOL0     H 8335   0.515   6.398   3.194  1.9989  2.3337  0.6664
  821MOL0     H 8336   0.265   6.672   2.953 -0.6848  0.2126 -0.1193
  821MOL0     H 8337   0.232   6.699   2.688  0.1892 -2.6077 -1.2544
  821MOL0     H 8338  -0.001   6.663   2.381  1.9932  1.4067  1.6764
  821MOL0     H 8339  -0.067   6.704   2.538 -1.3433  0.4218 -0.4297
  821MOL0     H 8340  -0.177   6.506   2.573  2.1771 -1.3584  1.3046
  821MOL0     H 8341  -0.080   6.416   2.451 -1.0194  0.3116 -0.9936
  821MOL0     H 8342  -0.270   6.605   2.346 -1.9771 -0.0072 -1.5336
  821MOL0     H 8343  -0.298   6.433   2.366  0.7067 -1.1866  0.8978
  821MOL0     H 8344  -0.085   6.569   2.193  0.8038 -0.8731 -0.0474
  821MOL0     H 8345  -0.102   6.397   2.193 -1.6323 -2.7337  3.9384
  821MOL0     H 8346  -0.359   6.563   2.153  1.5930  2.1751  0.0831
  821MOL0     H 8347  -0.318   6.399   2.099  2.1582 -0.3065 -2.0543
  821MOL0     H 8348  -0.315   6.516   1.905 -1.3349  0.1002  1.7059
  821MOL0     H 8349  -0.146   6.490   1.954 -1.5667 -1.3887 -0.6068
  821MOL0     H 8350  -0.290   6.754   1.984 -0.2046  0.5834 -1.0640
  821MOL0     H 8351  -0.128   6.723   2.052  1.5851 -2.2417  0.5355
  821MOL0     H 8352  -0.221   6.747   1.777  1.9480  3.4697 -1.5701
  821MOL0     H 8353  -0.072   6.675   1.805 -2.1669 -0.1093 -2.5617
  821MOL0     H 8354  -0.018   6.369   2.690  2.1236 -1.3547  0.6697
  821MOL0     H 8355  -0.015   6.350   2.938 -0.4341  1.4146  1.8026
  821MOL0     H 8356   0.150   6.566   3.359  0.0704  1.4848 -1.5065
  821MOL0     H 8357   0.268   6.620   3.547 -1.4672  1.1024 -2.1560
  821MOL0     H 8358   1.195   6.066   4.444  0.3360 -0.7882  1.2299
  821MOL0     H 8359   1.216   5.843   4.394 -2.0708  0.0448 -2.4609
  821MOL0     H 8360   1.556   5.584   4.086  0.8832 -0.8141 -0.6215
  821MOL0     H 8361   1.614   5.389   3.980 -0.6721  3.4563 -1.3748
  821MOL0     H 8362   1.440   5.003   3.842 -2.2323  0.3334 -0.6605
  821MOL0     H 8363   1.332   5.066   3.963 -0.3164  1.4433 -0.3556
  821MOL0     H 8364   1.504   5.084   4.138 -0.5158  3.1945 -2.0141
  821MOL0     H 8365   1.499   4.917   4.079 -0.2424  0.7001  0.6299
  821MOL0     H 8366   1.719   4.987   4.119  0.5788  3.5126  2.4871
  821MOL0     H 8367   1.701   5.130   4.003 -0.1379 -0.2046  1.7148
  821MOL0     H 8368   1.675   4.958   3.805  2.3096  0.7595 -0.4916
  821MOL0     H 8369   1.820   4.931   3.892 -0.4170 -1.8672 -0.3541
  821MOL0     H 8370   1.656   4.565   3.925 -0.0665  0.6421  2.3669
  821MOL0     H 8371   1.215   5.255   3.974  1.6178  0.7156 -2.5466
  821MOL0     H 8372   1.146   5.444   4.126  1.3502  0.0130  2.0140
  822MOL0     O 8373   0.915  10.409   0.007 -0.0964  0.0425  0.3395
  822MOL0     C 8374   0.834  10.435  -0.087 -0.5942  0.5911 -0.1042
  822MOL0     O 8375   0.700  10.451  -0.068  0.4816  0.5198  0.8412
  822MOL0     C 8376   0.651  10.405   0.053  0.3021  0.0481 -0.0920
  822MOL0     C 8377   0.645  10.274   0.085 -0.5874  0.0090 -0.0651
  822MOL0     C 8378   0.612  10.238   0.212  0.0644  0.0337  0.1508
  822MOL0     C 8379   0.563  10.323   0.310 -0.5918 -0.1465 -0.3147
  822MOL0     O 8380   0.531  10.289   0.441  0.1487  0.0738  1.0604
  822MOL0     C 8381   0.541  10.159   0.500  0.3427  0.2282  0.3672
  822MOL0     C 8382   0.681  10.130   0.559  0.0248 -0.2647 -0.5798
  822MOL0     C 8383   0.687   9.989   0.616  0.2832 -0.3105 -0.7190
  822MOL0     C 8384   0.822   9.959   0.695  0.2167  0.4128  0.8570
  822MOL0     C 8385   0.866   9.807   0.675  0.8829 -0.7920  0.0364
  822MOL0     C 8386   1.011   9.793   0.701 -0.6024  0.9575  0.3116
  822MOL0     C 8387   1.038   9.636   0.687 -0.3045 -0.6217 -0.2733
  822MOL0     C 8388   1.195   9.607   0.707  0.5930 -0.3598 -0.0728
  822MOL0     N 8389   1.226   9.461   0.704 -0.2242 -0.0924  0.4867
  822MOL0     C 8390   1.337   9.408   0.751 -0.3168  0.8091  0.5983
  822MOL0     C 8391   1.304   9.278   0.759 -0.6073  0.1560  0.1799
  822MOL0     C 8392   1.380   9.163   0.802 -0.1285  0.1171  0.0171
  822MOL0     C 8393   1.523   9.173   0.828  0.3339 -0.4702 -0.9529
  822MOL0     C 8394   1.595   9.061   0.882 -0.7166 -0.0958 -1.2297
  822MOL0     C 8395   1.637   8.955   0.783 -0.4183  0.8425 -0.8880
  822MOL0     O 8396   1.747   8.867   0.817 -0.3433 -0.1047 -0.1001
  822MOL0     C 8397   1.809   8.799   0.713  0.4191  0.3331  0.0503
  822MOL0     C 8398   1.949   8.780   0.734 -0.7863  1.0042  0.9028
  822MOL0     C 8399   2.019   8.706   0.640  0.0686 -0.4179  0.3621
  822MOL0     C 8400   1.953   8.657   0.523 -0.7894 -0.6438 -0.0697
  822MOL0     C 8401   2.035   8.599   0.413  0.4624 -0.5356 -0.2035
  822MOL0     O 8402   2.157   8.572   0.442  0.2029 -0.2513 -0.3124
  822MOL0     C 8403   2.230   8.502   0.348 -0.5895  0.2572  0.5555
  822MOL0     C 8404   2.312   8.557   0.249 -0.1348 -0.4602  0.4455
  822MOL0     C 8405   2.374   8.470   0.153  0.8261  0.4083  0.6733
  822MOL0     C 8406   2.369   8.329   0.180  0.2154 -0.2113  0.6622
  822MOL0     O 8407   2.436   8.235   0.108 -0.3187 -0.2253 -0.0106
  822MOL0     C 8408   2.462   8.258  -0.036 -0.7226  0.2251  0.5239
  822MOL0     C 8409   2.333   8.251  -0.122 -0.2574  1.1408 -0.4510
  822MOL0     C 8410   2.374   8.272  -0.277 -0.2418 -0.4678 -0.9707
  822MOL0     C 8411   2.267   8.324  -0.364  0.1369 -0.9604  1.1496
  822MOL0     C 8412   2.276   8.265  -0.507 -0.1378 -0.6331  0.0385
  822MOL0     C 8413   2.162   8.306  -0.602  0.7254 -0.4559 -0.7150
  822MOL0     C 8414   2.166   8.229  -0.730  0.5193  0.0271  1.6477
  822MOL0     C 8415   2.147   8.322  -0.854  0.8202  1.2552 -0.5723
  822MOL0    Cl 8416   2.268   8.442  -0.883  0.1813 -0.0443 -0.2011
  822MOL0     C 8417   2.281   8.274   0.280 -0.6012 -0.4557 -0.3901
  822MOL0     C 8418   2.218   8.367   0.364  0.4847  0.1841  0.0952
  822MOL0     O 8419   1.979   8.558   0.313  0.5391  0.5150  0.9897
  822MOL0     C 8420   1.814   8.671   0.504 -0.7005  1.0588  0.5141
  822MOL0     C 8421   1.743   8.752   0.599  0.3137  0.0360  0.5590
  822MOL0     N 8422   1.175   9.258   0.715 -0.0952 -0.1353  0.4254
  822MOL0     N 8423   1.129   9.370   0.680  0.4771  0.1429 -0.4340
  822MOL0     C 8424   0.546  10.461   0.274  0.4876 -0.4212  0.2300
  822MOL0     C 8425   0.594  10.496   0.142  0.2027 -0.3743  0.2631
  822MOL0     C 8426   0.893  10.442  -0.221  1.2482  0.1621  0.3897
  822MOL0     C 8427   1.012  10.374  -0.256 -0.0667  0.5449 -0.5000
  822MOL0     C 8428   1.066  10.373  -0.380  0.1358  0.0284  0.4446
  822MOL0     C 8429   1.017  10.461  -0.480 -0.7196  0.0274 -0.1194
  822MOL0     O 8430   1.067  10.466  -0.602  0.7598 -0.1165 -0.6390
  822MOL0     C 8431   1.136  10.585  -0.639  0.5834  0.6770  0.1915
  822MOL0     C 8432   1.190  10.578  -0.777  0.2197  0.2259  0.1861
  822MOL0     C 8433   1.085  10.525  -0.878 -0.4335 -0.0471 -0.2252
  822MOL0     C 8434   1.101  10.570  -1.028  0.1669 -0.0139 -0.3091
  822MOL0     C 8435   0.989  10.513  -1.106 -0.5471 -0.1986  0.2721
  822MOL0     C 8436   0.893  10.477  -1.170 -0.3867  0.1241  0.5648
  822MOL0     C 8437   0.904  10.543  -0.443 -0.7564 -0.4228  0.9043
  822MOL0     C 8438   0.836  10.526  -0.320  0.1359 -0.2064  0.1222
  822MOL0     H 8439   0.670  10.198   0.012 -2.5728 -1.5419  0.7982
  822MOL0     H 8440   0.618  10.131   0.228 -1.6849 -0.1040  0.0930
  822MOL0     H 8441   0.525  10.082   0.424  3.9105 -1.7297  1.3347
  822MOL0     H 8442   0.479  10.139   0.587  0.4907  0.6491  0.5727
  822MOL0     H 8443   0.686  10.213   0.630  1.6435 -0.2632 -0.6579
  822MOL0     H 8444   0.765  10.136   0.490  0.5927 -0.0620  0.1157
  822MOL0     H 8445   0.674   9.925   0.529 -0.0543  1.3974 -1.9639
  822MOL0     H 8446   0.601   9.977   0.683  0.3066 -2.0027 -0.9474
  822MOL0     H 8447   0.900  10.029   0.665 -1.5207  1.4669 -1.5478
  822MOL0     H 8448   0.810   9.993   0.798 -1.0528  1.2455  0.4551
  822MOL0     H 8449   0.845   9.769   0.575  1.1027 -1.4229  0.2272
  822MOL0     H 8450   0.808   9.750   0.749  2.2739 -1.7569  0.4161
  822MOL0     H 8451   1.039   9.834   0.798 -0.6983 -0.2149  0.8545
  822MOL0     H 8452   1.068   9.860   0.636 -0.3641 -0.2440 -0.7648
  822MOL0     H 8453   0.962   9.580   0.741 -1.6724 -2.3308 -3.6817
  822MOL0     H 8454   1.022   9.607   0.583 -1.2851  0.3682 -0.4265
  822MOL0     H 8455   1.234   9.649   0.800 -1.4064  0.4285  0.4580
  822MOL0     H 8456   1.254   9.661   0.631  1.0063 -0.7834 -0.0601
  822MOL0     H 8457   1.432   9.448   0.783 -1.2489  1.4329  2.7837
  822MOL0     H 8458   1.369   9.085   0.726 -1.5716  1.4116 -1.1608
  822MOL0     H 8459   1.346   9.118   0.895  2.3501 -3.3477 -0.5065
  822MOL0     H 8460   1.535   9.251   0.904  0.1176 -0.0099 -1.3854
  822MOL0     H 8461   1.586   9.200   0.743  2.7144 -2.5197  0.0441
  822MOL0     H 8462   1.686   9.092   0.934 -0.1369  0.3569 -2.4787
  822MOL0     H 8463   1.529   9.015   0.956 -1.2333  0.7243 -1.1684
  822MOL0     H 8464   1.656   9.021   0.697  4.5896  2.5522  1.1917
  822MOL0     H 8465   1.544   8.898   0.778 -0.3322  0.7998 -2.9655
  822MOL0     H 8466   1.986   8.820   0.828 -0.8087  0.6577  1.0627
  822MOL0     H 8467   2.124   8.680   0.652  0.6148  1.5607  0.1380
  822MOL0     H 8468   2.334   8.663   0.247  1.1859 -0.6872 -2.0241
  822MOL0     H 8469   2.441   8.516   0.081 -1.1194  0.8748 -0.9081
  822MOL0     H 8470   2.529   8.174  -0.055 -1.7693 -0.7519  1.0268
  822MOL0     H 8471   2.501   8.358  -0.055 -2.0933  0.8436  0.8170
  822MOL0     H 8472   2.273   8.334  -0.084  0.5680  0.6474  2.2069
  822MOL0     H 8473   2.280   8.157  -0.105  1.4562  0.1018 -0.6406
  822MOL0     H 8474   2.409   8.173  -0.307  1.3050 -0.1330 -0.3637
  822MOL0     H 8475   2.456   8.345  -0.271 -0.0556 -0.7697  0.3697
  822MOL0     H 8476   2.162   8.310  -0.336 -0.0960 -1.2178  0.1554
  822MOL0     H 8477   2.277   8.433  -0.364  0.9489 -1.0314  1.5247
  822MOL0     H 8478   2.261   8.157  -0.499 -1.3671 -0.4453  0.5176
  822MOL0     H 8479   2.375   8.289  -0.547  0.7594 -2.1582  1.2324
  822MOL0     H 8480   2.170   8.410  -0.633  1.7332 -0.8293 -1.7536
  822MOL0     H 8481   2.069   8.290  -0.545  2.9927 -2.9404  2.6678
  822MOL0     H 8482   2.261   8.179  -0.750 -0.4753 -2.2724  2.3275
  822MOL0     H 8483   2.096   8.145  -0.726  1.8163 -1.2879 -0.9921
  822MOL0     H 8484   2.045   8.361  -0.856 -0.1085 -0.9206  0.9757
  822MOL0     H 8485   2.150   8.251  -0.937 -3.6507 -0.6684  0.5999
  822MOL0     H 8486   2.276   8.168   0.305 -1.9139 -0.4403 -0.5452
  822MOL0     H 8487   2.165   8.327   0.450  3.5773 -1.6178  1.3634
  822MOL0     H 8488   1.777   8.615   0.419 -1.1076  3.6490 -1.0943
  822MOL0     H 8489   1.637   8.772   0.585  0.2161  1.1199  2.5041
  822MOL0     H 8490   0.494  10.536   0.333  0.0696  0.9553 -1.7573
  822MOL0     H 8491   0.593  10.598   0.106  0.8472 -0.0318  1.1771
  822MOL0     H 8492   1.048  10.314  -0.174 -1.7422 -0.5827 -0.5267
  822MOL0     H 8493   1.159  10.328  -0.413  0.7595  1.7136 -0.1607
  822MOL0     H 8494   1.207  10.610  -0.560  0.5691  2.4017 -0.2932
  822MOL0     H 8495   1.067  10.670  -0.636 -1.0188 -0.5781  0.9465
  822MOL0     H 8496   1.215  10.682  -0.800 -3.4221  1.4121  1.0105
  822MOL0     H 8497   1.280  10.516  -0.782 -0.5738 -0.9246 -4.2544
  822MOL0     H 8498   0.984  10.553  -0.847  0.3878  3.3099 -0.2743
  822MOL0     H 8499   1.084  10.416  -0.869  0.0537 -0.0602 -0.3494
  822MOL0     H 8500   1.079  10.677  -1.037  0.4272  0.0787  0.1420
  822MOL0     H 8501   1.195  10.542  -1.077 -0.1450 -2.6121  0.4403
  822MOL0     H 8502   0.805  10.452  -1.225  1.2144 -3.1664 -0.7809
  822MOL0     H 8503   0.861  10.611  -0.516  1.6379  0.6434  0.3690
  822MOL0     H 8504   0.755  10.591  -0.289  0.9488  0.0568  1.7806
  823MOL0     O 8505   5.065   7.208   6.253  0.0837 -0.2325  0.4355
  823MOL0     C 8506   5.116   7.094   6.260  0.2854  0.4514 -0.5028
  823MOL0     O 8507   5.188   7.032   6.159  0.2944  0.1870  0.1680
  823MOL0     C 8508   5.217   7.108   6.049 -0.3438 -0.7148  1.4941
  823MOL0     C 8509   5.305   7.216   6.052  0.8825  0.4761 -0.5947
  823MOL0     C 8510   5.358   7.273   5.935 -0.1161  1.0305  0.2063
  823MOL0     C 8511   5.306   7.250   5.810  0.0494  0.6886  0.4924
  823MOL0     O 8512   5.349   7.321   5.703  0.6487  0.0073  0.5144
  823MOL0     C 8513   5.337   7.266   5.565  0.0278  1.1741 -0.5531
  823MOL0     C 8514   5.431   7.337   5.472 -0.0792 -0.0487  1.1224
  823MOL0     C 8515   5.404   7.284   5.326 -0.0331  0.8461  0.7160
  823MOL0     C 8516   5.448   7.382   5.219  0.3028 -0.3238  0.0250
  823MOL0     C 8517   5.582   7.451   5.253  0.1208  0.7551 -1.1900
  823MOL0     C 8518   5.628   7.537   5.129  0.2406 -0.4424 -0.2301
  823MOL0     C 8519   5.748   7.625   5.153  0.5135  0.0969 -0.1725
  823MOL0     C 8520   5.797   7.698   5.025 -1.0121 -0.3547 -0.6463
  823MOL0     N 8521   5.893   7.601   4.963  0.3393  0.3201 -0.2481
  823MOL0     C 8522   6.031   7.598   4.961  0.1270 -0.3209 -0.3098
  823MOL0     C 8523   6.064   7.498   4.882 -0.1575  0.3842 -0.3816
  823MOL0     C 8524   6.207   7.463   4.863  0.3589 -0.4292  0.0471
  823MOL0     C 8525   6.263   7.523   4.736 -0.8989 -0.8870  0.5319
  823MOL0     C 8526   6.410   7.492   4.695  0.8565  0.1810  0.2548
  823MOL0     C 8527   6.440   7.423   4.562  0.6422  0.5826 -0.4776
  823MOL0     O 8528   6.387   7.497   4.454 -0.1987 -0.4518 -0.1562
  823MOL0     C 8529   6.432   7.466   4.329 -0.1823 -0.1162  0.3180
  823MOL0     C 8530   6.513   7.363   4.288  0.5779  0.0215 -0.5907
  823MOL0     C 8531   6.544   7.335   4.159  0.4365  0.2421 -0.0939
  823MOL0     C 8532   6.480   7.397   4.055 -0.5340  0.8562  1.4380
  823MOL0     C 8533   6.511   7.350   3.915 -0.4455  0.6124  0.5381
  823MOL0     O 8534   6.450   7.414   3.813 -1.0393  0.2323  0.3692
  823MOL0     C 8535   6.460   7.359   3.693 -0.1686 -0.3367  0.5479
  823MOL0     C 8536   6.576   7.372   3.622  0.0922 -0.5006  0.7386
  823MOL0     C 8537   6.587   7.348   3.485 -0.6699  0.9874  0.3551
  823MOL0     C 8538   6.483   7.282   3.423 -0.4317  1.1609 -0.3049
  823MOL0     O 8539   6.471   7.260   3.293  0.2848 -0.4265  0.6029
  823MOL0     C 8540   6.502   7.376   3.207  0.6111  0.4290  0.7301
  823MOL0     C 8541   6.471   7.337   3.060  1.1911  0.5368  0.4202
  823MOL0     C 8542   6.336   7.266   3.045  0.1687 -0.9880 -0.6588
  823MOL0     C 8543   6.314   7.224   2.902 -0.0054 -0.3365 -0.2106
  823MOL0     C 8544   6.261   7.075   2.908  0.3152 -0.2864 -0.6837
  823MOL0     C 8545   6.272   7.014   2.771 -0.6893  0.0484 -0.5044
  823MOL0     C 8546   6.263   6.864   2.755  0.0784  0.5947  0.6585
  823MOL0     C 8547   6.224   6.835   2.610 -1.1806  0.0432  0.1931
  823MOL0    Cl 8548   6.371   6.828   2.500 -0.4018  0.2863  0.3775
  823MOL0     C 8549   6.373   7.239   3.495 -0.2207  0.0838 -0.2660
  823MOL0     C 8550   6.361   7.287   3.630  0.2331 -0.0966 -0.1655
  823MOL0     O 8551   6.593   7.258   3.900  0.6118  0.1560 -0.2708
  823MOL0     C 8552   6.386   7.496   4.083  0.0005  0.0793  0.6778
  823MOL0     C 8553   6.369   7.528   4.223  0.5930  0.2065 -0.2503
  823MOL0     N 8554   5.948   7.435   4.852 -0.4014 -0.0626 -1.0382
  823MOL0     N 8555   5.844   7.498   4.889 -0.2856 -0.5863  0.1075
  823MOL0     C 8556   5.208   7.143   5.805 -0.3497  0.0577  0.3343
  823MOL0     C 8557   5.169   7.074   5.922  0.7823 -0.8101 -0.3368
  823MOL0     C 8558   5.123   7.033   6.391  0.8569  0.3323  0.5241
  823MOL0     C 8559   5.154   6.902   6.405  0.1347  0.4871 -0.5458
  823MOL0     C 8560   5.153   6.850   6.540  0.0806  0.7933 -0.6175
  823MOL0     C 8561   5.134   6.916   6.656 -0.7518 -0.5825  0.2626
  823MOL0     O 8562   5.112   6.847   6.770 -0.2906  0.4428  0.0818
  823MOL0     C 8563   5.135   6.923   6.886 -0.1039  0.8491  0.6462
  823MOL0     C 8564   5.004   6.989   6.938 -0.4373  0.2775  0.0734
  823MOL0     C 8565   4.895   6.904   6.999 -0.4656  0.8373  0.4941
  823MOL0     C 8566   4.767   6.970   7.024 -0.1673  0.0465 -0.6297
  823MOL0     C 8567   4.677   6.894   7.113 -0.8711  0.8604  0.6276
  823MOL0     C 8568   4.589   6.831   7.173 -1.0076 -0.6124 -0.0519
  823MOL0     C 8569   5.115   7.054   6.635 -0.4937  0.6815  0.4824
  823MOL0     C 8570   5.100   7.107   6.505 -0.2752 -0.1128  0.9262
  823MOL0     H 8571   5.335   7.236   6.154  0.2710 -2.4111  0.2440
  823MOL0     H 8572   5.415   7.363   5.954 -1.9668  2.0621  1.2499
  823MOL0     H 8573   5.236   7.289   5.529 -0.3361  0.0567 -0.2987
  823MOL0     H 8574   5.342   7.158   5.546 -1.7878  0.8879  0.3589
  823MOL0     H 8575   5.535   7.323   5.504 -0.6005 -2.9150  1.8575
  823MOL0     H 8576   5.408   7.444   5.476 -3.5639 -0.6758  1.4246
  823MOL0     H 8577   5.300   7.257   5.307  0.4159 -1.2495  0.9542
  823MOL0     H 8578   5.467   7.195   5.315 -1.5830 -0.6355  3.0165
  823MOL0     H 8579   5.478   7.345   5.120  4.4170  1.4987  0.3509
  823MOL0     H 8580   5.373   7.460   5.202 -1.2290 -1.7403  0.1345
  823MOL0     H 8581   5.656   7.373   5.273 -2.4901 -1.8143 -0.9207
  823MOL0     H 8582   5.571   7.519   5.338  5.5910  1.1583 -0.4406
  823MOL0     H 8583   5.549   7.598   5.084  0.0142 -2.4785 -2.7840
  823MOL0     H 8584   5.651   7.468   5.048 -1.5738  4.2929 -5.4858
  823MOL0     H 8585   5.710   7.701   5.222 -1.1823 -0.9375  0.0843
  823MOL0     H 8586   5.831   7.579   5.209 -1.9487 -2.6194  1.5444
  823MOL0     H 8587   5.842   7.795   5.047 -0.6973 -0.5507 -0.4151
  823MOL0     H 8588   5.707   7.721   4.968 -0.8176  3.4661  0.3295
  823MOL0     H 8589   6.099   7.677   4.991  0.8390 -0.4578 -1.5430
  823MOL0     H 8590   6.221   7.355   4.869 -0.1477 -0.4440  1.2638
  823MOL0     H 8591   6.263   7.494   4.951  0.7272 -0.7275 -0.0781
  823MOL0     H 8592   6.246   7.631   4.731  0.6988 -0.6226 -4.7010
  823MOL0     H 8593   6.195   7.487   4.658  0.4456 -2.7363  0.1342
  823MOL0     H 8594   6.458   7.590   4.690 -0.2355  0.6900 -1.2681
  823MOL0     H 8595   6.458   7.432   4.773  0.9609  0.4945  0.4295
  823MOL0     H 8596   6.389   7.326   4.561 -0.5630  1.1952 -1.6716
  823MOL0     H 8597   6.549   7.417   4.554  0.6551  0.7868 -0.4679
  823MOL0     H 8598   6.554   7.288   4.355  0.9300  1.2701  0.6438
  823MOL0     H 8599   6.613   7.254   4.143 -3.5039 -2.8668 -3.3369
  823MOL0     H 8600   6.647   7.428   3.681  1.3803 -3.8359  2.5496
  823MOL0     H 8601   6.671   7.373   3.421 -0.9200 -2.3970 -1.5548
  823MOL0     H 8602   6.609   7.397   3.208  1.1317 -1.8358 -0.6120
  823MOL0     H 8603   6.439   7.464   3.223  0.5791  1.7363 -4.5203
  823MOL0     H 8604   6.550   7.264   3.036 -1.5612 -3.0727  1.3822
  823MOL0     H 8605   6.478   7.424   2.995 -0.8543  0.7302  0.3939
  823MOL0     H 8606   6.263   7.336   3.085  1.7670  1.3604 -1.6714
  823MOL0     H 8607   6.330   7.180   3.113 -0.7601  0.7648  1.6020
  823MOL0     H 8608   6.242   7.291   2.854  0.7992  0.1335 -0.7732
  823MOL0     H 8609   6.405   7.234   2.842 -0.4615  0.4120 -0.7939
  823MOL0     H 8610   6.166   7.064   2.961 -0.2478  3.2116 -0.7300
  823MOL0     H 8611   6.332   7.021   2.971 -1.7541  0.0346  2.1577
  823MOL0     H 8612   6.364   7.056   2.730 -0.1830 -0.8779 -0.3351
  823MOL0     H 8613   6.194   7.062   2.711  0.5784  2.4710 -0.3563
  823MOL0     H 8614   6.364   6.826   2.771 -0.3095 -0.9886 -0.3755
  823MOL0     H 8615   6.201   6.815   2.830 -0.9525  0.3270 -0.3326
  823MOL0     H 8616   6.148   6.909   2.581 -0.0237  1.2484  0.1471
  823MOL0     H 8617   6.172   6.740   2.592  0.0528 -0.6522  0.2152
  823MOL0     H 8618   6.308   7.166   3.447  0.9903 -1.5890  0.5174
  823MOL0     H 8619   6.270   7.257   3.681 -0.1782  3.0461  1.2497
  823MOL0     H 8620   6.329   7.553   4.010 -1.3024 -1.4952  0.3938
  823MOL0     H 8621   6.291   7.598   4.251 -0.4692 -0.1552 -2.0986
  823MOL0     H 8622   5.175   7.130   5.702  2.0160  0.1741 -0.5112
  823MOL0     H 8623   5.116   6.980   5.918  3.1414 -2.1699 -2.2899
  823MOL0     H 8624   5.163   6.846   6.313 -0.3660  3.7945 -2.7556
  823MOL0     H 8625   5.147   6.742   6.554  1.0570  0.9390  1.2746
  823MOL0     H 8626   5.205   7.005   6.868  0.5179  0.7031  2.2161
  823MOL0     H 8627   5.176   6.868   6.971 -1.2549 -0.8113  0.1714
  823MOL0     H 8628   5.045   7.041   7.024  1.4450 -1.5113  0.3562
  823MOL0     H 8629   4.952   7.055   6.868  0.3153  0.4850 -0.2963
  823MOL0     H 8630   4.941   6.851   7.083  1.5767  0.7639 -0.6068
  823MOL0     H 8631   4.873   6.823   6.928 -0.2372 -0.4990  1.8948
  823MOL0     H 8632   4.785   7.069   7.065 -4.6872  0.8379 -0.0540
  823MOL0     H 8633   4.703   6.971   6.935 -0.8035 -2.3106 -0.2874
  823MOL0     H 8634   4.516   6.769   7.220  0.7666 -2.7953  0.0344
  823MOL0     H 8635   5.083   7.131   6.703  1.0189  1.4971  0.3228
  823MOL0     H 8636   5.082   7.211   6.484  1.4335 -0.2834 -1.8393
  824MOL0     O 8637   4.582   4.507   7.393 -0.0177 -0.3025  0.1217
  824MOL0     C 8638   4.518   4.458   7.295 -0.1969  0.1487  0.5606
  824MOL0     O 8639   4.411   4.376   7.302 -0.4805 -0.1584  0.3350
  824MOL0     C 8640   4.359   4.342   7.420 -0.2235 -0.3582 -0.2941
  824MOL0     C 8641   4.424   4.286   7.532 -0.3708  0.1408 -0.2036
  824MOL0     C 8642   4.347   4.240   7.641  0.2720  0.2083 -0.7772
  824MOL0     C 8643   4.209   4.254   7.646 -0.1321  0.8929 -0.5081
  824MOL0     O 8644   4.133   4.235   7.754  0.0980  0.1954  0.3489
  824MOL0     C 8645   4.132   4.352   7.852  0.4621  0.8630  0.6942
  824MOL0     C 8646   4.014   4.328   7.954 -0.3000 -0.0631  0.0159
  824MOL0     C 8647   4.022   4.192   8.024 -0.2035  0.5242  1.2743
  824MOL0     C 8648   3.912   4.181   8.126 -0.4156 -1.0429 -0.0255
  824MOL0     C 8649   3.933   4.066   8.219 -0.1452 -0.3842  0.0663
  824MOL0     C 8650   3.812   4.027   8.301  0.4773  0.7685  0.3588
  824MOL0     C 8651   3.838   3.882   8.343 -0.0094  0.0522  0.4963
  824MOL0     C 8652   3.712   3.816   8.411 -0.1889 -0.5215 -0.8970
  824MOL0     N 8653   3.715   3.848   8.555 -0.6129  1.0100 -0.1944
  824MOL0     C 8654   3.770   3.751   8.637  0.6577  0.8865 -0.7907
  824MOL0     C 8655   3.778   3.812   8.757  0.7831  1.1484  0.6790
  824MOL0     C 8656   3.831   3.737   8.877  0.2853 -0.9212 -0.2229
  824MOL0     C 8657   3.713   3.730   8.978  0.6953 -0.7085 -0.1494
  824MOL0     C 8658   3.750   3.697   9.128  0.3713  0.7204  0.5128
  824MOL0     C 8659   3.635   3.653   9.218  0.2826 -0.5840 -0.1455
  824MOL0     O 8660   3.522   3.720   9.161  0.7474 -0.0358  0.1324
  824MOL0     C 8661   3.398   3.675   9.187  0.0359 -1.1784 -0.6656
  824MOL0     C 8662   3.326   3.627   9.077 -0.9481 -0.1444  0.2338
  824MOL0     C 8663   3.209   3.553   9.109 -0.5072 -0.3659 -0.0500
  824MOL0     C 8664   3.153   3.546   9.234  0.1889  0.0616 -0.8880
  824MOL0     C 8665   3.020   3.480   9.245 -0.5407  0.1238 -0.1601
  824MOL0     O 8666   2.993   3.457   9.385  0.4964  0.2397  0.2798
  824MOL0     C 8667   2.883   3.384   9.419  1.0053 -0.1806  0.5121
  824MOL0     C 8668   2.752   3.411   9.379  0.0100 -0.7980 -0.7992
  824MOL0     C 8669   2.650   3.331   9.439  0.5212  0.0470  0.2087
  824MOL0     C 8670   2.672   3.228   9.526 -0.8469  0.2133  0.6109
  824MOL0     O 8671   2.563   3.161   9.575  0.3514  0.1619 -0.2835
  824MOL0     C 8672   2.588   3.039   9.660  0.7436  0.5351 -0.1485
  824MOL0     C 8673   2.468   2.981   9.717  0.1115  0.0340 -0.6715
  824MOL0     C 8674   2.367   2.921   9.617  0.2957  0.3147 -0.3263
  824MOL0     C 8675   2.394   2.789   9.555  0.1118  1.0940  0.2610
  824MOL0     C 8676   2.288   2.730   9.455  0.5138 -0.0168 -0.5106
  824MOL0     C 8677   2.165   2.675   9.524  0.4142 -0.3891 -0.0449
  824MOL0     C 8678   2.067   2.617   9.421  0.0677  0.5988  0.6202
  824MOL0     C 8679   1.932   2.576   9.494 -0.2026 -0.8668  0.4925
  824MOL0    Cl 8680   1.849   2.712   9.586  0.2130  0.1918  0.0161
  824MOL0     C 8681   2.805   3.206   9.561 -0.0146  0.1324  0.1622
  824MOL0     C 8682   2.906   3.283   9.505 -0.7037 -0.7654  0.2790
  824MOL0     O 8683   2.957   3.436   9.148 -0.4821 -0.1167  0.7871
  824MOL0     C 8684   3.218   3.607   9.338  0.0611  0.3209 -0.4123
  824MOL0     C 8685   3.345   3.660   9.321  0.8316  0.4140  0.1764
  824MOL0     N 8686   3.722   3.937   8.741  0.2262 -0.0087 -0.1418
  824MOL0     N 8687   3.680   3.956   8.626  0.2708  0.9939  0.3251
  824MOL0     C 8688   4.146   4.295   7.528  0.1053 -0.1804 -0.6436
  824MOL0     C 8689   4.217   4.344   7.416 -1.2548 -0.2927 -0.2790
  824MOL0     C 8690   4.561   4.474   7.156 -0.2376 -0.8876 -0.3578
  824MOL0     C 8691   4.659   4.572   7.138 -0.0917  0.2298 -0.8993
  824MOL0     C 8692   4.692   4.605   7.008 -0.2133 -0.3865  0.0506
  824MOL0     C 8693   4.649   4.529   6.891  1.0037 -0.6911 -0.1737
  824MOL0     O 8694   4.666   4.557   6.756  0.1915 -0.1053  0.3979
  824MOL0     C 8695   4.699   4.691   6.712  0.0753 -1.1250  0.6116
  824MOL0     C 8696   4.846   4.689   6.680 -0.1218  0.2053 -0.2650
  824MOL0     C 8697   4.932   4.742   6.801 -0.0496 -0.0451 -0.3672
  824MOL0     C 8698   5.057   4.816   6.756 -0.6011 -0.3183 -0.2225
  824MOL0     C 8699   5.162   4.740   6.695 -0.9115 -0.5138  1.0002
  824MOL0     C 8700   5.239   4.682   6.626 -0.9993  0.7879  0.1384
  824MOL0     C 8701   4.567   4.414   6.922 -1.0518  0.3651  0.3963
  824MOL0     C 8702   4.511   4.393   7.048  0.7246 -1.2059  0.5442
  824MOL0     H 8703   4.532   4.288   7.540 -0.2768 -2.1964 -0.1514
  824MOL0     H 8704   4.394   4.217   7.736 -1.9954  4.0386  1.5088
  824MOL0     H 8705   4.121   4.436   7.783 -0.5338 -0.8393 -1.3648
  824MOL0     H 8706   4.226   4.363   7.906 -0.0052  6.0730  0.9752
  824MOL0     H 8707   3.928   4.335   7.888  1.2959  1.1544 -2.0361
  824MOL0     H 8708   4.017   4.409   8.028  2.5384  1.5207 -1.6459
  824MOL0     H 8709   4.118   4.185   8.076 -0.4447  1.5751  1.8918
  824MOL0     H 8710   4.017   4.116   7.946  0.3417  2.9280 -1.2200
  824MOL0     H 8711   3.908   4.278   8.176 -2.9491 -0.5071 -1.1589
  824MOL0     H 8712   3.810   4.174   8.087 -0.5423  1.0565 -0.1488
  824MOL0     H 8713   4.009   4.084   8.295 -0.6434 -1.1966  0.7760
  824MOL0     H 8714   3.960   3.980   8.157  0.5703 -0.3403  0.3066
  824MOL0     H 8715   3.728   4.028   8.231  2.9245  0.2264 -2.8035
  824MOL0     H 8716   3.799   4.090   8.390  1.5059  1.8496 -0.2451
  824MOL0     H 8717   3.870   3.812   8.266  2.3743 -1.9192  3.0615
  824MOL0     H 8718   3.924   3.883   8.411  1.6893 -1.5097 -1.4956
  824MOL0     H 8719   3.717   3.706   8.410  0.9350 -0.7374  3.8303
  824MOL0     H 8720   3.617   3.848   8.368 -1.3773  0.0932  1.9934
  824MOL0     H 8721   3.796   3.649   8.607 -0.3948 -0.0351  1.2522
  824MOL0     H 8722   3.913   3.793   8.922 -1.1565 -1.3659  3.3147
  824MOL0     H 8723   3.860   3.634   8.858 -1.1195 -1.6186  1.1851
  824MOL0     H 8724   3.643   3.661   8.931  1.1660  1.5855 -4.9140
  824MOL0     H 8725   3.656   3.824   8.983 -2.3068 -2.3727 -0.7131
  824MOL0     H 8726   3.816   3.609   9.125  0.5705  0.8600 -2.4386
  824MOL0     H 8727   3.789   3.793   9.164  1.8262  0.9774 -1.5168
  824MOL0     H 8728   3.657   3.686   9.320 -3.1286 -2.2742  1.3104
  824MOL0     H 8729   3.618   3.545   9.210 -1.8442 -0.3476  0.4914
  824MOL0     H 8730   3.364   3.644   8.976 -0.2860  0.4065  0.5734
  824MOL0     H 8731   3.149   3.507   9.032 -3.0892  0.5135  1.3193
  824MOL0     H 8732   2.718   3.501   9.329 -0.9831  0.5599  2.0822
  824MOL0     H 8733   2.547   3.353   9.414 -0.6140 -3.7253  0.8990
  824MOL0     H 8734   2.651   3.066   9.746 -3.5036  2.1722  2.7552
  824MOL0     H 8735   2.638   2.974   9.588  2.3702  1.7378 -0.1659
  824MOL0     H 8736   2.427   3.062   9.778  0.1533 -1.3443  1.3092
  824MOL0     H 8737   2.488   2.906   9.794 -1.8453 -1.7020 -1.7593
  824MOL0     H 8738   2.364   2.988   9.531  0.9181  0.1448 -0.4843
  824MOL0     H 8739   2.272   2.907   9.669  0.9872 -0.7459  0.7080
  824MOL0     H 8740   2.486   2.782   9.497 -0.7708 -1.3094 -0.9757
  824MOL0     H 8741   2.408   2.719   9.638 -1.6754  1.9504  1.3621
  824MOL0     H 8742   2.328   2.642   9.404 -0.8450 -0.5476 -0.7139
  824MOL0     H 8743   2.265   2.807   9.381  1.7090  2.7876  1.8889
  824MOL0     H 8744   2.114   2.765   9.561  0.7806 -1.0289  2.2090
  824MOL0     H 8745   2.193   2.611   9.609  2.1734  1.1485  0.5978
  824MOL0     H 8746   2.052   2.685   9.337  1.0405 -0.2985 -0.3005
  824MOL0     H 8747   2.100   2.520   9.383  0.1841  0.3516  1.3376
  824MOL0     H 8748   1.954   2.505   9.574  2.9289  1.0214  1.4738
  824MOL0     H 8749   1.855   2.542   9.424 -1.3399  0.9504  0.7792
  824MOL0     H 8750   2.822   3.119   9.623 -3.6950 -2.4538 -2.0318
  824MOL0     H 8751   3.013   3.266   9.517  0.2476  1.2163 -3.6907
  824MOL0     H 8752   3.173   3.612   9.437 -0.5233 -4.6572 -0.1806
  824MOL0     H 8753   3.403   3.698   9.404  3.0147 -2.4805  0.1118
  824MOL0     H 8754   4.041   4.319   7.516  0.0710  0.2400  0.3824
  824MOL0     H 8755   4.165   4.378   7.327 -0.9579 -1.8747 -1.0922
  824MOL0     H 8756   4.695   4.631   7.222  1.6485 -3.3199  1.0517
  824MOL0     H 8757   4.750   4.696   6.998  0.1333 -0.4321  1.4857
  824MOL0     H 8758   4.676   4.770   6.784 -4.0109 -0.5682 -0.9825
  824MOL0     H 8759   4.635   4.714   6.626  2.3149  1.0599 -0.6060
  824MOL0     H 8760   4.877   4.585   6.661 -1.9021 -0.5774  0.8334
  824MOL0     H 8761   4.879   4.750   6.595  2.3506 -0.1474  0.3469
  824MOL0     H 8762   4.949   4.662   6.873  0.0064 -0.6542 -1.0427
  824MOL0     H 8763   4.874   4.812   6.861  1.8336 -1.5075  3.5206
  824MOL0     H 8764   5.018   4.898   6.695 -2.0130 -0.2054  0.7616
  824MOL0     H 8765   5.107   4.873   6.835  1.7703  1.6728 -2.9491
  824MOL0     H 8766   5.303   4.634   6.555 -1.3493 -1.1589  1.0976
  824MOL0     H 8767   4.540   4.355   6.835  0.1790 -0.5406  0.6001
  824MOL0     H 8768   4.431   4.321   7.065  0.1851 -1.2743 -1.9187
  825MOL0     O 8769   1.966  10.821   9.542 -0.2066 -0.7271  0.6933
  825MOL0     C 8770   1.965  10.798   9.663  0.8991  0.8537  0.7802
  825MOL0     O 8771   2.042  10.861   9.760  0.4734 -0.1881  0.0611
  825MOL0     C 8772   2.146  10.939   9.700  0.2721  0.3369  0.6194
  825MOL0     C 8773   2.117  11.066   9.636  0.5614  0.0066  0.2759
  825MOL0     C 8774   2.211  11.165   9.609  0.2223 -0.0119 -0.4334
  825MOL0     C 8775   2.353  11.138   9.627  0.0036 -0.0768 -0.3347
  825MOL0     O 8776   2.440  11.230   9.579 -0.4464 -0.0129 -0.6362
  825MOL0     C 8777   2.575  11.202   9.616 -0.7507 -0.0387  0.1032
  825MOL0     C 8778   2.672  11.310   9.559  0.4528  0.4308  0.1910
  825MOL0     C 8779   2.813  11.296   9.623  0.5225  0.5367 -0.5634
  825MOL0     C 8780   2.896  11.411   9.563  0.0022  1.1641  0.0613
  825MOL0     C 8781   3.046  11.417   9.611  0.4696 -0.9248  0.4339
  825MOL0     C 8782   3.052  11.468   9.753  0.5329 -0.2221  0.2198
  825MOL0     C 8783   3.194  11.521   9.786  0.3223  1.0081 -0.6208
  825MOL0     C 8784   3.305  11.418   9.765 -0.9986  1.0852  0.7575
  825MOL0     N 8785   3.446  11.439   9.823 -0.9009  0.2097  0.2984
  825MOL0     C 8786   3.517  11.554   9.837 -0.4153 -0.4739  0.8629
  825MOL0     C 8787   3.645  11.523   9.869  0.6557 -0.5556  0.5704
  825MOL0     C 8788   3.769  11.601   9.873 -0.1093  0.3638  0.0286
  825MOL0     C 8789   3.835  11.632   9.743  0.1161 -0.5428 -0.0118
  825MOL0     C 8790   3.959  11.718   9.750  0.2456 -0.1608  0.0719
  825MOL0     C 8791   3.922  11.866   9.744 -0.7096 -0.1034  0.4598
  825MOL0     O 8792   3.862  11.910   9.863  0.3922 -0.0351 -0.2425
  825MOL0     C 8793   3.785  12.023   9.837 -0.1743 -0.0347  0.3374
  825MOL0     C 8794   3.823  12.134   9.764 -0.4814 -0.9561 -0.3852
  825MOL0     C 8795   3.748  12.254   9.760 -0.2847  0.2286 -0.1585
  825MOL0     C 8796   3.624  12.251   9.836  0.0730  0.5249  0.3354
  825MOL0     C 8797   3.533  12.369   9.846  0.3634 -0.4441 -1.2332
  825MOL0     O 8798   3.568  12.487   9.784 -0.5577 -0.3020 -1.0026
  825MOL0     C 8799   3.492  12.603   9.808  0.1632  0.4769  0.6924
  825MOL0     C 8800   3.463  12.674   9.690 -0.0753  0.0747 -0.1252
  825MOL0     C 8801   3.413  12.807   9.693  0.2765 -0.3507  0.0047
  825MOL0     C 8802   3.390  12.866   9.818 -0.0129 -0.9196 -0.0518
  825MOL0     O 8803   3.339  12.991   9.818  0.3972 -0.9847 -0.3357
  825MOL0     C 8804   3.370  13.069   9.938  0.2506 -1.3038 -0.1588
  825MOL0     C 8805   3.270  13.086  10.049 -0.1126  1.5990  0.5266
  825MOL0     C 8806   3.309  13.202  10.140  0.2977  0.8984  0.3778
  825MOL0     C 8807   3.187  13.216  10.236 -0.5487 -0.4487 -1.1791
  825MOL0     C 8808   3.193  13.307  10.359  0.4016 -0.1537 -0.8773
  825MOL0     C 8809   3.296  13.248  10.461  1.5567  0.2668 -0.3875
  825MOL0     C 8810   3.256  13.279  10.609 -0.0976  0.3116  0.1690
  825MOL0     C 8811   3.282  13.429  10.647 -0.0925 -0.6017  0.3270
  825MOL0    Cl 8812   3.443  13.487  10.580  0.1223  0.2303 -0.4173
  825MOL0     C 8813   3.409  12.785   9.938  0.3635 -0.1336 -0.0569
  825MOL0     C 8814   3.464  12.654   9.932  0.5113  0.8500 -0.1246
  825MOL0     O 8815   3.425  12.355   9.890 -0.1121 -0.0907  0.2547
  825MOL0     C 8816   3.571  12.130   9.887 -0.2277 -0.0102 -0.3346
  825MOL0     C 8817   3.658  12.022   9.894  0.2519  0.8131  0.8414
  825MOL0     N 8818   3.652  11.385   9.868  0.2308  0.7200  0.2904
  825MOL0     N 8819   3.532  11.337   9.851 -0.1068 -0.0017  0.3823
  825MOL0     C 8820   2.375  11.004   9.684 -0.1841 -0.3579 -0.7489
  825MOL0     C 8821   2.279  10.911   9.717 -0.7542  0.1752  0.1356
  825MOL0     C 8822   1.902  10.672   9.713  0.4959 -0.7568  0.2072
  825MOL0     C 8823   1.955  10.606   9.826  0.7610  0.4038 -0.4350
  825MOL0     C 8824   1.907  10.481   9.868 -0.4911 -0.2541 -0.7379
  825MOL0     C 8825   1.800  10.416   9.797  0.8950  0.5462 -1.3682
  825MOL0     O 8826   1.742  10.294   9.824 -0.7802 -0.7685 -0.4428
  825MOL0     C 8827   1.769  10.217   9.946  0.5745 -0.5052  0.4555
  825MOL0     C 8828   1.693  10.278  10.073 -0.4020  0.1125 -0.5888
  825MOL0     C 8829   1.545  10.300  10.050  0.6656 -0.3223 -0.9079
  825MOL0     C 8830   1.447  10.307  10.171  0.0225 -0.0855 -0.3053
  825MOL0     C 8831   1.456  10.423  10.254 -0.3753 -0.3024 -0.3426
  825MOL0     C 8832   1.466  10.506  10.337 -0.1029  0.5362 -0.9044
  825MOL0     C 8833   1.763  10.478   9.679 -0.1943  0.4523  0.3175
  825MOL0     C 8834   1.812  10.601   9.642  0.6090  0.5720  0.5804
  825MOL0     H 8835   2.010  11.084   9.624  0.8591  1.3320 -0.5439
  825MOL0     H 8836   2.186  11.261   9.565  2.4399  0.0228 -1.7347
  825MOL0     H 8837   2.612  11.102   9.592 -0.4620  0.6574 -2.6668
  825MOL0     H 8838   2.587  11.208   9.724  0.0245 -0.8983  0.0765
  825MOL0     H 8839   2.626  11.409   9.573 -4.8013 -1.7432  0.7568
  825MOL0     H 8840   2.691  11.298   9.452 -1.5088 -2.2446  0.0195
  825MOL0     H 8841   2.865  11.208   9.583 -0.3736  0.7916 -2.4146
  825MOL0     H 8842   2.811  11.293   9.732  1.7537  5.0111 -0.2275
  825MOL0     H 8843   2.881  11.410   9.455  1.4122 -2.6208 -0.2634
  825MOL0     H 8844   2.837  11.493   9.606 -2.8500 -0.2984 -0.8088
  825MOL0     H 8845   3.096  11.494   9.550 -1.5529  0.7547  0.7662
  825MOL0     H 8846   3.097  11.324   9.587  3.3645  0.4028  1.0445
  825MOL0     H 8847   3.029  11.385   9.821  0.7744  0.3197  0.9798
  825MOL0     H 8848   2.985  11.553   9.770 -0.5775 -1.0234 -0.0663
  825MOL0     H 8849   3.212  11.611   9.727  2.3976  2.2834  1.7784
  825MOL0     H 8850   3.189  11.558   9.889 -2.0701 -1.6542  0.3708
  825MOL0     H 8851   3.327  11.407   9.659  0.0710  1.5048  0.9246
  825MOL0     H 8852   3.269  11.317   9.788  0.7713  0.4960  1.0939
  825MOL0     H 8853   3.477  11.651   9.811  1.3368 -0.2102 -1.1031
  825MOL0     H 8854   3.837  11.549   9.941 -1.6270 -2.5063 -0.4427
  825MOL0     H 8855   3.733  11.694   9.917 -1.4188 -0.4106  0.6752
  825MOL0     H 8856   3.762  11.678   9.676 -0.4872 -1.0725  0.2710
  825MOL0     H 8857   3.855  11.536   9.695 -2.2205 -1.7786  1.3168
  825MOL0     H 8858   4.018  11.690   9.837 -0.4859  0.4372  0.7803
  825MOL0     H 8859   4.013  11.697   9.657  1.3430  2.4621  0.0132
  825MOL0     H 8860   3.857  11.893   9.660  0.0968  1.8988  0.4125
  825MOL0     H 8861   4.017  11.919   9.731 -0.4132 -0.9427 -1.0484
  825MOL0     H 8862   3.913  12.137   9.703 -1.8791  1.0974 -2.5174
  825MOL0     H 8863   3.800  12.335   9.709  3.1377 -2.4907 -1.4173
  825MOL0     H 8864   3.474  12.638   9.588 -1.1320  4.3018 -1.9693
  825MOL0     H 8865   3.385  12.862   9.605  1.5952  1.8100  0.8612
  825MOL0     H 8866   3.405  13.170   9.913  0.5789 -1.1850  0.7523
  825MOL0     H 8867   3.461  13.030   9.986 -1.0442 -0.4426  3.2663
  825MOL0     H 8868   3.267  12.991  10.104  1.6902  1.5555  0.6076
  825MOL0     H 8869   3.167  13.107  10.018  0.6263  1.5835 -2.2800
  825MOL0     H 8870   3.319  13.300  10.092  0.0235 -0.5323 -2.8236
  825MOL0     H 8871   3.395  13.168  10.200 -2.6708 -3.9615  2.4993
  825MOL0     H 8872   3.112  13.254  10.167  1.0588  1.3254 -2.0234
  825MOL0     H 8873   3.148  13.124  10.282  1.3803 -0.2851  0.9432
  825MOL0     H 8874   3.097  13.322  10.407  0.7529  0.6903 -0.4046
  825MOL0     H 8875   3.227  13.409  10.336  0.7685 -0.8406 -3.8530
  825MOL0     H 8876   3.394  13.295  10.454  1.1199  1.3951  0.7576
  825MOL0     H 8877   3.300  13.139  10.450 -1.1123 -0.1860  2.0292
  825MOL0     H 8878   3.149  13.256  10.613 -0.3382  1.0673 -1.2615
  825MOL0     H 8879   3.312  13.203  10.664 -0.1877 -1.6930 -2.2910
  825MOL0     H 8880   3.273  13.458  10.752 -0.4821  0.9395 -0.1052
  825MOL0     H 8881   3.201  13.492  10.608  2.7310  1.5657 -2.5242
  825MOL0     H 8882   3.388  12.835  10.032 -0.0609 -0.9092  0.2689
  825MOL0     H 8883   3.489  12.608  10.027 -1.2639 -0.9451 -0.4637
  825MOL0     H 8884   3.473  12.119   9.932 -1.8695  0.0807 -3.6061
  825MOL0     H 8885   3.611  11.938   9.945  0.8608  2.6896  4.8950
  825MOL0     H 8886   2.478  10.974   9.696 -0.3694 -1.7393 -2.2328
  825MOL0     H 8887   2.302  10.813   9.758  2.4462  0.4770 -0.6948
  825MOL0     H 8888   2.029  10.657   9.888  1.5590  1.3747 -2.1386
  825MOL0     H 8889   1.946  10.445   9.962 -4.9955 -0.2066  1.3980
  825MOL0     H 8890   1.874  10.230   9.971  0.1464 -0.6369  2.4575
  825MOL0     H 8891   1.751  10.111   9.927 -1.0057 -0.0905 -0.6760
  825MOL0     H 8892   1.713  10.215  10.159 -1.8813 -1.6866 -1.4890
  825MOL0     H 8893   1.743  10.370  10.104 -1.7379  0.7476 -0.2399
  825MOL0     H 8894   1.505  10.218   9.989 -2.4897  2.2561 -2.6701
  825MOL0     H 8895   1.531  10.390   9.990  0.6451  0.8333  0.7683
  825MOL0     H 8896   1.342  10.328  10.146  0.6030  1.1378 -1.8237
  825MOL0     H 8897   1.453  10.215  10.230  1.6769 -1.7732 -2.9058
  825MOL0     H 8898   1.482  10.576  10.417  0.2587 -0.2320 -0.2910
  825MOL0     H 8899   1.695  10.433   9.608  0.3446  1.5845 -0.9636
  825MOL0     H 8900   1.779  10.656   9.554  2.4259  1.2328  0.2784
  826MOL0     O 8901   4.864   0.358   9.869 -0.6542  1.0169 -0.4420
  826MOL0     C 8902   4.800   0.253   9.863 -0.0556  0.4988  0.1185
  826MOL0     O 8903   4.696   0.229   9.779  0.5819  0.6065  0.0246
  826MOL0     C 8904   4.670   0.326   9.675  0.2122 -0.2755 -0.1034
  826MOL0     C 8905   4.608   0.443   9.706 -0.3487  0.2601 -0.0754
  826MOL0     C 8906   4.579   0.523   9.595 -0.3999  0.0255 -0.5315
  826MOL0     C 8907   4.619   0.495   9.461 -1.0013 -0.5994  0.1119
  826MOL0     O 8908   4.573   0.591   9.372 -0.5451 -0.2298  0.6566
  826MOL0     C 8909   4.607   0.583   9.225 -0.5260 -0.3974  0.2189
  826MOL0     C 8910   4.557   0.703   9.152 -0.5342 -0.2873 -0.4018
  826MOL0     C 8911   4.537   0.683   9.004 -0.0238  0.1083 -0.1259
  826MOL0     C 8912   4.506   0.818   8.943  0.9248 -0.5457 -1.1093
  826MOL0     C 8913   4.467   0.824   8.801 -0.7590 -0.5517  0.1788
  826MOL0     C 8914   4.576   0.775   8.711  0.5525  0.1939  0.3525
  826MOL0     C 8915   4.566   0.818   8.560 -0.2325 -0.0800  0.6859
  826MOL0     C 8916   4.665   0.752   8.482  0.7420  0.8040 -0.0842
  826MOL0     N 8917   4.658   0.785   8.338 -0.0441  0.6946 -0.1847
  826MOL0     C 8918   4.578   0.712   8.253  0.0430 -0.6871  0.6621
  826MOL0     C 8919   4.606   0.756   8.128  0.4308 -0.2052 -0.3820
  826MOL0     C 8920   4.535   0.728   7.993 -0.2833 -0.9309 -0.0831
  826MOL0     C 8921   4.587   0.585   7.959 -1.0829  0.0136 -0.2096
  826MOL0     C 8922   4.728   0.576   7.914 -0.8142 -0.0014  0.4209
  826MOL0     C 8923   4.769   0.649   7.781 -0.3517 -0.9178 -0.4050
  826MOL0     O 8924   4.905   0.617   7.751  0.4394 -0.4009  0.1743
  826MOL0     C 8925   4.974   0.671   7.649 -0.1644  0.3759 -0.2523
  826MOL0     C 8926   5.098   0.618   7.621 -0.3453 -0.6130 -0.5919
  826MOL0     C 8927   5.158   0.657   7.496 -0.0773 -0.1184 -1.2563
  826MOL0     C 8928   5.103   0.774   7.416 -0.4518 -0.0936 -0.2733
  826MOL0     C 8929   5.169   0.813   7.290  0.5528 -0.4429  0.0257
  826MOL0     O 8930   5.098   0.884   7.192 -0.1399 -1.1437  0.5295
  826MOL0     C 8931   5.142   0.894   7.055 -0.4314  0.6982  0.4869
  826MOL0     C 8932   5.246   0.822   6.991  0.1863  0.5859 -0.3609
  826MOL0     C 8933   5.264   0.830   6.850  0.5005 -0.3808  0.6747
  826MOL0     C 8934   5.199   0.933   6.780 -0.3591  0.2638  1.2753
  826MOL0     O 8935   5.208   0.935   6.640  1.1849 -0.4042  0.5232
  826MOL0     C 8936   5.337   0.980   6.597  0.1675 -1.0339  0.2634
  826MOL0     C 8937   5.339   1.141   6.604 -1.1865  0.4429  0.3861
  826MOL0     C 8938   5.240   1.202   6.503 -0.6909  1.0212  0.5903
  826MOL0     C 8939   5.255   1.349   6.513 -0.0227 -0.2303 -0.6739
  826MOL0     C 8940   5.196   1.422   6.624  0.8065 -0.5395 -0.4378
  826MOL0     C 8941   5.039   1.424   6.632 -0.3608  0.7119 -0.2803
  826MOL0     C 8942   4.981   1.564   6.672  0.3431 -0.2517 -0.3869
  826MOL0     C 8943   5.019   1.603   6.818  0.2274 -0.3088 -0.5235
  826MOL0    Cl 8944   4.927   1.499   6.928  0.0860  0.3407  0.1244
  826MOL0     C 8945   5.113   1.016   6.852 -0.2471 -0.1070  0.2397
  826MOL0     C 8946   5.078   1.002   6.985 -0.4316 -0.1740 -0.3364
  826MOL0     O 8947   5.277   0.761   7.275 -0.8230  0.5013 -0.3719
  826MOL0     C 8948   4.980   0.836   7.450 -0.3447  0.1626 -1.5824
  826MOL0     C 8949   4.910   0.774   7.564 -0.2130  0.3941  0.7460
  826MOL0     N 8950   4.709   0.846   8.142 -0.0129 -1.0359 -0.0142
  826MOL0     N 8951   4.743   0.868   8.273  0.3184  0.1651 -0.6643
  826MOL0     C 8952   4.708   0.392   9.438 -0.1449  0.6038 -0.5506
  826MOL0     C 8953   4.727   0.300   9.545  0.1596 -0.5199  0.0683
  826MOL0     C 8954   4.837   0.132   9.953  0.3976  0.1561 -0.2360
  826MOL0     C 8955   4.767   0.012   9.960  0.2776 -0.3440  1.2145
  826MOL0     C 8956   4.785  -0.087  10.054  0.6178  0.9527  0.0554
  826MOL0     C 8957   4.885  -0.073  10.150 -0.1317  0.6880  0.1646
  826MOL0     O 8958   4.922  -0.169  10.242  0.6290  0.2822 -0.3103
  826MOL0     C 8959   4.839  -0.282  10.278  0.2233 -0.7193 -0.6975
  826MOL0     C 8960   4.742  -0.216  10.373 -1.1466 -0.6354 -0.4940
  826MOL0     C 8961   4.641  -0.307  10.449 -0.6752 -0.1438  0.2810
  826MOL0     C 8962   4.556  -0.384  10.349  0.4797 -0.1835  0.6514
  826MOL0     C 8963   4.434  -0.309  10.324 -0.1844 -0.9264 -1.0577
  826MOL0     C 8964   4.346  -0.220  10.311  0.8055  0.6270 -0.6031
  826MOL0     C 8965   4.961   0.042  10.151 -0.0273  0.2312  0.3989
  826MOL0     C 8966   4.940   0.150  10.058  0.9040 -0.1043  0.4094
  826MOL0     H 8967   4.603   0.464   9.813  1.3057  2.8858 -0.4235
  826MOL0     H 8968   4.542   0.624   9.609  1.6504  1.3378 -3.4674
  826MOL0     H 8969   4.560   0.494   9.181  2.4362 -2.2911  0.5819
  826MOL0     H 8970   4.713   0.569   9.206 -1.0176 -1.9875 -1.6524
  826MOL0     H 8971   4.649   0.760   9.168  1.0130 -2.3387 -1.4544
  826MOL0     H 8972   4.466   0.724   9.208  0.1498  0.8156  0.3230
  826MOL0     H 8973   4.459   0.607   8.993  1.6792 -2.0489  1.7929
  826MOL0     H 8974   4.630   0.647   8.961  0.7194  2.1621 -0.3363
  826MOL0     H 8975   4.424   0.860   9.001 -3.3333 -1.8593 -5.5273
  826MOL0     H 8976   4.595   0.879   8.962  1.0735 -1.3479  1.0045
  826MOL0     H 8977   4.470   0.933   8.789  1.1125 -0.5652  0.3012
  826MOL0     H 8978   4.368   0.781   8.781 -0.9128 -1.9754  3.4868
  826MOL0     H 8979   4.572   0.666   8.720 -1.6559  0.0351 -1.5605
  826MOL0     H 8980   4.679   0.798   8.740  2.0977 -2.7794 -2.2300
  826MOL0     H 8981   4.471   0.778   8.525 -0.7245  1.1102  0.6239
  826MOL0     H 8982   4.566   0.928   8.559  0.2406 -0.0728  1.0480
  826MOL0     H 8983   4.642   0.645   8.483  2.9883  0.2616  1.1772
  826MOL0     H 8984   4.764   0.772   8.524  1.3152 -0.7025 -0.6580
  826MOL0     H 8985   4.506   0.632   8.270 -0.8089 -0.2624 -0.7947
  826MOL0     H 8986   4.553   0.802   7.915  0.5456 -2.3782 -1.3013
  826MOL0     H 8987   4.427   0.731   8.009 -0.4645  0.8483 -1.3372
  826MOL0     H 8988   4.538   0.527   7.881  3.0219 -0.4964 -2.7366
  826MOL0     H 8989   4.580   0.531   8.054  1.8180  3.9083  2.5625
  826MOL0     H 8990   4.779   0.637   7.989 -0.6974  0.9979 -0.4523
  826MOL0     H 8991   4.762   0.472   7.917 -3.7063 -1.0358  0.9532
  826MOL0     H 8992   4.770   0.755   7.807  1.1194 -1.3154  1.2934
  826MOL0     H 8993   4.720   0.606   7.693  2.0143 -6.6337  0.6203
  826MOL0     H 8994   5.141   0.537   7.677  0.2142 -1.4994 -2.2286
  826MOL0     H 8995   5.251   0.606   7.471 -0.4009 -2.0908  1.1537
  826MOL0     H 8996   5.303   0.748   7.047  1.0264  2.9795  2.1538
  826MOL0     H 8997   5.330   0.769   6.789 -0.3338 -0.6587  0.0331
  826MOL0     H 8998   5.366   0.937   6.500  0.6139  1.5220 -0.8118
  826MOL0     H 8999   5.408   0.927   6.662  2.3403 -0.0411 -1.1488
  826MOL0     H 9000   5.442   1.159   6.574 -0.6520  0.9628  2.4098
  826MOL0     H 9001   5.323   1.164   6.709 -0.2997  0.0395  0.6150
  826MOL0     H 9002   5.136   1.188   6.535 -1.0025  0.2770 -0.6694
  826MOL0     H 9003   5.257   1.159   6.404 -0.9192 -0.3561  1.1207
  826MOL0     H 9004   5.362   1.368   6.504 -0.1142 -0.1595 -1.8378
  826MOL0     H 9005   5.202   1.389   6.426 -1.7337 -0.9474 -0.0091
  826MOL0     H 9006   5.236   1.524   6.618 -0.8519  0.0839 -2.2424
  826MOL0     H 9007   5.230   1.381   6.719  0.4802  3.7172  1.7699
  826MOL0     H 9008   5.002   1.357   6.709 -0.2952  0.5025 -0.4298
  826MOL0     H 9009   4.987   1.397   6.540  1.1065  1.3598 -1.3423
  826MOL0     H 9010   5.041   1.634   6.613 -0.6481  0.3761 -0.6638
  826MOL0     H 9011   4.878   1.584   6.640  0.5449  0.0945 -0.8295
  826MOL0     H 9012   4.999   1.709   6.831  1.2544  0.3679 -3.4916
  826MOL0     H 9013   5.127   1.587   6.830  0.1265 -0.4789  0.2022
  826MOL0     H 9014   5.041   1.081   6.804 -1.6172 -1.2480  0.6855
  826MOL0     H 9015   4.994   1.057   7.026 -0.8633 -1.4436  0.5715
  826MOL0     H 9016   4.944   0.929   7.408 -1.2207  1.4097  1.6320
  826MOL0     H 9017   4.808   0.802   7.588 -1.0678 -3.0615  1.6811
  826MOL0     H 9018   4.759   0.359   9.348 -1.3701  0.0990 -1.0953
  826MOL0     H 9019   4.780   0.205   9.538 -0.2925 -0.7345 -0.6600
  826MOL0     H 9020   4.699  -0.000   9.877  0.9967  2.7869  0.0422
  826MOL0     H 9021   4.746  -0.188  10.051  2.1790  0.2635  1.3345
  826MOL0     H 9022   4.904  -0.365  10.308  0.3657 -1.2213 -2.3031
  826MOL0     H 9023   4.779  -0.323  10.197 -1.9324 -1.3340  1.0953
  826MOL0     H 9024   4.803  -0.169  10.451  1.7938 -3.7063 -0.7107
  826MOL0     H 9025   4.672  -0.154  10.318 -3.9366 -4.1396 -1.2868
  826MOL0     H 9026   4.575  -0.261  10.522  0.7388  0.8439  0.9882
  826MOL0     H 9027   4.695  -0.390  10.497 -1.9389 -0.8536  0.5341
  826MOL0     H 9028   4.601  -0.405  10.252 -1.6473 -0.1471 -0.3872
  826MOL0     H 9029   4.527  -0.477  10.399 -0.3938 -0.4674 -0.3504
  826MOL0     H 9030   4.261  -0.156  10.306 -0.9046 -1.5745 -1.8470
  826MOL0     H 9031   5.047   0.041  10.217  0.8118 -0.3985 -0.6738
  826MOL0     H 9032   5.008   0.235  10.052  0.8314 -0.1327 -1.3547
  827MOL0     O 9033   6.600   8.369   0.222  0.0227 -0.3506 -0.3174
  827MOL0     C 9034   6.724   8.343   0.224  0.1282 -0.0386  0.7885
  827MOL0     O 9035   6.802   8.310   0.337 -0.7397 -0.3526  0.5903
  827MOL0     C 9036   6.745   8.276   0.451  0.2358  0.4248  0.2594
  827MOL0     C 9037   6.636   8.190   0.459 -1.0414  0.3712 -0.6211
  827MOL0     C 9038   6.594   8.150   0.589  0.2131  0.3774  0.4254
  827MOL0     C 9039   6.647   8.189   0.704 -0.3908 -0.6851 -0.4506
  827MOL0     O 9040   6.601   8.134   0.818 -0.8897  0.4386 -0.0695
  827MOL0     C 9041   6.574   8.212   0.926 -0.3450  1.3393  0.1192
  827MOL0     C 9042   6.444   8.292   0.918  0.0504 -0.2410 -0.2318
  827MOL0     C 9043   6.320   8.235   0.852 -1.2807 -0.6194  0.5652
  827MOL0     C 9044   6.276   8.104   0.923 -1.2898 -0.6087  0.6430
  827MOL0     C 9045   6.173   8.034   0.823 -0.0261 -0.1742  1.2658
  827MOL0     C 9046   6.226   7.966   0.690 -0.0279  0.5942 -0.1919
  827MOL0     C 9047   6.115   7.908   0.607 -0.8042  0.8874 -0.6578
  827MOL0     C 9048   6.185   7.829   0.495 -1.3503  0.6886 -0.0052
  827MOL0     N 9049   6.265   7.901   0.399  0.7234 -0.6856  0.0818
  827MOL0     C 9050   6.228   7.980   0.293  0.0239 -0.5167  0.0802
  827MOL0     C 9051   6.343   7.985   0.219  0.1810  0.4494  0.5103
  827MOL0     C 9052   6.360   8.079   0.102  0.0621 -0.3370 -0.8647
  827MOL0     C 9053   6.315   8.002  -0.022 -1.1248 -0.2144 -0.0929
  827MOL0     C 9054   6.317   8.074  -0.154  0.1183  0.0104  0.1550
  827MOL0     C 9055   6.330   7.979  -0.267 -0.0994  0.1315 -0.0200
  827MOL0     O 9056   6.238   7.863  -0.275  0.5483 -1.1295  0.5747
  827MOL0     C 9057   6.282   7.750  -0.342 -0.2704 -0.4978  0.5842
  827MOL0     C 9058   6.191   7.648  -0.334  1.2308 -0.4865  0.6552
  827MOL0     C 9059   6.228   7.515  -0.376  0.2737  0.5437 -0.0546
  827MOL0     C 9060   6.350   7.494  -0.432  0.2120  0.3939  0.0455
  827MOL0     C 9061   6.400   7.355  -0.468 -0.7907  0.3088 -0.2359
  827MOL0     O 9062   6.474   7.348  -0.576 -0.4876  0.3158 -0.1770
  827MOL0     C 9063   6.508   7.221  -0.631  0.6995 -0.7148 -0.1410
  827MOL0     C 9064   6.449   7.171  -0.752 -0.4698 -1.5444 -0.2944
  827MOL0     C 9065   6.504   7.066  -0.814 -0.9029  0.2524  1.1173
  827MOL0     C 9066   6.591   6.976  -0.745 -0.6848  0.0991 -0.0150
  827MOL0     O 9067   6.644   6.875  -0.830 -0.2455  0.1451  0.7088
  827MOL0     C 9068   6.625   6.746  -0.784  0.0382  0.3362 -0.3879
  827MOL0     C 9069   6.488   6.691  -0.844 -0.3583 -0.1597 -1.0708
  827MOL0     C 9070   6.484   6.663  -1.000 -0.2425 -0.3874  1.1284
  827MOL0     C 9071   6.458   6.788  -1.074  1.0917  0.5303  0.0228
  827MOL0     C 9072   6.467   6.776  -1.225  0.6188 -0.3130 -0.1086
  827MOL0     C 9073   6.344   6.709  -1.294  0.0114  0.6257 -0.1243
  827MOL0     C 9074   6.349   6.720  -1.450 -1.1174 -0.5798 -0.6296
  827MOL0     C 9075   6.259   6.837  -1.500  0.0316  0.5212 -0.9342
  827MOL0    Cl 9076   6.293   6.867  -1.671 -0.0179 -0.2366  0.1668
  827MOL0     C 9077   6.650   7.019  -0.621  0.3531  0.1090 -1.5611
  827MOL0     C 9078   6.601   7.139  -0.564  0.1779  0.1240  0.4921
  827MOL0     O 9079   6.370   7.257  -0.398 -0.2526  0.1812 -0.5768
  827MOL0     C 9080   6.441   7.603  -0.454  0.9443  0.6211 -0.3963
  827MOL0     C 9081   6.408   7.730  -0.409  0.3626 -0.2311  0.4181
  827MOL0     N 9082   6.451   7.920   0.276  0.1318  0.0684  0.1969
  827MOL0     N 9083   6.398   7.867   0.381 -0.2919 -0.6017  0.3874
  827MOL0     C 9084   6.755   8.270   0.700 -0.2771 -0.3176 -0.4302
  827MOL0     C 9085   6.808   8.318   0.572  0.1427 -0.4229 -0.4977
  827MOL0     C 9086   6.793   8.367   0.096 -0.5544  0.7723 -0.7093
  827MOL0     C 9087   6.903   8.452   0.087 -0.1129 -0.3835 -0.0015
  827MOL0     C 9088   6.985   8.470  -0.031  0.1911  0.3920 -0.1326
  827MOL0     C 9089   6.936   8.407  -0.142 -0.1761 -0.2618 -0.3977
  827MOL0     O 9090   6.983   8.432  -0.269  0.4561 -0.5527  0.1698
  827MOL0     C 9091   7.120   8.412  -0.310 -0.9517 -0.0500  0.3935
  827MOL0     C 9092   7.140   8.428  -0.462  0.5219 -0.2998  0.5087
  827MOL0     C 9093   7.120   8.287  -0.533 -0.5473 -0.5276 -0.6499
  827MOL0     C 9094   7.109   8.284  -0.690  0.9049  0.0783  0.1538
  827MOL0     C 9095   7.011   8.380  -0.746 -0.7057  0.0903  0.9021
  827MOL0     C 9096   6.935   8.460  -0.798 -0.9949 -0.3452  0.6963
  827MOL0     C 9097   6.818   8.325  -0.133 -0.2364 -0.3705  0.6105
  827MOL0     C 9098   6.749   8.301  -0.020 -0.1026 -0.4364 -0.3401
  827MOL0     H 9099   6.581   8.155   0.372  2.9715  1.1290 -3.7370
  827MOL0     H 9100   6.507   8.090   0.611  1.0000 -0.5659  1.0033
  827MOL0     H 9101   6.653   8.286   0.944 -0.5100  2.5767 -3.4573
  827MOL0     H 9102   6.565   8.142   1.010 -1.2329 -0.3923 -1.3438
  827MOL0     H 9103   6.477   8.385   0.871 -0.9793 -0.9451 -2.5015
  827MOL0     H 9104   6.416   8.322   1.020 -1.3727 -3.3268  0.4309
  827MOL0     H 9105   6.342   8.228   0.745 -1.4911  0.5234  0.4420
  827MOL0     H 9106   6.246   8.315   0.846  0.5446  1.1016  0.2332
  827MOL0     H 9107   6.363   8.042   0.944 -0.8269 -0.2704 -0.2070
  827MOL0     H 9108   6.231   8.114   1.022  3.2731  3.9864  2.7152
  827MOL0     H 9109   6.108   8.120   0.801 -0.8414 -1.1748 -0.5136
  827MOL0     H 9110   6.106   7.966   0.875 -1.9515  0.7538  0.0955
  827MOL0     H 9111   6.305   7.894   0.714  0.2778  1.6597  2.3072
  827MOL0     H 9112   6.281   8.039   0.630 -0.2378  1.8462  1.0939
  827MOL0     H 9113   6.061   7.834   0.667 -0.4126  0.7780 -0.4443
  827MOL0     H 9114   6.040   7.983   0.577 -1.3396  0.0330 -1.5173
  827MOL0     H 9115   6.118   7.771   0.430  1.8764 -0.4878 -2.6184
  827MOL0     H 9116   6.244   7.755   0.549 -3.3687 -0.1242  1.1978
  827MOL0     H 9117   6.135   8.030   0.267 -1.2568 -2.7255  0.1767
  827MOL0     H 9118   6.468   8.093   0.102  0.5190 -2.9743 -2.8416
  827MOL0     H 9119   6.316   8.179   0.109  1.7062  0.2746  1.6136
  827MOL0     H 9120   6.218   7.952  -0.012 -2.9317  3.1723  1.1047
  827MOL0     H 9121   6.397   7.931  -0.031  0.3223  1.2613  0.8726
  827MOL0     H 9122   6.219   8.124  -0.160  0.3244  0.8426  2.5668
  827MOL0     H 9123   6.396   8.150  -0.155 -0.1563  0.3085 -1.1937
  827MOL0     H 9124   6.434   7.943  -0.265 -0.2708 -0.4384 -0.9026
  827MOL0     H 9125   6.332   8.030  -0.363  0.8066  0.7074  0.2882
  827MOL0     H 9126   6.095   7.667  -0.288  2.3358  0.5734  2.6904
  827MOL0     H 9127   6.158   7.433  -0.362  2.3578 -1.8530 -2.5241
  827MOL0     H 9128   6.366   7.225  -0.797 -0.8948 -3.3002 -1.7322
  827MOL0     H 9129   6.475   7.060  -0.918 -0.5829  0.3919  1.0183
  827MOL0     H 9130   6.617   6.738  -0.675 -0.7362 -2.6371 -0.5557
  827MOL0     H 9131   6.700   6.674  -0.820  1.2059 -0.2379  2.8926
  827MOL0     H 9132   6.410   6.762  -0.813  0.8543  0.6012  0.4212
  827MOL0     H 9133   6.462   6.596  -0.797  1.5631 -0.1882  0.0308
  827MOL0     H 9134   6.407   6.589  -1.020  0.7677 -0.8294 -1.5087
  827MOL0     H 9135   6.582   6.626  -1.032 -0.5743  0.5843 -1.2312
  827MOL0     H 9136   6.362   6.833  -1.047  0.4838  0.6800 -2.2045
  827MOL0     H 9137   6.546   6.848  -1.052  1.8015  0.3392 -2.0744
  827MOL0     H 9138   6.557   6.719  -1.247  0.1323 -0.6490 -1.2928
  827MOL0     H 9139   6.479   6.876  -1.267 -0.7236  0.9038  2.1782
  827MOL0     H 9140   6.252   6.749  -1.249 -0.9957  0.1579 -1.6907
  827MOL0     H 9141   6.341   6.602  -1.272 -1.2641  0.0313 -2.8331
  827MOL0     H 9142   6.449   6.741  -1.489 -0.4754  1.8422  1.9788
  827MOL0     H 9143   6.307   6.625  -1.485 -1.1554 -3.0076  4.8978
  827MOL0     H 9144   6.273   6.932  -1.448  0.9400  1.3719 -2.6582
  827MOL0     H 9145   6.154   6.806  -1.487  0.0082  0.7366 -0.6024
  827MOL0     H 9146   6.721   6.953  -0.571  1.6178  2.4327 -0.0638
  827MOL0     H 9147   6.655   7.171  -0.475 -0.5845  3.5302 -0.1633
  827MOL0     H 9148   6.537   7.586  -0.501 -0.5241 -2.9039 -2.5350
  827MOL0     H 9149   6.473   7.817  -0.418 -3.8708  3.2070  0.1618
  827MOL0     H 9150   6.787   8.311   0.796 -0.5725 -2.0620  0.4544
  827MOL0     H 9151   6.894   8.384   0.578 -1.0965  1.2767 -0.7863
  827MOL0     H 9152   6.931   8.502   0.180 -2.1450 -0.1600  0.5258
  827MOL0     H 9153   7.080   8.519  -0.043  0.6346 -0.1231  1.0416
  827MOL0     H 9154   7.147   8.314  -0.271  2.1869  0.6473  0.2509
  827MOL0     H 9155   7.178   8.483  -0.251 -0.0099  0.3901 -1.0152
  827MOL0     H 9156   7.073   8.501  -0.509  2.7297  1.2053 -0.4976
  827MOL0     H 9157   7.245   8.450  -0.484  1.2676 -0.4153  3.5860
  827MOL0     H 9158   7.024   8.250  -0.499 -0.8669  0.8249 -0.0122
  827MOL0     H 9159   7.198   8.217  -0.501 -0.6419  0.0856  1.0248
  827MOL0     H 9160   7.204   8.311  -0.736  0.8466 -0.5667 -0.3468
  827MOL0     H 9161   7.073   8.189  -0.729 -0.7971  0.8707 -0.3205
  827MOL0     H 9162   6.854   8.513  -0.843  0.4770 -0.0181 -1.7240
  827MOL0     H 9163   6.789   8.289  -0.232 -1.4151 -2.6213  1.6882
  827MOL0     H 9164   6.665   8.234  -0.035  1.9834 -3.1285 -0.8617
  828MOL0     O 9165  11.107   3.607   4.488  0.5843  0.7733  0.2647
  828MOL0     C 9166  11.131   3.515   4.559  0.5081  0.6444 -0.3301
  828MOL0     O 9167  11.176   3.522   4.690  0.6917  0.5014 -0.2614
  828MOL0     C 9168  11.187   3.641   4.752 -0.0070  1.1360 -0.3858
  828MOL0     C 9169  11.303   3.673   4.830  0.3305 -0.0334 -0.3594
  828MOL0     C 9170  11.320   3.797   4.900 -0.2131 -0.4450 -0.2178
  828MOL0     C 9171  11.205   3.885   4.900 -0.1864  0.4234  0.2398
  828MOL0     O 9172  11.191   3.985   4.989 -0.1574 -0.2723 -0.5506
  828MOL0     C 9173  11.306   4.048   5.036 -0.7224 -0.1064 -0.4285
  828MOL0     C 9174  11.285   4.162   5.130 -0.5474 -0.5594  0.0355
  828MOL0     C 9175  11.208   4.119   5.259  0.5993 -0.2029  0.4440
  828MOL0     C 9176  11.162   4.241   5.346 -0.1715 -0.4877  0.9579
  828MOL0     C 9177  11.078   4.192   5.463 -0.1745 -0.5028 -0.6845
  828MOL0     C 9178  11.085   4.290   5.583  0.0098  0.5265  0.3798
  828MOL0     C 9179  11.001   4.241   5.693 -0.2736  0.0768 -0.0813
  828MOL0     C 9180  10.952   4.338   5.801  0.2721 -0.3724 -0.1376
  828MOL0     N 9181  10.878   4.267   5.912  0.1885  0.2228 -0.4471
  828MOL0     C 9182  10.776   4.311   5.991  1.2077 -0.4156  0.7389
  828MOL0     C 9183  10.766   4.228   6.090  0.7409  0.1268 -0.2894
  828MOL0     C 9184  10.665   4.217   6.209 -1.1833 -0.9576 -0.4327
  828MOL0     C 9185  10.731   4.239   6.347  0.1367 -0.2260  0.5168
  828MOL0     C 9186  10.830   4.140   6.389  0.2765  0.3953  0.0561
  828MOL0     C 9187  10.748   4.012   6.416  0.2638  0.1581  0.5711
  828MOL0     O 9188  10.797   3.932   6.518  0.6029 -1.0471  0.0291
  828MOL0     C 9189  10.733   3.829   6.582 -0.0900  0.0084 -0.1602
  828MOL0     C 9190  10.623   3.758   6.518 -0.3477 -0.6493  0.1076
  828MOL0     C 9191  10.564   3.648   6.572  0.2678  0.0691  0.2284
  828MOL0     C 9192  10.611   3.597   6.701  0.6695 -0.1180  0.8114
  828MOL0     C 9193  10.556   3.482   6.767  0.3179  0.2159 -0.0389
  828MOL0     O 9194  10.625   3.439   6.878 -0.4611  0.4431 -0.2266
  828MOL0     C 9195  10.583   3.320   6.940  0.2874 -0.9441  0.8670
  828MOL0     C 9196  10.660   3.215   6.956 -0.2078 -0.3743 -0.1546
  828MOL0     C 9197  10.615   3.102   7.025  0.4454  0.0289 -0.1532
  828MOL0     C 9198  10.484   3.099   7.070 -0.2530  0.6463  1.0056
  828MOL0     O 9199  10.441   2.990   7.146  0.7929  0.2985 -0.4268
  828MOL0     C 9200  10.466   2.857   7.101  0.6305  0.0498  0.2681
  828MOL0     C 9201  10.369   2.752   7.150 -0.2995  0.1033 -0.9838
  828MOL0     C 9202  10.367   2.744   7.299  0.0763 -0.1926  0.1473
  828MOL0     C 9203  10.304   2.616   7.360  0.2279  1.0879  0.4234
  828MOL0     C 9204  10.396   2.498   7.355  0.3254  0.5876  0.5237
  828MOL0     C 9205  10.341   2.374   7.433 -0.9258  0.0966  0.0855
  828MOL0     C 9206  10.298   2.410   7.571  0.2856 -0.6728  0.5871
  828MOL0     C 9207  10.283   2.296   7.665  0.5200  0.1994 -0.9592
  828MOL0    Cl 9208  10.165   2.173   7.618  0.2797  0.2336  0.0589
  828MOL0     C 9209  10.400   3.201   7.055 -1.5039  0.2421 -0.3484
  828MOL0     C 9210  10.450   3.310   6.984 -0.0445 -0.4710 -0.3383
  828MOL0     O 9211  10.448   3.442   6.715 -0.6259  0.7620  0.2016
  828MOL0     C 9212  10.708   3.671   6.767 -0.2397 -0.5030 -0.0169
  828MOL0     C 9213  10.775   3.781   6.706 -0.6923  0.7861  0.3704
  828MOL0     N 9214  10.866   4.139   6.081  0.3014 -0.5031  0.1352
  828MOL0     N 9215  10.933   4.168   5.978  0.0923  0.4854 -0.0145
  828MOL0     C 9216  11.088   3.841   4.830 -0.6058  0.0403  0.6404
  828MOL0     C 9217  11.079   3.720   4.761  0.6423  0.4746 -0.4217
  828MOL0     C 9218  11.105   3.380   4.509  0.9364  1.1106 -0.3404
  828MOL0     C 9219  11.117   3.276   4.611  0.0405  0.9898 -0.6198
  828MOL0     C 9220  11.122   3.140   4.580 -0.6589 -0.5432  0.0421
  828MOL0     C 9221  11.108   3.096   4.449  0.8989 -0.9075 -0.0873
  828MOL0     O 9222  11.102   2.965   4.413  0.2368 -0.9284  0.6499
  828MOL0     C 9223  11.180   2.871   4.490  0.7133  0.2625  0.4796
  828MOL0     C 9224  11.179   2.734   4.414 -0.6393  0.3792 -1.4417
  828MOL0     C 9225  11.271   2.736   4.286 -0.3561  0.5389 -0.9627
  828MOL0     C 9226  11.188   2.766   4.168 -0.8605 -0.8104  0.3729
  828MOL0     C 9227  11.269   2.784   4.045 -0.0748  0.1840 -0.4468
  828MOL0     C 9228  11.333   2.794   3.943  0.1867 -1.2658  0.6710
  828MOL0     C 9229  11.087   3.201   4.352 -0.4722 -0.6337 -0.4297
  828MOL0     C 9230  11.085   3.337   4.385  0.3911 -0.0836 -0.2357
  828MOL0     H 9231  11.394   3.614   4.841  0.0454 -0.3589  0.2694
  828MOL0     H 9232  11.407   3.821   4.959  1.9858  2.0213 -4.0419
  828MOL0     H 9233  11.377   4.081   4.960  0.7121 -1.1783  0.3853
  828MOL0     H 9234  11.370   3.984   5.099  1.7626  2.3428 -0.2593
  828MOL0     H 9235  11.225   4.245   5.092 -2.3612  1.0156  5.3306
  828MOL0     H 9236  11.380   4.209   5.153 -1.5140  1.8763 -0.6849
  828MOL0     H 9237  11.259   4.047   5.324  1.7833 -1.2631 -1.5544
  828MOL0     H 9238  11.121   4.062   5.227  0.0264  1.8603 -2.0411
  828MOL0     H 9239  11.260   4.277   5.378  0.9331 -3.6207  1.4771
  828MOL0     H 9240  11.102   4.301   5.277 -1.7778 -1.1988  1.6961
  828MOL0     H 9241  11.124   4.101   5.502  2.3475  1.1174  0.3982
  828MOL0     H 9242  10.976   4.167   5.434 -0.5279 -1.8074  1.5054
  828MOL0     H 9243  11.033   4.373   5.535 -2.4165 -0.5720  0.9785
  828MOL0     H 9244  11.179   4.326   5.625  1.2925  1.3885 -2.8720
  828MOL0     H 9245  10.910   4.190   5.660 -0.6928  1.1011 -0.5511
  828MOL0     H 9246  11.059   4.164   5.744 -1.2587  0.1005  1.1455
  828MOL0     H 9247  10.883   4.407   5.752 -2.2619 -1.5176  1.6020
  828MOL0     H 9248  11.037   4.398   5.834 -1.3532  2.6834 -1.1424
  828MOL0     H 9249  10.712   4.396   5.969  1.6501  0.0909  1.3750
  828MOL0     H 9250  10.606   4.124   6.205 -4.5386  1.0019 -3.8536
  828MOL0     H 9251  10.587   4.292   6.190  2.1719  2.3183 -2.8777
  828MOL0     H 9252  10.654   4.236   6.425 -2.2743 -2.1983 -1.7199
  828MOL0     H 9253  10.783   4.335   6.351  1.3521 -0.9216  2.5792
  828MOL0     H 9254  10.906   4.132   6.311  1.0610  1.2746  0.7135
  828MOL0     H 9255  10.884   4.176   6.477 -0.1209 -0.8148  0.8199
  828MOL0     H 9256  10.741   3.948   6.327  2.8262 -0.8553  1.0092
  828MOL0     H 9257  10.649   4.023   6.460  0.5371 -0.9130  1.5078
  828MOL0     H 9258  10.590   3.795   6.422  1.6702 -2.8175 -1.5266
  828MOL0     H 9259  10.479   3.603   6.521 -1.2155 -0.1031  2.6745
  828MOL0     H 9260  10.761   3.234   6.922  0.1648 -0.2399  0.9898
  828MOL0     H 9261  10.688   3.022   7.032  1.5806  1.0180 -0.4071
  828MOL0     H 9262  10.564   2.820   7.133 -0.0446  0.4510  3.1145
  828MOL0     H 9263  10.470   2.860   6.992 -0.0080  0.4008  0.2520
  828MOL0     H 9264  10.397   2.655   7.109 -1.2947 -0.6891  0.1540
  828MOL0     H 9265  10.272   2.779   7.107 -1.2613 -1.2822  0.2097
  828MOL0     H 9266  10.306   2.821   7.347  0.6410 -0.1888  0.8709
  828MOL0     H 9267  10.467   2.755   7.342  1.2488  1.3578 -2.7072
  828MOL0     H 9268  10.283   2.632   7.466  1.1301  0.3241  0.7360
  828MOL0     H 9269  10.207   2.607   7.311 -0.3805 -1.8454  1.9396
  828MOL0     H 9270  10.490   2.528   7.402  1.3823 -0.0468 -1.1053
  828MOL0     H 9271  10.433   2.463   7.258 -1.9310  0.3587 -0.2979
  828MOL0     H 9272  10.426   2.305   7.444 -3.1728 -2.7366  0.9309
  828MOL0     H 9273  10.256   2.333   7.378  0.7923 -3.0029 -0.4579
  828MOL0     H 9274  10.373   2.478   7.613 -1.3267  2.0735 -0.7287
  828MOL0     H 9275  10.204   2.465   7.573 -0.5491 -2.0685  1.0331
  828MOL0     H 9276  10.236   2.324   7.759 -3.4358 -3.0684 -1.6585
  828MOL0     H 9277  10.377   2.242   7.674 -0.3617 -1.2323  0.1636
  828MOL0     H 9278  10.300   3.197   7.096 -1.4498  2.6735  0.2176
  828MOL0     H 9279  10.377   3.387   6.963  0.6230 -0.2834 -2.2027
  828MOL0     H 9280  10.742   3.628   6.861  1.6652 -5.6739 -2.6309
  828MOL0     H 9281  10.856   3.831   6.758 -0.6778 -2.2432  3.6287
  828MOL0     H 9282  11.000   3.903   4.848 -1.1365 -0.0287 -1.5157
  828MOL0     H 9283  10.984   3.689   4.718 -0.8053 -0.7656  3.1946
  828MOL0     H 9284  11.122   3.299   4.717  0.9490  1.3003 -0.7177
  828MOL0     H 9285  11.156   3.068   4.654  0.0117 -0.0862  0.1969
  828MOL0     H 9286  11.146   2.863   4.594 -1.2551  2.6354  0.1074
  828MOL0     H 9287  11.283   2.908   4.496  0.6026  0.4465  1.3594
  828MOL0     H 9288  11.223   2.664   4.486 -0.4810 -0.3723 -2.2448
  828MOL0     H 9289  11.077   2.695   4.403 -1.6778  2.3190  0.5638
  828MOL0     H 9290  11.311   2.637   4.262 -1.1434  0.1464 -0.6811
  828MOL0     H 9291  11.349   2.812   4.297 -1.5380  1.8626 -1.5147
  828MOL0     H 9292  11.119   2.683   4.150  0.5342 -1.6807 -1.1856
  828MOL0     H 9293  11.133   2.859   4.182  2.3312  1.1409  1.0001
  828MOL0     H 9294  11.387   2.793   3.851 -1.3006 -4.4118 -0.3231
  828MOL0     H 9295  11.077   3.168   4.249  0.6958 -0.3500 -0.6519
  828MOL0     H 9296  11.072   3.412   4.307 -1.1415 -0.0553  0.0115
  829MOL0     O 9297   8.529   8.176   0.842 -0.0437  0.7723  0.2866
  829MOL0     C 9298   8.437   8.123   0.891  0.3167 -0.1019 -0.2652
  829MOL0     O 9299   8.370   8.182   0.990  0.3993 -0.0493 -0.3734
  829MOL0     C 9300   8.411   8.310   1.026  0.2922  0.9273  0.0668
  829MOL0     C 9301   8.506   8.333   1.132  0.9810  0.4946 -0.0249
  829MOL0     C 9302   8.541   8.456   1.168 -0.4450  0.6273  1.1936
  829MOL0     C 9303   8.505   8.573   1.092 -0.2671  0.2193 -1.0681
  829MOL0     O 9304   8.571   8.692   1.078  0.0910  0.4213  0.3641
  829MOL0     C 9305   8.659   8.724   1.188 -0.9307 -0.9312  1.4782
  829MOL0     C 9306   8.705   8.870   1.186 -1.1465  0.6072 -0.9196
  829MOL0     C 9307   8.602   8.986   1.187 -0.6412 -0.4363  0.4999
  829MOL0     C 9308   8.673   9.110   1.236 -0.1163 -1.3564 -0.3807
  829MOL0     C 9309   8.591   9.224   1.181  0.1072  0.1446 -0.1990
  829MOL0     C 9310   8.650   9.367   1.207  0.0665 -0.0409  0.3636
  829MOL0     C 9311   8.709   9.372   1.352  0.2157  0.3973 -0.0044
  829MOL0     C 9312   8.742   9.520   1.392 -0.5627  0.3532 -0.0474
  829MOL0     N 9313   8.872   9.567   1.351 -0.2668  0.1996  0.2044
  829MOL0     C 9314   8.901   9.592   1.219 -0.0549  0.0118 -0.0631
  829MOL0     C 9315   9.036   9.641   1.216  0.0807 -0.2898 -1.1762
  829MOL0     C 9316   9.105   9.698   1.094  0.1161  0.1474  0.5770
  829MOL0     C 9317   9.252   9.760   1.115 -0.2717 -0.0412  0.5639
  829MOL0     C 9318   9.256   9.919   1.112  0.2179 -0.0371 -0.2901
  829MOL0     C 9319   9.217   9.984   0.979 -0.1963  0.3070  0.5553
  829MOL0     O 9320   9.210  10.126   0.981  0.0702  0.4160 -0.3703
  829MOL0     C 9321   9.117  10.192   1.062 -0.1302 -0.1423 -0.2062
  829MOL0     C 9322   9.121  10.326   1.110  0.5330 -0.3127  0.2576
  829MOL0     C 9323   9.021  10.396   1.177  0.5804 -0.3941 -0.8516
  829MOL0     C 9324   8.917  10.313   1.234 -0.2873 -0.2207  0.5801
  829MOL0     C 9325   8.813  10.361   1.334 -0.3282  0.5658 -0.6689
  829MOL0     O 9326   8.869  10.432   1.443  0.2149  0.5006 -0.3524
  829MOL0     C 9327   8.789  10.452   1.555  0.0570  0.3692  0.1466
  829MOL0     C 9328   8.819  10.375   1.670  0.3076  0.5387  0.0160
  829MOL0     C 9329   8.776  10.414   1.790 -0.0638  0.0001 -0.9951
  829MOL0     C 9330   8.689  10.522   1.808 -0.5441  0.5205  0.3868
  829MOL0     O 9331   8.646  10.552   1.932 -0.2841 -0.0181  0.0395
  829MOL0     C 9332   8.741  10.627   2.011  0.2182  0.2149 -0.2906
  829MOL0     C 9333   8.801  10.749   1.942 -1.1666 -0.2298  0.2082
  829MOL0     C 9334   8.835  10.853   2.043  0.9000  0.0434 -0.2339
  829MOL0     C 9335   8.934  10.966   1.997 -0.7973  0.9311  0.7719
  829MOL0     C 9336   8.949  11.083   2.099 -0.2454  0.5070 -0.4606
  829MOL0     C 9337   9.090  11.151   2.064  0.1126  0.8746 -0.3801
  829MOL0     C 9338   9.110  11.273   2.154  0.4947 -0.6118 -0.0583
  829MOL0     C 9339   9.179  11.390   2.087  0.3605 -0.5791  0.1530
  829MOL0    Cl 9340   9.086  11.439   1.936  0.1198 -0.9481  0.3975
  829MOL0     C 9341   8.653  10.594   1.689  0.0253  0.3711  0.8842
  829MOL0     C 9342   8.703  10.561   1.565  0.2107 -0.5604 -0.5232
  829MOL0     O 9343   8.701  10.308   1.325  0.4522  0.5723  0.0552
  829MOL0     C 9344   8.913  10.177   1.193 -0.2834  0.1709 -0.1032
  829MOL0     C 9345   9.008  10.116   1.111  1.0483  0.7317  0.4265
  829MOL0     N 9346   9.089   9.626   1.353 -0.0646  0.5555 -0.2105
  829MOL0     N 9347   8.984   9.599   1.418  0.6444 -0.2938 -0.1586
  829MOL0     C 9348   8.401   8.559   1.000  1.1700  0.0631  0.3543
  829MOL0     C 9349   8.356   8.417   0.969 -0.5082 -0.2193 -0.3270
  829MOL0     C 9350   8.378   7.996   0.835  0.0872 -0.9617 -0.5273
  829MOL0     C 9351   8.249   7.949   0.873  0.1565  0.4497 -0.6824
  829MOL0     C 9352   8.191   7.838   0.804  0.5864 -0.1655 -0.3808
  829MOL0     C 9353   8.256   7.772   0.703  0.6219 -0.2424 -0.0795
  829MOL0     O 9354   8.212   7.654   0.650 -0.4137  0.0068 -0.0208
  829MOL0     C 9355   8.080   7.601   0.683 -0.2366  0.0094  0.4290
  829MOL0     C 9356   8.043   7.502   0.573  0.5272 -0.7423 -0.1450
  829MOL0     C 9357   8.136   7.387   0.570 -0.6452  0.3805  0.6648
  829MOL0     C 9358   8.118   7.294   0.697 -0.1478  0.7624 -0.6777
  829MOL0     C 9359   7.983   7.226   0.710 -0.1290 -0.6030 -0.6124
  829MOL0     C 9360   7.880   7.176   0.733 -0.5244 -0.1803 -0.7541
  829MOL0     C 9361   8.389   7.810   0.678  1.5704  0.0196  0.5003
  829MOL0     C 9362   8.448   7.926   0.736 -0.6370 -0.2708 -0.7920
  829MOL0     H 9363   8.545   8.240   1.171  1.1025 -0.5123 -2.3724
  829MOL0     H 9364   8.619   8.460   1.243  1.4076  0.7117 -0.6522
  829MOL0     H 9365   8.744   8.657   1.181 -3.1387 -3.7229 -1.8214
  829MOL0     H 9366   8.605   8.714   1.283 -0.1236  1.3083  2.2550
  829MOL0     H 9367   8.776   8.883   1.104  2.4983 -0.7697  1.6982
  829MOL0     H 9368   8.771   8.878   1.274 -0.2527  0.9769 -1.6064
  829MOL0     H 9369   8.530   8.959   1.266 -0.2550 -0.2482  0.9222
  829MOL0     H 9370   8.553   8.999   1.090  0.2366  3.1470  0.4301
  829MOL0     H 9371   8.693   9.104   1.343  2.9683  0.0053 -0.7849
  829MOL0     H 9372   8.768   9.118   1.181 -0.4834 -1.3506 -1.0266
  829MOL0     H 9373   8.489   9.215   1.218  0.9723  1.3875  2.7711
  829MOL0     H 9374   8.590   9.216   1.072  0.3434 -1.1059 -0.1251
  829MOL0     H 9375   8.569   9.440   1.202 -0.9311 -0.9846  1.8697
  829MOL0     H 9376   8.730   9.365   1.133  0.0169 -2.7432  0.2801
  829MOL0     H 9377   8.629   9.353   1.424  1.7637 -1.0087  1.4133
  829MOL0     H 9378   8.783   9.293   1.367 -1.2852 -1.2065 -0.6388
  829MOL0     H 9379   8.715   9.534   1.497 -3.5349 -1.1540 -0.5005
  829MOL0     H 9380   8.679   9.594   1.343 -2.0289 -0.1964  0.9468
  829MOL0     H 9381   8.828   9.593   1.138  0.8670 -1.2323 -0.9522
  829MOL0     H 9382   9.038   9.781   1.069 -1.5740 -0.9047  1.4301
  829MOL0     H 9383   9.103   9.633   1.006 -1.4775 -0.5835  1.1100
  829MOL0     H 9384   9.322   9.735   1.035 -0.5765  2.1527 -0.4773
  829MOL0     H 9385   9.294   9.723   1.209 -0.1237  2.0549  1.3809
  829MOL0     H 9386   9.190   9.961   1.189 -0.8023  1.2419 -1.8024
  829MOL0     H 9387   9.356   9.957   1.137  1.1374 -1.9722 -0.8493
  829MOL0     H 9388   9.137   9.944   0.916  2.2718 -0.1051 -2.5615
  829MOL0     H 9389   9.309   9.964   0.923  0.4583 -0.4694  1.8709
  829MOL0     H 9390   9.197  10.400   1.088  0.2025 -0.1264 -0.2735
  829MOL0     H 9391   9.046  10.496   1.210 -0.7233  0.1136 -1.3856
  829MOL0     H 9392   8.880  10.286   1.655 -1.4357 -0.4969 -1.3102
  829MOL0     H 9393   8.790  10.354   1.880 -2.6571 -2.0464 -1.8057
  829MOL0     H 9394   8.819  10.558   2.045  0.0247  1.0129  1.9375
  829MOL0     H 9395   8.679  10.661   2.095 -0.2851  1.5436 -1.1708
  829MOL0     H 9396   8.731  10.798   1.873  0.3445 -2.1659 -2.9526
  829MOL0     H 9397   8.890  10.723   1.883 -2.2575 -1.0128 -1.1452
  829MOL0     H 9398   8.875  10.804   2.132  0.6152 -1.6108 -0.9666
  829MOL0     H 9399   8.741  10.896   2.078  1.7234 -1.1640  3.9625
  829MOL0     H 9400   9.027  10.913   1.971 -1.4648  1.0429 -2.2032
  829MOL0     H 9401   8.904  11.004   1.899  1.8339  3.2574  0.7417
  829MOL0     H 9402   8.954  11.049   2.203 -1.9244 -0.7189 -0.7419
  829MOL0     H 9403   8.865  11.150   2.081 -0.4885  0.1579 -0.6389
  829MOL0     H 9404   9.078  11.184   1.961  3.8650  3.5700 -0.1561
  829MOL0     H 9405   9.177  11.085   2.068  0.2092  1.0043 -0.3205
  829MOL0     H 9406   9.020  11.318   2.197  1.0873  1.0941 -0.5325
  829MOL0     H 9407   9.179  11.242   2.233  2.9685 -2.4490 -2.7547
  829MOL0     H 9408   9.272  11.342   2.054 -1.5030 -3.0882 -1.7959
  829MOL0     H 9409   9.203  11.479   2.146 -5.5352  1.9498 -0.5700
  829MOL0     H 9410   8.592  10.684   1.685  1.4292  1.3019 -1.9552
  829MOL0     H 9411   8.703  10.629   1.480  2.2700  1.3531  0.9096
  829MOL0     H 9412   8.818  10.124   1.206 -1.6267  2.4540 -0.1065
  829MOL0     H 9413   8.982  10.017   1.076 -1.1572  1.8469 -1.2955
  829MOL0     H 9414   8.375   8.647   0.942  4.7117  2.9029  2.5973
  829MOL0     H 9415   8.289   8.403   0.885 -0.6747  0.6412 -0.3456
  829MOL0     H 9416   8.186   8.001   0.944  1.8669  1.7660 -0.0755
  829MOL0     H 9417   8.087   7.819   0.832 -0.0559 -0.1782 -2.5887
  829MOL0     H 9418   8.013   7.688   0.684  2.0459  2.3333 -5.2919
  829MOL0     H 9419   8.074   7.548   0.778 -2.2992 -2.6911 -1.0534
  829MOL0     H 9420   7.939   7.472   0.585 -0.2561  2.0810  0.8765
  829MOL0     H 9421   8.020   7.559   0.483  0.3696  1.3792  1.1558
  829MOL0     H 9422   8.240   7.420   0.557  0.4801 -2.8735  0.5084
  829MOL0     H 9423   8.114   7.323   0.485  1.3029  0.6949 -0.1216
  829MOL0     H 9424   8.189   7.211   0.683  0.5506  1.3039 -0.4174
  829MOL0     H 9425   8.129   7.352   0.789  1.1368 -0.5579  0.0429
  829MOL0     H 9426   7.784   7.134   0.750 -0.2999 -0.5496 -0.3805
  829MOL0     H 9427   8.434   7.764   0.591  0.2997 -1.6878  0.6881
  829MOL0     H 9428   8.543   7.963   0.701  0.4746 -2.3455 -0.1835
  830MOL0     O 9429   9.675   2.329   8.301  0.3257  1.0999  0.0679
  830MOL0     C 9430   9.779   2.325   8.364  0.2107 -0.5353 -1.1882
  830MOL0     O 9431   9.794   2.283   8.499 -0.0936 -0.3633  0.5668
  830MOL0     C 9432   9.682   2.265   8.573  0.2950 -0.2828 -0.1181
  830MOL0     C 9433   9.571   2.350   8.582  0.4650 -0.5026  0.2699
  830MOL0     C 9434   9.453   2.325   8.654  0.7267 -0.0990 -0.0624
  830MOL0     C 9435   9.455   2.201   8.725  0.1261 -0.7129 -0.8703
  830MOL0     O 9436   9.348   2.129   8.769  0.1084 -0.3010  0.9018
  830MOL0     C 9437   9.231   2.205   8.797  0.5617  0.3915  0.1802
  830MOL0     C 9438   9.106   2.107   8.803 -0.3860  0.2020 -0.2252
  830MOL0     C 9439   8.992   2.175   8.881 -0.4267 -1.6324  0.2462
  830MOL0     C 9440   8.866   2.088   8.885  0.3021 -0.5616 -1.1638
  830MOL0     C 9441   8.762   2.138   8.993 -0.3395 -0.1265  0.1873
  830MOL0     C 9442   8.657   2.018   9.010 -0.3473 -0.3484  0.6124
  830MOL0     C 9443   8.565   2.063   9.113  0.0698  0.0353 -0.5778
  830MOL0     C 9444   8.471   1.945   9.161 -0.0861  0.2373  0.8755
  830MOL0     N 9445   8.389   1.977   9.281  0.1071 -0.4667  0.2924
  830MOL0     C 9446   8.279   1.897   9.307  1.1115 -0.5708 -0.3845
  830MOL0     C 9447   8.244   1.950   9.425 -0.5479  0.0024  0.0437
  830MOL0     C 9448   8.117   1.901   9.507  0.4672  0.3399  0.3132
  830MOL0     C 9449   8.128   1.747   9.527  0.2514  0.8638  0.2083
  830MOL0     C 9450   8.028   1.671   9.449 -0.6678  0.1573 -0.2188
  830MOL0     C 9451   8.041   1.518   9.474 -1.2843 -0.0238  0.7521
  830MOL0     O 9452   8.014   1.482   9.611  0.7991 -0.1925  0.4948
  830MOL0     C 9453   8.031   1.353   9.653 -0.1523  1.0840 -0.0701
  830MOL0     C 9454   8.081   1.244   9.579 -0.3849  0.1871  0.8867
  830MOL0     C 9455   8.061   1.116   9.624  0.9029 -0.0911  0.3647
  830MOL0     C 9456   7.973   1.094   9.728  0.0999 -0.0583  0.7089
  830MOL0     C 9457   7.936   0.955   9.768  0.7518 -0.2964 -0.4093
  830MOL0     O 9458   7.830   0.949   9.855  0.1505  0.2078  0.7087
  830MOL0     C 9459   7.806   0.830   9.921 -0.1676 -0.1017 -0.1007
  830MOL0     C 9460   7.815   0.702   9.867 -1.0669  0.3806  0.1197
  830MOL0     C 9461   7.797   0.590   9.954 -0.0324  0.0772 -0.1917
  830MOL0     C 9462   7.766   0.601  10.089 -0.7124 -0.7696  0.5588
  830MOL0     O 9463   7.740   0.497  10.173 -0.4761  0.4257 -0.7561
  830MOL0     C 9464   7.841   0.389  10.171  0.5234  0.1715 -0.1191
  830MOL0     C 9465   7.780   0.273  10.257  0.6475 -0.0689 -0.1700
  830MOL0     C 9466   7.639   0.232  10.221  0.2922 -0.6135 -1.4003
  830MOL0     C 9467   7.583   0.116  10.309 -0.7474 -0.1157  0.0974
  830MOL0     C 9468   7.438   0.097  10.288  0.8381  0.4754  0.7101
  830MOL0     C 9469   7.379  -0.006  10.390  0.5834 -0.6314 -0.8354
  830MOL0     C 9470   7.227  -0.017  10.378 -0.3080  0.7306  0.4107
  830MOL0     C 9471   7.187  -0.142  10.471 -0.2249 -0.2458 -0.0810
  830MOL0    Cl 9472   7.015  -0.177  10.444  0.1817 -0.1229  0.1680
  830MOL0     C 9473   7.766   0.727  10.139 -0.9747 -0.7592  0.3360
  830MOL0     C 9474   7.785   0.845  10.062  0.8421 -0.7919  0.9571
  830MOL0     O 9475   7.995   0.863   9.722 -0.2392  1.4923  0.5586
  830MOL0     C 9476   7.913   1.193   9.805 -0.3234 -0.0753 -0.2071
  830MOL0     C 9477   7.950   1.326   9.769  0.3550  0.8325 -0.0149
  830MOL0     N 9478   8.334   2.044   9.472  0.0481  0.6188  0.0312
  830MOL0     N 9479   8.425   2.062   9.382 -0.6493  0.5795 -0.3885
  830MOL0     C 9480   9.571   2.131   8.742 -0.6627 -0.6434  1.3761
  830MOL0     C 9481   9.691   2.156   8.667  0.0208 -0.9821 -0.1579
  830MOL0     C 9482   9.906   2.377   8.309  0.2710 -0.2615  0.5765
  830MOL0     C 9483   9.995   2.449   8.384  0.0134 -0.2156 -0.4099
  830MOL0     C 9484  10.105   2.517   8.323 -0.6514  0.2916  0.1074
  830MOL0     C 9485  10.119   2.504   8.182  0.3420 -0.3795 -0.2111
  830MOL0     O 9486  10.232   2.555   8.117 -0.4410  0.1272  0.6989
  830MOL0     C 9487  10.321   2.645   8.186 -1.0635 -0.2409 -0.3541
  830MOL0     C 9488  10.454   2.671   8.111  0.7867 -0.2426 -1.7120
  830MOL0     C 9489  10.445   2.776   7.999 -0.7532 -0.5855 -0.0775
  830MOL0     C 9490  10.352   2.723   7.887  0.4284 -0.1424  0.7028
  830MOL0     C 9491  10.383   2.806   7.776  0.6979 -0.9358  0.6474
  830MOL0     C 9492  10.400   2.897   7.699 -0.3211  0.2970 -0.4142
  830MOL0     C 9493  10.027   2.424   8.107  0.3226 -0.2847 -0.2898
  830MOL0     C 9494   9.924   2.370   8.172 -0.4946 -0.1194  0.2153
  830MOL0     H 9495   9.573   2.437   8.518 -0.9561 -0.9069 -0.3677
  830MOL0     H 9496   9.370   2.395   8.651 -0.8043 -1.7622  1.0148
  830MOL0     H 9497   9.202   2.276   8.718  2.9255  2.2120  0.8485
  830MOL0     H 9498   9.240   2.256   8.893 -0.0678 -3.2112  2.3584
  830MOL0     H 9499   9.147   2.027   8.866  0.9254  0.9097 -0.1420
  830MOL0     H 9500   9.073   2.078   8.702  1.0927 -0.4881 -0.5506
  830MOL0     H 9501   8.960   2.262   8.825 -1.3093 -1.7786  0.5079
  830MOL0     H 9502   9.029   2.201   8.981  2.2257 -0.0584 -1.0570
  830MOL0     H 9503   8.827   2.081   8.783  1.6658  4.2802 -2.2542
  830MOL0     H 9504   8.889   1.986   8.918 -0.3915  0.2471  2.0971
  830MOL0     H 9505   8.712   2.230   8.964  0.8420  0.6327  0.4577
  830MOL0     H 9506   8.815   2.154   9.088  0.0336  1.6442 -0.2926
  830MOL0     H 9507   8.714   1.930   9.042  1.8205  1.5194  2.2311
  830MOL0     H 9508   8.610   1.998   8.913 -1.7185 -0.2915  1.2444
  830MOL0     H 9509   8.616   2.100   9.203 -2.6959  2.4825  0.1464
  830MOL0     H 9510   8.501   2.146   9.082 -1.0233  0.0331  1.4837
  830MOL0     H 9511   8.530   1.862   9.202 -1.5242 -1.6550 -0.6597
  830MOL0     H 9512   8.401   1.915   9.082  0.9209  0.5113 -0.1408
  830MOL0     H 9513   8.234   1.810   9.261  2.2279 -0.9692 -0.7638
  830MOL0     H 9514   8.030   1.928   9.447 -1.0826 -0.2632  2.1897
  830MOL0     H 9515   8.123   1.953   9.603  4.2359  3.1488 -1.1551
  830MOL0     H 9516   8.110   1.731   9.634 -1.3627  1.5282  0.0644
  830MOL0     H 9517   8.231   1.717   9.505 -0.3200 -0.4818 -0.7317
  830MOL0     H 9518   7.929   1.707   9.479 -0.2354  1.0675  0.1555
  830MOL0     H 9519   8.043   1.688   9.342  0.3294 -1.9594 -0.4660
  830MOL0     H 9520   8.144   1.484   9.456 -0.6609  1.8098  0.6370
  830MOL0     H 9521   7.984   1.466   9.397  1.7317  1.0156 -2.4650
  830MOL0     H 9522   8.142   1.268   9.492 -1.3935 -2.3108 -0.5994
  830MOL0     H 9523   8.101   1.034   9.565  1.5074 -0.3837  1.1630
  830MOL0     H 9524   7.819   0.679   9.761  0.1266 -0.1481  0.2628
  830MOL0     H 9525   7.769   0.492   9.918  0.4420  0.8170 -2.7455
  830MOL0     H 9526   7.943   0.407  10.208 -0.3897 -1.3067  3.5955
  830MOL0     H 9527   7.848   0.346  10.071 -1.2387 -0.1704 -0.1216
  830MOL0     H 9528   7.795   0.288  10.364  2.8670  0.0478 -0.4542
  830MOL0     H 9529   7.845   0.186  10.242 -1.0284 -1.4001 -0.0742
  830MOL0     H 9530   7.626   0.196  10.118 -3.0547  0.2975 -1.4050
  830MOL0     H 9531   7.570   0.316  10.237  1.4071 -0.1651  1.8670
  830MOL0     H 9532   7.636   0.030  10.269 -0.1568  0.4004 -0.2544
  830MOL0     H 9533   7.619   0.125  10.412  0.5632  3.5231 -0.5151
  830MOL0     H 9534   7.431   0.050  10.189  1.3003 -0.3066  1.0323
  830MOL0     H 9535   7.391   0.195  10.290  3.6216  1.9413 -0.5234
  830MOL0     H 9536   7.403   0.012  10.495  0.3595 -1.4994 -0.6304
  830MOL0     H 9537   7.434  -0.100  10.377  1.7721  0.2817 -2.9860
  830MOL0     H 9538   7.187   0.080  10.407 -2.4403  0.0287 -0.0072
  830MOL0     H 9539   7.184  -0.022  10.277 -1.8477 -1.6833  1.1013
  830MOL0     H 9540   7.196  -0.104  10.573 -2.1211  0.5010 -0.1560
  830MOL0     H 9541   7.246  -0.230  10.441  0.1854 -1.1918  3.1395
  830MOL0     H 9542   7.732   0.735  10.242  0.1267  1.6167  0.5869
  830MOL0     H 9543   7.757   0.943  10.100  0.0328 -2.0168  3.8380
  830MOL0     H 9544   7.849   1.181   9.892  1.2052 -2.8901  0.6602
  830MOL0     H 9545   7.914   1.410   9.826 -2.1879  0.3808 -0.8433
  830MOL0     H 9546   9.574   2.040   8.801  0.7527 -1.8411 -0.4457
  830MOL0     H 9547   9.784   2.104   8.687 -0.0367 -1.4338 -1.0228
  830MOL0     H 9548   9.977   2.441   8.491 -0.0027  1.3113 -0.2847
  830MOL0     H 9549  10.180   2.566   8.384  2.1209 -2.4119 -0.8556
  830MOL0     H 9550  10.356   2.612   8.285 -2.9281 -1.7612 -0.1439
  830MOL0     H 9551  10.265   2.738   8.201 -0.7644  0.2288 -2.0185
  830MOL0     H 9552  10.527   2.702   8.187 -3.1741 -0.4428  2.6330
  830MOL0     H 9553  10.483   2.578   8.062  0.2825 -1.1660 -0.3218
  830MOL0     H 9554  10.546   2.805   7.971 -1.0830  0.1538 -0.5310
  830MOL0     H 9555  10.401   2.868   8.038  0.9074 -0.5562  1.8508
  830MOL0     H 9556  10.381   2.621   7.861  4.5621  1.3249 -1.3779
  830MOL0     H 9557  10.245   2.731   7.906  0.7002  2.6821  1.5312
  830MOL0     H 9558  10.393   2.985   7.638 -0.4120  1.3220  1.0239
  830MOL0     H 9559  10.041   2.427   8.000 -1.5790 -0.4129 -0.5845
  830MOL0     H 9560   9.866   2.312   8.102  1.7402 -2.7130  0.3295
  831MOL0     O 9561   6.711   8.263   3.379  0.1431  0.6517  0.3956
  831MOL0     C 9562   6.635   8.355   3.357 -0.9059  0.6247 -0.1553
  831MOL0     O 9563   6.501   8.349   3.396 -0.4132 -0.2186  0.6719
  831MOL0     C 9564   6.463   8.239   3.473 -0.0818 -0.1739  0.1591
  831MOL0     C 9565   6.401   8.128   3.420 -0.2204 -0.4524  0.5240
  831MOL0     C 9566   6.347   8.023   3.495 -0.0762 -0.3019  0.6012
  831MOL0     C 9567   6.370   8.026   3.628  0.4534  0.3447  0.5343
  831MOL0     O 9568   6.318   7.928   3.706  0.3358  0.7337  0.5777
  831MOL0     C 9569   6.174   7.912   3.704  0.3261 -0.1220  0.9465
  831MOL0     C 9570   6.139   7.776   3.771 -0.9912 -0.0712  0.2643
  831MOL0     C 9571   5.996   7.773   3.816 -0.4934 -0.4170 -0.0058
  831MOL0     C 9572   5.985   7.736   3.953  0.1583  1.0595  0.1126
  831MOL0     C 9573   6.027   7.592   3.970  0.8088  0.8191  0.7992
  831MOL0     C 9574   5.939   7.494   3.884  0.4753  0.6980  0.6395
  831MOL0     C 9575   5.939   7.349   3.942 -0.4144 -0.9384 -0.6993
  831MOL0     C 9576   6.090   7.303   3.940 -0.0514  0.4985  0.6331
  831MOL0     N 9577   6.096   7.160   3.920 -0.0533  0.0598  0.4132
  831MOL0     C 9578   6.088   7.066   4.011 -0.5153  1.3412  0.0131
  831MOL0     C 9579   6.079   6.950   3.942  0.4896 -0.3911  0.0426
  831MOL0     C 9580   6.049   6.820   4.004  0.6043 -0.3857  0.3745
  831MOL0     C 9581   6.133   6.775   4.124  0.6830  0.3040  0.4467
  831MOL0     C 9582   6.271   6.740   4.075  0.5042 -0.8011  0.7303
  831MOL0     C 9583   6.363   6.703   4.186  0.0899  0.2002  0.4228
  831MOL0     O 9584   6.367   6.814   4.278  0.4080 -0.6149 -0.0228
  831MOL0     C 9585   6.485   6.886   4.272 -1.0353 -0.0115 -0.3918
  831MOL0     C 9586   6.510   6.965   4.392 -0.5676  0.3872  0.8650
  831MOL0     C 9587   6.621   7.043   4.403 -0.4413  0.1452 -0.0369
  831MOL0     C 9588   6.706   7.060   4.295  0.5697 -0.4242 -0.2562
  831MOL0     C 9589   6.838   7.134   4.306 -0.4016 -0.3578  0.0754
  831MOL0     O 9590   6.918   7.150   4.197 -0.1799  0.2745 -0.3482
  831MOL0     C 9591   7.023   7.236   4.206  0.1819 -0.4672  1.0543
  831MOL0     C 9592   7.135   7.211   4.131  0.5596  0.3416 -0.3692
  831MOL0     C 9593   7.246   7.303   4.131  0.6045 -0.0398  0.0939
  831MOL0     C 9594   7.223   7.428   4.189  0.4774 -0.7709 -0.0450
  831MOL0     O 9595   7.304   7.534   4.200 -0.1159 -0.0323  0.0878
  831MOL0     C 9596   7.342   7.596   4.084 -1.2644  0.0949  1.0708
  831MOL0     C 9597   7.231   7.696   4.048 -0.3322 -0.7815  0.5048
  831MOL0     C 9598   7.125   7.637   3.950 -0.5979  0.2590 -1.0690
  831MOL0     C 9599   7.185   7.577   3.825  1.3482  0.0772  0.5085
  831MOL0     C 9600   7.085   7.571   3.712  0.6612  0.0189  0.7172
  831MOL0     C 9601   6.957   7.490   3.755  0.5834  0.5808  0.3339
  831MOL0     C 9602   6.982   7.354   3.809 -0.1242 -0.3878 -0.3821
  831MOL0     C 9603   6.987   7.257   3.706  0.1557 -0.3356  1.0286
  831MOL0    Cl 9604   7.063   7.102   3.770 -0.1204  0.3987 -0.1904
  831MOL0     C 9605   7.112   7.449   4.275 -0.7383 -0.0104 -0.0704
  831MOL0     C 9606   7.020   7.352   4.286  0.3000 -0.0612  0.0801
  831MOL0     O 9607   6.860   7.171   4.427  0.2373 -0.9908 -0.2288
  831MOL0     C 9608   6.677   6.999   4.179  0.0054  0.3750  0.4253
  831MOL0     C 9609   6.572   6.912   4.165 -0.1608  0.2609 -1.4214
  831MOL0     N 9610   6.085   6.971   3.803  0.1556 -1.1703 -0.7318
  831MOL0     N 9611   6.096   7.099   3.795  0.5108  0.5407  0.1491
  831MOL0     C 9612   6.433   8.131   3.682  1.1250  0.3318 -0.5804
  831MOL0     C 9613   6.476   8.243   3.608 -0.2580  0.3957  0.3093
  831MOL0     C 9614   6.686   8.460   3.265  0.1243  0.3444  0.5376
  831MOL0     C 9615   6.798   8.430   3.179  0.1693  0.0386  0.0603
  831MOL0     C 9616   6.849   8.523   3.089 -0.4334  1.2467  0.2718
  831MOL0     C 9617   6.796   8.651   3.085  0.2253  0.1955 -0.3805
  831MOL0     O 9618   6.849   8.744   3.000  0.1324  0.5004 -0.5648
  831MOL0     C 9619   6.793   8.871   2.974  0.4291  0.5368  0.6498
  831MOL0     C 9620   6.704   8.877   2.854 -0.3600 -0.1789 -0.5852
  831MOL0     C 9621   6.588   8.780   2.853  0.2291  0.2128  0.4794
  831MOL0     C 9622   6.626   8.666   2.755  0.6486  0.5979 -0.1386
  831MOL0     C 9623   6.618   8.712   2.618  0.7673  0.1674  0.2160
  831MOL0     C 9624   6.608   8.746   2.501  0.2291  0.4967  0.3385
  831MOL0     C 9625   6.692   8.681   3.175  0.6065 -0.7277  0.3166
  831MOL0     C 9626   6.629   8.588   3.260  0.4630 -0.6531  0.5139
  831MOL0     H 9627   6.393   8.115   3.312 -0.6486 -0.5156  0.5620
  831MOL0     H 9628   6.289   7.947   3.444 -1.5952 -0.5775  2.6048
  831MOL0     H 9629   6.124   7.942   3.612 -2.0878 -1.7656  1.6385
  831MOL0     H 9630   6.145   7.995   3.770  1.3800  1.9966 -1.0858
  831MOL0     H 9631   6.211   7.759   3.851  0.6286  1.3396 -0.8195
  831MOL0     H 9632   6.159   7.696   3.699 -1.3161  1.0743 -1.1721
  831MOL0     H 9633   5.934   7.707   3.754 -0.2971 -0.6588  0.0581
  831MOL0     H 9634   5.955   7.874   3.803  2.2892  0.9022  0.6594
  831MOL0     H 9635   6.041   7.793   4.028  1.4944 -1.8945  1.5574
  831MOL0     H 9636   5.879   7.745   3.978  0.0936 -0.4876  0.5057
  831MOL0     H 9637   6.016   7.560   4.074 -0.3042 -1.6160  0.0127
  831MOL0     H 9638   6.133   7.575   3.947  1.1283  0.4714  2.3628
  831MOL0     H 9639   5.971   7.485   3.779 -3.2414  1.6799 -0.7589
  831MOL0     H 9640   5.833   7.522   3.875  0.4651  0.0608 -2.7961
  831MOL0     H 9641   5.894   7.348   4.042  0.1042 -0.4329 -0.4571
  831MOL0     H 9642   5.878   7.287   3.875 -1.9529  0.5180 -0.7290
  831MOL0     H 9643   6.145   7.318   4.034  2.5646 -1.0542 -0.5172
  831MOL0     H 9644   6.140   7.357   3.859  1.8413  0.4161  1.6745
  831MOL0     H 9645   6.066   7.077   4.116  0.4923  0.0854  0.3838
  831MOL0     H 9646   6.047   6.741   3.929  2.7390 -0.1912  0.0706
  831MOL0     H 9647   5.941   6.831   4.022 -0.1083  1.1258 -3.7847
  831MOL0     H 9648   6.074   6.689   4.157 -1.4528  0.4618 -2.6211
  831MOL0     H 9649   6.131   6.846   4.207 -0.3732  0.8996 -0.0831
  831MOL0     H 9650   6.264   6.653   4.009 -2.5716  0.5513 -0.9267
  831MOL0     H 9651   6.313   6.814   4.007 -1.4236 -0.7312 -0.4566
  831MOL0     H 9652   6.462   6.689   4.142 -0.2063  0.8450 -0.4750
  831MOL0     H 9653   6.338   6.610   4.239  1.4150 -1.0232 -1.0002
  831MOL0     H 9654   6.450   6.952   4.482  0.1592 -2.4397  1.0436
  831MOL0     H 9655   6.650   7.092   4.496 -3.3226  1.9709  0.0324
  831MOL0     H 9656   7.139   7.115   4.082  0.2780 -0.5345  1.2472
  831MOL0     H 9657   7.337   7.262   4.088  0.2154 -0.2517 -0.5415
  831MOL0     H 9658   7.366   7.527   4.002 -0.4866  2.9842 -1.3310
  831MOL0     H 9659   7.432   7.656   4.100 -0.6060  0.8242 -3.7747
  831MOL0     H 9660   7.279   7.786   4.007 -1.9049  0.6833  1.7173
  831MOL0     H 9661   7.175   7.718   4.139  1.4028 -0.1747  1.4597
  831MOL0     H 9662   7.050   7.711   3.920 -0.6462  0.4173 -0.5633
  831MOL0     H 9663   7.080   7.547   3.993  0.8451 -0.5738 -1.2323
  831MOL0     H 9664   7.253   7.658   3.795 -0.6771  1.4071 -0.7281
  831MOL0     H 9665   7.241   7.485   3.843  2.0475  0.5175  0.6234
  831MOL0     H 9666   7.137   7.526   3.627 -0.3973  1.5883 -0.8510
  831MOL0     H 9667   7.068   7.673   3.674  2.4718  0.6226  1.4170
  831MOL0     H 9668   6.889   7.471   3.671  2.7619 -0.9524 -1.1662
  831MOL0     H 9669   6.900   7.546   3.830 -1.0082  1.9153 -1.7423
  831MOL0     H 9670   7.077   7.353   3.864 -1.2561  0.2155  1.6732
  831MOL0     H 9671   6.913   7.322   3.888 -1.7510  2.4515 -0.5139
  831MOL0     H 9672   7.043   7.295   3.620  0.0969 -0.5850  0.8782
  831MOL0     H 9673   6.883   7.250   3.674  0.9591  0.0990 -2.0613
  831MOL0     H 9674   7.101   7.543   4.326  1.2131  1.4119 -2.0848
  831MOL0     H 9675   6.935   7.374   4.349  0.6205 -2.4920  1.4882
  831MOL0     H 9676   6.753   7.010   4.103  1.0513  0.4577  1.4528
  831MOL0     H 9677   6.543   6.880   4.065 -2.0105 -0.5564 -0.6775
  831MOL0     H 9678   6.457   8.135   3.788 -1.7320  0.7783  0.1444
  831MOL0     H 9679   6.526   8.322   3.662  0.4835  2.4970 -3.1168
  831MOL0     H 9680   6.836   8.329   3.186  0.1771  0.0255 -0.1807
  831MOL0     H 9681   6.941   8.501   3.037  0.4117 -1.8464  2.7659
  831MOL0     H 9682   6.865   8.951   2.955 -2.4791  2.7101 -2.6115
  831MOL0     H 9683   6.725   8.926   3.040 -0.8180  2.0012 -1.6919
  831MOL0     H 9684   6.662   8.978   2.855  1.1076  0.4600 -0.1879
  831MOL0     H 9685   6.771   8.870   2.767  0.1779 -2.2802 -0.0693
  831MOL0     H 9686   6.501   8.840   2.823 -1.1530 -2.7614 -1.9968
  831MOL0     H 9687   6.567   8.745   2.955 -0.4437  1.1013  0.6588
  831MOL0     H 9688   6.719   8.612   2.777 -0.0254 -1.3073 -1.7733
  831MOL0     H 9689   6.543   8.597   2.766  0.5764  0.5114 -1.1605
  831MOL0     H 9690   6.594   8.768   2.397  2.5071 -0.2283 -0.1584
  831MOL0     H 9691   6.659   8.784   3.177  0.3958 -0.5307 -3.8685
  831MOL0     H 9692   6.538   8.608   3.316 -0.4811 -0.1708 -1.1362
  832MOL0     O 9693   8.631   8.937   0.253 -0.4567 -0.9144  0.3044
  832MOL0     C 9694   8.625   8.813   0.257  0.7477 -0.4884  0.2059
  832MOL0     O 9695   8.578   8.737   0.360 -0.5565  0.2746  0.4805
  832MOL0     C 9696   8.510   8.794   0.460 -0.4703  0.1999 -0.5709
  832MOL0     C 9697   8.553   8.796   0.596  0.2822  0.6546 -0.2140
  832MOL0     C 9698   8.474   8.847   0.698  0.2317  0.4083  0.3387
  832MOL0     C 9699   8.340   8.888   0.666 -0.5280 -0.0079 -0.1948
  832MOL0     O 9700   8.248   8.941   0.762  0.1401  0.9753 -0.1688
  832MOL0     C 9701   8.106   8.907   0.741  0.0104 -0.6811  0.6022
  832MOL0     C 9702   8.027   8.931   0.867  0.2928  0.4398  0.1648
  832MOL0     C 9703   8.077   9.051   0.950  0.0780 -0.0512  1.1284
  832MOL0     C 9704   7.991   9.099   1.062  0.4631  0.2444 -0.3968
  832MOL0     C 9705   7.846   9.134   1.012  0.6318  0.1785 -0.4924
  832MOL0     C 9706   7.768   9.195   1.128 -0.2705 -0.6873  0.4912
  832MOL0     C 9707   7.623   9.231   1.066  0.3500 -0.1807  0.3135
  832MOL0     C 9708   7.518   9.116   1.053 -0.1990  0.2526 -0.7162
  832MOL0     N 9709   7.384   9.178   1.029 -0.6239  0.5124  0.0790
  832MOL0     C 9710   7.308   9.251   1.117  0.2518  0.3145 -0.2115
  832MOL0     C 9711   7.189   9.256   1.067 -0.6674  0.3764  1.0069
  832MOL0     C 9712   7.074   9.321   1.143 -0.3363  0.0644 -0.6438
  832MOL0     C 9713   6.988   9.214   1.209  0.8674 -0.4705  1.2431
  832MOL0     C 9714   6.928   9.134   1.106 -0.1247  0.1713  0.1986
  832MOL0     C 9715   6.823   9.033   1.164  0.9468 -0.5733 -0.2584
  832MOL0     O 9716   6.716   9.089   1.249  0.2430 -0.8561  0.0460
  832MOL0     C 9717   6.608   9.014   1.277 -0.2103  0.3712  0.1908
  832MOL0     C 9718   6.603   8.876   1.244 -0.2542  0.6077 -0.0146
  832MOL0     C 9719   6.479   8.799   1.260  0.5767  0.3738  0.1343
  832MOL0     C 9720   6.371   8.856   1.316  0.8707 -0.1197  0.3704
  832MOL0     C 9721   6.260   8.774   1.353  0.4059 -0.4915  0.5349
  832MOL0     O 9722   6.148   8.831   1.407  0.4827 -0.3388  0.1795
  832MOL0     C 9723   6.050   8.745   1.439 -0.5185  0.3712 -0.6219
  832MOL0     C 9724   5.949   8.708   1.350  0.1939 -0.1421  0.4228
  832MOL0     C 9725   5.844   8.629   1.390 -0.0236 -0.5138  0.0924
  832MOL0     C 9726   5.847   8.575   1.524  0.0637  0.9396  0.1470
  832MOL0     O 9727   5.754   8.477   1.550 -0.0858 -0.4462  0.4851
  832MOL0     C 9728   5.708   8.469   1.690  0.0875  0.2314 -0.5504
  832MOL0     C 9729   5.577   8.397   1.698 -0.2600 -1.4207  0.0416
  832MOL0     C 9730   5.528   8.362   1.839  0.3411 -0.6256 -0.2708
  832MOL0     C 9731   5.399   8.273   1.846 -1.0698 -0.6565  0.3773
  832MOL0     C 9732   5.434   8.125   1.814  0.0788  0.7334  1.0297
  832MOL0     C 9733   5.456   8.048   1.936 -0.8392 -0.4912  0.2483
  832MOL0     C 9734   5.508   7.911   1.920  0.2848  1.3023 -0.3866
  832MOL0     C 9735   5.437   7.816   2.018  0.9343 -0.2067 -0.0288
  832MOL0    Cl 9736   5.500   7.662   1.970  0.4515  0.1375  0.0213
  832MOL0     C 9737   5.946   8.620   1.615  0.0621  0.1207  0.1076
  832MOL0     C 9738   6.052   8.693   1.568  0.5453 -0.1202  0.1375
  832MOL0     O 9739   6.273   8.655   1.354 -0.6933 -0.7007  0.1758
  832MOL0     C 9740   6.372   8.999   1.329  0.7273  0.9288  0.4655
  832MOL0     C 9741   6.487   9.073   1.307 -0.8575  1.2428  0.6594
  832MOL0     N 9742   7.191   9.205   0.939  0.3712  0.9293  0.3370
  832MOL0     N 9743   7.308   9.177   0.907 -1.1253  0.0534 -0.5109
  832MOL0     C 9744   8.305   8.886   0.532  0.6909 -0.9516 -0.5447
  832MOL0     C 9745   8.389   8.841   0.432  0.3146 -0.6273  0.0794
  832MOL0     C 9746   8.684   8.747   0.135 -0.2929 -0.7427  0.2720
  832MOL0     C 9747   8.737   8.815   0.028  1.0297  0.1349  0.1061
  832MOL0     C 9748   8.806   8.754  -0.072  0.8999  0.6697 -0.3962
  832MOL0     C 9749   8.826   8.610  -0.084  0.1821 -0.0816  0.7868
  832MOL0     O 9750   8.883   8.546  -0.189 -0.2724  0.1288  0.0829
  832MOL0     C 9751   8.993   8.611  -0.263  0.2771 -0.9418 -0.5188
  832MOL0     C 9752   9.055   8.519  -0.369  0.5663 -0.9055 -0.2071
  832MOL0     C 9753   8.945   8.477  -0.466 -0.6768  0.6960 -0.3331
  832MOL0     C 9754   8.983   8.375  -0.568 -0.6200  0.4600  0.5865
  832MOL0     C 9755   8.893   8.383  -0.677  0.4996  0.0017 -0.7683
  832MOL0     C 9756   8.804   8.362  -0.754 -0.1951 -1.0049  0.8406
  832MOL0     C 9757   8.771   8.539   0.022  0.4191  0.0946 -0.1827
  832MOL0     C 9758   8.703   8.609   0.128  0.0902  1.3124  0.7137
  832MOL0     H 9759   8.655   8.773   0.626  0.2475  0.6148 -0.1272
  832MOL0     H 9760   8.517   8.839   0.797  0.5062 -3.9897  0.0266
  832MOL0     H 9761   8.083   8.813   0.690  0.7975  0.2389 -1.5703
  832MOL0     H 9762   8.070   8.971   0.660  2.7400  0.5585  0.2518
  832MOL0     H 9763   8.055   8.842   0.924  0.9820 -3.2124 -5.1540
  832MOL0     H 9764   7.922   8.922   0.838  0.9133 -0.9321 -1.9164
  832MOL0     H 9765   8.078   9.122   0.867 -4.3646 -1.5733 -0.5362
  832MOL0     H 9766   8.180   9.032   0.983  0.9567  1.7500 -0.4243
  832MOL0     H 9767   7.981   9.031   1.148 -1.3166  0.9711  0.0336
  832MOL0     H 9768   8.038   9.189   1.102 -0.2211  0.2881  0.3561
  832MOL0     H 9769   7.792   9.047   0.972 -1.7057  1.4687 -0.2803
  832MOL0     H 9770   7.853   9.202   0.927  1.8277  0.9317  0.1797
  832MOL0     H 9771   7.821   9.279   1.175  1.1528 -2.4165  2.1143
  832MOL0     H 9772   7.746   9.113   1.196 -0.0382 -0.3487  0.9796
  832MOL0     H 9773   7.584   9.311   1.130  2.4217 -0.2759  1.8095
  832MOL0     H 9774   7.639   9.273   0.966 -1.0875  2.2259  1.0133
  832MOL0     H 9775   7.523   9.050   1.140  1.6950  1.0954 -0.1287
  832MOL0     H 9776   7.544   9.046   0.973 -1.2802 -0.6757 -0.2797
  832MOL0     H 9777   7.332   9.282   1.218  1.6014  2.5864 -1.1767
  832MOL0     H 9778   6.999   9.381   1.090 -0.8208 -1.3703 -1.6327
  832MOL0     H 9779   7.123   9.388   1.214  0.0692  0.3068 -1.1417
  832MOL0     H 9780   6.901   9.256   1.259 -1.2594 -2.4218 -0.5874
  832MOL0     H 9781   7.039   9.136   1.266  1.0464 -0.8911  0.5159
  832MOL0     H 9782   6.882   9.211   1.044  2.1770  1.8599  0.4999
  832MOL0     H 9783   7.002   9.073   1.054 -1.2161 -0.6227 -0.4824
  832MOL0     H 9784   6.883   8.963   1.223  2.2748  1.4331  0.8922
  832MOL0     H 9785   6.769   8.977   1.087 -1.8126 -1.7865  2.3403
  832MOL0     H 9786   6.690   8.828   1.201  0.8684  1.5873  1.1023
  832MOL0     H 9787   6.472   8.697   1.224 -2.5182  0.4638  0.2063
  832MOL0     H 9788   5.942   8.756   1.253 -1.9923 -1.3434 -0.0869
  832MOL0     H 9789   5.770   8.587   1.322 -0.4829 -1.0977  0.9259
  832MOL0     H 9790   5.684   8.561   1.745 -2.7337 -0.7442  0.0171
  832MOL0     H 9791   5.786   8.417   1.746 -0.8750  1.4695  2.1080
  832MOL0     H 9792   5.572   8.299   1.650 -3.8964 -1.8919  1.0902
  832MOL0     H 9793   5.502   8.456   1.645 -1.8509 -1.8056  1.7572
  832MOL0     H 9794   5.496   8.448   1.898  1.5239 -0.0537 -0.4176
  832MOL0     H 9795   5.611   8.319   1.896  0.5253 -0.4992 -0.4414
  832MOL0     H 9796   5.350   8.282   1.943 -0.0918  2.8238  0.6593
  832MOL0     H 9797   5.314   8.301   1.783 -4.6718 -2.0179  4.2181
  832MOL0     H 9798   5.529   8.122   1.759 -0.7768  2.5232 -0.6873
  832MOL0     H 9799   5.355   8.072   1.759  1.0843  0.0186  0.2245
  832MOL0     H 9800   5.364   8.039   1.995 -1.2966 -3.3180 -0.7451
  832MOL0     H 9801   5.538   8.097   1.988 -1.0463  0.8949 -0.6834
  832MOL0     H 9802   5.496   7.880   1.816  1.7033 -1.5356  0.1999
  832MOL0     H 9803   5.613   7.892   1.944 -0.2001 -3.5409 -1.0587
  832MOL0     H 9804   5.328   7.818   2.004  0.4202 -6.1018  0.3423
  832MOL0     H 9805   5.469   7.819   2.123  2.9169 -2.9893 -0.4247
  832MOL0     H 9806   5.959   8.592   1.719  1.1548  2.9404  0.8334
  832MOL0     H 9807   6.130   8.735   1.629  1.1245 -0.8372 -0.0901
  832MOL0     H 9808   6.287   9.061   1.353 -0.0841  0.6586 -1.5206
  832MOL0     H 9809   6.496   9.181   1.318  1.1218  1.0458  1.2350
  832MOL0     H 9810   8.202   8.905   0.505  0.8179  0.1186 -0.3279
  832MOL0     H 9811   8.356   8.834   0.329  0.0472 -0.0633  0.1232
  832MOL0     H 9812   8.715   8.921   0.032 -0.4797 -0.1838  0.8875
  832MOL0     H 9813   8.838   8.829  -0.143  1.4150  1.3520  0.5288
  832MOL0     H 9814   9.070   8.659  -0.203  1.6012  0.9721 -3.5288
  832MOL0     H 9815   8.946   8.698  -0.310  0.8300 -1.0381 -1.2617
  832MOL0     H 9816   9.135   8.580  -0.413  0.1416  0.2758  0.6048
  832MOL0     H 9817   9.098   8.431  -0.321  0.6641  0.4198  2.2867
  832MOL0     H 9818   8.904   8.563  -0.520 -0.2416  0.1031 -1.6337
  832MOL0     H 9819   8.864   8.433  -0.406  0.4300 -2.1375 -0.7434
  832MOL0     H 9820   9.082   8.375  -0.614 -1.9534 -0.6742 -2.5974
  832MOL0     H 9821   8.967   8.276  -0.525 -1.6142 -1.0702 -2.9582
  832MOL0     H 9822   8.718   8.346  -0.816  0.5109  3.3940 -1.6919
  832MOL0     H 9823   8.794   8.433   0.017 -1.1469 -0.4087  1.8219
  832MOL0     H 9824   8.678   8.525   0.192  3.1145 -2.6982 -2.7134
  833MOL0     O 9825   3.118  10.526  10.764  0.2563 -0.3189 -0.3712
  833MOL0     C 9826   3.174  10.574  10.859  0.1069 -0.1839 -0.0746
  833MOL0     O 9827   3.307  10.608  10.866 -0.0949  0.0743 -0.1379
  833MOL0     C 9828   3.391  10.541  10.770  0.5883 -0.0895  0.3639
  833MOL0     C 9829   3.476  10.443  10.809 -0.4653  0.0505  0.3482
  833MOL0     C 9830   3.560  10.382  10.718 -0.2247 -0.2519 -0.1583
  833MOL0     C 9831   3.559  10.412  10.581 -0.1099 -0.6093  0.9092
  833MOL0     O 9832   3.649  10.364  10.488 -0.1023 -1.0383 -0.0184
  833MOL0     C 9833   3.781  10.317  10.529  0.9788 -1.1262  0.2011
  833MOL0     C 9834   3.887  10.335  10.418  0.4797 -0.0857 -0.5613
  833MOL0     C 9835   3.842  10.271  10.283  0.0425  0.9425 -0.1528
  833MOL0     C 9836   3.961  10.221  10.199  0.2543 -0.3077 -0.2241
  833MOL0     C 9837   4.047  10.348  10.165 -0.1918  0.6450  0.5510
  833MOL0     C 9838   4.166  10.306  10.081  0.6403 -0.4058 -0.2984
  833MOL0     C 9839   4.281  10.224  10.153  0.0240  0.8091  0.8127
  833MOL0     C 9840   4.342  10.298  10.272 -0.2947 -0.1650 -0.7914
  833MOL0     N 9841   4.401  10.435  10.264  0.3938  0.3198 -0.7687
  833MOL0     C 9842   4.477  10.485  10.159 -1.6961  0.1650  0.0280
  833MOL0     C 9843   4.514  10.604  10.204  0.3962 -0.1392 -0.8054
  833MOL0     C 9844   4.617  10.692  10.137  0.0922 -0.3257 -0.0909
  833MOL0     C 9845   4.552  10.808  10.063 -0.9684  0.1453 -0.4830
  833MOL0     C 9846   4.493  10.774   9.922 -1.0257  0.6804 -0.2251
  833MOL0     C 9847   4.528  10.885   9.818  0.1215 -0.1162 -0.1392
  833MOL0     O 9848   4.437  10.865   9.701  0.1928  0.2293 -0.0443
  833MOL0     C 9849   4.457  10.948   9.601 -0.2629 -0.1412 -0.0807
  833MOL0     C 9850   4.360  11.047   9.582 -0.1094 -1.6065  0.4202
  833MOL0     C 9851   4.360  11.141   9.478  0.3693  0.8695 -0.6416
  833MOL0     C 9852   4.446  11.112   9.373 -0.2549 -0.0307  1.2277
  833MOL0     C 9853   4.454  11.214   9.269  0.3024  0.0670  0.5615
  833MOL0     O 9854   4.360  11.311   9.248 -0.3821 -0.6458 -0.0521
  833MOL0     C 9855   4.390  11.419   9.169  0.0193 -0.0964 -0.6179
  833MOL0     C 9856   4.298  11.440   9.069  0.4457 -0.4038  0.4268
  833MOL0     C 9857   4.299  11.547   8.977  0.5837 -1.3367 -0.8587
  833MOL0     C 9858   4.388  11.658   9.004  0.4283 -0.6831 -0.0560
  833MOL0     O 9859   4.384  11.773   8.927 -0.1930  0.3269 -0.3583
  833MOL0     C 9860   4.283  11.784   8.825  0.5469  0.6104  0.2947
  833MOL0     C 9861   4.298  11.923   8.760 -0.8148 -0.9882 -0.1994
  833MOL0     C 9862   4.225  11.921   8.625 -0.0546  0.1967 -0.1909
  833MOL0     C 9863   4.274  12.021   8.528  0.0125  0.0846 -0.0816
  833MOL0     C 9864   4.177  12.062   8.416  0.0773 -0.8469  0.1213
  833MOL0     C 9865   4.155  11.937   8.325  0.3067  0.1672 -0.0768
  833MOL0     C 9866   4.266  11.895   8.227 -0.7378 -0.1453 -0.8837
  833MOL0     C 9867   4.238  11.792   8.119  0.4212 -0.3135  0.5799
  833MOL0    Cl 9868   4.069  11.800   8.048  0.3223 -0.0517 -0.0081
  833MOL0     C 9869   4.486  11.633   9.108  0.1915  0.4462  0.4723
  833MOL0     C 9870   4.484  11.516   9.190  0.2297  0.5535  0.0378
  833MOL0     O 9871   4.542  11.195   9.180 -0.0401 -0.7726 -0.3598
  833MOL0     C 9872   4.543  11.010   9.379 -0.1442 -0.3610  0.5771
  833MOL0     C 9873   4.549  10.930   9.501 -0.0730 -0.8921  0.5792
  833MOL0     N 9874   4.443  10.640  10.317 -0.8035  0.1929 -0.2872
  833MOL0     N 9875   4.390  10.526  10.365  0.0348 -0.9344  0.5134
  833MOL0     C 9876   3.469  10.505  10.539  0.7445 -0.6032  0.6021
  833MOL0     C 9877   3.389  10.570  10.631 -0.8662 -0.0423 -0.4004
  833MOL0     C 9878   3.074  10.630  10.953  0.0329  0.6187  0.9269
  833MOL0     C 9879   2.932  10.600  10.942  1.1893  0.0604 -0.0549
  833MOL0     C 9880   2.844  10.640  11.044 -0.4639  0.6512  0.4674
  833MOL0     C 9881   2.887  10.714  11.155  0.2759 -0.4817  0.1155
  833MOL0     O 9882   2.798  10.752  11.253  0.4214 -0.5622  0.4419
  833MOL0     C 9883   2.816  10.867  11.343  0.3507  0.0218  0.4896
  833MOL0     C 9884   2.903  10.815  11.467 -0.2756  0.7033  0.8059
  833MOL0     C 9885   2.992  10.909  11.559  0.1706 -0.3317  0.3746
  833MOL0     C 9886   3.064  10.836  11.666 -0.0767  0.3202 -0.0803
  833MOL0     C 9887   3.184  10.752  11.614 -0.1514 -0.5465 -0.3572
  833MOL0     C 9888   3.278  10.695  11.565 -0.0648  0.5138  0.3082
  833MOL0     C 9889   3.018  10.754  11.144  0.8095 -0.0976  0.2960
  833MOL0     C 9890   3.107  10.726  11.047  0.8524  1.0020 -0.5485
  833MOL0     H 9891   3.483  10.417  10.914  3.3166  2.2410  0.8200
  833MOL0     H 9892   3.632  10.313  10.762 -0.1092  0.1869  0.3607
  833MOL0     H 9893   3.777  10.210  10.552 -0.6223 -1.0948  0.1193
  833MOL0     H 9894   3.828  10.371  10.612  0.0607 -0.6016  0.3854
  833MOL0     H 9895   3.977  10.281  10.447 -0.9760 -2.4292 -0.1290
  833MOL0     H 9896   3.916  10.440  10.405 -1.4399  0.3376 -1.8736
  833MOL0     H 9897   3.767  10.328  10.227  0.7280  2.7446  0.6828
  833MOL0     H 9898   3.793  10.176  10.308  1.0692  0.8795  1.7958
  833MOL0     H 9899   4.027  10.155  10.255  0.6739  1.1085  0.9989
  833MOL0     H 9900   3.938  10.165  10.108  2.1881 -3.5025  1.0867
  833MOL0     H 9901   4.085  10.385  10.260 -0.8529  1.7213  0.4108
  833MOL0     H 9902   4.003  10.436  10.117  2.5388  2.6002  1.3611
  833MOL0     H 9903   4.226  10.395  10.061  0.8708 -0.4635  0.1180
  833MOL0     H 9904   4.130  10.267   9.985 -0.8767 -0.5760  0.3122
  833MOL0     H 9905   4.235  10.137  10.202 -0.7290 -0.2221 -1.5632
  833MOL0     H 9906   4.360  10.192  10.085 -0.8489  0.1016  0.0884
  833MOL0     H 9907   4.418  10.236  10.320 -0.4770 -0.3026 -0.6783
  833MOL0     H 9908   4.280  10.300  10.362  0.5956  0.6664 -0.1758
  833MOL0     H 9909   4.508  10.437  10.067  0.2466  3.8510 -1.4515
  833MOL0     H 9910   4.674  10.629  10.068  0.5934  1.0070 -0.9226
  833MOL0     H 9911   4.686  10.735  10.210  0.6622  0.2755 -0.9620
  833MOL0     H 9912   4.624  10.890  10.050  1.9380 -1.1369  4.7012
  833MOL0     H 9913   4.481  10.858  10.129  2.2249  4.4378  0.1289
  833MOL0     H 9914   4.543  10.689   9.875  0.6119  1.0210  0.7948
  833MOL0     H 9915   4.386  10.752   9.922 -0.7471 -0.7862 -1.3307
  833MOL0     H 9916   4.634  10.876   9.793  0.3230  0.1604  0.6023
  833MOL0     H 9917   4.509  10.986   9.856 -2.7863  0.5373 -2.8943
  833MOL0     H 9918   4.285  11.058   9.659 -1.9688  1.7432 -1.6283
  833MOL0     H 9919   4.285  11.220   9.481 -2.2725 -1.4934  2.3681
  833MOL0     H 9920   4.217  11.372   9.045 -0.2196  0.8928 -1.1863
  833MOL0     H 9921   4.226  11.546   8.898 -0.7653 -2.3729  0.3401
  833MOL0     H 9922   4.188  11.757   8.874  0.6651  0.2347  0.3230
  833MOL0     H 9923   4.296  11.708   8.747  2.2306  1.5364 -0.3562
  833MOL0     H 9924   4.402  11.951   8.744 -1.2436  1.1017  0.4135
  833MOL0     H 9925   4.253  11.992   8.832 -1.4923 -1.6882  0.0641
  833MOL0     H 9926   4.126  11.957   8.657  0.9054  0.6517  2.5439
  833MOL0     H 9927   4.225  11.820   8.584 -0.4865 -1.2914  3.1163
  833MOL0     H 9928   4.291  12.116   8.579  0.3095 -1.0929  2.1183
  833MOL0     H 9929   4.372  11.989   8.490 -0.8902  0.4914 -3.0444
  833MOL0     H 9930   4.225  12.142   8.359  1.4524 -1.8089 -0.1040
  833MOL0     H 9931   4.090  12.096   8.474  2.1768 -3.1615  5.2705
  833MOL0     H 9932   4.070  11.957   8.259 -0.7658 -3.0930  0.1685
  833MOL0     H 9933   4.124  11.858   8.393 -1.1305 -1.6861 -2.7370
  833MOL0     H 9934   4.306  11.972   8.161 -1.7739 -0.2063 -1.6124
  833MOL0     H 9935   4.343  11.854   8.293 -0.1691 -0.5368 -1.7673
  833MOL0     H 9936   4.243  11.694   8.167  2.2440 -1.2786 -1.3847
  833MOL0     H 9937   4.297  11.804   8.027 -2.1671 -1.2877 -1.3283
  833MOL0     H 9938   4.563  11.707   9.129  0.7719  0.8338 -2.6157
  833MOL0     H 9939   4.555  11.505   9.271 -0.4475  0.7075  0.6632
  833MOL0     H 9940   4.616  11.002   9.298  0.5154 -1.6233  1.2721
  833MOL0     H 9941   4.616  10.846   9.519  0.4601  0.0522  3.6960
  833MOL0     H 9942   3.456  10.538  10.436 -1.6769  1.8853  1.5526
  833MOL0     H 9943   3.320  10.645  10.594 -2.7746 -2.2677 -1.5644
  833MOL0     H 9944   2.896  10.529  10.869 -0.9888 -0.6768  1.6344
  833MOL0     H 9945   2.739  10.613  11.044  0.1876 -2.3050  1.6270
  833MOL0     H 9946   2.717  10.895  11.382  1.1420  3.7460  0.1787
  833MOL0     H 9947   2.856  10.959  11.299  0.9412 -1.2841 -1.8332
  833MOL0     H 9948   2.829  10.770  11.534 -1.8963 -4.8310 -3.9033
  833MOL0     H 9949   2.969  10.729  11.449  0.4561  0.7254  3.0216
  833MOL0     H 9950   2.921  10.986  11.591 -1.5929 -1.7233 -0.0827
  833MOL0     H 9951   3.067  10.965  11.502 -1.9562 -0.1524 -2.4744
  833MOL0     H 9952   3.110  10.903  11.739  2.0630  1.1084 -2.0247
  833MOL0     H 9953   2.994  10.768  11.715  0.9558 -1.3763 -0.8783
  833MOL0     H 9954   3.372  10.653  11.533  0.6344  2.6174 -0.5956
  833MOL0     H 9955   3.042  10.823  11.223 -1.9225 -1.4337  2.4719
  833MOL0     H 9956   3.203  10.773  11.034  0.4417  1.8558 -0.5686
  834MOL0     O 9957   5.059   2.975   8.377  0.5599  0.2948 -0.3030
  834MOL0     C 9958   5.113   2.980   8.493  0.6875 -0.4884  0.6216
  834MOL0     O 9959   5.094   2.900   8.590  0.4530 -0.5353 -0.1011
  834MOL0     C 9960   5.024   2.786   8.572  0.2147 -0.2342 -0.4554
  834MOL0     C 9961   5.082   2.665   8.536  0.0676 -0.0708  0.8676
  834MOL0     C 9962   5.003   2.544   8.514 -0.0081 -0.5833  0.5344
  834MOL0     C 9963   4.870   2.544   8.561  0.0925 -0.0652 -0.0481
  834MOL0     O 9964   4.793   2.429   8.562  0.0786 -0.2725  0.4154
  834MOL0     C 9965   4.811   2.351   8.441  0.2835 -0.2062 -0.3709
  834MOL0     C 9966   4.693   2.245   8.423  0.6281 -0.4296 -0.0419
  834MOL0     C 9967   4.577   2.291   8.343  0.7756  0.5741  1.3331
  834MOL0     C 9968   4.496   2.404   8.412 -0.2775 -0.7646 -0.6563
  834MOL0     C 9969   4.373   2.455   8.350  0.3383 -0.4772 -0.1863
  834MOL0     C 9970   4.276   2.345   8.306  0.6817  0.1528  0.9392
  834MOL0     C 9971   4.147   2.403   8.247  0.1259 -0.0295  0.2938
  834MOL0     C 9972   4.146   2.382   8.088 -0.6597 -0.0336 -0.8731
  834MOL0     N 9973   4.014   2.420   8.037  0.3211 -0.5293  0.7094
  834MOL0     C 9974   3.940   2.354   7.935 -0.0934 -0.3049 -0.2956
  834MOL0     C 9975   3.839   2.436   7.902 -0.0153 -0.2740 -0.1100
  834MOL0     C 9976   3.753   2.424   7.779  0.6714  0.2913 -0.3082
  834MOL0     C 9977   3.610   2.420   7.826  0.1557 -0.0278  0.5966
  834MOL0     C 9978   3.506   2.404   7.708  0.1582  0.1901 -0.1750
  834MOL0     C 9979   3.469   2.536   7.642  0.4330 -0.4833  0.2724
  834MOL0     O 9980   3.364   2.512   7.534  0.1725 -0.1661  0.1980
  834MOL0     C 9981   3.409   2.485   7.411 -0.6388 -0.3532  0.8459
  834MOL0     C 9982   3.414   2.355   7.362  0.7554  0.8499 -0.6201
  834MOL0     C 9983   3.445   2.324   7.226 -0.6034 -1.1316 -0.8667
  834MOL0     C 9984   3.460   2.433   7.129  0.4691 -0.5757  0.1747
  834MOL0     C 9985   3.477   2.390   6.982  0.4218 -0.8824 -0.6851
  834MOL0     O 9986   3.474   2.256   6.954 -0.0248 -0.4260 -0.6725
  834MOL0     C 9987   3.450   2.207   6.830  0.2537 -0.2941  0.2668
  834MOL0     C 9988   3.333   2.238   6.753 -0.9114  0.0883 -0.8965
  834MOL0     C 9989   3.307   2.163   6.642  0.0319 -1.1389 -0.7330
  834MOL0     C 9990   3.399   2.069   6.596  0.1606 -0.3847  0.4111
  834MOL0     O 9991   3.393   2.024   6.468  0.0582  0.3758 -0.2825
  834MOL0     C 9992   3.287   1.942   6.434 -0.6065  0.2213 -0.2908
  834MOL0     C 9993   3.286   1.934   6.283  0.4633 -0.9747 -0.0320
  834MOL0     C 9994   3.221   2.059   6.216  0.4577  0.7706 -0.4679
  834MOL0     C 9995   3.258   2.069   6.068 -0.5887  1.3314 -0.5216
  834MOL0     C 9996   3.185   1.963   5.981 -0.3164  0.2498  0.1968
  834MOL0     C 9997   3.103   2.023   5.858  0.4883  0.3782  0.5515
  834MOL0     C 9998   3.025   1.919   5.768 -1.3301  0.4679 -0.2149
  834MOL0     C 9999   2.917   1.974   5.686  0.1359  0.4147  0.6453
  834MOL0    Cl10000   2.779   1.998   5.797  0.3634 -0.0489  0.1317
  834MOL0     C10001   3.514   2.044   6.659 -0.2436 -0.2288 -0.1060
  834MOL0     C10002   3.546   2.119   6.775 -0.1145  0.5807 -0.0471
  834MOL0     O10003   3.507   2.477   6.905  0.5830 -1.0493  0.7136
  834MOL0     C10004   3.453   2.560   7.181  0.0208  0.0805  0.6792
  834MOL0     C10005   3.435   2.585   7.318 -0.3937 -0.3129  0.3001
  834MOL0     N10006   3.857   2.552   7.976 -0.0670  0.0628 -0.4312
  834MOL0     N10007   3.955   2.544   8.059  0.4284 -0.3541  0.0815
  834MOL0     C10008   4.822   2.666   8.611  0.1467  0.5960  0.2938
  834MOL0     C10009   4.893   2.786   8.614  0.6308  0.3323 -0.7689
  834MOL0     C10010   5.204   3.094   8.514  0.4207 -0.6144  0.6723
  834MOL0     C10011   5.259   3.126   8.640  0.8998  0.4951 -0.0442
  834MOL0     C10012   5.336   3.236   8.659 -0.5058 -0.4116  0.8134
  834MOL0     C10013   5.365   3.321   8.557 -0.6994 -0.2787  0.4748
  834MOL0     O10014   5.444   3.436   8.589 -0.1551 -0.4286 -0.7056
  834MOL0     C10015   5.423   3.544   8.497  0.1760  0.2491 -0.0190
  834MOL0     C10016   5.499   3.665   8.544  0.4026  0.1364 -0.2478
  834MOL0     C10017   5.649   3.656   8.552 -0.1047 -0.3607  0.2569
  834MOL0     C10018   5.716   3.613   8.427 -0.0575  0.2327  0.5255
  834MOL0     C10019   5.857   3.581   8.443  0.9140  0.7849  0.3417
  834MOL0     C10020   5.974   3.549   8.452  0.1464 -0.5040  0.1702
  834MOL0     C10021   5.318   3.290   8.435  0.5999 -0.0625 -0.2613
  834MOL0     C10022   5.244   3.178   8.413  0.5417 -0.2225 -0.3170
  834MOL0     H10023   5.184   2.682   8.503  0.3821  0.2021  1.9388
  834MOL0     H10024   5.049   2.453   8.477 -1.5115 -0.0236 -3.0537
  834MOL0     H10025   4.907   2.302   8.457  0.7983  1.1836  0.9964
  834MOL0     H10026   4.820   2.425   8.361 -1.6086 -0.7674 -1.1891
  834MOL0     H10027   4.659   2.213   8.522 -0.8837  2.4378  0.4890
  834MOL0     H10028   4.733   2.162   8.364 -0.2903  0.6956 -2.3565
  834MOL0     H10029   4.518   2.199   8.336 -1.0366  1.7298  0.6590
  834MOL0     H10030   4.604   2.328   8.244 -1.9193  1.6755  0.9305
  834MOL0     H10031   4.473   2.355   8.507 -1.3736  0.1572 -0.4201
  834MOL0     H10032   4.564   2.489   8.426  0.0670 -1.0073 -0.8482
  834MOL0     H10033   4.390   2.511   8.257  0.8787 -0.0239  0.1731
  834MOL0     H10034   4.321   2.529   8.412  1.3077  2.4800 -2.6556
  834MOL0     H10035   4.253   2.287   8.397 -0.1279  1.0883  1.3416
  834MOL0     H10036   4.333   2.288   8.232 -0.8190 -1.1265  0.7242
  834MOL0     H10037   4.063   2.353   8.297 -0.3831  0.0894 -0.4295
  834MOL0     H10038   4.128   2.507   8.274 -2.5251 -0.0876 -0.9384
  834MOL0     H10039   4.151   2.273   8.076 -0.1555 -0.7743  4.0430
  834MOL0     H10040   4.226   2.440   8.040 -1.5248  3.7268  1.7706
  834MOL0     H10041   3.961   2.268   7.874  1.3508 -0.8023  0.8388
  834MOL0     H10042   3.784   2.345   7.710 -3.1819  1.1278 -3.3625
  834MOL0     H10043   3.752   2.519   7.723 -3.2301 -0.7622 -2.4173
  834MOL0     H10044   3.594   2.505   7.892  0.4512  1.3637 -1.0531
  834MOL0     H10045   3.601   2.332   7.890  1.6051 -0.2648  0.5122
  834MOL0     H10046   3.549   2.332   7.638  1.5755  0.6662  0.1720
  834MOL0     H10047   3.421   2.364   7.764  0.2968  1.1804  0.7943
  834MOL0     H10048   3.562   2.578   7.603  1.0684 -1.9696  0.1087
  834MOL0     H10049   3.439   2.610   7.717  1.3902 -1.3821  1.5855
  834MOL0     H10050   3.393   2.272   7.429 -0.5216 -0.2221 -2.2510
  834MOL0     H10051   3.450   2.218   7.202 -0.4767 -0.6870 -3.0408
  834MOL0     H10052   3.258   2.302   6.798  0.1344 -1.4886  3.6395
  834MOL0     H10053   3.221   2.190   6.581  0.8688  0.7000 -1.1839
  834MOL0     H10054   3.193   1.983   6.472 -1.4684 -1.4948 -0.4753
  834MOL0     H10055   3.296   1.840   6.471 -3.8996  1.1247  3.7871
  834MOL0     H10056   3.224   1.852   6.246 -0.3616  0.7757 -2.9234
  834MOL0     H10057   3.384   1.923   6.237 -0.2190  0.5751 -2.0270
  834MOL0     H10058   3.268   2.143   6.267  1.2061 -1.1850  2.2313
  834MOL0     H10059   3.115   2.061   6.241 -0.5348 -2.6089 -3.5126
  834MOL0     H10060   3.228   2.165   6.023  2.0268  0.8700 -3.6290
  834MOL0     H10061   3.367   2.058   6.062 -0.9197 -3.8416 -1.2724
  834MOL0     H10062   3.118   1.906   6.046 -0.3026 -2.9333 -2.3211
  834MOL0     H10063   3.242   1.879   5.942 -4.5924 -1.1542 -4.0532
  834MOL0     H10064   3.168   2.071   5.784 -1.4352  1.0533 -0.7786
  834MOL0     H10065   3.032   2.097   5.894  1.8531  1.9749  0.1030
  834MOL0     H10066   3.087   1.862   5.698 -1.0528 -1.0678  1.2154
  834MOL0     H10067   2.983   1.843   5.835  1.7898 -1.7661 -0.5562
  834MOL0     H10068   2.883   1.904   5.609 -2.0360  3.5033 -1.4150
  834MOL0     H10069   2.950   2.065   5.634 -0.1850 -0.4010 -1.0854
  834MOL0     H10070   3.584   1.973   6.616 -0.2991 -0.2525 -0.1576
  834MOL0     H10071   3.634   2.107   6.836  0.9148  0.0152 -1.5987
  834MOL0     H10072   3.471   2.646   7.118  3.2586 -0.1953  1.0486
  834MOL0     H10073   3.438   2.687   7.353 -2.0474 -0.3191  0.4970
  834MOL0     H10074   4.721   2.656   8.651 -0.3211 -1.0196 -1.1777
  834MOL0     H10075   4.845   2.879   8.646 -1.4560 -0.6285 -0.9632
  834MOL0     H10076   5.219   3.066   8.722 -1.0211 -1.2697 -2.1029
  834MOL0     H10077   5.369   3.249   8.761  2.7108 -0.2602 -0.1300
  834MOL0     H10078   5.315   3.555   8.487 -0.0037  2.5286  2.8930
  834MOL0     H10079   5.463   3.512   8.400 -2.9629 -1.2877 -0.9332
  834MOL0     H10080   5.479   3.748   8.475  0.0575  0.5070  0.2892
  834MOL0     H10081   5.453   3.698   8.637  1.1227 -0.0868  0.1915
  834MOL0     H10082   5.680   3.593   8.636  1.9585  2.3864  1.7102
  834MOL0     H10083   5.692   3.750   8.587  0.6232 -1.0551  1.2836
  834MOL0     H10084   5.672   3.520   8.389 -0.9729  0.8974 -0.0719
  834MOL0     H10085   5.699   3.690   8.350 -0.8055  0.6486  1.1052
  834MOL0     H10086   6.079   3.525   8.453  0.4286  0.1785 -2.9481
  834MOL0     H10087   5.336   3.348   8.345 -0.1371  0.0400 -0.3543
  834MOL0     H10088   5.213   3.166   8.310  0.1482  1.4122 -0.4198
  835MOL0     O10089  11.193   2.456   6.854 -0.6680  0.2480  1.0606
  835MOL0     C10090  11.221   2.549   6.772 -0.2553  0.3225  0.5136
  835MOL0     O10091  11.151   2.574   6.659  0.2583  0.0749  0.2247
  835MOL0     C10092  11.053   2.494   6.624 -1.1581 -0.6594 -0.2984
  835MOL0     C10093  11.036   2.354   6.641  0.1408  0.1857  0.0770
  835MOL0     C10094  10.923   2.291   6.587 -0.9036  0.5073 -0.2708
  835MOL0     C10095  10.825   2.360   6.518 -0.5971  0.1486  0.1704
  835MOL0     O10096  10.712   2.298   6.472 -0.0048 -0.1703 -0.0751
  835MOL0     C10097  10.721   2.160   6.444 -0.7431 -0.0544  0.1912
  835MOL0     C10098  10.590   2.118   6.382  0.7802 -0.5576 -0.0200
  835MOL0     C10099  10.570   2.162   6.236  0.6226  0.1606  0.1136
  835MOL0     C10100  10.439   2.102   6.167  0.1992 -0.6417 -0.1094
  835MOL0     C10101  10.441   2.148   6.019 -0.6739  1.1248 -0.0184
  835MOL0     C10102  10.317   2.081   5.966 -0.1422 -0.5826  0.5504
  835MOL0     C10103  10.303   2.101   5.822  0.4114  0.2475  0.6619
  835MOL0     C10104  10.171   2.181   5.779 -0.7266  0.2900 -0.0419
  835MOL0     N10105  10.175   2.178   5.630  0.0221 -0.3518  0.3516
  835MOL0     C10106  10.179   2.062   5.550 -0.2900  0.1271 -0.7596
  835MOL0     C10107  10.213   2.098   5.426 -0.2846  0.4626 -0.7260
  835MOL0     C10108  10.253   2.020   5.301  1.0206 -0.1860  0.1319
  835MOL0     C10109  10.172   1.895   5.290  0.3976  0.7140  0.2160
  835MOL0     C10110  10.090   1.869   5.169  0.3434  0.3213  0.2592
  835MOL0     C10111   9.973   1.972   5.160 -0.1715 -0.5875  0.2169
  835MOL0     O10112   9.925   1.996   5.029  0.2012  0.3605 -0.6805
  835MOL0     C10113   9.805   2.054   5.025  1.0537 -0.4511  1.0221
  835MOL0     C10114   9.757   2.072   4.895 -0.2239  0.7724  0.0933
  835MOL0     C10115   9.622   2.123   4.877  0.1429  0.2399  0.1998
  835MOL0     C10116   9.555   2.181   4.989  0.9194 -0.4748  1.1516
  835MOL0     C10117   9.444   2.268   4.967  0.1486 -0.2980 -0.1668
  835MOL0     O10118   9.377   2.304   5.081  0.2040  0.2661 -0.1315
  835MOL0     C10119   9.262   2.377   5.074  0.9402  0.6530 -0.0361
  835MOL0     C10120   9.257   2.484   5.162  1.0948  0.1367 -0.4634
  835MOL0     C10121   9.133   2.551   5.169 -0.5106  0.1033 -0.2551
  835MOL0     C10122   9.027   2.519   5.099 -0.9166 -0.1546  0.4458
  835MOL0     O10123   8.924   2.608   5.104  0.7507  0.2034  0.7599
  835MOL0     C10124   8.919   2.698   4.987  0.3116 -0.5965  0.2366
  835MOL0     C10125   8.778   2.736   4.951  0.6936  0.3343  1.1582
  835MOL0     C10126   8.794   2.842   4.847  0.8847  0.0760 -0.3234
  835MOL0     C10127   8.653   2.874   4.793  0.2908  0.9187  1.1513
  835MOL0     C10128   8.661   2.987   4.686  0.1645  0.3414 -0.4916
  835MOL0     C10129   8.656   2.932   4.539 -0.3916 -0.8431 -0.0170
  835MOL0     C10130   8.648   3.055   4.446  0.6216  0.1667 -0.2659
  835MOL0     C10131   8.627   3.018   4.305 -0.3914  0.3741  0.2246
  835MOL0    Cl10132   8.754   2.913   4.236 -0.0844 -0.1227  0.0374
  835MOL0     C10133   9.030   2.415   5.006  0.3253  1.3772  0.1915
  835MOL0     C10134   9.146   2.334   4.991  0.1518  0.1252  0.7377
  835MOL0     O10135   9.421   2.314   4.848 -0.3252  1.0440 -0.3124
  835MOL0     C10136   9.614   2.186   5.115 -0.8083  0.0565  0.5339
  835MOL0     C10137   9.739   2.111   5.132  0.1400 -0.1668 -0.2036
  835MOL0     N10138  10.214   2.243   5.427 -0.0268 -0.1806 -1.4397
  835MOL0     N10139  10.202   2.284   5.550 -0.1632  0.0910  0.7662
  835MOL0     C10140  10.856   2.498   6.494 -0.5128 -0.7651  0.0586
  835MOL0     C10141  10.964   2.560   6.539 -0.2687 -0.9663  0.1203
  835MOL0     C10142  11.338   2.638   6.790 -0.0243 -0.0065  0.2126
  835MOL0     C10143  11.412   2.624   6.902  1.2522 -0.1539  0.1544
  835MOL0     C10144  11.525   2.701   6.935  0.4181  1.0590  0.0654
  835MOL0     C10145  11.572   2.785   6.839 -0.9857  0.7672 -0.1075
  835MOL0     O10146  11.689   2.856   6.876  0.0147  0.4542 -0.3399
  835MOL0     C10147  11.759   2.939   6.788  0.4723  0.4572 -0.2272
  835MOL0     C10148  11.876   2.985   6.873 -0.2148 -0.4016  0.4711
  835MOL0     C10149  11.852   3.121   6.947  0.8215 -0.6598  0.1723
  835MOL0     C10150  11.945   3.130   7.071  0.1874 -0.4076  0.5778
  835MOL0     C10151  11.874   3.121   7.198  0.2879  0.6233  0.7354
  835MOL0     C10152  11.831   3.112   7.314  0.0699  0.3255  0.2819
  835MOL0     C10153  11.506   2.788   6.720 -0.0529 -0.6145  0.7822
  835MOL0     C10154  11.387   2.721   6.700  0.1836  0.7954  0.0510
  835MOL0     H10155  11.101   2.298   6.707 -1.9971 -2.9021 -0.2368
  835MOL0     H10156  10.921   2.189   6.625  1.9631  0.9414  1.2880
  835MOL0     H10157  10.732   2.105   6.538 -1.6487  2.6001  1.9545
  835MOL0     H10158  10.806   2.130   6.381 -0.4536 -1.1879  1.0799
  835MOL0     H10159  10.507   2.161   6.439  3.7336  1.7311  2.9732
  835MOL0     H10160  10.579   2.009   6.384 -2.1709 -0.3226  0.0281
  835MOL0     H10161  10.661   2.122   6.190  0.3692 -3.2528  2.2491
  835MOL0     H10162  10.579   2.271   6.235 -0.6250  0.2775  0.2247
  835MOL0     H10163  10.429   1.996   6.189  0.6313 -0.2695  2.1449
  835MOL0     H10164  10.348   2.151   6.205 -0.0805 -1.4682  0.3054
  835MOL0     H10165  10.531   2.119   5.964 -2.1121 -1.1398 -1.3641
  835MOL0     H10166  10.438   2.256   6.008 -3.5062  0.8799 -3.3342
  835MOL0     H10167  10.226   2.122   6.011 -1.0336 -0.3633 -1.3855
  835MOL0     H10168  10.331   1.976   5.993  1.9472 -0.4182  0.2906
  835MOL0     H10169  10.389   2.155   5.780 -0.7099  1.0154 -0.7116
  835MOL0     H10170  10.300   2.004   5.772 -0.0941 -0.3233  1.7718
  835MOL0     H10171  10.152   2.276   5.829 -3.2972 -1.1939  2.0785
  835MOL0     H10172  10.086   2.122   5.815 -0.4069  0.3363  0.8204
  835MOL0     H10173  10.177   1.965   5.600 -0.1190  0.5835  0.1448
  835MOL0     H10174  10.359   2.006   5.325  1.3185  1.9337  0.2458
  835MOL0     H10175  10.242   2.067   5.203  2.5925 -1.3529 -0.6613
  835MOL0     H10176  10.114   1.882   5.382  1.2522  0.4443  0.7229
  835MOL0     H10177  10.250   1.820   5.304  3.3291  3.3908 -0.7994
  835MOL0     H10178  10.153   1.876   5.079 -1.4652  2.4761 -0.9645
  835MOL0     H10179  10.048   1.768   5.167  0.4298  0.2727  0.8414
  835MOL0     H10180   9.999   2.071   5.200  1.1657 -0.0603 -1.7861
  835MOL0     H10181   9.896   1.933   5.227 -1.9322  1.0528 -0.7423
  835MOL0     H10182   9.819   2.027   4.817  1.0461  0.1497  1.4064
  835MOL0     H10183   9.573   2.121   4.780  3.1191 -1.0545 -1.3870
  835MOL0     H10184   9.344   2.517   5.219 -0.8439  1.4950  1.9007
  835MOL0     H10185   9.119   2.632   5.240  0.7258 -1.5500  1.9786
  835MOL0     H10186   8.963   2.644   4.903  1.9748 -2.1277  1.9846
  835MOL0     H10187   8.964   2.792   5.021 -1.9801 -0.8021  4.6013
  835MOL0     H10188   8.718   2.774   5.034 -0.7181  2.0148 -0.5528
  835MOL0     H10189   8.726   2.650   4.907 -2.7176  1.6559  2.3339
  835MOL0     H10190   8.857   2.803   4.766 -3.2028 -0.1432 -3.7332
  835MOL0     H10191   8.839   2.935   4.882 -0.0524  0.3169  0.2687
  835MOL0     H10192   8.608   2.793   4.736 -0.2012  2.1873 -0.3382
  835MOL0     H10193   8.585   2.888   4.878  0.5182  4.1180  0.9375
  835MOL0     H10194   8.751   3.048   4.698  0.5028 -0.1745 -0.3451
  835MOL0     H10195   8.573   3.047   4.709 -1.9067 -2.1479 -1.4057
  835MOL0     H10196   8.560   2.886   4.519  0.4422 -1.7293 -2.3043
  835MOL0     H10197   8.744   2.871   4.515  0.3888  1.0626 -2.4933
  835MOL0     H10198   8.558   3.110   4.474  1.1004  2.3877 -2.7254
  835MOL0     H10199   8.743   3.109   4.454  1.1612 -0.8798  0.6962
  835MOL0     H10200   8.633   3.114   4.254 -1.4973  0.5734  0.4370
  835MOL0     H10201   8.522   2.992   4.289  0.0539 -0.6508 -1.1840
  835MOL0     H10202   8.939   2.385   4.955  1.0502  2.5161 -1.9048
  835MOL0     H10203   9.134   2.256   4.916  0.3999  0.5641  0.2355
  835MOL0     H10204   9.575   2.246   5.197 -1.6910  3.8394 -2.3838
  835MOL0     H10205   9.775   2.101   5.234  2.3632 -2.7516 -1.1430
  835MOL0     H10206  10.784   2.559   6.441  0.3020 -0.1639 -0.3590
  835MOL0     H10207  10.976   2.666   6.517 -2.0313 -0.5873  0.7761
  835MOL0     H10208  11.374   2.549   6.971 -1.7336 -1.3349 -2.5042
  835MOL0     H10209  11.571   2.696   7.033 -1.9901 -0.6261  1.2230
  835MOL0     H10210  11.689   3.016   6.753 -1.3294 -1.0287 -0.0796
  835MOL0     H10211  11.787   2.881   6.700  0.1560 -1.3153  0.7806
  835MOL0     H10212  11.898   2.905   6.944 -0.0150 -1.5476 -0.8479
  835MOL0     H10213  11.953   3.004   6.798 -1.0314 -0.7297 -0.4772
  835MOL0     H10214  11.747   3.125   6.976  0.4132 -1.1851 -1.1779
  835MOL0     H10215  11.879   3.207   6.884  0.1208 -0.6576 -0.1265
  835MOL0     H10216  12.027   3.059   7.083  0.0551 -0.7444 -0.4518
  835MOL0     H10217  11.984   3.231   7.080 -0.2790 -0.2425  0.7968
  835MOL0     H10218  11.808   3.098   7.418  1.0531  0.4764  0.5270
  835MOL0     H10219  11.540   2.856   6.642 -0.0435 -1.6479 -0.1516
  835MOL0     H10220  11.338   2.746   6.606  0.8328 -0.6911 -0.7167
  836MOL0     O10221   1.840   4.339   8.405  0.3616  0.1408 -0.5923
  836MOL0     C10222   1.772   4.370   8.305  0.7993  0.1825 -0.3654
  836MOL0     O10223   1.756   4.496   8.264  0.1079  0.3174  0.2421
  836MOL0     C10224   1.822   4.592   8.331  0.3473  0.1424 -0.7875
  836MOL0     C10225   1.754   4.660   8.439 -0.0985 -0.8113 -1.4526
  836MOL0     C10226   1.822   4.744   8.532 -0.0898 -0.5400  1.0502
  836MOL0     C10227   1.954   4.774   8.506  0.6837  0.8615 -0.5879
  836MOL0     O10228   2.040   4.843   8.588 -0.0492  0.1925 -0.1184
  836MOL0     C10229   1.993   4.903   8.708 -0.7684  0.2365 -0.7629
  836MOL0     C10230   1.933   5.043   8.680 -0.2523 -0.2512 -0.7429
  836MOL0     C10231   2.016   5.169   8.717 -0.0985  0.9335  0.7839
  836MOL0     C10232   2.140   5.179   8.635 -0.0244  0.4207 -1.1416
  836MOL0     C10233   2.233   5.292   8.680  0.8244 -0.3831 -0.1381
  836MOL0     C10234   2.350   5.300   8.576  0.4277  0.5106  0.5169
  836MOL0     C10235   2.438   5.422   8.594  0.7484  0.0828  0.6268
  836MOL0     C10236   2.387   5.545   8.533  0.6731 -0.0554 -0.1592
  836MOL0     N10237   2.486   5.647   8.527  0.2816 -0.4230 -0.3325
  836MOL0     C10238   2.571   5.686   8.634  0.8083  1.0196 -0.1318
  836MOL0     C10239   2.651   5.773   8.567 -0.5041  0.0255  0.0219
  836MOL0     C10240   2.757   5.857   8.621  1.8337  0.7505 -0.3423
  836MOL0     C10241   2.891   5.803   8.583 -0.0935  2.0931  0.5172
  836MOL0     C10242   2.930   5.783   8.438 -1.0247 -0.4137 -0.3353
  836MOL0     C10243   3.069   5.840   8.395 -0.6001  0.3216 -0.0059
  836MOL0     O10244   3.085   5.843   8.256 -0.4215  0.6551  0.5091
  836MOL0     C10245   3.052   5.947   8.178 -0.2276 -0.1841  0.1402
  836MOL0     C10246   3.117   5.950   8.059  0.5723 -0.0750  0.2249
  836MOL0     C10247   3.084   6.043   7.960  0.4443 -0.0668  0.0432
  836MOL0     C10248   3.015   6.169   7.998 -0.7286  0.0781  0.3871
  836MOL0     C10249   2.984   6.277   7.899 -0.7079  0.3180 -0.2726
  836MOL0     O10250   2.908   6.385   7.935  0.8704 -0.1731  0.0606
  836MOL0     C10251   2.839   6.456   7.835  0.3261  0.0482  0.2043
  836MOL0     C10252   2.778   6.400   7.723  0.5416 -0.8090  0.0993
  836MOL0     C10253   2.716   6.477   7.621 -0.2188  0.1977 -0.1630
  836MOL0     C10254   2.684   6.609   7.639 -0.3180 -0.8514 -0.9808
  836MOL0     O10255   2.621   6.692   7.542  0.2313  0.5181  0.4023
  836MOL0     C10256   2.536   6.623   7.449  0.4052 -0.4551 -0.6461
  836MOL0     C10257   2.442   6.735   7.390 -0.6616  0.4372 -0.0866
  836MOL0     C10258   2.304   6.740   7.461  0.4813 -0.3874  0.0635
  836MOL0     C10259   2.292   6.861   7.564  0.2925  0.3375  1.5631
  836MOL0     C10260   2.329   6.822   7.710  0.7430  0.2630 -0.8344
  836MOL0     C10261   2.398   6.922   7.797  0.9808 -1.0578  0.8261
  836MOL0     C10262   2.406   6.874   7.937  0.6949 -0.6846  0.2435
  836MOL0     C10263   2.426   6.983   8.045  0.4138 -0.3142  0.1360
  836MOL0    Cl10264   2.587   7.072   8.006  0.2176 -0.2768 -0.0016
  836MOL0     C10265   2.722   6.652   7.773 -0.6833 -0.3944  0.0767
  836MOL0     C10266   2.802   6.581   7.869  0.9786  0.0954  0.3686
  836MOL0     O10267   3.041   6.252   7.792  0.2212  0.4823  0.3329
  836MOL0     C10268   2.955   6.167   8.127 -1.4908  1.0130 -0.5248
  836MOL0     C10269   2.968   6.056   8.211  0.9703 -0.4764  0.0423
  836MOL0     N10270   2.614   5.780   8.432  0.3392  0.6788  0.4451
  836MOL0     N10271   2.514   5.702   8.409  0.6888 -0.2748 -1.0429
  836MOL0     C10272   2.024   4.704   8.399 -0.5160 -0.1102  1.1247
  836MOL0     C10273   1.960   4.620   8.310 -0.6320  0.0744 -0.4605
  836MOL0     C10274   1.700   4.256   8.235 -0.0291 -1.1555 -0.7592
  836MOL0     C10275   1.618   4.290   8.125 -0.5713  0.7566 -0.5204
  836MOL0     C10276   1.559   4.190   8.046  0.6138  0.3110 -0.3259
  836MOL0     C10277   1.564   4.059   8.081 -0.1500  1.0278 -0.4912
  836MOL0     O10278   1.503   3.959   8.008 -0.3401 -0.8651 -0.6490
  836MOL0     C10279   1.566   3.837   7.998  0.4286  0.4370  0.3853
  836MOL0     C10280   1.521   3.771   7.862  0.1523 -0.5711  0.1206
  836MOL0     C10281   1.636   3.680   7.812 -0.2941 -0.1716 -0.4917
  836MOL0     C10282   1.635   3.546   7.893 -0.0248 -0.0290  0.1105
  836MOL0     C10283   1.765   3.489   7.875 -0.8236 -0.8777 -0.5928
  836MOL0     C10284   1.875   3.445   7.850  0.1280 -0.5398  0.0295
  836MOL0     C10285   1.637   4.022   8.199  1.1255  0.0529  0.3385
  836MOL0     C10286   1.693   4.119   8.277  0.7648 -0.0012  0.0253
  836MOL0     H10287   1.650   4.636   8.456 -0.7816  0.0941 -3.8862
  836MOL0     H10288   1.767   4.794   8.611 -0.1680 -2.8576  2.5295
  836MOL0     H10289   2.087   4.918   8.761  0.2768 -2.8396 -1.5349
  836MOL0     H10290   1.924   4.845   8.770  1.7426 -0.5489  1.4355
  836MOL0     H10291   1.846   5.048   8.745  1.6755  0.7978  1.9477
  836MOL0     H10292   1.907   5.046   8.573  0.6361 -2.3854 -1.0768
  836MOL0     H10293   2.031   5.150   8.824 -0.7396 -2.9610  0.3376
  836MOL0     H10294   1.961   5.263   8.704  1.1290  2.2411  3.9824
  836MOL0     H10295   2.204   5.093   8.655  0.8843  1.6044  1.5493
  836MOL0     H10296   2.108   5.188   8.531 -2.4574 -1.5889 -0.6469
  836MOL0     H10297   2.265   5.279   8.784 -2.2157 -0.2616  0.9037
  836MOL0     H10298   2.193   5.394   8.680 -1.4924 -1.2316  0.5263
  836MOL0     H10299   2.311   5.292   8.474 -3.4118 -1.7426  1.9576
  836MOL0     H10300   2.405   5.206   8.577  0.8587  0.7514  1.9104
  836MOL0     H10301   2.446   5.444   8.701  0.4515  0.9813  0.4715
  836MOL0     H10302   2.536   5.403   8.548 -0.5975  2.8355 -4.1005
  836MOL0     H10303   2.309   5.587   8.598  0.8520  2.3823 -1.4410
  836MOL0     H10304   2.340   5.523   8.437 -2.2041 -0.1369  1.1403
  836MOL0     H10305   2.570   5.646   8.735 -0.4654 -3.9597 -1.7838
  836MOL0     H10306   2.750   5.831   8.728  0.6367  0.1462 -0.5498
  836MOL0     H10307   2.739   5.965   8.617  3.1662  1.0519  0.8010
  836MOL0     H10308   2.909   5.705   8.627 -0.9786  0.6864 -2.0746
  836MOL0     H10309   2.962   5.869   8.634 -0.6603  0.4277  3.6816
  836MOL0     H10310   2.947   5.679   8.409  2.5186  0.0828 -0.4476
  836MOL0     H10311   2.849   5.830   8.382 -0.3138 -0.5528 -1.5023
  836MOL0     H10312   3.156   5.783   8.428 -1.2246 -1.3572 -1.1085
  836MOL0     H10313   3.075   5.940   8.439 -0.6295  0.0362  0.6462
  836MOL0     H10314   3.180   5.863   8.042 -1.2117 -1.8978  2.2583
  836MOL0     H10315   3.127   6.018   7.864  0.8563 -0.9364  0.4412
  836MOL0     H10316   2.808   6.297   7.704  2.0025 -0.5265  0.6892
  836MOL0     H10317   2.696   6.426   7.528 -2.5644  1.9562 -0.7156
  836MOL0     H10318   2.480   6.546   7.502  1.3790 -0.8120 -0.1159
  836MOL0     H10319   2.588   6.571   7.368 -1.3651 -1.8528 -0.9447
  836MOL0     H10320   2.425   6.714   7.284 -1.2101  1.3235 -0.1892
  836MOL0     H10321   2.487   6.834   7.397 -2.4645  1.3583 -0.7351
  836MOL0     H10322   2.280   6.650   7.519  1.1588  1.7858  4.1682
  836MOL0     H10323   2.223   6.759   7.390 -0.3268 -3.7917 -0.0916
  836MOL0     H10324   2.362   6.939   7.531  0.4064 -0.2015  0.4957
  836MOL0     H10325   2.192   6.907   7.560  0.5168  0.9287 -2.7925
  836MOL0     H10326   2.395   6.738   7.689  0.0470  0.2086 -3.1316
  836MOL0     H10327   2.240   6.784   7.760  1.9272 -0.1319  1.0472
  836MOL0     H10328   2.339   7.014   7.799  2.0184 -0.3156 -1.2033
  836MOL0     H10329   2.496   6.950   7.760  0.8795 -1.6777  0.0598
  836MOL0     H10330   2.312   6.832   7.972  1.2986 -2.6272 -0.3732
  836MOL0     H10331   2.482   6.797   7.955 -0.9455 -2.3874  0.1280
  836MOL0     H10332   2.421   6.941   8.146  0.6445  3.1892  1.7728
  836MOL0     H10333   2.349   7.059   8.059 -1.6900 -2.2303 -0.4666
  836MOL0     H10334   2.697   6.757   7.788 -1.6823 -0.5932 -0.1484
  836MOL0     H10335   2.819   6.625   7.967 -0.0802  2.1487 -0.3076
  836MOL0     H10336   2.909   6.255   8.171  1.0412  2.0183  0.3364
  836MOL0     H10337   2.911   6.070   8.302 -1.5273  2.9208 -1.8349
  836MOL0     H10338   2.131   4.717   8.401 -0.3235 -1.4401  0.6143
  836MOL0     H10339   2.026   4.576   8.236 -0.3274 -0.2019 -0.0269
  836MOL0     H10340   1.620   4.394   8.096 -0.4604  0.7786 -0.4372
  836MOL0     H10341   1.497   4.207   7.958  0.6349  1.8710 -0.0621
  836MOL0     H10342   1.539   3.756   8.066  1.9628  0.0195  0.5407
  836MOL0     H10343   1.676   3.838   8.003  0.3663  2.2025  3.5936
  836MOL0     H10344   1.423   3.722   7.863  0.2053 -0.8835  3.3456
  836MOL0     H10345   1.515   3.850   7.787  0.4635 -2.8698 -2.4754
  836MOL0     H10346   1.732   3.732   7.805  0.4517 -1.4745 -0.0529
  836MOL0     H10347   1.617   3.647   7.709 -1.1763  1.7419 -1.0077
  836MOL0     H10348   1.619   3.570   7.998  0.0906 -0.1275  0.1512
  836MOL0     H10349   1.556   3.475   7.864  1.8091 -1.0510 -2.9737
  836MOL0     H10350   1.959   3.386   7.819  0.5577  1.3721 -2.7732
  836MOL0     H10351   1.634   3.915   8.220 -2.1319 -0.4627 -2.0073
  836MOL0     H10352   1.746   4.082   8.365 -0.7054 -2.6870 -0.1000
  837MOL0     O10353   6.696   9.040   4.942 -0.8502  0.2791  0.0041
  837MOL0     C10354   6.785   9.075   5.017  0.4462 -0.4768 -0.5624
  837MOL0     O10355   6.791   9.199   5.070 -0.1130  0.1328 -1.3206
  837MOL0     C10356   6.712   9.300   5.027 -1.4798  0.3577  0.6895
  837MOL0     C10357   6.593   9.322   5.100 -0.4967 -0.2739  1.0456
  837MOL0     C10358   6.518   9.440   5.089 -0.1667  0.6387  0.3354
  837MOL0     C10359   6.553   9.527   4.983 -0.0929 -0.4318 -1.0660
  837MOL0     O10360   6.480   9.646   4.961  0.6319 -0.2579 -1.0617
  837MOL0     C10361   6.517   9.755   4.876  0.6659  1.0340 -0.7245
  837MOL0     C10362   6.409   9.872   4.888  0.1145 -0.1570  0.9170
  837MOL0     C10363   6.381   9.894   5.031 -0.0354 -0.2404 -0.2392
  837MOL0     C10364   6.291  10.011   5.056  0.1055  0.4676  0.7931
  837MOL0     C10365   6.274  10.034   5.210  1.2375 -0.9357  0.4797
  837MOL0     C10366   6.141  10.107   5.251  0.9853 -0.5522 -0.7010
  837MOL0     C10367   6.145  10.254   5.189  0.8239  0.4758 -0.0300
  837MOL0     C10368   6.034  10.344   5.232 -0.2118 -0.6920  0.4247
  837MOL0     N10369   6.050  10.418   5.358  0.3094  0.2181  0.6247
  837MOL0     C10370   6.054  10.558   5.369  0.4572  0.7254  0.4874
  837MOL0     C10371   6.035  10.584   5.500 -0.1631  0.1375  1.3653
  837MOL0     C10372   6.005  10.722   5.567 -0.0694  0.2499  0.8701
  837MOL0     C10373   5.861  10.775   5.532 -0.6461  0.5800  0.1981
  837MOL0     C10374   5.747  10.681   5.565  0.4961  0.1550  0.3990
  837MOL0     C10375   5.604  10.744   5.540 -0.2026  1.0810 -0.5259
  837MOL0     O10376   5.502  10.651   5.591 -0.3396  0.0132  0.5432
  837MOL0     C10377   5.440  10.651   5.715 -0.4195  0.6252 -0.2603
  837MOL0     C10378   5.355  10.540   5.740 -0.7571  0.1926 -0.6526
  837MOL0     C10379   5.297  10.534   5.857  0.7378 -0.9520 -1.1022
  837MOL0     C10380   5.330  10.631   5.958 -0.1206 -0.3848 -1.0235
  837MOL0     C10381   5.261  10.609   6.092 -0.1227 -0.1397 -1.0401
  837MOL0     O10382   5.271  10.484   6.158  0.4374 -0.4305 -0.1449
  837MOL0     C10383   5.186  10.463   6.266 -0.8837 -0.1247  0.8430
  837MOL0     C10384   5.178  10.559   6.370  0.6122  0.5979 -0.1258
  837MOL0     C10385   5.094  10.528   6.479 -0.8351  0.5185 -0.8391
  837MOL0     C10386   5.029  10.408   6.486 -0.9546  0.9939  1.1713
  837MOL0     O10387   4.956  10.369   6.589  0.4806 -0.0473 -0.3898
  837MOL0     C10388   4.815  10.337   6.553  0.7573  0.3540  0.6955
  837MOL0     C10389   4.785  10.200   6.615  0.9382  0.5016 -0.0055
  837MOL0     C10390   4.846  10.178   6.748  0.5002  0.7335 -0.2424
  837MOL0     C10391   4.789  10.054   6.819  0.3724  0.9782 -0.0040
  837MOL0     C10392   4.856  10.033   6.958  0.6728  0.7645 -0.3452
  837MOL0     C10393   4.795   9.930   7.050  0.1768 -1.1305 -0.0305
  837MOL0     C10394   4.852   9.909   7.189 -0.0226  0.0585  0.3608
  837MOL0     C10395   4.840   9.762   7.240 -0.5013 -0.5334  1.8309
  837MOL0    Cl10396   4.940   9.740   7.394  0.3275 -0.6972 -0.5491
  837MOL0     C10397   5.040  10.316   6.383 -0.3897  0.8726  0.2843
  837MOL0     C10398   5.122  10.341   6.275  0.3011 -0.1859 -0.3300
  837MOL0     O10399   5.217  10.709   6.143 -0.1981 -0.6889  0.5164
  837MOL0     C10400   5.423  10.736   5.938  0.3973  0.1987  0.0736
  837MOL0     C10401   5.472  10.752   5.811 -0.0268 -0.9578 -0.4412
  837MOL0     N10402   6.029  10.460   5.563 -0.1735  0.1166  0.1211
  837MOL0     N10403   6.041  10.366   5.479  0.7226 -0.0053  0.0841
  837MOL0     C10404   6.666   9.506   4.896  0.9133  0.4884  0.5153
  837MOL0     C10405   6.750   9.389   4.924  1.0368 -0.3480  0.6542
  837MOL0     C10406   6.884   8.975   5.057 -0.5340 -0.7680 -0.1728
  837MOL0     C10407   6.882   8.838   5.014  0.5235 -0.2510 -0.3222
  837MOL0     C10408   6.987   8.749   5.047 -0.3109  0.1765 -0.7125
  837MOL0     C10409   7.097   8.791   5.119 -0.0134  0.2511 -0.3233
  837MOL0     O10410   7.185   8.690   5.149  0.3044 -0.2877 -0.3567
  837MOL0     C10411   7.325   8.718   5.168 -0.0739 -0.3213  0.3958
  837MOL0     C10412   7.409   8.594   5.154 -0.5224  0.3875 -0.2867
  837MOL0     C10413   7.410   8.547   4.999  0.0722 -0.2839  0.2254
  837MOL0     C10414   7.518   8.440   4.963 -0.0727 -0.9676 -0.0986
  837MOL0     C10415   7.649   8.502   4.968 -1.1087  1.4555 -0.1369
  837MOL0     C10416   7.773   8.527   4.968  0.9974  0.2267 -0.5724
  837MOL0     C10417   7.110   8.925   5.159  0.0232 -0.0532 -0.7559
  837MOL0     C10418   7.005   9.011   5.124  0.0213 -0.2532  0.1492
  837MOL0     H10419   6.550   9.248   5.167 -1.4219 -1.0699 -0.3789
  837MOL0     H10420   6.431   9.446   5.153 -1.0241 -1.1780 -0.5908
  837MOL0     H10421   6.529   9.720   4.774  1.8713  0.1512 -0.3078
  837MOL0     H10422   6.610   9.792   4.920 -0.1184 -0.3911  2.4046
  837MOL0     H10423   6.315   9.844   4.840 -1.9784 -1.5996  5.2835
  837MOL0     H10424   6.456   9.960   4.844  1.0090 -1.0083  0.1034
  837MOL0     H10425   6.475   9.915   5.083  0.1405  0.0679 -0.6769
  837MOL0     H10426   6.343   9.808   5.088 -0.4825  1.0574  1.5235
  837MOL0     H10427   6.352  10.091   5.015  3.2301 -1.7514  0.7236
  837MOL0     H10428   6.194   9.999   5.007  0.1903 -3.6257  1.2627
  837MOL0     H10429   6.355  10.081   5.266 -0.3746 -0.1769  2.2494
  837MOL0     H10430   6.263   9.932   5.248  2.9905 -2.1365 -1.9083
  837MOL0     H10431   6.145  10.116   5.360  0.0408  0.1562 -0.7120
  837MOL0     H10432   6.049  10.058   5.218 -0.3874  0.3744  1.5150
  837MOL0     H10433   6.245  10.294   5.209 -0.2340  3.4219 -0.1808
  837MOL0     H10434   6.127  10.242   5.082 -3.2212  0.2083  0.5153
  837MOL0     H10435   5.935  10.298   5.225 -1.5754  2.2156 -1.3103
  837MOL0     H10436   6.030  10.429   5.163  0.0303 -0.8660  0.1946
  837MOL0     H10437   6.062  10.634   5.292  2.5933  0.9565  0.8767
  837MOL0     H10438   6.082  10.791   5.530 -0.9917  0.6519 -0.3787
  837MOL0     H10439   6.022  10.717   5.675  4.8419 -2.1327  0.2414
  837MOL0     H10440   5.863  10.779   5.422 -5.3355 -0.6773 -0.1389
  837MOL0     H10441   5.855  10.874   5.579  4.0212  1.7243 -1.0945
  837MOL0     H10442   5.751  10.587   5.509  2.6103 -1.2903  2.7930
  837MOL0     H10443   5.760  10.646   5.668  2.6436  1.7789  0.7409
  837MOL0     H10444   5.583  10.760   5.434 -1.0865  0.8262 -0.3975
  837MOL0     H10445   5.603  10.840   5.592 -3.2295  1.2364 -0.7213
  837MOL0     H10446   5.345  10.472   5.656  1.4945  0.1638 -0.9603
  837MOL0     H10447   5.254  10.440   5.890 -1.0332  0.7278  1.8431
  837MOL0     H10448   5.246  10.641   6.390  2.1134 -0.3299 -1.2386
  837MOL0     H10449   5.085  10.584   6.572  0.3332 -3.1914  1.7840
  837MOL0     H10450   4.787  10.335   6.447 -4.6871  0.4683  1.8322
  837MOL0     H10451   4.748  10.402   6.610 -0.8494 -2.6189  2.4819
  837MOL0     H10452   4.828  10.122   6.551 -0.6277  0.7798 -1.4950
  837MOL0     H10453   4.676  10.191   6.611  1.0484 -0.7089 -0.7852
  837MOL0     H10454   4.826  10.261   6.816 -2.0198 -2.5277  3.4294
  837MOL0     H10455   4.955  10.167   6.749  0.3650 -0.9991  0.5144
  837MOL0     H10456   4.684  10.078   6.836 -0.2492 -0.3038 -1.6836
  837MOL0     H10457   4.786   9.966   6.753 -4.2456  1.2281 -0.4738
  837MOL0     H10458   4.858  10.132   7.004 -0.6716 -1.1376  4.5391
  837MOL0     H10459   4.958   9.994   6.947  0.9956  1.0823  1.2556
  837MOL0     H10460   4.822   9.836   7.001  0.3475 -0.7539 -0.6790
  837MOL0     H10461   4.686   9.942   7.051  0.1406 -0.8140  3.3196
  837MOL0     H10462   4.956   9.942   7.192  0.0328 -0.1567  0.9494
  837MOL0     H10463   4.803   9.976   7.260 -0.1335 -0.4862  0.8026
  837MOL0     H10464   4.901   9.705   7.169  1.5516  0.7711  2.4326
  837MOL0     H10465   4.738   9.725   7.240 -0.4784 -0.6579  0.3255
  837MOL0     H10466   4.983  10.224   6.379  0.1503  0.5673 -0.8125
  837MOL0     H10467   5.134  10.271   6.193  0.6829 -1.1083  0.4929
  837MOL0     H10468   5.441  10.805   6.019 -2.9990 -1.2053  2.2643
  837MOL0     H10469   5.541  10.834   5.794 -1.6131  0.9736  1.8708
  837MOL0     H10470   6.688   9.582   4.822  0.4738  0.6407  0.5391
  837MOL0     H10471   6.833   9.376   4.854 -0.8926 -0.2780 -1.7714
  837MOL0     H10472   6.802   8.804   4.949  0.4543 -0.0616 -0.3373
  837MOL0     H10473   6.975   8.650   5.004 -3.1673  0.6681 -1.2258
  837MOL0     H10474   7.337   8.769   5.264 -2.7515  2.2552 -0.4655
  837MOL0     H10475   7.362   8.786   5.090 -1.0557 -0.6758 -0.3981
  837MOL0     H10476   7.513   8.618   5.175 -0.2962  0.1923 -1.1419
  837MOL0     H10477   7.373   8.511   5.216  2.3357 -1.3752 -0.7867
  837MOL0     H10478   7.416   8.634   4.932  0.0171  0.1686  0.7961
  837MOL0     H10479   7.306   8.515   4.987 -0.7440  1.3058  2.4551
  837MOL0     H10480   7.508   8.347   5.020 -2.3906  0.1645  1.5211
  837MOL0     H10481   7.501   8.410   4.859 -0.8327 -4.1051  0.8305
  837MOL0     H10482   7.877   8.552   4.967  1.1444  0.0553 -4.1083
  837MOL0     H10483   7.189   8.978   5.211 -2.0330  3.2794 -0.7303
  837MOL0     H10484   7.025   9.117   5.138 -2.7326  0.9100 -3.2297
  838MOL0     O10485   9.556   9.937   0.908 -0.1413 -0.1647 -0.3310
  838MOL0     C10486   9.661   9.968   0.848 -0.3513 -0.2540 -0.5824
  838MOL0     O10487   9.708  10.088   0.852  0.3741 -0.5317  0.5891
  838MOL0     C10488   9.693  10.177   0.957  0.0461 -0.2127 -0.3623
  838MOL0     C10489   9.727  10.311   0.922  0.0921  1.3850 -0.3315
  838MOL0     C10490   9.718  10.409   1.019  0.1439 -0.1761  1.0458
  838MOL0     C10491   9.692  10.373   1.151  0.4047 -1.2543 -0.6215
  838MOL0     O10492   9.653  10.478   1.234  0.0355 -0.3679  0.8355
  838MOL0     C10493   9.642  10.475   1.380 -0.6515  0.1438  0.3877
  838MOL0     C10494   9.618  10.623   1.428 -0.0442  0.5293 -0.1086
  838MOL0     C10495   9.532  10.639   1.548  0.5532 -0.5471 -0.4110
  838MOL0     C10496   9.603  10.586   1.672  0.6945 -0.1918  0.4218
  838MOL0     C10497   9.540  10.628   1.802  0.3149 -0.4088 -0.4697
  838MOL0     C10498   9.611  10.580   1.933 -0.3423 -0.5756 -0.5576
  838MOL0     C10499   9.530  10.631   2.057 -0.4525  0.0042  0.7858
  838MOL0     C10500   9.600  10.602   2.191  0.9516 -0.3301 -0.0523
  838MOL0     N10501   9.503  10.608   2.300 -0.6433  0.4410 -0.2915
  838MOL0     C10502   9.455  10.492   2.361 -0.1526  0.5345  0.6153
  838MOL0     C10503   9.382  10.534   2.460  0.5261  0.0191  0.3191
  838MOL0     C10504   9.299  10.454   2.557  0.2478  0.8334  0.2239
  838MOL0     C10505   9.358  10.419   2.692 -0.4532  0.0317 -0.1021
  838MOL0     C10506   9.408  10.528   2.784  0.4894 -0.4055 -0.5650
  838MOL0     C10507   9.304  10.619   2.837  0.3498 -0.0588 -0.2260
  838MOL0     O10508   9.170  10.568   2.832  0.0398 -0.2878  0.1014
  838MOL0     C10509   9.091  10.619   2.936  0.3487  0.4174  0.3056
  838MOL0     C10510   8.970  10.545   2.965 -0.2877 -0.4643  0.4388
  838MOL0     C10511   8.871  10.587   3.048  1.0722 -0.1220  0.0584
  838MOL0     C10512   8.879  10.705   3.118 -0.0909 -0.2316  0.1004
  838MOL0     C10513   8.769  10.766   3.195  0.4666  1.0022 -0.1922
  838MOL0     O10514   8.646  10.708   3.185 -0.2802  0.3775 -0.0614
  838MOL0     C10515   8.532  10.754   3.263 -1.0577 -0.5983  0.2119
  838MOL0     C10516   8.416  10.796   3.200  0.6297  0.3623  0.7648
  838MOL0     C10517   8.302  10.850   3.261 -0.2263 -0.5527  0.8005
  838MOL0     C10518   8.312  10.862   3.402  0.0354 -0.2836 -0.6248
  838MOL0     O10519   8.210  10.914   3.482 -0.0095 -0.1030  0.1416
  838MOL0     C10520   8.083  10.845   3.472  0.7096  0.7598 -0.0630
  838MOL0     C10521   7.979  10.916   3.385  0.3893 -0.4322  0.3012
  838MOL0     C10522   7.938  11.064   3.427 -0.3380 -0.2112  0.1216
  838MOL0     C10523   7.831  11.065   3.548 -0.5179  0.7243  0.7133
  838MOL0     C10524   7.781  11.209   3.594  0.1268  0.8529 -0.8328
  838MOL0     C10525   7.782  11.311   3.482 -0.3107  0.5126 -0.0577
  838MOL0     C10526   7.713  11.444   3.514  0.4424  0.9383  0.3667
  838MOL0     C10527   7.785  11.530   3.618  0.3674 -0.6348  0.3821
  838MOL0    Cl10528   7.708  11.687   3.633 -0.6975 -0.4365  0.3291
  838MOL0     C10529   8.423  10.815   3.470  0.0645  0.7940 -0.1256
  838MOL0     C10530   8.535  10.767   3.405  0.1621  0.4455 -0.4884
  838MOL0     O10531   8.795  10.875   3.252 -0.3418  0.5454  0.0233
  838MOL0     C10532   9.004  10.772   3.105 -0.0941  0.6943  0.5186
  838MOL0     C10533   9.105  10.730   3.014 -0.5425 -0.6839 -0.4912
  838MOL0     N10534   9.385  10.673   2.458 -0.5124 -0.2096  1.1520
  838MOL0     N10535   9.464  10.714   2.358  0.0074 -0.0566 -0.0485
  838MOL0     C10536   9.654  10.243   1.182  1.4575 -0.5096  1.1425
  838MOL0     C10537   9.653  10.142   1.084  0.4745  0.0944 -0.2649
  838MOL0     C10538   9.733   9.863   0.769 -0.3254  0.0869 -0.6562
  838MOL0     C10539   9.660   9.754   0.726 -0.2681 -0.3128  0.5650
  838MOL0     C10540   9.721   9.656   0.642  0.3371  0.3130 -0.0875
  838MOL0     C10541   9.855   9.658   0.618  0.0075 -0.4201 -0.0650
  838MOL0     O10542   9.933   9.559   0.547  0.4243 -0.4081 -0.2325
  838MOL0     C10543   9.844   9.451   0.513  0.4269 -0.4291 -0.2934
  838MOL0     C10544   9.929   9.346   0.431 -0.8767  0.0137  1.1872
  838MOL0     C10545   9.969   9.402   0.301 -0.0085 -0.3775  0.4000
  838MOL0     C10546  10.102   9.344   0.249 -0.8612 -0.1233  0.3810
  838MOL0     C10547  10.139   9.375   0.115  0.5906  0.7760  0.5112
  838MOL0     C10548  10.166   9.385  -0.002 -1.0189  0.7789  0.4073
  838MOL0     C10549   9.934   9.765   0.670 -0.2838 -0.7734  0.1769
  838MOL0     C10550   9.875   9.867   0.742  1.3007 -1.1407  0.5373
  838MOL0     H10551   9.755  10.328   0.819 -0.2776 -0.4960 -0.7656
  838MOL0     H10552   9.737  10.513   0.992  0.5059  0.2453  2.7521
  838MOL0     H10553   9.736  10.444   1.427  0.8259  2.8463 -0.5248
  838MOL0     H10554   9.557  10.412   1.408  0.7503 -1.6984  0.6444
  838MOL0     H10555   9.565  10.674   1.348 -3.4637 -2.4253 -0.0043
  838MOL0     H10556   9.711  10.681   1.434 -1.6198  3.7157 -3.2905
  838MOL0     H10557   9.436  10.588   1.550  1.2888 -1.9623  0.3074
  838MOL0     H10558   9.501  10.744   1.554 -0.7582 -0.9131 -0.5505
  838MOL0     H10559   9.615  10.477   1.666 -2.1480 -0.6245  1.0030
  838MOL0     H10560   9.702  10.631   1.676  0.1147  1.0717  2.4633
  838MOL0     H10561   9.436  10.593   1.793  0.0958  0.1191 -0.0460
  838MOL0     H10562   9.541  10.737   1.812 -4.5819 -0.0825 -0.8865
  838MOL0     H10563   9.708  10.630   1.935 -0.9852  0.7073 -0.4523
  838MOL0     H10564   9.610  10.471   1.944 -0.2283 -0.7229 -1.8030
  838MOL0     H10565   9.518  10.739   2.044  4.5241  0.6633 -0.2163
  838MOL0     H10566   9.433  10.584   2.040 -0.6353  1.4981 -3.4817
  838MOL0     H10567   9.678  10.676   2.211  1.1981  0.0348 -2.1440
  838MOL0     H10568   9.654  10.507   2.182  0.5073 -0.6453  0.5499
  838MOL0     H10569   9.459  10.387   2.335 -1.4380  0.4081  0.8770
  838MOL0     H10570   9.264  10.367   2.501 -3.1779  2.2897 -0.1880
  838MOL0     H10571   9.208  10.509   2.584 -0.5141 -0.2135 -0.1579
  838MOL0     H10572   9.444  10.354   2.673 -0.5062  0.2772 -1.2837
  838MOL0     H10573   9.291  10.355   2.750  1.3571  0.1990  2.3165
  838MOL0     H10574   9.465  10.498   2.873  2.3068  3.5358 -0.1907
  838MOL0     H10575   9.476  10.578   2.714 -2.6016 -0.6419 -4.0504
  838MOL0     H10576   9.328  10.710   2.781  1.0222  2.9751  4.4274
  838MOL0     H10577   9.342  10.634   2.939 -0.8537  3.0376 -0.1255
  838MOL0     H10578   8.970  10.463   2.894  0.5566  0.2841 -0.4611
  838MOL0     H10579   8.772  10.544   3.040 -0.4208  3.1903 -1.1063
  838MOL0     H10580   8.431  10.789   3.092 -1.4114  0.6169  0.4142
  838MOL0     H10581   8.219  10.887   3.202  0.9919  5.6236  2.2477
  838MOL0     H10582   8.050  10.850   3.576 -1.5316  0.5599 -0.7150
  838MOL0     H10583   8.104  10.742   3.442  1.1845  0.3101  1.6766
  838MOL0     H10584   7.888  10.856   3.382  0.0230  0.1440 -0.6807
  838MOL0     H10585   8.010  10.921   3.280  1.2376 -1.7229  0.4675
  838MOL0     H10586   7.901  11.121   3.341 -1.0663  0.0695  0.6067
  838MOL0     H10587   8.026  11.118   3.463 -0.0433 -0.2217 -0.5524
  838MOL0     H10588   7.741  11.015   3.510 -1.3191  2.7140 -0.1137
  838MOL0     H10589   7.870  11.015   3.637 -1.7417  2.0406  2.0503
  838MOL0     H10590   7.841  11.257   3.672 -3.9611  0.9464  2.6078
  838MOL0     H10591   7.676  11.202   3.625  0.3088  0.9153 -0.1987
  838MOL0     H10592   7.736  11.267   3.393  0.8935 -2.5204  0.6789
  838MOL0     H10593   7.887  11.332   3.459 -0.5004 -0.5246 -2.0828
  838MOL0     H10594   7.709  11.503   3.422  1.3853 -0.5959 -0.7048
  838MOL0     H10595   7.615  11.423   3.557  1.3179 -0.7534  1.6620
  838MOL0     H10596   7.893  11.526   3.598  0.1154 -2.7998 -0.8798
  838MOL0     H10597   7.769  11.476   3.711  1.0117 -2.0876 -0.3186
  838MOL0     H10598   8.424  10.799   3.577  1.6077 -1.8740 -0.4460
  838MOL0     H10599   8.627  10.738   3.454  0.4164 -0.4315 -1.4561
  838MOL0     H10600   9.023  10.863   3.161 -0.0497 -0.4785  2.4974
  838MOL0     H10601   9.194  10.792   3.012 -2.3777  2.2976  1.8312
  838MOL0     H10602   9.631  10.215   1.285  1.9890  0.0607  1.4225
  838MOL0     H10603   9.615  10.046   1.118  1.3464 -0.7586 -1.6216
  838MOL0     H10604   9.557   9.725   0.744 -0.9095  0.3591 -1.6778
  838MOL0     H10605   9.654   9.576   0.611  0.3400  1.0651 -2.1780
  838MOL0     H10606   9.769   9.488   0.443  4.0200  0.3597 -4.0875
  838MOL0     H10607   9.809   9.406   0.607  1.3319  0.2500  0.3817
  838MOL0     H10608  10.015   9.318   0.493 -0.3754  0.8401  0.8880
  838MOL0     H10609   9.869   9.256   0.413  0.9516 -1.5041  2.3286
  838MOL0     H10610   9.966   9.510   0.313  1.2794  0.0422 -2.2442
  838MOL0     H10611   9.897   9.363   0.229  0.0321 -2.0164  1.1874
  838MOL0     H10612  10.190   9.394   0.291 -1.3737  2.3816 -1.3041
  838MOL0     H10613  10.103   9.238   0.276 -0.3072 -0.2337 -0.0480
  838MOL0     H10614  10.186   9.394  -0.107 -0.8827  4.6179  0.6118
  838MOL0     H10615  10.038   9.775   0.642 -0.4765  1.7149  0.1426
  838MOL0     H10616   9.936   9.947   0.783  1.4165  1.1744 -3.6557
  839MOL0     O10617  11.223   2.419   9.326 -0.7144 -1.2331 -0.8085
  839MOL0     C10618  11.208   2.297   9.337 -0.6805  0.0540 -0.5026
  839MOL0     O10619  11.242   2.222   9.442  0.5573 -0.6158  0.1654
  839MOL0     C10620  11.280   2.276   9.563 -0.8838 -0.4623 -0.7065
  839MOL0     C10621  11.364   2.200   9.645 -0.5918  0.0863 -0.3206
  839MOL0     C10622  11.416   2.246   9.765 -1.0269 -0.0041 -0.1246
  839MOL0     C10623  11.385   2.368   9.813  0.5369  0.1670 -0.4685
  839MOL0     O10624  11.437   2.423   9.928 -0.0443  0.3560  0.2386
  839MOL0     C10625  11.529   2.357  10.015 -0.0720  0.5359 -0.7264
  839MOL0     C10626  11.508   2.413  10.158 -0.4671 -0.1302 -0.5208
  839MOL0     C10627  11.602   2.363  10.270  0.0449  1.1387  0.1052
  839MOL0     C10628  11.604   2.212  10.281  0.9383 -0.5733 -0.2329
  839MOL0     C10629  11.684   2.169  10.411 -0.6677 -0.0037 -0.8554
  839MOL0     C10630  11.615   2.185  10.548  0.1211 -1.0261  1.3639
  839MOL0     C10631  11.523   2.068  10.553  0.5405 -0.9440  0.0270
  839MOL0     C10632  11.404   2.093  10.640  0.8665  0.0797  0.1256
  839MOL0     N10633  11.377   1.992  10.742  0.9396  0.3321 -0.6182
  839MOL0     C10634  11.435   2.006  10.864  0.4205 -0.5413  0.7294
  839MOL0     C10635  11.437   1.882  10.923 -0.7712 -0.1768 -0.1240
  839MOL0     C10636  11.460   1.857  11.069 -0.3630 -0.0363 -0.1299
  839MOL0     C10637  11.520   1.713  11.096  1.4113 -0.0800  0.5112
  839MOL0     C10638  11.494   1.672  11.237  0.9243  0.7760 -0.1889
  839MOL0     C10639  11.530   1.522  11.257 -0.5080 -0.7315  0.6297
  839MOL0     O10640  11.509   1.487  11.399 -0.6621  0.4088 -0.1498
  839MOL0     C10641  11.528   1.360  11.448 -0.2547 -0.6206 -0.7475
  839MOL0     C10642  11.587   1.254  11.379 -0.5454  0.0360 -0.1193
  839MOL0     C10643  11.622   1.141  11.451 -0.5844 -0.6465  0.1696
  839MOL0     C10644  11.585   1.132  11.586  1.1537  0.1826  0.2407
  839MOL0     C10645  11.632   1.022  11.674  1.5048  0.5021  0.2779
  839MOL0     O10646  11.684   0.915  11.605  0.5201  0.0099 -0.0053
  839MOL0     C10647  11.734   0.819  11.684 -0.6662  0.5866 -0.0458
  839MOL0     C10648  11.878   0.825  11.703  0.3333  0.4428 -1.0999
  839MOL0     C10649  11.946   0.729  11.780  0.7318  0.4564  0.4867
  839MOL0     C10650  11.868   0.619  11.838 -0.8055 -0.1408 -0.0997
  839MOL0     O10651  11.926   0.515  11.897  0.5733 -0.0244  0.4294
  839MOL0     C10652  11.920   0.523  12.042 -0.6364 -0.0681 -0.4194
  839MOL0     C10653  11.978   0.397  12.104  0.2335  0.5668  0.2924
  839MOL0     C10654  11.896   0.273  12.071  0.9807 -0.1191 -0.4592
  839MOL0     C10655  11.936   0.138  12.135  0.5688  0.3886  0.2072
  839MOL0     C10656  12.070   0.098  12.077 -1.0973  0.3212 -0.6236
  839MOL0     C10657  12.133  -0.031  12.137  0.5880 -0.7921 -0.2782
  839MOL0     C10658  12.051  -0.157  12.124 -1.1894  0.4924  0.6650
  839MOL0     C10659  12.136  -0.275  12.181  0.3822  0.5127 -0.1937
  839MOL0    Cl10660  12.252  -0.321  12.060  0.3477 -0.1805  0.0446
  839MOL0     C10661  11.722   0.618  11.813 -0.0478 -1.1092  0.0824
  839MOL0     C10662  11.660   0.719  11.736 -0.4808 -0.6591 -0.8214
  839MOL0     O10663  11.620   1.031  11.796 -0.2529  0.1387  0.2476
  839MOL0     C10664  11.516   1.234  11.650  1.0516 -0.9077  0.0411
  839MOL0     C10665  11.489   1.354  11.580 -1.2097  0.3868 -1.3740
  839MOL0     N10666  11.376   1.802  10.828  0.4608  0.1179 -0.2391
  839MOL0     N10667  11.344   1.862  10.726 -0.8865 -0.1524 -0.0095
  839MOL0     C10668  11.298   2.447   9.740  0.7274  0.5687  0.4580
  839MOL0     C10669  11.246   2.400   9.616 -0.8291 -0.1847 -0.0607
  839MOL0     C10670  11.169   2.220   9.215  0.3820  0.4278  0.5135
  839MOL0     C10671  11.155   2.084   9.220  0.3478  0.1995  0.9961
  839MOL0     C10672  11.136   1.997   9.097  0.0355 -0.1397  0.0351
  839MOL0     C10673  11.137   2.057   8.972 -0.2039  0.0678  1.4834
  839MOL0     O10674  11.109   2.004   8.843  0.0414  0.5632 -0.5429
  839MOL0     C10675  11.126   1.860   8.829  0.1842 -0.2527 -0.4801
  839MOL0     C10676  11.058   1.814   8.700  0.7317 -0.1693  0.1483
  839MOL0     C10677  10.929   1.746   8.709  0.3850 -0.0524  0.4819
  839MOL0     C10678  10.881   1.655   8.592 -0.4077 -0.2642  0.5518
  839MOL0     C10679  10.958   1.525   8.590 -0.8479 -0.2987 -0.2106
  839MOL0     C10680  11.036   1.433   8.585  0.2664  0.3656  0.1306
  839MOL0     C10681  11.149   2.197   8.972 -0.3212 -0.2790 -0.8356
  839MOL0     C10682  11.162   2.275   9.089  0.6724  0.1324  0.1766
  839MOL0     H10683  11.401   2.106   9.606 -1.1718 -0.3982  0.2603
  839MOL0     H10684  11.503   2.195   9.804 -0.3244  1.1630 -0.1283
  839MOL0     H10685  11.624   2.400   9.982 -0.7218  1.4331 -1.4658
  839MOL0     H10686  11.541   2.248  10.019 -2.8152  0.1151  4.4696
  839MOL0     H10687  11.410   2.376  10.190 -1.5604  2.0007 -1.2266
  839MOL0     H10688  11.497   2.521  10.160 -1.6953 -0.2425  0.9950
  839MOL0     H10689  11.583   2.411  10.366  1.2203  1.3268  0.2571
  839MOL0     H10690  11.701   2.398  10.239 -0.7492  3.1467 -0.2993
  839MOL0     H10691  11.505   2.167  10.277  0.7616 -0.1683 -0.4163
  839MOL0     H10692  11.665   2.176  10.197  0.0324  1.5506 -1.8900
  839MOL0     H10693  11.770   2.236  10.405  0.7766 -1.7896 -0.8102
  839MOL0     H10694  11.708   2.063  10.399 -3.4605 -0.8307  0.0447
  839MOL0     H10695  11.565   2.282  10.544  0.9986 -0.3696  4.0378
  839MOL0     H10696  11.677   2.177  10.638 -1.2629 -1.4030  2.3190
  839MOL0     H10697  11.474   2.051  10.457 -2.0763  0.7511  0.9396
  839MOL0     H10698  11.583   1.977  10.564 -0.4774 -1.6887 -0.4363
  839MOL0     H10699  11.318   2.096  10.573  0.1466 -0.3740  1.0004
  839MOL0     H10700  11.403   2.193  10.684 -0.0171 -0.4007  1.2733
  839MOL0     H10701  11.473   2.096  10.912  1.2949  0.6304 -1.9793
  839MOL0     H10702  11.371   1.872  11.132  2.0574  2.1232  3.1354
  839MOL0     H10703  11.536   1.927  11.105  3.0086 -3.7096  0.5232
  839MOL0     H10704  11.628   1.716  11.078  1.5089  2.0102  1.1878
  839MOL0     H10705  11.479   1.635  11.031  2.4009 -0.6046  0.5076
  839MOL0     H10706  11.550   1.726  11.314  1.6269  2.2987 -1.7126
  839MOL0     H10707  11.385   1.677  11.248  0.7644 -0.9748 -0.6435
  839MOL0     H10708  11.636   1.508  11.232 -0.6930 -1.2556  0.0917
  839MOL0     H10709  11.479   1.450  11.192 -1.5114 -0.7058  1.3775
  839MOL0     H10710  11.633   1.259  11.281  3.1583  1.3850  1.5094
  839MOL0     H10711  11.703   1.084  11.408 -3.0068 -2.4191 -2.4467
  839MOL0     H10712  11.932   0.909  11.661 -3.0959  2.4538 -1.9096
  839MOL0     H10713  12.054   0.734  11.785  0.7112  1.2153  0.2980
  839MOL0     H10714  11.816   0.540  12.072 -0.4616 -1.3899  1.0184
  839MOL0     H10715  11.988   0.605  12.069  0.9490 -1.3625 -0.2905
  839MOL0     H10716  11.966   0.416  12.211  0.3913  0.3591  0.3470
  839MOL0     H10717  12.082   0.395  12.070  0.2312 -3.7832 -0.1321
  839MOL0     H10718  11.902   0.258  11.963  1.0117  0.2282 -0.5071
  839MOL0     H10719  11.794   0.298  12.101  0.6299 -0.2545 -1.5180
  839MOL0     H10720  11.949   0.152  12.242  1.2747 -1.6883  0.4439
  839MOL0     H10721  11.860   0.062  12.113  2.2938 -0.9784 -1.4023
  839MOL0     H10722  12.144   0.178  12.065 -2.4984  1.3958 -2.6340
  839MOL0     H10723  12.044   0.077  11.973 -1.7737  1.9168 -0.7974
  839MOL0     H10724  12.143  -0.012  12.244 -5.1706  0.0824  0.4293
  839MOL0     H10725  12.231  -0.043  12.090  1.9822  0.9080  1.9894
  839MOL0     H10726  11.948  -0.143  12.157 -1.0349  1.3119  0.8258
  839MOL0     H10727  12.038  -0.183  12.018  2.2225  0.0886  0.2290
  839MOL0     H10728  12.066  -0.358  12.195 -2.9846  3.1316 -0.1631
  839MOL0     H10729  12.190  -0.248  12.273 -1.7815  0.2591  1.2341
  839MOL0     H10730  11.655   0.545  11.856  0.8742 -2.2525 -0.3829
  839MOL0     H10731  11.552   0.719  11.727 -0.5524 -4.0166 -1.3872
  839MOL0     H10732  11.499   1.240  11.757 -2.1304 -4.1433 -0.1208
  839MOL0     H10733  11.446   1.441  11.628  2.6283  1.3108  0.7893
  839MOL0     H10734  11.265   2.538   9.790 -0.5843  0.5516 -0.3483
  839MOL0     H10735  11.194   2.471   9.553 -0.4120 -0.5289 -0.8068
  839MOL0     H10736  11.152   2.024   9.311 -1.6657 -1.1662  0.1068
  839MOL0     H10737  11.116   1.893   9.119  1.1986  0.0667  2.3916
  839MOL0     H10738  11.083   1.802   8.912 -0.1521 -2.2418 -1.9606
  839MOL0     H10739  11.233   1.834   8.826 -0.0106 -1.0566 -0.7575
  839MOL0     H10740  11.043   1.903   8.639 -2.6368 -0.8153 -0.1532
  839MOL0     H10741  11.124   1.738   8.656 -0.5454 -1.3702  0.2335
  839MOL0     H10742  10.854   1.826   8.705  1.1815  0.7978  1.8724
  839MOL0     H10743  10.915   1.685   8.799 -1.0421  1.5244  1.3985
  839MOL0     H10744  10.773   1.639   8.590 -0.4895  0.1362  1.2424
  839MOL0     H10745  10.892   1.709   8.498  2.2340  3.5359  2.7388
  839MOL0     H10746  11.096   1.346   8.568 -0.9259 -0.6288  0.8426
  839MOL0     H10747  11.152   2.251   8.878  0.3854  0.0502 -0.6255
  839MOL0     H10748  11.181   2.381   9.075  2.5817 -0.3142 -1.0940
  840MOL0     O10749   2.250   4.538   1.189  0.1308 -0.4300 -0.0646
  840MOL0     C10750   2.132   4.523   1.216  0.2121 -0.6447 -0.4009
  840MOL0     O10751   2.027   4.586   1.164 -0.3633 -0.3954  0.3554
  840MOL0     C10752   2.053   4.682   1.066 -0.9115  0.8132 -0.5079
  840MOL0     C10753   2.096   4.641   0.942  0.6395  0.5509 -1.1235
  840MOL0     C10754   2.110   4.736   0.836  0.4846 -0.2211  0.0117
  840MOL0     C10755   2.086   4.877   0.854 -0.5144  1.0756  0.1811
  840MOL0     O10756   2.109   4.963   0.753 -0.0856  0.3007  0.7215
  840MOL0     C10757   2.135   5.097   0.786  0.0306 -0.9773 -0.1359
  840MOL0     C10758   2.007   5.186   0.796 -0.1793 -0.1572  0.5834
  840MOL0     C10759   1.993   5.251   0.656  0.0804 -0.5377  0.2637
  840MOL0     C10760   1.865   5.335   0.633 -0.5457  0.3605 -0.4340
  840MOL0     C10761   1.876   5.480   0.678 -0.6822 -1.0950  0.6738
  840MOL0     C10762   1.774   5.578   0.627  0.0529 -0.2930  0.8519
  840MOL0     C10763   1.791   5.722   0.666  0.0245  0.0774  0.6433
  840MOL0     C10764   1.698   5.809   0.591  0.0320  0.3190 -0.3937
  840MOL0     N10765   1.565   5.826   0.675 -0.1292 -0.5173  0.5598
  840MOL0     C10766   1.514   5.950   0.717  0.3332  1.0060 -1.2886
  840MOL0     C10767   1.394   5.909   0.775  0.5475  0.5778  0.3595
  840MOL0     C10768   1.293   5.999   0.838  0.8923 -0.2607  0.1007
  840MOL0     C10769   1.313   6.012   0.991  0.4648  0.1816 -0.0131
  840MOL0     C10770   1.349   5.875   1.059  0.3363  0.2936 -0.0320
  840MOL0     C10771   1.340   5.871   1.206 -0.4278  0.2741 -0.3257
  840MOL0     O10772   1.475   5.910   1.253  0.3111  0.8161 -0.0040
  840MOL0     C10773   1.514   5.996   1.349  0.1339 -0.4199  1.2978
  840MOL0     C10774   1.651   6.014   1.347 -0.5313  0.4525  0.4668
  840MOL0     C10775   1.703   6.091   1.436  0.5970 -1.4253 -0.7490
  840MOL0     C10776   1.629   6.153   1.540 -0.3997 -0.1819  0.2137
  840MOL0     C10777   1.703   6.242   1.636  0.0131  0.2922 -0.3707
  840MOL0     O10778   1.835   6.280   1.608  0.6446  0.5881  0.2026
  840MOL0     C10779   1.892   6.343   1.709  0.8598  0.5052 -0.8420
  840MOL0     C10780   1.891   6.485   1.707 -1.1091 -0.1951 -0.8332
  840MOL0     C10781   1.952   6.555   1.816 -0.8393  0.0042  0.0054
  840MOL0     C10782   2.001   6.488   1.929  0.2044 -0.3442 -0.8068
  840MOL0     O10783   2.060   6.569   2.018  0.5236  0.0627 -0.1578
  840MOL0     C10784   2.137   6.527   2.136 -0.9074 -1.2571 -0.8289
  840MOL0     C10785   2.046   6.541   2.261 -0.2677 -0.1976  0.0587
  840MOL0     C10786   2.128   6.536   2.397  0.8992 -0.2112  0.0042
  840MOL0     C10787   2.050   6.594   2.514 -0.1498 -0.6453 -0.6249
  840MOL0     C10788   2.144   6.634   2.628 -1.3584  0.3480  0.0117
  840MOL0     C10789   2.059   6.677   2.747 -0.6113 -0.7683  0.2228
  840MOL0     C10790   2.144   6.705   2.872 -0.3225  0.2135 -0.5257
  840MOL0     C10791   2.143   6.602   2.995 -0.0093 -0.3263 -0.0451
  840MOL0    Cl10792   1.977   6.614   3.067  0.1169 -0.2455  0.2119
  840MOL0     C10793   1.998   6.352   1.929  1.0622 -0.1360 -0.1855
  840MOL0     C10794   1.947   6.283   1.825  0.0135  0.4374  0.1220
  840MOL0     O10795   1.639   6.268   1.737  1.0234  0.3340 -0.9802
  840MOL0     C10796   1.486   6.142   1.548  0.9455  0.3973  0.0590
  840MOL0     C10797   1.435   6.070   1.439 -0.4259 -0.9013  0.2672
  840MOL0     N10798   1.387   5.768   0.775  0.6539  0.7320  0.4616
  840MOL0     N10799   1.490   5.723   0.717  0.0935 -0.1292 -0.1302
  840MOL0     C10800   2.046   4.909   0.986 -0.4255 -0.9330  0.3716
  840MOL0     C10801   2.025   4.817   1.088 -0.3466  0.0414 -0.2534
  840MOL0     C10802   2.117   4.448   1.343  0.6993  0.5812 -0.8266
  840MOL0     C10803   2.224   4.410   1.436  0.6981 -0.3523 -0.5155
  840MOL0     C10804   2.199   4.351   1.558 -0.9868 -0.2361 -0.3084
  840MOL0     C10805   2.074   4.321   1.598  0.6073  0.5775 -0.5694
  840MOL0     O10806   2.060   4.259   1.720  0.0739  0.0160  0.6517
  840MOL0     C10807   1.948   4.173   1.758 -0.0417 -0.2679  0.0614
  840MOL0     C10808   1.987   4.077   1.865 -0.2629 -0.1004  1.0076
  840MOL0     C10809   2.025   4.136   2.003 -0.2015  0.0027  0.4733
  840MOL0     C10810   1.923   4.228   2.056 -0.1831 -0.5374  0.0055
  840MOL0     C10811   1.795   4.171   2.096 -1.0076  0.0796 -0.6841
  840MOL0     C10812   1.704   4.114   2.145  0.1590 -0.4654 -0.1525
  840MOL0     C10813   1.969   4.343   1.505  0.1554  0.5569 -0.1985
  840MOL0     C10814   1.986   4.412   1.386  0.8177 -0.4176 -0.2500
  840MOL0     H10815   2.111   4.534   0.927  1.3900  0.3757  0.6194
  840MOL0     H10816   2.147   4.705   0.739 -1.5354  2.7608 -1.8728
  840MOL0     H10817   2.203   5.137   0.710  1.6915 -1.1016  1.2253
  840MOL0     H10818   2.188   5.101   0.882 -3.5339 -1.3396  2.0250
  840MOL0     H10819   2.030   5.262   0.871 -1.1679  1.0528 -0.3064
  840MOL0     H10820   1.919   5.131   0.831 -0.5660 -0.3715 -0.6617
  840MOL0     H10821   1.998   5.168   0.585 -2.3828 -0.0701 -0.5794
  840MOL0     H10822   2.079   5.315   0.636 -1.4817  1.3821 -0.7717
  840MOL0     H10823   1.847   5.348   0.526 -2.2459 -0.4285 -0.2802
  840MOL0     H10824   1.779   5.283   0.677  0.3470  0.7648  1.9226
  840MOL0     H10825   1.978   5.515   0.657  0.2401 -2.6438  2.3724
  840MOL0     H10826   1.851   5.482   0.784  2.7386  0.0239  1.5622
  840MOL0     H10827   1.671   5.552   0.653  0.9006 -2.4712  2.3198
  840MOL0     H10828   1.780   5.579   0.518  0.4562  0.0820  0.8760
  840MOL0     H10829   1.796   5.733   0.774  4.1309 -0.4645  0.6581
  840MOL0     H10830   1.890   5.757   0.637 -0.1266  0.0459  0.0759
  840MOL0     H10831   1.685   5.779   0.487  1.8531  0.5469 -0.7218
  840MOL0     H10832   1.738   5.911   0.600 -1.5819  0.9860 -0.3371
  840MOL0     H10833   1.557   6.050   0.721  1.4588  0.4949  1.1211
  840MOL0     H10834   1.191   5.960   0.825 -0.3830  1.7316  3.0107
  840MOL0     H10835   1.287   6.095   0.785  1.8160  0.2659  0.9250
  840MOL0     H10836   1.220   6.059   1.024  0.0899 -0.7282  0.2605
  840MOL0     H10837   1.394   6.080   1.022  1.2036 -1.6279  2.3445
  840MOL0     H10838   1.278   5.804   1.015 -1.1979  0.8698  1.3932
  840MOL0     H10839   1.451   5.850   1.028  0.0656 -1.3882  0.3302
  840MOL0     H10840   1.326   5.770   1.247 -2.1200  0.5951 -0.0309
  840MOL0     H10841   1.265   5.936   1.253  0.6869  1.4523 -0.1193
  840MOL0     H10842   1.712   5.960   1.275 -1.2175 -1.6073  1.3343
  840MOL0     H10843   1.809   6.114   1.434  0.8706 -2.6375 -1.0263
  840MOL0     H10844   1.860   6.536   1.616  1.0764  0.7180 -1.1332
  840MOL0     H10845   1.963   6.663   1.817 -0.6713 -0.0157  0.4251
  840MOL0     H10846   2.229   6.585   2.143 -2.1510  0.6628  0.7082
  840MOL0     H10847   2.162   6.421   2.126 -2.4260 -1.7138 -0.1309
  840MOL0     H10848   1.970   6.462   2.261  0.2338 -0.6973 -0.8661
  840MOL0     H10849   1.995   6.638   2.260  1.7956  0.9329 -0.5689
  840MOL0     H10850   2.217   6.591   2.365 -1.5499  2.4121 -2.8792
  840MOL0     H10851   2.151   6.434   2.432 -2.6248 -1.7572 -1.6655
  840MOL0     H10852   1.982   6.678   2.497 -0.3369 -0.5234  0.6262
  840MOL0     H10853   1.979   6.520   2.551 -0.4536 -0.3194 -0.5448
  840MOL0     H10854   2.212   6.715   2.600 -1.9031  0.7305 -0.2331
  840MOL0     H10855   2.211   6.551   2.650 -3.1286 -1.0838  0.2589
  840MOL0     H10856   1.982   6.606   2.780 -1.0472 -1.0596 -1.3536
  840MOL0     H10857   2.013   6.770   2.713  1.4187  1.0278  2.0846
  840MOL0     H10858   2.250   6.713   2.845 -0.8363  1.6654 -2.2771
  840MOL0     H10859   2.108   6.804   2.900 -1.3268  0.0851 -1.3205
  840MOL0     H10860   2.219   6.629   3.069  0.0320  1.5164 -0.7055
  840MOL0     H10861   2.146   6.499   2.957  0.1472 -0.7844  1.1478
  840MOL0     H10862   2.034   6.290   2.011  1.1618  0.8312  0.5290
  840MOL0     H10863   1.942   6.174   1.823 -0.9836  0.4894 -1.9074
  840MOL0     H10864   1.430   6.198   1.623  1.2620  2.2188 -0.9949
  840MOL0     H10865   1.328   6.053   1.448 -0.0187 -2.7118  3.1325
  840MOL0     H10866   2.028   5.011   1.018  0.7359 -0.4481 -0.4191
  840MOL0     H10867   1.987   4.842   1.187 -0.2808  2.6126 -0.7984
  840MOL0     H10868   2.329   4.436   1.427  0.3989  0.4171 -2.2277
  840MOL0     H10869   2.282   4.334   1.626  1.3164 -0.1374 -2.9115
  840MOL0     H10870   1.905   4.112   1.679 -2.5860  0.8433  0.4720
  840MOL0     H10871   1.873   4.239   1.803  0.0341 -0.4653  0.4830
  840MOL0     H10872   1.896   4.019   1.883  0.3427 -1.6126 -0.6021
  840MOL0     H10873   2.063   4.005   1.835 -1.2330 -1.4521  1.7031
  840MOL0     H10874   2.116   4.191   1.980 -0.7264 -0.3025 -2.9036
  840MOL0     H10875   2.048   4.048   2.064  3.5707 -2.7658 -4.1587
  840MOL0     H10876   1.959   4.273   2.148  1.8098 -0.1917 -0.8965
  840MOL0     H10877   1.901   4.317   1.995 -3.3904 -2.0132 -1.2121
  840MOL0     H10878   1.651   4.046   2.209 -0.3664 -0.6892 -0.8180
  840MOL0     H10879   1.865   4.330   1.530  0.6733 -2.0348  0.9573
  840MOL0     H10880   1.894   4.445   1.340 -1.1971  0.4185  3.9875
  841MOL0     O10881   6.667   9.969  11.158  0.5121  0.1629 -0.1953
  841MOL0     C10882   6.771   9.931  11.112 -0.5369  0.7001  0.0958
  841MOL0     O10883   6.887   9.926  11.187 -0.0303  0.8056  0.5348
  841MOL0     C10884   6.901   9.977  11.314 -0.0396 -0.0166 -0.6728
  841MOL0     C10885   6.983   9.895  11.394  0.1953  0.5393 -1.4266
  841MOL0     C10886   7.007   9.946  11.521 -0.0700 -0.2973 -0.4320
  841MOL0     C10887   6.950  10.067  11.569  0.6978 -0.1559  0.4969
  841MOL0     O10888   6.994  10.114  11.688 -0.1592 -0.1127  0.3935
  841MOL0     C10889   6.898  10.173  11.777 -0.6924 -0.4396 -0.0776
  841MOL0     C10890   6.974  10.250  11.882  0.2025 -0.2165  0.6535
  841MOL0     C10891   7.059  10.177  11.981 -0.0843 -0.6990  1.1866
  841MOL0     C10892   7.101  10.269  12.101  0.0892  0.4188  0.0803
  841MOL0     C10893   7.188  10.196  12.211 -0.1359 -0.1549  1.0395
  841MOL0     C10894   7.343  10.197  12.178 -0.2776 -0.2053  0.4128
  841MOL0     C10895   7.413  10.124  12.296  0.3327 -0.5806  0.3377
  841MOL0     C10896   7.556  10.072  12.282 -0.5603  0.5887 -0.3220
  841MOL0     N10897   7.659  10.174  12.257  0.6784 -0.6460  0.2125
  841MOL0     C10898   7.722  10.188  12.135 -0.1641  0.0346 -1.4768
  841MOL0     C10899   7.786  10.306  12.145  1.3490 -1.0537  0.3867
  841MOL0     C10900   7.881  10.370  12.044  0.3459  0.1509  0.0809
  841MOL0     C10901   8.010  10.426  12.111 -0.3583 -0.5679  0.4029
  841MOL0     C10902   8.123  10.455  12.015  0.0627  0.1404 -0.3685
  841MOL0     C10903   8.087  10.577  11.927  0.4413 -0.6004  0.0801
  841MOL0     O10904   8.181  10.589  11.826  0.1697 -0.5804 -0.1954
  841MOL0     C10905   8.170  10.527  11.698 -0.8101 -0.3691  0.2139
  841MOL0     C10906   8.254  10.583  11.603 -0.6490 -0.0250 -0.1753
  841MOL0     C10907   8.270  10.534  11.473  0.4304  0.0744 -0.0883
  841MOL0     C10908   8.184  10.431  11.433  0.6106 -0.2427 -0.0601
  841MOL0     C10909   8.178  10.383  11.294 -0.8054  0.5238 -0.2978
  841MOL0     O10910   8.099  10.276  11.268  0.2949  0.3476  0.3773
  841MOL0     C10911   8.076  10.227  11.143 -1.2940 -0.5096  0.4449
  841MOL0     C10912   7.988  10.121  11.145 -1.0232  0.2872  0.0312
  841MOL0     C10913   7.944  10.054  11.036 -1.2009 -0.2664  0.4161
  841MOL0     C10914   7.987  10.103  10.911 -0.3699 -0.4229 -0.6448
  841MOL0     O10915   7.982  10.025  10.792 -0.2010  0.0356 -0.2869
  841MOL0     C10916   7.959   9.884  10.796  0.5969 -0.1891 -0.8833
  841MOL0     C10917   8.053   9.796  10.879  0.1652 -0.7555 -0.6119
  841MOL0     C10918   8.202   9.828  10.855 -0.3745  0.2780  0.1804
  841MOL0     C10919   8.252   9.802  10.718 -0.4276 -0.0550 -0.6339
  841MOL0     C10920   8.294   9.929  10.656  0.2052 -0.4220  0.3400
  841MOL0     C10921   8.351   9.897  10.509  0.5647 -1.0071 -0.1767
  841MOL0     C10922   8.248   9.842  10.403  0.1560  0.2494  0.0658
  841MOL0     C10923   8.325   9.800  10.279  0.5014  0.0050 -1.0874
  841MOL0    Cl10924   8.374   9.933  10.200 -0.2824 -0.0245  0.0679
  841MOL0     C10925   8.063  10.223  10.897  0.3841  0.1200  0.2622
  841MOL0     C10926   8.111  10.279  11.012  0.5222  0.6428 -0.4469
  841MOL0     O10927   8.252  10.439  11.217  0.2233  0.2805 -0.6219
  841MOL0     C10928   8.111  10.363  11.527  0.4930 -0.2631 -0.8649
  841MOL0     C10929   8.104  10.412  11.657  0.4511  0.0050 -0.7659
  841MOL0     N10930   7.752  10.369  12.260 -0.0275  0.6398 -0.8283
  841MOL0     N10931   7.678  10.284  12.333 -1.2463 -0.0055  0.4660
  841MOL0     C10932   6.881  10.146  11.476  0.2389 -0.0706 -0.1947
  841MOL0     C10933   6.864  10.104  11.347  0.2361 -0.2275 -0.4298
  841MOL0     C10934   6.779   9.904  10.974  0.4899 -0.5769  0.4555
  841MOL0     C10935   6.888   9.833  10.915 -0.2200  0.0813 -1.1116
  841MOL0     C10936   6.888   9.807  10.780 -0.5811 -1.1205 -0.0690
  841MOL0     C10937   6.789   9.848  10.698 -0.2010 -0.0514  1.0079
  841MOL0     O10938   6.803   9.833  10.565 -0.0394 -0.1442  0.4836
  841MOL0     C10939   6.837   9.694  10.517  0.0872 -0.9190 -0.0494
  841MOL0     C10940   6.735   9.663  10.410 -0.2718  0.4084 -0.2336
  841MOL0     C10941   6.593   9.634  10.467 -0.7559  0.6282  0.4132
  841MOL0     C10942   6.488   9.653  10.356 -0.6222  0.9129 -0.3695
  841MOL0     C10943   6.486   9.551  10.249 -0.1936  0.7283 -0.4714
  841MOL0     C10944   6.461   9.465  10.164 -0.1553 -0.3316  0.1378
  841MOL0     C10945   6.679   9.918  10.755  0.2263 -0.3373 -1.3040
  841MOL0     C10946   6.676   9.949  10.888  0.1105 -0.6745 -0.5745
  841MOL0     H10947   7.006   9.792  11.370  0.6205  0.5999 -1.2844
  841MOL0     H10948   7.068   9.889  11.590 -1.1887 -0.3723  0.5301
  841MOL0     H10949   6.842  10.089  11.819 -0.1521 -0.5529  0.4266
  841MOL0     H10950   6.831  10.249  11.735 -0.5463  1.8646  3.4334
  841MOL0     H10951   6.889  10.293  11.936  0.2523 -2.6401  2.8601
  841MOL0     H10952   7.035  10.329  11.836 -0.3151  0.6053  1.3308
  841MOL0     H10953   7.145  10.127  11.935  0.4110  0.6424  0.6109
  841MOL0     H10954   7.001  10.092  12.019 -1.6635  0.1502  0.7330
  841MOL0     H10955   7.164  10.352  12.067  0.4985  0.7770  1.6221
  841MOL0     H10956   7.017  10.323  12.144  1.4074  2.2406  0.4960
  841MOL0     H10957   7.153  10.094  12.229 -1.6916 -0.0601 -1.0054
  841MOL0     H10958   7.172  10.255  12.302  0.9054  1.2889  0.3347
  841MOL0     H10959   7.366  10.304  12.183  1.4201 -0.3899 -1.6100
  841MOL0     H10960   7.361  10.148  12.081  1.7562 -1.6453  1.4468
  841MOL0     H10961   7.400  10.195  12.378 -0.4230  2.5475 -2.2487
  841MOL0     H10962   7.344  10.040  12.307 -1.6534  1.1075  1.5559
  841MOL0     H10963   7.568   9.998  12.203  1.3357  0.6290 -0.1340
  841MOL0     H10964   7.597  10.026  12.373  0.4803  2.8482  0.4372
  841MOL0     H10965   7.705  10.130  12.045 -0.4645 -0.0256 -1.3818
  841MOL0     H10966   7.823  10.458  12.017 -1.0005  0.3713  3.2294
  841MOL0     H10967   7.905  10.307  11.957  0.4588 -2.2355  1.7400
  841MOL0     H10968   8.055  10.363  12.189  2.3909  2.2284  1.2643
  841MOL0     H10969   7.982  10.517  12.163 -0.2245  0.3855 -1.1307
  841MOL0     H10970   8.203  10.475  12.087 -0.6752 -2.1302  1.1985
  841MOL0     H10971   8.148  10.361  11.965  1.2193  0.0311  0.3760
  841MOL0     H10972   8.073  10.669  11.983  2.3049  1.9240 -3.2307
  841MOL0     H10973   7.991  10.561  11.879  0.0705 -0.9981  0.9327
  841MOL0     H10974   8.312  10.666  11.644 -2.6240  1.0654  0.5430
  841MOL0     H10975   8.333  10.576  11.395  1.5285 -1.5551 -0.1364
  841MOL0     H10976   7.963  10.076  11.241 -0.9214  1.7868  0.7927
  841MOL0     H10977   7.885   9.966  11.057  1.2456 -1.7241  1.4985
  841MOL0     H10978   7.954   9.855  10.691  0.4127 -0.0454 -0.9157
  841MOL0     H10979   7.856   9.861  10.828  0.5311  0.4061 -0.6640
  841MOL0     H10980   8.041   9.688  10.862  1.8301 -1.3741  1.5837
  841MOL0     H10981   8.042   9.816  10.986  1.3028 -1.1597 -0.4039
  841MOL0     H10982   8.262   9.780  10.933 -0.4873 -1.1457 -0.5823
  841MOL0     H10983   8.213   9.936  10.869  1.8184 -0.2744  4.7378
  841MOL0     H10984   8.344   9.744  10.722  0.5234  1.4771  2.0717
  841MOL0     H10985   8.177   9.751  10.656  0.8799  1.6659 -3.8558
  841MOL0     H10986   8.378   9.973  10.709  0.8086 -1.3955  0.2238
  841MOL0     H10987   8.212  10.000  10.640 -0.8570 -1.4994  0.8088
  841MOL0     H10988   8.438   9.830  10.507  1.3318 -0.0266 -0.7639
  841MOL0     H10989   8.387   9.991  10.464  1.9096 -2.2726 -1.8897
  841MOL0     H10990   8.204   9.751  10.444 -0.1093  0.5896  0.5465
  841MOL0     H10991   8.168   9.914  10.382 -1.3747 -0.2217  3.6976
  841MOL0     H10992   8.262   9.740  10.213  0.0441 -0.4486 -0.2606
  841MOL0     H10993   8.411   9.746  10.321  1.9645  3.2457  0.4424
  841MOL0     H10994   8.110  10.248  10.803  2.9061  2.0919  1.9209
  841MOL0     H10995   8.170  10.367  10.988  1.0291 -0.4435 -3.7102
  841MOL0     H10996   8.055  10.278  11.489  1.5104 -0.6197 -1.6308
  841MOL0     H10997   8.042  10.361  11.730  3.9783 -1.5156  1.4411
  841MOL0     H10998   6.856  10.250  11.496 -1.3738 -0.2069 -1.2662
  841MOL0     H10999   6.818  10.172  11.276 -2.1594  0.7688  1.8938
  841MOL0     H11000   6.966   9.799  10.982 -0.4289  3.4026  1.0635
  841MOL0     H11001   6.970   9.755  10.731  1.0338  1.6593 -0.5117
  841MOL0     H11002   6.816   9.629  10.603 -0.4412  0.3540  0.8156
  841MOL0     H11003   6.938   9.683  10.477 -0.0363 -1.0371 -0.3271
  841MOL0     H11004   6.754   9.750  10.346  1.9143 -1.0366 -1.7098
  841MOL0     H11005   6.771   9.572  10.360 -0.9210 -0.3745  0.7028
  841MOL0     H11006   6.571   9.706  10.546 -1.5394  3.0298 -1.8251
  841MOL0     H11007   6.593   9.533  10.509 -1.1058  0.3544 -0.2276
  841MOL0     H11008   6.387   9.644  10.397 -0.7329 -0.7811 -0.9380
  841MOL0     H11009   6.510   9.750  10.309  1.4140  1.3238  1.2710
  841MOL0     H11010   6.428   9.387  10.099 -1.5285 -0.2440  0.7011
  841MOL0     H11011   6.593   9.935  10.691 -1.2495 -0.1133  0.6541
  841MOL0     H11012   6.595  10.002  10.938 -1.1693 -3.0079 -0.0325
  842MOL0     O11013   9.358   3.768   6.235  0.0572  0.3960 -0.4274
  842MOL0     C11014   9.451   3.832   6.189  0.1057 -0.7417 -0.3588
  842MOL0     O11015   9.448   3.954   6.131 -0.6493 -0.2064  0.6272
  842MOL0     C11016   9.362   4.042   6.174 -0.8776 -0.6353 -0.4200
  842MOL0     C11017   9.278   4.124   6.094  0.1290 -1.0636 -0.0276
  842MOL0     C11018   9.186   4.220   6.149 -1.0821  0.1900  0.4372
  842MOL0     C11019   9.172   4.234   6.287  0.4918 -0.4028  0.3695
  842MOL0     O11020   9.079   4.325   6.332  0.8829  0.1582  0.3159
  842MOL0     C11021   9.074   4.347   6.467 -0.3181  0.7426 -0.1412
  842MOL0     C11022   8.958   4.448   6.476 -1.2370 -0.7108 -0.1478
  842MOL0     C11023   8.821   4.401   6.430 -0.0301  0.1080  0.3999
  842MOL0     C11024   8.702   4.484   6.485  0.0898  0.0755  0.4884
  842MOL0     C11025   8.685   4.461   6.633 -0.2069 -0.0210  0.6546
  842MOL0     C11026   8.618   4.320   6.680 -0.3931  0.2820  0.5172
  842MOL0     C11027   8.576   4.324   6.831  0.3327 -0.1098 -0.9604
  842MOL0     C11028   8.522   4.190   6.888  0.6105  0.6226  0.9744
  842MOL0     N11029   8.471   4.217   7.016 -0.2373 -0.1431  0.6182
  842MOL0     C11030   8.548   4.225   7.132  0.1530  0.0980 -0.8007
  842MOL0     C11031   8.460   4.215   7.234 -0.3685 -0.5125 -0.0387
  842MOL0     C11032   8.483   4.206   7.374 -0.1253 -0.2735 -0.9731
  842MOL0     C11033   8.499   4.062   7.409  0.1732  0.5488 -0.1930
  842MOL0     C11034   8.621   3.983   7.344  0.1679 -0.2541 -0.5595
  842MOL0     C11035   8.627   3.835   7.391 -0.0779 -0.2384  0.2543
  842MOL0     O11036   8.754   3.782   7.365  0.7369  0.5002 -0.8062
  842MOL0     C11037   8.865   3.832   7.441  0.1028 -0.2694  0.8140
  842MOL0     C11038   8.990   3.790   7.395  0.3246  0.3208 -0.2571
  842MOL0     C11039   9.109   3.819   7.463  0.7614  0.4408  0.7415
  842MOL0     C11040   9.105   3.903   7.577  0.5010 -0.0679  0.2056
  842MOL0     C11041   9.235   3.955   7.629  0.4072  0.0892  0.1798
  842MOL0     O11042   9.236   4.087   7.645  0.7390 -0.3457  0.7170
  842MOL0     C11043   9.301   4.127   7.757 -0.6846  0.8507 -0.1817
  842MOL0     C11044   9.270   4.081   7.891  0.0499 -0.1168  0.6118
  842MOL0     C11045   9.354   4.118   7.998 -0.9531  0.3124  0.6238
  842MOL0     C11046   9.440   4.218   7.982 -0.2335  0.1895  0.4346
  842MOL0     O11047   9.497   4.266   8.095 -0.0452  0.1513  0.2152
  842MOL0     C11048   9.630   4.335   8.100  0.4026  0.1137 -0.6869
  842MOL0     C11049   9.742   4.226   8.104  0.7270 -0.2645  0.0729
  842MOL0     C11050   9.700   4.123   8.203 -0.3057  0.2722 -0.6912
  842MOL0     C11051   9.819   4.052   8.260 -0.5950 -0.0047  0.6340
  842MOL0     C11052   9.799   3.939   8.364 -0.5487 -0.3599  0.6778
  842MOL0     C11053   9.932   3.857   8.362  0.0260 -0.7179  0.0010
  842MOL0     C11054   9.930   3.754   8.481  0.8288 -0.7249 -0.2263
  842MOL0     C11055  10.021   3.645   8.447 -0.0865  0.1238  0.1489
  842MOL0    Cl11056  10.043   3.544   8.593 -0.0342  0.5489  0.3039
  842MOL0     C11057   9.462   4.275   7.855  0.1453  0.2953 -0.7167
  842MOL0     C11058   9.393   4.226   7.747 -1.6140 -0.2745  0.4858
  842MOL0     O11059   9.329   3.875   7.647  0.4907 -0.0568  0.5017
  842MOL0     C11060   8.985   3.970   7.608  0.3043  1.4422 -0.0509
  842MOL0     C11061   8.864   3.930   7.547 -0.2201  0.6334 -0.2317
  842MOL0     N11062   8.338   4.203   7.180 -0.4385 -0.8799  0.3304
  842MOL0     N11063   8.341   4.225   7.052  0.1145 -0.7513 -0.2740
  842MOL0     C11064   9.253   4.152   6.362 -0.7975  0.9938 -0.7516
  842MOL0     C11065   9.344   4.057   6.313 -0.3271  0.2104 -0.9595
  842MOL0     C11066   9.582   3.761   6.209 -0.3796  0.3480 -0.0231
  842MOL0     C11067   9.609   3.629   6.261  0.6469 -0.0574 -0.0857
  842MOL0     C11068   9.728   3.577   6.284 -0.2568  0.4704 -0.7834
  842MOL0     C11069   9.842   3.643   6.259  1.3181  0.4846  0.5623
  842MOL0     O11070   9.959   3.580   6.278  0.3007  0.1203  0.1747
  842MOL0     C11071  10.082   3.648   6.306  0.5434 -0.1707  0.1162
  842MOL0     C11072  10.086   3.705   6.440  0.1954  0.6434  0.1462
  842MOL0     C11073  10.199   3.809   6.457 -0.4795  0.6039  0.3910
  842MOL0     C11074  10.228   3.842   6.606 -0.4640 -0.3419 -0.2317
  842MOL0     C11075  10.130   3.926   6.664  0.4427  0.2579 -0.3635
  842MOL0     C11076  10.025   3.992   6.695 -1.2923 -0.3777 -0.1005
  842MOL0     C11077   9.821   3.776   6.207 -0.0650  0.0839  0.0081
  842MOL0     C11078   9.697   3.832   6.173  0.4871  1.0077  0.3082
  842MOL0     H11079   9.284   4.140   5.987 -0.7371  0.4959  0.1246
  842MOL0     H11080   9.115   4.285   6.099 -2.3046 -1.6081 -0.2643
  842MOL0     H11081   9.165   4.399   6.498 -0.7442  1.4738 -0.0936
  842MOL0     H11082   9.055   4.259   6.528 -1.7099  2.5642  2.2593
  842MOL0     H11083   8.975   4.536   6.414  2.2162 -1.5008 -0.5704
  842MOL0     H11084   8.961   4.474   6.582 -2.0581 -0.3474 -0.2142
  842MOL0     H11085   8.806   4.294   6.445  3.5990 -0.5012  0.4061
  842MOL0     H11086   8.832   4.422   6.324  2.2500 -0.0521  0.5599
  842MOL0     H11087   8.702   4.590   6.457  0.5088  0.5143  2.0406
  842MOL0     H11088   8.609   4.438   6.448 -0.3204  2.5382 -1.8775
  842MOL0     H11089   8.617   4.539   6.669  2.8548  2.0274  2.5781
  842MOL0     H11090   8.775   4.498   6.684 -0.5238  3.0211 -0.7554
  842MOL0     H11091   8.698   4.247   6.666  2.5048  3.0858  1.1647
  842MOL0     H11092   8.530   4.303   6.617 -3.2966 -0.4618  4.3905
  842MOL0     H11093   8.659   4.354   6.896  0.2385  0.6900 -1.1977
  842MOL0     H11094   8.507   4.407   6.846  1.1206  0.2464  0.9939
  842MOL0     H11095   8.598   4.111   6.890  1.5126  1.3522 -1.0987
  842MOL0     H11096   8.437   4.142   6.838  1.2121  0.1972  0.3315
  842MOL0     H11097   8.656   4.221   7.145  0.0608  0.8741  0.3366
  842MOL0     H11098   8.395   4.243   7.428  2.1232  4.3798 -0.0189
  842MOL0     H11099   8.567   4.272   7.396 -0.2992  0.1934 -1.6784
  842MOL0     H11100   8.415   3.999   7.379  0.0681  0.4161  0.3530
  842MOL0     H11101   8.501   4.039   7.516 -2.7917 -3.0780 -0.7038
  842MOL0     H11102   8.618   3.973   7.235  1.3988  0.6139 -0.7018
  842MOL0     H11103   8.715   4.032   7.374  0.1405  0.3824 -1.4642
  842MOL0     H11104   8.547   3.771   7.352  0.7137  0.0781 -2.0913
  842MOL0     H11105   8.624   3.841   7.500 -0.3879  3.9131  0.1550
  842MOL0     H11106   8.979   3.710   7.322 -0.8072  0.6015 -0.4238
  842MOL0     H11107   9.192   3.781   7.405  0.6969 -1.3997  1.7943
  842MOL0     H11108   9.183   4.016   7.902 -1.7719  1.4671 -2.7754
  842MOL0     H11109   9.341   4.081   8.099 -2.0202 -3.0746 -0.6091
  842MOL0     H11110   9.621   4.376   8.201  0.2953 -0.6583 -0.3771
  842MOL0     H11111   9.649   4.427   8.044  1.4673 -0.1506 -0.7790
  842MOL0     H11112   9.831   4.281   8.137  1.3366 -0.3470 -1.3751
  842MOL0     H11113   9.755   4.195   8.000 -1.3815  0.4102 -0.4465
  842MOL0     H11114   9.636   4.055   8.147  1.4016  0.6885 -3.3342
  842MOL0     H11115   9.657   4.165   8.294 -0.5838 -0.8457 -0.2880
  842MOL0     H11116   9.863   4.006   8.172  0.1004  1.9052 -0.0628
  842MOL0     H11117   9.897   4.109   8.311  2.0805 -1.1668 -1.8762
  842MOL0     H11118   9.719   3.873   8.331  0.3377 -0.1790 -2.1069
  842MOL0     H11119   9.782   3.985   8.462  1.1236  2.1094 -0.1028
  842MOL0     H11120  10.015   3.927   8.373  0.2859 -1.2096  1.3204
  842MOL0     H11121   9.940   3.806   8.265  1.1484 -3.6916  1.5500
  842MOL0     H11122   9.967   3.813   8.566  0.5581 -0.3317 -0.3764
  842MOL0     H11123   9.832   3.709   8.495  0.8406 -0.8611 -0.5810
  842MOL0     H11124  10.119   3.691   8.427 -1.1069  2.0179 -0.7129
  842MOL0     H11125   9.982   3.591   8.360 -1.4828 -2.9146  2.5027
  842MOL0     H11126   9.543   4.347   7.851  0.9513 -0.5863 -0.7364
  842MOL0     H11127   9.391   4.270   7.647 -2.1286 -1.1284  0.1057
  842MOL0     H11128   8.983   4.042   7.690  1.7757  0.7015  0.6723
  842MOL0     H11129   8.773   3.982   7.576 -0.0360 -0.2846  2.2091
  842MOL0     H11130   9.252   4.151   6.471 -2.6827  0.8545 -0.7304
  842MOL0     H11131   9.401   3.995   6.382 -2.2170 -2.0981 -1.3507
  842MOL0     H11132   9.521   3.570   6.286  0.1639  2.2930  5.2460
  842MOL0     H11133   9.721   3.476   6.323 -0.0812 -0.0837 -2.1656
  842MOL0     H11134  10.084   3.726   6.229 -3.8315  1.0924  0.9819
  842MOL0     H11135  10.176   3.593   6.300  1.5548  1.2021  2.1100
  842MOL0     H11136   9.993   3.757   6.464  0.5599  2.5808 -2.1981
  842MOL0     H11137  10.091   3.624   6.513  1.3074  0.2048 -0.3831
  842MOL0     H11138  10.183   3.898   6.395 -1.4688 -0.7099 -1.3358
  842MOL0     H11139  10.289   3.761   6.418 -2.2279 -2.4140 -0.2943
  842MOL0     H11140  10.240   3.756   6.674  4.5491 -0.5530 -1.0427
  842MOL0     H11141  10.313   3.909   6.597 -1.6276  1.0062 -1.7998
  842MOL0     H11142   9.941   4.053   6.720  0.3861  2.5410 -1.0400
  842MOL0     H11143   9.905   3.842   6.187 -1.5517  1.7154 -1.1549
  842MOL0     H11144   9.697   3.929   6.123  0.4913  1.2856  0.8358
  843MOL0     O11145   6.527   0.890   9.323 -0.7358  0.6364  0.2742
  843MOL0     C11146   6.427   0.956   9.314  0.0714  0.2711 -1.3705
  843MOL0     O11147   6.386   1.049   9.409 -0.0784  0.6180  0.1982
  843MOL0     C11148   6.408   1.047   9.543 -0.3207  0.3313 -0.2117
  843MOL0     C11149   6.358   0.940   9.614 -0.3177 -0.7616 -0.0215
  843MOL0     C11150   6.359   0.938   9.742  0.6679 -0.7936 -0.7191
  843MOL0     C11151   6.416   1.043   9.818  0.2782 -0.1490 -0.0236
  843MOL0     O11152   6.417   1.048   9.961 -0.1985 -0.3437  0.9024
  843MOL0     C11153   6.355   0.938  10.035  0.3734 -0.2294 -0.1943
  843MOL0     C11154   6.402   0.950  10.185 -0.8121  0.0509  0.6264
  843MOL0     C11155   6.556   0.930  10.190 -0.4811 -0.5892 -0.4585
  843MOL0     C11156   6.595   0.849  10.321  0.5354 -0.5308  1.2193
  843MOL0     C11157   6.724   0.771  10.313 -0.4735  0.8651  0.2270
  843MOL0     C11158   6.852   0.865  10.281  0.1660  0.2916 -0.4847
  843MOL0     C11159   6.864   0.987  10.377  0.5774  0.8560  0.4679
  843MOL0     C11160   6.968   1.087  10.318  0.0670  0.5631 -0.3442
  843MOL0     N11161   7.100   1.051  10.369  0.6503 -0.1828  0.5935
  843MOL0     C11162   7.178   1.115  10.471 -0.3112 -0.2987  0.4085
  843MOL0     C11163   7.278   1.022  10.485  0.5279  0.3534  0.0065
  843MOL0     C11164   7.404   1.037  10.570  0.0749  0.1063 -0.0653
  843MOL0     C11165   7.369   1.021  10.717  0.1661  0.0666 -0.2086
  843MOL0     C11166   7.328   0.882  10.756  0.1136  0.4113  0.0197
  843MOL0     C11167   7.345   0.860  10.907 -0.0833  0.2470  0.1229
  843MOL0     O11168   7.282   0.957  10.995  0.0330  0.8424 -0.2078
  843MOL0     C11169   7.360   0.976  11.108 -0.3414  0.0468  0.7226
  843MOL0     C11170   7.432   1.094  11.134  0.0084  0.1126  0.1037
  843MOL0     C11171   7.508   1.121  11.243 -0.0499  0.2151 -0.7216
  843MOL0     C11172   7.518   1.021  11.343 -0.5804  0.4845 -0.1648
  843MOL0     C11173   7.599   1.036  11.457  1.4610 -0.1732  0.0188
  843MOL0     O11174   7.701   1.128  11.451  0.1268  0.2899  0.2225
  843MOL0     C11175   7.788   1.135  11.549 -1.0333  0.0753 -0.1683
  843MOL0     C11176   7.861   1.266  11.553  0.1976  0.0381 -0.9152
  843MOL0     C11177   7.968   1.281  11.642 -0.0982 -0.0287  0.3308
  843MOL0     C11178   8.016   1.170  11.713 -0.5250 -0.6830 -0.8233
  843MOL0     O11179   8.129   1.198  11.789  0.1715  0.0427 -0.7731
  843MOL0     C11180   8.236   1.106  11.770  0.8295  0.7630 -0.5018
  843MOL0     C11181   8.372   1.169  11.800 -0.6603 -0.2025 -0.5867
  843MOL0     C11182   8.407   1.284  11.714 -0.2080 -0.9820 -0.4899
  843MOL0     C11183   8.353   1.419  11.769  0.1313  0.0359 -0.1066
  843MOL0     C11184   8.382   1.537  11.683  0.3640 -1.2580  0.3923
  843MOL0     C11185   8.530   1.553  11.642  0.0906  0.0895  0.3856
  843MOL0     C11186   8.629   1.539  11.749 -0.3433 -0.3219  1.1981
  843MOL0     C11187   8.765   1.589  11.708 -0.6371  0.0256 -0.5365
  843MOL0    Cl11188   8.779   1.768  11.697 -0.2376  0.3921  0.2140
  843MOL0     C11189   7.940   1.051  11.715 -0.1337  0.5008  0.1514
  843MOL0     C11190   7.829   1.029  11.628  0.1309 -0.7430  0.5338
  843MOL0     O11191   7.556   0.979  11.554 -0.4949  0.9099  0.3957
  843MOL0     C11192   7.447   0.904  11.320 -0.1226 -0.0402 -0.6627
  843MOL0     C11193   7.367   0.880  11.205  0.2482  0.5514 -0.4581
  843MOL0     N11194   7.272   0.918  10.395  0.4638  0.4063  0.3352
  843MOL0     N11195   7.177   0.941  10.315  0.6037 -0.6218  0.1201
  843MOL0     C11196   6.470   1.153   9.751  0.4498  0.5831 -0.9312
  843MOL0     C11197   6.455   1.157   9.616 -0.1641 -0.1230 -0.0923
  843MOL0     C11198   6.374   0.976   9.185  0.0543  0.5659  1.3859
  843MOL0     C11199   6.351   1.099   9.119  0.5785  0.3749  0.6992
  843MOL0     C11200   6.266   1.102   9.007  0.2775  1.5016  0.0545
  843MOL0     C11201   6.234   0.982   8.944  0.7625  0.6758 -0.8859
  843MOL0     O11202   6.170   0.994   8.818 -0.5890 -0.6803 -0.2774
  843MOL0     C11203   6.114   0.890   8.746  0.8988  0.1970 -0.1289
  843MOL0     C11204   6.090   0.926   8.597 -0.6113  0.3780 -0.1661
  843MOL0     C11205   5.980   1.036   8.576  0.5101 -0.4396  0.1659
  843MOL0     C11206   6.023   1.187   8.589 -0.2170  0.8792 -0.4833
  843MOL0     C11207   5.905   1.266   8.573  0.1902 -0.2952 -0.1760
  843MOL0     C11208   5.832   1.356   8.580  0.2396 -0.4956 -0.3151
  843MOL0     C11209   6.260   0.861   9.005  0.6036 -0.1099  0.0376
  843MOL0     C11210   6.330   0.857   9.122 -0.0913 -0.0938 -0.4225
  843MOL0     H11211   6.329   0.850   9.561  0.7885 -0.1534 -1.7544
  843MOL0     H11212   6.338   0.842   9.787  0.3613 -0.1413  0.5692
  843MOL0     H11213   6.370   0.838   9.992 -1.4681 -0.4937 -0.3244
  843MOL0     H11214   6.246   0.954  10.034  0.6910  2.2254 -1.0396
  843MOL0     H11215   6.352   0.875  10.247 -0.5411  1.1135  2.1998
  843MOL0     H11216   6.371   1.050  10.219  1.3564  1.4767 -1.2641
  843MOL0     H11217   6.607   1.027  10.178 -0.2782 -0.5794  0.4485
  843MOL0     H11218   6.585   0.874  10.101 -1.1576 -1.9896  0.1778
  843MOL0     H11219   6.573   0.907  10.411 -3.1179  0.3432 -0.0519
  843MOL0     H11220   6.512   0.778  10.321 -1.6130  1.7106 -1.7131
  843MOL0     H11221   6.716   0.691  10.239 -2.3046  0.2659  1.0149
  843MOL0     H11222   6.737   0.718  10.407 -1.5994 -3.7585 -1.9434
  843MOL0     H11223   6.849   0.905  10.179  2.4899  1.2497 -0.2282
  843MOL0     H11224   6.940   0.800  10.275 -0.0860 -0.5413  2.8495
  843MOL0     H11225   6.767   1.034  10.359 -0.3087 -1.3925 -1.1320
  843MOL0     H11226   6.876   0.963  10.483 -3.9332  0.6958  1.1100
  843MOL0     H11227   6.953   1.189  10.353  1.3031  0.0058  1.9804
  843MOL0     H11228   6.960   1.095  10.209  2.2265 -0.9548 -0.6895
  843MOL0     H11229   7.168   1.209  10.525 -0.1917  0.5600 -1.0107
  843MOL0     H11230   7.435   1.141  10.554  1.2667 -0.4331 -1.4394
  843MOL0     H11231   7.487   0.968  10.555 -1.6375 -2.1513  0.3619
  843MOL0     H11232   7.288   1.085  10.754 -0.0813  0.5317 -1.4876
  843MOL0     H11233   7.451   1.054  10.781  0.3681 -0.9539  0.0715
  843MOL0     H11234   7.223   0.857  10.733 -1.3290  2.5637  3.5600
  843MOL0     H11235   7.392   0.817  10.695  0.5063  0.3462  0.4978
  843MOL0     H11236   7.454   0.856  10.921 -0.2870 -1.2014  1.4900
  843MOL0     H11237   7.305   0.760  10.924  0.4154 -0.4516 -2.3659
  843MOL0     H11238   7.421   1.157  11.046 -0.1797 -0.3157 -0.1815
  843MOL0     H11239   7.557   1.217  11.252 -0.2178  0.1229  2.3215
  843MOL0     H11240   7.833   1.340  11.479  1.3913 -0.2731 -1.7135
  843MOL0     H11241   8.013   1.378  11.659 -0.5405  0.4452 -1.0487
  843MOL0     H11242   8.231   1.047  11.678 -0.3995 -2.5657  1.5058
  843MOL0     H11243   8.222   1.027  11.844 -1.7113 -2.7881 -4.2711
  843MOL0     H11244   8.444   1.088  11.788  0.8680  0.9041  0.8144
  843MOL0     H11245   8.391   1.199  11.903  2.9956  0.1498 -1.2640
  843MOL0     H11246   8.367   1.279  11.612  0.6862 -1.9150 -0.8115
  843MOL0     H11247   8.516   1.292  11.713 -0.1599 -1.3726 -2.6184
  843MOL0     H11248   8.244   1.416  11.783  0.2105 -2.5939  0.4110
  843MOL0     H11249   8.385   1.433  11.872 -1.3850  2.3935  0.1423
  843MOL0     H11250   8.355   1.628  11.736 -2.6426 -1.0240 -1.3493
  843MOL0     H11251   8.327   1.535  11.589  1.8251 -2.1322 -0.4819
  843MOL0     H11252   8.537   1.654  11.600 -1.8580  1.1570  2.3884
  843MOL0     H11253   8.555   1.499  11.550 -1.4385 -0.3418  0.1944
  843MOL0     H11254   8.595   1.601  11.833 -0.9716  0.1294  0.6211
  843MOL0     H11255   8.642   1.434  11.779 -0.3029 -1.1018 -1.3090
  843MOL0     H11256   8.791   1.554  11.608 -0.2776 -0.3706 -0.3079
  843MOL0     H11257   8.850   1.551  11.765 -0.0269 -2.4815 -2.9122
  843MOL0     H11258   7.972   0.980  11.791 -0.2269  0.8458  0.5157
  843MOL0     H11259   7.783   0.930  11.630 -1.8916  0.0291 -2.1300
  843MOL0     H11260   7.440   0.820  11.388  0.2599  0.0515 -0.5044
  843MOL0     H11261   7.305   0.793  11.188  0.3016  0.5919 -0.8852
  843MOL0     H11262   6.506   1.245   9.797  0.8642 -0.0523  0.0647
  843MOL0     H11263   6.482   1.250   9.565 -1.4442  1.4589  1.9355
  843MOL0     H11264   6.384   1.195   9.156  4.0446  0.4083 -1.9957
  843MOL0     H11265   6.244   1.199   8.965 -1.5749  0.3383 -1.8393
  843MOL0     H11266   6.027   0.845   8.796 -0.5207  1.5697 -1.2751
  843MOL0     H11267   6.185   0.807   8.746  0.9989  0.2796  0.4785
  843MOL0     H11268   6.185   0.960   8.555  0.2530 -2.7178 -0.9835
  843MOL0     H11269   6.048   0.842   8.542  2.4702 -1.5749  0.2090
  843MOL0     H11270   5.902   1.017   8.651 -0.2531 -1.7236 -0.9109
  843MOL0     H11271   5.949   1.017   8.473  0.6197 -0.7053  0.1819
  843MOL0     H11272   6.052   1.213   8.691  1.1266  2.0463 -1.1309
  843MOL0     H11273   6.105   1.211   8.521  1.5721  0.5220  1.4603
  843MOL0     H11274   5.755   1.430   8.572 -2.5869 -2.8112  2.6348
  843MOL0     H11275   6.239   0.763   8.965  2.1589  0.6979 -3.0371
  843MOL0     H11276   6.346   0.758   9.164  0.3670 -0.4279 -1.3287
  844MOL0     O11277   8.736   5.815   6.328 -0.2313 -0.6159 -0.7238
  844MOL0     C11278   8.803   5.852   6.234 -0.0874 -0.8624 -0.0636
  844MOL0     O11279   8.775   5.960   6.155  0.3469 -0.4820 -0.7188
  844MOL0     C11280   8.683   6.056   6.188  0.2145  0.2860 -0.2985
  844MOL0     C11281   8.558   6.033   6.245  0.8863 -0.2639 -1.0701
  844MOL0     C11282   8.459   6.131   6.264  0.7248  0.1839  0.3341
  844MOL0     C11283   8.490   6.258   6.205 -0.0935  0.3975 -0.6969
  844MOL0     O11284   8.386   6.341   6.201 -0.2673 -0.9899 -0.6423
  844MOL0     C11285   8.392   6.445   6.109  0.4835  0.0042 -0.1362
  844MOL0     C11286   8.254   6.502   6.101  0.9879  0.1797  0.6594
  844MOL0     C11287   8.247   6.575   5.962 -0.5369  0.2974 -0.1539
  844MOL0     C11288   8.122   6.648   5.950 -0.1860 -0.9561 -0.3365
  844MOL0     C11289   7.999   6.575   5.907  0.3536 -0.5224  0.1534
  844MOL0     C11290   7.895   6.673   5.847  0.1066  0.9173  0.9851
  844MOL0     C11291   7.761   6.592   5.808  0.0729 -1.1475  0.2406
  844MOL0     C11292   7.773   6.475   5.714 -0.3670 -0.0335  0.7980
  844MOL0     N11293   7.639   6.424   5.674  0.1466  0.5851 -0.4394
  844MOL0     C11294   7.597   6.292   5.711 -0.4511 -0.2167  0.4882
  844MOL0     C11295   7.498   6.271   5.633 -0.3315  0.4077  0.9973
  844MOL0     C11296   7.409   6.155   5.634  1.0383  0.4704 -0.1587
  844MOL0     C11297   7.431   6.063   5.516  0.9117 -1.1381  0.4870
  844MOL0     C11298   7.333   5.953   5.530  0.0065 -0.4961  0.3463
  844MOL0     C11299   7.331   5.864   5.414 -0.1342  0.4408  0.5939
  844MOL0     O11300   7.230   5.771   5.454 -0.0042 -0.6886 -0.5247
  844MOL0     C11301   7.196   5.680   5.361  0.0124 -0.8237 -0.3222
  844MOL0     C11302   7.069   5.626   5.378 -0.3204 -0.0244  0.3858
  844MOL0     C11303   7.013   5.534   5.283 -0.2349  0.6666 -0.4054
  844MOL0     C11304   7.095   5.483   5.178  0.1235 -0.7321 -0.3849
  844MOL0     C11305   7.053   5.376   5.082 -0.1697  0.6536 -0.1861
  844MOL0     O11306   6.944   5.303   5.110  0.1863  0.2141 -0.5539
  844MOL0     C11307   6.880   5.219   5.023  0.6244  1.2734  0.5366
  844MOL0     C11308   6.908   5.186   4.888 -0.1867 -0.5853 -0.2236
  844MOL0     C11309   6.832   5.096   4.813 -0.8278 -0.1044  0.0149
  844MOL0     C11310   6.721   5.029   4.867  0.5837  0.0883  0.4114
  844MOL0     O11311   6.641   4.944   4.785 -0.6007 -0.2589  0.0659
  844MOL0     C11312   6.695   4.849   4.690  0.0099  0.6913  0.0304
  844MOL0     C11313   6.828   4.774   4.729  1.3301  0.0646 -0.7052
  844MOL0     C11314   6.784   4.653   4.819  0.0075 -0.5072  0.9351
  844MOL0     C11315   6.716   4.688   4.952  0.4557 -0.9851  0.3169
  844MOL0     C11316   6.731   4.580   5.065  0.6898 -0.5282 -0.1670
  844MOL0     C11317   6.626   4.468   5.073  0.3048 -0.2946  0.0346
  844MOL0     C11318   6.647   4.385   5.204 -0.1227  0.5668 -0.5189
  844MOL0     C11319   6.533   4.288   5.245  0.6814 -0.6124 -0.2299
  844MOL0    Cl11320   6.378   4.368   5.223  0.3836  0.4107 -0.3420
  844MOL0     C11321   6.689   5.065   5.004  0.9639  0.1396  0.8025
  844MOL0     C11322   6.765   5.159   5.065  1.0661 -1.2046 -0.7338
  844MOL0     O11323   7.114   5.366   4.981 -0.4118 -1.0561  0.1119
  844MOL0     C11324   7.228   5.532   5.168 -0.7317  0.2442  1.0232
  844MOL0     C11325   7.279   5.629   5.254  0.2452 -0.9781  0.4682
  844MOL0     N11326   7.469   6.376   5.552 -0.1974 -0.4884  0.3779
  844MOL0     N11327   7.562   6.465   5.572 -0.5071  0.2165  0.7072
  844MOL0     C11328   8.619   6.289   6.156  0.5054 -0.4401  0.0580
  844MOL0     C11329   8.719   6.186   6.144  0.6758 -0.6345 -0.3163
  844MOL0     C11330   8.930   5.789   6.209  0.1296  0.5210  0.2128
  844MOL0     C11331   8.998   5.804   6.084  1.1779 -1.8007 -0.3072
  844MOL0     C11332   9.116   5.731   6.059 -0.1649 -0.6494  0.1326
  844MOL0     C11333   9.175   5.647   6.156 -0.0778 -0.5499  0.0111
  844MOL0     O11334   9.297   5.598   6.118  0.6640 -0.1004  0.0736
  844MOL0     C11335   9.331   5.468   6.186  0.5677  0.3189 -0.1203
  844MOL0     C11336   9.472   5.428   6.132 -0.4032 -0.1644  0.1221
  844MOL0     C11337   9.575   5.513   6.192 -0.2249 -0.2973  0.2911
  844MOL0     C11338   9.706   5.452   6.135 -0.3077  0.0037 -0.8355
  844MOL0     C11339   9.821   5.544   6.161 -0.3907  0.3075  0.7553
  844MOL0     C11340   9.934   5.588   6.185  0.4981  0.4035  0.5356
  844MOL0     C11341   9.108   5.639   6.280 -1.3479 -0.5963 -0.3829
  844MOL0     C11342   8.994   5.712   6.308 -0.0739 -0.4439  0.3988
  844MOL0     H11343   8.529   5.934   6.281 -0.1565  0.7951  1.1692
  844MOL0     H11344   8.368   6.114   6.321 -0.4693  0.6607 -1.3246
  844MOL0     H11345   8.428   6.414   6.011  5.2716  1.9107  0.7541
  844MOL0     H11346   8.457   6.520   6.155  0.3100 -1.5145  2.8041
  844MOL0     H11347   8.227   6.581   6.171 -2.4829  1.3180 -1.6616
  844MOL0     H11348   8.168   6.435   6.115 -0.9659  2.7008  1.5854
  844MOL0     H11349   8.242   6.503   5.879 -2.2955 -2.7926  2.4083
  844MOL0     H11350   8.338   6.635   5.960 -0.3950  0.1534  1.2217
  844MOL0     H11351   8.102   6.695   6.047  1.0928 -0.4143 -0.3121
  844MOL0     H11352   8.139   6.734   5.885  0.7020  0.0257  1.1253
  844MOL0     H11353   7.963   6.503   5.981 -2.2384 -0.2309 -0.6993
  844MOL0     H11354   8.020   6.512   5.820 -2.1230 -0.2445 -0.7240
  844MOL0     H11355   7.935   6.724   5.758 -2.9819  2.6741  0.4465
  844MOL0     H11356   7.875   6.756   5.915 -1.6670  2.4702 -1.2537
  844MOL0     H11357   7.715   6.555   5.900 -4.6061 -2.4135 -2.2912
  844MOL0     H11358   7.693   6.662   5.760  0.2190 -0.1864  1.4034
  844MOL0     H11359   7.842   6.407   5.765  1.7205  0.5334 -1.0842
  844MOL0     H11360   7.817   6.510   5.620  1.5059  1.7162  2.2131
  844MOL0     H11361   7.651   6.226   5.778 -0.1838  0.6985  1.1896
  844MOL0     H11362   7.303   6.184   5.640  1.2729  1.5297 -0.8369
  844MOL0     H11363   7.413   6.105   5.730  1.2152  0.3052 -0.2530
  844MOL0     H11364   7.533   6.026   5.500  1.3459  0.7195 -1.5628
  844MOL0     H11365   7.407   6.121   5.426 -1.4115  0.2337  1.8884
  844MOL0     H11366   7.366   5.903   5.621 -0.7875 -3.0095 -0.6587
  844MOL0     H11367   7.234   5.995   5.549 -0.1049 -0.4423 -0.3156
  844MOL0     H11368   7.417   5.798   5.398  1.2310  2.4341 -0.7964
  844MOL0     H11369   7.313   5.913   5.318 -3.0651 -2.7316 -0.6750
  844MOL0     H11370   7.017   5.667   5.464 -0.8112  2.4041 -0.9832
  844MOL0     H11371   6.914   5.493   5.296  0.4592 -1.0618 -0.3481
  844MOL0     H11372   6.989   5.228   4.829 -3.5532 -0.4906 -5.3314
  844MOL0     H11373   6.864   5.087   4.709 -2.0504  0.8927 -0.4766
  844MOL0     H11374   6.732   4.914   4.610  2.9334  0.5576  1.1336
  844MOL0     H11375   6.617   4.787   4.646  0.7757 -0.2785  0.0092
  844MOL0     H11376   6.906   4.834   4.777 -0.1490 -0.3119  2.4378
  844MOL0     H11377   6.869   4.721   4.643 -2.0201 -2.6477 -0.8414
  844MOL0     H11378   6.878   4.602   4.844 -0.6548 -2.9467 -1.1456
  844MOL0     H11379   6.727   4.578   4.764  0.1758  0.9065 -1.3102
  844MOL0     H11380   6.768   4.776   4.990 -1.4818  0.4891 -0.2889
  844MOL0     H11381   6.615   4.727   4.938  1.0139  1.0775  1.5614
  844MOL0     H11382   6.736   4.628   5.163  1.2712 -2.9582  1.0758
  844MOL0     H11383   6.830   4.536   5.047  0.6929 -0.4725 -0.2885
  844MOL0     H11384   6.631   4.390   4.996 -1.8602  1.5120 -2.0735
  844MOL0     H11385   6.528   4.516   5.078  0.8424  1.0694 -1.8531
  844MOL0     H11386   6.750   4.350   5.213  0.2964  1.9243  0.4211
  844MOL0     H11387   6.649   4.461   5.283  3.9786 -0.0087  0.1349
  844MOL0     H11388   6.552   4.279   5.352  1.2796  0.7668 -0.2085
  844MOL0     H11389   6.532   4.204   5.174 -2.8656  0.6721 -1.9624
  844MOL0     H11390   6.598   5.015   5.035  1.2074  0.6731  2.4583
  844MOL0     H11391   6.721   5.197   5.157  0.5589 -0.4891 -1.2593
  844MOL0     H11392   7.308   5.500   5.103  0.8637  0.5284  2.7352
  844MOL0     H11393   7.372   5.679   5.228 -1.3151  1.1022 -1.4716
  844MOL0     H11394   8.641   6.390   6.123  0.7759  0.6179  3.1272
  844MOL0     H11395   8.814   6.200   6.093 -0.1854  0.0246 -1.7968
  844MOL0     H11396   8.959   5.856   5.997 -0.6217  0.3369  1.6301
  844MOL0     H11397   9.162   5.755   5.964 -0.7879 -1.5231 -0.4065
  844MOL0     H11398   9.256   5.391   6.170 -1.0346  1.9422 -0.8545
  844MOL0     H11399   9.327   5.483   6.294 -3.8137  2.4171 -0.3389
  844MOL0     H11400   9.489   5.322   6.154  2.1557 -0.1706 -1.4239
  844MOL0     H11401   9.470   5.445   6.024  0.3506  0.1355  0.1468
  844MOL0     H11402   9.580   5.517   6.301  0.1218  0.8575  0.2439
  844MOL0     H11403   9.572   5.616   6.155 -1.8601 -0.4100  0.0218
  844MOL0     H11404   9.724   5.362   6.193  0.2263 -0.0222 -1.0415
  844MOL0     H11405   9.707   5.424   6.029  4.2137 -0.7393 -0.7655
  844MOL0     H11406  10.028   5.629   6.215 -0.7223  3.4587  0.5034
  844MOL0     H11407   9.149   5.565   6.348  0.7142  1.5674  0.8659
  844MOL0     H11408   8.967   5.700   6.412  3.8974  1.1017  1.8177
  845MOL0     O11409   4.630   5.920   9.298 -0.0947 -0.2218 -0.0758
  845MOL0     C11410   4.519   5.941   9.253  0.4106  0.3671 -0.3654
  845MOL0     O11411   4.484   6.056   9.185  0.3457  0.3419  0.9532
  845MOL0     C11412   4.574   6.139   9.112  0.7691 -0.0818  0.2725
  845MOL0     C11413   4.538   6.172   8.979  0.3928 -0.2808 -0.3565
  845MOL0     C11414   4.627   6.250   8.900  0.2820 -0.1049 -1.5044
  845MOL0     C11415   4.752   6.299   8.952 -0.2038  0.6893 -0.3105
  845MOL0     O11416   4.831   6.371   8.872 -0.0309 -0.3388 -0.2633
  845MOL0     C11417   4.969   6.325   8.853 -0.0574 -0.3175  0.4312
  845MOL0     C11418   5.056   6.448   8.917 -0.3584  0.9481 -0.9298
  845MOL0     C11419   5.206   6.400   8.946  1.3136  0.5146  0.7596
  845MOL0     C11420   5.293   6.438   8.820 -0.2535 -0.4679  0.0892
  845MOL0     C11421   5.439   6.411   8.849  0.2498  0.2946  0.5719
  845MOL0     C11422   5.527   6.448   8.732 -0.1932  0.3299 -0.2853
  845MOL0     C11423   5.651   6.359   8.720  0.6738  0.5107  0.0112
  845MOL0     C11424   5.760   6.386   8.817 -0.3799 -0.1244 -0.0318
  845MOL0     N11425   5.826   6.524   8.801  0.8500  0.8761  0.8982
  845MOL0     C11426   5.916   6.560   8.709  0.0513  0.0412  0.2390
  845MOL0     C11427   5.946   6.690   8.731 -0.0977 -1.0142  0.0421
  845MOL0     C11428   6.073   6.755   8.684  0.8624  0.2292  0.0679
  845MOL0     C11429   6.087   6.747   8.536  0.0917 -0.2740 -0.1814
  845MOL0     C11430   6.125   6.613   8.472 -0.3758  0.6614  0.1538
  845MOL0     C11431   6.177   6.634   8.330  0.1817 -0.0915  0.4562
  845MOL0     O11432   6.237   6.502   8.293 -0.2525 -0.3333 -0.4259
  845MOL0     C11433   6.250   6.463   8.165 -0.1917  0.7657  0.0776
  845MOL0     C11434   6.289   6.557   8.065 -0.1572 -0.6175 -0.3278
  845MOL0     C11435   6.310   6.518   7.932  0.6907  0.4038 -0.0625
  845MOL0     C11436   6.284   6.379   7.904 -0.3617  0.9461 -0.6755
  845MOL0     C11437   6.298   6.318   7.766 -0.5820 -1.2016 -0.3737
  845MOL0     O11438   6.350   6.186   7.757 -0.8543  1.1388  1.6371
  845MOL0     C11439   6.320   6.094   7.654 -1.1383  0.9436  0.1045
  845MOL0     C11440   6.210   6.104   7.560 -0.2223 -1.0677 -1.3768
  845MOL0     C11441   6.177   6.004   7.476 -0.5892  0.6513 -0.1118
  845MOL0     C11442   6.256   5.892   7.474  0.3989 -0.5911 -0.6239
  845MOL0     O11443   6.221   5.796   7.376  0.0212 -0.1514 -0.0931
  845MOL0     C11444   6.333   5.711   7.337 -0.1970  0.2292 -0.9896
  845MOL0     C11445   6.298   5.616   7.223  0.5175  0.2898 -0.8940
  845MOL0     C11446   6.261   5.695   7.105 -0.1522 -0.8132  0.6420
  845MOL0     C11447   6.252   5.603   6.985  0.1626 -0.2254  0.3111
  845MOL0     C11448   6.290   5.654   6.853 -0.4351  0.2384 -0.0978
  845MOL0     C11449   6.236   5.789   6.814  0.3611 -0.5076 -0.9999
  845MOL0     C11450   6.315   5.860   6.704  0.4229  0.4092  0.8917
  845MOL0     C11451   6.454   5.915   6.742  1.0629 -0.5856 -0.4736
  845MOL0    Cl11452   6.494   5.982   6.578  0.0624  0.4577  0.4505
  845MOL0     C11453   6.357   5.877   7.567  0.0769  1.5856 -0.0494
  845MOL0     C11454   6.396   5.979   7.653  1.0577 -0.8616 -0.0514
  845MOL0     O11455   6.259   6.388   7.674 -0.0220  0.1133 -0.0767
  845MOL0     C11456   6.239   6.286   7.999 -0.1767  0.3278 -0.3252
  845MOL0     C11457   6.235   6.325   8.133  0.0739 -0.0943  0.3616
  845MOL0     N11458   5.871   6.739   8.842  0.5156  0.6771 -0.1327
  845MOL0     N11459   5.794   6.634   8.877  0.0698 -0.2827 -0.3663
  845MOL0     C11460   4.780   6.273   9.087  0.1727  0.2189  0.2623
  845MOL0     C11461   4.689   6.193   9.170  0.3465 -0.0289  0.1960
  845MOL0     C11462   4.409   5.842   9.276  0.4781 -0.7279  0.0027
  845MOL0     C11463   4.424   5.735   9.366 -0.0239 -0.8052  0.7273
  845MOL0     C11464   4.325   5.651   9.398  0.4022 -0.2458  1.0719
  845MOL0     C11465   4.201   5.657   9.341  0.5455  0.3542  0.0610
  845MOL0     O11466   4.111   5.555   9.357 -0.0448 -1.1718  0.4487
  845MOL0     C11467   4.140   5.419   9.335  0.4289 -0.5497  0.9226
  845MOL0     C11468   4.066   5.381   9.211  0.0310 -0.1230  0.0677
  845MOL0     C11469   4.091   5.458   9.079 -0.4246  0.6842 -0.2892
  845MOL0     C11470   4.056   5.374   8.949 -0.2425  0.6604  0.1861
  845MOL0     C11471   4.046   5.459   8.830  0.9826 -0.6086  0.0323
  845MOL0     C11472   4.044   5.549   8.750  0.1463 -1.1089 -0.0071
  845MOL0     C11473   4.177   5.765   9.248  0.8744 -0.5604 -0.5513
  845MOL0     C11474   4.279   5.855   9.224  0.2125 -1.8862  0.0062
  845MOL0     H11475   4.444   6.145   8.933 -0.7141  3.1179 -0.3697
  845MOL0     H11476   4.589   6.263   8.799 -2.7856 -0.0493 -0.4762
  845MOL0     H11477   4.997   6.310   8.748  0.3088 -1.6254  0.6991
  845MOL0     H11478   4.994   6.240   8.917  1.5496  0.0081  0.2906
  845MOL0     H11479   5.015   6.466   9.017 -1.9063 -1.1116 -1.1302
  845MOL0     H11480   5.051   6.539   8.857 -2.7068  0.7082 -1.1944
  845MOL0     H11481   5.226   6.293   8.949  0.4844  0.2075 -2.1490
  845MOL0     H11482   5.237   6.454   9.036 -0.5510 -1.5849  2.7993
  845MOL0     H11483   5.247   6.391   8.733 -0.9881 -2.5054  1.5142
  845MOL0     H11484   5.268   6.543   8.801 -1.0590 -0.4541  1.1552
  845MOL0     H11485   5.432   6.305   8.875 -1.9335  0.8788  2.7904
  845MOL0     H11486   5.473   6.463   8.939  0.3030  0.5935  0.3794
  845MOL0     H11487   5.540   6.556   8.726 -0.1827  0.3732  0.3638
  845MOL0     H11488   5.481   6.422   8.637  0.3444 -0.0759 -0.4389
  845MOL0     H11489   5.612   6.259   8.743 -1.7437  0.7688 -2.5007
  845MOL0     H11490   5.692   6.364   8.619  0.5110  4.8645 -0.0099
  845MOL0     H11491   5.844   6.318   8.799 -0.2906  0.0551 -0.3026
  845MOL0     H11492   5.726   6.375   8.920 -1.4957  0.9868 -0.2588
  845MOL0     H11493   5.977   6.489   8.656  0.4000 -0.4471  1.2743
  845MOL0     H11494   6.145   6.689   8.735  3.8500  2.2800 -1.2510
  845MOL0     H11495   6.066   6.854   8.728 -0.8482  0.2872 -0.2735
  845MOL0     H11496   6.167   6.819   8.517  1.1754 -0.6780  2.4179
  845MOL0     H11497   5.999   6.781   8.480 -0.6284  0.4294  1.3205
  845MOL0     H11498   6.200   6.567   8.538 -2.1280  0.0897  1.8246
  845MOL0     H11499   6.039   6.546   8.465  0.8813 -1.0105 -0.0554
  845MOL0     H11500   6.244   6.721   8.331  3.4071 -2.3788 -0.5227
  845MOL0     H11501   6.096   6.665   8.263  2.9692  0.4703 -2.8894
  845MOL0     H11502   6.323   6.654   8.099  1.5326 -1.4130  0.3705
  845MOL0     H11503   6.330   6.591   7.855 -0.9960  2.7526  1.5838
  845MOL0     H11504   6.160   6.199   7.575  1.3670 -0.5927  2.0611
  845MOL0     H11505   6.098   5.999   7.402 -0.7817  0.8783  0.0768
  845MOL0     H11506   6.353   5.648   7.424  0.5832 -1.4165 -2.3214
  845MOL0     H11507   6.417   5.778   7.317  2.5475 -1.9902  2.0386
  845MOL0     H11508   6.214   5.550   7.246  0.4884  1.0284  1.3498
  845MOL0     H11509   6.383   5.548   7.209  0.2074 -1.6862  4.4625
  845MOL0     H11510   6.345   5.761   7.086  0.7054 -1.5122  1.9223
  845MOL0     H11511   6.172   5.757   7.114  0.6476  0.9398 -2.1182
  845MOL0     H11512   6.316   5.516   7.002  1.1993  0.3469 -0.4979
  845MOL0     H11513   6.153   5.557   6.979  0.0783  0.0431 -0.4053
  845MOL0     H11514   6.247   5.578   6.788 -3.7711 -0.1190  2.2758
  845MOL0     H11515   6.400   5.653   6.845 -0.4407 -3.1494 -1.0059
  845MOL0     H11516   6.236   5.857   6.900  0.9062 -3.6350  1.6601
  845MOL0     H11517   6.131   5.779   6.788  0.2767  0.1373 -0.9237
  845MOL0     H11518   6.311   5.802   6.611 -1.9081 -1.4043  2.0318
  845MOL0     H11519   6.246   5.943   6.688 -2.6882 -2.2276 -0.5986
  845MOL0     H11520   6.517   5.829   6.768 -0.8960 -2.2156 -0.8326
  845MOL0     H11521   6.444   5.996   6.815  1.2154  3.2019 -4.2436
  845MOL0     H11522   6.397   5.777   7.582 -4.2520 -0.3274  0.1659
  845MOL0     H11523   6.461   5.959   7.738  0.4335 -2.1006  0.1577
  845MOL0     H11524   6.222   6.179   7.990  2.7074 -0.0704 -2.4041
  845MOL0     H11525   6.211   6.258   8.215 -0.2499 -2.2388 -1.3846
  845MOL0     H11526   4.865   6.319   9.136 -0.5245  1.6698  0.1615
  845MOL0     H11527   4.719   6.169   9.271 -2.1788 -1.0245  0.7741
  845MOL0     H11528   4.514   5.735   9.426 -0.8893 -3.1847  2.1695
  845MOL0     H11529   4.352   5.567   9.461  1.9398 -0.0182  0.7386
  845MOL0     H11530   4.107   5.352   9.415 -0.4697 -3.6605 -1.8264
  845MOL0     H11531   4.248   5.412   9.320  0.7324  4.0445 -0.3425
  845MOL0     H11532   4.087   5.275   9.194  1.4205  0.0596  0.5052
  845MOL0     H11533   3.960   5.380   9.238 -0.1816  0.9505 -0.6678
  845MOL0     H11534   4.193   5.490   9.056 -0.7092  2.1435  0.3843
  845MOL0     H11535   4.024   5.544   9.081  1.3372  2.2466 -2.4783
  845MOL0     H11536   4.135   5.299   8.937  1.6241  2.6291 -0.2260
  845MOL0     H11537   3.956   5.331   8.963 -0.8258  1.0569 -2.2188
  845MOL0     H11538   4.021   5.634   8.689  2.1567  0.2834  1.0598
  845MOL0     H11539   4.074   5.782   9.216  0.6900 -1.5066 -0.4995
  845MOL0     H11540   4.259   5.951   9.176  2.2054 -0.6569  1.4635
  846MOL0     O11541   8.048   2.083   7.168  0.3119  0.9894 -0.1635
  846MOL0     C11542   8.100   2.189   7.146 -0.0409 -0.8026 -0.7598
  846MOL0     O11543   8.063   2.286   7.048  0.3229  0.8466  0.9542
  846MOL0     C11544   7.979   2.264   6.941 -0.4100 -0.2132 -1.0739
  846MOL0     C11545   7.878   2.166   6.924 -0.4718  0.6821 -0.2529
  846MOL0     C11546   7.794   2.173   6.817 -0.0211 -0.0897 -0.0176
  846MOL0     C11547   7.814   2.258   6.708 -0.3992  0.7850  0.6484
  846MOL0     O11548   7.748   2.240   6.586 -0.6036 -0.8179 -0.3732
  846MOL0     C11549   7.621   2.177   6.583 -0.6539  0.2087  0.0727
  846MOL0     C11550   7.629   2.044   6.506 -0.4063 -1.0878 -0.6442
  846MOL0     C11551   7.504   1.966   6.530 -0.5935  0.2151  0.3068
  846MOL0     C11552   7.517   1.812   6.506  0.1170  0.8842  0.9264
  846MOL0     C11553   7.582   1.780   6.370 -0.1786 -0.2661 -0.3462
  846MOL0     C11554   7.622   1.635   6.357 -0.2413 -0.5610 -0.5557
  846MOL0     C11555   7.732   1.592   6.454  0.8259  0.3009  0.7470
  846MOL0     C11556   7.751   1.444   6.454 -0.1615 -0.8309  0.2749
  846MOL0     N11557   7.898   1.420   6.465  0.1783  0.6222  1.0391
  846MOL0     C11558   7.983   1.444   6.568 -1.6002  0.3834  0.6232
  846MOL0     C11559   8.106   1.405   6.518 -0.2062  1.1715 -0.4597
  846MOL0     C11560   8.247   1.419   6.579  0.5198  0.3060  0.5267
  846MOL0     C11561   8.296   1.283   6.616 -0.8183  0.3604 -0.4105
  846MOL0     C11562   8.427   1.274   6.689 -0.1304  0.4995  0.0689
  846MOL0     C11563   8.538   1.272   6.579  0.2091 -0.5152  0.9248
  846MOL0     O11564   8.672   1.233   6.622 -0.4489 -0.1203  0.3531
  846MOL0     C11565   8.715   1.105   6.616 -0.8656  0.5162  0.2180
  846MOL0     C11566   8.629   0.998   6.578  0.8257  0.7165 -0.5986
  846MOL0     C11567   8.693   0.877   6.557 -1.1988  0.0019  0.1401
  846MOL0     C11568   8.828   0.852   6.590 -0.3649 -1.2607 -0.2508
  846MOL0     C11569   8.895   0.718   6.567 -0.1242 -0.6901  0.7546
  846MOL0     O11570   8.807   0.621   6.552  0.5546  0.2120  0.4921
  846MOL0     C11571   8.833   0.490   6.530 -0.5468  0.1210  0.0127
  846MOL0     C11572   8.743   0.399   6.591  0.0260  1.3126  0.6732
  846MOL0     C11573   8.772   0.260   6.586 -0.4968 -0.3088  0.2782
  846MOL0     C11574   8.896   0.214   6.542 -0.9828 -0.4061  0.6286
  846MOL0     O11575   8.928   0.084   6.557 -0.4955  0.1576  0.1824
  846MOL0     C11576   9.011   0.017   6.454 -0.4058 -0.1693 -0.2877
  846MOL0     C11577   9.151  -0.018   6.497 -0.7292  1.1536 -0.5174
  846MOL0     C11578   9.148  -0.134   6.602 -0.0579  0.3018 -0.4971
  846MOL0     C11579   9.165  -0.091   6.752  0.0692 -0.5157 -0.9350
  846MOL0     C11580   9.201  -0.214   6.846 -0.0170  1.1602 -0.9850
  846MOL0     C11581   9.333  -0.283   6.818 -0.0754 -0.1261 -0.1204
  846MOL0     C11582   9.452  -0.203   6.866 -0.6136 -0.6191 -0.1679
  846MOL0     C11583   9.583  -0.283   6.876  0.9116 -0.3772 -0.0239
  846MOL0    Cl11584   9.632  -0.335   6.717 -0.3492  0.3325  0.4196
  846MOL0     C11585   8.978   0.312   6.475 -0.5807  0.2863 -0.6009
  846MOL0     C11586   8.946   0.447   6.466 -0.4016 -0.0421 -0.3566
  846MOL0     O11587   9.022   0.708   6.583  0.3492 -0.9252 -0.1224
  846MOL0     C11588   8.905   0.966   6.628  0.2930 -0.8498  0.2984
  846MOL0     C11589   8.848   1.089   6.641  0.6373 -0.3821  0.1425
  846MOL0     N11590   8.088   1.369   6.387  0.2056 -0.1316  0.0824
  846MOL0     N11591   7.965   1.375   6.357  0.2260  0.2591  0.0239
  846MOL0     C11592   7.912   2.359   6.721  0.4885 -0.0875 -0.2246
  846MOL0     C11593   7.988   2.366   6.839 -0.3034 -0.7141  0.8689
  846MOL0     C11594   8.191   2.234   7.256 -0.1058  0.3051 -0.1479
  846MOL0     C11595   8.271   2.143   7.332  0.7285  0.0406  0.8524
  846MOL0     C11596   8.347   2.178   7.441 -0.4520  0.2152 -0.8664
  846MOL0     C11597   8.359   2.314   7.473  0.4668 -0.1939  0.4363
  846MOL0     O11598   8.431   2.364   7.584 -0.1386  0.5275 -0.4713
  846MOL0     C11599   8.565   2.308   7.611  0.6024 -0.1669  0.5003
  846MOL0     C11600   8.571   2.208   7.727  0.3817  0.8956 -0.0611
  846MOL0     C11601   8.494   2.264   7.841  0.1823 -0.7649  0.6701
  846MOL0     C11602   8.534   2.186   7.972  0.0709 -0.1945  0.5529
  846MOL0     C11603   8.490   2.052   7.989  0.2496 -0.2244  0.2105
  846MOL0     C11604   8.462   1.935   7.972  0.2201  0.4365 -0.8254
  846MOL0     C11605   8.292   2.409   7.399 -0.9631 -0.3994 -0.2887
  846MOL0     C11606   8.211   2.370   7.289 -0.5523 -0.1520 -0.4542
  846MOL0     H11607   7.856   2.088   6.996  1.0323  1.1318  0.7446
  846MOL0     H11608   7.722   2.091   6.809  0.4940 -0.5913  0.4268
  846MOL0     H11609   7.553   2.244   6.530  0.7862  0.8467 -1.0073
  846MOL0     H11610   7.580   2.162   6.684 -0.4891  0.8072  0.2331
  846MOL0     H11611   7.717   1.991   6.544  1.3363  1.2641 -1.2271
  846MOL0     H11612   7.640   2.079   6.403 -0.3500  1.5288  0.1993
  846MOL0     H11613   7.430   2.010   6.462 -3.1079 -0.9502  2.1046
  846MOL0     H11614   7.476   1.967   6.635 -0.2961 -5.1327  0.7297
  846MOL0     H11615   7.577   1.775   6.590  0.1472 -0.8251  0.1884
  846MOL0     H11616   7.420   1.763   6.521 -0.3282  1.4235 -0.1037
  846MOL0     H11617   7.671   1.842   6.360 -0.1683 -0.1105  0.5781
  846MOL0     H11618   7.512   1.795   6.288  0.5140 -2.1810 -1.3479
  846MOL0     H11619   7.652   1.617   6.253  0.0091  0.9652 -0.7712
  846MOL0     H11620   7.537   1.570   6.378 -0.9355  0.7377  0.8061
  846MOL0     H11621   7.819   1.656   6.440  1.5905 -0.5751  1.3825
  846MOL0     H11622   7.686   1.614   6.550 -2.8755  2.0133 -1.2172
  846MOL0     H11623   7.689   1.399   6.376 -1.5690 -1.5309  1.7578
  846MOL0     H11624   7.700   1.407   6.543 -1.5259  3.3507  1.4857
  846MOL0     H11625   7.971   1.480   6.669  2.2617 -0.3010  1.4764
  846MOL0     H11626   8.239   1.482   6.668  2.7730 -0.6560  1.4704
  846MOL0     H11627   8.309   1.482   6.515  2.1851 -1.3523  0.4566
  846MOL0     H11628   8.288   1.205   6.540 -3.1811 -0.0581  0.1898
  846MOL0     H11629   8.231   1.252   6.699  0.8628 -1.9155  0.1563
  846MOL0     H11630   8.455   1.349   6.764  2.5148 -0.1745 -0.1557
  846MOL0     H11631   8.421   1.183   6.748 -0.2039  0.7473  0.4469
  846MOL0     H11632   8.539   1.374   6.539  1.6729 -0.8719 -0.0538
  846MOL0     H11633   8.501   1.210   6.497  0.8061 -0.8780  0.9172
  846MOL0     H11634   8.527   1.016   6.544  1.7783  1.2879 -3.3750
  846MOL0     H11635   8.633   0.799   6.511  0.3855  0.7921 -3.6982
  846MOL0     H11636   8.654   0.429   6.646 -1.6878 -1.7297 -0.2346
  846MOL0     H11637   8.687   0.205   6.625 -2.2617  1.8853 -0.2894
  846MOL0     H11638   9.013   0.077   6.363 -0.4296  1.0005  0.4591
  846MOL0     H11639   8.957  -0.071   6.418  0.3379  0.2915 -2.6427
  846MOL0     H11640   9.197   0.070   6.544  2.6628 -0.4020 -0.6499
  846MOL0     H11641   9.207  -0.036   6.405  0.8086 -0.6492  0.7182
  846MOL0     H11642   9.240  -0.184   6.569 -0.0369  1.2848 -1.9965
  846MOL0     H11643   9.067  -0.205   6.581  1.0462 -0.7252 -1.4773
  846MOL0     H11644   9.240  -0.012   6.755  3.2426 -3.3381 -0.1658
  846MOL0     H11645   9.065  -0.056   6.780 -0.6208 -0.8939 -2.7137
  846MOL0     H11646   9.123  -0.291   6.841  1.2030 -0.0478 -2.8336
  846MOL0     H11647   9.197  -0.166   6.944  1.1876  1.3822 -1.0288
  846MOL0     H11648   9.343  -0.310   6.713 -0.1394 -1.3711  0.1718
  846MOL0     H11649   9.331  -0.368   6.887 -4.3065 -0.0907  0.0738
  846MOL0     H11650   9.462  -0.125   6.791  0.5246  0.8470  1.4289
  846MOL0     H11651   9.435  -0.153   6.962 -0.3638 -0.5862 -0.1391
  846MOL0     H11652   9.565  -0.366   6.944  1.9196  2.6879  4.4907
  846MOL0     H11653   9.669  -0.231   6.919  2.0677 -0.5437 -2.0241
  846MOL0     H11654   9.075   0.287   6.434  1.1619  3.1592  1.3652
  846MOL0     H11655   9.018   0.514   6.421  1.0556 -2.1210 -1.2859
  846MOL0     H11656   9.013   0.969   6.622  0.3165  3.3446 -0.8559
  846MOL0     H11657   8.916   1.169   6.669 -0.9518 -0.0471  3.5672
  846MOL0     H11658   7.918   2.431   6.639 -2.3680  2.3090  1.4386
  846MOL0     H11659   8.063   2.444   6.844  1.5469 -1.9240 -3.2392
  846MOL0     H11660   8.274   2.041   7.294 -2.8046  1.1281 -3.1177
  846MOL0     H11661   8.413   2.106   7.488  0.1010  2.4584  2.1177
  846MOL0     H11662   8.629   2.393   7.639  1.2277  0.2076 -1.8180
  846MOL0     H11663   8.613   2.267   7.521  2.7643  1.5867  0.7646
  846MOL0     H11664   8.520   2.118   7.692  0.9671  0.3219  0.5253
  846MOL0     H11665   8.676   2.186   7.744  0.2439 -1.8978 -2.2063
  846MOL0     H11666   8.388   2.265   7.814  0.6033  2.1326 -1.4448
  846MOL0     H11667   8.532   2.367   7.845 -1.6868 -0.0025 -0.2169
  846MOL0     H11668   8.644   2.182   7.972  0.1619 -2.6130 -3.0206
  846MOL0     H11669   8.516   2.245   8.062 -1.4045 -0.7948  0.6682
  846MOL0     H11670   8.449   1.831   7.951  1.7148 -0.5411  2.3827
  846MOL0     H11671   8.311   2.511   7.432 -1.6690 -0.0322 -1.0019
  846MOL0     H11672   8.175   2.453   7.230  2.3777  0.5710 -1.4105
  847MOL0     O11673  10.546   2.373   4.596 -0.6095  0.1982  1.0760
  847MOL0     C11674  10.593   2.449   4.505 -0.3216 -0.5776 -1.3474
  847MOL0     O11675  10.671   2.403   4.399  0.1996  1.3949 -1.3755
  847MOL0     C11676  10.679   2.274   4.350 -0.0704 -0.6647  0.2548
  847MOL0     C11677  10.785   2.245   4.263  0.2315  0.5360 -0.4569
  847MOL0     C11678  10.793   2.114   4.207 -0.2512  0.5973  0.2674
  847MOL0     C11679  10.685   2.019   4.220 -0.2258 -0.3975 -0.1165
  847MOL0     O11680  10.690   1.899   4.152 -0.2294 -0.1407  0.1607
  847MOL0     C11681  10.573   1.886   4.069  0.7809 -0.0574  0.3737
  847MOL0     C11682  10.620   1.833   3.934 -0.3966 -0.7643 -0.0931
  847MOL0     C11683  10.687   1.951   3.863  1.0085 -0.4554  0.5405
  847MOL0     C11684  10.714   1.923   3.714  0.9029 -0.0783 -0.3321
  847MOL0     C11685  10.587   1.919   3.624 -0.1081 -0.1694 -0.1786
  847MOL0     C11686  10.593   1.818   3.508 -0.3514 -0.5044 -0.5010
  847MOL0     C11687  10.676   1.887   3.399  1.3503 -0.5805 -0.2671
  847MOL0     C11688  10.689   1.806   3.270 -0.0592 -0.0035 -0.6904
  847MOL0     N11689  10.769   1.877   3.170 -1.6355  0.3283 -0.4826
  847MOL0     C11690  10.739   1.899   3.039 -0.3274  0.0821 -1.0647
  847MOL0     C11691  10.870   1.923   2.995 -1.2963 -0.1672  0.9900
  847MOL0     C11692  10.890   1.929   2.849  0.0186 -0.1031  0.4232
  847MOL0     C11693  11.018   1.861   2.793 -0.0573  0.3575 -0.3212
  847MOL0     C11694  11.046   1.899   2.652  0.4622 -0.6420  0.2799
  847MOL0     C11695  11.158   1.824   2.584  1.4098  0.4442 -0.2875
  847MOL0     O11696  11.226   1.895   2.479  0.1224  0.4130  0.0371
  847MOL0     C11697  11.299   2.011   2.505 -1.0309  0.0120  0.3056
  847MOL0     C11698  11.347   2.085   2.395  0.0550  1.0620 -0.6282
  847MOL0     C11699  11.423   2.198   2.398 -1.1761 -0.1342 -0.6480
  847MOL0     C11700  11.456   2.250   2.527  0.0717  0.7632  0.0547
  847MOL0     C11701  11.551   2.370   2.539 -0.4350 -0.5431 -0.0184
  847MOL0     O11702  11.560   2.426   2.666 -0.0123 -0.1189 -0.0308
  847MOL0     C11703  11.646   2.521   2.697 -0.1442 -0.7384  0.2920
  847MOL0     C11704  11.746   2.582   2.613  1.3571 -0.2441 -0.1342
  847MOL0     C11705  11.841   2.666   2.661 -0.4021 -0.7813 -0.4035
  847MOL0     C11706  11.840   2.698   2.798  0.0286  0.3117 -0.3796
  847MOL0     O11707  11.927   2.783   2.850  0.0686 -0.3807 -0.3343
  847MOL0     C11708  11.911   2.916   2.812  0.1113 -1.7466  0.1912
  847MOL0     C11709  12.040   2.992   2.838  0.2337 -0.2509 -0.8004
  847MOL0     C11710  12.168   2.914   2.833 -0.3886 -0.0886  0.2101
  847MOL0     C11711  12.289   3.003   2.856 -1.1389 -0.4727 -0.4738
  847MOL0     C11712  12.421   2.921   2.833  0.2451  0.6540  0.2892
  847MOL0     C11713  12.442   2.830   2.709 -0.3743  0.9323  0.0555
  847MOL0     C11714  12.408   2.895   2.582  0.0146 -0.4366  0.6542
  847MOL0     C11715  12.464   2.817   2.467  0.0344  0.1378  0.7664
  847MOL0    Cl11716  12.344   2.688   2.447 -0.2736 -0.4808 -0.3620
  847MOL0     C11717  11.735   2.647   2.884 -0.0519  0.5423  0.0107
  847MOL0     C11718  11.635   2.563   2.826  0.3715 -1.0866 -0.2975
  847MOL0     O11719  11.601   2.417   2.433 -0.3333  0.1362 -0.2886
  847MOL0     C11720  11.419   2.166   2.638  0.7201  0.1923  0.7899
  847MOL0     C11721  11.341   2.053   2.632 -0.5339 -0.4463 -0.1032
  847MOL0     N11722  10.960   1.932   3.092 -0.6179 -1.1272 -0.1255
  847MOL0     N11723  10.901   1.893   3.200 -0.5772 -0.5328 -0.0458
  847MOL0     C11724  10.581   2.049   4.303 -0.0016 -0.2207  0.1666
  847MOL0     C11725  10.580   2.171   4.372 -1.3126 -0.3525  0.0913
  847MOL0     C11726  10.586   2.593   4.519 -0.4077 -0.3167  0.5239
  847MOL0     C11727  10.675   2.668   4.442 -0.2095  0.1933 -0.5663
  847MOL0     C11728  10.707   2.800   4.476  0.6799  0.4934  0.6878
  847MOL0     C11729  10.625   2.869   4.571  0.0412 -0.4873 -0.5829
  847MOL0     O11730  10.633   2.997   4.609 -0.3080 -0.0823  0.3296
  847MOL0     C11731  10.753   3.069   4.575 -0.7975 -0.6773  0.3422
  847MOL0     C11732  10.753   3.213   4.630 -0.5751  0.6402  0.8441
  847MOL0     C11733  10.743   3.221   4.782 -0.7246  0.6067  1.0707
  847MOL0     C11734  10.780   3.350   4.855  0.2317 -0.3326  0.9881
  847MOL0     C11735  10.693   3.465   4.813  0.4539  0.1442 -0.3216
  847MOL0     C11736  10.622   3.555   4.773  1.1187 -1.1106  0.5014
  847MOL0     C11737  10.527   2.795   4.636 -0.2040  0.2652 -0.7895
  847MOL0     C11738  10.526   2.659   4.624 -0.3113 -0.2269 -0.3822
  847MOL0     H11739  10.861   2.314   4.227  0.2235 -1.3240 -4.6418
  847MOL0     H11740  10.870   2.086   4.135 -1.0747 -1.4660  0.1387
  847MOL0     H11741  10.536   1.988   4.057  2.5733  0.3989 -2.2472
  847MOL0     H11742  10.499   1.818   4.112 -1.9040  1.7959 -0.9900
  847MOL0     H11743  10.531   1.789   3.886 -0.1920 -1.0060 -0.2551
  847MOL0     H11744  10.694   1.753   3.942 -1.2134 -1.3419  2.8751
  847MOL0     H11745  10.779   1.978   3.916  0.3286 -0.9998  2.0294
  847MOL0     H11746  10.621   2.037   3.855 -1.6550 -2.5178 -2.1810
  847MOL0     H11747  10.775   2.007   3.680  1.4407 -1.0171 -1.8244
  847MOL0     H11748  10.767   1.828   3.704 -0.0633 -0.4479 -2.3255
  847MOL0     H11749  10.551   2.019   3.600  1.1924  0.4330  0.2817
  847MOL0     H11750  10.510   1.880   3.691  2.5753  0.7985  3.8969
  847MOL0     H11751  10.492   1.795   3.473  0.2950 -3.5664 -0.6735
  847MOL0     H11752  10.639   1.727   3.547  1.1810  0.9528  1.2687
  847MOL0     H11753  10.637   1.985   3.369 -0.0533 -0.8711  0.5271
  847MOL0     H11754  10.781   1.898   3.428  2.1954 -1.6656 -2.6836
  847MOL0     H11755  10.594   1.785   3.220  0.6804 -1.1984 -1.6311
  847MOL0     H11756  10.739   1.718   3.309 -0.1449  0.1444 -0.2364
  847MOL0     H11757  10.655   1.866   2.979 -1.2608 -2.5752  1.5034
  847MOL0     H11758  10.884   2.035   2.824 -0.0935 -0.2675 -0.2698
  847MOL0     H11759  10.800   1.888   2.802  0.0334 -1.4957  1.5462
  847MOL0     H11760  11.008   1.752   2.790  2.9621 -0.0208 -3.8051
  847MOL0     H11761  11.095   1.891   2.865  1.2666 -0.0209 -1.5371
  847MOL0     H11762  10.955   1.882   2.593  2.2998  1.9840 -3.7719
  847MOL0     H11763  11.066   2.005   2.636  1.6285 -0.7979  0.6178
  847MOL0     H11764  11.135   1.728   2.537 -1.6500  1.0896 -0.3709
  847MOL0     H11765  11.231   1.795   2.660  1.7982  0.0959 -0.7935
  847MOL0     H11766  11.308   2.064   2.296 -4.9214  0.1084  1.2023
  847MOL0     H11767  11.446   2.254   2.308  0.8759  0.0779 -0.0553
  847MOL0     H11768  11.759   2.576   2.506  3.9505 -1.4228  0.1837
  847MOL0     H11769  11.913   2.718   2.598  3.3634 -5.4252 -0.4722
  847MOL0     H11770  11.824   2.959   2.862 -0.9371 -1.1783 -2.0066
  847MOL0     H11771  11.868   2.930   2.713 -0.0785  1.5765  0.6230
  847MOL0     H11772  12.018   3.028   2.939 -1.7067  1.3724 -1.7186
  847MOL0     H11773  12.036   3.080   2.772 -1.2585 -1.8693 -3.0128
  847MOL0     H11774  12.180   2.852   2.743 -0.2415 -1.1837  0.9543
  847MOL0     H11775  12.175   2.837   2.910 -0.9114 -1.6851 -1.2659
  847MOL0     H11776  12.272   3.085   2.786 -0.6252 -1.1764 -1.4462
  847MOL0     H11777  12.295   3.039   2.960  1.1729  0.5072 -0.8914
  847MOL0     H11778  12.412   2.844   2.911  2.7364 -0.6237 -0.6005
  847MOL0     H11779  12.507   2.984   2.857 -0.7040  1.6767  1.1167
  847MOL0     H11780  12.379   2.741   2.722  2.8369 -1.9463 -2.2147
  847MOL0     H11781  12.547   2.798   2.704  0.8307  4.6404 -1.2228
  847MOL0     H11782  12.300   2.908   2.571  0.0001 -0.1855  1.0630
  847MOL0     H11783  12.451   2.996   2.579 -0.3342 -0.3207 -1.2252
  847MOL0     H11784  12.565   2.783   2.495  0.5749  0.2213 -0.9669
  847MOL0     H11785  12.458   2.883   2.380 -0.8553  1.7803  2.0341
  847MOL0     H11786  11.717   2.654   2.991 -2.7639  2.3173 -0.4637
  847MOL0     H11787  11.556   2.523   2.889 -1.3732  2.2745 -0.1091
  847MOL0     H11788  11.455   2.198   2.735  0.8217 -0.2148  0.8900
  847MOL0     H11789  11.312   2.001   2.723  0.2567  0.2674  0.5710
  847MOL0     H11790  10.503   1.980   4.334  1.0382 -1.3678  0.3262
  847MOL0     H11791  10.493   2.188   4.435 -0.4183 -0.8663  1.5233
  847MOL0     H11792  10.729   2.623   4.359 -0.9216 -0.6293 -0.6020
  847MOL0     H11793  10.792   2.847   4.427  2.4566 -1.2112  1.9865
  847MOL0     H11794  10.743   3.070   4.466 -3.4050 -2.1877  0.4655
  847MOL0     H11795  10.848   3.017   4.587 -0.5655  0.1872  2.8799
  847MOL0     H11796  10.846   3.258   4.595  2.5319 -5.7866 -0.5991
  847MOL0     H11797  10.669   3.272   4.593 -0.2431 -0.4740 -1.9295
  847MOL0     H11798  10.819   3.152   4.819  1.6111  2.1412 -0.5713
  847MOL0     H11799  10.645   3.187   4.816 -1.2978  1.4949  0.3575
  847MOL0     H11800  10.766   3.319   4.959  0.5490 -3.3655  0.2204
  847MOL0     H11801  10.883   3.377   4.831 -0.3953  3.0631  1.5817
  847MOL0     H11802  10.559   3.633   4.735  1.1382 -1.1781  0.3271
  847MOL0     H11803  10.490   2.840   4.728  0.7017  1.5588 -1.0237
  847MOL0     H11804  10.465   2.593   4.686 -1.6977  1.2504 -0.0990
  848MOL0     O11805   1.648   2.186   7.438  0.7690  0.0473 -0.2690
  848MOL0     C11806   1.584   2.118   7.357  0.7508 -0.0210  0.4052
  848MOL0     O11807   1.461   2.072   7.363  0.4415  0.4667 -0.1090
  848MOL0     C11808   1.404   2.072   7.482 -0.1063 -0.1878  0.1418
  848MOL0     C11809   1.286   2.146   7.508 -0.4632  0.1901  0.4676
  848MOL0     C11810   1.221   2.142   7.637  0.1608 -0.9283  0.4774
  848MOL0     C11811   1.273   2.067   7.740 -0.3181 -0.8848 -0.7724
  848MOL0     O11812   1.213   2.057   7.865 -0.3637  0.3494  0.7269
  848MOL0     C11813   1.124   1.944   7.863  0.4131  0.0779 -0.1256
  848MOL0     C11814   1.050   1.936   7.995  0.7452  0.9203  0.3442
  848MOL0     C11815   0.938   2.034   8.008  0.0201  0.0468 -0.5898
  848MOL0     C11816   0.990   2.183   8.013 -0.1619  0.3783  0.0656
  848MOL0     C11817   0.872   2.272   8.042 -1.0208 -0.5898  0.4070
  848MOL0     C11818   0.898   2.424   8.037  0.8142 -0.0824 -0.3809
  848MOL0     C11819   0.905   2.483   7.889 -0.2785 -0.7211  0.8694
  848MOL0     C11820   0.783   2.466   7.792 -0.3694  0.4647 -0.3305
  848MOL0     N11821   0.647   2.480   7.852  0.7571 -0.0720  0.8442
  848MOL0     C11822   0.619   2.579   7.939 -0.2174 -0.8729  0.9148
  848MOL0     C11823   0.487   2.548   7.967 -0.1963 -0.1199 -0.1374
  848MOL0     C11824   0.385   2.611   8.056  0.2828  0.5596 -0.8315
  848MOL0     C11825   0.348   2.523   8.183 -0.0794  0.2336 -0.5776
  848MOL0     C11826   0.286   2.617   8.283 -0.1840 -0.5402 -0.3998
  848MOL0     C11827   0.136   2.639   8.281 -0.2150 -1.1287  1.1465
  848MOL0     O11828   0.086   2.701   8.151  0.4251  0.3645 -0.1441
  848MOL0     C11829  -0.042   2.749   8.158 -0.1294  1.1283 -0.2578
  848MOL0     C11830  -0.150   2.689   8.228 -0.2729 -0.0221 -0.5963
  848MOL0     C11831  -0.271   2.754   8.250  0.2166  0.5858 -0.2575
  848MOL0     C11832  -0.300   2.875   8.195 -0.1964 -0.0436 -0.7319
  848MOL0     C11833  -0.429   2.943   8.220 -0.1298  0.1680 -0.0251
  848MOL0     O11834  -0.413   3.084   8.194  1.2475  0.0908  0.2433
  848MOL0     C11835  -0.526   3.162   8.191 -0.9782  0.8063  0.3503
  848MOL0     C11836  -0.592   3.177   8.070  0.3013 -0.4346  0.5143
  848MOL0     C11837  -0.700   3.263   8.063  0.9847 -0.4493  0.6939
  848MOL0     C11838  -0.735   3.346   8.170  0.5966 -0.0714  0.2490
  848MOL0     O11839  -0.843   3.430   8.146 -0.1064  0.5775 -0.7059
  848MOL0     C11840  -0.901   3.494   8.262 -1.2225 -0.3656  0.2709
  848MOL0     C11841  -0.979   3.618   8.205 -0.3242  0.5029 -0.2747
  848MOL0     C11842  -1.081   3.586   8.100 -0.0429 -1.0096  0.5667
  848MOL0     C11843  -1.186   3.695   8.099 -0.2559 -1.2270 -0.6023
  848MOL0     C11844  -1.264   3.701   7.961 -0.0604  0.2238  0.0279
  848MOL0     C11845  -1.355   3.818   7.946 -1.0420  0.0065 -0.1529
  848MOL0     C11846  -1.439   3.821   7.819  0.2012  0.5174 -0.4208
  848MOL0     C11847  -1.526   3.947   7.798  0.5667 -0.4371 -0.5565
  848MOL0    Cl11848  -1.691   3.952   7.874  0.0826  0.2123  0.0065
  848MOL0     C11849  -0.666   3.333   8.297  0.1986  0.6415  0.3427
  848MOL0     C11850  -0.566   3.233   8.304 -0.0381 -0.4746  0.1080
  848MOL0     O11851  -0.536   2.885   8.259  0.2071  0.8299  0.0476
  848MOL0     C11852  -0.194   2.936   8.131 -0.1880  0.2721  0.5983
  848MOL0     C11853  -0.071   2.878   8.116 -0.6340  1.1528 -1.1287
  848MOL0     N11854   0.447   2.446   7.886 -0.2602  0.1188  0.5691
  848MOL0     N11855   0.548   2.394   7.817  0.0561  0.0381  0.4990
  848MOL0     C11856   1.383   1.977   7.708  0.6319 -0.1148 -0.0768
  848MOL0     C11857   1.440   1.982   7.579  0.1493  0.2270 -0.2893
  848MOL0     C11858   1.654   2.078   7.231 -0.2832  0.3175 -0.4900
  848MOL0     C11859   1.780   2.129   7.203  0.6133  0.1102  0.8547
  848MOL0     C11860   1.855   2.106   7.091 -0.0913  0.6819 -0.6001
  848MOL0     C11861   1.790   2.053   6.981 -0.2781  0.4357 -0.3669
  848MOL0     O11862   1.852   2.019   6.859  0.1218 -0.3488 -0.7195
  848MOL0     C11863   1.977   1.956   6.878 -0.2165  0.2261 -0.5896
  848MOL0     C11864   2.093   2.054   6.873  0.4053 -0.3969 -0.5501
  848MOL0     C11865   2.149   2.058   6.734  1.0589  0.2249 -0.4349
  848MOL0     C11866   2.263   2.163   6.706  0.4284 -0.2681 -0.1755
  848MOL0     C11867   2.394   2.120   6.743  1.0820 -0.8023 -0.6054
  848MOL0     C11868   2.512   2.094   6.767 -0.1454  0.3179  0.0342
  848MOL0     C11869   1.657   2.002   7.001  0.4721  0.0709 -0.4745
  848MOL0     C11870   1.591   2.011   7.126 -1.1098 -0.2180 -0.0873
  848MOL0     H11871   1.240   2.217   7.440 -0.4147  1.5677  1.8073
  848MOL0     H11872   1.125   2.191   7.648  0.7555  0.8278 -1.4075
  848MOL0     H11873   1.176   1.851   7.840 -1.0610 -0.7688 -0.1691
  848MOL0     H11874   1.058   1.949   7.776  2.6000  3.3405 -1.8013
  848MOL0     H11875   1.117   1.938   8.081 -1.1831 -1.0742  2.0237
  848MOL0     H11876   0.999   1.839   7.992 -0.2609  1.3742  1.7296
  848MOL0     H11877   0.893   2.008   8.104 -2.5799 -2.3275 -2.2803
  848MOL0     H11878   0.858   2.025   7.934 -2.5261  2.1172  1.7137
  848MOL0     H11879   1.069   2.190   8.089  1.3161 -1.9972 -1.1132
  848MOL0     H11880   1.037   2.207   7.918  0.2896  2.8653  0.8522
  848MOL0     H11881   0.834   2.249   8.142 -1.8645 -0.2901  0.1572
  848MOL0     H11882   0.799   2.252   7.964 -0.3696  1.0255 -0.6745
  848MOL0     H11883   0.990   2.445   8.093  0.9203 -1.7970  0.1355
  848MOL0     H11884   0.815   2.479   8.082 -1.5648 -1.9736 -2.2078
  848MOL0     H11885   0.917   2.592   7.896  0.4815 -0.5983 -1.5539
  848MOL0     H11886   0.991   2.445   7.833 -0.4910  0.4561 -0.3216
  848MOL0     H11887   0.780   2.362   7.757 -2.0134  0.3094  0.1602
  848MOL0     H11888   0.779   2.537   7.709 -2.6820  0.7130 -0.0748
  848MOL0     H11889   0.687   2.649   7.987 -0.7426 -0.0151  0.4301
  848MOL0     H11890   0.293   2.624   7.997 -2.5821 -1.3227  2.8151
  848MOL0     H11891   0.423   2.710   8.082  3.6563 -0.7354 -0.3428
  848MOL0     H11892   0.446   2.492   8.221  0.1512  2.5648  0.9460
  848MOL0     H11893   0.278   2.439   8.173  2.6581 -2.3972  0.8365
  848MOL0     H11894   0.315   2.569   8.377  2.2958  2.7987  0.7262
  848MOL0     H11895   0.332   2.714   8.302  2.2844 -2.1800  3.2783
  848MOL0     H11896   0.105   2.704   8.363  0.3683 -0.1676  0.6217
  848MOL0     H11897   0.093   2.539   8.293 -1.0660 -1.0206 -0.6871
  848MOL0     H11898  -0.124   2.587   8.256 -0.4048  0.6380  2.2227
  848MOL0     H11899  -0.343   2.711   8.319  1.0825  1.2417  1.0851
  848MOL0     H11900  -0.579   3.109   7.987  1.3256  0.0113  0.2975
  848MOL0     H11901  -0.763   3.259   7.975 -0.5787 -0.0508  1.7376
  848MOL0     H11902  -0.826   3.540   8.327  0.6325  2.2840 -3.3277
  848MOL0     H11903  -0.960   3.423   8.321 -1.2672  0.3558  1.1211
  848MOL0     H11904  -0.906   3.685   8.160 -0.7810 -0.9113 -3.3636
  848MOL0     H11905  -1.023   3.671   8.290  1.6567  0.0074  1.1218
  848MOL0     H11906  -1.131   3.493   8.126  0.7459 -1.2611  1.2100
  848MOL0     H11907  -1.038   3.570   8.001 -0.2981  2.0342 -0.1392
  848MOL0     H11908  -1.264   3.680   8.174 -0.9648 -1.5809 -1.3905
  848MOL0     H11909  -1.146   3.796   8.111 -0.0479 -1.4424  0.5546
  848MOL0     H11910  -1.332   3.616   7.950 -1.9663  1.9983 -3.5837
  848MOL0     H11911  -1.194   3.710   7.878  0.2502 -0.6206  0.1890
  848MOL0     H11912  -1.290   3.905   7.958  0.4318 -1.2742  1.9335
  848MOL0     H11913  -1.415   3.842   8.034  0.8408 -0.0194  1.2097
  848MOL0     H11914  -1.378   3.799   7.730 -0.8220 -0.5604 -0.8976
  848MOL0     H11915  -1.514   3.740   7.818  0.7472  0.0104 -1.2376
  848MOL0     H11916  -1.555   3.953   7.693  1.5278 -0.8849 -0.8597
  848MOL0     H11917  -1.467   4.038   7.813 -0.5201  0.4674 -1.5750
  848MOL0     H11918  -0.689   3.396   8.383 -0.8731  0.9084 -0.1218
  848MOL0     H11919  -0.525   3.217   8.403 -0.3270  0.3765  0.3723
  848MOL0     H11920  -0.222   3.032   8.090 -0.1904  0.8248  1.8469
  848MOL0     H11921   0.014   2.933   8.077 -0.2503 -0.6199 -2.9902
  848MOL0     H11922   1.419   1.904   7.780 -1.8192 -2.1826 -0.7783
  848MOL0     H11923   1.525   1.917   7.562 -1.6861 -2.0692 -1.3196
  848MOL0     H11924   1.825   2.199   7.272  0.2859  1.4592 -0.2465
  848MOL0     H11925   1.951   2.153   7.075  1.2112 -2.1023 -1.6591
  848MOL0     H11926   1.988   1.877   6.802  3.7980  0.3365 -0.3005
  848MOL0     H11927   1.977   1.901   6.972 -0.7732 -1.1177 -1.3341
  848MOL0     H11928   2.062   2.155   6.902 -1.3793 -0.8042 -0.9115
  848MOL0     H11929   2.170   2.033   6.948  1.1629  1.5824 -0.7043
  848MOL0     H11930   2.074   2.063   6.655  2.2855  2.1005 -1.5506
  848MOL0     H11931   2.200   1.963   6.716  0.2066 -0.2651 -0.2979
  848MOL0     H11932   2.273   2.172   6.597  1.7792 -0.8283 -0.1188
  848MOL0     H11933   2.233   2.259   6.749  0.5978  0.0921 -0.8521
  848MOL0     H11934   2.618   2.086   6.775 -0.1185 -3.2217 -1.7882
  848MOL0     H11935   1.617   1.949   6.915  0.2364 -0.5709  0.0228
  848MOL0     H11936   1.489   1.972   7.129 -2.3378  2.6996  0.0212
  849MOL0     O11937   9.656   5.318   8.118 -0.4825 -0.1144  0.6343
  849MOL0     C11938   9.618   5.422   8.172  0.2523 -0.3967 -0.4942
  849MOL0     O11939   9.514   5.427   8.258 -0.0050 -0.2498 -0.8812
  849MOL0     C11940   9.427   5.323   8.303  0.2512  0.4045  0.4256
  849MOL0     C11941   9.418   5.190   8.255  0.2583 -0.4559  0.0346
  849MOL0     C11942   9.337   5.092   8.318  0.3376 -0.2839 -0.2357
  849MOL0     C11943   9.256   5.130   8.433  0.7446 -0.4361  0.2515
  849MOL0     O11944   9.188   5.040   8.506 -0.1483  0.7983  0.1349
  849MOL0     C11945   9.130   4.938   8.428 -0.0258  0.1299 -0.2291
  849MOL0     C11946   9.031   4.848   8.513 -0.5874 -0.9057 -0.3955
  849MOL0     C11947   8.924   4.946   8.580  0.0923  0.0439  0.3820
  849MOL0     C11948   8.841   5.033   8.487 -0.0565 -0.4516 -1.0885
  849MOL0     C11949   8.774   5.141   8.574 -0.2040 -0.0459 -0.2643
  849MOL0     C11950   8.870   5.261   8.607  0.0758  0.4269 -0.2441
  849MOL0     C11951   8.819   5.376   8.689  1.2712  0.4740 -0.0439
  849MOL0     C11952   8.929   5.489   8.712  0.2062  0.5427  0.7828
  849MOL0     N11953   8.939   5.591   8.602 -0.6004 -0.0040  0.4683
  849MOL0     C11954   8.937   5.730   8.608 -0.9757  0.7569  1.2615
  849MOL0     C11955   9.046   5.775   8.535  0.1547  1.0132 -0.9013
  849MOL0     C11956   9.091   5.915   8.509 -0.0344 -0.2222  0.3890
  849MOL0     C11957   9.176   5.967   8.620 -0.8416 -0.8932  0.2408
  849MOL0     C11958   9.199   6.125   8.607 -0.0035  0.1411  0.1080
  849MOL0     C11959   9.277   6.164   8.485  0.3348  1.0489  0.3158
  849MOL0     O11960   9.304   6.303   8.505  0.7275 -0.8359  0.1900
  849MOL0     C11961   9.353   6.375   8.398  0.7898  0.3533 -0.0312
  849MOL0     C11962   9.376   6.509   8.422 -0.2006  0.0384 -0.1271
  849MOL0     C11963   9.398   6.599   8.311  0.5573 -0.4322  0.2383
  849MOL0     C11964   9.408   6.552   8.179  0.2333  0.5307 -0.1494
  849MOL0     C11965   9.433   6.647   8.070  0.5429 -0.1076  0.8552
  849MOL0     O11966   9.456   6.596   7.945 -0.4446  0.2395  0.8506
  849MOL0     C11967   9.476   6.672   7.834 -0.4953 -0.2633  0.2814
  849MOL0     C11968   9.549   6.610   7.740  0.7789  0.0458 -0.6631
  849MOL0     C11969   9.578   6.677   7.623 -0.7625 -0.8189 -0.9316
  849MOL0     C11970   9.507   6.799   7.591 -0.5766  1.0732  0.6441
  849MOL0     O11971   9.542   6.847   7.465 -0.1483 -1.0095 -0.7168
  849MOL0     C11972   9.555   6.991   7.475  0.5307  0.5934 -0.4292
  849MOL0     C11973   9.632   7.030   7.353  0.3760  0.2053 -0.5978
  849MOL0     C11974   9.628   7.180   7.351 -0.6113  0.7325 -0.1636
  849MOL0     C11975   9.676   7.244   7.214 -0.5466 -0.0361  0.4204
  849MOL0     C11976   9.817   7.202   7.151  0.5773  0.2768  0.2863
  849MOL0     C11977   9.881   7.298   7.054  0.8172  0.5929  0.0719
  849MOL0     C11978  10.006   7.239   6.998 -0.0388 -0.7527  0.0295
  849MOL0     C11979  10.079   7.338   6.912 -0.3936 -0.4127  0.9141
  849MOL0    Cl11980  10.186   7.457   6.994 -0.0444  0.1256 -0.5958
  849MOL0     C11981   9.427   6.858   7.688  0.1799 -0.0515  0.3165
  849MOL0     C11982   9.402   6.789   7.804  0.4200 -0.4075  0.1268
  849MOL0     O11983   9.429   6.769   8.097 -0.0176 -0.6525 -0.5318
  849MOL0     C11984   9.396   6.417   8.161  0.0619  1.2826 -0.8513
  849MOL0     C11985   9.365   6.332   8.269  0.6568 -0.1426 -0.2045
  849MOL0     N11986   9.092   5.672   8.458  0.0897  0.0336 -0.0150
  849MOL0     N11987   9.016   5.563   8.490  0.0911  0.3438 -0.2157
  849MOL0     C11988   9.265   5.263   8.472  0.1109 -0.5224  0.6020
  849MOL0     C11989   9.341   5.359   8.403 -0.9164  0.1350 -0.8546
  849MOL0     C11990   9.707   5.537   8.146 -0.0992  0.4919 -0.1091
  849MOL0     C11991   9.652   5.657   8.158  0.8507 -1.5988  0.4430
  849MOL0     C11992   9.729   5.770   8.127  0.4326 -0.2303  0.4390
  849MOL0     C11993   9.862   5.763   8.104  0.1326  0.2077 -0.9545
  849MOL0     O11994   9.931   5.871   8.084 -0.3703 -0.5737 -0.7819
  849MOL0     C11995   9.995   5.920   8.212 -0.4089  0.1553  1.1500
  849MOL0     C11996  10.098   6.024   8.174 -0.6085  0.7211  1.0481
  849MOL0     C11997  10.075   6.170   8.203  0.8330 -0.8409 -0.5636
  849MOL0     C11998  10.074   6.199   8.351 -0.1298 -0.9506  0.2164
  849MOL0     C11999  10.063   6.342   8.384 -0.0282  0.1755 -0.1399
  849MOL0     C12000  10.056   6.456   8.407 -1.0111 -1.0292  0.9166
  849MOL0     C12001   9.920   5.639   8.084  0.8990 -0.5560 -0.7512
  849MOL0     C12002   9.844   5.517   8.106  0.6237 -0.2663 -0.7479
  849MOL0     H12003   9.479   5.170   8.168 -0.7932  2.1811 -1.4027
  849MOL0     H12004   9.325   4.987   8.293 -0.9414 -0.1981 -0.0665
  849MOL0     H12005   9.205   4.869   8.388 -0.1249  0.0009 -0.1908
  849MOL0     H12006   9.075   4.980   8.344 -0.1430 -0.7677 -0.6018
  849MOL0     H12007   9.089   4.810   8.598 -1.6500 -2.2475 -0.2367
  849MOL0     H12008   8.976   4.770   8.461 -4.2950  0.4564  1.1585
  849MOL0     H12009   8.985   5.008   8.647  0.8412 -2.7049  2.4736
  849MOL0     H12010   8.853   4.887   8.638 -0.8300 -0.9854 -1.7041
  849MOL0     H12011   8.894   5.081   8.404  0.2357  1.8643  0.3498
  849MOL0     H12012   8.761   4.970   8.447  0.1435 -0.5037 -1.4069
  849MOL0     H12013   8.723   5.099   8.661 -2.8576 -0.0579 -1.7322
  849MOL0     H12014   8.691   5.178   8.514  1.1866  0.2729 -2.0970
  849MOL0     H12015   8.905   5.294   8.508 -0.5653 -2.4189 -1.5174
  849MOL0     H12016   8.950   5.217   8.667 -2.8350 -4.0506  0.8235
  849MOL0     H12017   8.733   5.406   8.628  2.6059  2.9436 -0.8567
  849MOL0     H12018   8.784   5.329   8.781  2.3531 -1.3405 -0.5088
  849MOL0     H12019   9.027   5.441   8.722  1.0755  1.6778 -1.5633
  849MOL0     H12020   8.913   5.548   8.803 -1.7541  0.7374  0.3617
  849MOL0     H12021   8.878   5.792   8.675  1.0998  1.2737  2.7310
  849MOL0     H12022   9.000   5.974   8.501 -0.3169 -0.5228  1.3184
  849MOL0     H12023   9.149   5.916   8.416  0.8727 -1.5600  0.9002
  849MOL0     H12024   9.272   5.914   8.628 -1.2073 -1.3293  2.5472
  849MOL0     H12025   9.126   5.957   8.717 -0.7004  2.2824  0.7425
  849MOL0     H12026   9.105   6.180   8.611  0.8194  1.5173  2.7689
  849MOL0     H12027   9.262   6.155   8.691 -0.8978  2.8542 -0.1206
  849MOL0     H12028   9.223   6.139   8.394  0.9818 -1.3995  0.5470
  849MOL0     H12029   9.371   6.108   8.483 -1.3121 -1.9498  1.5947
  849MOL0     H12030   9.352   6.542   8.523 -0.9400  0.9739 -0.5822
  849MOL0     H12031   9.394   6.707   8.322 -0.8808 -0.6635  3.0156
  849MOL0     H12032   9.584   6.513   7.775 -1.8186 -0.0245  2.0916
  849MOL0     H12033   9.640   6.634   7.546  0.6387  3.3562 -2.4281
  849MOL0     H12034   9.615   7.018   7.563  3.2261  1.8633 -2.5087
  849MOL0     H12035   9.453   7.029   7.480  0.0719 -0.7658  1.5942
  849MOL0     H12036   9.587   6.992   7.261 -1.0243  0.2121  0.0548
  849MOL0     H12037   9.728   6.981   7.372 -0.8083 -0.9558  3.2388
  849MOL0     H12038   9.696   7.215   7.430 -0.1346 -0.5310  0.0128
  849MOL0     H12039   9.528   7.220   7.368 -1.2378  0.0845 -2.1266
  849MOL0     H12040   9.598   7.235   7.138 -1.4918  4.1981  0.6552
  849MOL0     H12041   9.692   7.350   7.235  0.5094  0.1476 -1.2104
  849MOL0     H12042   9.812   7.101   7.109 -2.1151 -0.4157  2.0785
  849MOL0     H12043   9.885   7.196   7.236 -0.8123  1.9374  1.5826
  849MOL0     H12044   9.889   7.389   7.115 -0.1782  0.3705  0.5584
  849MOL0     H12045   9.810   7.313   6.972 -1.5119 -1.1398  1.6308
  849MOL0     H12046  10.072   7.206   7.079 -1.7538 -0.3334  1.6680
  849MOL0     H12047   9.982   7.161   6.924  1.4588  0.1895 -1.5251
  849MOL0     H12048  10.003   7.394   6.855  1.5172  2.4777  0.9554
  849MOL0     H12049  10.146   7.284   6.844  1.8382  3.6170 -0.4518
  849MOL0     H12050   9.366   6.948   7.689 -0.8681 -0.7382  0.1845
  849MOL0     H12051   9.334   6.833   7.876  0.4113 -0.7579  0.3342
  849MOL0     H12052   9.419   6.381   8.061  1.3575 -0.2052 -0.0552
  849MOL0     H12053   9.368   6.226   8.246 -1.4045 -0.1917 -0.4439
  849MOL0     H12054   9.204   5.284   8.559  0.7557 -3.7077  1.9715
  849MOL0     H12055   9.331   5.463   8.432  1.4724 -0.2923  1.9725
  849MOL0     H12056   9.545   5.666   8.170  0.7999  0.5049 -1.1214
  849MOL0     H12057   9.692   5.872   8.133  0.1270 -0.3773  1.2141
  849MOL0     H12058  10.044   5.833   8.258 -1.3645 -1.3428 -0.5698
  849MOL0     H12059   9.918   5.963   8.277 -3.1612 -1.1276 -1.0769
  849MOL0     H12060  10.179   5.986   8.237 -1.9825 -0.2798  2.2597
  849MOL0     H12061  10.132   6.019   8.070  2.0975 -1.7269  1.8983
  849MOL0     H12062   9.971   6.198   8.184  0.7916  0.7387  1.5682
  849MOL0     H12063  10.141   6.241   8.153  1.9328 -0.8086  0.8730
  849MOL0     H12064   9.989   6.152   8.401  0.7596 -2.0130  0.7834
  849MOL0     H12065  10.170   6.163   8.388  0.0727 -0.1330  0.5057
  849MOL0     H12066  10.069   6.558   8.436  0.2397 -1.3851  1.6866
  849MOL0     H12067  10.025   5.629   8.059  1.3140 -1.7089  1.1989
  849MOL0     H12068   9.877   5.416   8.081 -0.5343 -0.6985 -0.5997
  850MOL0     O12069   4.884   0.478   5.114  0.2134  0.3692 -0.0780
  850MOL0     C12070   4.873   0.501   4.997 -0.0815 -1.2430  0.1808
  850MOL0     O12071   4.759   0.567   4.936 -0.8225 -0.7948 -1.0152
  850MOL0     C12072   4.655   0.627   5.002  0.5635 -0.3072 -0.5766
  850MOL0     C12073   4.569   0.697   4.914  0.2521 -0.7064 -0.0504
  850MOL0     C12074   4.459   0.771   4.965  1.2968  1.5235 -0.3999
  850MOL0     C12075   4.430   0.784   5.107 -0.6572  0.2679  0.1155
  850MOL0     O12076   4.320   0.857   5.136  0.4558 -0.1041 -0.5573
  850MOL0     C12077   4.297   0.875   5.272  0.6258 -0.6224 -0.1586
  850MOL0     C12078   4.155   0.947   5.299  0.5887  0.3568  0.0020
  850MOL0     C12079   4.100   0.908   5.430  0.7979 -0.9113  0.3653
  850MOL0     C12080   3.967   0.953   5.448  0.9739 -0.1232 -0.7549
  850MOL0     C12081   3.946   1.112   5.440 -1.0444 -0.3811 -0.5691
  850MOL0     C12082   4.050   1.201   5.522 -1.0438 -0.0636 -0.3164
  850MOL0     C12083   4.037   1.173   5.669 -0.1111 -0.5176 -0.0945
  850MOL0     C12084   4.134   1.271   5.750  0.6301 -0.0983 -0.6326
  850MOL0     N12085   4.113   1.240   5.894  0.4083 -0.0864 -0.7951
  850MOL0     C12086   4.015   1.308   5.965  0.2044 -0.2903  0.2884
  850MOL0     C12087   4.022   1.243   6.085  0.0785 -0.0896  0.4470
  850MOL0     C12088   3.940   1.292   6.203 -0.6766 -0.9359  0.0768
  850MOL0     C12089   4.027   1.246   6.328  0.6910  0.9436  1.0290
  850MOL0     C12090   3.987   1.311   6.460  0.5256 -0.6086 -0.2359
  850MOL0     C12091   3.851   1.270   6.507 -0.4019  1.0153 -0.2531
  850MOL0     O12092   3.841   1.247   6.650  0.3777 -0.4132 -0.4908
  850MOL0     C12093   3.858   1.351   6.739 -0.6280 -0.3495  0.6835
  850MOL0     C12094   3.868   1.325   6.873 -0.8985  0.5021  0.2144
  850MOL0     C12095   3.891   1.430   6.967 -0.0731  0.3957  0.9397
  850MOL0     C12096   3.891   1.563   6.930  0.0463 -0.6520 -0.7636
  850MOL0     C12097   3.903   1.665   7.036  0.4877 -0.1278 -0.5854
  850MOL0     O12098   3.973   1.628   7.139  0.2814  0.4628 -0.2690
  850MOL0     C12099   3.984   1.712   7.241  0.4442  0.1308 -0.6767
  850MOL0     C12100   4.080   1.816   7.242 -0.6210 -0.2481  0.2334
  850MOL0     C12101   4.082   1.905   7.347 -0.1122  0.4740  0.6530
  850MOL0     C12102   3.992   1.891   7.454 -0.1076 -0.4101 -0.6038
  850MOL0     O12103   3.999   1.980   7.554  0.0074 -0.2477  0.0338
  850MOL0     C12104   4.069   1.935   7.673 -0.1038 -0.5616  0.0660
  850MOL0     C12105   4.008   1.992   7.802  0.4673 -0.4859  0.5253
  850MOL0     C12106   4.084   1.954   7.931  0.4453  0.5772  1.8087
  850MOL0     C12107   4.011   1.986   8.056  1.2084 -0.5584 -0.9093
  850MOL0     C12108   4.089   1.987   8.187  0.1498 -0.1548 -0.9247
  850MOL0     C12109   4.011   2.025   8.317  0.6895 -0.6822 -0.1939
  850MOL0     C12110   3.875   1.942   8.340 -0.6228 -0.0409 -0.4712
  850MOL0     C12111   3.838   1.953   8.485 -0.0824  0.2990  0.4183
  850MOL0    Cl12112   3.744   2.092   8.508 -0.0644  0.5387 -0.2763
  850MOL0     C12113   3.890   1.801   7.447  0.4284  1.1679 -0.3387
  850MOL0     C12114   3.883   1.708   7.340  0.1238  0.7905 -0.1997
  850MOL0     O12115   3.842   1.769   7.021  0.0823 -0.4104 -0.8716
  850MOL0     C12116   3.887   1.589   6.790 -0.7930  0.1661 -0.1880
  850MOL0     C12117   3.878   1.482   6.697  1.2511  0.8360 -0.1959
  850MOL0     N12118   4.090   1.128   6.068 -0.2375  0.6271  0.5171
  850MOL0     N12119   4.159   1.136   5.962 -0.5288  0.5396 -0.6789
  850MOL0     C12120   4.514   0.704   5.189 -0.2500  0.9088  0.1152
  850MOL0     C12121   4.622   0.632   5.140 -0.0653  0.3646 -0.0031
  850MOL0     C12122   4.994   0.483   4.912  0.9676 -0.0301 -0.5476
  850MOL0     C12123   4.986   0.505   4.769  0.1972 -0.1695 -0.1616
  850MOL0     C12124   5.105   0.479   4.695  0.9227 -0.7918  1.1409
  850MOL0     C12125   5.225   0.454   4.753 -0.0469 -0.2721 -0.4692
  850MOL0     O12126   5.345   0.436   4.681 -0.1405  0.1589  0.1266
  850MOL0     C12127   5.319   0.410   4.542 -0.9482  0.2279 -0.2658
  850MOL0     C12128   5.440   0.342   4.497  0.5351 -0.5668  0.2210
  850MOL0     C12129   5.564   0.431   4.509 -0.4780 -0.0047 -0.0806
  850MOL0     C12130   5.678   0.374   4.432 -1.0625  0.0674 -0.4984
  850MOL0     C12131   5.733   0.251   4.494  0.5794 -1.3480 -1.2426
  850MOL0     C12132   5.778   0.149   4.544 -0.6825 -0.4229 -0.1202
  850MOL0     C12133   5.231   0.441   4.896  0.1211 -0.6612 -0.7686
  850MOL0     C12134   5.119   0.450   4.971 -0.3310 -0.0081  0.3162
  850MOL0     H12135   4.598   0.695   4.809  0.1252  1.6404 -0.1956
  850MOL0     H12136   4.400   0.847   4.914 -2.9772  0.5942  2.6276
  850MOL0     H12137   4.375   0.942   5.310  0.0304  0.0271 -0.0690
  850MOL0     H12138   4.304   0.778   5.321  2.3801  0.0032  0.9234
  850MOL0     H12139   4.075   0.932   5.225 -2.2003  1.5280  2.5583
  850MOL0     H12140   4.181   1.053   5.310  0.2685  0.6165 -1.5031
  850MOL0     H12141   4.164   0.947   5.509 -0.1364  0.2340  0.6039
  850MOL0     H12142   4.098   0.799   5.439  2.2535 -0.8400  2.0002
  850MOL0     H12143   3.909   0.902   5.372  4.0166  2.1272 -4.9866
  850MOL0     H12144   3.941   0.913   5.547  0.4008 -0.2441 -0.9531
  850MOL0     H12145   3.846   1.132   5.479 -0.3309  0.0091  1.1529
  850MOL0     H12146   3.945   1.151   5.337  3.5918 -0.1927 -0.7566
  850MOL0     H12147   4.014   1.304   5.511 -1.3608  0.3812  3.5612
  850MOL0     H12148   4.151   1.201   5.482 -0.6163  2.1240  0.6574
  850MOL0     H12149   3.931   1.183   5.691 -0.0988  2.0927 -0.8915
  850MOL0     H12150   4.072   1.071   5.685  0.8602  0.2764  3.6654
  850MOL0     H12151   4.117   1.378   5.733 -1.0889 -0.3282 -0.5303
  850MOL0     H12152   4.239   1.249   5.728  1.2170  1.9750 -0.1126
  850MOL0     H12153   3.961   1.398   5.935 -0.0897  0.3091  2.4685
  850MOL0     H12154   3.840   1.249   6.204  0.0168 -2.6459  0.0760
  850MOL0     H12155   3.933   1.401   6.205 -0.9510 -0.8554 -2.5442
  850MOL0     H12156   4.135   1.257   6.313  0.7537 -1.3358 -0.8165
  850MOL0     H12157   4.006   1.139   6.327 -2.8196  1.5138 -0.7967
  850MOL0     H12158   4.056   1.282   6.539 -1.2559  0.9419  2.0224
  850MOL0     H12159   3.992   1.421   6.457 -3.5512 -0.1750  1.3086
  850MOL0     H12160   3.815   1.189   6.442  1.1291  1.6033 -1.8969
  850MOL0     H12161   3.782   1.350   6.482 -2.1828 -0.6479 -0.9646
  850MOL0     H12162   3.856   1.224   6.909 -2.8128  0.5766 -0.0971
  850MOL0     H12163   3.901   1.400   7.071 -0.5592  2.4156  1.6293
  850MOL0     H12164   4.154   1.826   7.162 -2.2022  4.6856 -0.9492
  850MOL0     H12165   4.153   1.987   7.349 -0.8699  1.1425  0.8226
  850MOL0     H12166   4.174   1.965   7.665  0.5350 -2.6069  0.4135
  850MOL0     H12167   4.072   1.826   7.675  1.2471 -0.6227 -2.1952
  850MOL0     H12168   3.904   1.960   7.802 -0.3143  1.8512  0.8403
  850MOL0     H12169   4.005   2.101   7.793  0.0406 -0.5892 -0.8563
  850MOL0     H12170   4.173   2.017   7.926  0.7746  0.0391 -1.6007
  850MOL0     H12171   4.103   1.847   7.939 -1.0004  0.3968  3.3832
  850MOL0     H12172   3.963   2.084   8.044 -1.4445 -1.2907  2.1470
  850MOL0     H12173   3.931   1.912   8.065  0.9924 -0.4088 -1.5013
  850MOL0     H12174   4.171   2.060   8.184 -1.7323  2.0929 -0.1609
  850MOL0     H12175   4.130   1.886   8.202 -0.9951 -0.4177  0.6482
  850MOL0     H12176   3.988   2.132   8.323 -3.5408 -1.3494 -0.9003
  850MOL0     H12177   4.086   2.005   8.394  1.3640  1.3951 -0.2558
  850MOL0     H12178   3.794   1.996   8.290 -1.2638  1.5313  2.0863
  850MOL0     H12179   3.879   1.837   8.310 -1.0001 -0.1083 -0.2885
  850MOL0     H12180   3.931   1.955   8.543 -0.5093 -0.7079  1.1715
  850MOL0     H12181   3.765   1.883   8.528  0.4144  0.0460  0.8703
  850MOL0     H12182   3.814   1.788   7.523  0.2403 -1.8239 -0.9016
  850MOL0     H12183   3.803   1.634   7.339  2.2123 -1.6942  1.6379
  850MOL0     H12184   3.898   1.692   6.758 -1.0829  0.5229  0.8430
  850MOL0     H12185   3.884   1.508   6.592  1.6739  3.5400  0.4237
  850MOL0     H12186   4.504   0.705   5.297  0.7303 -0.2933  0.2258
  850MOL0     H12187   4.687   0.580   5.210  0.0248 -0.5784 -0.7677
  850MOL0     H12188   4.896   0.541   4.719 -0.3102 -2.0931 -0.7111
  850MOL0     H12189   5.088   0.496   4.589  0.8979  1.4717  1.4482
  850MOL0     H12190   5.286   0.502   4.493 -1.5636  1.7094  2.7056
  850MOL0     H12191   5.242   0.332   4.538  2.7635 -3.8534 -0.4600
  850MOL0     H12192   5.439   0.248   4.552 -3.4074 -0.6429  0.3576
  850MOL0     H12193   5.430   0.305   4.395 -1.2733 -1.0737  0.5451
  850MOL0     H12194   5.591   0.438   4.615 -2.0201  1.3657  0.2506
  850MOL0     H12195   5.542   0.534   4.480 -0.7273  0.3677  1.3297
  850MOL0     H12196   5.651   0.355   4.327 -1.3870 -2.9465  0.0428
  850MOL0     H12197   5.747   0.459   4.436 -0.0872 -0.7558  1.0406
  850MOL0     H12198   5.817   0.063   4.594 -2.9512 -1.7783 -0.5253
  850MOL0     H12199   5.323   0.412   4.944 -0.2300  0.7337  0.8319
  850MOL0     H12200   5.136   0.436   5.078  4.0361  0.6005 -0.0911
  851MOL0     O12201   2.604   1.215   1.313  0.0686  0.1330  0.0341
  851MOL0     C12202   2.656   1.100   1.331  0.5897 -0.0011 -0.9805
  851MOL0     O12203   2.598   0.980   1.286 -0.9732 -1.0744  1.2524
  851MOL0     C12204   2.473   0.974   1.218 -0.5216 -0.0226  0.4162
  851MOL0     C12205   2.376   1.060   1.277  0.6616  1.4805  0.3080
  851MOL0     C12206   2.249   1.083   1.210 -0.2254  0.0225 -0.3408
  851MOL0     C12207   2.228   1.016   1.087  0.2574 -0.4234 -0.1016
  851MOL0     O12208   2.120   1.046   0.998  0.6702 -0.1133 -0.5273
  851MOL0     C12209   2.061   1.175   1.016 -0.7387 -0.6591 -0.6010
  851MOL0     C12210   1.969   1.211   0.901  0.5278 -0.3849  0.2624
  851MOL0     C12211   1.853   1.124   0.863  0.8267  0.5869 -0.2433
  851MOL0     C12212   1.765   1.199   0.762 -0.2064 -0.0429 -0.1677
  851MOL0     C12213   1.623   1.136   0.753  0.5106  0.0650 -0.0142
  851MOL0     C12214   1.550   1.198   0.629  0.1173 -0.0203 -0.2688
  851MOL0     C12215   1.429   1.098   0.604  1.2988  0.1948  0.4231
  851MOL0     C12216   1.329   1.157   0.521  0.4058  0.7212  0.9927
  851MOL0     N12217   1.232   1.257   0.574  0.5239 -0.6693  0.4930
  851MOL0     C12218   1.148   1.318   0.493  0.8977 -0.4260 -1.1285
  851MOL0     C12219   1.081   1.406   0.576 -0.9496  0.2873 -0.3172
  851MOL0     C12220   0.977   1.509   0.533  0.1893  1.0563  0.6337
  851MOL0     C12221   1.028   1.659   0.529 -0.4955 -0.2868 -0.7234
  851MOL0     C12222   0.916   1.742   0.453  0.6686  0.3288  0.5183
  851MOL0     C12223   0.946   1.741   0.302  0.6290 -0.5943 -0.9155
  851MOL0     O12224   0.854   1.659   0.233  0.2074  0.8995 -0.6805
  851MOL0     C12225   0.895   1.598   0.115 -0.2961 -0.4978 -0.1030
  851MOL0     C12226   0.922   1.670   0.007 -0.3165  0.9685  0.3625
  851MOL0     C12227   0.959   1.598  -0.105 -0.3643  0.1252  0.2474
  851MOL0     C12228   0.978   1.458  -0.103 -1.4460  0.2081  0.7066
  851MOL0     C12229   1.017   1.387  -0.231 -0.5553  0.4368 -0.5561
  851MOL0     O12230   1.043   1.256  -0.212 -0.2586  0.1358 -0.0468
  851MOL0     C12231   1.093   1.175  -0.328 -0.3503  0.5916  0.1226
  851MOL0     C12232   1.219   1.114  -0.322 -0.1739 -0.6712 -1.0306
  851MOL0     C12233   1.273   1.056  -0.435 -0.4869  1.1305 -0.2445
  851MOL0     C12234   1.197   1.039  -0.556 -0.2788 -0.0808 -0.5029
  851MOL0     O12235   1.243   0.972  -0.662  0.5335 -0.3958  0.3109
  851MOL0     C12236   1.327   0.860  -0.652  0.0505  0.4082 -0.6699
  851MOL0     C12237   1.296   0.758  -0.540  0.1575 -0.1713  0.1759
  851MOL0     C12238   1.151   0.712  -0.526 -0.5888 -0.1136  1.0186
  851MOL0     C12239   1.122   0.591  -0.616 -1.1427 -1.6661  0.0545
  851MOL0     C12240   0.984   0.543  -0.584  0.5296 -0.0823 -0.2293
  851MOL0     C12241   0.942   0.405  -0.650 -0.8469  0.7622  0.0029
  851MOL0     C12242   0.792   0.372  -0.626  0.1055 -0.3409  0.5768
  851MOL0     C12243   0.770   0.235  -0.690  0.2054  0.0784  0.4733
  851MOL0    Cl12244   0.826   0.099  -0.592  0.3702 -0.3645 -0.0231
  851MOL0     C12245   1.075   1.092  -0.559  1.0561 -0.1414  0.3370
  851MOL0     C12246   1.016   1.160  -0.449 -0.2303  0.2503  0.3498
  851MOL0     O12247   1.034   1.445  -0.339  0.3584  0.0881 -0.3625
  851MOL0     C12248   0.950   1.381   0.016  0.5233 -0.7407 -0.8527
  851MOL0     C12249   0.908   1.460   0.125  0.3429 -0.3891 -0.1891
  851MOL0     N12250   1.153   1.410   0.693  0.1760 -0.0716  0.3189
  851MOL0     N12251   1.239   1.312   0.697 -0.2559 -0.6501  0.3048
  851MOL0     C12252   2.334   0.940   1.024  0.7020 -0.3699 -0.0521
  851MOL0     C12253   2.449   0.913   1.093 -0.1706  0.2290 -0.1121
  851MOL0     C12254   2.787   1.087   1.389 -0.0443  0.4693  0.1015
  851MOL0     C12255   2.883   1.188   1.372  1.1440 -0.2292 -0.1832
  851MOL0     C12256   3.011   1.180   1.426 -0.0616  0.1731  0.6197
  851MOL0     C12257   3.049   1.056   1.487  0.9171 -0.0624 -0.3094
  851MOL0     O12258   3.173   1.040   1.534 -0.8410  0.2167  0.1994
  851MOL0     C12259   3.280   1.131   1.477 -0.1563  0.5222 -1.2068
  851MOL0     C12260   3.414   1.084   1.523  0.8287  0.0416 -0.1832
  851MOL0     C12261   3.442   0.936   1.479 -0.9038  0.8058 -0.2459
  851MOL0     C12262   3.479   0.919   1.338  0.8074  0.2720 -0.2008
  851MOL0     C12263   3.603   0.984   1.302 -0.6015 -0.4320  0.3192
  851MOL0     C12264   3.707   1.044   1.275 -0.2826 -0.5933 -0.1349
  851MOL0     C12265   2.950   0.960   1.504 -0.4980 -0.2710  0.4934
  851MOL0     C12266   2.818   0.975   1.465 -0.2555 -0.2652  0.3619
  851MOL0     H12267   2.381   1.095   1.379  0.7121 -2.1032  1.6681
  851MOL0     H12268   2.194   1.156   1.269  1.9430  2.5828 -1.2708
  851MOL0     H12269   2.132   1.257   1.029  0.0380 -1.0022 -2.4380
  851MOL0     H12270   1.992   1.170   1.101 -0.0623 -1.5196 -0.0808
  851MOL0     H12271   2.034   1.233   0.816  1.0515 -0.7474  0.5579
  851MOL0     H12272   1.919   1.301   0.938 -2.1149 -2.3968  1.9597
  851MOL0     H12273   1.806   1.090   0.955  0.5190  2.7682  0.4487
  851MOL0     H12274   1.906   1.039   0.818  2.8002  1.7922 -0.3364
  851MOL0     H12275   1.755   1.307   0.778 -1.5230  0.0580 -1.4708
  851MOL0     H12276   1.822   1.182   0.669 -0.6630  0.6240 -0.5751
  851MOL0     H12277   1.571   1.150   0.848 -3.3187  0.1705 -1.9689
  851MOL0     H12278   1.633   1.028   0.743 -3.0546 -0.2998 -0.8785
  851MOL0     H12279   1.617   1.209   0.543 -0.2357 -0.6103 -0.6314
  851MOL0     H12280   1.520   1.300   0.653  2.9481  0.5166  1.4186
  851MOL0     H12281   1.474   1.005   0.568  2.8821  1.0874  0.0021
  851MOL0     H12282   1.380   1.063   0.695  2.5898 -1.3607  0.5719
  851MOL0     H12283   1.272   1.073   0.480  1.7516  0.2620  0.0051
  851MOL0     H12284   1.380   1.213   0.443  0.8302  1.8776  2.0615
  851MOL0     H12285   1.125   1.302   0.388 -0.6809 -2.3725 -0.5486
  851MOL0     H12286   0.887   1.498   0.594 -1.2957 -1.2262 -1.7524
  851MOL0     H12287   0.950   1.488   0.429  1.3788 -1.7049  0.8116
  851MOL0     H12288   1.125   1.659   0.477  0.0846  1.3987  0.3031
  851MOL0     H12289   1.045   1.691   0.632  1.5483  2.2998 -1.7527
  851MOL0     H12290   0.820   1.693   0.470  0.7436  0.1889  0.5421
  851MOL0     H12291   0.910   1.847   0.483 -2.9727  1.1922 -2.5049
  851MOL0     H12292   1.048   1.706   0.285  0.9297 -0.4858  0.5029
  851MOL0     H12293   0.919   1.840   0.264  0.4151 -0.6887 -1.0090
  851MOL0     H12294   0.903   1.776   0.024 -0.4430  0.4614  4.0003
  851MOL0     H12295   0.980   1.651  -0.198  1.5317 -1.1967 -0.1489
  851MOL0     H12296   1.278   1.108  -0.231 -1.1088 -3.2468 -0.4926
  851MOL0     H12297   1.373   1.015  -0.424 -0.6415  0.7053 -0.3773
  851MOL0     H12298   1.432   0.889  -0.645 -1.0869  4.7639  1.3603
  851MOL0     H12299   1.316   0.818  -0.753 -0.3188  1.8544 -1.2621
  851MOL0     H12300   1.323   0.813  -0.449 -3.5504  0.3396  1.1119
  851MOL0     H12301   1.360   0.670  -0.554  0.6590  0.5437 -2.6758
  851MOL0     H12302   1.078   0.792  -0.543  1.1993  1.5994  1.1255
  851MOL0     H12303   1.153   0.681  -0.421 -2.2605 -0.2700  1.0321
  851MOL0     H12304   1.125   0.615  -0.722 -2.3399 -1.4469  0.0488
  851MOL0     H12305   1.188   0.510  -0.585 -0.1201 -0.3915  1.3628
  851MOL0     H12306   0.919   0.625  -0.617 -1.4745  0.2725  3.8514
  851MOL0     H12307   0.995   0.536  -0.475  3.2467  1.1410 -0.3652
  851MOL0     H12308   1.009   0.326  -0.612  2.4191  2.5781 -1.5245
  851MOL0     H12309   0.982   0.403  -0.752 -1.0426 -1.8708 -0.1090
  851MOL0     H12310   0.777   0.373  -0.518 -0.9286  0.9083  0.4374
  851MOL0     H12311   0.730   0.453  -0.664 -1.5998 -1.5242  0.7157
  851MOL0     H12312   0.824   0.224  -0.785  2.8483 -1.6344  2.0663
  851MOL0     H12313   0.662   0.219  -0.697 -0.0442  1.4755  0.9230
  851MOL0     H12314   1.010   1.075  -0.644 -0.1792  0.2241  1.1748
  851MOL0     H12315   0.923   1.217  -0.445  1.1047  2.7124 -1.0569
  851MOL0     H12316   0.964   1.274   0.030  0.5207 -0.3627  3.9808
  851MOL0     H12317   0.887   1.411   0.220  2.7895  2.2106  1.9100
  851MOL0     H12318   2.316   0.904   0.924 -3.6422  1.8525 -0.3206
  851MOL0     H12319   2.522   0.850   1.043  0.6006 -2.1706  3.6532
  851MOL0     H12320   2.847   1.272   1.314 -2.0259  0.4897  2.5298
  851MOL0     H12321   3.079   1.263   1.408 -0.4071  0.3686  0.1876
  851MOL0     H12322   3.266   1.234   1.513  1.9086 -0.9336  4.9954
  851MOL0     H12323   3.277   1.125   1.367 -1.3435  0.4044 -1.1775
  851MOL0     H12324   3.490   1.145   1.473 -0.8741  0.3187 -2.5588
  851MOL0     H12325   3.423   1.088   1.632 -0.6620 -3.3678  0.2058
  851MOL0     H12326   3.360   0.874   1.516  1.1974 -0.7453  2.2194
  851MOL0     H12327   3.535   0.904   1.528 -1.5051  1.5421  1.4605
  851MOL0     H12328   3.500   0.813   1.322  1.5811 -0.1138  2.7552
  851MOL0     H12329   3.400   0.950   1.269  0.6688  0.2095 -0.0705
  851MOL0     H12330   3.798   1.101   1.270  1.2162 -2.8530  0.0858
  851MOL0     H12331   2.988   0.866   1.544 -2.8389  0.1781  4.3334
  851MOL0     H12332   2.753   0.889   1.476 -1.0128  0.1611 -0.5985
  852MOL0     O12333  10.818   7.600   7.942  0.7894 -0.3588 -0.2958
  852MOL0     C12334  10.797   7.582   7.821 -0.1563 -0.7589  0.0839
  852MOL0     O12335  10.883   7.608   7.719 -0.0060  1.2395 -0.1473
  852MOL0     C12336  10.956   7.726   7.704  0.7167  0.3580 -0.2592
  852MOL0     C12337  11.078   7.723   7.625  0.9860  0.3589  0.9660
  852MOL0     C12338  11.142   7.840   7.597  0.2851  0.5150  0.1849
  852MOL0     C12339  11.090   7.960   7.644  0.3910 -0.5467 -0.4339
  852MOL0     O12340  11.171   8.080   7.634 -0.3231 -0.1118  0.2512
  852MOL0     C12341  11.229   8.109   7.509  0.1984 -0.7166 -0.0043
  852MOL0     C12342  11.363   8.173   7.533 -0.1841  0.6366  0.5410
  852MOL0     C12343  11.472   8.065   7.574 -0.4542  0.4564 -0.4387
  852MOL0     C12344  11.606   8.127   7.607  0.8089 -0.2901 -0.4500
  852MOL0     C12345  11.690   8.036   7.706  0.4936 -0.1738  0.2466
  852MOL0     C12346  11.789   8.121   7.781 -0.2867 -0.4048 -0.4843
  852MOL0     C12347  11.854   8.056   7.903 -0.1995 -0.5463  0.4369
  852MOL0     C12348  11.950   8.149   7.980  0.1739  0.8842 -0.1169
  852MOL0     N12349  12.020   8.068   8.087  0.1105  0.0972 -0.8551
  852MOL0     C12350  12.133   7.994   8.059  0.4739  0.5871  0.8820
  852MOL0     C12351  12.172   7.973   8.182 -0.4220  0.3198 -0.4038
  852MOL0     C12352  12.290   7.883   8.209  0.4997  0.1704  0.6775
  852MOL0     C12353  12.340   7.901   8.350 -0.2851 -0.1665 -0.1078
  852MOL0     C12354  12.281   7.794   8.430  0.0790  0.0964 -0.3238
  852MOL0     C12355  12.336   7.787   8.572  0.3517 -0.1622  0.1162
  852MOL0     O12356  12.289   7.674   8.646  0.1647  0.0254 -0.1588
  852MOL0     C12357  12.391   7.588   8.676  0.7592  0.6477 -0.4831
  852MOL0     C12358  12.393   7.461   8.613  0.3641 -0.4596  1.0108
  852MOL0     C12359  12.498   7.371   8.638  0.0371 -1.0955  0.1822
  852MOL0     C12360  12.609   7.420   8.717  0.5011  0.0274 -0.0766
  852MOL0     C12361  12.740   7.349   8.710  1.0720 -0.0222 -0.1289
  852MOL0     O12362  12.777   7.311   8.585  0.5992 -0.3797 -0.1161
  852MOL0     C12363  12.905   7.269   8.554 -0.1040 -0.4438 -0.1756
  852MOL0     C12364  12.968   7.325   8.447 -0.4943  0.2698 -0.5844
  852MOL0     C12365  13.099   7.298   8.415 -0.5905 -0.4108  0.1626
  852MOL0     C12366  13.177   7.212   8.494  0.3997  0.4817 -0.3857
  852MOL0     O12367  13.297   7.178   8.458  0.2990  0.4174 -1.0485
  852MOL0     C12368  13.347   7.039   8.489 -0.7621  0.0156 -0.5321
  852MOL0     C12369  13.459   6.990   8.391 -0.4203 -0.0093 -0.1643
  852MOL0     C12370  13.419   6.977   8.238 -0.5256  0.3061 -0.4762
  852MOL0     C12371  13.525   6.909   8.154  0.4406  1.3282  0.0984
  852MOL0     C12372  13.472   6.884   8.012 -0.0872  0.5593 -0.6358
  852MOL0     C12373  13.439   7.018   7.933  0.0127  1.1754  0.7157
  852MOL0     C12374  13.408   6.979   7.791 -1.0477 -0.3857 -0.5372
  852MOL0     C12375  13.378   7.104   7.713  0.2789 -0.6216 -0.4824
  852MOL0    Cl12376  13.384   7.077   7.545 -0.1876  0.0700 -0.4505
  852MOL0     C12377  13.115   7.151   8.607  0.4950 -0.0852 -0.9215
  852MOL0     C12378  12.978   7.180   8.635  0.2594  0.3094 -0.4388
  852MOL0     O12379  12.812   7.353   8.812 -0.0078 -0.4691 -0.7381
  852MOL0     C12380  12.590   7.535   8.786  0.3940  0.3184  0.1920
  852MOL0     C12381  12.487   7.620   8.763 -0.0827 -0.4535  0.5775
  852MOL0     N12382  12.096   8.039   8.276  0.6059  0.0388 -0.3857
  852MOL0     N12383  12.004   8.098   8.217  0.0956 -0.3425 -0.5767
  852MOL0     C12384  10.981   7.964   7.727  0.6475  0.0418  0.8100
  852MOL0     C12385  10.906   7.846   7.754 -0.0492 -0.2043  0.6730
  852MOL0     C12386  10.667   7.514   7.784 -1.7023 -0.4096 -0.3399
  852MOL0     C12387  10.560   7.492   7.868 -0.5531 -0.3548  0.3131
  852MOL0     C12388  10.452   7.422   7.824  0.2533  0.0163  0.0694
  852MOL0     C12389  10.444   7.362   7.700 -0.5958  0.4058  0.1318
  852MOL0     O12390  10.332   7.292   7.662  0.2461 -1.7280 -0.3126
  852MOL0     C12391  10.208   7.371   7.662  0.2406  0.1747  0.2975
  852MOL0     C12392  10.124   7.299   7.555 -1.1964 -0.2154  0.2108
  852MOL0     C12393  10.164   7.350   7.416 -1.2536  0.1698  0.1538
  852MOL0     C12394  10.098   7.488   7.388  0.1920 -0.3236 -0.2788
  852MOL0     C12395  10.198   7.587   7.345  0.3241 -1.5333 -0.4495
  852MOL0     C12396  10.270   7.659   7.272  0.2866 -0.1669  0.3627
  852MOL0     C12397  10.554   7.366   7.615  0.5280  0.1313 -0.0947
  852MOL0     C12398  10.668   7.440   7.658  0.6523 -0.2456  0.2225
  852MOL0     H12399  11.118   7.628   7.593 -1.0837 -0.2116 -0.0550
  852MOL0     H12400  11.242   7.824   7.558 -0.1921 -0.1527 -0.7991
  852MOL0     H12401  11.166   8.179   7.454  2.1138 -0.7695 -2.4326
  852MOL0     H12402  11.233   8.019   7.448 -1.0132 -1.0221  0.3389
  852MOL0     H12403  11.356   8.240   7.619  0.5918 -1.9616  2.7546
  852MOL0     H12404  11.401   8.228   7.446 -2.7462 -0.5155 -1.4532
  852MOL0     H12405  11.489   7.991   7.495 -0.3549 -0.1466  0.1431
  852MOL0     H12406  11.428   8.011   7.658  2.1525  1.9316  2.0318
  852MOL0     H12407  11.658   8.143   7.512 -1.8408 -0.0712 -1.9719
  852MOL0     H12408  11.585   8.230   7.638  1.4765  0.1842 -1.5116
  852MOL0     H12409  11.742   7.957   7.652 -0.0533  0.4417 -1.2509
  852MOL0     H12410  11.619   7.993   7.777 -0.4218 -2.4878 -1.9316
  852MOL0     H12411  11.743   8.215   7.813  1.4583  0.8467 -1.4646
  852MOL0     H12412  11.871   8.154   7.716  0.1552 -1.7409 -0.6390
  852MOL0     H12413  11.778   8.027   7.977 -2.7122  1.2272 -1.2641
  852MOL0     H12414  11.900   7.965   7.864 -3.8270 -2.4085  0.0023
  852MOL0     H12415  11.892   8.227   8.030  0.1710 -1.2478  3.5018
  852MOL0     H12416  12.028   8.190   7.914  1.0237 -1.4265 -0.6732
  852MOL0     H12417  12.166   7.957   7.963 -0.0843 -0.1815  0.9756
  852MOL0     H12418  12.369   7.903   8.137 -1.2543 -2.5823 -2.3055
  852MOL0     H12419  12.266   7.780   8.182  3.0391  0.0492 -1.5192
  852MOL0     H12420  12.318   8.004   8.379 -0.9817  0.0045 -1.1958
  852MOL0     H12421  12.447   7.890   8.326 -1.2875 -0.3152 -5.8878
  852MOL0     H12422  12.176   7.821   8.446 -0.0801 -1.8264  2.8303
  852MOL0     H12423  12.280   7.700   8.374 -1.3935  0.5187 -1.0721
  852MOL0     H12424  12.307   7.879   8.624  1.6865  1.4863 -1.8863
  852MOL0     H12425  12.444   7.780   8.555  0.0535 -1.7623 -1.5215
  852MOL0     H12426  12.306   7.447   8.549  0.4719  0.9935  0.4928
  852MOL0     H12427  12.488   7.280   8.579 -2.7086  0.0345 -1.2769
  852MOL0     H12428  12.906   7.374   8.372 -0.3635 -0.6351 -1.3049
  852MOL0     H12429  13.147   7.320   8.320  0.4231  2.7139  1.2716
  852MOL0     H12430  13.255   6.981   8.479 -0.5267 -0.1895 -1.7145
  852MOL0     H12431  13.387   7.031   8.590  1.4650 -1.4306 -1.4584
  852MOL0     H12432  13.501   6.896   8.425  1.6948 -0.4660 -3.5534
  852MOL0     H12433  13.541   7.063   8.395  0.5885 -1.0505 -1.0543
  852MOL0     H12434  13.403   7.082   8.213 -0.3948  0.3621 -0.3284
  852MOL0     H12435  13.326   6.921   8.228 -0.0529 -0.1288 -3.4684
  852MOL0     H12436  13.608   6.980   8.146  0.1504  1.5516 -0.9994
  852MOL0     H12437  13.567   6.820   8.203 -2.0481 -0.0578 -0.1482
  852MOL0     H12438  13.384   6.821   8.021  0.4829 -0.2157 -0.3848
  852MOL0     H12439  13.544   6.815   7.968  0.7797  0.1171  1.3587
  852MOL0     H12440  13.530   7.077   7.924  0.6954 -0.1460 -2.5230
  852MOL0     H12441  13.361   7.074   7.985 -1.1186  0.6522 -0.3528
  852MOL0     H12442  13.492   6.932   7.738 -2.5107 -4.6567  0.5788
  852MOL0     H12443  13.335   6.899   7.781 -0.6141 -0.5231 -3.8662
  852MOL0     H12444  13.445   7.186   7.739 -0.5414  1.2386 -3.6862
  852MOL0     H12445  13.278   7.142   7.737  1.2155  2.9572 -1.7212
  852MOL0     H12446  13.177   7.091   8.673  1.1847  1.9946  0.4065
  852MOL0     H12447  12.946   7.120   8.719  1.8763  1.3104  0.9772
  852MOL0     H12448  12.667   7.563   8.857  0.0646 -0.4804  0.8960
  852MOL0     H12449  12.495   7.718   8.809 -0.3656 -1.3440  2.6363
  852MOL0     H12450  10.927   8.052   7.759 -6.3252 -2.2634 -2.4701
  852MOL0     H12451  10.809   7.839   7.801 -2.1059  2.0737 -2.7807
  852MOL0     H12452  10.560   7.541   7.965 -3.0486  3.5496 -1.3684
  852MOL0     H12453  10.372   7.408   7.896  2.4647 -1.4537  2.4296
  852MOL0     H12454  10.221   7.474   7.625 -1.3457 -0.0435 -0.9954
  852MOL0     H12455  10.156   7.369   7.758 -2.2912 -1.8635 -1.0011
  852MOL0     H12456  10.153   7.194   7.560 -0.3912 -0.0528 -0.8588
  852MOL0     H12457  10.015   7.307   7.567 -1.6775 -1.6050 -2.4810
  852MOL0     H12458  10.129   7.278   7.342 -0.8279  1.0659 -0.9477
  852MOL0     H12459  10.273   7.357   7.409 -1.0321 -2.3701  0.1635
  852MOL0     H12460  10.019   7.476   7.313  1.2916 -2.3615 -1.1887
  852MOL0     H12461  10.060   7.537   7.478 -2.4300  0.0132 -1.4761
  852MOL0     H12462  10.329   7.734   7.223 -2.0641  1.2720 -0.4696
  852MOL0     H12463  10.544   7.301   7.529 -2.4484 -1.7334  1.4716
  852MOL0     H12464  10.758   7.429   7.598 -0.4379 -2.9266 -1.0770
  853MOL0     O12465   5.595   4.080   8.233 -0.0881 -0.7919 -0.8084
  853MOL0     C12466   5.672   4.042   8.315 -0.3855  1.2097 -0.7349
  853MOL0     O12467   5.785   3.965   8.287 -0.5687 -0.2455  0.3835
  853MOL0     C12468   5.819   3.926   8.159 -0.6594 -0.4114 -1.2715
  853MOL0     C12469   5.761   3.961   8.040  0.9083 -0.6494  1.3769
  853MOL0     C12470   5.828   3.936   7.915 -1.1834  0.4726 -0.1563
  853MOL0     C12471   5.942   3.856   7.906 -0.3833 -0.5622 -0.2386
  853MOL0     O12472   6.011   3.831   7.792  0.2759  0.1596  0.4237
  853MOL0     C12473   6.052   3.704   7.755  0.4811 -0.1587  0.1701
  853MOL0     C12474   6.076   3.718   7.605 -0.2315  0.1231 -0.3027
  853MOL0     C12475   6.203   3.674   7.543  1.4874  0.0692 -0.0195
  853MOL0     C12476   6.209   3.525   7.546  0.3933 -0.0229  0.1165
  853MOL0     C12477   6.343   3.482   7.490  0.8699 -1.1753 -1.3581
  853MOL0     C12478   6.377   3.332   7.511  0.0522 -1.0946  0.5931
  853MOL0     C12479   6.503   3.293   7.426 -0.3868 -0.2053  0.1950
  853MOL0     C12480   6.623   3.365   7.476  0.4650  0.3358  0.6159
  853MOL0     N12481   6.741   3.354   7.382 -0.4526 -0.4631  0.5030
  853MOL0     C12482   6.796   3.463   7.320 -0.2759 -1.1972 -0.2347
  853MOL0     C12483   6.896   3.411   7.243  0.6278 -1.0984  0.4477
  853MOL0     C12484   6.975   3.475   7.138  0.3047  0.7404 -0.3758
  853MOL0     C12485   6.896   3.453   6.995  0.2301 -0.0571 -0.1143
  853MOL0     C12486   6.942   3.558   6.882 -0.2432 -0.3200  0.2684
  853MOL0     C12487   7.088   3.612   6.888 -1.1999 -0.2717  0.1655
  853MOL0     O12488   7.138   3.653   6.761 -0.0486 -0.4680 -0.4657
  853MOL0     C12489   7.195   3.572   6.673  0.1755  0.2712  0.5842
  853MOL0     C12490   7.203   3.434   6.679  0.3582 -0.1691 -0.7834
  853MOL0     C12491   7.252   3.365   6.559 -1.0743  0.6464  0.6714
  853MOL0     C12492   7.271   3.433   6.434 -0.6987 -0.6314 -0.6081
  853MOL0     C12493   7.305   3.359   6.311 -0.0429 -0.0321  0.7285
  853MOL0     O12494   7.353   3.235   6.329 -0.0709  0.4903  0.5268
  853MOL0     C12495   7.367   3.151   6.224 -0.1460  0.3352 -0.4388
  853MOL0     C12496   7.468   3.057   6.234 -0.3358  0.7314  0.6824
  853MOL0     C12497   7.476   2.947   6.146  0.6026 -0.6200 -0.0455
  853MOL0     C12498   7.377   2.926   6.046  0.8690 -0.1427 -0.9832
  853MOL0     O12499   7.355   2.812   5.971 -0.5782 -0.1641  0.0588
  853MOL0     C12500   7.437   2.699   6.014  0.3576  0.5612 -0.0529
  853MOL0     C12501   7.359   2.575   5.991 -0.5863 -1.0345  0.0404
  853MOL0     C12502   7.424   2.447   6.049 -0.6844 -0.6612 -0.7887
  853MOL0     C12503   7.342   2.320   6.073 -0.3011 -0.6091  0.0266
  853MOL0     C12504   7.432   2.201   6.105  0.1437 -0.7989 -0.5526
  853MOL0     C12505   7.360   2.073   6.137 -0.0525 -0.0478 -0.1625
  853MOL0     C12506   7.322   2.017   5.996  0.1359  0.1227  0.1322
  853MOL0     C12507   7.229   1.902   6.016  0.0781 -0.6858 -0.0927
  853MOL0    Cl12508   7.177   1.849   5.848  0.1642 -0.1172 -0.1072
  853MOL0     C12509   7.276   3.020   6.040 -0.4212  0.0735 -0.2397
  853MOL0     C12510   7.271   3.125   6.130  0.2141  0.3730 -0.2915
  853MOL0     O12511   7.300   3.418   6.201 -0.2464 -0.8788 -0.0194
  853MOL0     C12512   7.265   3.573   6.441 -0.0987 -1.0581 -0.6726
  853MOL0     C12513   7.233   3.636   6.562 -0.1136  0.5369  0.3314
  853MOL0     N12514   6.923   3.284   7.282 -0.6959 -0.3894 -0.5578
  853MOL0     N12515   6.825   3.245   7.362 -0.5315  0.1514 -0.2751
  853MOL0     C12516   5.989   3.806   8.035  0.5341  0.1943 -0.7736
  853MOL0     C12517   5.937   3.850   8.156  0.0048 -0.1995  0.4188
  853MOL0     C12518   5.645   4.052   8.463 -0.5887 -1.5003  0.6607
  853MOL0     C12519   5.525   4.110   8.514 -0.0338 -0.3827 -0.5322
  853MOL0     C12520   5.502   4.106   8.655  1.0143  1.0674  0.8508
  853MOL0     C12521   5.598   4.061   8.741 -0.2248  0.5208 -0.6634
  853MOL0     O12522   5.562   4.048   8.877  0.3932 -0.6843  0.0269
  853MOL0     C12523   5.635   3.957   8.964 -0.7622 -0.3140 -0.6584
  853MOL0     C12524   5.605   3.967   9.110  0.2958 -0.1472  0.0916
  853MOL0     C12525   5.590   3.823   9.171  0.5353  0.4879 -0.3509
  853MOL0     C12526   5.455   3.753   9.141 -0.0060 -0.5136 -0.1562
  853MOL0     C12527   5.458   3.607   9.118  0.5486  0.0463  0.1270
  853MOL0     C12528   5.457   3.486   9.133  0.1223 -0.0264 -1.0712
  853MOL0     C12529   5.718   4.016   8.688 -0.7323  0.2840 -0.3405
  853MOL0     C12530   5.745   4.008   8.552 -0.7264 -0.2320 -1.1231
  853MOL0     H12531   5.668   4.017   8.036  2.2473  1.6341 -1.4744
  853MOL0     H12532   5.786   3.986   7.828  0.1729  1.0657 -0.4941
  853MOL0     H12533   5.974   3.629   7.768  0.7479 -0.1799  1.7658
  853MOL0     H12534   6.144   3.676   7.807  2.1508  0.1974 -2.4171
  853MOL0     H12535   6.077   3.822   7.571  0.2936  0.8534  1.7919
  853MOL0     H12536   5.988   3.685   7.549 -1.6471  4.1457 -0.8254
  853MOL0     H12537   6.287   3.719   7.596  0.7910  0.2513  0.9558
  853MOL0     H12538   6.203   3.731   7.449 -1.3404 -0.4473 -0.4113
  853MOL0     H12539   6.210   3.492   7.651  0.9651 -2.0252 -0.4726
  853MOL0     H12540   6.127   3.475   7.493 -0.0625 -1.3509  1.9561
  853MOL0     H12541   6.422   3.542   7.537  2.9420 -4.3586 -0.4299
  853MOL0     H12542   6.333   3.506   7.384 -4.1120 -1.2414 -1.1375
  853MOL0     H12543   6.288   3.274   7.484  0.4358 -0.4453 -2.4027
  853MOL0     H12544   6.393   3.329   7.619 -1.2727  4.2254  1.2168
  853MOL0     H12545   6.511   3.185   7.442 -3.7034 -0.4841  0.6529
  853MOL0     H12546   6.500   3.312   7.319  4.0027  1.8320  0.2095
  853MOL0     H12547   6.636   3.319   7.574  0.0891 -3.1475 -0.8004
  853MOL0     H12548   6.605   3.472   7.483  0.7406  0.4509 -0.3184
  853MOL0     H12549   6.755   3.564   7.316 -0.7442 -1.3962 -3.4107
  853MOL0     H12550   7.070   3.421   7.138  0.6196  1.2788 -0.3248
  853MOL0     H12551   6.992   3.582   7.152 -0.0465  0.8423 -0.6930
  853MOL0     H12552   6.790   3.454   7.022 -0.1506 -1.9728 -1.3551
  853MOL0     H12553   6.920   3.354   6.955 -1.2555 -1.2404  1.7443
  853MOL0     H12554   6.914   3.533   6.780  1.9322  1.6331 -0.9123
  853MOL0     H12555   6.874   3.638   6.912 -3.1266 -2.5360  0.0410
  853MOL0     H12556   7.142   3.532   6.940 -4.5512 -1.1375  2.6781
  853MOL0     H12557   7.080   3.695   6.958 -0.8306  0.4649 -0.6486
  853MOL0     H12558   7.169   3.374   6.763 -1.9543 -1.7106 -2.7132
  853MOL0     H12559   7.260   3.258   6.576  0.4420  0.9520  2.1695
  853MOL0     H12560   7.545   3.055   6.312 -0.4957 -1.2283  0.8480
  853MOL0     H12561   7.559   2.880   6.166  0.7975  0.1300  1.8656
  853MOL0     H12562   7.444   2.705   6.123  1.6676  0.5044 -0.1190
  853MOL0     H12563   7.536   2.696   5.966 -0.3519  0.2184 -1.5415
  853MOL0     H12564   7.349   2.558   5.883  2.3091 -0.2246 -0.4302
  853MOL0     H12565   7.257   2.579   6.030 -0.9480  1.8614 -0.9577
  853MOL0     H12566   7.449   2.468   6.154 -0.0930 -0.9299 -0.8742
  853MOL0     H12567   7.506   2.425   5.980  0.3618  0.3746  0.0648
  853MOL0     H12568   7.264   2.335   6.148 -1.2269 -1.7552 -0.6821
  853MOL0     H12569   7.287   2.305   5.980  0.4922  3.0061 -1.2234
  853MOL0     H12570   7.504   2.231   6.183 -1.1841  2.1081 -0.2803
  853MOL0     H12571   7.503   2.188   6.023 -0.1200  1.5475 -1.2295
  853MOL0     H12572   7.279   2.082   6.209 -0.9726 -0.0236 -1.1663
  853MOL0     H12573   7.432   2.008   6.186  0.9049  1.8288  1.0587
  853MOL0     H12574   7.275   2.090   5.929  0.9894 -1.2001 -1.9967
  853MOL0     H12575   7.419   1.991   5.954 -1.1049 -1.0590 -2.2089
  853MOL0     H12576   7.140   1.948   6.060  1.8428  4.3585 -1.1789
  853MOL0     H12577   7.275   1.826   6.079  0.0223 -2.0488 -1.6211
  853MOL0     H12578   7.205   2.993   5.963  0.6335  1.3340 -1.7138
  853MOL0     H12579   7.174   3.175   6.125 -0.3722 -0.8051 -1.4234
  853MOL0     H12580   7.292   3.634   6.356  3.6439  3.3702  3.1202
  853MOL0     H12581   7.220   3.744   6.553 -0.4144  0.4089 -1.1300
  853MOL0     H12582   6.069   3.732   8.028 -2.6726 -3.5075 -3.0111
  853MOL0     H12583   5.973   3.807   8.249 -0.0955 -0.4946  0.3231
  853MOL0     H12584   5.451   4.150   8.446  0.3919 -0.9041 -1.3192
  853MOL0     H12585   5.405   4.131   8.697  1.0021 -0.3550  1.7192
  853MOL0     H12586   5.741   3.984   8.956 -0.0566 -2.4817  0.5370
  853MOL0     H12587   5.637   3.856   8.921  1.4419 -0.1920 -0.9480
  853MOL0     H12588   5.674   4.035   9.161 -0.2390  1.5699 -1.4028
  853MOL0     H12589   5.513   4.024   9.125 -0.7816 -1.4377 -1.3388
  853MOL0     H12590   5.615   3.815   9.277  0.5926  0.9669 -0.3254
  853MOL0     H12591   5.670   3.765   9.125  1.9044  1.1910  1.0454
  853MOL0     H12592   5.375   3.777   9.211 -3.2559 -1.9517 -3.0955
  853MOL0     H12593   5.407   3.796   9.053  0.6430 -1.4527 -0.9940
  853MOL0     H12594   5.435   3.381   9.126 -0.4199  0.1924 -4.7638
  853MOL0     H12595   5.799   4.007   8.760  0.1139  0.3455 -1.2726
  853MOL0     H12596   5.846   3.974   8.531  0.7936  3.1286  0.1277
  854MOL0     O12597   9.841   6.773   3.968  0.2078  0.5361 -0.0629
  854MOL0     C12598   9.871   6.719   3.862  0.9706  0.4111  0.4147
  854MOL0     O12599   9.995   6.657   3.840 -0.0993  0.4866 -0.9453
  854MOL0     C12600  10.092   6.690   3.930 -0.2246  0.5987  0.9647
  854MOL0     C12601  10.149   6.826   3.927  0.4534  0.8384  0.3858
  854MOL0     C12602  10.261   6.856   4.007 -0.6200 -0.0808  0.3918
  854MOL0     C12603  10.314   6.761   4.097  0.1976 -0.3262  0.8354
  854MOL0     O12604  10.415   6.779   4.191 -1.0229  0.2645  0.1083
  854MOL0     C12605  10.525   6.865   4.163 -0.4671 -1.0848 -0.0991
  854MOL0     C12606  10.643   6.810   4.085 -0.2483  0.5307 -0.4665
  854MOL0     C12607  10.713   6.921   4.001 -0.4130  0.3515  0.2041
  854MOL0     C12608  10.660   6.933   3.854  0.7435 -0.3760  0.5361
  854MOL0     C12609  10.761   7.029   3.769  0.0776  0.9329  0.5635
  854MOL0     C12610  10.896   6.963   3.751  0.4098  0.8716  0.3226
  854MOL0     C12611  10.989   7.039   3.661  0.5090 -0.5264  0.8796
  854MOL0     C12612  11.051   7.171   3.704 -0.5840  0.4166 -1.0197
  854MOL0     N12613  11.132   7.145   3.831  0.7353 -0.0128 -0.2223
  854MOL0     C12614  11.076   7.144   3.954 -1.6623 -0.1939  0.0123
  854MOL0     C12615  11.164   7.087   4.044 -0.3233  0.4014  0.2689
  854MOL0     C12616  11.153   7.050   4.187  0.5433  0.0210 -0.5735
  854MOL0     C12617  11.013   6.999   4.224  0.1047  0.5177 -0.6602
  854MOL0     C12618  11.006   6.951   4.374  0.1073 -0.1708  0.7587
  854MOL0     C12619  11.036   7.051   4.479 -0.6632 -0.5406  0.3481
  854MOL0     O12620  10.987   7.185   4.451  0.2123  0.7129 -0.8667
  854MOL0     C12621  11.066   7.294   4.460  0.4638  0.4204 -1.4208
  854MOL0     C12622  11.179   7.312   4.544 -0.0643  0.6054 -1.1926
  854MOL0     C12623  11.247   7.434   4.549 -0.2614  1.0646 -0.4186
  854MOL0     C12624  11.224   7.537   4.457  0.3430  0.0586 -0.2483
  854MOL0     C12625  11.300   7.665   4.448 -0.1496  0.4913 -0.2893
  854MOL0     O12626  11.344   7.695   4.329 -0.0935 -0.6153  0.1253
  854MOL0     C12627  11.421   7.807   4.312 -0.4999 -0.9822 -0.2642
  854MOL0     C12628  11.553   7.786   4.359  0.0137  0.2849 -0.0529
  854MOL0     C12629  11.643   7.891   4.353 -1.8643 -0.2803  0.0878
  854MOL0     C12630  11.609   8.012   4.298 -0.2900  0.1466 -0.7715
  854MOL0     O12631  11.690   8.122   4.320  0.0984  0.0852 -0.1745
  854MOL0     C12632  11.829   8.098   4.359 -0.7554  0.5406  0.8607
  854MOL0     C12633  11.903   8.221   4.316  0.3063  0.5273  0.3433
  854MOL0     C12634  11.885   8.339   4.426 -0.3703  0.2437  1.0187
  854MOL0     C12635  11.954   8.464   4.372  0.0897 -0.0452  0.1728
  854MOL0     C12636  12.102   8.454   4.342  0.0296 -0.5975 -0.0891
  854MOL0     C12637  12.161   8.597   4.342  0.2066 -0.4285  0.3703
  854MOL0     C12638  12.318   8.575   4.361 -0.0882 -0.3853 -0.5455
  854MOL0     C12639  12.385   8.689   4.289 -0.0588 -0.1440 -1.2078
  854MOL0    Cl12640  12.347   8.702   4.114 -0.2593  0.0268 -0.2745
  854MOL0     C12641  11.482   8.033   4.239  0.3413  1.0036 -0.9641
  854MOL0     C12642  11.389   7.926   4.252 -0.3712  0.0481  0.0007
  854MOL0     O12643  11.315   7.725   4.547 -0.3937 -0.6139  0.7395
  854MOL0     C12644  11.121   7.509   4.361 -0.3189 -0.2169  0.3738
  854MOL0     C12645  11.038   7.392   4.366  0.5426 -1.1514 -0.2870
  854MOL0     N12646  11.275   7.060   3.964  0.5048 -0.4262  0.4515
  854MOL0     N12647  11.260   7.101   3.836 -1.1067 -0.6108  0.5065
  854MOL0     C12648  10.258   6.624   4.103 -0.1207 -1.3222 -0.1475
  854MOL0     C12649  10.154   6.597   4.021 -0.1748  0.2701  0.8356
  854MOL0     C12650   9.779   6.709   3.747  0.6148  0.1272 -0.4672
  854MOL0     C12651   9.793   6.612   3.658 -0.3640 -0.7931  1.3098
  854MOL0     C12652   9.721   6.597   3.535 -0.5295 -0.4640  0.5960
  854MOL0     C12653   9.634   6.704   3.496  1.1561  0.0410  0.2862
  854MOL0     O12654   9.542   6.700   3.397 -0.7873 -0.0776  0.4460
  854MOL0     C12655   9.596   6.652   3.268  0.4559  0.1544  0.9172
  854MOL0     C12656   9.707   6.747   3.210 -0.6101  0.4551 -0.1043
  854MOL0     C12657   9.717   6.726   3.054 -0.2159  0.4331  0.0741
  854MOL0     C12658   9.814   6.828   2.988 -0.3470  0.0708  0.9841
  854MOL0     C12659   9.851   6.781   2.848  0.7807 -0.5505 -0.9152
  854MOL0     C12660   9.868   6.745   2.737 -0.2955 -0.4556  0.5647
  854MOL0     C12661   9.607   6.805   3.598 -0.1702  0.0688  0.2439
  854MOL0     C12662   9.678   6.800   3.718 -0.3880  0.7354 -0.6983
  854MOL0     H12663  10.111   6.906   3.863  1.8681  3.0553  2.1925
  854MOL0     H12664  10.308   6.952   3.989  2.5732 -1.8138 -1.4858
  854MOL0     H12665  10.562   6.890   4.263 -0.0276 -1.1468 -0.2423
  854MOL0     H12666  10.490   6.958   4.116  1.8021 -0.0605  0.0833
  854MOL0     H12667  10.605   6.725   4.028 -0.4220 -0.0055  0.4242
  854MOL0     H12668  10.711   6.769   4.161  1.1895 -1.2201 -2.5911
  854MOL0     H12669  10.815   6.884   3.987 -0.5473  0.6697 -1.8324
  854MOL0     H12670  10.709   7.014   4.058  2.6703 -0.0136  1.2148
  854MOL0     H12671  10.659   6.837   3.802  1.1178 -1.7558  2.8922
  854MOL0     H12672  10.559   6.973   3.853  0.1715 -1.7327 -1.5590
  854MOL0     H12673  10.790   7.124   3.815  0.2598  0.3483  1.7056
  854MOL0     H12674  10.715   7.059   3.675  0.1550 -0.4125  0.0751
  854MOL0     H12675  10.876   6.865   3.706  1.3941  0.2583  1.1934
  854MOL0     H12676  10.946   6.947   3.846 -0.9044  2.6143  1.3685
  854MOL0     H12677  11.065   6.964   3.637  1.4252  1.0833 -1.5318
  854MOL0     H12678  10.925   7.061   3.575 -0.9902  1.1335  2.3333
  854MOL0     H12679  10.979   7.250   3.729  1.3471  2.3737 -1.3013
  854MOL0     H12680  11.128   7.200   3.631  0.7078 -1.2623 -0.3870
  854MOL0     H12681  10.974   7.180   3.965 -2.0335 -0.4968 -2.0044
  854MOL0     H12682  11.196   7.120   4.260 -0.3033  1.4675 -1.4085
  854MOL0     H12683  11.226   6.970   4.197 -1.4481 -2.0717 -1.8591
  854MOL0     H12684  10.999   6.916   4.154  2.5393  1.1340 -1.9977
  854MOL0     H12685  10.938   7.075   4.203 -1.0510 -0.7091 -1.0630
  854MOL0     H12686  10.905   6.915   4.396  1.7782 -3.9186  3.3479
  854MOL0     H12687  11.082   6.873   4.381 -0.5155 -0.7594  1.0547
  854MOL0     H12688  11.145   7.052   4.484 -0.6831  0.8195  0.8997
  854MOL0     H12689  11.006   7.013   4.578  0.8348 -0.8458  0.7162
  854MOL0     H12690  11.220   7.241   4.616  0.4109  0.3819 -1.6797
  854MOL0     H12691  11.308   7.454   4.637 -0.0086  3.3539 -1.0306
  854MOL0     H12692  11.580   7.692   4.406  2.0702  1.8706  2.1714
  854MOL0     H12693  11.737   7.876   4.405  0.2298 -1.3136 -3.5976
  854MOL0     H12694  11.865   8.019   4.292  0.6995 -0.1171  2.3600
  854MOL0     H12695  11.828   8.056   4.460 -2.2372  2.8120  1.8833
  854MOL0     H12696  11.870   8.247   4.215  2.3529 -1.1231 -0.8483
  854MOL0     H12697  12.005   8.183   4.327  0.8152  0.1317 -3.9058
  854MOL0     H12698  11.923   8.303   4.522  3.0409 -3.6494 -1.4222
  854MOL0     H12699  11.777   8.354   4.436 -0.3344 -0.3311  2.4357
  854MOL0     H12700  11.907   8.493   4.278  2.5267  2.4294 -0.4428
  854MOL0     H12701  11.924   8.541   4.443  0.0090 -0.3232  0.4410
  854MOL0     H12702  12.136   8.406   4.249  0.9233 -0.3678  0.1082
  854MOL0     H12703  12.160   8.394   4.412  2.2546  0.4182 -0.9579
  854MOL0     H12704  12.129   8.657   4.427  0.0452  2.2312 -1.4279
  854MOL0     H12705  12.137   8.655   4.253 -0.8131  1.1613  1.6284
  854MOL0     H12706  12.352   8.571   4.465 -0.3943 -1.9726 -0.4832
  854MOL0     H12707  12.347   8.473   4.336  2.1362 -0.9745  3.5443
  854MOL0     H12708  12.492   8.670   4.304 -0.5597 -0.6390  3.2220
  854MOL0     H12709  12.354   8.785   4.332 -1.6723 -0.3483 -1.8513
  854MOL0     H12710  11.429   8.120   4.202  0.4221  0.6355 -2.0019
  854MOL0     H12711  11.285   7.941   4.223 -1.8517 -2.9387  3.0271
  854MOL0     H12712  11.124   7.574   4.274  2.1945  0.1158  0.6208
  854MOL0     H12713  10.966   7.384   4.285  0.4142 -0.0684 -0.3009
  854MOL0     H12714  10.295   6.553   4.177 -0.9821  1.5923  3.3729
  854MOL0     H12715  10.120   6.494   4.029 -1.0814  0.5492  0.7359
  854MOL0     H12716   9.872   6.538   3.658  0.2966 -0.2443 -2.1420
  854MOL0     H12717   9.738   6.513   3.468 -1.6378  0.6143 -1.1271
  854MOL0     H12718   9.524   6.630   3.188  3.1668  0.6253 -1.8381
  854MOL0     H12719   9.646   6.558   3.291 -1.0772 -0.2899  2.6805
  854MOL0     H12720   9.689   6.853   3.231  1.3794  1.1800 -1.7432
  854MOL0     H12721   9.790   6.718   3.274 -1.8134  0.7092  1.6278
  854MOL0     H12722   9.621   6.751   3.008  0.6594  2.9884 -0.5373
  854MOL0     H12723   9.737   6.619   3.048  0.1931  0.3710  1.8225
  854MOL0     H12724   9.768   6.927   2.984  0.9066  0.6800  1.0896
  854MOL0     H12725   9.905   6.818   3.047 -0.4566  0.9253  1.3124
  854MOL0     H12726   9.902   6.693   2.650  1.7285  2.8846 -0.8240
  854MOL0     H12727   9.529   6.875   3.570  1.7275  1.1066 -2.9648
  854MOL0     H12728   9.662   6.872   3.797 -3.4015 -2.4801  1.8744
  855MOL0     O12729   6.382   4.359   1.816  0.3157 -0.3826  0.0852
  855MOL0     C12730   6.467   4.380   1.727  0.1322 -0.8416 -0.9211
  855MOL0     O12731   6.592   4.440   1.747 -1.3896  1.0350 -0.8996
  855MOL0     C12732   6.627   4.490   1.878 -0.1857 -0.0809 -0.5215
  855MOL0     C12733   6.521   4.554   1.966 -1.0656  0.8201 -0.6844
  855MOL0     C12734   6.555   4.586   2.098  0.6136 -0.6458  0.3057
  855MOL0     C12735   6.675   4.555   2.153 -1.6523  0.4589  1.1064
  855MOL0     O12736   6.724   4.606   2.273 -0.0225 -0.0029 -0.4211
  855MOL0     C12737   6.631   4.654   2.373  0.1678 -0.1363  0.9533
  855MOL0     C12738   6.678   4.637   2.516  1.1107 -0.5599  0.2398
  855MOL0     C12739   6.573   4.703   2.611  0.3396  0.2168 -0.6946
  855MOL0     C12740   6.582   4.632   2.752 -0.3949  0.1362  0.7626
  855MOL0     C12741   6.720   4.633   2.823  0.9733  0.3473 -0.3219
  855MOL0     C12742   6.758   4.773   2.875 -0.1972 -0.0095 -0.2856
  855MOL0     C12743   6.848   4.767   3.001 -0.1001  0.6418  1.2686
  855MOL0     C12744   6.879   4.900   3.064  0.3022 -0.6573  0.1071
  855MOL0     N12745   6.915   4.895   3.208 -0.5341 -1.1907  0.5147
  855MOL0     C12746   6.821   4.949   3.301  0.1846  1.2654  1.0009
  855MOL0     C12747   6.886   4.942   3.411  0.0389  0.0845 -0.2986
  855MOL0     C12748   6.818   4.963   3.544  0.2442 -0.3977 -0.3028
  855MOL0     C12749   6.898   5.067   3.618  0.8908 -0.1356 -0.1617
  855MOL0     C12750   6.826   5.090   3.750 -0.5488 -0.2226 -0.0489
  855MOL0     C12751   6.929   5.155   3.842  0.3822 -0.2301 -1.1834
  855MOL0     O12752   6.898   5.285   3.890 -0.1856 -0.8752  1.0491
  855MOL0     C12753   6.975   5.328   4.002  0.4760 -0.9064  1.0965
  855MOL0     C12754   6.937   5.455   4.040 -0.2833  0.0214 -0.2144
  855MOL0     C12755   7.005   5.519   4.150 -0.0056 -0.5722  0.2306
  855MOL0     C12756   7.117   5.474   4.208 -0.4007  0.5844 -0.5517
  855MOL0     C12757   7.199   5.552   4.301 -0.4847 -0.9335  0.0275
  855MOL0     O12758   7.141   5.663   4.359  0.1129  0.1355 -0.0551
  855MOL0     C12759   7.202   5.710   4.482 -0.0202  1.1403  0.4082
  855MOL0     C12760   7.276   5.635   4.578  0.5537  0.1625  0.9377
  855MOL0     C12761   7.349   5.691   4.674  0.8756  0.8309  0.8077
  855MOL0     C12762   7.356   5.828   4.684 -0.1269 -0.0761 -0.5418
  855MOL0     O12763   7.424   5.896   4.777  0.6210  0.2079  0.3347
  855MOL0     C12764   7.513   5.833   4.870 -0.2014 -0.4160  0.1224
  855MOL0     C12765   7.593   5.938   4.946 -0.3601  0.5747 -0.3716
  855MOL0     C12766   7.511   6.062   4.980 -0.7880  0.0239  0.2260
  855MOL0     C12767   7.548   6.126   5.110 -0.3779  0.1824  0.1515
  855MOL0     C12768   7.695   6.190   5.104 -0.2646  0.0695 -1.2937
  855MOL0     C12769   7.734   6.246   5.249 -0.3643 -0.4135 -0.0970
  855MOL0     C12770   7.886   6.266   5.258 -1.0706 -0.1369 -0.0678
  855MOL0     C12771   7.920   6.320   5.398  0.4686 -0.6051 -0.6407
  855MOL0    Cl12772   7.863   6.203   5.526  0.0291  0.0419  0.6491
  855MOL0     C12773   7.283   5.906   4.597 -0.5974 -0.1274  0.1719
  855MOL0     C12774   7.197   5.844   4.497  0.5394  0.3431 -0.7008
  855MOL0     O12775   7.313   5.516   4.314 -0.4430  1.0405  0.6560
  855MOL0     C12776   7.161   5.352   4.151 -0.0243 -0.0127 -0.3947
  855MOL0     C12777   7.091   5.280   4.053 -0.3324 -0.0592 -0.3626
  855MOL0     N12778   7.014   4.903   3.385 -0.2264  0.4219 -0.4810
  855MOL0     N12779   7.022   4.859   3.263  0.5044  0.3493  1.6416
  855MOL0     C12780   6.775   4.494   2.067  0.3328 -0.8609 -1.1306
  855MOL0     C12781   6.754   4.470   1.930 -0.6215 -0.1014  0.7100
  855MOL0     C12782   6.438   4.332   1.585 -0.3793  1.2334  0.7941
  855MOL0     C12783   6.512   4.373   1.476 -0.2068  0.3965 -0.1930
  855MOL0     C12784   6.456   4.324   1.358  0.1030 -0.3213 -0.4673
  855MOL0     C12785   6.353   4.225   1.348  0.1303  0.1768  0.2495
  855MOL0     O12786   6.317   4.174   1.228  0.3427 -0.5121  0.1586
  855MOL0     C12787   6.293   4.268   1.127  0.0477 -0.1604  0.2799
  855MOL0     C12788   6.230   4.198   1.005  0.6129  0.3974  0.0561
  855MOL0     C12789   6.081   4.177   1.012 -0.1991  0.3609 -0.1067
  855MOL0     C12790   6.031   4.114   1.141 -1.1733 -0.8551  0.8826
  855MOL0     C12791   6.002   4.210   1.249 -0.0644  0.3881 -0.1656
  855MOL0     C12792   5.973   4.294   1.330  0.2326 -0.4085 -0.4633
  855MOL0     C12793   6.298   4.170   1.461  0.5186  0.3483  0.3353
  855MOL0     C12794   6.335   4.228   1.582 -0.6340 -0.2329 -0.1142
  855MOL0     H12795   6.426   4.573   1.919  0.0595  1.8068 -2.7110
  855MOL0     H12796   6.484   4.632   2.166  2.0306  3.2137 -0.5492
  855MOL0     H12797   6.534   4.603   2.374 -0.6466  1.3269  0.1778
  855MOL0     H12798   6.596   4.756   2.355 -0.7692 -0.8958 -2.1138
  855MOL0     H12799   6.774   4.689   2.523  1.1703 -0.7307  0.7418
  855MOL0     H12800   6.680   4.530   2.539  0.9608 -0.4088  0.9626
  855MOL0     H12801   6.469   4.696   2.577 -1.2153  2.5048  2.9387
  855MOL0     H12802   6.602   4.807   2.629 -0.8254  0.0751  2.8552
  855MOL0     H12803   6.508   4.681   2.817  0.5294 -0.3111  2.1997
  855MOL0     H12804   6.553   4.530   2.727 -0.0644  0.3796 -0.6900
  855MOL0     H12805   6.802   4.601   2.758  0.0864 -0.1965 -1.1863
  855MOL0     H12806   6.714   4.571   2.913  0.6891  0.0474 -0.5454
  855MOL0     H12807   6.668   4.830   2.898 -0.4574 -1.6901  3.6024
  855MOL0     H12808   6.812   4.824   2.794  2.2779  1.8573  2.3722
  855MOL0     H12809   6.797   4.711   3.081 -0.6656 -0.1640  0.3606
  855MOL0     H12810   6.944   4.724   2.972 -0.5741 -0.3684  1.1439
  855MOL0     H12811   6.787   4.959   3.057  0.1028 -1.0945 -1.2151
  855MOL0     H12812   6.955   4.941   2.997 -3.2139  2.0990 -2.5613
  855MOL0     H12813   6.720   4.985   3.285 -0.2621  0.6794  2.4073
  855MOL0     H12814   6.807   4.871   3.602  4.0881 -0.1140  1.1500
  855MOL0     H12815   6.723   5.016   3.531  1.1889  1.4197 -0.0882
  855MOL0     H12816   6.905   5.157   3.556  2.1267  1.1253  1.6858
  855MOL0     H12817   7.001   5.031   3.631  0.7115 -1.0690 -1.1821
  855MOL0     H12818   6.732   5.147   3.749 -0.6656 -0.1549  3.0710
  855MOL0     H12819   6.815   4.994   3.801  1.6901 -0.3071  0.3662
  855MOL0     H12820   7.024   5.174   3.792  0.4435 -0.5676 -1.2002
  855MOL0     H12821   6.959   5.088   3.924  1.8570 -1.1237 -2.4031
  855MOL0     H12822   6.849   5.501   3.996 -1.0914 -2.5510 -1.4507
  855MOL0     H12823   6.974   5.620   4.174  2.6671 -0.1988  2.6609
  855MOL0     H12824   7.268   5.528   4.561  1.9427  0.1799  0.0573
  855MOL0     H12825   7.408   5.627   4.738 -0.3671 -0.7271  0.4585
  855MOL0     H12826   7.596   5.772   4.833  3.9115  2.5523  3.4216
  855MOL0     H12827   7.453   5.772   4.937  0.1583 -1.7662 -0.7552
  855MOL0     H12828   7.681   5.971   4.889  0.6202 -1.2397  0.0123
  855MOL0     H12829   7.645   5.896   5.032 -0.9955  1.8491  0.6706
  855MOL0     H12830   7.403   6.049   4.992 -0.5812 -1.4541  0.5918
  855MOL0     H12831   7.519   6.139   4.903 -2.8554  1.5806  1.4315
  855MOL0     H12832   7.486   6.211   5.141  0.1660 -0.2186  2.5019
  855MOL0     H12833   7.534   6.046   5.183 -0.1971 -0.0324 -0.0452
  855MOL0     H12834   7.702   6.272   5.032 -1.6265 -0.1479 -1.7099
  855MOL0     H12835   7.763   6.114   5.065  0.3465  1.3884 -2.9172
  855MOL0     H12836   7.702   6.173   5.323  1.0376 -0.7164  0.2489
  855MOL0     H12837   7.685   6.344   5.254  0.2368 -0.1537  1.6530
  855MOL0     H12838   7.941   6.177   5.225  1.4892  0.2982  2.6442
  855MOL0     H12839   7.924   6.338   5.184 -0.7519  0.2937  0.5120
  855MOL0     H12840   7.880   6.422   5.402  0.2274 -0.3669 -4.7891
  855MOL0     H12841   8.029   6.325   5.412  0.1861  1.9607  1.4441
  855MOL0     H12842   7.273   6.013   4.601  2.0938  0.1642  1.6185
  855MOL0     H12843   7.140   5.904   4.427  1.3096  1.7359 -0.1791
  855MOL0     H12844   7.244   5.303   4.201 -0.7709  1.1127  2.1409
  855MOL0     H12845   7.139   5.192   4.012  1.2174  0.2243  0.7914
  855MOL0     H12846   6.872   4.475   2.111 -0.5044 -0.0269  1.1846
  855MOL0     H12847   6.837   4.430   1.872 -0.3974  0.4604  0.6434
  855MOL0     H12848   6.584   4.454   1.468  2.3263 -1.8200 -1.2651
  855MOL0     H12849   6.501   4.367   1.269 -1.8793  1.3356 -0.7528
  855MOL0     H12850   6.395   4.305   1.116 -0.3451  1.8946  2.6429
  855MOL0     H12851   6.229   4.352   1.157  0.0057  1.6105 -4.0751
  855MOL0     H12852   6.245   4.264   0.919  1.7127 -1.7189 -1.4680
  855MOL0     H12853   6.272   4.103   0.970 -1.9115 -0.6524 -0.3642
  855MOL0     H12854   6.058   4.129   0.916  1.6065 -0.9560  0.0697
  855MOL0     H12855   6.026   4.271   1.004 -0.3200  0.3689  0.7055
  855MOL0     H12856   5.934   4.066   1.120 -1.6554  0.1766  0.7091
  855MOL0     H12857   6.095   4.030   1.172 -0.1399 -1.1018 -1.6525
  855MOL0     H12858   5.937   4.374   1.391  2.2037 -0.2145  0.5249
  855MOL0     H12859   6.214   4.102   1.464 -1.3721  2.5215  3.3937
  855MOL0     H12860   6.298   4.184   1.674 -0.2795  0.1097  0.1981
  856MOL0     O12861   4.007   4.527   4.361 -0.5662  0.4190 -0.8304
  856MOL0     C12862   3.966   4.630   4.305 -0.1861 -0.4914 -0.4071
  856MOL0     O12863   3.845   4.637   4.231 -0.9707 -0.0373  0.2036
  856MOL0     C12864   3.761   4.531   4.253 -0.4546  0.3084  0.3441
  856MOL0     C12865   3.661   4.553   4.352 -0.1453  1.1335  0.2916
  856MOL0     C12866   3.587   4.444   4.403  0.3015  0.1753  0.2306
  856MOL0     C12867   3.590   4.317   4.344  0.1677 -0.9737  0.4156
  856MOL0     O12868   3.504   4.223   4.395 -0.1906 -0.0379 -0.0011
  856MOL0     C12869   3.543   4.086   4.379 -0.4241  0.9557 -0.0025
  856MOL0     C12870   3.424   4.013   4.453 -0.0511  0.0238  0.4763
  856MOL0     C12871   3.447   3.857   4.458  0.0920  0.0129 -1.0474
  856MOL0     C12872   3.583   3.808   4.502 -0.8604  0.3716 -0.2788
  856MOL0     C12873   3.569   3.661   4.554  0.1269  0.6943  0.4132
  856MOL0     C12874   3.714   3.611   4.590 -0.2904  0.9406 -0.6557
  856MOL0     C12875   3.726   3.490   4.689  0.7100 -0.1981 -0.9939
  856MOL0     C12876   3.657   3.369   4.632 -0.2361 -0.9732  1.2314
  856MOL0     N12877   3.631   3.258   4.727  0.2698 -0.0471  0.1572
  856MOL0     C12878   3.707   3.212   4.828 -0.7256 -0.7316 -0.4108
  856MOL0     C12879   3.661   3.092   4.866 -0.1621  0.4247 -0.7776
  856MOL0     C12880   3.741   3.006   4.963 -0.5836  0.2974  0.9555
  856MOL0     C12881   3.646   2.978   5.080  0.3796 -0.0430  0.1901
  856MOL0     C12882   3.718   2.892   5.192 -0.7936 -0.6054  0.5076
  856MOL0     C12883   3.629   2.882   5.315  1.0608  0.6132  0.2740
  856MOL0     O12884   3.694   2.824   5.425  0.1080  0.3234 -0.4350
  856MOL0     C12885   3.630   2.737   5.519  1.2084 -0.7076 -0.1566
  856MOL0     C12886   3.495   2.759   5.552  0.1023  0.1310 -0.1849
  856MOL0     C12887   3.435   2.713   5.664 -0.4965 -0.0499  0.0248
  856MOL0     C12888   3.502   2.619   5.740 -0.7177 -0.3733  0.3186
  856MOL0     C12889   3.437   2.557   5.860  0.6138 -0.6884 -0.6921
  856MOL0     O12890   3.300   2.568   5.875  0.0054 -0.3189 -0.6847
  856MOL0     C12891   3.238   2.536   5.996 -0.3026  0.6227 -0.5902
  856MOL0     C12892   3.131   2.444   5.999 -0.2527 -0.4348 -0.1777
  856MOL0     C12893   3.058   2.434   6.119 -0.6632  0.9307 -0.1380
  856MOL0     C12894   3.099   2.488   6.241 -1.0531 -0.6968 -0.4538
  856MOL0     O12895   3.018   2.498   6.350 -0.1604 -0.0863 -0.2267
  856MOL0     C12896   3.047   2.406   6.457  0.1060 -0.4288 -0.4571
  856MOL0     C12897   2.933   2.382   6.566 -0.7254  0.0323  0.3389
  856MOL0     C12898   2.796   2.332   6.515 -0.5075  0.7005 -0.3061
  856MOL0     C12899   2.812   2.193   6.453  0.8876 -0.9330  0.4040
  856MOL0     C12900   2.805   2.182   6.295  0.0669 -0.1715 -0.9060
  856MOL0     C12901   2.792   2.039   6.274 -1.0076 -0.0102  0.7228
  856MOL0     C12902   2.763   1.995   6.133 -0.5954 -0.6129  0.7215
  856MOL0     C12903   2.751   1.844   6.119 -0.2078  0.4852 -0.3675
  856MOL0    Cl12904   2.583   1.799   6.175  0.1300 -0.3305  0.0590
  856MOL0     C12905   3.206   2.581   6.242  0.2020 -0.3286  0.1052
  856MOL0     C12906   3.267   2.603   6.115 -0.0156  0.6170  0.4649
  856MOL0     O12907   3.516   2.518   5.950 -0.8013  0.1782  0.9067
  856MOL0     C12908   3.628   2.571   5.696  0.5323  0.1393  0.0497
  856MOL0     C12909   3.697   2.632   5.593 -0.2415 -0.6081 -0.0354
  856MOL0     N12910   3.556   3.050   4.780 -0.0544  0.5612  0.1264
  856MOL0     N12911   3.540   3.158   4.706 -1.3670  0.1870  0.0017
  856MOL0     C12912   3.683   4.298   4.242 -0.3130 -0.4006 -0.1440
  856MOL0     C12913   3.762   4.404   4.196 -0.2190 -0.6038 -0.2377
  856MOL0     C12914   4.038   4.761   4.331  0.3153 -0.0266  0.2583
  856MOL0     C12915   3.993   4.888   4.297  0.2361  0.4941 -0.2605
  856MOL0     C12916   4.066   5.006   4.328 -0.4365 -0.8941  0.6348
  856MOL0     C12917   4.186   5.003   4.399 -0.8360  0.1264  0.1050
  856MOL0     O12918   4.269   5.102   4.420 -0.1130  0.1179  0.8030
  856MOL0     C12919   4.209   5.225   4.450 -0.2751  0.1469 -0.3715
  856MOL0     C12920   4.315   5.292   4.535  0.0122  0.2251 -0.9413
  856MOL0     C12921   4.430   5.356   4.468  0.1344 -0.1379 -0.0867
  856MOL0     C12922   4.377   5.485   4.400  0.9351  0.2124 -0.2569
  856MOL0     C12923   4.359   5.602   4.494 -0.2765  0.7297 -0.7284
  856MOL0     C12924   4.337   5.684   4.577  0.4005  1.0692  0.0872
  856MOL0     C12925   4.228   4.882   4.428  1.0675  0.4075  0.9670
  856MOL0     C12926   4.158   4.766   4.400 -0.6885 -0.1547  0.4123
  856MOL0     H12927   3.643   4.657   4.378  2.2316  2.1535 -1.7073
  856MOL0     H12928   3.522   4.465   4.488 -0.1181 -0.3161  0.0375
  856MOL0     H12929   3.640   4.064   4.426 -0.8479  1.0603  0.9437
  856MOL0     H12930   3.538   4.065   4.272  1.1118  1.0383 -0.1112
  856MOL0     H12931   3.338   4.020   4.386  1.2787 -1.0338 -1.4670
  856MOL0     H12932   3.412   4.057   4.552  2.6112 -0.9749  1.3240
  856MOL0     H12933   3.443   3.809   4.359  2.6624 -1.1385 -0.6817
  856MOL0     H12934   3.378   3.807   4.527  0.4633 -1.6387 -1.8035
  856MOL0     H12935   3.664   3.817   4.429  0.6578  0.6944  1.3799
  856MOL0     H12936   3.619   3.861   4.590  1.4779 -2.2822  0.5269
  856MOL0     H12937   3.536   3.590   4.478 -2.9739  1.5913  0.7749
  856MOL0     H12938   3.497   3.647   4.635  0.7817 -1.2233  0.6953
  856MOL0     H12939   3.765   3.679   4.659 -0.2719 -0.9981  1.3459
  856MOL0     H12940   3.763   3.594   4.493 -3.7056 -0.0755 -2.3760
  856MOL0     H12941   3.833   3.477   4.704  1.4988  3.6906 -2.2149
  856MOL0     H12942   3.677   3.516   4.783 -1.7594  1.4197 -2.6085
  856MOL0     H12943   3.713   3.336   4.544 -1.1494  1.1271 -0.2266
  856MOL0     H12944   3.555   3.388   4.596  0.4797 -1.1567 -1.0828
  856MOL0     H12945   3.785   3.274   4.872  0.2270 -1.5397 -0.9116
  856MOL0     H12946   3.834   3.053   4.994  0.0497  0.9366 -1.6480
  856MOL0     H12947   3.764   2.906   4.923  3.1206  2.1304 -2.0494
  856MOL0     H12948   3.556   2.924   5.047  2.0855 -1.0947 -3.1087
  856MOL0     H12949   3.608   3.074   5.117 -0.0141  0.9057 -2.4699
  856MOL0     H12950   3.759   2.799   5.153 -3.0358 -0.8517 -1.5623
  856MOL0     H12951   3.798   2.963   5.217 -0.1353 -1.0634 -0.2762
  856MOL0     H12952   3.539   2.825   5.292  1.1561 -0.6562  2.7595
  856MOL0     H12953   3.605   2.985   5.342 -0.0256  0.2749  0.6212
  856MOL0     H12954   3.439   2.831   5.493  0.9353  0.0145 -1.1637
  856MOL0     H12955   3.332   2.740   5.686 -0.1324 -0.2454  2.1943
  856MOL0     H12956   3.086   2.415   5.905  0.2665  1.7333 -1.1584
  856MOL0     H12957   2.958   2.390   6.112 -0.3226 -0.4515  2.4829
  856MOL0     H12958   3.126   2.449   6.520 -1.7670 -0.6121  2.1646
  856MOL0     H12959   3.078   2.306   6.424  0.6694  0.4119 -2.6719
  856MOL0     H12960   2.915   2.480   6.611 -0.5023  0.5790 -0.7406
  856MOL0     H12961   2.969   2.320   6.649  1.1157  0.3630 -0.1586
  856MOL0     H12962   2.765   2.405   6.440 -0.8192  1.9651  1.0115
  856MOL0     H12963   2.712   2.331   6.585  0.1221  0.1492  0.4593
  856MOL0     H12964   2.908   2.154   6.488  3.4196  3.1970 -1.1402
  856MOL0     H12965   2.737   2.124   6.493  1.5042 -2.4608 -0.9586
  856MOL0     H12966   2.895   2.221   6.248 -1.4990  2.1675 -2.1934
  856MOL0     H12967   2.719   2.234   6.250 -1.5453 -2.5470 -0.7700
  856MOL0     H12968   2.702   2.005   6.326  0.4412 -0.9074  2.7942
  856MOL0     H12969   2.882   1.992   6.315 -2.0391 -2.4132  0.4065
  856MOL0     H12970   2.682   2.042   6.078  0.2142  1.3427  1.1268
  856MOL0     H12971   2.845   2.015   6.063 -0.8676 -3.4259 -0.5362
  856MOL0     H12972   2.829   1.788   6.172  2.5254  4.3635  0.1933
  856MOL0     H12973   2.753   1.818   6.013  0.7943  4.0214 -1.3447
  856MOL0     H12974   3.230   2.630   6.336  1.6298 -0.7381 -0.0190
  856MOL0     H12975   3.354   2.669   6.117  0.6630 -0.0915 -2.0272
  856MOL0     H12976   3.672   2.506   5.771 -2.3719  1.0000  2.6824
  856MOL0     H12977   3.798   2.614   5.557 -0.3868  1.4159 -1.6830
  856MOL0     H12978   3.707   4.199   4.205  1.9564  0.3258 -0.7745
  856MOL0     H12979   3.846   4.386   4.130 -0.5916 -2.4497 -0.2656
  856MOL0     H12980   3.890   4.895   4.265  0.1153  1.8680  0.3799
  856MOL0     H12981   4.016   5.099   4.302 -0.7121 -1.1346  0.3146
  856MOL0     H12982   4.119   5.220   4.512 -1.3424  0.4000 -1.8498
  856MOL0     H12983   4.188   5.292   4.366  3.4831  3.5794  1.0707
  856MOL0     H12984   4.268   5.364   4.602 -1.3045 -1.0377 -0.4578
  856MOL0     H12985   4.341   5.221   4.614 -1.8812  3.4981  2.9934
  856MOL0     H12986   4.476   5.286   4.398  2.2858  0.9819  0.1424
  856MOL0     H12987   4.507   5.388   4.538  1.1684 -4.2047  0.9348
  856MOL0     H12988   4.466   5.517   4.346  1.8791 -0.7848  0.6602
  856MOL0     H12989   4.288   5.476   4.336 -0.0912  0.1612  1.1290
  856MOL0     H12990   4.322   5.750   4.661 -1.7762  1.3450 -0.4598
  856MOL0     H12991   4.327   4.896   4.471  2.0928  0.3627 -1.2465
  856MOL0     H12992   4.205   4.669   4.416 -2.3012 -1.0578 -0.1098
  857MOL0     O12993   8.010   1.096   0.614 -0.3685  0.0393 -0.3088
  857MOL0     C12994   8.021   1.098   0.735 -0.6461  0.3026  0.0879
  857MOL0     O12995   7.948   1.026   0.830  0.3642  0.6636  0.0656
  857MOL0     C12996   7.825   0.977   0.779  0.6868 -0.1661 -0.1116
  857MOL0     C12997   7.723   1.061   0.716 -0.3294 -0.5719  0.9778
  857MOL0     C12998   7.599   1.005   0.671 -0.3742  0.0301 -0.3858
  857MOL0     C12999   7.577   0.863   0.684 -1.1914  1.1972 -0.1507
  857MOL0     O13000   7.459   0.820   0.643  0.1027  0.4573 -0.1883
  857MOL0     C13001   7.454   0.688   0.580 -0.0355 -0.6464 -0.4190
  857MOL0     C13002   7.307   0.675   0.526  0.7426 -0.3667  0.4110
  857MOL0     C13003   7.262   0.528   0.510 -0.0729  0.3165 -0.0712
  857MOL0     C13004   7.111   0.522   0.462  0.0581 -0.4356  0.2095
  857MOL0     C13005   7.041   0.396   0.497 -0.1376  0.3243 -0.0619
  857MOL0     C13006   6.898   0.410   0.450  0.7588  0.8803 -0.4445
  857MOL0     C13007   6.832   0.273   0.487  0.4130  0.1675 -0.9934
  857MOL0     C13008   6.826   0.258   0.644 -1.0387 -0.3799  0.5122
  857MOL0     N13009   6.738   0.138   0.670  0.3987  0.0206  0.1876
  857MOL0     C13010   6.602   0.131   0.689 -1.1512 -0.5072  0.0713
  857MOL0     C13011   6.574   0.000   0.702 -0.2761  0.5103 -0.5751
  857MOL0     C13012   6.432  -0.063   0.699 -0.1879 -0.9155 -0.1906
  857MOL0     C13013   6.381  -0.055   0.847  0.1169 -0.9056 -0.0330
  857MOL0     C13014   6.236  -0.093   0.867 -0.4714  0.9089 -0.5908
  857MOL0     C13015   6.208  -0.095   1.022  0.5990 -0.7271  0.3271
  857MOL0     O13016   6.202   0.047   1.066 -0.6691  0.9066  0.6863
  857MOL0     C13017   6.252   0.065   1.196 -0.4696  1.3436 -0.3354
  857MOL0     C13018   6.196  -0.003   1.307  0.1559  0.2803  0.7978
  857MOL0     C13019   6.220   0.027   1.438 -0.4021  0.1741  0.0140
  857MOL0     C13020   6.318   0.126   1.472 -0.2379  0.0097 -0.5683
  857MOL0     C13021   6.364   0.142   1.611 -0.6600  0.0748 -0.1972
  857MOL0     O13022   6.278   0.094   1.708 -0.3891  0.8444  1.1433
  857MOL0     C13023   6.318   0.110   1.832  0.1634 -0.0261 -0.8474
  857MOL0     C13024   6.297   0.229   1.895  0.2639 -0.1710 -0.9516
  857MOL0     C13025   6.328   0.242   2.038 -0.1475 -0.7419 -0.1366
  857MOL0     C13026   6.360   0.133   2.114  0.4081  0.0484  1.0574
  857MOL0     O13027   6.375   0.143   2.246  0.0651  0.6246  0.0019
  857MOL0     C13028   6.515   0.120   2.278  0.7644  0.8362  0.7900
  857MOL0     C13029   6.603   0.246   2.269  0.4006  0.0777  0.9072
  857MOL0     C13030   6.756   0.218   2.270 -0.6851 -0.0361 -0.2193
  857MOL0     C13031   6.815   0.142   2.152  0.6975 -0.1593  0.5646
  857MOL0     C13032   6.965   0.127   2.150 -1.0344  0.0543 -0.0493
  857MOL0     C13033   7.009   0.037   2.041 -0.7672  0.1113  0.9522
  857MOL0     C13034   7.161   0.023   2.028 -0.0840 -0.0302  0.5715
  857MOL0     C13035   7.214  -0.079   1.912 -0.4562 -0.2788 -0.2924
  857MOL0    Cl13036   7.151  -0.244   1.944  0.1890  0.3001  0.1455
  857MOL0     C13037   6.366   0.011   2.048  1.0957 -0.3573 -0.0408
  857MOL0     C13038   6.353  -0.007   1.909 -0.4379  0.0336 -0.5314
  857MOL0     O13039   6.466   0.212   1.628 -0.5117 -0.1026  0.1445
  857MOL0     C13040   6.376   0.192   1.362  0.5438 -0.8031 -0.4113
  857MOL0     C13041   6.345   0.168   1.228  0.0158  0.9640  0.3652
  857MOL0     N13042   6.686  -0.065   0.705  0.0551 -0.0217 -0.5745
  857MOL0     N13043   6.783   0.011   0.688  0.1341 -0.2412 -0.0152
  857MOL0     C13044   7.684   0.786   0.733 -0.2757  0.0981 -0.3384
  857MOL0     C13045   7.799   0.841   0.780 -0.5612 -0.1574  0.6001
  857MOL0     C13046   8.127   1.187   0.783 -0.6397  0.5998 -1.0006
  857MOL0     C13047   8.198   1.265   0.693  0.0916 -0.7913  0.5843
  857MOL0     C13048   8.312   1.339   0.739  0.7251 -0.5074  0.3602
  857MOL0     C13049   8.359   1.322   0.873 -0.7255  0.7958 -0.4101
  857MOL0     O13050   8.474   1.384   0.894  0.0207  0.5435  1.0315
  857MOL0     C13051   8.542   1.369   1.020 -0.0483  0.0832  0.4608
  857MOL0     C13052   8.669   1.458   1.009  0.0620 -0.0125 -1.1883
  857MOL0     C13053   8.736   1.500   1.145 -0.2973 -0.8015  0.7949
  857MOL0     C13054   8.691   1.638   1.188  0.5145 -0.2328  0.1901
  857MOL0     C13055   8.742   1.741   1.102 -1.0291 -1.4124  0.7710
  857MOL0     C13056   8.807   1.837   1.052  0.2590  0.0594 -0.2865
  857MOL0     C13057   8.289   1.243   0.963  0.4167  0.9195 -0.3738
  857MOL0     C13058   8.179   1.170   0.912  0.1983 -0.2759  0.6378
  857MOL0     H13059   7.750   1.166   0.704 -0.3281 -0.8241 -2.4457
  857MOL0     H13060   7.521   1.069   0.630 -0.1537 -0.8021 -2.1865
  857MOL0     H13061   7.469   0.608   0.653  3.1358  1.6006  1.6689
  857MOL0     H13062   7.526   0.678   0.498  1.9197 -3.3083  1.4693
  857MOL0     H13063   7.305   0.726   0.429  2.2252  1.0912  1.0959
  857MOL0     H13064   7.240   0.722   0.599  2.5794 -0.6688  2.3627
  857MOL0     H13065   7.276   0.463   0.598  1.6738 -3.3381 -2.7858
  857MOL0     H13066   7.313   0.472   0.431 -2.2391 -2.6401  0.4564
  857MOL0     H13067   7.049   0.606   0.491  1.7334  1.2803 -0.9356
  857MOL0     H13068   7.118   0.527   0.353 -4.3884 -0.5809 -0.2568
  857MOL0     H13069   7.055   0.377   0.604  0.6649  2.4799  0.2725
  857MOL0     H13070   7.097   0.314   0.451 -1.4734 -1.3432  1.1642
  857MOL0     H13071   6.895   0.425   0.342  1.5650 -0.2421 -0.6472
  857MOL0     H13072   6.852   0.491   0.508  0.5688  0.3012  0.2352
  857MOL0     H13073   6.729   0.259   0.452 -0.5541 -1.8752  2.2566
  857MOL0     H13074   6.885   0.185   0.451 -2.2125 -2.9256  2.0288
  857MOL0     H13075   6.805   0.348   0.703 -1.7852 -1.3506  1.7731
  857MOL0     H13076   6.917   0.210   0.682 -0.7543 -1.8102 -1.7982
  857MOL0     H13077   6.531   0.211   0.669 -1.0084 -0.3158  0.3170
  857MOL0     H13078   6.429  -0.170   0.678 -0.6771 -0.8629 -0.4095
  857MOL0     H13079   6.374  -0.002   0.629 -1.3499  0.5401  1.9399
  857MOL0     H13080   6.402   0.044   0.888 -1.5104 -0.1749 -0.8968
  857MOL0     H13081   6.429  -0.135   0.904 -1.0565 -2.5849 -1.3102
  857MOL0     H13082   6.177  -0.026   0.804 -2.0222 -1.0475 -1.3689
  857MOL0     H13083   6.225  -0.195   0.827  0.2595  1.1425 -1.4240
  857MOL0     H13084   6.275  -0.153   1.087  2.1348 -1.1068 -1.5259
  857MOL0     H13085   6.105  -0.125   1.045  0.0629  1.1686  0.5480
  857MOL0     H13086   6.124  -0.084   1.299 -0.0540  0.6215 -1.5012
  857MOL0     H13087   6.166  -0.022   1.518  3.1169 -3.2165  0.6165
  857MOL0     H13088   6.272   0.315   1.834 -1.4749 -1.3446 -1.9655
  857MOL0     H13089   6.316   0.341   2.081  0.2804 -0.2880 -1.0343
  857MOL0     H13090   6.562   0.046   2.213  1.9796  0.1832  2.3629
  857MOL0     H13091   6.519   0.077   2.378  0.6400 -1.8224 -0.2763
  857MOL0     H13092   6.585   0.312   2.354 -0.7406 -0.7741  1.3501
  857MOL0     H13093   6.585   0.305   2.178  2.8223 -0.2221  0.1670
  857MOL0     H13094   6.786   0.167   2.362  1.7688  0.9352 -0.4180
  857MOL0     H13095   6.812   0.310   2.254  3.1494 -1.9974  0.7231
  857MOL0     H13096   6.770   0.042   2.153 -1.3166  0.6469 -1.1642
  857MOL0     H13097   6.787   0.180   2.053  2.7569 -1.5050 -0.5949
  857MOL0     H13098   6.994   0.075   2.242 -1.3757 -0.8823 -0.4562
  857MOL0     H13099   7.015   0.224   2.154  4.2039 -2.3006  0.4484
  857MOL0     H13100   6.967   0.061   1.943 -0.2051 -3.1474 -0.2058
  857MOL0     H13101   6.978  -0.062   2.077 -2.1451  0.3394  0.4337
  857MOL0     H13102   7.208   0.119   2.003  4.9886 -1.2920  3.7361
  857MOL0     H13103   7.197  -0.011   2.125  0.0894 -0.9976  0.1765
  857MOL0     H13104   7.323  -0.081   1.906 -0.2194  2.2606  1.5800
  857MOL0     H13105   7.170  -0.045   1.817 -1.1229  1.4762  0.5841
  857MOL0     H13106   6.394  -0.076   2.108 -2.0815 -1.5755 -0.1089
  857MOL0     H13107   6.352  -0.102   1.858  0.4495 -0.4726  0.3527
  857MOL0     H13108   6.425   0.287   1.379  3.3285 -2.0529 -0.9047
  857MOL0     H13109   6.393   0.221   1.147 -0.3673 -0.8704 -1.1387
  857MOL0     H13110   7.665   0.679   0.740 -2.6959  0.4121 -1.2239
  857MOL0     H13111   7.874   0.780   0.828 -1.8538 -0.4100  2.3865
  857MOL0     H13112   8.168   1.281   0.590 -1.0330 -0.3000  0.9641
  857MOL0     H13113   8.383   1.382   0.668  0.7047 -0.3779  0.4167
  857MOL0     H13114   8.559   1.269   1.061  1.2462  0.9925  2.2898
  857MOL0     H13115   8.476   1.418   1.092 -0.6715 -1.2992  0.8574
  857MOL0     H13116   8.745   1.403   0.954  1.3901  1.3302 -0.7888
  857MOL0     H13117   8.652   1.550   0.953 -1.1098  2.0507  2.1932
  857MOL0     H13118   8.843   1.510   1.162 -0.4150  0.1902  1.0417
  857MOL0     H13119   8.701   1.427   1.219 -2.2305 -0.3333  0.4162
  857MOL0     H13120   8.582   1.638   1.198  0.3810 -4.9127  1.1770
  857MOL0     H13121   8.731   1.651   1.288  2.5246  3.2432 -0.8991
  857MOL0     H13122   8.874   1.902   1.000  0.4740  1.3349  1.4985
  857MOL0     H13123   8.306   1.216   1.067 -2.9867 -2.6872 -0.5005
  857MOL0     H13124   8.151   1.097   0.987  1.8762 -1.6892 -0.0437
  858MOL0     O13125   2.520   7.380   2.143 -0.6089 -0.4324 -0.3631
  858MOL0     C13126   2.541   7.324   2.247  0.6828  0.0903 -1.5375
  858MOL0     O13127   2.442   7.286   2.340 -0.5384  0.0304 -0.0186
  858MOL0     C13128   2.314   7.337   2.324  0.0219  0.6243  0.4457
  858MOL0     C13129   2.247   7.303   2.208 -0.1384 -0.9394 -0.3411
  858MOL0     C13130   2.114   7.322   2.205  0.2663  0.2997  0.5036
  858MOL0     C13131   2.042   7.374   2.311  0.2045 -0.4979  0.5179
  858MOL0     O13132   1.902   7.381   2.308 -0.3417  0.2666 -0.5433
  858MOL0     C13133   1.826   7.339   2.195  0.6050 -1.0309 -0.5947
  858MOL0     C13134   1.686   7.365   2.233  0.4876  0.0289  0.1056
  858MOL0     C13135   1.634   7.498   2.301  0.1916 -0.1132  0.5571
  858MOL0     C13136   1.493   7.483   2.346  0.5989 -0.0308  0.9317
  858MOL0     C13137   1.440   7.584   2.445 -0.3473 -0.6013 -1.2221
  858MOL0     C13138   1.506   7.557   2.587  1.1868  0.7779  0.0287
  858MOL0     C13139   1.482   7.681   2.686  0.1357  0.3250  0.5355
  858MOL0     C13140   1.513   7.632   2.825 -0.4783  0.9905  0.1611
  858MOL0     N13141   1.484   7.731   2.925 -0.4602  0.2292 -0.0282
  858MOL0     C13142   1.356   7.758   2.985  0.7583  0.1182 -1.4808
  858MOL0     C13143   1.384   7.816   3.110  0.7257 -0.1164 -0.3454
  858MOL0     C13144   1.292   7.887   3.213 -1.0788  0.1826 -0.1931
  858MOL0     C13145   1.189   7.993   3.158  0.3410  0.1813  0.0257
  858MOL0     C13146   1.243   8.123   3.107 -0.1804  1.0703 -0.5552
  858MOL0     C13147   1.319   8.107   2.967 -0.0205  0.2403 -0.3086
  858MOL0     O13148   1.361   8.243   2.951  0.1107  0.1786  0.2918
  858MOL0     C13149   1.487   8.249   2.894 -0.2135  0.8800  0.1205
  858MOL0     C13150   1.562   8.371   2.925  0.2492  1.3410  0.0789
  858MOL0     C13151   1.685   8.396   2.857  0.5012 -0.0118  0.1240
  858MOL0     C13152   1.739   8.302   2.768 -0.4528 -0.1261 -0.0037
  858MOL0     C13153   1.854   8.334   2.674  0.1035 -0.0415  0.1659
  858MOL0     O13154   1.886   8.249   2.568 -0.1328 -0.0920  1.0577
  858MOL0     C13155   1.958   8.316   2.468 -0.8149 -0.0964 -0.7750
  858MOL0     C13156   1.893   8.409   2.389  0.2085 -1.1222 -0.1955
  858MOL0     C13157   1.962   8.492   2.296  0.9803  0.0929 -0.4129
  858MOL0     C13158   2.102   8.475   2.285 -0.5230 -1.1918 -1.1452
  858MOL0     O13159   2.166   8.553   2.197 -0.2250  0.6145  0.6235
  858MOL0     C13160   2.296   8.523   2.142  0.0072 -0.7548 -0.4838
  858MOL0     C13161   2.287   8.407   2.051  0.3012  0.2617 -0.5023
  858MOL0     C13162   2.414   8.409   1.965  0.5458 -0.4963  0.7380
  858MOL0     C13163   2.418   8.280   1.888  0.2127  0.7440  0.2880
  858MOL0     C13164   2.555   8.247   1.843  0.0076  0.1562 -0.1013
  858MOL0     C13165   2.561   8.109   1.785 -0.5497  0.0898  0.6055
  858MOL0     C13166   2.496   8.088   1.648 -0.3527  1.2982  0.0345
  858MOL0     C13167   2.494   7.941   1.621 -0.2569  0.6957  0.6684
  858MOL0    Cl13168   2.329   7.872   1.651  0.5089 -0.1840 -0.1030
  858MOL0     C13169   2.172   8.384   2.370  0.4187 -0.3035  0.3080
  858MOL0     C13170   2.098   8.309   2.464  0.3365 -0.7871 -0.1642
  858MOL0     O13171   1.920   8.425   2.710 -0.0509  0.4509 -0.2572
  858MOL0     C13172   1.667   8.185   2.744  0.3391 -0.1368 -0.0372
  858MOL0     C13173   1.545   8.156   2.803  0.2043 -0.3848  0.5221
  858MOL0     N13174   1.519   7.814   3.125 -0.0241 -0.3493  0.3843
  858MOL0     N13175   1.575   7.767   3.024  0.1983  0.2158  0.2157
  858MOL0     C13176   2.113   7.422   2.421  0.6315  0.3624  0.5319
  858MOL0     C13177   2.251   7.401   2.428 -0.1091  0.5240 -0.6959
  858MOL0     C13178   2.682   7.277   2.271 -0.2328 -0.4096 -0.3849
  858MOL0     C13179   2.769   7.286   2.161  0.4788  0.4124 -0.0677
  858MOL0     C13180   2.894   7.225   2.163  0.4399  0.1814  0.2250
  858MOL0     C13181   2.933   7.159   2.277 -0.1577  0.2921  0.5253
  858MOL0     O13182   3.051   7.078   2.279  0.1074 -0.7294  0.1238
  858MOL0     C13183   3.113   7.050   2.154 -0.7214 -1.0017 -0.4717
  858MOL0     C13184   3.222   6.947   2.174 -0.1031 -0.0029  0.3788
  858MOL0     C13185   3.354   7.005   2.251  0.9388  0.4218 -0.7300
  858MOL0     C13186   3.488   6.954   2.192  0.4883 -0.6530 -0.1588
  858MOL0     C13187   3.520   7.015   2.064  0.6789  0.5326  1.1231
  858MOL0     C13188   3.534   7.068   1.954 -1.2461  0.9737 -0.3446
  858MOL0     C13189   2.855   7.152   2.399  1.0861 -0.2218  0.2082
  858MOL0     C13190   2.726   7.210   2.386 -0.6068  0.4424  0.2804
  858MOL0     H13191   2.299   7.249   2.130  3.2370  0.6543  0.5941
  858MOL0     H13192   2.074   7.275   2.116 -3.2537  1.9012  1.0730
  858MOL0     H13193   1.829   7.232   2.176  0.9320 -1.4656  1.6636
  858MOL0     H13194   1.850   7.388   2.100  1.7707  1.5282  0.9007
  858MOL0     H13195   1.662   7.284   2.304 -2.1895 -0.0715 -0.8161
  858MOL0     H13196   1.628   7.346   2.142 -1.3847  0.1390  1.2264
  858MOL0     H13197   1.635   7.591   2.243 -0.2139 -0.6684 -0.3606
  858MOL0     H13198   1.705   7.518   2.382 -0.5652 -0.7120  1.3987
  858MOL0     H13199   1.434   7.497   2.255  1.8253 -2.9255 -0.4195
  858MOL0     H13200   1.476   7.379   2.373  2.3331 -0.6294 -0.1674
  858MOL0     H13201   1.332   7.569   2.461 -0.4626 -0.6741 -2.0338
  858MOL0     H13202   1.470   7.686   2.422 -3.2242  0.9796  1.1926
  858MOL0     H13203   1.612   7.535   2.573  1.0743 -0.5750  1.1828
  858MOL0     H13204   1.469   7.461   2.625  1.6617 -0.5362 -2.5832
  858MOL0     H13205   1.542   7.772   2.672  1.5768 -0.6711  0.0348
  858MOL0     H13206   1.374   7.701   2.684  0.0211 -0.2769  0.6654
  858MOL0     H13207   1.619   7.606   2.823 -0.6476  0.2721  0.0133
  858MOL0     H13208   1.467   7.536   2.851  1.0954  0.7319  2.1539
  858MOL0     H13209   1.257   7.748   2.942  0.2381  0.5572 -0.4270
  858MOL0     H13210   1.358   7.928   3.290 -0.5358  0.2058 -0.6598
  858MOL0     H13211   1.237   7.809   3.266  0.6783  0.8131  2.8098
  858MOL0     H13212   1.115   7.993   3.239  0.4881  1.6242  0.1794
  858MOL0     H13213   1.148   7.945   3.068  0.9148 -3.4327  1.4856
  858MOL0     H13214   1.155   8.187   3.094 -0.4312  0.6851 -0.8026
  858MOL0     H13215   1.298   8.162   3.193 -1.5153 -1.9957  1.8933
  858MOL0     H13216   1.254   8.082   2.882 -1.7843 -0.0490  1.0527
  858MOL0     H13217   1.410   8.048   2.973  0.9996  1.1588 -3.9827
  858MOL0     H13218   1.523   8.440   2.999 -4.1102 -1.5079  0.7961
  858MOL0     H13219   1.749   8.482   2.875  0.6402 -0.4007  1.5814
  858MOL0     H13220   1.788   8.429   2.408  1.0244  1.4403  2.4421
  858MOL0     H13221   1.906   8.559   2.231  2.2631  0.1315 -1.5219
  858MOL0     H13222   2.367   8.494   2.220  0.8122  5.6817  1.7682
  858MOL0     H13223   2.334   8.609   2.086 -1.0433  0.2499  0.3082
  858MOL0     H13224   2.196   8.418   1.991 -1.6073  0.6116  2.2335
  858MOL0     H13225   2.264   8.322   2.117  1.1242  0.1126 -0.4016
  858MOL0     H13226   2.502   8.412   2.029  1.7964 -0.5101 -0.9184
  858MOL0     H13227   2.431   8.494   1.898  3.1587 -2.8769 -1.8979
  858MOL0     H13228   2.402   8.200   1.960 -1.3696 -1.4071 -2.2771
  858MOL0     H13229   2.344   8.289   1.807 -1.7221  0.2801  1.9314
  858MOL0     H13230   2.623   8.252   1.928 -3.4378  1.6503  2.8509
  858MOL0     H13231   2.581   8.326   1.772 -2.0562  1.3566  0.3737
  858MOL0     H13232   2.529   8.037   1.860  1.1355 -1.6772 -0.2878
  858MOL0     H13233   2.665   8.085   1.763 -0.3670  0.9313  0.5261
  858MOL0     H13234   2.393   8.123   1.657 -3.4940 -5.8625 -0.9796
  858MOL0     H13235   2.547   8.143   1.567 -3.6588  1.2014 -2.3288
  858MOL0     H13236   2.571   7.879   1.666  0.0195 -1.1882 -2.1149
  858MOL0     H13237   2.511   7.916   1.516 -0.3952 -0.4195  0.9048
  858MOL0     H13238   2.280   8.373   2.371  0.6223  0.2677 -3.3553
  858MOL0     H13239   2.153   8.238   2.525 -0.9212 -0.2609  1.6922
  858MOL0     H13240   1.692   8.106   2.675 -2.8246 -1.0395 -0.2698
  858MOL0     H13241   1.494   8.062   2.782 -0.4099 -0.3130  1.6571
  858MOL0     H13242   2.079   7.481   2.506  2.5459  0.1098  1.5361
  858MOL0     H13243   2.313   7.426   2.513 -2.2947  5.1871 -0.1350
  858MOL0     H13244   2.727   7.315   2.065  1.6083  1.6098 -0.2288
  858MOL0     H13245   2.945   7.222   2.067  0.7231 -5.3395  0.2514
  858MOL0     H13246   3.164   7.139   2.114 -1.1754 -1.5815 -2.4795
  858MOL0     H13247   3.042   7.021   2.076 -2.1252  0.2565  0.2751
  858MOL0     H13248   3.180   6.864   2.233 -0.0627  0.5569  1.2139
  858MOL0     H13249   3.253   6.915   2.074  0.3603  3.4354 -0.7042
  858MOL0     H13250   3.363   6.952   2.346  1.3305 -0.8673 -1.4577
  858MOL0     H13251   3.347   7.114   2.258  1.8434  0.4661 -0.4062
  858MOL0     H13252   3.570   6.973   2.261  1.3139  0.3328 -1.3689
  858MOL0     H13253   3.477   6.847   2.174 -1.1388 -0.7189  1.0121
  858MOL0     H13254   3.556   7.108   1.857  1.8194 -1.4044 -0.8007
  858MOL0     H13255   2.893   7.101   2.487 -2.3029  1.5212  2.9217
  858MOL0     H13256   2.665   7.192   2.474 -0.2875  0.4513  0.5044
  859MOL0     O13257   7.114   6.240   9.616  0.5413  0.2007 -0.5888
  859MOL0     C13258   7.011   6.192   9.571  1.1524 -0.7013 -0.0360
  859MOL0     O13259   6.909   6.140   9.647 -0.3462  0.6462 -1.0072
  859MOL0     C13260   6.937   6.115   9.779  0.5914  1.0455 -0.6508
  859MOL0     C13261   6.910   5.990   9.836  0.4215  0.1622  0.5556
  859MOL0     C13262   6.940   5.960   9.968  0.0796 -0.9828 -0.0203
  859MOL0     C13263   6.989   6.063  10.057 -0.8984  0.3732 -0.2690
  859MOL0     O13264   7.011   6.053  10.190 -0.0179 -1.4843 -0.9330
  859MOL0     C13265   7.042   5.926  10.235 -0.0773 -0.4419 -0.4562
  859MOL0     C13266   7.115   5.950  10.374  0.2557  0.4764 -0.0420
  859MOL0     C13267   7.113   5.842  10.484  0.9076 -0.2105  0.5984
  859MOL0     C13268   7.142   5.703  10.430  0.1189 -0.1500 -0.0030
  859MOL0     C13269   7.098   5.585  10.513  0.3187 -0.3822 -0.7471
  859MOL0     C13270   7.157   5.453  10.455  0.1895  0.1953 -1.0008
  859MOL0     C13271   7.146   5.342  10.559  0.0243  0.3205  0.2935
  859MOL0     C13272   7.169   5.198  10.496  0.9076 -0.8578 -0.2994
  859MOL0     N13273   7.175   5.085  10.591  0.2607 -0.0530  0.5348
  859MOL0     C13274   7.105   4.968  10.594  1.3534  0.0278 -0.3610
  859MOL0     C13275   7.149   4.902  10.705 -0.7766 -0.2795 -0.0595
  859MOL0     C13276   7.105   4.767  10.739 -0.1390 -0.6818  0.8084
  859MOL0     C13277   7.108   4.737  10.897  0.0405  0.9071 -1.0080
  859MOL0     C13278   7.028   4.606  10.928 -0.2623  0.5492 -0.1930
  859MOL0     C13279   7.065   4.508  10.826 -0.0485  0.4840  0.0520
  859MOL0     O13280   7.035   4.374  10.853  0.5060  0.0331  0.1153
  859MOL0     C13281   7.034   4.290  10.739 -0.3076 -0.4522 -0.0222
  859MOL0     C13282   6.929   4.198  10.721 -0.0037 -0.0344  0.1151
  859MOL0     C13283   6.937   4.121  10.601  0.9574  0.2309 -0.6688
  859MOL0     C13284   7.038   4.129  10.508  0.1472  0.0102  1.2004
  859MOL0     C13285   7.035   4.053  10.387 -0.8402 -1.2136  0.5121
  859MOL0     O13286   6.931   3.963  10.375 -0.3452  0.0818  0.6692
  859MOL0     C13287   6.952   3.859  10.285  0.3154  0.0146 -0.4005
  859MOL0     C13288   6.895   3.864  10.148 -0.1186  0.5364 -0.4474
  859MOL0     C13289   6.907   3.757  10.068  0.8526  0.3510 -0.6756
  859MOL0     C13290   6.970   3.639  10.108 -0.8066  0.2243 -0.2131
  859MOL0     O13291   6.970   3.536  10.022 -0.7662 -0.5261 -0.0385
  859MOL0     C13292   7.086   3.456  10.020  0.5253 -0.1381  0.4568
  859MOL0     C13293   7.080   3.395   9.876  0.0583 -0.2691 -0.0441
  859MOL0     C13294   6.991   3.272   9.867  0.8090  0.1906 -0.1582
  859MOL0     C13295   7.014   3.181   9.747  0.6650 -0.3581 -0.3725
  859MOL0     C13296   6.944   3.045   9.753  0.4278  0.2411  0.2024
  859MOL0     C13297   6.797   3.058   9.761  0.2877 -0.3027 -0.0666
  859MOL0     C13298   6.721   3.118   9.638  0.5785  0.1366 -0.2862
  859MOL0     C13299   6.782   3.093   9.498 -0.4883  0.1134  0.7623
  859MOL0    Cl13300   6.800   2.922   9.459  0.0264 -0.5612  0.4720
  859MOL0     C13301   7.013   3.634  10.240 -0.4815 -0.1233 -1.2804
  859MOL0     C13302   7.007   3.739  10.328 -0.2054 -1.5321  1.0595
  859MOL0     O13303   7.130   4.058  10.315 -0.4375  0.8594  0.0522
  859MOL0     C13304   7.153   4.204  10.541 -0.4072 -0.4739 -0.1577
  859MOL0     C13305   7.147   4.285  10.655 -0.2617  0.2890  0.7459
  859MOL0     N13306   7.229   4.983  10.779 -0.2520 -0.4171 -0.1723
  859MOL0     N13307   7.242   5.089  10.709  0.7987  0.3478 -0.1202
  859MOL0     C13308   7.010   6.186  10.005 -0.6290 -0.6462  1.0050
  859MOL0     C13309   6.981   6.215   9.868 -0.2119  0.1468  0.4744
  859MOL0     C13310   6.993   6.187   9.422  0.9497  0.7839  0.7131
  859MOL0     C13311   6.881   6.115   9.374 -0.2395  0.3440 -0.3811
  859MOL0     C13312   6.885   6.067   9.245  0.3663 -0.8622  0.7441
  859MOL0     C13313   6.989   6.104   9.151 -0.0326 -0.1584 -0.6579
  859MOL0     O13314   7.002   6.046   9.032 -0.4943  0.9865  0.6750
  859MOL0     C13315   6.896   6.008   8.952  0.1332  0.4275 -0.4435
  859MOL0     C13316   6.937   5.958   8.814 -0.5198  1.4733 -0.0192
  859MOL0     C13317   7.009   5.817   8.798  0.6197 -0.0680 -1.4275
  859MOL0     C13318   6.936   5.702   8.872 -0.3359  0.4207 -1.0131
  859MOL0     C13319   7.033   5.593   8.882  0.8012 -0.2894 -0.4585
  859MOL0     C13320   7.118   5.505   8.890  0.0978 -0.4678 -0.3539
  859MOL0     C13321   7.091   6.199   9.202  0.0545 -0.0324 -0.5038
  859MOL0     C13322   7.091   6.245   9.335  0.6615  0.5283 -0.0073
  859MOL0     H13323   6.856   5.915   9.780  1.6976  0.1508 -0.7047
  859MOL0     H13324   6.913   5.860  10.001 -0.2791 -0.1570  2.3771
  859MOL0     H13325   7.110   5.874  10.167 -2.3454 -1.7087 -1.8865
  859MOL0     H13326   6.944   5.879  10.248 -0.4533  0.6534  0.9851
  859MOL0     H13327   7.086   6.047  10.416 -0.2322  1.2494 -2.0947
  859MOL0     H13328   7.221   5.966  10.353  0.0721  0.3675 -1.0891
  859MOL0     H13329   7.011   5.839  10.525 -0.0516  1.9691 -1.4061
  859MOL0     H13330   7.183   5.872  10.563  1.6192 -0.2342 -0.0233
  859MOL0     H13331   7.099   5.689  10.330 -0.3474  3.8711 -0.5502
  859MOL0     H13332   7.247   5.695  10.403  0.1320 -3.3392  0.6258
  859MOL0     H13333   6.991   5.566  10.498  0.9466 -2.4132 -3.4179
  859MOL0     H13334   7.126   5.610  10.615  1.1689 -0.4835 -0.9458
  859MOL0     H13335   7.264   5.470  10.435  0.0603  0.5588 -1.4044
  859MOL0     H13336   7.115   5.428  10.357 -2.0928 -0.6626  0.1376
  859MOL0     H13337   7.209   5.354  10.648  1.9594  0.7490 -1.0514
  859MOL0     H13338   7.044   5.341  10.598  0.1099 -3.2368  0.7734
  859MOL0     H13339   7.262   5.191  10.439  1.7437 -0.7250  0.9837
  859MOL0     H13340   7.085   5.188  10.427  0.5858  0.2789 -0.1020
  859MOL0     H13341   7.022   4.937  10.531 -1.4445  0.3510  2.9232
  859MOL0     H13342   7.179   4.701  10.694 -0.4313  0.4359 -1.4467
  859MOL0     H13343   7.009   4.748  10.689  0.7931 -0.8864 -0.9720
  859MOL0     H13344   7.064   4.811  10.965  1.6188  0.1771  0.8811
  859MOL0     H13345   7.209   4.711  10.930 -0.7817 -1.7120 -0.3565
  859MOL0     H13346   7.057   4.579  11.030 -1.2325  5.7250  1.7477
  859MOL0     H13347   6.920   4.623  10.932 -0.2047  0.7217  1.7938
  859MOL0     H13348   7.173   4.510  10.809  0.3344  0.5803  2.2068
  859MOL0     H13349   7.021   4.527  10.728 -0.3024  0.9384  0.2476
  859MOL0     H13350   6.853   4.180  10.797 -1.6313 -1.6138 -1.7842
  859MOL0     H13351   6.852   4.057  10.576 -0.0943  1.7866 -1.2214
  859MOL0     H13352   6.852   3.957  10.111  0.5343  0.0871 -2.4910
  859MOL0     H13353   6.852   3.761   9.974  0.0866 -3.5944 -0.5849
  859MOL0     H13354   7.079   3.384  10.102  1.4775 -0.3577  0.3589
  859MOL0     H13355   7.183   3.501  10.042 -0.2900 -0.0783  4.7994
  859MOL0     H13356   7.181   3.364   9.848  1.5773  3.8639  0.2047
  859MOL0     H13357   7.061   3.474   9.803 -0.3975  1.8248  2.1799
  859MOL0     H13358   6.891   3.309   9.845  0.4364  0.4310  1.8118
  859MOL0     H13359   6.989   3.223   9.964 -0.1398 -1.6018 -1.0310
  859MOL0     H13360   7.009   3.235   9.652 -1.3383 -0.9380 -0.6387
  859MOL0     H13361   7.121   3.158   9.755  0.4140 -2.3437 -1.8791
  859MOL0     H13362   6.979   3.007   9.850 -1.1862  3.5375  2.2421
  859MOL0     H13363   6.976   2.984   9.668 -0.3477 -0.2788  0.2779
  859MOL0     H13364   6.780   3.109   9.856  0.0667 -1.2831  0.4312
  859MOL0     H13365   6.755   2.958   9.778 -3.8845  1.4310  1.0149
  859MOL0     H13366   6.622   3.071   9.642  0.6848 -0.0096  1.0225
  859MOL0     H13367   6.707   3.227   9.643  0.2528  0.0644  0.6972
  859MOL0     H13368   6.881   3.140   9.496  0.5870 -2.0034 -1.3658
  859MOL0     H13369   6.723   3.148   9.424 -0.9969  2.2316  2.6285
  859MOL0     H13370   7.060   3.547  10.286  1.0558  1.8462  1.1121
  859MOL0     H13371   7.027   3.721  10.433  0.5908 -0.5728  1.0951
  859MOL0     H13372   7.232   4.227  10.471  2.0967 -2.3963  1.8532
  859MOL0     H13373   7.224   4.354  10.688  0.0592 -0.6355  2.0147
  859MOL0     H13374   7.041   6.268  10.068 -0.8126  0.0778  0.1741
  859MOL0     H13375   6.997   6.314   9.826  0.9979 -0.1216  0.2714
  859MOL0     H13376   6.810   6.066   9.440  0.8887 -2.3259 -0.9808
  859MOL0     H13377   6.801   6.002   9.225 -2.0460  1.4384  2.7948
  859MOL0     H13378   6.842   6.102   8.936  1.4533  1.2524 -0.2004
  859MOL0     H13379   6.826   5.940   9.000  1.6504 -0.9045  0.0053
  859MOL0     H13380   6.842   5.946   8.761 -1.5476  0.2772  1.9573
  859MOL0     H13381   7.005   6.025   8.761  2.0547  0.1451  1.3978
  859MOL0     H13382   7.105   5.831   8.848  0.0028 -0.0918 -0.2187
  859MOL0     H13383   7.020   5.797   8.691 -3.0867 -0.9187 -1.7821
  859MOL0     H13384   6.900   5.718   8.974 -0.2799 -5.0065  0.1412
  859MOL0     H13385   6.841   5.676   8.825 -1.2886  3.5925 -1.0619
  859MOL0     H13386   7.185   5.423   8.879 -1.6401 -1.9139 -0.6996
  859MOL0     H13387   7.176   6.227   9.141 -0.5549  1.9091 -0.5428
  859MOL0     H13388   7.183   6.294   9.367 -0.0779  2.3551 -0.5724
  860MOL0     O13389   8.190  10.461   6.056 -0.1498 -0.5632  0.0477
  860MOL0     C13390   8.194  10.430   5.937  0.3648  0.4038 -0.0176
  860MOL0     O13391   8.159  10.307   5.882 -0.0170  0.5123  0.4268
  860MOL0     C13392   8.123  10.203   5.963  1.2508 -0.4628  0.5353
  860MOL0     C13393   8.185  10.079   5.942  0.7001  0.4461 -0.1876
  860MOL0     C13394   8.176   9.971   6.031  0.2741 -0.2290  0.7840
  860MOL0     C13395   8.078   9.988   6.136 -0.0874  0.1148 -0.7444
  860MOL0     O13396   8.061   9.879   6.227  0.1217 -0.7872  0.8119
  860MOL0     C13397   8.034   9.746   6.167 -0.1148  0.6972  0.0172
  860MOL0     C13398   7.921   9.732   6.058 -0.0600  0.1411  0.0347
  860MOL0     C13399   7.780   9.768   6.121  0.5516  0.0549  0.2188
  860MOL0     C13400   7.663   9.727   6.039  0.5570  0.8180 -0.5007
  860MOL0     C13401   7.538   9.802   6.101 -0.5046  0.0205  0.0998
  860MOL0     C13402   7.504   9.925   6.016 -0.6083 -0.8090 -0.1629
  860MOL0     C13403   7.391  10.016   6.086 -0.6544  0.6971  0.5412
  860MOL0     C13404   7.249   9.965   6.035 -0.1216 -0.1525  0.3368
  860MOL0     N13405   7.147  10.004   6.138  0.2765  0.3273 -0.3304
  860MOL0     C13406   7.139   9.959   6.267  0.4956  0.3686  0.1962
  860MOL0     C13407   7.009   9.987   6.299  0.7669 -0.2639  0.3058
  860MOL0     C13408   6.937   9.923   6.417 -0.4059  0.4214  0.1730
  860MOL0     C13409   6.890  10.013   6.531 -0.6295 -0.2533 -0.5418
  860MOL0     C13410   6.939   9.953   6.667 -0.2280 -0.3020 -0.2657
  860MOL0     C13411   7.058  10.040   6.716 -0.6313  0.3099 -0.4817
  860MOL0     O13412   7.121   9.982   6.830  1.2131 -0.2555  0.3175
  860MOL0     C13413   7.194  10.073   6.887 -1.1212 -0.2105  0.3172
  860MOL0     C13414   7.339  10.069   6.892  0.9287 -0.0850  0.4097
  860MOL0     C13415   7.411  10.165   6.962 -0.6928  1.1727  0.0667
  860MOL0     C13416   7.345  10.259   7.042  1.3048 -0.0900  0.7130
  860MOL0     C13417   7.419  10.353   7.119 -0.8369  0.4289 -0.2974
  860MOL0     O13418   7.552  10.327   7.158 -0.1231 -0.5005  1.0732
  860MOL0     C13419   7.621  10.437   7.200  0.6937  0.0767  0.4146
  860MOL0     C13420   7.626  10.466   7.336 -0.0778 -0.4118 -0.5624
  860MOL0     C13421   7.704  10.570   7.388  0.0806 -0.4861  0.4538
  860MOL0     C13422   7.772  10.648   7.307 -0.0483 -0.2314  0.4871
  860MOL0     O13423   7.833  10.758   7.368  0.2829  0.3126 -0.1914
  860MOL0     C13424   7.926  10.840   7.298 -0.6990 -0.1324  0.6053
  860MOL0     C13425   7.994  10.949   7.393  0.7491 -0.0032  0.5294
  860MOL0     C13426   8.048  10.892   7.524  0.1228 -0.3402  0.1263
  860MOL0     C13427   8.187  10.839   7.507  0.9144 -0.3729  0.4362
  860MOL0     C13428   8.269  10.842   7.638 -0.5895 -0.0744 -0.1776
  860MOL0     C13429   8.229  10.718   7.707  0.4332  0.2014 -0.1855
  860MOL0     C13430   8.320  10.685   7.837  0.2065  0.4048  0.3429
  860MOL0     C13431   8.287  10.555   7.907  0.4408 -0.3161  0.2513
  860MOL0    Cl13432   8.366  10.419   7.830  0.0481  0.0504  0.2119
  860MOL0     C13433   7.773  10.626   7.162  0.1301  0.6023 -0.1100
  860MOL0     C13434   7.700  10.513   7.115 -0.0749 -0.5660 -0.1497
  860MOL0     O13435   7.364  10.460   7.135  0.0721  0.4753 -0.6107
  860MOL0     C13436   7.201  10.271   7.034  0.1216 -0.0457  0.6757
  860MOL0     C13437   7.131  10.175   6.959  0.1367  0.1095  0.1466
  860MOL0     N13438   6.942  10.048   6.193 -0.4074  0.6487  0.1303
  860MOL0     N13439   7.028  10.062   6.105 -0.1528 -0.7718  0.8570
  860MOL0     C13440   8.005  10.105   6.144  0.1777 -1.3780 -1.0217
  860MOL0     C13441   8.025  10.213   6.064 -0.0652  0.4696 -0.3811
  860MOL0     C13442   8.247  10.531   5.848  0.2482 -0.6020  1.2629
  860MOL0     C13443   8.324  10.489   5.734  0.4050 -1.3085  0.3740
  860MOL0     C13444   8.371  10.591   5.645  1.4180  0.4346 -0.3243
  860MOL0     C13445   8.349  10.729   5.668  0.4928 -0.0099 -0.1969
  860MOL0     O13446   8.394  10.820   5.574  0.9321  0.6852  0.6988
  860MOL0     C13447   8.415  10.957   5.612  0.7273  0.1575  0.5112
  860MOL0     C13448   8.487  11.045   5.508 -1.1549 -0.2886 -0.2544
  860MOL0     C13449   8.476  11.199   5.548 -0.1744 -0.4917 -0.5849
  860MOL0     C13450   8.501  11.294   5.422  0.0596  0.8083 -0.0690
  860MOL0     C13451   8.533  11.431   5.455 -0.4010 -0.4099 -0.0989
  860MOL0     C13452   8.560  11.549   5.473 -1.0107  0.1011 -0.5207
  860MOL0     C13453   8.281  10.765   5.788 -0.0109  0.2465 -0.0449
  860MOL0     C13454   8.221  10.666   5.871 -0.7207  0.3135 -0.3028
  860MOL0     H13455   8.248  10.087   5.854  0.3934  1.7763 -0.3039
  860MOL0     H13456   8.235   9.881   6.017 -1.2036 -1.3909  1.7530
  860MOL0     H13457   8.002   9.684   6.251 -1.9430 -0.4593 -1.4632
  860MOL0     H13458   8.125   9.701   6.126 -0.9757  0.9145 -2.2713
  860MOL0     H13459   7.925   9.628   6.022  0.3121  0.5440 -1.1585
  860MOL0     H13460   7.942   9.788   5.966 -1.4299  2.3464  0.9914
  860MOL0     H13461   7.780   9.877   6.132 -0.0957  0.0610  0.1955
  860MOL0     H13462   7.772   9.731   6.223  2.2093  3.0594  1.5534
  860MOL0     H13463   7.677   9.743   5.931 -1.3017  3.6213 -0.4099
  860MOL0     H13464   7.652   9.620   6.059  0.3359  0.6389 -1.5111
  860MOL0     H13465   7.551   9.829   6.206 -0.1531  0.6768 -0.1076
  860MOL0     H13466   7.458   9.729   6.089 -0.7614  0.0652  1.3805
  860MOL0     H13467   7.459   9.896   5.921 -3.6092 -1.5184  1.3409
  860MOL0     H13468   7.588   9.988   5.986 -0.9033  1.0493  2.5796
  860MOL0     H13469   7.398  10.000   6.194  4.1205 -0.9652  0.1959
  860MOL0     H13470   7.403  10.123   6.065 -1.0493  0.8921  1.2509
  860MOL0     H13471   7.241   9.856   6.043  1.2182 -0.2179  1.0051
  860MOL0     H13472   7.229  10.002   5.934 -3.0841  0.2465  0.9809
  860MOL0     H13473   7.216   9.920   6.332  0.6486  1.3843  0.6417
  860MOL0     H13474   7.002   9.846   6.458  0.1129 -0.2038 -1.7609
  860MOL0     H13475   6.847   9.876   6.375 -3.5769  4.9015  1.1228
  860MOL0     H13476   6.782  10.022   6.514 -0.8265 -3.6105 -1.7947
  860MOL0     H13477   6.932  10.114   6.530  0.5213 -0.7227 -1.6647
  860MOL0     H13478   6.861   9.954   6.745 -1.7257 -0.3876 -1.7054
  860MOL0     H13479   6.969   9.848   6.657  4.4199  1.0266 -3.6362
  860MOL0     H13480   7.025  10.143   6.731  0.6445  0.7972 -0.8182
  860MOL0     H13481   7.131  10.046   6.634 -2.3245  0.6854 -2.0143
  860MOL0     H13482   7.411  10.007   6.840  0.5424 -0.4218  0.2750
  860MOL0     H13483   7.519  10.157   6.959 -0.7176 -1.0724  2.2041
  860MOL0     H13484   7.576  10.401   7.407  0.0926 -0.8668 -0.8487
  860MOL0     H13485   7.699  10.576   7.497  3.1167 -3.8296  0.9872
  860MOL0     H13486   7.882  10.896   7.215  2.1308  0.0771 -0.9140
  860MOL0     H13487   8.004  10.772   7.260  0.0618  1.6097 -1.1391
  860MOL0     H13488   7.916  11.023   7.413 -0.1785 -0.2114 -1.9968
  860MOL0     H13489   8.064  11.005   7.330 -1.5093  2.5854  0.1284
  860MOL0     H13490   7.981  10.817   7.567 -0.6409 -0.3640 -1.0598
  860MOL0     H13491   8.037  10.980   7.589  0.0685  0.0167 -0.3621
  860MOL0     H13492   8.196  10.739   7.466  4.7836 -2.5446  5.4364
  860MOL0     H13493   8.233  10.901   7.429 -1.0720  3.2633  1.8843
  860MOL0     H13494   8.246  10.927   7.703 -2.0218  1.6648 -2.7708
  860MOL0     H13495   8.374  10.856   7.612 -0.2633  0.0537  1.1463
  860MOL0     H13496   8.254  10.624   7.657  0.1957 -0.2384  0.5108
  860MOL0     H13497   8.121  10.723   7.721  0.1554 -1.3507 -1.4441
  860MOL0     H13498   8.426  10.683   7.813  0.3882 -0.5295  1.1745
  860MOL0     H13499   8.301  10.755   7.919 -0.7683 -1.6467  1.9812
  860MOL0     H13500   8.180  10.541   7.891  0.9193 -2.4047 -1.7147
  860MOL0     H13501   8.314  10.568   8.012 -4.2550  0.1947  1.6068
  860MOL0     H13502   7.837  10.686   7.098  2.0092 -0.6566  0.5152
  860MOL0     H13503   7.700  10.494   7.008 -1.8543  1.7779 -0.6459
  860MOL0     H13504   7.160  10.354   7.090  0.4820  0.4935  0.1544
  860MOL0     H13505   7.025  10.189   6.974 -0.4856  1.0775 -3.8892
  860MOL0     H13506   7.931  10.105   6.223 -1.3692 -0.2093 -2.3885
  860MOL0     H13507   7.969  10.305   6.074  3.2261  2.5232  0.6803
  860MOL0     H13508   8.343  10.383   5.721  2.4088 -0.7230 -2.2001
  860MOL0     H13509   8.406  10.547   5.553 -0.6030  1.7973 -1.8487
  860MOL0     H13510   8.471  10.963   5.706  1.2727 -2.1613  0.3853
  860MOL0     H13511   8.316  11.000   5.632  1.4023  1.2029  1.7657
  860MOL0     H13512   8.595  11.031   5.498 -1.0053 -0.5775  1.4156
  860MOL0     H13513   8.456  11.029   5.405  1.3661 -1.7298 -0.8795
  860MOL0     H13514   8.552  11.233   5.620  0.0022 -0.5059 -0.7631
  860MOL0     H13515   8.381  11.222   5.598 -1.0527 -3.2391 -0.8350
  860MOL0     H13516   8.596  11.273   5.372  0.0331  0.8332 -0.1281
  860MOL0     H13517   8.419  11.273   5.354  0.5016 -4.5848  0.6747
  860MOL0     H13518   8.590  11.651   5.485  1.3159 -0.4958 -0.8485
  860MOL0     H13519   8.274  10.872   5.806  3.8895  0.5940  0.1273
  860MOL0     H13520   8.160  10.688   5.958 -0.7645 -2.2710  0.4269
  861MOL0     O13521  10.926   0.550   9.664  0.3344  0.4350 -0.4745
  861MOL0     C13522  11.017   0.533   9.584 -0.2515  0.3404  0.6124
  861MOL0     O13523  11.106   0.628   9.550  1.3135  0.0938  1.1111
  861MOL0     C13524  11.078   0.757   9.572  0.9713 -0.5626  0.4259
  861MOL0     C13525  11.020   0.843   9.482 -1.0584  0.3151 -1.0834
  861MOL0     C13526  10.985   0.977   9.512  0.6367  0.6524 -0.4444
  861MOL0     C13527  11.001   1.027   9.638  0.0808 -0.5257 -0.3204
  861MOL0     O13528  10.965   1.147   9.687  0.0610  0.5519  0.1313
  861MOL0     C13529  10.891   1.228   9.589 -0.2861  0.3639 -0.2395
  861MOL0     C13530  10.873   1.375   9.627  0.1840 -0.2398  0.4984
  861MOL0     C13531  10.771   1.389   9.739  1.0053 -0.1292 -0.9412
  861MOL0     C13532  10.778   1.535   9.797  0.3504  0.2376 -0.0677
  861MOL0     C13533  10.918   1.567   9.862 -0.1792 -0.5322 -0.0413
  861MOL0     C13534  10.919   1.692   9.954  0.5006  0.0070 -1.1500
  861MOL0     C13535  11.056   1.699  10.032  0.2365  0.5117 -0.4987
  861MOL0     C13536  11.176   1.739   9.958 -0.1664  0.5399  0.1523
  861MOL0     N13537  11.268   1.629   9.949  0.9732  1.7361  0.2138
  861MOL0     C13538  11.269   1.541   9.841 -1.0360  0.8522 -0.6514
  861MOL0     C13539  11.313   1.422   9.898 -0.3212  0.1625  0.3409
  861MOL0     C13540  11.326   1.283   9.821 -0.6258 -0.1667  0.6121
  861MOL0     C13541  11.382   1.172   9.904  0.0216  0.3760 -0.5875
  861MOL0     C13542  11.405   1.044   9.817 -0.6541  0.2699  0.0549
  861MOL0     C13543  11.416   0.908   9.892 -0.2026 -0.3027 -0.5854
  861MOL0     O13544  11.501   0.821   9.808  0.5555  0.4705  0.0335
  861MOL0     C13545  11.465   0.695   9.799 -0.5810 -0.1772  0.2525
  861MOL0     C13546  11.524   0.629   9.692 -0.4400 -0.2420 -0.6265
  861MOL0     C13547  11.494   0.494   9.678  0.8942 -0.5803  1.1425
  861MOL0     C13548  11.408   0.415   9.763 -0.9417 -0.5261 -0.5039
  861MOL0     C13549  11.387   0.267   9.744  0.9277 -0.5088 -1.0573
  861MOL0     O13550  11.436   0.215   9.631 -0.7837  0.5941  0.6503
  861MOL0     C13551  11.417   0.077   9.594 -0.1534 -0.9342 -0.9379
  861MOL0     C13552  11.429  -0.030   9.678 -0.5588  0.2089 -0.0993
  861MOL0     C13553  11.418  -0.159   9.639  0.4237  0.9380  0.5609
  861MOL0     C13554  11.376  -0.182   9.500 -0.2261  0.1406 -0.3812
  861MOL0     O13555  11.371  -0.308   9.445  0.1558  0.3150 -0.6966
  861MOL0     C13556  11.348  -0.412   9.528 -0.5836  0.5363  0.1380
  861MOL0     C13557  11.488  -0.480   9.543  0.4947  1.0721 -0.3691
  861MOL0     C13558  11.527  -0.565   9.416  0.0763  0.9446  0.2141
  861MOL0     C13559  11.660  -0.630   9.430 -0.5751 -0.0724 -0.2698
  861MOL0     C13560  11.673  -0.770   9.364  0.1862 -1.3388  0.2638
  861MOL0     C13561  11.684  -0.766   9.205  0.4504  0.6967  0.2919
  861MOL0     C13562  11.565  -0.746   9.112 -0.3784  0.0813 -1.0908
  861MOL0     C13563  11.465  -0.869   9.114 -0.2601 -0.2157  0.5334
  861MOL0    Cl13564  11.314  -0.822   9.003 -0.3217  0.0011 -0.2502
  861MOL0     C13565  11.355  -0.075   9.415  0.2041 -0.5662 -0.4192
  861MOL0     C13566  11.368   0.059   9.471  0.3188  0.3633  0.5286
  861MOL0     O13567  11.330   0.206   9.831 -0.0058 -0.6583 -0.1796
  861MOL0     C13568  11.342   0.480   9.871  0.4037 -0.0848  0.4124
  861MOL0     C13569  11.372   0.621   9.881 -0.4828  0.0787 -1.3385
  861MOL0     N13570  11.351   1.439  10.026 -0.2058 -0.5206  0.0833
  861MOL0     N13571  11.329   1.564  10.058 -0.3427  0.1538 -0.0890
  861MOL0     C13572  11.065   0.950   9.730 -0.7459  0.0094  0.2554
  861MOL0     C13573  11.101   0.815   9.700 -0.4235  0.8782 -0.0287
  861MOL0     C13574  11.027   0.396   9.537 -1.1084  0.1863  1.0678
  861MOL0     C13575  11.093   0.352   9.422  0.0656  0.4067 -0.2631
  861MOL0     C13576  11.089   0.214   9.377 -0.5056  0.4991 -0.6549
  861MOL0     C13577  11.013   0.117   9.450  0.0840 -0.3737 -0.3542
  861MOL0     O13578  11.011  -0.012   9.410  0.2441  0.5252 -0.0447
  861MOL0     C13579  10.991  -0.129   9.495  0.4754  1.0835 -0.1391
  861MOL0     C13580  11.023  -0.245   9.403  0.0687  0.3527  0.0634
  861MOL0     C13581  10.984  -0.376   9.470 -0.9569  0.9637  0.1514
  861MOL0     C13582  10.974  -0.492   9.367  0.1782  0.9134  0.0791
  861MOL0     C13583  10.950  -0.619   9.437 -0.2463 -0.6698 -0.1541
  861MOL0     C13584  10.895  -0.713   9.484 -0.3995  0.2363  0.4614
  861MOL0     C13585  10.958   0.156   9.568 -0.1060  0.3172 -0.0184
  861MOL0     C13586  10.952   0.294   9.602  0.9826  0.4439 -0.1684
  861MOL0     H13587  11.009   0.810   9.379  0.2989 -3.8487 -0.0999
  861MOL0     H13588  10.954   1.030   9.423  0.4793 -2.9158 -2.7157
  861MOL0     H13589  10.790   1.186   9.586 -0.9134  1.7357  0.6854
  861MOL0     H13590  10.935   1.225   9.489 -2.1110  0.6734 -1.0958
  861MOL0     H13591  10.835   1.419   9.534 -1.4056  1.2591  1.8066
  861MOL0     H13592  10.968   1.419   9.658 -1.0875  3.6843 -0.6418
  861MOL0     H13593  10.778   1.329   9.830 -1.9563  1.6778  0.5969
  861MOL0     H13594  10.675   1.368   9.692  0.4311  0.4642 -0.0564
  861MOL0     H13595  10.761   1.606   9.715  3.2507  0.4664 -0.5787
  861MOL0     H13596  10.703   1.542   9.876  1.9314 -2.4274  1.8193
  861MOL0     H13597  10.996   1.571   9.785  0.0474 -3.7750 -0.1300
  861MOL0     H13598  10.953   1.484   9.924  2.3756  1.2360  1.0174
  861MOL0     H13599  10.837   1.685  10.026  1.8301  0.0319  0.4400
  861MOL0     H13600  10.897   1.779   9.892 -0.7488 -1.0869 -2.3081
  861MOL0     H13601  11.044   1.777  10.109 -1.4333 -0.7406  0.5940
  861MOL0     H13602  11.073   1.602  10.080  0.9997 -0.2417 -2.2107
  861MOL0     H13603  11.222   1.829  10.000 -0.0184  1.3849 -1.6869
  861MOL0     H13604  11.140   1.789   9.867  2.2318  0.8944 -0.6659
  861MOL0     H13605  11.240   1.568   9.740 -1.4225 -0.3680 -0.8750
  861MOL0     H13606  11.397   1.294   9.739  0.3228 -0.2814  1.3902
  861MOL0     H13607  11.224   1.257   9.790 -1.2018 -0.9872  2.9521
  861MOL0     H13608  11.326   1.146   9.994  1.7173 -1.0734  0.1045
  861MOL0     H13609  11.483   1.196   9.938 -0.1535  0.1005  0.1437
  861MOL0     H13610  11.320   1.043   9.749 -0.2719  1.2226 -0.4519
  861MOL0     H13611  11.489   1.049   9.747 -2.4524 -4.2002 -2.8721
  861MOL0     H13612  11.315   0.868   9.903 -1.5740  3.3475  2.1170
  861MOL0     H13613  11.475   0.907   9.984 -0.8689 -6.4937  0.2111
  861MOL0     H13614  11.581   0.676   9.612 -2.0431  0.9674 -1.1080
  861MOL0     H13615  11.541   0.442   9.595 -0.7833  0.4770 -0.5595
  861MOL0     H13616  11.448  -0.006   9.782 -0.9363  1.9185 -0.3986
  861MOL0     H13617  11.429  -0.238   9.713 -1.6382  1.0050  1.0132
  861MOL0     H13618  11.292  -0.484   9.467  0.6301 -0.7720  0.4994
  861MOL0     H13619  11.312  -0.382   9.627  2.1513  4.4094  0.1357
  861MOL0     H13620  11.483  -0.554   9.623 -1.1281  2.9428  1.3655
  861MOL0     H13621  11.569  -0.412   9.569 -1.0103  2.4651  0.8768
  861MOL0     H13622  11.542  -0.506   9.325 -1.8804 -0.4457 -1.0981
  861MOL0     H13623  11.445  -0.631   9.385 -0.7794  2.9288 -2.1368
  861MOL0     H13624  11.727  -0.562   9.377 -2.6659  1.4190 -1.1630
  861MOL0     H13625  11.680  -0.644   9.536  0.1514 -0.0333 -0.3995
  861MOL0     H13626  11.591  -0.832   9.401 -3.2547  3.5753  1.9937
  861MOL0     H13627  11.777  -0.793   9.391  1.7236  2.6062 -1.4815
  861MOL0     H13628  11.736  -0.859   9.182 -1.3689 -0.0223 -1.2387
  861MOL0     H13629  11.757  -0.691   9.176  0.7450 -0.4661 -2.2701
  861MOL0     H13630  11.513  -0.657   9.150 -0.7059 -0.3499 -0.5208
  861MOL0     H13631  11.605  -0.723   9.013 -0.0537  3.3639 -0.3315
  861MOL0     H13632  11.445  -0.885   9.220 -0.7340 -2.2740  0.1781
  861MOL0     H13633  11.529  -0.947   9.071  1.4812  1.5791 -0.2513
  861MOL0     H13634  11.338  -0.081   9.308 -4.3645  0.9926 -0.0065
  861MOL0     H13635  11.343   0.147   9.412 -2.8458  1.0720  2.6165
  861MOL0     H13636  11.287   0.432   9.952  0.1664  1.8948  1.4907
  861MOL0     H13637  11.334   0.678   9.964  1.3801  1.5225 -1.4029
  861MOL0     H13638  11.093   1.007   9.819 -1.0580 -1.2565  1.1912
  861MOL0     H13639  11.143   0.756   9.780 -0.3104 -0.5779 -1.1310
  861MOL0     H13640  11.150   0.426   9.368 -3.3525  1.9720 -2.0761
  861MOL0     H13641  11.144   0.200   9.284 -2.0667  0.4221 -1.5971
  861MOL0     H13642  10.888  -0.135   9.530  1.5588 -2.5230  3.1006
  861MOL0     H13643  11.048  -0.128   9.589 -2.6979 -2.5840  2.1237
  861MOL0     H13644  10.963  -0.233   9.313  1.1858 -0.9515 -0.8982
  861MOL0     H13645  11.128  -0.225   9.381 -0.1850  1.1209 -0.4847
  861MOL0     H13646  10.883  -0.357   9.508 -1.6261  1.2230 -1.6642
  861MOL0     H13647  11.062  -0.406   9.541 -0.9042 -2.1407 -1.0549
  861MOL0     H13648  10.893  -0.460   9.300  1.1071  1.6684 -0.7136
  861MOL0     H13649  11.066  -0.509   9.310  1.3886  1.3830  1.8262
  861MOL0     H13650  10.853  -0.807   9.514  2.5479 -2.2543 -2.3706
  861MOL0     H13651  10.908   0.090   9.638 -0.4209  0.6234  0.0469
  861MOL0     H13652  10.900   0.310   9.696  1.5343  0.6339  0.1112
  862MOL0     O13653   0.325   2.883   5.913 -0.0758 -0.6688  0.2562
  862MOL0     C13654   0.258   2.917   6.014 -0.3513  0.1345 -0.2351
  862MOL0     O13655   0.243   3.051   6.062 -0.6113 -0.4494  0.9994
  862MOL0     C13656   0.344   3.139   6.034  0.1509  0.1676 -0.2824
  862MOL0     C13657   0.456   3.143   6.110 -0.2298  0.4289  0.1792
  862MOL0     C13658   0.564   3.222   6.074 -0.5763 -0.3337  0.2497
  862MOL0     C13659   0.559   3.293   5.951 -0.2200  0.0229 -0.2527
  862MOL0     O13660   0.658   3.380   5.932 -0.8580 -0.0918  0.4694
  862MOL0     C13661   0.677   3.428   5.802 -0.2623  0.3316 -0.3637
  862MOL0     C13662   0.779   3.544   5.805 -0.2113 -0.1914 -0.0978
  862MOL0     C13663   0.762   3.640   5.684 -0.6421  0.5196 -1.1617
  862MOL0     C13664   0.840   3.772   5.706  0.5067  0.8345 -0.0627
  862MOL0     C13665   0.828   3.866   5.579 -0.2746 -0.7263 -0.1513
  862MOL0     C13666   0.890   4.007   5.608 -0.3018 -0.4823  0.1088
  862MOL0     C13667   0.924   4.083   5.475  1.0072 -0.0752  0.2043
  862MOL0     C13668   1.009   4.204   5.493 -0.3601 -0.1178  0.3766
  862MOL0     N13669   1.138   4.163   5.552  0.2724 -0.4322  0.0384
  862MOL0     C13670   1.200   4.213   5.658  0.0643 -1.1101  0.2295
  862MOL0     C13671   1.325   4.181   5.642  0.5189 -0.1669  0.2867
  862MOL0     C13672   1.442   4.185   5.742  0.2867  0.1004  0.0829
  862MOL0     C13673   1.492   4.331   5.755  0.1130  0.5346  0.1044
  862MOL0     C13674   1.541   4.392   5.625  0.3073  0.3105  0.7735
  862MOL0     C13675   1.524   4.545   5.616 -0.6338 -1.2414  0.1154
  862MOL0     O13676   1.388   4.589   5.621 -1.1486  0.1158 -0.1530
  862MOL0     C13677   1.312   4.573   5.506  0.0437  0.3228 -1.1083
  862MOL0     C13678   1.182   4.595   5.536  1.4216 -0.0477 -0.4162
  862MOL0     C13679   1.081   4.607   5.440 -0.3368 -0.6199  0.4913
  862MOL0     C13680   1.120   4.620   5.304 -0.8808  0.8585 -0.1251
  862MOL0     C13681   1.018   4.654   5.208 -0.0837 -0.2802 -0.3784
  862MOL0     O13682   0.891   4.640   5.243  0.6954  1.0505 -0.6747
  862MOL0     C13683   0.780   4.664   5.156 -1.4083  0.9167 -0.3160
  862MOL0     C13684   0.779   4.767   5.067 -0.1732 -0.5133  0.3741
  862MOL0     C13685   0.657   4.807   5.011  0.2242  0.7408  0.8607
  862MOL0     C13686   0.535   4.750   5.056 -0.2410  0.3248  0.5794
  862MOL0     O13687   0.410   4.784   5.015 -0.1143  0.1788 -0.7661
  862MOL0     C13688   0.384   4.927   5.022 -0.9083  0.6270 -0.8048
  862MOL0     C13689   0.232   4.960   5.012 -0.6899  0.3270  0.1270
  862MOL0     C13690   0.198   5.089   5.097 -0.0429  0.2833 -0.3037
  862MOL0     C13691   0.048   5.121   5.066 -0.0667  0.1895 -0.9040
  862MOL0     C13692  -0.059   5.012   5.110 -0.0596 -1.3954 -0.2809
  862MOL0     C13693  -0.041   4.948   5.247 -0.0398 -0.1810 -0.4042
  862MOL0     C13694  -0.154   4.865   5.295  0.5081 -0.8923 -0.2800
  862MOL0     C13695  -0.112   4.769   5.410  1.0520  0.6792 -0.2911
  862MOL0    Cl13696  -0.263   4.664   5.438 -0.1829 -0.0941  0.6546
  862MOL0     C13697   0.551   4.643   5.142  1.2700  0.6122 -0.2099
  862MOL0     C13698   0.667   4.599   5.197 -0.2464  0.3822 -0.0710
  862MOL0     O13699   1.058   4.685   5.098  0.5969 -0.1158  0.8027
  862MOL0     C13700   1.252   4.584   5.274 -0.7318  0.3053 -0.5785
  862MOL0     C13701   1.351   4.568   5.372  0.4468  0.3404  1.3592
  862MOL0     N13702   1.341   4.101   5.524  0.3993 -0.3977  0.5064
  862MOL0     N13703   1.220   4.093   5.474 -0.9692 -0.5958 -0.1887
  862MOL0     C13704   0.430   3.289   5.886 -0.4526 -0.2220  0.1885
  862MOL0     C13705   0.327   3.211   5.923 -0.0260  0.7370 -0.5987
  862MOL0     C13706   0.166   2.820   6.068  0.0472  0.3490 -0.3912
  862MOL0     C13707   0.153   2.697   5.999  0.7024  0.4549  0.0861
  862MOL0     C13708   0.071   2.596   6.041 -0.0721 -0.3553 -0.5797
  862MOL0     C13709   0.014   2.596   6.173 -0.2609 -0.4079 -0.0315
  862MOL0     O13710  -0.059   2.481   6.215  0.4813 -0.1615  0.4201
  862MOL0     C13711  -0.166   2.476   6.304  0.2559  0.8172  0.2022
  862MOL0     C13712  -0.281   2.518   6.217  0.3248  0.6665  0.3313
  862MOL0     C13713  -0.309   2.438   6.087 -0.2695  0.0783 -0.9315
  862MOL0     C13714  -0.371   2.306   6.121 -0.1588  0.0268 -1.0873
  862MOL0     C13715  -0.441   2.237   6.008 -0.4779  0.3409 -0.5561
  862MOL0     C13716  -0.479   2.189   5.907  0.0126  0.4797  0.2686
  862MOL0     C13717   0.024   2.722   6.245  0.4028  0.0628  0.5391
  862MOL0     C13718   0.093   2.831   6.196 -0.5470  0.8874 -0.1879
  862MOL0     H13719   0.459   3.085   6.201 -0.6778  3.0425  1.9796
  862MOL0     H13720   0.651   3.248   6.134 -0.5985  0.6254 -0.1084
  862MOL0     H13721   0.583   3.478   5.776  0.9484  0.0816 -6.9409
  862MOL0     H13722   0.700   3.355   5.724 -5.4617  0.3908 -2.4090
  862MOL0     H13723   0.881   3.504   5.807  0.7940  2.1703 -0.7320
  862MOL0     H13724   0.784   3.590   5.904 -0.5539 -0.8135  0.2132
  862MOL0     H13725   0.656   3.668   5.675 -1.6240 -2.6877 -0.7039
  862MOL0     H13726   0.800   3.590   5.595 -0.6217 -0.9388 -0.3626
  862MOL0     H13727   0.800   3.825   5.793  0.0994 -0.7763  0.7509
  862MOL0     H13728   0.945   3.751   5.725  0.5522  1.5474  0.5125
  862MOL0     H13729   0.719   3.875   5.570 -0.3833  0.6244  1.8959
  862MOL0     H13730   0.880   3.820   5.495  1.7301  1.7599 -0.3926
  862MOL0     H13731   0.984   4.003   5.663  0.6756  2.2132 -1.1836
  862MOL0     H13732   0.824   4.074   5.663 -0.8460 -2.5583  2.1467
  862MOL0     H13733   0.979   4.019   5.406  1.2197 -1.3873  1.5270
  862MOL0     H13734   0.826   4.107   5.434  0.0532 -3.3406  0.3249
  862MOL0     H13735   0.971   4.284   5.558  0.0205  0.5399 -0.1844
  862MOL0     H13736   1.036   4.248   5.396  1.8961 -0.3606  0.8259
  862MOL0     H13737   1.157   4.267   5.742 -4.0487 -2.8056 -0.5302
  862MOL0     H13738   1.521   4.114   5.715  0.5806  0.3654  0.2423
  862MOL0     H13739   1.407   4.140   5.836 -0.8776  2.7186  0.9823
  862MOL0     H13740   1.582   4.340   5.816 -0.6225 -0.2328  1.3655
  862MOL0     H13741   1.405   4.379   5.800 -2.0172 -1.4832 -1.5461
  862MOL0     H13742   1.644   4.362   5.605 -0.3650 -0.0984 -2.7530
  862MOL0     H13743   1.489   4.344   5.541  1.1507  0.3247  0.2335
  862MOL0     H13744   1.577   4.592   5.533 -2.9457  0.9374 -0.2483
  862MOL0     H13745   1.578   4.584   5.703  1.8560 -0.9101 -1.4652
  862MOL0     H13746   1.143   4.602   5.637 -2.1816  2.2172 -1.7623
  862MOL0     H13747   0.975   4.621   5.459 -0.7790 -1.7286 -1.0282
  862MOL0     H13748   0.877   4.806   5.042  0.6321 -1.4614  1.9069
  862MOL0     H13749   0.651   4.882   4.933  1.2479 -0.3394 -0.3072
  862MOL0     H13750   0.443   4.985   4.951  0.1858  1.4342  0.6984
  862MOL0     H13751   0.419   4.962   5.120 -3.8760  0.4408  0.4265
  862MOL0     H13752   0.172   4.874   5.043  1.3643 -1.4173 -0.5398
  862MOL0     H13753   0.210   4.969   4.905  0.5663 -0.3578 -0.2076
  862MOL0     H13754   0.256   5.172   5.057 -0.1646  0.2819 -0.4857
  862MOL0     H13755   0.229   5.076   5.201  1.6596 -1.0972 -0.9384
  862MOL0     H13756   0.031   5.211   5.127 -1.9669 -0.1153 -0.9172
  862MOL0     H13757   0.032   5.138   4.960  3.2745 -1.8761 -1.8818
  862MOL0     H13758  -0.062   4.928   5.041 -0.6146 -1.3294 -0.3429
  862MOL0     H13759  -0.157   5.061   5.111  0.6608  0.1336  0.7736
  862MOL0     H13760  -0.021   5.037   5.309  3.9318 -0.9426 -0.2842
  862MOL0     H13761   0.051   4.889   5.237  2.0393  3.0512 -2.2335
  862MOL0     H13762  -0.238   4.930   5.322  2.2512  1.1373  0.5706
  862MOL0     H13763  -0.195   4.798   5.219 -0.4377 -1.0391  0.3304
  862MOL0     H13764  -0.089   4.822   5.503  0.0637  1.4528 -0.4682
  862MOL0     H13765  -0.037   4.698   5.374  0.6394  1.5710 -3.1149
  862MOL0     H13766   0.472   4.579   5.181  1.2545  0.0280 -1.1714
  862MOL0     H13767   0.668   4.519   5.271  2.0583  0.2330 -0.1984
  862MOL0     H13768   1.299   4.557   5.180  3.4549 -2.2926  1.9073
  862MOL0     H13769   1.450   4.529   5.351  0.4690  0.5492  1.0789
  862MOL0     H13770   0.408   3.360   5.807  2.7530  1.9480  1.0483
  862MOL0     H13771   0.232   3.207   5.870  0.2520 -0.7790 -1.0287
  862MOL0     H13772   0.187   2.670   5.899 -1.9330 -4.1847  0.1683
  862MOL0     H13773   0.034   2.514   5.979  0.3272  0.0398 -1.3506
  862MOL0     H13774  -0.147   2.532   6.396  3.2811  2.2698 -1.1822
  862MOL0     H13775  -0.188   2.374   6.337  0.2097 -0.7019 -3.9821
  862MOL0     H13776  -0.379   2.520   6.266 -0.5747 -0.3038 -1.3350
  862MOL0     H13777  -0.274   2.624   6.191  0.1575  0.2644 -1.4225
  862MOL0     H13778  -0.210   2.433   6.040  1.3648 -1.6165  2.3978
  862MOL0     H13779  -0.385   2.499   6.035 -1.4503  0.8558  1.5639
  862MOL0     H13780  -0.295   2.240   6.163 -1.8099 -0.6073  1.1255
  862MOL0     H13781  -0.442   2.324   6.202  2.1853  0.6285  0.9541
  862MOL0     H13782  -0.521   2.140   5.822  4.4419  1.0662 -2.5609
  862MOL0     H13783  -0.031   2.725   6.339 -2.4674  0.9159 -1.0274
  862MOL0     H13784   0.093   2.922   6.256 -0.3880  1.0997 -0.5119
  863MOL0     O13785  11.311   3.907   8.845 -0.0455 -0.3560 -0.5730
  863MOL0     C13786  11.374   4.005   8.884  0.2612 -0.2434  1.6879
  863MOL0     O13787  11.326   4.090   8.978 -0.2321  0.9115 -0.7120
  863MOL0     C13788  11.200   4.068   9.018 -0.3217 -0.5428  0.4670
  863MOL0     C13789  11.107   4.163   8.969  0.0436  0.3078 -0.5674
  863MOL0     C13790  10.973   4.145   8.997  0.4890  0.3934  0.7520
  863MOL0     C13791  10.932   4.042   9.082 -0.1416 -0.5322  0.4777
  863MOL0     O13792  10.802   4.043   9.111 -1.3715 -0.0983  0.5452
  863MOL0     C13793  10.740   3.949   9.194  0.0917  0.1870  0.7474
  863MOL0     C13794  10.585   3.950   9.154  0.9121  1.2240  0.4848
  863MOL0     C13795  10.498   3.890   9.265 -0.3589  0.4227 -0.5507
  863MOL0     C13796  10.349   3.887   9.226 -0.1189  0.1875 -0.3781
  863MOL0     C13797  10.260   3.857   9.345 -0.5907  0.4637 -0.2754
  863MOL0     C13798  10.298   3.725   9.416 -0.2915 -0.1666 -0.9552
  863MOL0     C13799  10.181   3.660   9.500  0.3960 -0.4471 -0.0933
  863MOL0     C13800  10.054   3.619   9.418 -0.4444 -0.1841  1.5914
  863MOL0     N13801  10.093   3.539   9.302  0.7459  1.1698  0.0849
  863MOL0     C13802  10.157   3.417   9.323  0.6170  0.3559 -0.1205
  863MOL0     C13803  10.229   3.398   9.206 -0.2747  0.2218  0.0329
  863MOL0     C13804  10.327   3.291   9.178  0.5008 -0.0153 -0.7334
  863MOL0     C13805  10.466   3.337   9.234 -0.1048 -0.3262 -0.1070
  863MOL0     C13806  10.596   3.257   9.211 -0.9240 -0.0605  0.5182
  863MOL0     C13807  10.596   3.194   9.072  0.7072  0.0615 -0.1182
  863MOL0     O13808  10.580   3.289   8.971  0.2090  0.1136 -0.3668
  863MOL0     C13809  10.694   3.323   8.911 -0.0385 -0.8599  0.4873
  863MOL0     C13810  10.747   3.251   8.802  0.4638 -0.1921 -0.6454
  863MOL0     C13811  10.859   3.289   8.728 -0.1581  0.7033  1.1900
  863MOL0     C13812  10.928   3.400   8.765  0.1295 -0.4982 -0.3036
  863MOL0     C13813  11.053   3.435   8.695  0.0963 -0.1907 -0.1846
  863MOL0     O13814  11.141   3.516   8.753  0.5952  0.4121 -0.1757
  863MOL0     C13815  11.257   3.557   8.689  0.2285  0.6326 -0.3136
  863MOL0     C13816  11.275   3.618   8.557  0.3961  0.3016  0.2092
  863MOL0     C13817  11.405   3.638   8.504 -0.2784  0.2131  0.2297
  863MOL0     C13818  11.516   3.598   8.575  0.2506 -0.2194  0.5098
  863MOL0     O13819  11.641   3.632   8.522  0.4125  0.5530 -0.2541
  863MOL0     C13820  11.739   3.538   8.538  1.7013  1.1465 -0.3003
  863MOL0     C13821  11.823   3.537   8.419 -0.4793  0.1101 -0.9605
  863MOL0     C13822  11.889   3.671   8.392  0.0495 -0.4034  0.4467
  863MOL0     C13823  12.014   3.649   8.309 -0.0258  0.0983  0.9401
  863MOL0     C13824  12.104   3.771   8.321  0.1857  0.5906 -0.6695
  863MOL0     C13825  12.096   3.865   8.200  0.2286 -0.4192  0.2893
  863MOL0     C13826  12.159   3.992   8.239 -0.1613 -0.3216 -0.5550
  863MOL0     C13827  12.241   4.073   8.140 -0.3190 -0.5560 -1.0536
  863MOL0    Cl13828  12.166   4.118   7.988  0.1099 -0.3535 -0.1182
  863MOL0     C13829  11.508   3.556   8.711 -0.5862  0.8972 -0.7814
  863MOL0     C13830  11.377   3.532   8.770  0.5236  0.1276  0.1573
  863MOL0     O13831  11.058   3.404   8.580  0.5605  0.0544 -0.3922
  863MOL0     C13832  10.883   3.473   8.878 -0.7659 -0.2928  0.8770
  863MOL0     C13833  10.759   3.443   8.938  0.0691  0.0114 -0.4869
  863MOL0     N13834  10.212   3.510   9.125  0.3662 -0.5771 -0.1465
  863MOL0     N13835  10.123   3.596   9.183  0.1504 -0.5023  0.1020
  863MOL0     C13836  11.029   3.961   9.149 -0.6436  1.0891  0.0731
  863MOL0     C13837  11.163   3.981   9.118 -0.7046 -0.9413 -0.2720
  863MOL0     C13838  11.504   4.038   8.826  0.5179 -0.3269 -0.1265
  863MOL0     C13839  11.578   4.146   8.873 -0.2099 -0.4419  0.1245
  863MOL0     C13840  11.692   4.192   8.808  0.3376  0.4638  0.2119
  863MOL0     C13841  11.743   4.119   8.706 -0.2943 -0.2475  0.4550
  863MOL0     O13842  11.854   4.145   8.635  0.0146  0.0702  0.3594
  863MOL0     C13843  11.945   4.257   8.659  0.2998  0.1969 -0.5898
  863MOL0     C13844  11.880   4.387   8.610 -0.4164 -0.1910  0.1224
  863MOL0     C13845  11.978   4.503   8.579  0.2272  0.5839 -0.0067
  863MOL0     C13846  12.042   4.510   8.439 -0.7485 -0.1999  0.4559
  863MOL0     C13847  12.135   4.404   8.416  0.3805 -0.8916  0.6260
  863MOL0     C13848  12.226   4.320   8.411 -0.4820 -0.3564  0.1393
  863MOL0     C13849  11.675   4.009   8.666  0.1415 -0.3990  0.2071
  863MOL0     C13850  11.550   3.976   8.711 -0.0320  0.6870  0.5793
  863MOL0     H13851  11.141   4.240   8.899  3.9660  0.8426  1.6345
  863MOL0     H13852  10.908   4.226   8.964  2.0847  0.9299 -1.2634
  863MOL0     H13853  10.757   3.970   9.300  0.6607 -3.5186  1.5514
  863MOL0     H13854  10.768   3.847   9.167 -0.0917  0.5923 -1.0413
  863MOL0     H13855  10.581   3.893   9.061  1.1913 -1.0121  1.7589
  863MOL0     H13856  10.550   4.051   9.130 -0.6112  0.8122  0.8373
  863MOL0     H13857  10.505   3.947   9.358 -1.0828  0.6879 -0.6576
  863MOL0     H13858  10.539   3.789   9.274 -0.0046  0.4887 -1.2988
  863MOL0     H13859  10.321   3.988   9.194 -2.1296  2.1904  6.0844
  863MOL0     H13860  10.331   3.811   9.150 -1.3245 -2.1276  2.0421
  863MOL0     H13861  10.158   3.852   9.305  0.0537 -0.2755 -1.9300
  863MOL0     H13862  10.260   3.942   9.414 -0.5695  1.4365 -1.4204
  863MOL0     H13863  10.390   3.741   9.472  0.1197  1.9646 -2.1278
  863MOL0     H13864  10.324   3.650   9.341  0.4309 -0.9731  0.0710
  863MOL0     H13865  10.235   3.569   9.526  1.1781  0.4350  1.4850
  863MOL0     H13866  10.156   3.726   9.583 -0.0186  2.8586 -2.6042
  863MOL0     H13867   9.999   3.711   9.393 -0.6596 -0.2748  1.7264
  863MOL0     H13868   9.994   3.554   9.482 -2.1752  1.0523  1.3145
  863MOL0     H13869  10.145   3.351   9.408 -1.3885  1.0904  0.2252
  863MOL0     H13870  10.340   3.267   9.073  2.4680 -2.2567 -0.0598
  863MOL0     H13871  10.292   3.205   9.236  1.1334  1.6982  2.4108
  863MOL0     H13872  10.462   3.337   9.343  3.1102 -1.5644  0.1343
  863MOL0     H13873  10.487   3.440   9.201  0.6667 -0.6852 -0.7666
  863MOL0     H13874  10.683   3.320   9.232  2.8814 -3.8126 -2.1226
  863MOL0     H13875  10.600   3.185   9.293  1.5407  1.0154  1.4581
  863MOL0     H13876  10.520   3.116   9.072 -0.9856  1.5710  2.0892
  863MOL0     H13877  10.686   3.132   9.073 -0.8321 -2.3874  2.5583
  863MOL0     H13878  10.677   3.174   8.769  0.3838 -0.3196 -0.1937
  863MOL0     H13879  10.877   3.248   8.629 -3.6566  1.8437 -0.0923
  863MOL0     H13880  11.192   3.671   8.514  1.7300  0.6240 -2.1276
  863MOL0     H13881  11.408   3.679   8.403 -1.0725  3.1922  1.3148
  863MOL0     H13882  11.706   3.435   8.552 -0.2804  1.2276 -3.5316
  863MOL0     H13883  11.801   3.553   8.627  0.0200  1.2481  0.8792
  863MOL0     H13884  11.758   3.510   8.335 -2.0337  2.4864 -0.6385
  863MOL0     H13885  11.893   3.454   8.429 -2.6714 -2.0779 -2.6552
  863MOL0     H13886  11.916   3.715   8.488 -1.8702  0.0416  0.8070
  863MOL0     H13887  11.825   3.740   8.336 -2.3746 -2.9445 -0.1390
  863MOL0     H13888  12.066   3.563   8.353 -1.9426 -1.4475  0.2866
  863MOL0     H13889  11.984   3.626   8.207  1.8218 -1.9410  0.7902
  863MOL0     H13890  12.209   3.742   8.331  0.8540  2.6488 -1.2413
  863MOL0     H13891  12.089   3.828   8.414  0.0432 -0.1383 -0.2427
  863MOL0     H13892  11.988   3.879   8.188  0.1270 -1.5847 -0.3099
  863MOL0     H13893  12.133   3.814   8.111 -0.2992 -1.9334  0.9076
  863MOL0     H13894  12.086   4.051   8.295 -1.2970 -0.9644 -1.3238
  863MOL0     H13895  12.236   3.960   8.309 -1.7794 -0.0903  1.4152
  863MOL0     H13896  12.330   4.015   8.113  0.2796  0.2008 -0.7412
  863MOL0     H13897  12.271   4.169   8.183 -3.0291  1.4965 -3.2694
  863MOL0     H13898  11.601   3.535   8.765 -0.5720  0.9594 -0.7822
  863MOL0     H13899  11.343   3.494   8.865 -3.1734  2.1471 -0.1602
  863MOL0     H13900  10.923   3.569   8.909 -1.9828 -0.5426  3.4695
  863MOL0     H13901  10.719   3.488   9.028  2.0134  0.6678  0.1022
  863MOL0     H13902  10.995   3.899   9.231 -4.2361  5.1991  2.0705
  863MOL0     H13903  11.241   3.913   9.151  1.9523  0.5936 -2.9342
  863MOL0     H13904  11.551   4.201   8.962  0.9127  1.7571 -0.7766
  863MOL0     H13905  11.741   4.283   8.841  0.4788  0.3596  0.2914
  863MOL0     H13906  12.023   4.245   8.584 -0.8798  2.3868 -2.2647
  863MOL0     H13907  11.984   4.257   8.762 -0.0273 -0.4166 -0.4613
  863MOL0     H13908  11.822   4.373   8.518 -0.4360  5.0321 -0.9703
  863MOL0     H13909  11.810   4.431   8.682  0.9221 -0.3623  1.5858
  863MOL0     H13910  12.060   4.499   8.652  0.6203  1.1930 -0.4093
  863MOL0     H13911  11.945   4.604   8.604  1.4139  1.2771 -1.1525
  863MOL0     H13912  11.956   4.506   8.372 -0.3398 -2.4497 -0.0010
  863MOL0     H13913  12.089   4.607   8.426 -1.9369  0.1308 -1.9460
  863MOL0     H13914  12.294   4.239   8.392  2.1451  2.0262 -1.3030
  863MOL0     H13915  11.724   3.959   8.582  1.9846  3.8006 -1.4762
  863MOL0     H13916  11.503   3.889   8.668 -1.5514  1.9328 -0.3590
  864MOL0     O13917   0.662   4.593   4.424 -0.0100  0.1246  1.4267
  864MOL0     C13918   0.782   4.628   4.431  0.5577 -0.4011  0.5155
  864MOL0     O13919   0.830   4.753   4.423  0.6425 -0.4847  0.4587
  864MOL0     C13920   0.733   4.851   4.435 -0.2069 -0.2476  0.4123
  864MOL0     C13921   0.696   4.923   4.318 -0.2430 -0.2440 -0.0667
  864MOL0     C13922   0.615   5.034   4.331  0.1044  0.1836  0.0103
  864MOL0     C13923   0.554   5.059   4.448 -0.1807  0.3281  0.0500
  864MOL0     O13924   0.455   5.158   4.443  0.1192  0.0279 -0.0659
  864MOL0     C13925   0.451   5.251   4.548 -0.1397  0.7031 -0.5224
  864MOL0     C13926   0.344   5.224   4.659  0.5368  0.4837 -0.3167
  864MOL0     C13927   0.201   5.220   4.592  0.3011  0.6941  1.3688
  864MOL0     C13928   0.099   5.239   4.703 -0.2233  0.5068 -0.7312
  864MOL0     C13929  -0.046   5.268   4.644 -0.3019 -0.4599 -0.0120
  864MOL0     C13930  -0.136   5.366   4.725  0.2520 -0.8646  0.3240
  864MOL0     C13931  -0.098   5.515   4.722 -0.0030 -0.6482 -0.2592
  864MOL0     C13932  -0.166   5.565   4.601 -0.6696 -0.2624  0.2242
  864MOL0     N13933  -0.110   5.684   4.550  0.1249  1.0377  0.1301
  864MOL0     C13934  -0.100   5.816   4.598  0.4148 -0.3646 -0.9476
  864MOL0     C13935  -0.061   5.893   4.488 -0.6446  0.7328  0.1691
  864MOL0     C13936  -0.033   6.043   4.492  0.2527  0.7685 -0.7346
  864MOL0     C13937   0.111   6.083   4.469 -0.2836  0.3068  0.5666
  864MOL0     C13938   0.167   6.211   4.539 -0.3957 -0.2158  0.2717
  864MOL0     C13939   0.077   6.333   4.517 -0.3490  0.0620 -0.4848
  864MOL0     O13940  -0.005   6.345   4.632 -0.3506  0.7111 -0.1285
  864MOL0     C13941  -0.014   6.467   4.691 -0.6868  0.2880 -0.7492
  864MOL0     C13942  -0.018   6.591   4.629 -0.0433 -0.3890  0.6877
  864MOL0     C13943  -0.045   6.718   4.692  0.0229  0.8050  0.1966
  864MOL0     C13944  -0.075   6.713   4.826  0.0442  0.3249 -0.4980
  864MOL0     C13945  -0.105   6.842   4.895  0.4313 -0.0666  0.3783
  864MOL0     O13946  -0.109   6.962   4.821  0.3734  0.3503 -0.7988
  864MOL0     C13947  -0.154   7.066   4.893 -0.3983  0.6514 -0.0710
  864MOL0     C13948  -0.287   7.072   4.925 -0.9451  0.4624 -0.3909
  864MOL0     C13949  -0.324   7.193   4.983 -1.0551 -0.4169 -0.1727
  864MOL0     C13950  -0.235   7.300   5.018  0.6086  1.0090  0.1183
  864MOL0     O13951  -0.283   7.413   5.075 -0.1627  0.3781  0.3487
  864MOL0     C13952  -0.297   7.528   4.992 -0.3908  0.0201 -0.7238
  864MOL0     C13953  -0.291   7.649   5.079  0.4117  0.2387  0.0551
  864MOL0     C13954  -0.351   7.759   4.988  0.3637 -0.3834 -0.0472
  864MOL0     C13955  -0.266   7.880   5.022 -0.0343  0.3616  0.4755
  864MOL0     C13956  -0.310   7.997   4.938  0.1253  0.1868  0.0343
  864MOL0     C13957  -0.447   8.048   4.947 -0.4534  0.4804 -0.1610
  864MOL0     C13958  -0.472   8.152   4.841  0.0658  0.6201  0.4051
  864MOL0     C13959  -0.590   8.231   4.865  0.0388  0.1949 -0.7554
  864MOL0    Cl13960  -0.596   8.358   4.747  0.2088 -0.3604 -0.1307
  864MOL0     C13961  -0.106   7.291   4.979 -0.4556 -0.4492 -0.1818
  864MOL0     C13962  -0.059   7.168   4.921  0.0003  0.1455 -0.3771
  864MOL0     O13963  -0.093   6.838   5.017  0.4109  0.0695 -0.1393
  864MOL0     C13964  -0.062   6.595   4.891 -0.1529  0.0527  0.4775
  864MOL0     C13965  -0.031   6.471   4.831 -0.2828 -0.9327  0.3161
  864MOL0     N13966  -0.050   5.806   4.379  0.6515  0.4427  0.1247
  864MOL0     N13967  -0.092   5.691   4.411  1.0525  0.1315  0.5701
  864MOL0     C13968   0.577   4.987   4.560 -0.5717  0.4422 -0.5631
  864MOL0     C13969   0.673   4.886   4.557  0.0423 -0.4454 -0.7878
  864MOL0     C13970   0.896   4.533   4.434 -1.6221 -0.8173 -0.1951
  864MOL0     C13971   1.030   4.562   4.478  0.4674 -0.1324  0.5696
  864MOL0     C13972   1.131   4.465   4.478  0.3828 -0.0670 -0.1508
  864MOL0     C13973   1.100   4.333   4.445 -0.6139  0.4471 -0.3571
  864MOL0     O13974   1.208   4.244   4.410  0.4484 -0.7984 -0.3388
  864MOL0     C13975   1.184   4.112   4.364 -0.1277 -0.3569  0.8027
  864MOL0     C13976   1.309   4.026   4.360 -0.4683 -0.2822  0.2369
  864MOL0     C13977   1.377   4.021   4.505 -0.4948  0.6660 -0.7447
  864MOL0     C13978   1.534   4.009   4.495 -0.2310 -0.4525 -0.6298
  864MOL0     C13979   1.555   3.882   4.435  0.0975 -0.6180 -0.0721
  864MOL0     C13980   1.538   3.766   4.387  0.1556 -0.9240  0.4122
  864MOL0     C13981   0.969   4.302   4.421 -0.0560 -0.3415  0.1023
  864MOL0     C13982   0.874   4.401   4.424  0.3678  1.6364  0.2115
  864MOL0     H13983   0.739   4.895   4.223  2.8671  0.1313  1.1006
  864MOL0     H13984   0.610   5.098   4.244 -1.1171  2.8261  1.9019
  864MOL0     H13985   0.440   5.346   4.494  2.9676  2.0446  0.9504
  864MOL0     H13986   0.550   5.266   4.591 -0.5383  2.1953 -0.0548
  864MOL0     H13987   0.357   5.305   4.731  2.1609  0.3576 -0.4368
  864MOL0     H13988   0.354   5.130   4.714 -1.1014 -0.1051 -0.9507
  864MOL0     H13989   0.193   5.122   4.545  1.4544 -0.4734  3.4793
  864MOL0     H13990   0.204   5.303   4.521  1.5538 -0.8513 -0.4863
  864MOL0     H13991   0.101   5.147   4.761  1.2851  0.5941 -0.5864
  864MOL0     H13992   0.139   5.315   4.772  4.0339 -1.2635 -0.9189
  864MOL0     H13993  -0.094   5.170   4.633  1.2602 -1.1119 -1.6137
  864MOL0     H13994  -0.024   5.317   4.549  0.9692 -0.0230  0.4773
  864MOL0     H13995  -0.141   5.332   4.829 -0.9882 -1.3671  0.1252
  864MOL0     H13996  -0.240   5.348   4.695  0.5447 -0.0753 -1.2026
  864MOL0     H13997  -0.130   5.573   4.808  0.3136  2.4815 -2.1103
  864MOL0     H13998   0.011   5.510   4.707 -0.0386 -2.9043 -0.2128
  864MOL0     H13999  -0.272   5.576   4.625 -1.1985 -1.7378 -1.2895
  864MOL0     H14000  -0.161   5.492   4.520  0.4060 -0.4282  0.4174
  864MOL0     H14001  -0.128   5.849   4.697 -0.5946  0.5064 -1.5016
  864MOL0     H14002  -0.052   6.053   4.599  1.5650 -1.8690 -0.1773
  864MOL0     H14003  -0.112   6.093   4.434 -3.7066 -1.5723  2.1380
  864MOL0     H14004   0.129   6.082   4.361 -2.0287  1.8218  0.2147
  864MOL0     H14005   0.164   6.000   4.517  0.9899  1.2388  0.8443
  864MOL0     H14006   0.169   6.190   4.647 -1.8528  0.7053  0.5100
  864MOL0     H14007   0.262   6.235   4.489 -0.9089  1.0877 -0.1263
  864MOL0     H14008   0.013   6.328   4.428 -0.6447 -1.4200 -0.2016
  864MOL0     H14009   0.146   6.418   4.523  2.2882 -2.0650  2.1451
  864MOL0     H14010   0.026   6.602   4.530  0.6668 -2.3746  0.7403
  864MOL0     H14011  -0.039   6.812   4.638  3.9154  0.9961  0.6729
  864MOL0     H14012  -0.363   7.001   4.893 -0.1467 -0.9689  0.7864
  864MOL0     H14013  -0.431   7.212   4.989 -1.2195 -0.5458 -2.1201
  864MOL0     H14014  -0.395   7.515   4.945 -1.9447  0.8821  2.0579
  864MOL0     H14015  -0.216   7.538   4.919 -1.2650  2.1004 -1.4905
  864MOL0     H14016  -0.188   7.666   5.112  0.7522  2.0786 -1.7643
  864MOL0     H14017  -0.355   7.633   5.166  0.5370  2.7731  0.6753
  864MOL0     H14018  -0.455   7.782   5.010  1.3011  2.0792  2.4463
  864MOL0     H14019  -0.339   7.737   4.881  0.0191  0.4435 -0.2661
  864MOL0     H14020  -0.276   7.914   5.126 -1.6898  0.1628  0.4157
  864MOL0     H14021  -0.160   7.864   5.004 -0.5133  0.5618 -3.3103
  864MOL0     H14022  -0.302   7.963   4.834  1.6249 -0.2606  0.2754
  864MOL0     H14023  -0.233   8.073   4.951  1.0436 -0.7689  0.2905
  864MOL0     H14024  -0.449   8.090   5.047  1.3297  1.5173 -0.5128
  864MOL0     H14025  -0.519   7.965   4.946  1.8005 -1.5995 -0.0993
  864MOL0     H14026  -0.388   8.220   4.857  0.6448 -0.1807  0.9007
  864MOL0     H14027  -0.480   8.102   4.744 -1.9983  0.4473  0.6237
  864MOL0     H14028  -0.586   8.259   4.971  0.8081 -0.5248 -0.5935
  864MOL0     H14029  -0.687   8.181   4.859 -0.2063  0.2228  1.8603
  864MOL0     H14030  -0.043   7.379   4.981  0.8429 -1.3647  0.5564
  864MOL0     H14031   0.043   7.170   4.883  1.5326  0.7271  3.3535
  864MOL0     H14032  -0.073   6.599   4.999  1.9972  4.0234  0.7331
  864MOL0     H14033  -0.020   6.382   4.892 -2.3409 -1.1771  0.3775
  864MOL0     H14034   0.515   5.009   4.647 -0.2758  0.8887 -0.4605
  864MOL0     H14035   0.692   4.831   4.648 -1.4934 -0.0369 -0.1984
  864MOL0     H14036   1.060   4.663   4.505 -0.9559  1.1016 -2.0486
  864MOL0     H14037   1.224   4.499   4.521  0.7640  1.4486 -2.0453
  864MOL0     H14038   1.139   4.118   4.265  0.5493  0.6307  0.5406
  864MOL0     H14039   1.119   4.063   4.438  1.3012 -2.6117  0.6648
  864MOL0     H14040   1.286   3.922   4.332 -0.6499  0.0948 -1.0542
  864MOL0     H14041   1.372   4.081   4.290 -1.2323  1.9466  1.2187
  864MOL0     H14042   1.323   3.943   4.561 -0.5072  3.9585  4.4990
  864MOL0     H14043   1.354   4.108   4.566 -0.6353  0.1285 -0.0088
  864MOL0     H14044   1.586   4.088   4.441  0.4171 -0.6851 -0.3579
  864MOL0     H14045   1.577   4.019   4.595  1.0127  0.4719 -1.2325
  864MOL0     H14046   1.522   3.667   4.350  1.4611 -0.6720 -0.9404
  864MOL0     H14047   0.938   4.200   4.405 -2.5550 -0.0763  2.4802
  864MOL0     H14048   0.772   4.386   4.391 -0.1196  3.2306  0.8987
  865MOL0     O14049   0.363   7.385   4.799  0.9733  0.3191 -0.5114
  865MOL0     C14050   0.317   7.426   4.908  0.9489  0.9599 -0.0345
  865MOL0     O14051   0.287   7.354   5.022  0.4861  0.7153 -0.4782
  865MOL0     C14052   0.334   7.225   5.026 -1.0029  0.0322 -0.3476
  865MOL0     C14053   0.451   7.179   4.971 -1.4919  0.1527 -0.2699
  865MOL0     C14054   0.499   7.051   4.965 -0.6547  0.5388  0.3173
  865MOL0     C14055   0.429   6.950   5.030 -0.0826  0.1853  0.7327
  865MOL0     O14056   0.453   6.819   5.002  0.6976  0.4711 -0.4198
  865MOL0     C14057   0.526   6.754   5.108  0.6714 -0.3303  0.6133
  865MOL0     C14058   0.671   6.801   5.127  0.0600 -0.1973  0.2964
  865MOL0     C14059   0.751   6.686   5.182  0.2988  0.9802  0.2892
  865MOL0     C14060   0.896   6.739   5.189 -0.0017 -0.1839 -0.5246
  865MOL0     C14061   0.989   6.624   5.221 -0.4696 -0.2366  0.8662
  865MOL0     C14062   0.949   6.569   5.363  0.3546  0.5295  1.0531
  865MOL0     C14063   1.037   6.444   5.393  0.5938 -0.3524 -0.4886
  865MOL0     C14064   1.022   6.391   5.542 -0.7017 -0.0972  0.7666
  865MOL0     N14065   1.090   6.476   5.642  0.8792  0.2607 -0.0296
  865MOL0     C14066   1.187   6.580   5.619  0.7099 -0.1034  0.2752
  865MOL0     C14067   1.211   6.638   5.736 -0.3266 -1.2538  0.2497
  865MOL0     C14068   1.303   6.767   5.751 -0.2899 -0.1648 -0.0789
  865MOL0     C14069   1.228   6.895   5.701  0.6611 -0.4470 -0.7720
  865MOL0     C14070   1.122   6.952   5.804 -0.1341 -0.4625  1.5138
  865MOL0     C14071   1.091   6.873   5.933  0.4935  0.1202  0.7136
  865MOL0     O14072   1.018   6.948   6.032 -0.2763 -0.2623  0.2475
  865MOL0     C14073   1.090   7.032   6.114 -0.6548  0.9290 -0.4391
  865MOL0     C14074   1.008   7.131   6.161  0.9174 -0.1326 -0.3498
  865MOL0     C14075   1.058   7.223   6.261 -0.9688 -0.5419  0.8434
  865MOL0     C14076   1.196   7.205   6.306  0.6568 -0.6773 -0.1965
  865MOL0     C14077   1.233   7.297   6.419 -0.3436 -0.0035  0.2273
  865MOL0     O14078   1.340   7.251   6.496  0.5310 -1.3007 -0.8852
  865MOL0     C14079   1.390   7.333   6.596  0.7169 -0.6485 -0.1159
  865MOL0     C14080   1.349   7.315   6.726 -0.4642  0.0733  0.1247
  865MOL0     C14081   1.412   7.378   6.832 -0.4932  0.3538  0.1218
  865MOL0     C14082   1.515   7.469   6.818 -0.2383 -1.1681  0.2638
  865MOL0     O14083   1.580   7.530   6.925 -0.0739  0.7249  0.0029
  865MOL0     C14084   1.519   7.548   7.056 -0.0471  0.7301  0.6349
  865MOL0     C14085   1.608   7.637   7.139  0.2504 -0.0882 -0.6032
  865MOL0     C14086   1.628   7.773   7.077 -0.4558  0.1799  0.3189
  865MOL0     C14087   1.656   7.871   7.182 -0.5495  0.0582 -0.5799
  865MOL0     C14088   1.758   7.980   7.141  0.3758  0.4970  0.5479
  865MOL0     C14089   1.749   8.106   7.235  0.2488  0.1272  0.0203
  865MOL0     C14090   1.825   8.220   7.157 -1.1889 -0.3428 -0.6777
  865MOL0     C14091   1.973   8.213   7.178  0.3314  0.5976 -0.5757
  865MOL0    Cl14092   2.045   8.366   7.132  0.2685  0.2446  0.0839
  865MOL0     C14093   1.547   7.501   6.685 -0.2084 -0.5543  0.3417
  865MOL0     C14094   1.498   7.425   6.579  1.3654 -0.5871  0.0629
  865MOL0     O14095   1.174   7.403   6.426 -0.0730 -0.1452  0.7771
  865MOL0     C14096   1.284   7.107   6.254 -0.6811 -0.4530  0.5010
  865MOL0     C14097   1.229   7.023   6.153  0.0096  0.3683 -0.5709
  865MOL0     N14098   1.142   6.574   5.832  0.1507 -0.9421 -0.0778
  865MOL0     N14099   1.075   6.472   5.779 -0.7011 -0.4004 -0.0265
  865MOL0     C14100   0.309   6.992   5.094  1.1569  0.7058 -1.0645
  865MOL0     C14101   0.270   7.127   5.095  0.7630  0.2254 -0.0929
  865MOL0     C14102   0.258   7.559   4.904 -0.9542  0.0047  0.1525
  865MOL0     C14103   0.248   7.621   4.777 -0.0924 -0.2498  0.4597
  865MOL0     C14104   0.176   7.742   4.755 -0.3581  0.1329 -0.0719
  865MOL0     C14105   0.131   7.814   4.869 -0.3810  0.1432 -0.5245
  865MOL0     O14106   0.074   7.937   4.854  0.0023 -0.7069 -0.8942
  865MOL0     C14107   0.159   8.047   4.816 -0.3013  0.2795 -0.6712
  865MOL0     C14108   0.119   8.102   4.679 -0.3263 -0.1583 -0.2074
  865MOL0     C14109  -0.013   8.173   4.691  1.2663  0.0587 -0.0657
  865MOL0     C14110  -0.065   8.201   4.548 -0.2673  0.5714  0.7933
  865MOL0     C14111  -0.178   8.277   4.558  0.2689 -0.4367  0.8418
  865MOL0     C14112  -0.275   8.349   4.584  0.2468  0.4412  0.3896
  865MOL0     C14113   0.149   7.757   4.990  0.4174 -0.4365 -0.8401
  865MOL0     C14114   0.210   7.639   5.014  0.7746  0.5815  0.0762
  865MOL0     H14115   0.520   7.251   4.929  0.1375 -0.9731  0.3928
  865MOL0     H14116   0.584   7.036   4.899 -1.1960  1.5048 -0.6439
  865MOL0     H14117   0.516   6.646   5.094  0.5073 -0.1400 -0.9288
  865MOL0     H14118   0.485   6.773   5.207 -1.9273  0.3914 -0.4994
  865MOL0     H14119   0.688   6.886   5.194  2.7377 -0.9294  0.6511
  865MOL0     H14120   0.710   6.828   5.029 -3.5468 -0.4260 -1.3797
  865MOL0     H14121   0.749   6.605   5.108 -1.7693 -0.1851  1.5169
  865MOL0     H14122   0.706   6.641   5.270  0.5091 -1.0144 -0.5674
  865MOL0     H14123   0.928   6.785   5.094  4.9902 -0.8079  0.5944
  865MOL0     H14124   0.902   6.818   5.265 -0.1700  1.1196 -1.8064
  865MOL0     H14125   1.093   6.658   5.230  0.1040 -0.6521 -2.7614
  865MOL0     H14126   0.986   6.549   5.141  3.1945  0.9995 -0.6593
  865MOL0     H14127   0.849   6.524   5.364  1.7409 -2.8702  0.7922
  865MOL0     H14128   0.963   6.644   5.440 -1.8572 -0.0526  2.1007
  865MOL0     H14129   1.013   6.358   5.329 -0.9343 -2.0236  2.1647
  865MOL0     H14130   1.139   6.480   5.374  0.9762 -0.6813  0.8619
  865MOL0     H14131   1.069   6.292   5.545 -1.4339 -0.5118 -0.6664
  865MOL0     H14132   0.914   6.381   5.560 -0.6351  0.2809  1.3989
  865MOL0     H14133   1.232   6.613   5.526  2.3660  4.7172  2.4575
  865MOL0     H14134   1.402   6.761   5.707 -0.5800  1.1835 -0.9554
  865MOL0     H14135   1.335   6.771   5.856 -0.9884  0.8203  0.1151
  865MOL0     H14136   1.167   6.865   5.615  0.2574  0.5849 -0.8635
  865MOL0     H14137   1.294   6.973   5.663  0.0731 -1.1464 -3.4557
  865MOL0     H14138   1.159   7.048   5.842  0.4463 -0.0197 -0.0963
  865MOL0     H14139   1.027   6.955   5.751  0.6583 -3.9025 -0.4506
  865MOL0     H14140   1.179   6.827   5.979  0.9627  0.4795  0.1929
  865MOL0     H14141   1.026   6.788   5.911  0.5401  0.3276 -0.2386
  865MOL0     H14142   0.902   7.130   6.139  1.0194 -2.1907 -0.9657
  865MOL0     H14143   0.990   7.292   6.310  1.4778  1.8988  1.0380
  865MOL0     H14144   1.252   7.269   6.746 -0.2026 -0.8044 -0.5450
  865MOL0     H14145   1.366   7.343   6.925 -2.1003 -0.7244 -1.0206
  865MOL0     H14146   1.521   7.447   7.098  2.1447 -0.4534 -1.9831
  865MOL0     H14147   1.414   7.577   7.049 -0.1468  0.0737 -1.4093
  865MOL0     H14148   1.711   7.600   7.138 -0.0408 -0.9096 -0.6186
  865MOL0     H14149   1.574   7.641   7.243  0.7615 -2.6361 -0.2644
  865MOL0     H14150   1.540   7.795   7.015 -1.0041 -1.3847  0.4987
  865MOL0     H14151   1.723   7.759   7.026  0.9163  1.8862  2.2296
  865MOL0     H14152   1.564   7.917   7.220  1.1882  1.7618  1.8553
  865MOL0     H14153   1.694   7.827   7.274 -2.4723  1.3034  0.8858
  865MOL0     H14154   1.740   8.016   7.039  1.5910 -3.6983 -1.3909
  865MOL0     H14155   1.854   7.929   7.155 -1.1308 -1.7736  4.1672
  865MOL0     H14156   1.777   8.085   7.338 -3.0190  0.7574  1.1477
  865MOL0     H14157   1.651   8.151   7.248  0.1012 -0.2809  0.3345
  865MOL0     H14158   1.803   8.218   7.050  1.1200  5.2126 -1.5765
  865MOL0     H14159   1.782   8.312   7.197 -0.5415  1.5360 -3.9828
  865MOL0     H14160   2.015   8.130   7.121 -1.4050 -1.6759  1.2485
  865MOL0     H14161   1.986   8.195   7.285 -2.7374  2.3303  0.2047
  865MOL0     H14162   1.627   7.564   6.647 -1.8512  0.1942 -2.1421
  865MOL0     H14163   1.537   7.445   6.480 -1.7222 -0.3559 -1.2405
  865MOL0     H14164   1.383   7.093   6.294 -0.2720  1.0663  0.0908
  865MOL0     H14165   1.288   6.939   6.118 -1.2190 -0.6000 -0.3927
  865MOL0     H14166   0.255   6.917   5.152 -0.8809  2.7586 -0.1447
  865MOL0     H14167   0.180   7.159   5.148  3.1343  3.8858  2.1998
  865MOL0     H14168   0.284   7.584   4.682  0.2756  0.5788  0.2646
  865MOL0     H14169   0.173   7.772   4.650 -4.5301 -1.5372 -0.6126
  865MOL0     H14170   0.260   8.004   4.815  0.4797  1.9451  1.1965
  865MOL0     H14171   0.160   8.130   4.886  1.6095  1.8670 -2.4436
  865MOL0     H14172   0.188   8.165   4.622 -0.5960  1.5097  1.2322
  865MOL0     H14173   0.097   8.016   4.615 -1.4105  0.3545 -0.5376
  865MOL0     H14174  -0.001   8.269   4.741  0.9016  0.2234 -0.2877
  865MOL0     H14175  -0.084   8.108   4.743  1.2831 -1.7870 -2.2052
  865MOL0     H14176   0.005   8.259   4.487 -2.3545  2.1221 -0.2421
  865MOL0     H14177  -0.084   8.099   4.514  1.1838  0.8971 -1.1345
  865MOL0     H14178  -0.364   8.406   4.600  1.3042  1.7877  1.8689
  865MOL0     H14179   0.134   7.801   5.088  2.6298 -1.4838  0.0505
  865MOL0     H14180   0.194   7.598   5.114 -1.5861 -2.4098 -1.3420
  866MOL0     O14181   9.784   0.098   2.393 -0.1369  0.1975 -0.1016
  866MOL0     C14182   9.805   0.109   2.518 -0.2318 -0.4452 -0.5519
  866MOL0     O14183   9.739   0.190   2.613 -0.3044  0.3531 -0.8199
  866MOL0     C14184   9.635   0.258   2.554 -0.4494  0.7386 -0.3381
  866MOL0     C14185   9.510   0.192   2.534  0.9199  0.2483  0.2356
  866MOL0     C14186   9.398   0.266   2.500  0.2801 -0.5815  0.0951
  866MOL0     C14187   9.409   0.404   2.485  0.4621  0.2974  0.6460
  866MOL0     O14188   9.323   0.483   2.417  0.8078 -0.1407  0.6822
  866MOL0     C14189   9.182   0.452   2.421 -0.3184  0.1288  0.4064
  866MOL0     C14190   9.132   0.371   2.304 -1.0867  0.0094 -0.1057
  866MOL0     C14191   9.148   0.437   2.167  0.3446  0.4115  0.6135
  866MOL0     C14192   9.048   0.366   2.062  0.6542 -0.4501  0.3506
  866MOL0     C14193   9.081   0.413   1.918  0.0116  0.1940 -0.3722
  866MOL0     C14194   9.016   0.545   1.892  1.0099  0.0466  0.1750
  866MOL0     C14195   9.029   0.602   1.752 -0.2252  0.1242 -0.3639
  866MOL0     C14196   8.990   0.534   1.634  0.1638  0.3501  0.7506
  866MOL0     N14197   9.019   0.614   1.518 -0.1190 -0.1851  0.5886
  866MOL0     C14198   9.124   0.700   1.491 -0.1143  1.0255  0.3100
  866MOL0     C14199   9.098   0.755   1.371  0.5915 -1.0474  0.6604
  866MOL0     C14200   9.185   0.829   1.277 -0.8809 -0.6044 -0.0528
  866MOL0     C14201   9.312   0.899   1.347  0.3120  0.1333  0.5617
  866MOL0     C14202   9.356   1.014   1.264 -0.7704  0.1656  0.5565
  866MOL0     C14203   9.490   1.084   1.306  0.3426  0.3522 -0.7823
  866MOL0     O14204   9.452   1.172   1.417  0.6101 -0.4941 -0.0130
  866MOL0     C14205   9.510   1.170   1.544 -0.1404  0.3544  0.8854
  866MOL0     C14206   9.468   1.276   1.624 -0.2257 -0.7721 -0.0288
  866MOL0     C14207   9.520   1.296   1.752 -0.8660 -0.0615 -0.2412
  866MOL0     C14208   9.604   1.196   1.798  0.5536 -0.9780 -0.9426
  866MOL0     C14209   9.661   1.199   1.936  0.4447  0.4898 -0.4359
  866MOL0     O14210   9.586   1.260   2.037 -0.3665  0.1838  0.5193
  866MOL0     C14211   9.632   1.284   2.167  0.0683 -0.3187 -0.7358
  866MOL0     C14212   9.718   1.199   2.235  0.2389 -0.1143  0.3108
  866MOL0     C14213   9.765   1.213   2.362 -0.7148  0.2094  0.1526
  866MOL0     C14214   9.730   1.332   2.438 -0.5574  0.1350  0.4306
  866MOL0     O14215   9.774   1.353   2.568 -0.0061  0.3263 -0.0746
  866MOL0     C14216   9.673   1.385   2.669  0.1106 -0.1414  0.3389
  866MOL0     C14217   9.552   1.301   2.687 -0.5982  0.4441  0.7253
  866MOL0     C14218   9.441   1.396   2.735  0.7491  0.3748 -0.4326
  866MOL0     C14219   9.304   1.323   2.759  0.1773 -0.2117 -0.2297
  866MOL0     C14220   9.285   1.211   2.647 -0.0107  0.4881 -0.5799
  866MOL0     C14221   9.256   1.283   2.520  0.6418 -0.9297  0.0464
  866MOL0     C14222   9.222   1.186   2.415  0.0159 -0.1898 -0.2411
  866MOL0     C14223   9.216   1.267   2.282 -0.4396 -0.3648 -0.2642
  866MOL0    Cl14224   9.175   1.147   2.155  0.0857 -0.0603  0.1628
  866MOL0     C14225   9.630   1.416   2.376  0.1317  0.2247  0.0304
  866MOL0     C14226   9.584   1.385   2.246  0.2486 -0.3880  0.5626
  866MOL0     O14227   9.774   1.154   1.954  0.5803 -0.2158  0.1087
  866MOL0     C14228   9.634   1.083   1.720  0.5396  0.2837 -0.4265
  866MOL0     C14229   9.587   1.059   1.591 -0.4977  0.7228 -1.2951
  866MOL0     N14230   8.975   0.718   1.331 -0.0976  0.8246  0.1628
  866MOL0     N14231   8.921   0.657   1.432 -0.1593  0.7476  0.0439
  866MOL0     C14232   9.530   0.461   2.491  0.6459  0.0343  0.0219
  866MOL0     C14233   9.648   0.392   2.517 -0.1347  0.1663  0.4080
  866MOL0     C14234   9.925   0.047   2.570 -0.2959  0.2306 -1.2183
  866MOL0     C14235  10.017  -0.034   2.487  0.6500  0.1132 -1.2599
  866MOL0     C14236  10.113  -0.122   2.547 -0.8749  0.0350 -0.9103
  866MOL0     C14237  10.128  -0.122   2.688 -0.3561 -0.0894 -0.3636
  866MOL0     O14238  10.222  -0.213   2.725 -0.0939  0.0716 -0.9023
  866MOL0     C14239  10.268  -0.196   2.866  0.2305 -0.2900  0.5512
  866MOL0     C14240  10.348  -0.067   2.877  0.6180 -0.0839 -0.0058
  866MOL0     C14241  10.389  -0.035   3.020  0.0924  0.2873  0.5415
  866MOL0     C14242  10.289   0.062   3.088 -0.2024  0.4907 -0.8619
  866MOL0     C14243  10.332   0.079   3.233  0.7552  0.1356  0.2562
  866MOL0     C14244  10.386   0.101   3.339 -0.3106 -0.2100  0.1535
  866MOL0     C14245  10.051  -0.036   2.769  1.5544 -0.0014  0.1612
  866MOL0     C14246   9.950   0.042   2.712 -0.2358 -0.8090  0.4813
  866MOL0     H14247   9.503   0.085   2.552  1.7831 -0.4417 -2.8792
  866MOL0     H14248   9.303   0.212   2.498  0.3445 -0.8339  2.0312
  866MOL0     H14249   9.116   0.539   2.416  0.2797  0.5667  0.0116
  866MOL0     H14250   9.147   0.407   2.514 -0.9957 -0.8022 -0.2807
  866MOL0     H14251   9.022   0.373   2.304 -1.0778  1.0220 -1.2451
  866MOL0     H14252   9.185   0.275   2.307  0.5228  0.8419 -1.0418
  866MOL0     H14253   9.250   0.433   2.127  0.7377 -0.3831  1.6442
  866MOL0     H14254   9.115   0.540   2.183  2.3789  1.3234 -0.5929
  866MOL0     H14255   9.049   0.257   2.059 -1.7427 -0.4937 -1.6034
  866MOL0     H14256   8.943   0.387   2.086  0.5310 -0.4996 -0.1341
  866MOL0     H14257   9.030   0.348   1.846 -2.0606 -0.0909  1.2325
  866MOL0     H14258   9.186   0.436   1.897  0.2392  0.8001  1.2512
  866MOL0     H14259   9.063   0.622   1.953 -0.2112  0.5287  0.5493
  866MOL0     H14260   8.908   0.539   1.912  0.3684 -1.1019 -2.9468
  866MOL0     H14261   8.969   0.693   1.748 -1.2209 -0.4966 -4.4770
  866MOL0     H14262   9.136   0.621   1.743 -0.5896  2.4568 -0.2763
  866MOL0     H14263   8.883   0.511   1.638 -0.4806  3.0312  1.0081
  866MOL0     H14264   9.043   0.438   1.627  1.4898  1.0398  0.9754
  866MOL0     H14265   9.229   0.700   1.520  0.9411 -3.2605 -2.5619
  866MOL0     H14266   9.122   0.907   1.233 -1.4366 -0.7157  0.5300
  866MOL0     H14267   9.224   0.766   1.196 -0.3799  1.8454 -1.8365
  866MOL0     H14268   9.394   0.827   1.346  1.6078  1.5544  0.9348
  866MOL0     H14269   9.282   0.931   1.447 -0.5350  1.1813 -0.0092
  866MOL0     H14270   9.379   0.968   1.168  1.3970 -0.0551  1.1267
  866MOL0     H14271   9.280   1.092   1.254  1.7425  2.5855 -1.1306
  866MOL0     H14272   9.540   1.133   1.222  1.2770  3.2169  1.3111
  866MOL0     H14273   9.567   1.013   1.340  3.3965  2.3648 -3.0336
  866MOL0     H14274   9.393   1.342   1.581  1.8917  0.4391 -2.0340
  866MOL0     H14275   9.504   1.383   1.815 -2.6422 -0.8329  0.4434
  866MOL0     H14276   9.763   1.112   2.188  2.2602  0.1774  1.5537
  866MOL0     H14277   9.830   1.135   2.400 -0.6196 -0.1284 -0.6916
  866MOL0     H14278   9.643   1.488   2.646  0.7377 -0.0803 -0.2407
  866MOL0     H14279   9.717   1.392   2.769  0.4421 -0.0697  0.1915
  866MOL0     H14280   9.559   1.215   2.754  0.3129 -0.3934 -0.4075
  866MOL0     H14281   9.533   1.251   2.592 -0.6327 -0.9590  1.4517
  866MOL0     H14282   9.417   1.469   2.657 -0.5499  0.6532  0.2117
  866MOL0     H14283   9.464   1.438   2.833 -1.3590 -0.6417  0.5576
  866MOL0     H14284   9.295   1.291   2.863 -0.2402  0.2004 -0.1389
  866MOL0     H14285   9.219   1.388   2.737  0.8626  0.0351 -2.4410
  866MOL0     H14286   9.200   1.144   2.664  1.1676 -1.4310 -1.7960
  866MOL0     H14287   9.368   1.140   2.634 -0.5560  0.2259 -3.2118
  866MOL0     H14288   9.337   1.349   2.488 -2.5875  3.4473 -0.0191
  866MOL0     H14289   9.163   1.340   2.514 -0.2429 -2.4333 -1.2051
  866MOL0     H14290   9.300   1.113   2.396  1.8555  2.4895 -4.1691
  866MOL0     H14291   9.127   1.137   2.441 -0.0011  0.1795  0.4463
  866MOL0     H14292   9.307   1.310   2.240 -1.3700 -0.2817 -2.3062
  866MOL0     H14293   9.144   1.349   2.288  1.7180  1.9034 -2.8438
  866MOL0     H14294   9.595   1.510   2.417 -0.2465 -0.1875  0.6594
  866MOL0     H14295   9.520   1.446   2.184 -1.8965 -1.5356  1.5571
  866MOL0     H14296   9.695   1.003   1.762 -0.1009  0.2139  0.3829
  866MOL0     H14297   9.621   0.973   1.535  0.9559  1.6664 -1.9144
  866MOL0     H14298   9.550   0.564   2.465  3.0249 -0.6138 -0.9485
  866MOL0     H14299   9.743   0.445   2.517 -0.4377  0.7860 -1.2411
  866MOL0     H14300  10.001  -0.031   2.380  2.0013 -0.0769 -1.4875
  866MOL0     H14301  10.172  -0.187   2.484 -1.7458 -2.6556  0.8661
  866MOL0     H14302  10.340  -0.275   2.889  0.8842 -0.1627 -0.9184
  866MOL0     H14303  10.187  -0.213   2.937  1.4172 -0.1632  2.0039
  866MOL0     H14304  10.439  -0.091   2.821 -0.7241 -0.9970 -1.8964
  866MOL0     H14305  10.290   0.016   2.837  1.0663 -0.0945 -0.7002
  866MOL0     H14306  10.488   0.011   3.026 -0.2538  1.0227  0.7815
  866MOL0     H14307  10.404  -0.130   3.071  4.8891  0.7498  0.4691
  866MOL0     H14308  10.284   0.165   3.051 -0.2553 -0.3571 -3.4319
  866MOL0     H14309  10.189   0.020   3.073 -0.1709  0.1995 -0.2745
  866MOL0     H14310  10.436   0.114   3.433 -0.7637 -0.8683  0.4957
  866MOL0     H14311  10.054  -0.035   2.877 -0.6976 -0.4267  0.2865
  866MOL0     H14312   9.884   0.105   2.770 -1.5481 -0.2465 -1.5027
  867MOL0     O14313   5.770   1.477   5.109  0.5124 -0.0188  0.3223
  867MOL0     C14314   5.671   1.432   5.165 -0.1269 -0.0744  0.3464
  867MOL0     O14315   5.564   1.358   5.102 -0.7210 -0.5762  1.2430
  867MOL0     C14316   5.587   1.327   4.966 -0.6891 -0.3385  0.4628
  867MOL0     C14317   5.722   1.287   4.915  0.5894  0.3322 -0.1802
  867MOL0     C14318   5.738   1.246   4.789  0.8488  0.2944 -0.1110
  867MOL0     C14319   5.627   1.206   4.711  1.1633 -0.3305  0.5095
  867MOL0     O14320   5.640   1.128   4.599  0.6640  0.0101  0.1745
  867MOL0     C14321   5.757   1.135   4.519  0.0842  0.1436  0.1256
  867MOL0     C14322   5.762   1.267   4.447 -1.3789 -1.0538 -0.0405
  867MOL0     C14323   5.899   1.297   4.398 -0.6077  0.3182  0.5321
  867MOL0     C14324   5.947   1.213   4.280  0.1369  0.5314 -0.0924
  867MOL0     C14325   6.094   1.169   4.279  0.0024  1.3688 -0.6757
  867MOL0     C14326   6.192   1.295   4.267 -0.4385  0.9302 -0.4755
  867MOL0     C14327   6.337   1.267   4.307  0.0407  0.8011  0.6938
  867MOL0     C14328   6.367   1.269   4.454 -0.9140 -0.0897  0.0563
  867MOL0     N14329   6.345   1.409   4.503 -0.3671  0.7700  0.2862
  867MOL0     C14330   6.240   1.445   4.580 -0.0482 -0.5826 -0.1560
  867MOL0     C14331   6.263   1.573   4.591  0.4083 -0.7791  0.1941
  867MOL0     C14332   6.179   1.667   4.672 -0.3287 -0.1545 -0.7732
  867MOL0     C14333   6.044   1.697   4.612 -0.4653  0.2911 -0.1418
  867MOL0     C14334   5.924   1.617   4.664  0.3073 -0.0653 -0.1052
  867MOL0     C14335   5.836   1.684   4.773  0.1976 -0.2057 -0.1488
  867MOL0     O14336   5.797   1.816   4.755  0.0176 -0.1561  0.2449
  867MOL0     C14337   5.706   1.867   4.842  0.7895  0.7569  0.1568
  867MOL0     C14338   5.650   1.992   4.813 -0.0719  0.3249  0.0527
  867MOL0     C14339   5.570   2.055   4.909 -0.3317 -0.2678  0.3959
  867MOL0     C14340   5.559   2.008   5.034 -0.1739 -0.3021  0.2230
  867MOL0     C14341   5.499   2.084   5.149  0.2851  0.4931  0.0600
  867MOL0     O14342   5.468   2.218   5.131  0.0515 -0.5626 -0.4370
  867MOL0     C14343   5.431   2.290   5.243  0.2526 -0.9738 -0.6150
  867MOL0     C14344   5.349   2.250   5.343  0.7585  0.2937 -0.2805
  867MOL0     C14345   5.311   2.332   5.455 -0.2140 -1.2544 -0.0417
  867MOL0     C14346   5.381   2.455   5.473  0.5135 -0.6589 -0.8781
  867MOL0     O14347   5.353   2.548   5.571 -0.2561 -0.3892 -0.2624
  867MOL0     C14348   5.229   2.542   5.647 -0.5264 -0.0580  0.5110
  867MOL0     C14349   5.233   2.638   5.757  0.4831 -0.1642 -0.1888
  867MOL0     C14350   5.189   2.770   5.695 -0.4808  0.4667  0.7787
  867MOL0     C14351   5.203   2.898   5.777 -0.1969  0.6255 -0.8156
  867MOL0     C14352   5.356   2.902   5.820 -0.1767 -0.2797  0.4144
  867MOL0     C14353   5.398   3.050   5.853  0.1948 -0.3959  0.3612
  867MOL0     C14354   5.554   3.042   5.847 -0.2185 -0.0886 -0.6640
  867MOL0     C14355   5.621   3.172   5.880  0.0325  0.2504 -0.8654
  867MOL0    Cl14356   5.587   3.252   6.039 -0.1241 -0.4942  0.0309
  867MOL0     C14357   5.476   2.493   5.383  0.9103 -0.0380  0.6996
  867MOL0     C14358   5.497   2.412   5.269 -0.8075  0.3191 -0.4655
  867MOL0     O14359   5.493   2.021   5.255 -0.2037 -0.1728 -0.0561
  867MOL0     C14360   5.595   1.871   5.050  0.6667  0.1698 -0.7244
  867MOL0     C14361   5.662   1.804   4.958  0.2994 -0.3329  0.2719
  867MOL0     N14362   6.374   1.615   4.535 -0.7181  0.3588 -0.1755
  867MOL0     N14363   6.421   1.520   4.476  0.5993 -0.1374  0.1786
  867MOL0     C14364   5.500   1.219   4.768  0.4069 -0.1646 -0.7044
  867MOL0     C14365   5.483   1.283   4.892 -0.1376  0.1529  0.0695
  867MOL0     C14366   5.657   1.443   5.310  0.0385 -0.0932 -0.4176
  867MOL0     C14367   5.743   1.532   5.379 -0.2656 -0.5383 -0.3447
  867MOL0     C14368   5.737   1.534   5.523 -0.2143 -0.9236  0.6231
  867MOL0     C14369   5.648   1.453   5.593  0.5763  0.1731  1.1626
  867MOL0     O14370   5.630   1.438   5.725  0.3033 -0.1449  0.3168
  867MOL0     C14371   5.607   1.564   5.794  0.8255  0.0530  0.1422
  867MOL0     C14372   5.472   1.639   5.777  0.0816 -0.3729 -0.0705
  867MOL0     C14373   5.364   1.570   5.850 -1.1534  0.0730  0.3114
  867MOL0     C14374   5.376   1.531   6.001  0.2749 -1.1298 -0.1310
  867MOL0     C14375   5.400   1.395   6.039  0.3267  0.1860  0.9009
  867MOL0     C14376   5.413   1.290   6.103 -0.3644 -0.1673 -0.5944
  867MOL0     C14377   5.582   1.350   5.518  0.3361 -0.0307  0.3254
  867MOL0     C14378   5.576   1.351   5.381  0.2131  0.1386  0.3105
  867MOL0     H14379   5.806   1.272   4.981  0.1722  5.8283  2.1368
  867MOL0     H14380   5.837   1.206   4.768  0.0874 -2.1270  0.5924
  867MOL0     H14381   5.764   1.052   4.448 -4.5201  0.0335 -0.5294
  867MOL0     H14382   5.846   1.119   4.580  1.2331  1.2741 -1.2099
  867MOL0     H14383   5.749   1.346   4.522  0.8224  0.0810 -0.7389
  867MOL0     H14384   5.687   1.286   4.370 -1.4932 -0.9973  0.0839
  867MOL0     H14385   5.981   1.292   4.470  0.1267 -0.7178 -0.3580
  867MOL0     H14386   5.893   1.401   4.363 -1.9825 -1.1081 -4.0492
  867MOL0     H14387   5.890   1.120   4.274  0.5453  0.2759 -0.0786
  867MOL0     H14388   5.936   1.265   4.185  1.6525 -1.2147 -1.2946
  867MOL0     H14389   6.117   1.100   4.197 -1.7511  0.8706 -0.7987
  867MOL0     H14390   6.119   1.125   4.376  0.8128  0.0164 -1.4630
  867MOL0     H14391   6.153   1.373   4.332  3.7418  2.2200  0.7788
  867MOL0     H14392   6.191   1.331   4.164  2.3619 -0.6246 -1.1368
  867MOL0     H14393   6.371   1.177   4.254  0.6152 -0.4277  3.0082
  867MOL0     H14394   6.400   1.342   4.260  1.5190  0.8680  2.6652
  867MOL0     H14395   6.475   1.253   4.456 -0.5832  2.0419  1.0891
  867MOL0     H14396   6.316   1.198   4.520 -1.5656 -1.1076 -1.4788
  867MOL0     H14397   6.158   1.381   4.612 -0.4339 -0.4301 -0.8165
  867MOL0     H14398   6.236   1.760   4.684 -1.7522  1.0538 -2.7548
  867MOL0     H14399   6.161   1.615   4.766  3.1242 -0.5149 -0.1543
  867MOL0     H14400   6.048   1.663   4.508 -1.0826 -1.8491  0.4820
  867MOL0     H14401   6.031   1.805   4.620 -1.3081  0.1253  0.8400
  867MOL0     H14402   5.850   1.606   4.583  0.4340 -2.2268  0.0306
  867MOL0     H14403   5.953   1.519   4.701  1.7201  1.1021  2.0547
  867MOL0     H14404   5.889   1.661   4.866  1.7463 -0.6418 -1.0933
  867MOL0     H14405   5.740   1.634   4.791  0.5642 -0.5632  0.9031
  867MOL0     H14406   5.687   2.039   4.723 -2.6482 -0.3635 -1.4801
  867MOL0     H14407   5.527   2.153   4.889  1.9646  1.1553  2.0453
  867MOL0     H14408   5.316   2.147   5.335  0.0633  0.6659 -3.5873
  867MOL0     H14409   5.234   2.300   5.524 -2.6001  1.8950 -0.9647
  867MOL0     H14410   5.219   2.447   5.701 -1.9777  0.7794  1.7935
  867MOL0     H14411   5.140   2.561   5.586  0.2900 -1.0558 -1.0406
  867MOL0     H14412   5.333   2.652   5.798 -0.9719 -0.3195  3.9219
  867MOL0     H14413   5.161   2.604   5.833  1.8504 -0.4409  1.0394
  867MOL0     H14414   5.085   2.777   5.664  0.3210  1.6908 -1.9542
  867MOL0     H14415   5.255   2.792   5.610  0.7448 -1.2158  1.2365
  867MOL0     H14416   5.190   2.985   5.712  1.9489  1.0493 -0.7630
  867MOL0     H14417   5.129   2.890   5.858 -2.1595  0.9594 -2.5085
  867MOL0     H14418   5.408   2.865   5.731 -0.1359 -0.6380  0.5868
  867MOL0     H14419   5.377   2.831   5.900 -2.0681 -1.9473 -0.4731
  867MOL0     H14420   5.369   3.082   5.953  3.7366  0.0836  1.3777
  867MOL0     H14421   5.351   3.115   5.779 -0.6625 -0.4785  0.8130
  867MOL0     H14422   5.589   2.976   5.926 -1.0883  1.7901  1.3870
  867MOL0     H14423   5.590   3.014   5.747 -2.6100 -3.0153 -0.8387
  867MOL0     H14424   5.601   3.241   5.798 -0.4415 -1.0232 -1.8461
  867MOL0     H14425   5.729   3.158   5.888 -0.0704  0.3095  1.3065
  867MOL0     H14426   5.532   2.582   5.406 -0.3847  0.7876  0.7541
  867MOL0     H14427   5.572   2.443   5.197 -0.3222 -0.3562 -0.2588
  867MOL0     H14428   5.571   1.822   5.144 -1.3487  3.5306  0.7266
  867MOL0     H14429   5.690   1.708   5.000  0.8432  0.2714  1.3299
  867MOL0     H14430   5.401   1.192   4.731 -1.4435  0.6951  3.1633
  867MOL0     H14431   5.389   1.309   4.940  0.5659 -0.2769  1.7833
  867MOL0     H14432   5.816   1.594   5.328  1.2475 -2.8904 -1.2116
  867MOL0     H14433   5.800   1.608   5.572 -1.0755  1.2578 -1.3487
  867MOL0     H14434   5.684   1.637   5.768  0.6018  1.3128  2.7494
  867MOL0     H14435   5.621   1.550   5.901  2.3197  2.0688  0.2631
  867MOL0     H14436   5.487   1.743   5.806  1.3009 -1.4465  3.5623
  867MOL0     H14437   5.447   1.640   5.670 -0.2629 -1.3565 -0.0142
  867MOL0     H14438   5.328   1.486   5.790 -0.5909 -0.0286  0.1180
  867MOL0     H14439   5.284   1.645   5.855 -0.1962  1.0415  2.2823
  867MOL0     H14440   5.462   1.588   6.037 -0.7095  1.3811 -1.5569
  867MOL0     H14441   5.283   1.550   6.056 -0.5263 -1.7686 -1.2181
  867MOL0     H14442   5.416   1.190   6.141 -1.0136  0.0252 -0.0167
  867MOL0     H14443   5.534   1.274   5.578  2.0026 -0.6401  0.9637
  867MOL0     H14444   5.531   1.266   5.330 -0.4091  1.4529 -1.4464
  868MOL0     O14445   1.718   1.408   1.488  0.0740 -0.4163 -0.2686
  868MOL0     C14446   1.725   1.345   1.385 -0.1303  0.1235 -0.3764
  868MOL0     O14447   1.757   1.216   1.372  0.3870  0.2372  0.0618
  868MOL0     C14448   1.811   1.147   1.478  0.0534  0.2322  0.2759
  868MOL0     C14449   1.947   1.142   1.494  0.4055 -0.4339 -0.1254
  868MOL0     C14450   2.012   1.069   1.588 -0.0410 -0.1078  0.0737
  868MOL0     C14451   1.939   0.990   1.682  1.2797  0.6663  0.5990
  868MOL0     O14452   1.999   0.911   1.765 -0.4360 -0.4753  0.3567
  868MOL0     C14453   2.027   0.962   1.896 -0.0556  0.6897 -0.0167
  868MOL0     C14454   1.903   0.930   1.976 -1.1308  0.0856 -1.1255
  868MOL0     C14455   1.905   0.987   2.122  0.5919 -1.4428  0.7047
  868MOL0     C14456   1.990   0.915   2.219 -0.2649 -0.4861  0.9480
  868MOL0     C14457   1.945   0.935   2.366  0.0449 -0.2394 -0.3537
  868MOL0     C14458   1.925   1.083   2.403 -0.3427  1.0706  0.7350
  868MOL0     C14459   1.962   1.126   2.537  0.9829  0.2812 -0.7988
  868MOL0     C14460   1.861   1.092   2.655 -1.1278  0.4117  0.7826
  868MOL0     N14461   1.897   1.165   2.782 -0.7000 -0.1814  0.0848
  868MOL0     C14462   1.993   1.119   2.872 -0.7512 -0.1358 -0.1359
  868MOL0     C14463   1.998   1.221   2.960  0.5596  0.2487 -0.5605
  868MOL0     C14464   2.105   1.222   3.064 -0.6556 -0.3807  0.3937
  868MOL0     C14465   2.115   1.109   3.170  0.1416 -0.5986 -0.3918
  868MOL0     C14466   2.252   1.090   3.204 -0.0186  0.6034  0.3790
  868MOL0     C14467   2.270   1.005   3.326  0.1148  1.2821 -0.3276
  868MOL0     O14468   2.194   0.884   3.324  0.5867  0.0316 -0.6236
  868MOL0     C14469   2.221   0.779   3.416 -0.1338  0.4444 -0.2074
  868MOL0     C14470   2.337   0.771   3.496 -0.6550  0.4707  0.5303
  868MOL0     C14471   2.352   0.663   3.581 -0.1325 -0.8449  0.2664
  868MOL0     C14472   2.265   0.554   3.574 -0.2147  0.2749  0.3222
  868MOL0     C14473   2.301   0.432   3.659  0.5956 -0.7029  0.4080
  868MOL0     O14474   2.425   0.424   3.723 -0.0970  0.2761 -0.4713
  868MOL0     C14475   2.469   0.334   3.816 -0.0625  0.3622 -1.2546
  868MOL0     C14476   2.419   0.199   3.839 -0.6738 -0.6582 -0.2575
  868MOL0     C14477   2.444   0.120   3.951 -0.3393  1.0204 -0.2256
  868MOL0     C14478   2.530   0.174   4.045  0.3766  0.4731  0.6498
  868MOL0     O14479   2.556   0.111   4.171  0.7580 -0.5897 -0.3832
  868MOL0     C14480   2.667   0.022   4.175  0.5567 -0.1259  0.3206
  868MOL0     C14481   2.723   0.017   4.316 -0.1439  0.6953 -0.5673
  868MOL0     C14482   2.828  -0.086   4.342  0.0286 -0.2829 -0.1618
  868MOL0     C14483   2.850  -0.109   4.494  0.3216 -0.1996 -0.3276
  868MOL0     C14484   2.943  -0.224   4.522 -1.2253 -0.4535  0.0835
  868MOL0     C14485   2.981  -0.236   4.669  0.0033 -0.6636  0.3314
  868MOL0     C14486   3.029  -0.375   4.727  0.5887 -0.3544 -0.2398
  868MOL0     C14487   3.067  -0.385   4.874  0.4753 -0.5442 -0.4793
  868MOL0    Cl14488   3.212  -0.293   4.915 -0.0123 -0.4256 -0.1788
  868MOL0     C14489   2.593   0.297   4.024  0.2263 -0.6569  0.1057
  868MOL0     C14490   2.563   0.390   3.912  0.5084 -0.3309  0.7277
  868MOL0     O14491   2.206   0.355   3.667 -0.1845  0.3826 -0.3177
  868MOL0     C14492   2.157   0.562   3.488  0.0551  0.1087 -0.7802
  868MOL0     C14493   2.133   0.672   3.412  0.5207  0.4295 -0.8325
  868MOL0     N14494   1.910   1.321   2.928  0.1190 -0.7754  0.1225
  868MOL0     N14495   1.851   1.284   2.816  0.2788  0.2599 -1.2144
  868MOL0     C14496   1.796   0.995   1.667  0.3221 -0.4538 -0.2104
  868MOL0     C14497   1.743   1.069   1.569 -0.0976 -0.0862 -0.9062
  868MOL0     C14498   1.696   1.418   1.262 -0.0521  0.7966  0.1763
  868MOL0     C14499   1.676   1.561   1.257  0.0111  0.0762 -0.1668
  868MOL0     C14500   1.641   1.635   1.144  0.3226 -0.4056  1.2749
  868MOL0     C14501   1.621   1.564   1.027 -0.2790  0.3550  1.0380
  868MOL0     O14502   1.556   1.621   0.920 -0.6533 -0.3076 -0.2388
  868MOL0     C14503   1.416   1.600   0.909 -1.0781  0.0525 -0.0922
  868MOL0     C14504   1.360   1.737   0.917  0.5817 -0.8251 -0.2911
  868MOL0     C14505   1.206   1.734   0.930 -0.1451  0.2816 -0.4059
  868MOL0     C14506   1.146   1.876   0.917  0.1952 -1.2466 -0.4090
  868MOL0     C14507   1.004   1.854   0.953 -0.6300 -0.6499 -1.1727
  868MOL0     C14508   0.887   1.841   0.989 -0.7651 -1.7425  0.4198
  868MOL0     C14509   1.639   1.423   1.023 -0.2892  0.2900 -0.0858
  868MOL0     C14510   1.684   1.356   1.134  0.0212 -0.2066  0.3583
  868MOL0     H14511   2.011   1.212   1.441  0.2150  0.5131  0.8556
  868MOL0     H14512   2.119   1.060   1.574 -0.0993  2.7412 -4.1279
  868MOL0     H14513   2.040   1.070   1.882  0.7156  0.5899 -0.1181
  868MOL0     H14514   2.111   0.911   1.944  3.6033  3.7360 -2.5198
  868MOL0     H14515   1.890   0.821   1.969  1.5931 -0.4803  1.0782
  868MOL0     H14516   1.825   0.989   1.927 -0.2397  1.0379 -1.4313
  868MOL0     H14517   1.802   0.991   2.159 -0.5743 -1.9091 -2.2418
  868MOL0     H14518   1.953   1.085   2.130 -1.1651 -0.6356  2.5097
  868MOL0     H14519   1.992   0.812   2.181 -1.8456 -0.8148  1.6857
  868MOL0     H14520   2.092   0.953   2.209 -1.0242  1.1698 -1.7777
  868MOL0     H14521   2.002   0.887   2.447 -0.4832  2.6675  1.9097
  868MOL0     H14522   1.846   0.890   2.377  0.5797 -1.5847 -0.8341
  868MOL0     H14523   1.820   1.110   2.394 -1.4428 -1.8473  2.9252
  868MOL0     H14524   1.980   1.148   2.335 -1.7679 -1.0046 -2.6521
  868MOL0     H14525   2.052   1.074   2.571  0.7236 -1.7911 -3.0179
  868MOL0     H14526   1.964   1.235   2.536 -2.9572  0.5041 -1.4637
  868MOL0     H14527   1.862   0.983   2.668  6.5610 -0.1297  0.1281
  868MOL0     H14528   1.764   1.129   2.620 -1.3708 -0.0352  0.9823
  868MOL0     H14529   2.061   1.037   2.852  0.5836  1.3271 -1.9591
  868MOL0     H14530   2.100   1.316   3.118 -1.0736  0.7764 -1.5727
  868MOL0     H14531   2.203   1.233   3.015 -0.4655  0.7871  1.0041
  868MOL0     H14532   2.069   1.017   3.131 -0.4177 -1.5480  2.3045
  868MOL0     H14533   2.056   1.142   3.255  0.2031  0.6404 -0.8073
  868MOL0     H14534   2.292   1.040   3.115  5.5081  2.6865  1.2932
  868MOL0     H14535   2.307   1.184   3.205 -0.3732  0.9160 -2.0707
  868MOL0     H14536   2.234   1.064   3.410 -3.1297  0.7182 -1.1798
  868MOL0     H14537   2.377   0.990   3.341  0.1522  0.7110 -1.0909
  868MOL0     H14538   2.417   0.844   3.502  0.7937 -0.9873 -0.3465
  868MOL0     H14539   2.434   0.669   3.652 -2.9543 -2.3152  3.9923
  868MOL0     H14540   2.358   0.164   3.756  1.4560 -2.8857 -1.0192
  868MOL0     H14541   2.400   0.027   3.986  1.3539  0.8087  1.5066
  868MOL0     H14542   2.740   0.053   4.099 -0.5204  0.6148 -0.4473
  868MOL0     H14543   2.643  -0.080   4.142 -3.5330  1.4690 -2.3989
  868MOL0     H14544   2.636  -0.001   4.379 -0.7053  0.3595 -1.4083
  868MOL0     H14545   2.767   0.116   4.331  0.9447  0.3185 -1.1756
  868MOL0     H14546   2.922  -0.067   4.288 -0.8959  3.0890 -0.8415
  868MOL0     H14547   2.785  -0.180   4.306 -3.7016  0.8004  1.0836
  868MOL0     H14548   2.886  -0.016   4.539  1.7746 -0.4800 -0.8694
  868MOL0     H14549   2.751  -0.124   4.539 -0.6232  1.4513 -1.6991
  868MOL0     H14550   3.036  -0.232   4.465 -1.4967  1.4422 -0.6763
  868MOL0     H14551   2.897  -0.322   4.506 -0.8955 -1.3432  3.5904
  868MOL0     H14552   2.910  -0.186   4.735 -0.4885 -4.4474  2.9839
  868MOL0     H14553   3.075  -0.182   4.683  0.2171 -1.2231  1.1233
  868MOL0     H14554   2.939  -0.437   4.720 -2.7216  4.0617 -1.4433
  868MOL0     H14555   3.104  -0.423   4.664 -0.3720 -1.4062 -0.6117
  868MOL0     H14556   3.081  -0.486   4.913  1.0127  0.7907  3.2669
  868MOL0     H14557   2.986  -0.336   4.930  0.9709  2.2590 -2.0028
  868MOL0     H14558   2.654   0.344   4.100  0.9953  0.9487 -1.4391
  868MOL0     H14559   2.600   0.492   3.914 -0.1536 -0.0812  2.8779
  868MOL0     H14560   2.084   0.482   3.479 -1.2189  1.0256  0.7781
  868MOL0     H14561   2.054   0.679   3.339  0.6193 -1.2339 -1.1268
  868MOL0     H14562   1.724   0.954   1.738  0.3373  0.2096  0.1939
  868MOL0     H14563   1.635   1.063   1.570 -0.0438 -1.1261  0.0114
  868MOL0     H14564   1.687   1.618   1.349  0.6981 -0.7914  0.2992
  868MOL0     H14565   1.636   1.743   1.155  2.0510 -0.4959  3.8945
  868MOL0     H14566   1.374   1.542   0.992  0.7956 -0.8860  0.2698
  868MOL0     H14567   1.398   1.558   0.810 -5.9678 -1.8062  1.3357
  868MOL0     H14568   1.395   1.794   1.004 -0.2835 -2.3575  1.1260
  868MOL0     H14569   1.392   1.787   0.825 -0.3722  2.1924  0.8818
  868MOL0     H14570   1.194   1.696   1.031 -1.6733 -0.7025 -0.9291
  868MOL0     H14571   1.159   1.660   0.865 -3.1173  0.1379  1.7066
  868MOL0     H14572   1.205   1.938   0.986 -0.3673 -0.4289 -0.6442
  868MOL0     H14573   1.169   1.910   0.816  0.5781 -0.6000 -0.1137
  868MOL0     H14574   0.785   1.835   1.023 -2.3116 -1.0417 -3.4952
  868MOL0     H14575   1.590   1.370   0.943 -0.4635  2.1481 -1.2906
  868MOL0     H14576   1.692   1.248   1.128  0.6045 -0.1471 -4.5636
  869MOL0     O14577   0.366   6.120  10.859 -0.6507  0.5878 -0.1702
  869MOL0     C14578   0.388   6.049  10.761  0.6496  0.4842  0.1306
  869MOL0     O14579   0.306   5.968  10.706 -0.4754 -0.5166 -0.4859
  869MOL0     C14580   0.238   5.875  10.787 -0.5365 -0.0952  0.6989
  869MOL0     C14581   0.264   5.835  10.915 -0.4208 -0.7297  0.1962
  869MOL0     C14582   0.177   5.744  10.977  0.0241 -1.2200 -0.6338
  869MOL0     C14583   0.064   5.695  10.917  1.2204  0.2051  0.0225
  869MOL0     O14584  -0.023   5.612  10.994 -0.5026  0.2023  0.2584
  869MOL0     C14585  -0.154   5.659  11.024 -0.3178 -0.4683 -0.2850
  869MOL0     C14586  -0.237   5.550  11.079  1.1921  0.7657  0.3377
  869MOL0     C14587  -0.382   5.599  11.104 -0.6020 -0.1519  0.4534
  869MOL0     C14588  -0.469   5.480  11.158 -0.3935 -0.3976  0.1398
  869MOL0     C14589  -0.614   5.527  11.142 -0.8075  0.0234  0.4995
  869MOL0     C14590  -0.657   5.636  11.234  0.1397  0.4423 -0.3530
  869MOL0     C14591  -0.795   5.675  11.221  0.9782  0.0887  0.6935
  869MOL0     C14592  -0.830   5.798  11.304 -0.6666 -0.5993 -0.5954
  869MOL0     N14593  -0.755   5.920  11.274  0.3253  0.7203  0.1650
  869MOL0     C14594  -0.708   5.954  11.150  0.3117 -0.2444  0.1057
  869MOL0     C14595  -0.612   6.049  11.174 -0.1553 -0.3323 -0.3257
  869MOL0     C14596  -0.522   6.089  11.063  0.1836 -0.1259 -0.1975
  869MOL0     C14597  -0.414   5.998  11.041 -1.2552  0.7927  1.4945
  869MOL0     C14598  -0.280   6.068  10.987  0.7398  0.3243 -1.2659
  869MOL0     C14599  -0.196   6.126  11.104 -0.2387  0.0478 -0.4777
  869MOL0     O14600  -0.059   6.151  11.066 -0.5055 -0.4010 -0.2417
  869MOL0     C14601  -0.035   6.269  11.007 -0.1310 -0.4247 -0.5354
  869MOL0     C14602  -0.135   6.364  10.981 -0.2816  0.2192  0.3162
  869MOL0     C14603  -0.100   6.491  10.919  0.5675  0.0271 -0.6128
  869MOL0     C14604   0.032   6.514  10.875 -1.6761  0.9093  0.2427
  869MOL0     C14605   0.072   6.629  10.794  0.3754 -0.1580  1.1389
  869MOL0     O14606   0.202   6.646  10.750 -0.4839 -0.1983 -0.7379
  869MOL0     C14607   0.251   6.767  10.702  0.2172 -0.0894  0.4144
  869MOL0     C14608   0.352   6.755  10.614  0.0435  0.0257  0.2555
  869MOL0     C14609   0.422   6.867  10.559 -0.1089  0.8082 -0.1003
  869MOL0     C14610   0.392   6.995  10.603  0.0302 -0.4469  0.7209
  869MOL0     O14611   0.459   7.100  10.545  0.2328  0.3427  0.6720
  869MOL0     C14612   0.377   7.213  10.510  0.2990 -0.2908 -1.6493
  869MOL0     C14613   0.342   7.211  10.360  0.0918  0.7385  1.1134
  869MOL0     C14614   0.460   7.204  10.259  0.1330 -0.4152 -0.5743
  869MOL0     C14615   0.565   7.317  10.299  0.7163  0.7393 -0.3177
  869MOL0     C14616   0.657   7.348  10.185  0.3617 -0.4143  0.7205
  869MOL0     C14617   0.729   7.481  10.208 -0.3587 -0.0344  0.7215
  869MOL0     C14618   0.846   7.502  10.103  0.2778  0.1299  0.0403
  869MOL0     C14619   0.789   7.538   9.965  0.1761 -0.5609  0.1277
  869MOL0    Cl14620   0.911   7.538   9.837 -0.0019  0.1113  0.1132
  869MOL0     C14621   0.289   6.999  10.703  0.1744 -0.5330 -0.2213
  869MOL0     C14622   0.215   6.889  10.743 -0.0815 -1.2917 -0.7648
  869MOL0     O14623  -0.012   6.713  10.784 -0.5104 -0.2136 -0.6068
  869MOL0     C14624   0.131   6.419  10.899  0.5288 -0.4683 -0.1946
  869MOL0     C14625   0.100   6.301  10.964  0.1478 -0.2566 -0.0111
  869MOL0     N14626  -0.588   6.055  11.315  0.5761  0.1177  0.4288
  869MOL0     N14627  -0.673   5.972  11.369 -0.3280  0.0183  0.0200
  869MOL0     C14628   0.041   5.733  10.778  0.2477 -1.2659 -0.7599
  869MOL0     C14629   0.130   5.823  10.716 -0.0500 -0.8281 -0.2009
  869MOL0     C14630   0.516   6.065  10.699  0.8475  0.0668 -0.0083
  869MOL0     C14631   0.624   6.100  10.777 -0.0877 -0.1616 -0.2987
  869MOL0     C14632   0.753   6.103  10.716 -1.1327 -0.1043  0.4323
  869MOL0     C14633   0.779   6.078  10.586  0.0630 -0.2174 -0.5589
  869MOL0     O14634   0.907   6.080  10.538 -0.1766  0.0691  0.0543
  869MOL0     C14635   0.924   6.059  10.400 -0.0300 -0.3197  0.7062
  869MOL0     C14636   1.078   6.056  10.362  0.5802  0.6832  0.4661
  869MOL0     C14637   1.110   6.009  10.216 -0.5023 -0.4902  0.8463
  869MOL0     C14638   1.137   6.139  10.124  0.1219  0.3734  0.3968
  869MOL0     C14639   1.127   6.123   9.979  0.5917 -0.0922  0.5263
  869MOL0     C14640   1.120   6.135   9.859 -0.1673  0.5729  0.2018
  869MOL0     C14641   0.670   6.051  10.504 -0.7087 -0.5591 -0.3881
  869MOL0     C14642   0.540   6.040  10.556  0.4158  0.5940 -0.9145
  869MOL0     H14643   0.336   5.887  10.978 -2.8731  0.4307  2.2095
  869MOL0     H14644   0.184   5.707  11.078 -1.9077  0.4844  0.2013
  869MOL0     H14645  -0.202   5.684  10.930 -0.2538 -0.3970 -0.2984
  869MOL0     H14646  -0.148   5.754  11.078 -1.5104 -1.2963  1.3755
  869MOL0     H14647  -0.195   5.517  11.175  0.6093 -2.0350 -0.2765
  869MOL0     H14648  -0.243   5.462  11.015  0.2418 -1.7710  3.5943
  869MOL0     H14649  -0.431   5.630  11.012 -0.0831 -0.7501 -0.0349
  869MOL0     H14650  -0.387   5.690  11.164  2.4275 -1.2097  2.5835
  869MOL0     H14651  -0.459   5.394  11.091 -1.2259 -0.6834  0.3646
  869MOL0     H14652  -0.446   5.448  11.260  0.8574  0.3733  0.1168
  869MOL0     H14653  -0.691   5.451  11.153 -0.8494  0.1386  1.0157
  869MOL0     H14654  -0.625   5.562  11.039 -2.3742  1.3402  1.0791
  869MOL0     H14655  -0.602   5.731  11.229  1.1341 -0.0789  0.3940
  869MOL0     H14656  -0.625   5.595  11.331  0.7438 -3.4387 -2.0189
  869MOL0     H14657  -0.817   5.695  11.115 -1.7187 -5.1162 -0.0616
  869MOL0     H14658  -0.874   5.605  11.248 -1.2426  1.6415 -1.3350
  869MOL0     H14659  -0.822   5.776  11.411  0.2750  1.9845 -0.0585
  869MOL0     H14660  -0.937   5.809  11.281  0.0884  0.0081 -4.4760
  869MOL0     H14661  -0.749   5.915  11.058  0.8050 -0.6437  0.0498
  869MOL0     H14662  -0.473   6.186  11.066  1.5642 -0.8175  1.9724
  869MOL0     H14663  -0.597   6.108  10.985 -0.9982  0.5443  1.0547
  869MOL0     H14664  -0.454   5.940  10.958 -1.2381  3.5344 -0.5818
  869MOL0     H14665  -0.389   5.927  11.121  0.1621  2.4885  2.6544
  869MOL0     H14666  -0.225   5.979  10.955 -1.2956 -0.5007 -2.7188
  869MOL0     H14667  -0.313   6.129  10.902  2.8469  3.9379  0.2790
  869MOL0     H14668  -0.186   6.043  11.174 -2.3354 -0.7889 -1.0871
  869MOL0     H14669  -0.254   6.207  11.149 -3.3201 -3.6253  2.8533
  869MOL0     H14670  -0.241   6.344  10.994  0.0009 -1.1540  0.7118
  869MOL0     H14671  -0.175   6.558  10.879  0.7956 -0.3316 -1.6845
  869MOL0     H14672   0.396   6.657  10.598  4.6989  1.8669  0.2524
  869MOL0     H14673   0.509   6.859  10.494  0.4705  2.5671  0.4285
  869MOL0     H14674   0.433   7.304  10.531  1.6838 -1.6911  1.2700
  869MOL0     H14675   0.286   7.222  10.571  0.6841  0.4316 -1.1661
  869MOL0     H14676   0.263   7.284  10.340 -0.6681 -0.9740 -3.3787
  869MOL0     H14677   0.295   7.112  10.349  1.9300 -0.2175  1.3922
  869MOL0     H14678   0.405   7.223  10.166 -0.0342 -0.6171 -0.5176
  869MOL0     H14679   0.496   7.101  10.253  2.2839  0.2683 -0.0882
  869MOL0     H14680   0.508   7.408  10.325 -3.8298 -1.2264 -2.3649
  869MOL0     H14681   0.626   7.283  10.384 -1.2124 -3.8197 -0.5185
  869MOL0     H14682   0.593   7.374  10.101 -2.0281 -0.9942  2.2796
  869MOL0     H14683   0.733   7.273  10.163  3.1477  1.1205  4.0173
  869MOL0     H14684   0.774   7.465  10.306 -2.2026  2.2287  2.0108
  869MOL0     H14685   0.662   7.567  10.210  1.9954  1.9732 -0.2540
  869MOL0     H14686   0.911   7.585  10.132  0.9788 -0.3150 -0.2433
  869MOL0     H14687   0.907   7.413  10.088 -0.0015  0.2225 -2.0132
  869MOL0     H14688   0.754   7.641   9.978  1.4312 -0.2376  1.1706
  869MOL0     H14689   0.717   7.464   9.928  0.2750 -2.0829  2.7107
  869MOL0     H14690   0.264   7.094  10.749  1.5904 -0.1383 -0.2431
  869MOL0     H14691   0.142   6.907  10.821  4.5736  2.1194  3.4677
  869MOL0     H14692   0.232   6.432  10.862 -0.0526  1.7419 -1.1810
  869MOL0     H14693   0.189   6.240  10.972  0.5810  0.0451 -2.0500
  869MOL0     H14694  -0.032   5.680  10.717  0.4569 -0.7974 -1.4243
  869MOL0     H14695   0.117   5.839  10.609  3.6968 -3.1972 -1.2029
  869MOL0     H14696   0.602   6.133  10.878 -0.9695  2.5723 -1.2713
  869MOL0     H14697   0.846   6.123  10.769 -1.5752  2.7071  0.3466
  869MOL0     H14698   0.865   6.124  10.334  0.4867 -2.5206 -2.1158
  869MOL0     H14699   0.884   5.960  10.377 -3.5648  1.5175 -2.0168
  869MOL0     H14700   1.129   6.150  10.387  0.1412  2.2540 -3.7372
  869MOL0     H14701   1.121   5.973  10.418  2.0720  0.1669 -1.3414
  869MOL0     H14702   1.036   5.950  10.161  1.0449 -2.9198  1.1904
  869MOL0     H14703   1.190   5.934  10.220 -2.7587 -3.1234 -0.1367
  869MOL0     H14704   1.066   6.219  10.148 -0.6342 -0.1127 -0.1549
  869MOL0     H14705   1.235   6.174  10.155 -0.1890 -0.4001  2.4049
  869MOL0     H14706   1.126   6.148   9.753 -0.7041  2.9486  0.4090
  869MOL0     H14707   0.667   6.030  10.397  1.9891  1.3938 -0.9594
  869MOL0     H14708   0.463   6.016  10.484 -0.9422  0.8650  0.4208
  870MOL0     O14709   1.597   4.654   4.367  0.7771 -0.5495 -0.7803
  870MOL0     C14710   1.481   4.653   4.319  0.2828  0.3764  0.5555
  870MOL0     O14711   1.421   4.549   4.256  0.2024 -0.1707  0.4308
  870MOL0     C14712   1.498   4.443   4.207  0.9197  0.3702 -0.9530
  870MOL0     C14713   1.625   4.388   4.246 -0.0507 -0.2613 -0.6190
  870MOL0     C14714   1.671   4.271   4.187  0.1687  0.5780 -1.2935
  870MOL0     C14715   1.596   4.197   4.098 -0.1018  0.3032  1.0561
  870MOL0     O14716   1.663   4.090   4.043 -0.2569  0.5133  0.0890
  870MOL0     C14717   1.606   3.991   3.955 -0.7594 -0.2854 -0.2295
  870MOL0     C14718   1.706   3.885   3.956  0.1502 -0.6580  0.6999
  870MOL0     C14719   1.817   3.929   3.867  0.6539  0.2901  0.2554
  870MOL0     C14720   1.950   3.863   3.896  0.5291  0.3556 -0.2477
  870MOL0     C14721   2.051   3.888   3.782 -0.5496  1.2631 -0.1577
  870MOL0     C14722   2.098   4.030   3.758 -0.1816 -0.0886 -0.4055
  870MOL0     C14723   2.232   4.047   3.684  0.2497  0.6350 -0.3484
  870MOL0     C14724   2.277   4.189   3.685  0.4805 -0.0071 -0.7895
  870MOL0     N14725   2.354   4.224   3.804  0.5844 -0.2727 -1.4153
  870MOL0     C14726   2.469   4.166   3.849  0.0026 -0.3962 -0.2893
  870MOL0     C14727   2.499   4.245   3.955 -0.2748  0.7331 -1.0805
  870MOL0     C14728   2.619   4.233   4.041 -0.0163 -0.1179  0.3950
  870MOL0     C14729   2.601   4.098   4.106 -0.1130 -0.5878  0.0501
  870MOL0     C14730   2.703   3.999   4.044  0.0820 -0.2356 -0.9807
  870MOL0     C14731   2.668   3.854   4.074 -0.1399 -0.1926  0.8691
  870MOL0     O14732   2.557   3.815   3.989  0.3498 -0.1383  0.8520
  870MOL0     C14733   2.503   3.686   4.002  0.1255  0.0797 -0.0819
  870MOL0     C14734   2.413   3.629   3.911  0.4710 -0.5088 -0.1771
  870MOL0     C14735   2.366   3.497   3.922 -1.0759  0.5801  0.1383
  870MOL0     C14736   2.403   3.413   4.031  0.5800 -0.5922 -0.6661
  870MOL0     C14737   2.359   3.269   4.038  0.0362 -0.4362 -0.7618
  870MOL0     O14738   2.426   3.185   4.120  0.5800  0.2608  0.4094
  870MOL0     C14739   2.360   3.071   4.173 -0.0010 -0.6589 -0.8681
  870MOL0     C14740   2.421   2.942   4.156 -0.0374 -0.2254 -0.7547
  870MOL0     C14741   2.354   2.830   4.215 -0.2020 -0.2148  0.1366
  870MOL0     C14742   2.231   2.845   4.298 -0.7609 -0.5759  0.9485
  870MOL0     O14743   2.173   2.739   4.359  0.7936  0.4968  0.0629
  870MOL0     C14744   2.026   2.739   4.370  1.8324  0.4990  0.1865
  870MOL0     C14745   1.948   2.757   4.234 -0.0573  0.3646 -1.0132
  870MOL0     C14746   2.004   2.655   4.132 -0.3139 -0.7218 -0.0877
  870MOL0     C14747   1.935   2.679   4.005 -0.2522 -0.9466  0.5062
  870MOL0     C14748   2.009   2.620   3.880  0.6230  0.3557 -0.1940
  870MOL0     C14749   2.117   2.715   3.836 -0.7551  0.4064 -0.4179
  870MOL0     C14750   2.083   2.856   3.801  0.9282 -0.1061 -0.4530
  870MOL0     C14751   2.148   2.899   3.678 -0.3702 -0.0221  0.6020
  870MOL0    Cl14752   2.098   2.795   3.532 -0.2194  0.4652 -0.6234
  870MOL0     C14753   2.172   2.968   4.294 -1.0591 -0.8247 -0.0328
  870MOL0     C14754   2.239   3.077   4.236 -0.4298 -0.5368 -1.0412
  870MOL0     O14755   2.246   3.248   3.993 -1.0497  0.6321  0.0936
  870MOL0     C14756   2.486   3.473   4.130 -1.4101  1.2609  0.4014
  870MOL0     C14757   2.547   3.599   4.107 -0.7290  0.6840  0.6306
  870MOL0     N14758   2.411   4.348   3.971 -0.1156  0.9413  0.6118
  870MOL0     N14759   2.327   4.340   3.874 -0.6335 -0.1141  0.3564
  870MOL0     C14760   1.464   4.238   4.073  0.3776  0.9577  1.3377
  870MOL0     C14761   1.426   4.364   4.112 -0.7155  0.1989 -0.1427
  870MOL0     C14762   1.403   4.782   4.342 -0.1951  0.5797 -0.3559
  870MOL0     C14763   1.283   4.813   4.287  0.9700 -0.6454  0.3820
  870MOL0     C14764   1.204   4.926   4.320  0.0657 -0.4810  0.3073
  870MOL0     C14765   1.269   5.028   4.394 -0.0262  0.0098 -0.0392
  870MOL0     O14766   1.214   5.147   4.430 -0.3162  0.1039  0.5274
  870MOL0     C14767   1.084   5.190   4.399  0.5464 -0.1631 -0.5085
  870MOL0     C14768   0.987   5.119   4.497  0.0737 -0.2408  0.2803
  870MOL0     C14769   1.000   5.174   4.642 -0.1141 -0.4136 -0.2767
  870MOL0     C14770   0.921   5.111   4.757 -0.2196 -1.1318  0.4099
  870MOL0     C14771   0.952   4.970   4.766  0.4217 -0.3292 -0.4564
  870MOL0     C14772   1.003   4.860   4.757 -0.0727  0.7026  0.4054
  870MOL0     C14773   1.396   5.004   4.444  0.9708 -1.2182 -0.6769
  870MOL0     C14774   1.458   4.886   4.420  0.0270 -0.8600  0.1061
  870MOL0     H14775   1.683   4.448   4.315  0.6732  1.6732 -2.7620
  870MOL0     H14776   1.765   4.230   4.222 -0.9338 -0.6625  0.4038
  870MOL0     H14777   1.588   4.028   3.853 -1.2874  0.9781  0.2891
  870MOL0     H14778   1.510   3.965   4.000 -2.0029  1.8833 -1.4257
  870MOL0     H14779   1.649   3.803   3.913 -1.3427  1.2788 -1.2303
  870MOL0     H14780   1.747   3.859   4.054  3.3443  0.2644 -0.2832
  870MOL0     H14781   1.829   4.037   3.878  1.7813  0.0132  2.3541
  870MOL0     H14782   1.793   3.931   3.761  0.9013 -1.1288  0.1450
  870MOL0     H14783   1.973   3.912   3.991  0.3489 -0.0618  0.0145
  870MOL0     H14784   1.937   3.756   3.913  2.9123 -0.6048 -3.6406
  870MOL0     H14785   2.003   3.840   3.696  0.8234 -2.3081  0.9046
  870MOL0     H14786   2.135   3.825   3.812 -0.2086  1.9353  0.3441
  870MOL0     H14787   2.110   4.066   3.861  5.3350 -3.3186  0.4701
  870MOL0     H14788   2.016   4.085   3.711  0.2300  0.0629 -0.9602
  870MOL0     H14789   2.310   3.981   3.722  0.8414  0.1649 -2.2380
  870MOL0     H14790   2.210   4.025   3.579  3.0301 -0.6505 -0.7364
  870MOL0     H14791   2.187   4.250   3.673 -0.8162 -1.8231 -0.7226
  870MOL0     H14792   2.335   4.213   3.595 -0.4568 -2.1999 -2.0610
  870MOL0     H14793   2.509   4.073   3.811 -3.0682 -3.2033  2.5673
  870MOL0     H14794   2.621   4.308   4.121  0.7302  0.2507  0.0419
  870MOL0     H14795   2.711   4.246   3.983 -0.0943  0.6423  0.4340
  870MOL0     H14796   2.502   4.055   4.093 -1.0774  1.1352  1.2820
  870MOL0     H14797   2.602   4.106   4.215 -1.6294  0.9615 -0.0033
  870MOL0     H14798   2.725   4.022   3.939  4.7409 -0.7965 -0.3413
  870MOL0     H14799   2.800   4.014   4.093  0.7582  1.4117 -2.6725
  870MOL0     H14800   2.655   3.844   4.183 -1.8789  0.8644  0.8065
  870MOL0     H14801   2.750   3.784   4.054 -1.4089 -1.8962  1.3577
  870MOL0     H14802   2.394   3.692   3.825 -3.9707  1.2596  1.7934
  870MOL0     H14803   2.330   3.450   3.831 -1.8043  1.5852 -0.1108
  870MOL0     H14804   2.513   2.923   4.101 -0.1058  1.6691 -1.6071
  870MOL0     H14805   2.385   2.730   4.185  0.3519 -0.2853  0.9147
  870MOL0     H14806   1.982   2.800   4.450  2.5101  0.5123  0.5536
  870MOL0     H14807   1.997   2.639   4.403 -4.2278  1.3601 -1.1606
  870MOL0     H14808   1.963   2.861   4.203 -1.7798  1.0627  0.3108
  870MOL0     H14809   1.844   2.753   4.267  0.2194 -3.3387 -0.0957
  870MOL0     H14810   1.994   2.550   4.159  2.8778 -0.8636  0.9756
  870MOL0     H14811   2.112   2.671   4.124 -0.3909  0.1327  0.4517
  870MOL0     H14812   1.842   2.623   4.018 -0.9596 -0.6930 -2.7389
  870MOL0     H14813   1.907   2.782   3.981 -0.5883 -1.5266 -1.8274
  870MOL0     H14814   1.933   2.611   3.801 -2.2719  1.4159  2.2992
  870MOL0     H14815   2.043   2.517   3.897  1.3098  0.6548  0.2866
  870MOL0     H14816   2.168   2.659   3.758 -0.6551 -1.4002  0.8897
  870MOL0     H14817   2.186   2.708   3.921 -0.2757 -0.6787 -0.8906
  870MOL0     H14818   1.975   2.865   3.785  0.1017 -5.6904 -0.1497
  870MOL0     H14819   2.094   2.918   3.891 -0.2574 -0.1688 -0.2435
  870MOL0     H14820   2.257   2.883   3.678 -0.0991  1.1888 -2.3469
  870MOL0     H14821   2.139   3.004   3.647  0.5515 -0.2693 -0.5989
  870MOL0     H14822   2.079   3.000   4.339  0.1172  2.7181  0.1675
  870MOL0     H14823   2.181   3.168   4.241 -2.3853 -1.7309 -1.0265
  870MOL0     H14824   2.506   3.411   4.217  2.6897  1.1208 -0.4023
  870MOL0     H14825   2.619   3.625   4.184  0.2811 -0.1223 -0.0113
  870MOL0     H14826   1.401   4.177   4.010  4.2878 -1.5754 -0.5651
  870MOL0     H14827   1.325   4.389   4.080 -1.0979 -1.9827 -0.8491
  870MOL0     H14828   1.232   4.743   4.221  1.4388  1.4180 -2.3382
  870MOL0     H14829   1.102   4.923   4.281  0.1403  1.1397 -0.0683
  870MOL0     H14830   1.054   5.182   4.294  0.3063 -0.2201 -0.4369
  870MOL0     H14831   1.070   5.293   4.433 -1.3271 -0.3870 -0.4753
  870MOL0     H14832   0.882   5.133   4.473  0.1333  0.3280  0.3524
  870MOL0     H14833   1.015   5.013   4.489  2.4789  0.3687 -0.0500
  870MOL0     H14834   0.999   5.283   4.646 -0.3632 -0.4364  0.6945
  870MOL0     H14835   1.101   5.144   4.670 -0.0831  0.8012  1.0120
  870MOL0     H14836   0.937   5.163   4.852 -3.6997  0.1242  0.4586
  870MOL0     H14837   0.814   5.127   4.738 -0.0022  1.0028  0.6536
  870MOL0     H14838   1.047   4.763   4.765  1.0428  1.2223  0.8088
  870MOL0     H14839   1.448   5.087   4.492 -2.2493 -0.5006  1.8989
  870MOL0     H14840   1.556   4.875   4.465 -1.0073  3.8930  4.4965
  871MOL0     O14841   0.528   7.477   5.611  0.4526 -0.1257 -0.0298
  871MOL0     C14842   0.499   7.590   5.576  0.1425  0.0079  0.5660
  871MOL0     O14843   0.509   7.637   5.457 -0.3010 -0.5343  0.7500
  871MOL0     C14844   0.585   7.582   5.362  0.1718  0.0597  1.5758
  871MOL0     C14845   0.525   7.564   5.237  0.0930  0.2845  0.8245
  871MOL0     C14846   0.603   7.517   5.124  0.2036 -0.4510 -0.3489
  871MOL0     C14847   0.739   7.474   5.136 -0.0088  0.1384  0.3493
  871MOL0     O14848   0.829   7.436   5.035  0.4468  0.4413 -0.8274
  871MOL0     C14849   0.828   7.512   4.903 -0.4930  0.0645  0.3542
  871MOL0     C14850   0.857   7.409   4.792 -0.5526  0.4300  0.3954
  871MOL0     C14851   0.737   7.321   4.779 -0.1476  0.4893  0.0147
  871MOL0     C14852   0.738   7.234   4.648 -0.1099 -0.0360  0.3309
  871MOL0     C14853   0.849   7.122   4.649 -0.3681 -0.9945 -0.5404
  871MOL0     C14854   0.828   7.019   4.539  0.4430 -0.3786  0.2131
  871MOL0     C14855   0.694   6.961   4.510 -0.5559 -0.0213  0.4037
  871MOL0     C14856   0.628   6.911   4.631 -1.3646  0.7600 -0.0906
  871MOL0     N14857   0.716   6.802   4.689  0.9897  0.7839  0.4414
  871MOL0     C14858   0.709   6.669   4.647  0.3004  0.3686 -0.8633
  871MOL0     C14859   0.803   6.601   4.716  0.3998 -0.1397  0.7664
  871MOL0     C14860   0.853   6.456   4.700 -0.2750 -0.2219 -0.2200
  871MOL0     C14861   0.899   6.404   4.843 -0.5179  0.4567  0.1506
  871MOL0     C14862   0.862   6.259   4.880 -0.2777  0.1251 -0.7537
  871MOL0     C14863   0.908   6.140   4.787  0.9936  0.1191 -0.5257
  871MOL0     O14864   1.033   6.101   4.837 -0.1603  0.8091  0.2401
  871MOL0     C14865   1.116   6.017   4.761 -0.0711  0.5879 -0.2432
  871MOL0     C14866   1.251   6.038   4.773 -0.0808 -0.0142  0.4375
  871MOL0     C14867   1.338   5.948   4.719  0.2616 -0.3275 -0.4196
  871MOL0     C14868   1.299   5.823   4.664  0.5180 -0.0774  1.0021
  871MOL0     C14869   1.405   5.730   4.614  0.6795 -0.2818  1.3087
  871MOL0     O14870   1.369   5.613   4.555  0.0459  0.7745  0.3944
  871MOL0     C14871   1.467   5.510   4.538 -1.0871 -0.3858 -0.4421
  871MOL0     C14872   1.582   5.491   4.617  0.0976  0.2854  0.1578
  871MOL0     C14873   1.682   5.400   4.570  0.0219 -0.3412 -0.4731
  871MOL0     C14874   1.668   5.322   4.455  0.9412  1.2158 -0.4103
  871MOL0     O14875   1.767   5.235   4.402 -0.0580  0.6108 -0.4841
  871MOL0     C14876   1.898   5.216   4.463  0.7099  0.9853 -0.5715
  871MOL0     C14877   1.982   5.125   4.380  0.5769  0.5434  0.3977
  871MOL0     C14878   1.931   4.974   4.376 -0.3570 -0.3805 -0.3025
  871MOL0     C14879   2.008   4.910   4.265 -0.0645 -1.0488 -0.3502
  871MOL0     C14880   1.960   4.775   4.222  0.0281 -0.7535 -0.9140
  871MOL0     C14881   1.954   4.669   4.331  0.2268 -0.5835 -0.9524
  871MOL0     C14882   1.923   4.535   4.269  0.0747  0.0512 -0.3862
  871MOL0     C14883   2.033   4.498   4.168 -0.0964 -0.4245 -0.1932
  871MOL0    Cl14884   2.211   4.500   4.229 -0.1227 -0.2012  0.5110
  871MOL0     C14885   1.546   5.321   4.389 -0.8340  0.5025 -0.2100
  871MOL0     C14886   1.446   5.414   4.440  0.0048  0.1664 -0.5322
  871MOL0     O14887   1.523   5.770   4.628  0.2099 -0.1581  0.2968
  871MOL0     C14888   1.157   5.812   4.643 -0.3377  0.4804  0.2167
  871MOL0     C14889   1.062   5.902   4.692 -1.0820  0.4892  0.4068
  871MOL0     N14890   0.870   6.691   4.805 -0.0791  0.8403  0.1575
  871MOL0     N14891   0.817   6.806   4.786  0.9927  0.2223 -0.3568
  871MOL0     C14892   0.779   7.463   5.265  0.2145 -0.0260 -0.3861
  871MOL0     C14893   0.706   7.513   5.382  0.0294  1.1357  0.0386
  871MOL0     C14894   0.454   7.690   5.672 -0.3272 -0.5384  0.6940
  871MOL0     C14895   0.415   7.824   5.652 -0.6120 -0.6357 -0.6920
  871MOL0     C14896   0.373   7.916   5.759  1.2472 -0.7084  0.6024
  871MOL0     C14897   0.386   7.876   5.891 -0.4772 -0.0478  0.1774
  871MOL0     O14898   0.346   7.947   6.002  0.1129 -0.2912  0.5028
  871MOL0     C14899   0.297   8.075   5.982 -0.1057 -0.2070 -0.3568
  871MOL0     C14900   0.203   8.114   6.100 -0.7144  0.1640 -0.4195
  871MOL0     C14901   0.203   8.266   6.122  0.3225  0.9757 -0.1898
  871MOL0     C14902   0.152   8.340   5.995  0.0538 -0.2528 -0.0813
  871MOL0     C14903   0.125   8.489   6.019 -0.1756 -1.2329 -0.0683
  871MOL0     C14904   0.104   8.605   6.042 -0.2544 -1.0166 -0.5406
  871MOL0     C14905   0.434   7.743   5.914 -0.7084  0.8085 -0.6609
  871MOL0     C14906   0.461   7.656   5.807 -0.0403 -0.1740 -0.6568
  871MOL0     H14907   0.427   7.605   5.216 -0.0981  0.1853  1.4933
  871MOL0     H14908   0.553   7.498   5.030  0.0585 -2.9893  0.1701
  871MOL0     H14909   0.911   7.583   4.909  3.7558 -4.4902  1.7541
  871MOL0     H14910   0.737   7.568   4.879  0.4971  1.1804 -0.9695
  871MOL0     H14911   0.946   7.353   4.825 -1.7838 -1.1429  1.2165
  871MOL0     H14912   0.870   7.460   4.697 -5.3983 -0.9591 -1.2865
  871MOL0     H14913   0.646   7.382   4.777  0.7860  2.0415  1.7991
  871MOL0     H14914   0.720   7.249   4.860 -0.4575  0.3709 -0.1541
  871MOL0     H14915   0.639   7.194   4.624  1.2387 -2.5667 -1.4166
  871MOL0     H14916   0.760   7.303   4.566  2.9417 -1.0186  0.1850
  871MOL0     H14917   0.847   7.078   4.748  1.4593  1.3495  0.6454
  871MOL0     H14918   0.947   7.169   4.632 -0.7444 -0.5409 -1.5918
  871MOL0     H14919   0.902   6.941   4.558  0.8830 -0.1241 -0.3865
  871MOL0     H14920   0.849   7.064   4.441  0.6547  2.3117  1.4201
  871MOL0     H14921   0.636   7.040   4.461 -0.7015  0.3005  1.0903
  871MOL0     H14922   0.708   6.882   4.435  2.2423  0.0079  0.7596
  871MOL0     H14923   0.534   6.861   4.606 -0.9849  0.0815 -0.1622
  871MOL0     H14924   0.614   6.998   4.697 -0.6064  0.2778  0.7205
  871MOL0     H14925   0.647   6.624   4.570  0.5917 -0.9582 -0.3404
  871MOL0     H14926   0.940   6.450   4.634 -0.2757  1.3288 -0.4011
  871MOL0     H14927   0.778   6.390   4.654 -0.3886 -0.0367 -0.3031
  871MOL0     H14928   0.858   6.465   4.924 -2.2289  0.8002 -0.9082
  871MOL0     H14929   1.007   6.418   4.850 -0.6631  1.3537  0.7648
  871MOL0     H14930   0.910   6.241   4.977  1.0396 -0.9481 -1.5774
  871MOL0     H14931   0.754   6.243   4.881 -0.1611 -0.7961 -1.4634
  871MOL0     H14932   0.928   6.172   4.684  1.1473  0.0318 -0.5226
  871MOL0     H14933   0.842   6.053   4.783 -1.0656  1.6203 -1.0704
  871MOL0     H14934   1.277   6.135   4.814 -1.0423 -0.4105  2.0861
  871MOL0     H14935   1.444   5.970   4.727  0.2966  0.1064 -1.8589
  871MOL0     H14936   1.611   5.551   4.703  6.8832 -2.1525  0.1986
  871MOL0     H14937   1.779   5.390   4.619 -0.5531 -0.9897  0.5830
  871MOL0     H14938   1.891   5.178   4.565  1.0341 -1.3291 -1.3414
  871MOL0     H14939   1.939   5.316   4.476 -1.3811  1.8175 -0.0976
  871MOL0     H14940   2.090   5.127   4.401  1.1224 -1.6732 -1.6888
  871MOL0     H14941   1.974   5.161   4.277 -0.3904  1.0638  0.6461
  871MOL0     H14942   1.825   4.981   4.351 -0.7175 -0.0221  1.2264
  871MOL0     H14943   1.949   4.927   4.473 -1.7716  3.4818  2.0948
  871MOL0     H14944   2.005   4.977   4.179 -0.9692 -2.1195 -1.1917
  871MOL0     H14945   2.109   4.888   4.299 -0.1543 -3.9223 -1.5885
  871MOL0     H14946   2.017   4.742   4.134 -0.3831 -2.7089 -0.5105
  871MOL0     H14947   1.860   4.801   4.186 -0.4278 -0.9741  0.1468
  871MOL0     H14948   1.877   4.692   4.406 -3.0646  1.1099 -4.4780
  871MOL0     H14949   2.051   4.668   4.381  0.3389 -1.8727 -1.1574
  871MOL0     H14950   1.921   4.447   4.334 -0.5403 -2.6897 -3.7723
  871MOL0     H14951   1.831   4.546   4.211  1.1280 -1.4918 -2.5080
  871MOL0     H14952   2.025   4.545   4.070  0.3212 -3.2425 -1.6610
  871MOL0     H14953   2.020   4.391   4.151 -0.7479 -0.1513 -1.5153
  871MOL0     H14954   1.534   5.255   4.304  1.2795  2.3935 -2.1123
  871MOL0     H14955   1.359   5.419   4.376  0.7533  1.9857 -1.4912
  871MOL0     H14956   1.116   5.730   4.585 -1.2584  0.1265  1.3173
  871MOL0     H14957   0.956   5.881   4.681 -1.1831  0.3263  1.6300
  871MOL0     H14958   0.866   7.404   5.294 -1.2999 -0.6800  3.4790
  871MOL0     H14959   0.744   7.490   5.481 -0.9029  2.8148  0.8311
  871MOL0     H14960   0.414   7.863   5.550 -0.8654  0.1196 -0.4096
  871MOL0     H14961   0.339   8.015   5.729  0.0244 -1.6232 -1.1714
  871MOL0     H14962   0.237   8.078   5.891 -0.4444 -0.3596 -0.1449
  871MOL0     H14963   0.370   8.155   5.969  0.6547 -0.9261 -0.6396
  871MOL0     H14964   0.103   8.081   6.070 -1.2587 -0.2996  1.6799
  871MOL0     H14965   0.231   8.060   6.191 -0.9265 -2.8867 -2.0464
  871MOL0     H14966   0.299   8.305   6.157  0.3531  0.4665  0.2984
  871MOL0     H14967   0.129   8.273   6.203  0.2625  1.8496 -0.3075
  871MOL0     H14968   0.230   8.340   5.919 -0.5702  4.0894 -0.9745
  871MOL0     H14969   0.063   8.292   5.952 -0.9459  1.6407 -0.2541
  871MOL0     H14970   0.081   8.704   6.075  1.5036 -1.4771  2.5295
  871MOL0     H14971   0.452   7.725   6.019  0.4208  0.1808 -0.9357
  871MOL0     H14972   0.513   7.571   5.850  0.7021  1.1925  1.3084
  872MOL0     O14973   1.144   2.240   2.351  0.5000 -0.6236 -0.1319
  872MOL0     C14974   1.030   2.222   2.297  0.7072  0.2781 -0.6626
  872MOL0     O14975   0.962   2.100   2.304 -0.1709 -0.1082  0.4731
  872MOL0     C14976   1.037   1.992   2.328  0.5329  0.8094 -0.0760
  872MOL0     C14977   1.046   1.947   2.459 -0.2191 -0.2280 -0.4806
  872MOL0     C14978   1.131   1.834   2.478  0.0599  1.2222 -0.4237
  872MOL0     C14979   1.191   1.758   2.374  0.2607 -0.4800 -0.1050
  872MOL0     O14980   1.270   1.651   2.401  0.1651 -0.8118 -0.3872
  872MOL0     C14981   1.220   1.529   2.365  0.9249  0.2903 -0.2419
  872MOL0     C14982   1.328   1.436   2.314 -0.4039  0.6058  0.1612
  872MOL0     C14983   1.388   1.480   2.177  0.7926  0.3152 -0.0325
  872MOL0     C14984   1.469   1.368   2.113 -0.2599  0.4117 -0.2881
  872MOL0     C14985   1.532   1.390   1.971 -0.3541 -0.5195 -0.4174
  872MOL0     C14986   1.440   1.457   1.872  0.6668  0.3310 -1.0266
  872MOL0     C14987   1.499   1.494   1.739  0.2574  0.4992 -0.2064
  872MOL0     C14988   1.378   1.566   1.656 -0.3447 -0.4999 -0.7324
  872MOL0     N14989   1.327   1.465   1.563  0.7337  0.1564 -0.3968
  872MOL0     C14990   1.378   1.443   1.442  0.0501  0.3133 -0.6047
  872MOL0     C14991   1.287   1.366   1.372 -0.4185 -0.8041  0.6962
  872MOL0     C14992   1.300   1.314   1.236  0.2658  0.0473  0.3975
  872MOL0     C14993   1.404   1.213   1.206  0.0447  1.0721  0.3753
  872MOL0     C14994   1.386   1.070   1.261 -0.7327 -0.0330  0.2022
  872MOL0     C14995   1.472   0.958   1.196  0.1284  0.1573 -0.4674
  872MOL0     O14996   1.615   0.976   1.225  0.2880  0.0930 -0.9617
  872MOL0     C14997   1.697   0.907   1.145 -0.4616  0.3136  0.0197
  872MOL0     C14998   1.833   0.919   1.160  0.6852 -0.1376 -0.2732
  872MOL0     C14999   1.931   0.841   1.095 -0.6959 -0.1128 -0.8611
  872MOL0     C15000   1.889   0.753   0.984  0.2757 -0.6712 -0.1338
  872MOL0     C15001   1.987   0.684   0.895  0.2753 -0.3035  0.5843
  872MOL0     O15002   2.124   0.669   0.944  0.4260 -0.7063  0.7660
  872MOL0     C15003   2.190   0.580   0.870  0.5630 -0.5543 -0.2230
  872MOL0     C15004   2.215   0.604   0.738 -1.0288 -0.1094  0.2054
  872MOL0     C15005   2.316   0.530   0.674  0.5328  0.2587 -0.3770
  872MOL0     C15006   2.379   0.428   0.739 -0.4632 -0.2677 -0.8528
  872MOL0     O15007   2.467   0.360   0.662 -0.2488 -0.4777  0.3737
  872MOL0     C15008   2.581   0.306   0.728 -0.9668 -0.0906  0.5416
  872MOL0     C15009   2.570   0.150   0.736  0.3691 -0.7881 -0.0845
  872MOL0     C15010   2.689   0.090   0.806 -0.0249  0.0219 -0.4613
  872MOL0     C15011   2.731  -0.027   0.713 -0.2471  0.6903 -0.2503
  872MOL0     C15012   2.869  -0.088   0.772  0.1020 -0.6403 -0.2614
  872MOL0     C15013   2.919  -0.194   0.690  0.5960  0.7890 -0.0158
  872MOL0     C15014   2.850  -0.330   0.729  0.0639 -0.3053 -0.8135
  872MOL0     C15015   2.907  -0.454   0.668  0.0130 -0.5689 -0.0211
  872MOL0    Cl15016   2.867  -0.431   0.497  0.0991  0.2775  0.2985
  872MOL0     C15017   2.340   0.396   0.867  1.1399  0.5813 -0.8933
  872MOL0     C15018   2.241   0.466   0.934  0.1662 -0.1127  0.0657
  872MOL0     O15019   1.945   0.657   0.782  0.5896 -0.1109 -0.5046
  872MOL0     C15020   1.750   0.760   0.959  0.0287 -0.5839  0.3727
  872MOL0     C15021   1.656   0.840   1.026 -0.6213  0.6776 -0.7005
  872MOL0     N15022   1.180   1.348   1.460  0.1999  0.7208 -0.0440
  872MOL0     N15023   1.213   1.398   1.569  0.1404 -0.3524 -0.3225
  872MOL0     C15024   1.172   1.805   2.241  0.2635 -0.4665 -0.5721
  872MOL0     C15025   1.108   1.930   2.218 -0.2145 -0.3580  0.3305
  872MOL0     C15026   0.969   2.320   2.211  0.1084  0.1502 -0.5818
  872MOL0     C15027   1.018   2.451   2.218  0.7785 -0.9208 -0.1638
  872MOL0     C15028   0.964   2.554   2.140 -0.2309  0.5726 -0.6634
  872MOL0     C15029   0.883   2.522   2.026 -0.3442  0.0222 -0.6122
  872MOL0     O15030   0.844   2.627   1.953  0.5384 -0.1287 -0.1896
  872MOL0     C15031   0.778   2.596   1.827 -0.5458  0.2572 -0.7392
  872MOL0     C15032   0.754   2.720   1.761  0.0609 -0.3332  0.8109
  872MOL0     C15033   0.634   2.797   1.818 -0.5322  0.5479 -0.2236
  872MOL0     C15034   0.613   2.916   1.740  0.5497  0.1599  0.5507
  872MOL0     C15035   0.558   2.879   1.604  1.0714 -0.4246 -0.4525
  872MOL0     C15036   0.515   2.852   1.497  0.7066  0.7514  0.1474
  872MOL0     C15037   0.834   2.386   2.017 -0.2348 -0.3365  0.7493
  872MOL0     C15038   0.876   2.295   2.107 -0.9643  0.1729 -0.1240
  872MOL0     H15039   0.989   1.993   2.539 -1.4080  1.9217 -2.4355
  872MOL0     H15040   1.142   1.800   2.581  0.8797  0.8607 -0.6202
  872MOL0     H15041   1.142   1.549   2.292  0.3982  1.0073  0.4962
  872MOL0     H15042   1.166   1.488   2.450  3.4808 -1.2158  0.7935
  872MOL0     H15043   1.292   1.333   2.312 -0.2653  0.5675 -0.3666
  872MOL0     H15044   1.413   1.427   2.382  0.9314 -2.5960 -1.7309
  872MOL0     H15045   1.454   1.565   2.199  1.7905 -1.0072  2.5511
  872MOL0     H15046   1.300   1.504   2.117 -0.9603 -0.8285  1.9744
  872MOL0     H15047   1.555   1.365   2.182 -0.4178  0.6120 -0.0810
  872MOL0     H15048   1.411   1.276   2.100  1.9831 -1.0966 -0.3030
  872MOL0     H15049   1.558   1.292   1.930  1.2895  0.7302 -2.5971
  872MOL0     H15050   1.628   1.441   1.979 -0.7881  0.6807 -2.2505
  872MOL0     H15051   1.401   1.550   1.915 -0.9304 -1.1613  0.9368
  872MOL0     H15052   1.354   1.397   1.844  0.8537  0.2614 -1.4572
  872MOL0     H15053   1.590   1.553   1.746  1.6650 -1.3804 -1.7329
  872MOL0     H15054   1.525   1.406   1.679 -0.0736  0.3931 -0.2001
  872MOL0     H15055   1.422   1.647   1.598  1.7066 -1.7268 -0.9885
  872MOL0     H15056   1.305   1.615   1.721  0.0079  1.5036 -1.7757
  872MOL0     H15057   1.474   1.478   1.407 -0.1418 -2.1068 -4.0018
  872MOL0     H15058   1.302   1.410   1.182  0.3939  0.3445  0.9216
  872MOL0     H15059   1.206   1.269   1.205  0.8700  1.0841 -3.3878
  872MOL0     H15060   1.493   1.263   1.245  2.3618  0.6638 -3.7533
  872MOL0     H15061   1.420   1.217   1.097 -0.5637  2.7037  0.3183
  872MOL0     H15062   1.409   1.063   1.368  0.7368 -0.6074 -0.1278
  872MOL0     H15063   1.281   1.047   1.243 -0.9013  0.9847 -0.2100
  872MOL0     H15064   1.444   0.956   1.090 -2.0692 -4.0389 -0.0235
  872MOL0     H15065   1.429   0.862   1.225  0.5458  0.7933  2.5607
  872MOL0     H15066   1.863   0.982   1.243  4.2154 -0.7900 -0.8922
  872MOL0     H15067   2.035   0.849   1.125 -0.8871 -0.6318 -0.0410
  872MOL0     H15068   2.163   0.684   0.687 -1.0499 -0.4595 -0.3307
  872MOL0     H15069   2.356   0.552   0.576  0.4789  2.2362  0.0143
  872MOL0     H15070   2.599   0.360   0.821  2.1760  2.4809 -1.3440
  872MOL0     H15071   2.672   0.332   0.673 -0.2033 -0.7154  1.4731
  872MOL0     H15072   2.559   0.111   0.634 -1.6330 -0.6962  0.0533
  872MOL0     H15073   2.477   0.131   0.790 -0.9925  0.1392 -1.9947
  872MOL0     H15074   2.668   0.048   0.905 -3.1993  0.1739 -0.9646
  872MOL0     H15075   2.772   0.161   0.817  0.0578  0.0436 -1.1339
  872MOL0     H15076   2.654  -0.105   0.718 -0.5790  0.8378 -2.2413
  872MOL0     H15077   2.745  -0.012   0.606 -0.6215  1.3574 -0.2144
  872MOL0     H15078   2.850  -0.121   0.874 -2.5592 -2.6485 -1.2904
  872MOL0     H15079   2.946  -0.011   0.762  0.0293 -0.5314  0.0224
  872MOL0     H15080   3.026  -0.216   0.688  0.2346 -1.1951 -0.0755
  872MOL0     H15081   2.903  -0.169   0.584 -1.3589 -2.3971 -0.6151
  872MOL0     H15082   2.866  -0.348   0.836 -2.2926  2.5364  0.1473
  872MOL0     H15083   2.741  -0.331   0.726 -0.2491 -0.1514  3.5720
  872MOL0     H15084   2.858  -0.543   0.710 -0.6076 -0.1587  0.1399
  872MOL0     H15085   3.016  -0.461   0.674  0.0736 -4.3895 -2.1280
  872MOL0     H15086   2.380   0.308   0.916 -0.1910  1.4387  1.9227
  872MOL0     H15087   2.229   0.434   1.037 -0.0207 -2.6100 -0.6703
  872MOL0     H15088   1.712   0.708   0.872 -2.0257 -1.1047  1.5086
  872MOL0     H15089   1.554   0.822   0.993 -1.3541 -0.8480  2.0652
  872MOL0     H15090   1.210   1.752   2.154  0.8906  0.8565 -1.1451
  872MOL0     H15091   1.119   1.983   2.123  0.0985 -0.6053  0.2256
  872MOL0     H15092   1.083   2.478   2.301 -0.6448 -2.4409  1.5150
  872MOL0     H15093   1.008   2.652   2.152  0.5869  0.8884 -4.9042
  872MOL0     H15094   0.683   2.540   1.831  0.2420 -1.0723  1.5778
  872MOL0     H15095   0.840   2.535   1.760 -1.9603 -3.6023  1.1761
  872MOL0     H15096   0.848   2.775   1.773  0.0257 -0.3814  1.3545
  872MOL0     H15097   0.741   2.694   1.656 -1.8399 -0.0090  0.9200
  872MOL0     H15098   0.667   2.824   1.918  0.6830  3.1624 -1.2270
  872MOL0     H15099   0.536   2.749   1.812 -0.5995  0.3341  1.9517
  872MOL0     H15100   0.544   2.990   1.781 -0.7059 -2.0571  2.7345
  872MOL0     H15101   0.713   2.957   1.723  0.3110  0.2966 -0.6076
  872MOL0     H15102   0.481   2.809   1.405  0.4054 -2.1044  1.4797
  872MOL0     H15103   0.753   2.361   1.949 -2.2919  1.5409  2.3160
  872MOL0     H15104   0.840   2.193   2.113  0.9837 -0.4962  1.2403
  873MOL0     O15105   8.646   1.639   8.094  0.1685 -0.4585  0.5805
  873MOL0     C15106   8.597   1.540   8.149 -0.1763  0.4929  0.8957
  873MOL0     O15107   8.589   1.416   8.089  0.5893 -0.0006 -0.1317
  873MOL0     C15108   8.612   1.407   7.954 -0.5502 -0.3731 -0.2494
  873MOL0     C15109   8.747   1.411   7.918 -0.5743 -0.4647 -0.0335
  873MOL0     C15110   8.794   1.418   7.791 -0.7370  0.4769  0.1084
  873MOL0     C15111   8.697   1.398   7.693 -0.7944 -0.0768 -0.5872
  873MOL0     O15112   8.748   1.376   7.569  0.1598 -0.2872 -0.6476
  873MOL0     C15113   8.743   1.493   7.490  0.2525  0.5402 -0.9291
  873MOL0     C15114   8.852   1.488   7.384 -0.5588 -0.0450 -0.2464
  873MOL0     C15115   8.840   1.611   7.292 -0.0223 -0.4418  0.0014
  873MOL0     C15116   8.974   1.647   7.230  0.4169 -0.6208 -0.2759
  873MOL0     C15117   8.957   1.763   7.125 -0.1813  0.1578  0.3529
  873MOL0     C15118   9.071   1.750   7.025  0.2121 -0.3547 -0.3514
  873MOL0     C15119   9.201   1.769   7.086  0.5303 -0.6808 -0.1242
  873MOL0     C15120   9.318   1.808   6.999 -0.1270  0.3663 -0.0643
  873MOL0     N15121   9.349   1.706   6.897  0.5591 -0.6276  0.2038
  873MOL0     C15122   9.319   1.715   6.763 -0.8955 -0.1146  0.0951
  873MOL0     C15123   9.407   1.623   6.706  0.7866 -0.4721  0.4016
  873MOL0     C15124   9.406   1.600   6.561 -0.2957 -0.4500 -0.1373
  873MOL0     C15125   9.411   1.454   6.510  0.5899 -0.0305 -0.7326
  873MOL0     C15126   9.283   1.378   6.524 -0.2635 -0.1510 -0.0351
  873MOL0     C15127   9.310   1.232   6.492  0.4971  0.0595 -0.1632
  873MOL0     O15128   9.181   1.163   6.464  0.0846 -0.2314  0.4152
  873MOL0     C15129   9.170   1.057   6.379 -0.4834  1.1778 -0.2656
  873MOL0     C15130   9.289   0.990   6.342  0.1173 -0.1497  0.7354
  873MOL0     C15131   9.267   0.872   6.260  0.4546  0.4107 -0.0402
  873MOL0     C15132   9.137   0.827   6.221  0.6078  0.3953  0.0366
  873MOL0     C15133   9.119   0.712   6.140 -0.2868  0.5699  0.5980
  873MOL0     O15134   9.240   0.645   6.119  0.2890 -0.1928  0.2462
  873MOL0     C15135   9.240   0.514   6.083  1.1429 -0.1343  0.1114
  873MOL0     C15136   9.328   0.476   5.975  0.0756  0.8260  0.5857
  873MOL0     C15137   9.330   0.347   5.921  0.6000  0.2063 -0.0632
  873MOL0     C15138   9.244   0.248   5.990 -0.0561 -0.7716  0.6393
  873MOL0     O15139   9.255   0.113   5.980 -0.3488  0.3512  0.0722
  873MOL0     C15140   9.336   0.068   5.875 -0.2818  0.2015 -0.0542
  873MOL0     C15141   9.313  -0.083   5.864 -0.5303 -0.7827  0.5460
  873MOL0     C15142   9.374  -0.163   5.980  0.7674 -0.1172 -0.1068
  873MOL0     C15143   9.343  -0.113   6.125 -0.6774  0.2953 -0.2032
  873MOL0     C15144   9.400  -0.208   6.233  0.0185  0.2107 -0.4420
  873MOL0     C15145   9.555  -0.200   6.234  0.4022 -0.1281  0.1041
  873MOL0     C15146   9.595  -0.210   6.377 -0.6038 -0.4102 -0.4779
  873MOL0     C15147   9.759  -0.218   6.390 -0.4106 -0.0206 -1.1467
  873MOL0    Cl15148   9.842  -0.321   6.267 -0.6129  0.1405 -0.0104
  873MOL0     C15149   9.158   0.282   6.100  0.5921  0.0706  0.1733
  873MOL0     C15150   9.165   0.417   6.145 -0.4875  0.0093 -0.5089
  873MOL0     O15151   9.005   0.670   6.098  0.2060 -0.8280 -0.9947
  873MOL0     C15152   9.031   0.889   6.281  0.3203 -0.0639 -0.5629
  873MOL0     C15153   9.042   1.003   6.359 -0.0928 -0.0326  0.2217
  873MOL0     N15154   9.476   1.560   6.804 -0.2441 -0.2341 -0.4226
  873MOL0     N15155   9.441   1.611   6.915 -0.1002  0.2065 -0.3326
  873MOL0     C15156   8.561   1.391   7.714 -0.5105 -0.6544  0.5829
  873MOL0     C15157   8.513   1.410   7.848 -0.1010  0.0973 -0.4480
  873MOL0     C15158   8.531   1.566   8.272 -1.4480 -0.3794 -0.0100
  873MOL0     C15159   8.521   1.697   8.324  0.0638  0.1341  0.1880
  873MOL0     C15160   8.477   1.723   8.451 -0.3983  0.0664  0.3321
  873MOL0     C15161   8.446   1.619   8.532  0.6058 -0.5185  0.3877
  873MOL0     O15162   8.419   1.655   8.663 -0.2214 -0.0546  0.3597
  873MOL0     C15163   8.441   1.555   8.762 -0.4946  0.1779 -0.1818
  873MOL0     C15164   8.421   1.619   8.911 -0.2786  0.1559  0.6180
  873MOL0     C15165   8.274   1.654   8.936  0.6557  0.0504  0.1567
  873MOL0     C15166   8.210   1.550   9.028  0.4880  0.3619 -1.1973
  873MOL0     C15167   8.063   1.578   9.054 -0.7341 -0.1826 -0.4512
  873MOL0     C15168   7.946   1.612   9.058 -1.3000  0.4294 -0.4498
  873MOL0     C15169   8.454   1.484   8.490 -0.5402  0.6484  1.0748
  873MOL0     C15170   8.501   1.462   8.362 -0.5673  1.4935 -0.3435
  873MOL0     H15171   8.824   1.426   7.993  0.9975  1.7628 -1.9685
  873MOL0     H15172   8.893   1.426   7.748 -0.4926  2.7714  0.9855
  873MOL0     H15173   8.724   1.585   7.546  0.1450 -0.3246  0.4993
  873MOL0     H15174   8.655   1.475   7.428  0.1293 -1.8370 -0.1680
  873MOL0     H15175   8.849   1.396   7.325 -0.9326  0.2971 -0.7625
  873MOL0     H15176   8.947   1.486   7.439  0.6821 -2.5410 -2.2870
  873MOL0     H15177   8.817   1.696   7.358 -0.6109 -1.3917  1.0481
  873MOL0     H15178   8.757   1.594   7.223 -0.5306  1.5026  0.0632
  873MOL0     H15179   9.037   1.687   7.310 -3.7253  2.3241  1.8369
  873MOL0     H15180   9.027   1.561   7.187  0.4024 -1.1130  0.6592
  873MOL0     H15181   8.949   1.860   7.174 -0.9325 -0.6115  1.7959
  873MOL0     H15182   8.875   1.740   7.057  0.2147 -0.9693  0.2306
  873MOL0     H15183   9.054   1.821   6.943  0.0648  2.5266  1.9812
  873MOL0     H15184   9.049   1.659   6.969 -0.2067 -1.7714  1.9748
  873MOL0     H15185   9.205   1.834   7.174 -0.2428 -0.5283 -0.1903
  873MOL0     H15186   9.241   1.674   7.121  5.0835  0.8592 -0.4409
  873MOL0     H15187   9.403   1.822   7.067 -1.6907  0.1920  2.0668
  873MOL0     H15188   9.313   1.911   6.963  1.7155  0.5585  0.1409
  873MOL0     H15189   9.242   1.771   6.711  1.5200  2.2098 -1.2390
  873MOL0     H15190   9.492   1.654   6.520  0.3435 -1.4111 -0.1109
  873MOL0     H15191   9.314   1.644   6.524  0.5388  1.6230  0.1107
  873MOL0     H15192   9.500   1.421   6.564  1.6930 -0.3964 -2.6757
  873MOL0     H15193   9.439   1.457   6.404 -1.4565  1.1404 -1.3201
  873MOL0     H15194   9.256   1.373   6.630  0.6553  0.4781  0.2310
  873MOL0     H15195   9.191   1.414   6.477  0.2635 -0.4689 -1.3447
  873MOL0     H15196   9.370   1.179   6.566  0.5590 -1.1365 -1.0489
  873MOL0     H15197   9.360   1.215   6.397  0.2721 -2.9959  0.1668
  873MOL0     H15198   9.386   1.025   6.375  0.2272  2.4878 -1.9593
  873MOL0     H15199   9.355   0.815   6.235  3.2234  3.0871  2.7397
  873MOL0     H15200   9.402   0.546   5.937  1.1633 -0.1565  0.8327
  873MOL0     H15201   9.379   0.334   5.825 -0.9373 -1.6500 -0.6675
  873MOL0     H15202   9.435   0.102   5.904 -0.8737  1.2865  0.8088
  873MOL0     H15203   9.314   0.112   5.777 -2.8862 -1.0432 -0.1168
  873MOL0     H15204   9.356  -0.112   5.768  1.1178  1.8362  0.3754
  873MOL0     H15205   9.207  -0.103   5.849 -0.7454  0.7285 -0.2315
  873MOL0     H15206   9.483  -0.158   5.972  0.6870 -0.4508 -1.8481
  873MOL0     H15207   9.339  -0.266   5.969  1.6265 -0.7954  2.8379
  873MOL0     H15208   9.386  -0.013   6.139  0.5236 -0.0635 -1.1360
  873MOL0     H15209   9.235  -0.108   6.137 -0.5666  0.4231  0.7796
  873MOL0     H15210   9.366  -0.312   6.219  0.8128 -0.5601  2.6401
  873MOL0     H15211   9.359  -0.182   6.331 -2.4281 -3.9669 -0.1038
  873MOL0     H15212   9.587  -0.102   6.200  0.0248  0.1791  0.6068
  873MOL0     H15213   9.593  -0.273   6.162  0.9749  1.2744 -1.0466
  873MOL0     H15214   9.559  -0.123   6.431 -1.3891 -0.2999 -1.1519
  873MOL0     H15215   9.551  -0.299   6.423  0.3303 -1.5076 -1.6019
  873MOL0     H15216   9.786  -0.257   6.488 -1.3484 -1.4841 -1.4387
  873MOL0     H15217   9.801  -0.120   6.367 -2.9655  0.9551 -1.9812
  873MOL0     H15218   9.102   0.203   6.149  1.8994 -1.0778 -0.1170
  873MOL0     H15219   9.104   0.446   6.229  3.1172  3.5109  1.2705
  873MOL0     H15220   8.928   0.854   6.278 -0.1356  0.7523  2.3958
  873MOL0     H15221   8.958   1.064   6.390 -0.3441 -0.4307  0.3349
  873MOL0     H15222   8.507   1.370   7.622  3.4117  1.2518 -2.4604
  873MOL0     H15223   8.407   1.429   7.864  0.1084  0.3293  0.7126
  873MOL0     H15224   8.539   1.784   8.262 -2.2247  1.2173  0.9224
  873MOL0     H15225   8.467   1.822   8.495  0.2370 -0.2221  1.1461
  873MOL0     H15226   8.542   1.513   8.760 -0.6111 -0.2745  1.6385
  873MOL0     H15227   8.369   1.473   8.748 -1.8110  1.3918 -0.8726
  873MOL0     H15228   8.458   1.551   8.988 -3.2217 -4.3548 -1.5167
  873MOL0     H15229   8.476   1.713   8.917 -1.0407  0.5534  1.6829
  873MOL0     H15230   8.229   1.657   8.836 -0.3832 -2.9598  0.4410
  873MOL0     H15231   8.254   1.754   8.977 -3.2549  0.2414 -1.7258
  873MOL0     H15232   8.231   1.450   8.990  0.9251  0.2806 -0.7524
  873MOL0     H15233   8.262   1.544   9.124  0.2359  2.0503 -0.9126
  873MOL0     H15234   7.840   1.620   9.075 -1.5729 -1.3687 -1.1217
  873MOL0     H15235   8.441   1.400   8.557  2.1805  0.5189  1.5762
  873MOL0     H15236   8.508   1.357   8.333  0.0537  1.5628 -0.4769
  874MOL0     O15237  10.529   1.765   8.994  0.4567 -0.8250  0.2012
  874MOL0     C15238  10.486   1.862   8.927  0.2150  0.4822 -0.0989
  874MOL0     O15239  10.461   1.985   8.979  0.3930 -1.2660 -0.1909
  874MOL0     C15240  10.434   1.989   9.110 -0.2862 -0.5460 -0.2145
  874MOL0     C15241  10.307   1.957   9.156  0.4305  0.4562  0.1442
  874MOL0     C15242  10.288   1.948   9.297  0.1667 -0.7007 -0.7631
  874MOL0     C15243  10.395   1.984   9.383 -0.2911 -0.2634  0.4962
  874MOL0     O15244  10.360   1.988   9.512 -0.5413 -0.2935  0.4339
  874MOL0     C15245  10.457   1.940   9.596 -0.2855  0.3506  0.1222
  874MOL0     C15246  10.385   1.875   9.705 -0.2236 -0.6522  0.0479
  874MOL0     C15247  10.374   1.980   9.827 -1.1577  0.6692  0.3949
  874MOL0     C15248  10.281   1.942   9.937  0.0755 -0.0566 -0.6319
  874MOL0     C15249  10.225   2.066  10.006 -0.4566 -1.1184 -0.5447
  874MOL0     C15250  10.136   2.022  10.125  0.3938  0.0017  0.1330
  874MOL0     C15251  10.148   2.141  10.228  0.4700 -0.5188 -0.2884
  874MOL0     C15252  10.095   2.272  10.162  0.7988  0.4629 -0.6334
  874MOL0     N15253  10.073   2.390  10.251  0.4032  0.2974 -1.1510
  874MOL0     C15254  10.050   2.397  10.385  0.0767 -0.3814  0.4811
  874MOL0     C15255  10.059   2.535  10.411 -0.5666 -0.0700  0.3190
  874MOL0     C15256  10.054   2.585  10.553  0.4118 -0.0454 -0.0149
  874MOL0     C15257  10.164   2.691  10.579 -0.2742 -0.3126 -0.2693
  874MOL0     C15258  10.131   2.764  10.713  0.3942  0.7828  0.8634
  874MOL0     C15259  10.217   2.893  10.736  0.0074  0.6330 -0.3086
  874MOL0     O15260  10.176   2.964  10.849  0.6245 -0.2105 -0.4739
  874MOL0     C15261  10.263   3.065  10.893 -0.2184  0.1390  0.6448
  874MOL0     C15262  10.265   3.102  11.025 -0.6886 -1.2016 -0.1748
  874MOL0     C15263  10.357   3.200  11.081 -1.1013  0.4827  0.8753
  874MOL0     C15264  10.450   3.264  10.997  1.0126 -0.7342 -0.3813
  874MOL0     C15265  10.523   3.382  11.039  0.3898  0.0660  1.2530
  874MOL0     O15266  10.528   3.405  11.168 -0.1230 -0.4557 -0.4204
  874MOL0     C15267  10.618   3.500  11.211 -0.8533  0.4909 -0.9042
  874MOL0     C15268  10.648   3.629  11.154 -1.4040  1.0431 -0.6922
  874MOL0     C15269  10.734   3.715  11.220 -0.3304  0.7298  0.0599
  874MOL0     C15270  10.800   3.667  11.339  0.2501 -0.6152 -0.6548
  874MOL0     O15271  10.895   3.746  11.425  0.0721  0.1499 -0.5177
  874MOL0     C15272  10.956   3.832  11.337 -0.3456  0.9825  0.4809
  874MOL0     C15273  11.079   3.893  11.399 -0.4092 -1.2163 -0.5339
  874MOL0     C15274  11.044   3.939  11.543 -0.0374  0.2129 -0.2000
  874MOL0     C15275  10.902   4.003  11.563 -0.6346 -0.0260  0.9116
  874MOL0     C15276  10.889   4.049  11.716  0.2513 -0.5557  0.4146
  874MOL0     C15277  10.766   4.130  11.743 -1.0920  0.5218 -0.9716
  874MOL0     C15278  10.731   4.245  11.642 -0.6335  0.3861 -0.3815
  874MOL0     C15279  10.592   4.299  11.672  0.2102 -0.0160 -1.1565
  874MOL0    Cl15280  10.476   4.169  11.648 -0.0644  0.0123 -0.0451
  874MOL0     C15281  10.761   3.546  11.395 -0.0645 -0.1742  0.4753
  874MOL0     C15282  10.672   3.462  11.329 -0.1089 -0.0123 -0.6331
  874MOL0     O15283  10.606   3.420  10.954 -0.4939  0.1012 -0.0283
  874MOL0     C15284  10.436   3.231  10.862  0.2898 -0.9849 -0.2919
  874MOL0     C15285  10.360   3.130  10.815  0.0886 -0.5470  0.3419
  874MOL0     N15286  10.088   2.608  10.292 -0.0695 -0.0704  0.1678
  874MOL0     N15287  10.098   2.520  10.204 -0.5742 -0.4365 -0.8434
  874MOL0     C15288  10.522   2.026   9.332  0.5287 -0.4040  0.2169
  874MOL0     C15289  10.535   2.024   9.194 -0.3222  0.0435  0.7702
  874MOL0     C15290  10.484   1.841   8.781  0.0876 -0.7104 -0.7317
  874MOL0     C15291  10.468   1.964   8.704 -0.1784 -0.3569  0.7866
  874MOL0     C15292  10.488   1.956   8.564  0.5724 -1.0611  0.2156
  874MOL0     C15293  10.502   1.831   8.498  0.2523  0.5856  0.4694
  874MOL0     O15294  10.536   1.832   8.362 -0.5862 -0.2235 -0.5476
  874MOL0     C15295  10.624   1.735   8.309  0.0128 -0.8665 -0.5591
  874MOL0     C15296  10.538   1.612   8.263  0.5617 -0.4191 -0.3971
  874MOL0     C15297  10.549   1.593   8.111  0.4351  0.4216  0.7036
  874MOL0     C15298  10.692   1.550   8.069  0.2627  0.1886 -0.6506
  874MOL0     C15299  10.695   1.464   7.950  0.3536 -0.0562 -1.0420
  874MOL0     C15300  10.695   1.425   7.838  0.3555  0.6158 -0.0785
  874MOL0     C15301  10.505   1.715   8.580 -0.7657  0.4725  0.9737
  874MOL0     C15302  10.509   1.717   8.718  0.1584  0.2678  0.4615
  874MOL0     H15303  10.226   1.934   9.088  2.1255  0.2365 -1.9006
  874MOL0     H15304  10.190   1.928   9.339  0.7629  2.3342  2.5710
  874MOL0     H15305  10.521   2.021   9.632 -0.6560  1.7731 -2.2704
  874MOL0     H15306  10.532   1.881   9.541  0.0538  0.2141  0.7121
  874MOL0     H15307  10.449   1.791   9.734 -0.9453 -1.1418  0.2434
  874MOL0     H15308  10.290   1.835   9.668 -0.8910  0.4610  0.4877
  874MOL0     H15309  10.334   2.061   9.766 -3.5509 -1.2068 -0.7173
  874MOL0     H15310  10.475   2.004   9.862 -0.5700  1.4834 -1.7215
  874MOL0     H15311  10.195   1.889   9.894 -1.8353  1.8503  0.6401
  874MOL0     H15312  10.330   1.886  10.017 -0.7026  2.3093  1.6502
  874MOL0     H15313  10.158   2.115   9.935 -1.8934 -0.9715  0.8464
  874MOL0     H15314  10.307   2.133  10.032 -0.8833 -0.4936 -0.8034
  874MOL0     H15315  10.175   1.931  10.171 -0.7753 -0.4405  0.2852
  874MOL0     H15316  10.042   2.001  10.074  1.9291  1.1884 -3.4656
  874MOL0     H15317  10.087   2.120  10.317  2.9822 -4.3593  0.7585
  874MOL0     H15318  10.254   2.151  10.252  0.0641  0.5711  1.2341
  874MOL0     H15319   9.998   2.251  10.116  0.8044  0.0034 -0.4376
  874MOL0     H15320  10.153   2.294  10.071  0.6278  1.4331 -0.5227
  874MOL0     H15321  10.059   2.313  10.453  0.4130 -1.0739 -0.3944
  874MOL0     H15322  10.090   2.496  10.605  2.6856  0.6350 -0.3165
  874MOL0     H15323   9.957   2.629  10.577  1.0411  1.9585 -0.9180
  874MOL0     H15324  10.175   2.758  10.493 -1.2699  3.2812  2.1507
  874MOL0     H15325  10.261   2.642  10.594  2.2108  3.9596 -0.7123
  874MOL0     H15326  10.025   2.791  10.707  0.1280 -0.5558 -1.9752
  874MOL0     H15327  10.132   2.695  10.798 -1.9980 -1.4016 -0.7340
  874MOL0     H15328  10.205   2.952  10.645  0.8915 -0.8667 -1.4436
  874MOL0     H15329  10.320   2.856  10.735  0.6746  2.2145 -3.8489
  874MOL0     H15330  10.195   3.063  11.098  0.3622 -1.8562  0.5152
  874MOL0     H15331  10.344   3.211  11.188  0.4395 -2.3187  1.4326
  874MOL0     H15332  10.594   3.655  11.063  0.6145 -1.0413 -2.6376
  874MOL0     H15333  10.750   3.811  11.172  0.2161  0.1551 -0.9444
  874MOL0     H15334  10.892   3.917  11.310 -1.5939 -0.3573 -1.0085
  874MOL0     H15335  10.975   3.784  11.241 -3.0802 -0.5262  0.5820
  874MOL0     H15336  11.108   3.968  11.326  0.7940  0.0666  1.1889
  874MOL0     H15337  11.165   3.827  11.410 -1.8059 -2.7863  2.0200
  874MOL0     H15338  11.133   3.996  11.569  0.6273 -1.6147  1.8546
  874MOL0     H15339  11.064   3.851  11.604  1.0927  1.6624  1.6066
  874MOL0     H15340  10.911   4.094  11.503  4.0047  0.2595  1.7062
  874MOL0     H15341  10.815   3.948  11.528  0.8943 -0.3377 -2.7851
  874MOL0     H15342  10.970   4.120  11.730  0.5517 -0.2040 -2.3915
  874MOL0     H15343  10.882   3.968  11.789 -2.0732 -0.2962  0.5648
  874MOL0     H15344  10.752   4.167  11.845 -3.9850  0.2706 -1.2061
  874MOL0     H15345  10.692   4.053  11.722  1.1343 -1.6160 -1.4511
  874MOL0     H15346  10.797   4.331  11.652  0.0420 -0.1133 -0.4859
  874MOL0     H15347  10.728   4.209  11.539  3.1280 -1.8143  0.0969
  874MOL0     H15348  10.564   4.369  11.593 -0.9178 -0.3513 -1.0680
  874MOL0     H15349  10.598   4.339  11.773  2.6469 -3.6487  0.3281
  874MOL0     H15350  10.811   3.507  11.483  0.0091  3.3614  2.1462
  874MOL0     H15351  10.658   3.363  11.373  4.6131 -0.1928  1.1426
  874MOL0     H15352  10.505   3.266  10.785 -0.7800 -0.8850 -1.2284
  874MOL0     H15353  10.363   3.120  10.707  0.8438 -1.5870  0.4484
  874MOL0     H15354  10.608   2.044   9.396 -0.5628  2.2835  1.0619
  874MOL0     H15355  10.627   2.045   9.141 -0.7384 -0.8911 -0.3471
  874MOL0     H15356  10.465   2.069   8.734 -1.2335  0.0593 -0.6700
  874MOL0     H15357  10.493   2.041   8.498 -0.7724 -4.1211 -4.2800
  874MOL0     H15358  10.697   1.710   8.386 -1.9457 -1.3758  1.2057
  874MOL0     H15359  10.674   1.782   8.223  2.6533 -1.9314  0.3069
  874MOL0     H15360  10.561   1.514   8.306 -0.0866 -0.6981 -0.6726
  874MOL0     H15361  10.433   1.631   8.287  0.3796  2.2976 -2.7434
  874MOL0     H15362  10.536   1.693   8.069 -2.0743  0.8863  2.3944
  874MOL0     H15363  10.480   1.518   8.072  1.7087  1.1962 -3.5411
  874MOL0     H15364  10.750   1.642   8.062 -2.1852  1.8327 -0.6885
  874MOL0     H15365  10.728   1.499   8.159 -0.7002  2.5633  1.1835
  874MOL0     H15366  10.693   1.390   7.737  1.0257  1.6430 -0.4662
  874MOL0     H15367  10.497   1.620   8.530  0.3225  1.8480 -2.0211
  874MOL0     H15368  10.530   1.622   8.767  4.8485  1.2599  0.8346
  875MOL0     O15369   7.996   3.973   1.621 -0.1382  0.1067 -0.6037
  875MOL0     C15370   8.060   4.069   1.594  0.0166 -0.4197  0.2363
  875MOL0     O15371   8.099   4.162   1.683  0.7644  0.3910  0.2640
  875MOL0     C15372   8.041   4.153   1.811 -1.0988 -0.1789  0.3639
  875MOL0     C15373   7.915   4.196   1.854  0.4674 -1.1070 -1.0839
  875MOL0     C15374   7.866   4.200   1.986  0.5220 -0.6500 -0.8530
  875MOL0     C15375   7.957   4.162   2.086 -1.1630  0.4922  0.1843
  875MOL0     O15376   7.944   4.155   2.224 -0.0106  0.3346 -0.4748
  875MOL0     C15377   7.810   4.167   2.276  0.0176 -0.2012  0.2011
  875MOL0     C15378   7.776   4.322   2.282  0.2578 -0.1296  0.2772
  875MOL0     C15379   7.850   4.407   2.387  0.0091 -0.5587  0.2385
  875MOL0     C15380   7.825   4.369   2.531  0.3768  0.0892  0.2017
  875MOL0     C15381   7.898   4.454   2.628  0.0302  0.5503  0.7677
  875MOL0     C15382   7.858   4.430   2.778  0.0451 -0.1487  0.9944
  875MOL0     C15383   7.969   4.495   2.864 -0.2133 -0.5127 -0.6635
  875MOL0     C15384   7.939   4.480   3.022 -0.6699  0.0764  0.7808
  875MOL0     N15385   8.022   4.577   3.101 -0.0794 -0.6248  0.5010
  875MOL0     C15386   8.156   4.596   3.103  0.2401  0.0460  0.6873
  875MOL0     C15387   8.179   4.706   3.177 -0.3483  0.6423  0.9747
  875MOL0     C15388   8.320   4.763   3.198  0.3681  0.5727  0.3460
  875MOL0     C15389   8.398   4.720   3.313 -0.0354 -0.6613 -0.3937
  875MOL0     C15390   8.360   4.786   3.443 -0.4194 -0.0089  0.3309
  875MOL0     C15391   8.222   4.759   3.508 -0.1784  0.4092 -0.4096
  875MOL0     O15392   8.234   4.807   3.644  0.5981 -0.6489  0.0919
  875MOL0     C15393   8.303   4.729   3.734  0.4434  0.2202 -0.2281
  875MOL0     C15394   8.331   4.592   3.723 -0.5855 -0.4107  0.1350
  875MOL0     C15395   8.370   4.516   3.827  0.0324 -0.1648 -0.7052
  875MOL0     C15396   8.397   4.567   3.954  0.2354 -0.7955 -0.6729
  875MOL0     C15397   8.439   4.486   4.065  0.1176  0.2532  0.9255
  875MOL0     O15398   8.439   4.350   4.040 -0.4086 -0.3973  0.4662
  875MOL0     C15399   8.470   4.263   4.144 -0.1567 -0.2325  0.9819
  875MOL0     C15400   8.606   4.250   4.184 -0.9206  1.0111  0.1926
  875MOL0     C15401   8.649   4.164   4.283  0.8218 -0.0541 -1.2310
  875MOL0     C15402   8.544   4.087   4.345 -0.3265  0.0517 -0.3967
  875MOL0     O15403   8.584   4.003   4.447 -0.7636  0.0220 -0.2217
  875MOL0     C15404   8.506   3.989   4.565 -0.1020  0.5446 -1.0069
  875MOL0     C15405   8.519   4.118   4.643 -0.9274  0.6199 -0.2943
  875MOL0     C15406   8.408   4.122   4.751 -0.1975  0.0433  0.3555
  875MOL0     C15407   8.426   4.251   4.834 -0.0231  0.4683  0.3665
  875MOL0     C15408   8.297   4.296   4.899 -0.0011  0.8479 -0.4942
  875MOL0     C15409   8.255   4.192   4.994 -0.0869  0.2289 -0.5153
  875MOL0     C15410   8.146   4.246   5.091  0.7755  0.1156 -0.1877
  875MOL0     C15411   8.087   4.148   5.177 -0.8723 -0.7929 -0.4330
  875MOL0    Cl15412   7.979   4.050   5.073 -0.3709 -0.2876 -0.2718
  875MOL0     C15413   8.412   4.106   4.309  0.3724  0.1063  0.8209
  875MOL0     C15414   8.370   4.187   4.202 -0.4299  0.5274 -1.2418
  875MOL0     O15415   8.477   4.535   4.174  0.1938 -0.8756 -0.6475
  875MOL0     C15416   8.392   4.705   3.959  0.2242 -0.2720  0.3248
  875MOL0     C15417   8.327   4.782   3.859 -0.6126 -1.4429 -0.0858
  875MOL0     N15418   8.055   4.742   3.232 -0.4259  0.2668  0.0055
  875MOL0     N15419   7.967   4.658   3.189 -0.0570 -0.8171 -0.2136
  875MOL0     C15420   8.081   4.120   2.047 -0.1950  0.0050  0.4997
  875MOL0     C15421   8.129   4.099   1.910 -0.5761  0.4813 -0.5158
  875MOL0     C15422   8.117   4.078   1.448  0.6975 -0.9636 -1.7224
  875MOL0     C15423   8.185   4.198   1.406 -0.6052 -0.4718 -0.4718
  875MOL0     C15424   8.241   4.205   1.278 -0.4589 -0.1753  0.5437
  875MOL0     C15425   8.233   4.098   1.187  0.6474  1.2230 -0.0512
  875MOL0     O15426   8.284   4.121   1.067  0.1210 -0.1586 -0.0362
  875MOL0     C15427   8.217   4.109   0.941  0.3435 -0.9076  0.1904
  875MOL0     C15428   8.169   4.257   0.924  0.1921  0.2106 -0.2730
  875MOL0     C15429   8.072   4.260   0.806 -0.4065 -0.4900 -0.1440
  875MOL0     C15430   8.058   4.400   0.740 -0.0567  0.8625  0.3083
  875MOL0     C15431   7.962   4.407   0.622  0.1508  0.1760  0.4931
  875MOL0     C15432   7.880   4.423   0.530 -1.0617 -0.1744 -0.0255
  875MOL0     C15433   8.161   3.988   1.226  0.9681  0.3946 -0.2189
  875MOL0     C15434   8.109   3.970   1.361 -0.4983 -0.1055 -0.6073
  875MOL0     H15435   7.843   4.214   1.774 -3.4489  1.7928  2.5923
  875MOL0     H15436   7.761   4.221   2.007  0.6669 -2.1389  1.7614
  875MOL0     H15437   7.791   4.128   2.376 -0.5829 -0.0532  0.1464
  875MOL0     H15438   7.751   4.099   2.214  0.4373 -1.9632  1.6702
  875MOL0     H15439   7.668   4.315   2.300  0.1062  3.5445  1.5574
  875MOL0     H15440   7.770   4.372   2.185  2.5825  1.5015  0.8927
  875MOL0     H15441   7.811   4.508   2.373 -4.0168 -1.8332  1.0177
  875MOL0     H15442   7.958   4.402   2.370  0.0472 -1.3811  0.6613
  875MOL0     H15443   7.717   4.380   2.549  0.3192  0.5865 -0.4119
  875MOL0     H15444   7.854   4.264   2.540 -0.1226 -0.0691 -0.0112
  875MOL0     H15445   7.891   4.556   2.590  3.2966  0.5926 -0.0126
  875MOL0     H15446   8.004   4.428   2.619  0.9914  2.7785  4.1445
  875MOL0     H15447   7.836   4.326   2.804 -1.5948 -0.0992 -0.0646
  875MOL0     H15448   7.757   4.468   2.793 -1.6125 -3.8650  0.3032
  875MOL0     H15449   8.055   4.433   2.836 -1.8208 -3.9684  1.4137
  875MOL0     H15450   7.980   4.602   2.844  0.0641 -0.3200  0.4507
  875MOL0     H15451   7.970   4.382   3.060  1.6373 -0.1565 -1.4377
  875MOL0     H15452   7.833   4.506   3.031 -1.0852  0.0231 -2.4709
  875MOL0     H15453   8.227   4.547   3.038  0.0430  1.1698 -0.3987
  875MOL0     H15454   8.306   4.872   3.194  0.7569  0.5715 -2.2733
  875MOL0     H15455   8.392   4.745   3.117  4.6348  1.8616  3.4419
  875MOL0     H15456   8.503   4.745   3.296  0.0077  1.1805  1.9585
  875MOL0     H15457   8.399   4.612   3.325  0.2171 -0.7416 -1.0981
  875MOL0     H15458   8.436   4.760   3.516  1.7385  1.8403 -1.1220
  875MOL0     H15459   8.380   4.893   3.434 -0.3736 -0.1885 -3.5392
  875MOL0     H15460   8.189   4.655   3.504 -2.7586  0.8961  3.1244
  875MOL0     H15461   8.155   4.821   3.447  1.7581  0.4577 -2.6152
  875MOL0     H15462   8.313   4.535   3.632 -0.4367 -3.6051  1.9425
  875MOL0     H15463   8.387   4.412   3.801  1.5323  0.1831 -1.2320
  875MOL0     H15464   8.683   4.316   4.146  2.2161 -1.8439  1.0589
  875MOL0     H15465   8.752   4.180   4.314  0.7052 -0.1156 -0.7990
  875MOL0     H15466   8.545   3.909   4.629  0.3020 -0.1257 -2.0716
  875MOL0     H15467   8.400   3.976   4.544  0.0228  0.0168 -1.3133
  875MOL0     H15468   8.502   4.207   4.581 -0.0344  2.7172  2.2665
  875MOL0     H15469   8.614   4.122   4.698 -1.5531 -0.1780  0.8848
  875MOL0     H15470   8.420   4.038   4.821  2.2787 -0.9854 -1.1739
  875MOL0     H15471   8.311   4.118   4.702  0.5101 -0.4657 -1.0570
  875MOL0     H15472   8.505   4.240   4.910  1.3874 -3.3760 -1.3847
  875MOL0     H15473   8.445   4.325   4.756 -2.3875 -1.5639 -2.3363
  875MOL0     H15474   8.225   4.311   4.818 -2.1861  1.9623  1.5322
  875MOL0     H15475   8.320   4.393   4.942  2.0252  0.2417 -0.0908
  875MOL0     H15476   8.339   4.148   5.049 -0.5722 -1.2204 -0.8726
  875MOL0     H15477   8.213   4.120   4.923  1.3226  0.1313 -1.2857
  875MOL0     H15478   8.186   4.325   5.155  0.1952  0.7989 -0.6496
  875MOL0     H15479   8.067   4.295   5.033  1.9418 -0.7342 -2.6444
  875MOL0     H15480   8.034   4.203   5.256 -0.3944 -0.1174 -0.5748
  875MOL0     H15481   8.150   4.079   5.233 -2.6245 -2.9897 -0.9935
  875MOL0     H15482   8.324   4.075   4.364  1.0002 -0.3699  1.5813
  875MOL0     H15483   8.263   4.195   4.189 -0.9727  0.6978  2.2664
  875MOL0     H15484   8.433   4.756   4.046  2.4736 -2.6698  0.7624
  875MOL0     H15485   8.308   4.886   3.882 -0.4935 -1.6884  1.2059
  875MOL0     H15486   8.149   4.099   2.129 -1.4352  0.5864  1.7293
  875MOL0     H15487   8.229   4.067   1.880 -1.5322 -0.2011 -3.2190
  875MOL0     H15488   8.178   4.291   1.462  2.9348 -1.5631  2.1921
  875MOL0     H15489   8.288   4.291   1.232  2.4841 -2.4711 -1.1374
  875MOL0     H15490   8.133   4.039   0.951  0.4780 -0.8847  1.7561
  875MOL0     H15491   8.282   4.085   0.857 -0.4790  0.0293 -0.7375
  875MOL0     H15492   8.105   4.278   1.011  0.1266 -1.0412 -0.0025
  875MOL0     H15493   8.245   4.334   0.909 -0.8085  0.8648 -2.2816
  875MOL0     H15494   7.975   4.214   0.829  0.3066 -2.1222 -0.2475
  875MOL0     H15495   8.110   4.195   0.726 -0.2986 -1.7570  0.8917
  875MOL0     H15496   8.045   4.475   0.818  0.0368  2.0149 -0.7567
  875MOL0     H15497   8.154   4.422   0.692  0.5957 -3.2262 -0.7061
  875MOL0     H15498   7.804   4.448   0.458 -2.0041  2.8748  1.8549
  875MOL0     H15499   8.164   3.901   1.162  2.9381  0.1026  0.2150
  875MOL0     H15500   8.077   3.869   1.385 -1.3487 -0.7445 -3.9046
  876MOL0     O15501   8.594   4.542  10.630  0.3900  0.1105 -0.5416
  876MOL0     C15502   8.645   4.643  10.671 -0.6949 -0.9892 -0.9721
  876MOL0     O15503   8.777   4.675  10.649 -0.2519  0.3371  0.0258
  876MOL0     C15504   8.858   4.610  10.554  0.5350 -0.3462  0.4044
  876MOL0     C15505   8.849   4.477  10.507  0.1372 -0.7122  0.3307
  876MOL0     C15506   8.938   4.437  10.418 -0.4520 -0.4921  1.3767
  876MOL0     C15507   9.048   4.514  10.384 -0.1967  0.5778 -0.0638
  876MOL0     O15508   9.138   4.454  10.305 -0.1180 -0.6721  0.3153
  876MOL0     C15509   9.239   4.521  10.242  0.3151  0.1864 -0.4819
  876MOL0     C15510   9.244   4.465  10.095 -0.7029  0.1964 -0.0562
  876MOL0     C15511   9.115   4.494  10.015  0.0178 -0.1424  0.0660
  876MOL0     C15512   9.102   4.432   9.871 -0.4148 -0.1654  0.7335
  876MOL0     C15513   8.967   4.458   9.816 -0.3382 -0.0060 -0.0151
  876MOL0     C15514   8.926   4.613   9.785 -0.2149 -0.8830 -0.3503
  876MOL0     C15515   8.790   4.632   9.697  0.4780  0.9152  0.3279
  876MOL0     C15516   8.743   4.779   9.677  0.1929 -0.2376 -0.1369
  876MOL0     N15517   8.842   4.881   9.636 -0.4004 -0.0049 -0.2425
  876MOL0     C15518   8.909   4.950   9.734  0.1530  0.2435 -0.2363
  876MOL0     C15519   8.961   5.048   9.665 -0.3276  0.3780 -1.4738
  876MOL0     C15520   9.053   5.151   9.723  0.5719 -0.2641  0.1295
  876MOL0     C15521   9.186   5.124   9.665 -0.4721  0.3629  0.4533
  876MOL0     C15522   9.290   5.220   9.741 -0.6925  0.2994  0.4864
  876MOL0     C15523   9.428   5.186   9.692 -0.0620 -1.5197  0.7312
  876MOL0     O15524   9.517   5.274   9.767 -0.1389 -0.7352  0.1482
  876MOL0     C15525   9.643   5.297   9.724  0.2189  0.4811 -0.4508
  876MOL0     C15526   9.714   5.205   9.658  0.2177 -0.3065 -0.2175
  876MOL0     C15527   9.842   5.223   9.615 -0.5522 -0.5995 -0.1238
  876MOL0     C15528   9.907   5.348   9.628  0.5206 -0.4957 -0.3932
  876MOL0     C15529  10.043   5.372   9.573 -0.4909 -0.0909  0.6561
  876MOL0     O15530  10.102   5.496   9.600 -0.5344  0.5500 -0.2221
  876MOL0     C15531  10.227   5.523   9.564 -0.2654  0.0176  0.3350
  876MOL0     C15532  10.335   5.429   9.543  0.0046 -0.0263  0.8744
  876MOL0     C15533  10.463   5.465   9.496 -0.2729  0.8246  1.1092
  876MOL0     C15534  10.486   5.599   9.461  0.8003  0.6261  0.7016
  876MOL0     O15535  10.604   5.626   9.397  0.0262  0.7381 -0.0066
  876MOL0     C15536  10.707   5.700   9.455  0.8755 -1.1682 -0.1654
  876MOL0     C15537  10.824   5.730   9.358 -0.7736  0.6636  0.8931
  876MOL0     C15538  10.783   5.828   9.247  0.4879  0.1873 -0.1053
  876MOL0     C15539  10.896   5.862   9.143  0.3965  0.3273  0.1323
  876MOL0     C15540  10.996   5.934   9.224  0.3034  0.4307 -0.2505
  876MOL0     C15541  11.097   5.998   9.115  0.7065  0.3685  0.1952
  876MOL0     C15542  11.228   6.034   9.175  0.0432  0.2460  0.5853
  876MOL0     C15543  11.333   6.076   9.072  0.7168  0.3388 -0.4978
  876MOL0    Cl15544  11.310   6.006   8.914 -0.7217  0.4001  0.1215
  876MOL0     C15545  10.378   5.694   9.478  0.2816 -0.0810  0.2707
  876MOL0     C15546  10.254   5.654   9.521 -0.3211 -0.0194 -0.9007
  876MOL0     O15547  10.096   5.288   9.506  0.2131  0.1325  0.2776
  876MOL0     C15548   9.827   5.451   9.695 -0.4235  0.7611  0.1342
  876MOL0     C15549   9.702   5.419   9.747  0.9639 -0.0567 -0.2584
  876MOL0     N15550   8.924   5.044   9.531 -0.3822  0.4505 -0.2978
  876MOL0     N15551   8.839   4.947   9.517  0.0009 -0.4180 -0.1106
  876MOL0     C15552   9.075   4.637  10.453  0.0884 -0.4749 -0.2654
  876MOL0     C15553   8.975   4.688  10.531 -0.6039  0.2658 -0.0462
  876MOL0     C15554   8.572   4.731  10.766  0.5103 -0.4248  0.0396
  876MOL0     C15555   8.645   4.844  10.803  0.7329  0.0402  0.1975
  876MOL0     C15556   8.586   4.945  10.878 -0.1264  0.7269  0.9811
  876MOL0     C15557   8.448   4.944  10.882  0.2845 -0.3494 -0.6861
  876MOL0     O15558   8.386   5.042  10.949  0.0289 -0.0634 -0.0745
  876MOL0     C15559   8.274   5.112  10.886  0.3219  0.6925  0.1159
  876MOL0     C15560   8.313   5.160  10.743  0.1593 -0.7696  0.2140
  876MOL0     C15561   8.403   5.277  10.744  0.3482  0.6808 -0.2916
  876MOL0     C15562   8.440   5.307  10.598 -0.1711 -0.3550  1.0066
  876MOL0     C15563   8.570   5.240  10.565 -1.2025  0.2687 -0.2003
  876MOL0     C15564   8.673   5.175  10.549  0.0431  0.2694 -0.3113
  876MOL0     C15565   8.374   4.834  10.830 -0.3797  0.8388 -0.1125
  876MOL0     C15566   8.433   4.722  10.780  0.2562  0.0707  1.3771
  876MOL0     H15567   8.776   4.405  10.541  1.6374 -1.7500  1.5286
  876MOL0     H15568   8.943   4.341  10.368 -1.0974  0.6830 -1.1134
  876MOL0     H15569   9.335   4.502  10.291  0.1796 -3.5297 -1.3270
  876MOL0     H15570   9.217   4.628  10.245  0.9220  0.3884  4.3006
  876MOL0     H15571   9.258   4.357  10.090  3.3130  0.5384  1.1146
  876MOL0     H15572   9.339   4.503  10.057 -0.0565 -2.1534 -0.9388
  876MOL0     H15573   9.113   4.603   9.999 -0.3909 -0.5599 -3.3938
  876MOL0     H15574   9.032   4.470  10.082  1.0944 -0.2878  1.3940
  876MOL0     H15575   9.180   4.481   9.812  1.1478 -0.1080  2.7810
  876MOL0     H15576   9.138   4.329   9.869  4.8491  1.4260  0.5665
  876MOL0     H15577   8.889   4.419   9.883  1.0266  2.0692  2.9771
  876MOL0     H15578   8.979   4.394   9.728  1.7090  0.4922 -0.1416
  876MOL0     H15579   9.009   4.673   9.744 -1.1845  0.8994  0.1900
  876MOL0     H15580   8.922   4.671   9.877  2.6158  1.6256 -1.6140
  876MOL0     H15581   8.806   4.592   9.597  0.2427  0.2008  0.5755
  876MOL0     H15582   8.701   4.581   9.736  0.4256  0.8773  0.1590
  876MOL0     H15583   8.690   4.809   9.768  1.7605 -0.3868  0.8693
  876MOL0     H15584   8.665   4.786   9.601 -0.3119  1.3675  0.4799
  876MOL0     H15585   8.913   4.915   9.837 -0.5368 -1.5221 -0.7686
  876MOL0     H15586   9.062   5.147   9.832  2.5338 -1.3816 -0.0325
  876MOL0     H15587   9.016   5.244   9.679 -0.2796 -1.4192 -1.6913
  876MOL0     H15588   9.178   5.152   9.560 -1.3675  1.5618  0.8093
  876MOL0     H15589   9.210   5.018   9.676 -2.2138 -0.2122 -0.8951
  876MOL0     H15590   9.276   5.328   9.731  2.6594  0.8399  0.4029
  876MOL0     H15591   9.286   5.196   9.847 -1.4138 -3.3342 -0.2453
  876MOL0     H15592   9.439   5.206   9.585  2.8382  2.0635  1.4828
  876MOL0     H15593   9.454   5.085   9.724 -0.1951 -0.6046  4.1534
  876MOL0     H15594   9.665   5.108   9.648 -0.8759  0.4657 -5.6739
  876MOL0     H15595   9.895   5.138   9.573  4.2384  2.1188 -0.2386
  876MOL0     H15596  10.324   5.328   9.581 -0.5019  1.2616  4.5592
  876MOL0     H15597  10.549   5.401   9.480  1.0262  2.6377  0.4799
  876MOL0     H15598  10.741   5.657   9.550 -2.1137  2.2604  2.7614
  876MOL0     H15599  10.662   5.797   9.475  1.9451 -1.0746  2.1292
  876MOL0     H15600  10.842   5.632   9.312 -4.1519  0.3551 -0.0450
  876MOL0     H15601  10.900   5.786   9.413  0.5889  1.0906 -1.2969
  876MOL0     H15602  10.748   5.917   9.300 -2.4734 -1.7303  1.4508
  876MOL0     H15603  10.699   5.780   9.196  0.3451 -0.3227  0.5906
  876MOL0     H15604  10.936   5.771   9.096  3.3010  2.4603 -1.8486
  876MOL0     H15605  10.860   5.911   9.052 -1.2498 -2.2177 -0.7297
  876MOL0     H15606  11.053   5.862   9.284  2.6405 -0.4616 -3.3207
  876MOL0     H15607  10.960   6.007   9.297  1.0790 -1.3445  2.0773
  876MOL0     H15608  11.044   6.087   9.081 -1.9908 -1.5126 -0.9290
  876MOL0     H15609  11.109   5.918   9.041  0.7545  0.8463 -0.3214
  876MOL0     H15610  11.200   6.109   9.250 -2.5635  2.6496 -2.4551
  876MOL0     H15611  11.273   5.950   9.229 -0.2672  0.0126  0.4835
  876MOL0     H15612  11.432   6.045   9.107  0.8717 -0.7236 -1.7650
  876MOL0     H15613  11.317   6.184   9.079 -1.1209  0.0049  1.4795
  876MOL0     H15614  10.401   5.796   9.447 -1.5001 -0.5675 -3.2513
  876MOL0     H15615  10.193   5.741   9.544  0.6855  1.1030 -2.2529
  876MOL0     H15616   9.871   5.548   9.719  0.1833  0.5635 -0.1540
  876MOL0     H15617   9.641   5.492   9.799 -0.6143  0.4005 -2.5782
  876MOL0     H15618   9.165   4.697  10.440 -0.6588  0.0765 -3.7683
  876MOL0     H15619   8.978   4.783  10.584 -1.7395  0.5420 -0.4446
  876MOL0     H15620   8.751   4.854  10.782  0.9428 -2.5015 -0.2811
  876MOL0     H15621   8.643   5.027  10.920 -0.3832  2.3234 -1.5374
  876MOL0     H15622   8.244   5.193  10.953  2.0716  1.0154  0.5653
  876MOL0     H15623   8.191   5.045  10.861 -0.4304  1.9770 -0.9646
  876MOL0     H15624   8.349   5.080  10.678  1.9944  0.8815 -0.9129
  876MOL0     H15625   8.222   5.190  10.691  0.8488 -1.1963 -1.2851
  876MOL0     H15626   8.488   5.268  10.814 -0.1441  2.2129  0.5425
  876MOL0     H15627   8.347   5.363  10.781  1.5818  2.0228 -1.4047
  876MOL0     H15628   8.362   5.270  10.530 -1.3464 -0.8655  2.5810
  876MOL0     H15629   8.447   5.416  10.598 -0.5596 -0.3209  0.3660
  876MOL0     H15630   8.751   5.105  10.525  0.3204  0.6661 -0.5724
  876MOL0     H15631   8.266   4.838  10.841 -0.1163  3.2846  2.9225
  876MOL0     H15632   8.373   4.638  10.747  2.5575 -0.9921 -0.3877
  877MOL0     O15633   8.493   0.594   4.068  0.0491 -0.7520  0.4815
  877MOL0     C15634   8.442   0.612   3.953 -0.0308  0.3264 -0.0971
  877MOL0     O15635   8.519   0.590   3.846  0.9006  0.0995  0.8275
  877MOL0     C15636   8.651   0.624   3.833  0.5753  0.2404  0.4623
  877MOL0     C15637   8.713   0.739   3.884 -0.5717  0.5554 -0.3767
  877MOL0     C15638   8.849   0.768   3.853 -1.1462  0.2039 -0.8091
  877MOL0     C15639   8.920   0.701   3.758 -0.9503  1.2405 -0.4495
  877MOL0     O15640   9.047   0.727   3.717  0.2704 -0.2500 -0.9806
  877MOL0     C15641   9.140   0.738   3.830 -0.1182 -0.4825 -0.8936
  877MOL0     C15642   9.264   0.648   3.803  0.3441  0.2718 -0.8510
  877MOL0     C15643   9.263   0.494   3.798 -0.7730 -0.1018 -0.7851
  877MOL0     C15644   9.205   0.447   3.932  0.2646  0.1172  0.0735
  877MOL0     C15645   9.185   0.304   3.941 -0.9921 -0.2291 -0.5526
  877MOL0     C15646   9.313   0.217   3.947  0.3342 -0.1496 -1.0721
  877MOL0     C15647   9.282   0.070   3.990 -0.5125 -0.1596 -0.4091
  877MOL0     C15648   9.272   0.054   4.137 -0.3800  0.6579  0.3594
  877MOL0     N15649   9.260  -0.084   4.189 -0.4892  0.8356  0.0799
  877MOL0     C15650   9.150  -0.158   4.218 -0.5331  0.4096  0.1817
  877MOL0     C15651   9.192  -0.272   4.272  0.6042 -0.2083 -0.5521
  877MOL0     C15652   9.086  -0.345   4.340  0.2409  0.2558  0.4911
  877MOL0     C15653   9.126  -0.490   4.332  0.3943 -0.0812  0.1881
  877MOL0     C15654   9.016  -0.586   4.360  0.1992  0.5018 -0.0989
  877MOL0     C15655   9.069  -0.727   4.351  0.4433  0.5851 -0.6841
  877MOL0     O15656   9.123  -0.765   4.472  0.2762  0.7727 -0.3160
  877MOL0     C15657   9.111  -0.901   4.497  0.8906  0.4166 -0.6128
  877MOL0     C15658   9.050  -0.943   4.613 -0.1173 -0.1651  0.2480
  877MOL0     C15659   9.030  -1.076   4.651 -0.0583 -0.6461  0.0202
  877MOL0     C15660   9.076  -1.173   4.555  0.3461 -0.2730 -0.0758
  877MOL0     C15661   9.043  -1.311   4.589  0.0218  0.7100 -0.1522
  877MOL0     O15662   8.977  -1.337   4.707 -0.2283  0.0697 -0.0580
  877MOL0     C15663   9.018  -1.449   4.772  0.7778 -0.0092  0.0197
  877MOL0     C15664   9.150  -1.459   4.829 -0.7203  0.4699  0.2723
  877MOL0     C15665   9.177  -1.565   4.917  0.1868 -0.7061  0.0027
  877MOL0     C15666   9.084  -1.657   4.948  0.3099 -0.3559  0.2450
  877MOL0     O15667   9.113  -1.749   5.039 -1.1068  0.6047 -0.0549
  877MOL0     C15668   9.011  -1.814   5.121  0.4169  0.7423 -0.1300
  877MOL0     C15669   9.060  -1.877   5.246 -0.7695 -0.0431  0.3111
  877MOL0     C15670   9.161  -1.978   5.202  0.3533 -0.7178  0.4074
  877MOL0     C15671   9.234  -2.036   5.328 -0.5545 -0.5355  0.1848
  877MOL0     C15672   9.169  -2.152   5.402  0.9898 -0.0670  0.6635
  877MOL0     C15673   9.252  -2.252   5.489 -0.0052 -0.1884  0.0734
  877MOL0     C15674   9.143  -2.353   5.550 -0.0503 -0.3673 -0.1376
  877MOL0     C15675   9.223  -2.439   5.647 -0.4448  0.2246 -0.0741
  877MOL0    Cl15676   9.328  -2.551   5.555  0.3678 -0.0525  0.4923
  877MOL0     C15677   8.957  -1.648   4.888  0.8777  0.0177  0.5761
  877MOL0     C15678   8.923  -1.549   4.794  0.1213  0.5493  0.2683
  877MOL0     O15679   9.070  -1.402   4.508 -0.4301 -0.2494  1.1357
  877MOL0     C15680   9.139  -1.135   4.435 -0.7476  1.5922  0.9069
  877MOL0     C15681   9.148  -1.001   4.409 -1.1939 -0.4171 -0.4135
  877MOL0     N15682   9.325  -0.275   4.280 -0.3703 -0.5991  0.3326
  877MOL0     N15683   9.368  -0.171   4.221  0.3378  0.2403  0.1678
  877MOL0     C15684   8.856   0.596   3.699 -0.3008  0.3709 -0.8767
  877MOL0     C15685   8.726   0.554   3.735  0.2765  0.6311  0.4429
  877MOL0     C15686   8.294   0.638   3.957 -0.6353 -0.2514  0.2894
  877MOL0     C15687   8.212   0.614   3.847 -0.9071 -0.6151  0.2286
  877MOL0     C15688   8.082   0.640   3.855  0.1824 -0.5236  0.3139
  877MOL0     C15689   8.022   0.710   3.961 -0.4438 -1.1638 -0.0584
  877MOL0     O15690   7.894   0.767   3.936 -0.0101  0.3339  0.0459
  877MOL0     C15691   7.842   0.869   4.031 -0.6826  0.1666 -0.1588
  877MOL0     C15692   7.899   1.016   4.024  0.8469 -0.6256 -0.8169
  877MOL0     C15693   7.836   1.079   3.898 -0.0583  0.7151  0.0488
  877MOL0     C15694   7.857   1.232   3.906 -0.0301  0.3146 -0.0352
  877MOL0     C15695   7.766   1.297   3.806 -0.4788 -0.3293 -0.4576
  877MOL0     C15696   7.719   1.363   3.717  2.0745  0.0593 -0.3147
  877MOL0     C15697   8.100   0.734   4.074 -0.0585 -0.1321  0.4604
  877MOL0     C15698   8.233   0.687   4.078  0.1530  0.1373 -0.1042
  877MOL0     H15699   8.660   0.792   3.962 -1.1129 -0.4368 -0.0601
  877MOL0     H15700   8.907   0.848   3.898  2.1057 -2.0825 -0.5348
  877MOL0     H15701   9.087   0.715   3.922 -2.7720  1.0567 -1.9453
  877MOL0     H15702   9.174   0.842   3.832 -2.1909  0.2379 -1.3873
  877MOL0     H15703   9.341   0.662   3.879  0.8674 -1.1005 -1.1003
  877MOL0     H15704   9.308   0.678   3.707 -2.5212 -0.9076 -2.6591
  877MOL0     H15705   9.364   0.453   3.792 -1.1376 -1.0739 -0.5575
  877MOL0     H15706   9.206   0.458   3.712 -0.7695 -1.3070 -0.2979
  877MOL0     H15707   9.267   0.487   4.013 -0.1578  0.1137  0.4007
  877MOL0     H15708   9.108   0.495   3.949  1.4879  2.0675  1.9630
  877MOL0     H15709   9.146   0.275   3.843  0.0660  0.4999 -1.2012
  877MOL0     H15710   9.120   0.278   4.026  1.9123  1.5551  2.4466
  877MOL0     H15711   9.387   0.274   4.004  0.7482  0.9799 -2.6632
  877MOL0     H15712   9.342   0.228   3.843  0.6917 -2.3380 -1.2580
  877MOL0     H15713   9.192   0.027   3.943 -0.9620  2.1546 -1.8519
  877MOL0     H15714   9.371   0.011   3.965 -0.7512 -2.0080  2.6331
  877MOL0     H15715   9.186   0.104   4.181 -2.2398 -0.0609 -2.1910
  877MOL0     H15716   9.362   0.095   4.183  1.2519 -2.7322  0.4974
  877MOL0     H15717   9.051  -0.114   4.224 -0.6396  0.4717 -1.4653
  877MOL0     H15718   8.984  -0.339   4.300  0.3993 -0.7713 -0.1227
  877MOL0     H15719   9.083  -0.297   4.438 -1.7350  5.3933 -1.7260
  877MOL0     H15720   9.206  -0.497   4.407 -0.3153 -0.3825  0.9290
  877MOL0     H15721   9.175  -0.508   4.236 -1.0538  2.0521 -1.0571
  877MOL0     H15722   8.967  -0.573   4.457  1.7841  2.4260  0.4954
  877MOL0     H15723   8.946  -0.569   4.278  0.0903 -1.5298 -0.4953
  877MOL0     H15724   9.151  -0.749   4.281  0.3910 -0.4713 -0.4343
  877MOL0     H15725   8.986  -0.794   4.329 -2.8344  3.6830  1.2170
  877MOL0     H15726   9.000  -0.867   4.673  0.1025  1.1893 -1.2162
  877MOL0     H15727   8.971  -1.113   4.734  1.4499 -3.1861  0.0747
  877MOL0     H15728   9.212  -1.374   4.801  0.0177 -1.1236 -3.5972
  877MOL0     H15729   9.273  -1.573   4.967  1.0594  2.6357 -0.8261
  877MOL0     H15730   8.958  -1.891   5.063  0.2398 -0.4118  1.4969
  877MOL0     H15731   8.942  -1.733   5.146 -0.4089 -0.7488  2.9535
  877MOL0     H15732   8.986  -1.919   5.315  2.2445 -3.7433  1.6104
  877MOL0     H15733   9.105  -1.800   5.309  0.7083 -1.2339  0.7629
  877MOL0     H15734   9.226  -1.933   5.127 -0.6699 -1.3305 -0.8983
  877MOL0     H15735   9.104  -2.046   5.137  2.4773  0.1974 -2.6135
  877MOL0     H15736   9.326  -2.076   5.285 -1.6226 -1.2429 -1.5145
  877MOL0     H15737   9.270  -1.951   5.387 -0.4071 -0.2803 -0.2667
  877MOL0     H15738   9.125  -2.216   5.324  1.4464  0.3102  0.0851
  877MOL0     H15739   9.098  -2.104   5.469  0.5190  2.5783 -1.5304
  877MOL0     H15740   9.320  -2.208   5.563  0.7479 -0.0875 -0.6591
  877MOL0     H15741   9.323  -2.290   5.416  0.8466  0.9084  0.2939
  877MOL0     H15742   9.070  -2.295   5.607 -0.1253 -0.3703 -0.2314
  877MOL0     H15743   9.100  -2.416   5.471  1.9795 -2.8325  0.5738
  877MOL0     H15744   9.159  -2.489   5.720 -2.9023 -0.7088 -2.6497
  877MOL0     H15745   9.286  -2.370   5.704 -0.3459  2.3326 -2.5090
  877MOL0     H15746   8.870  -1.703   4.920 -1.0060  1.4231 -1.7897
  877MOL0     H15747   8.823  -1.522   4.760  0.0538 -0.9781 -0.8258
  877MOL0     H15748   9.179  -1.207   4.365 -0.6789 -0.4615  2.9406
  877MOL0     H15749   9.196  -0.973   4.316  1.0225  1.4596  1.1700
  877MOL0     H15750   8.902   0.532   3.624 -2.7571  0.6134 -2.7060
  877MOL0     H15751   8.679   0.469   3.687  1.5297  0.6102 -0.8126
  877MOL0     H15752   8.258   0.579   3.755  1.5289 -0.4472  1.3113
  877MOL0     H15753   8.031   0.626   3.760  0.3265  2.3352 -0.2781
  877MOL0     H15754   7.848   0.822   4.129 -1.5114 -2.6440 -1.3633
  877MOL0     H15755   7.735   0.883   4.012 -1.2706  0.6027  2.9759
  877MOL0     H15756   7.882   1.091   4.102 -0.5821  0.1020 -1.7845
  877MOL0     H15757   8.008   1.010   4.018  1.0857  2.8386 -2.7848
  877MOL0     H15758   7.729   1.058   3.895 -0.9889  3.9998  3.3069
  877MOL0     H15759   7.902   1.037   3.821 -0.5036 -2.9100  1.4755
  877MOL0     H15760   7.815   1.279   3.995  0.6446  0.7422  0.0650
  877MOL0     H15761   7.963   1.253   3.889  0.0670 -1.1801 -1.6335
  877MOL0     H15762   7.693   1.429   3.637  0.9223 -0.7031 -0.5872
  877MOL0     H15763   8.060   0.789   4.159 -1.9968 -2.9171  1.5111
  877MOL0     H15764   8.293   0.684   4.168 -2.2814 -2.1876  1.5894
  878MOL0     O15765   1.038   5.142   2.713  0.1391  0.1313  1.2101
  878MOL0     C15766   1.115   5.202   2.642  0.6227 -0.8386  0.5441
  878MOL0     O15767   1.091   5.329   2.591 -0.4470 -0.4797  0.2695
  878MOL0     C15768   0.966   5.382   2.623  0.7503  0.4673  1.3625
  878MOL0     C15769   0.852   5.349   2.545  0.5065 -0.2318  0.4604
  878MOL0     C15770   0.730   5.423   2.565 -0.5759  0.2314  0.9311
  878MOL0     C15771   0.727   5.522   2.662  0.5507 -0.7862  0.0566
  878MOL0     O15772   0.609   5.584   2.697 -0.6686 -0.1734  0.0375
  878MOL0     C15773   0.565   5.687   2.608 -0.0220 -0.0518 -0.6693
  878MOL0     C15774   0.412   5.672   2.586  0.6237  0.5034 -0.2944
  878MOL0     C15775   0.359   5.810   2.559  0.4254  0.1216 -0.1437
  878MOL0     C15776   0.219   5.803   2.501 -1.0796 -0.2396 -0.4854
  878MOL0     C15777   0.109   5.763   2.599 -0.3344  0.9746  0.6477
  878MOL0     C15778   0.080   5.887   2.683  0.0424  0.2272  0.3688
  878MOL0     C15779  -0.012   5.840   2.803 -0.2313 -0.8282 -1.0184
  878MOL0     C15780  -0.097   5.967   2.854  0.7790 -0.2970  0.6474
  878MOL0     N15781  -0.232   5.983   2.791 -0.2191  0.2782  0.4178
  878MOL0     C15782  -0.335   5.901   2.803 -0.5355 -0.4157  0.0922
  878MOL0     C15783  -0.429   5.950   2.729  0.0056 -0.7721  0.1175
  878MOL0     C15784  -0.581   5.927   2.741  0.1603  0.1008  0.3350
  878MOL0     C15785  -0.662   5.925   2.596  0.4834  0.7933  0.0602
  878MOL0     C15786  -0.809   5.886   2.590 -0.0731 -0.4308 -0.3755
  878MOL0     C15787  -0.849   5.741   2.586 -0.0472  0.4038 -0.0187
  878MOL0     O15788  -0.984   5.713   2.556 -0.0332 -0.1237  0.9013
  878MOL0     C15789  -1.015   5.673   2.429  0.1545 -0.4957  0.7104
  878MOL0     C15790  -1.015   5.759   2.323 -0.1126 -0.6914  0.6412
  878MOL0     C15791  -1.056   5.718   2.193  0.7251 -1.5692  0.3313
  878MOL0     C15792  -1.107   5.590   2.169 -1.4711  0.3179  0.5771
  878MOL0     C15793  -1.166   5.559   2.042  0.7151 -0.3811  0.3238
  878MOL0     O15794  -1.247   5.447   2.048  0.0107 -0.7551 -0.4995
  878MOL0     C15795  -1.309   5.405   1.934 -0.0474  0.5546 -0.2296
  878MOL0     C15796  -1.233   5.362   1.820  0.7568 -0.0698  0.1654
  878MOL0     C15797  -1.307   5.295   1.718 -0.1017  0.5611  0.0256
  878MOL0     C15798  -1.435   5.257   1.727 -0.1464 -0.3516  0.1575
  878MOL0     O15799  -1.498   5.181   1.630  0.9754 -0.1575 -0.0807
  878MOL0     C15800  -1.467   5.210   1.491  0.1613 -1.7605  0.7796
  878MOL0     C15801  -1.586   5.182   1.406  0.8876 -0.6941  0.6990
  878MOL0     C15802  -1.600   5.032   1.391  0.4770 -0.2847 -0.1189
  878MOL0     C15803  -1.738   4.982   1.370 -0.0461 -0.6163  0.4453
  878MOL0     C15804  -1.736   4.841   1.306  0.5015  0.5969 -0.0018
  878MOL0     C15805  -1.875   4.779   1.288 -0.4818  0.9250  0.2260
  878MOL0     C15806  -1.869   4.662   1.192 -0.3098 -0.3553  1.7602
  878MOL0     C15807  -1.858   4.537   1.267  0.9948  0.2523 -0.0006
  878MOL0    Cl15808  -2.013   4.492   1.346  0.3634  0.5860  0.0894
  878MOL0     C15809  -1.503   5.301   1.847  0.6384 -0.3577  0.0368
  878MOL0     C15810  -1.439   5.364   1.949 -0.3287  0.9088  0.2225
  878MOL0     O15811  -1.155   5.632   1.941 -0.5960  0.2293 -0.2996
  878MOL0     C15812  -1.092   5.498   2.275 -0.1004 -0.4532 -0.0528
  878MOL0     C15813  -1.047   5.538   2.401  0.3291 -0.4116 -0.2609
  878MOL0     N15814  -0.380   6.056   2.663  0.6998  0.2860 -0.3620
  878MOL0     N15815  -0.262   6.073   2.698 -0.8083  0.7615 -0.0344
  878MOL0     C15816   0.834   5.542   2.737 -0.5367  0.2430  0.2347
  878MOL0     C15817   0.951   5.473   2.724 -0.3104 -0.3302  0.2064
  878MOL0     C15818   1.235   5.137   2.587  1.2987 -0.2800  0.3052
  878MOL0     C15819   1.316   5.199   2.491 -1.2379  0.3286  0.0060
  878MOL0     C15820   1.441   5.135   2.469 -0.7688  0.9409  0.2043
  878MOL0     C15821   1.445   4.995   2.484  0.4375 -0.1877 -0.2764
  878MOL0     O15822   1.551   4.917   2.435  0.4222 -0.1066 -0.2099
  878MOL0     C15823   1.512   4.835   2.326 -0.2779  0.7489 -0.1855
  878MOL0     C15824   1.647   4.802   2.260 -0.2993 -0.0181  0.6826
  878MOL0     C15825   1.648   4.673   2.154  0.6284 -0.8383 -0.9646
  878MOL0     C15826   1.724   4.700   2.023  0.5289 -0.6171  0.0119
  878MOL0     C15827   1.861   4.749   2.052 -0.2592  0.6856  0.6155
  878MOL0     C15828   1.972   4.784   2.081  0.1176  0.1239  0.1460
  878MOL0     C15829   1.346   4.933   2.556  0.1787 -0.5736  0.3403
  878MOL0     C15830   1.255   5.008   2.623 -0.0247 -0.7119 -1.6995
  878MOL0     H15831   0.875   5.279   2.465  1.8354 -0.4614  1.0314
  878MOL0     H15832   0.643   5.404   2.503 -1.8379  1.5056  2.2232
  878MOL0     H15833   0.620   5.697   2.513  1.9527 -0.4203  0.3812
  878MOL0     H15834   0.588   5.781   2.661 -0.1728  0.5200 -1.5891
  878MOL0     H15835   0.380   5.631   2.682  0.1256 -0.7982 -0.9863
  878MOL0     H15836   0.383   5.597   2.510 -0.1147 -1.4855  1.8321
  878MOL0     H15837   0.415   5.859   2.480 -0.1238  1.2222  0.1189
  878MOL0     H15838   0.368   5.876   2.646  1.2797 -0.4179  0.1862
  878MOL0     H15839   0.204   5.900   2.452  1.6799 -1.4428 -4.1666
  878MOL0     H15840   0.213   5.734   2.417  2.5570 -1.1536 -0.1448
  878MOL0     H15841   0.142   5.686   2.669 -0.0016  1.1073  0.6403
  878MOL0     H15842   0.017   5.741   2.544  0.1125  3.6509 -1.4036
  878MOL0     H15843   0.017   5.948   2.617 -0.1667 -2.0634 -1.6951
  878MOL0     H15844   0.170   5.945   2.707  0.9373 -0.7430 -0.5052
  878MOL0     H15845  -0.073   5.754   2.771  1.4865 -1.5454 -2.5831
  878MOL0     H15846   0.057   5.805   2.880  3.2320  2.4417 -2.2863
  878MOL0     H15847  -0.045   6.059   2.824 -1.4775  0.2067 -2.2157
  878MOL0     H15848  -0.110   5.970   2.962  0.9682  0.3860  0.6552
  878MOL0     H15849  -0.347   5.829   2.883 -1.1735  1.3586  1.6698
  878MOL0     H15850  -0.616   6.013   2.799  0.2506  0.2310  0.1984
  878MOL0     H15851  -0.593   5.828   2.786  0.2353 -0.3115 -0.5256
  878MOL0     H15852  -0.604   5.857   2.533  0.1172  1.0642 -0.5783
  878MOL0     H15853  -0.645   6.026   2.558  4.0269 -0.2166 -1.5010
  878MOL0     H15854  -0.855   5.930   2.679  0.0276  1.4526 -1.2170
  878MOL0     H15855  -0.843   5.941   2.502  0.0965  1.7199  0.8269
  878MOL0     H15856  -0.828   5.689   2.679 -0.1961 -2.2828 -1.3796
  878MOL0     H15857  -0.803   5.672   2.514 -4.8246 -3.0612 -0.2182
  878MOL0     H15858  -1.000   5.865   2.344  0.7782 -0.7216  0.2062
  878MOL0     H15859  -1.071   5.792   2.115  2.4719 -1.2616  0.2578
  878MOL0     H15860  -1.128   5.387   1.814  0.9512 -1.1717 -1.5266
  878MOL0     H15861  -1.252   5.248   1.637  0.2652 -0.4840  0.8750
  878MOL0     H15862  -1.381   5.156   1.453  1.5348  0.7140  0.1619
  878MOL0     H15863  -1.445   5.317   1.491 -0.8068 -1.4866  3.2461
  878MOL0     H15864  -1.586   5.223   1.304 -3.6229 -2.0776 -0.0520
  878MOL0     H15865  -1.665   5.223   1.468  1.4248  0.0420  0.9179
  878MOL0     H15866  -1.548   4.978   1.471  2.6339  2.6404  0.5854
  878MOL0     H15867  -1.538   5.008   1.304 -0.1742 -0.6098 -0.5010
  878MOL0     H15868  -1.796   4.977   1.463 -1.5721  0.8475 -0.3608
  878MOL0     H15869  -1.785   5.055   1.304 -1.2427  0.2944  2.2062
  878MOL0     H15870  -1.664   4.774   1.353  0.0658 -0.4642 -0.8004
  878MOL0     H15871  -1.689   4.842   1.207 -1.1027 -0.8636 -0.8492
  878MOL0     H15872  -1.941   4.854   1.243  0.5991  1.9087  0.2472
  878MOL0     H15873  -1.912   4.751   1.387 -0.0727 -1.2639 -0.1802
  878MOL0     H15874  -1.948   4.653   1.116 -0.3384  1.9262  1.4603
  878MOL0     H15875  -1.776   4.677   1.137 -1.1572 -1.5847 -0.1040
  878MOL0     H15876  -1.781   4.546   1.343  0.0528 -4.1906  1.7805
  878MOL0     H15877  -1.833   4.452   1.202  1.4112  0.1818  0.2509
  878MOL0     H15878  -1.605   5.272   1.865  0.6157  0.4753  1.4618
  878MOL0     H15879  -1.489   5.398   2.039 -0.4625  0.8945  0.1527
  878MOL0     H15880  -1.125   5.396   2.260 -1.9230  0.1652 -0.4406
  878MOL0     H15881  -1.036   5.489   2.497 -2.2361  2.5122  1.7274
  878MOL0     H15882   0.826   5.613   2.818 -3.3278  1.5025 -1.0002
  878MOL0     H15883   1.028   5.486   2.800 -1.0315  0.1082  0.8825
  878MOL0     H15884   1.297   5.295   2.443  0.6367 -0.8522 -3.3923
  878MOL0     H15885   1.530   5.166   2.415 -0.4907  0.4958  0.4043
  878MOL0     H15886   1.442   4.879   2.255 -1.1527 -0.7634 -0.3023
  878MOL0     H15887   1.459   4.741   2.345  0.1478 -0.4230 -3.9563
  878MOL0     H15888   1.694   4.886   2.209  2.9128 -0.6525  2.2947
  878MOL0     H15889   1.716   4.783   2.343 -1.8378 -0.0834  2.0073
  878MOL0     H15890   1.543   4.647   2.138 -0.8790  3.0571  1.0765
  878MOL0     H15891   1.684   4.594   2.220  1.0491  1.5024  1.8364
  878MOL0     H15892   1.743   4.609   1.966  2.8384  0.5863 -1.3065
  878MOL0     H15893   1.679   4.784   1.967 -1.8881  0.9623  3.9321
  878MOL0     H15894   2.078   4.781   2.093  0.6355  1.0711 -3.1919
  878MOL0     H15895   1.364   4.828   2.579 -0.1021 -0.5670  0.6072
  878MOL0     H15896   1.197   4.972   2.708  0.5502 -0.9450 -1.3994
  879MOL0     O15897   0.570   8.866   9.746 -0.3556  0.2212 -0.0530
  879MOL0     C15898   0.503   8.797   9.670  0.8867  0.2390  0.1647
  879MOL0     O15899   0.407   8.844   9.580  0.2178 -0.6606 -0.2514
  879MOL0     C15900   0.346   8.961   9.612  0.1443  0.6510 -0.7244
  879MOL0     C15901   0.415   9.073   9.573  0.1790 -0.2110 -0.1890
  879MOL0     C15902   0.355   9.196   9.557 -0.4436  0.0762 -0.4444
  879MOL0     C15903   0.231   9.220   9.623 -0.6264  0.7995  0.2545
  879MOL0     O15904   0.184   9.348   9.621 -0.7649 -0.5513 -0.8837
  879MOL0     C15905   0.071   9.359   9.537  0.0235 -0.5200  0.3453
  879MOL0     C15906   0.035   9.506   9.545  0.2713 -0.5617  0.0637
  879MOL0     C15907  -0.088   9.545   9.460  0.0449 -0.2985 -0.4038
  879MOL0     C15908  -0.231   9.494   9.509  0.1623  0.5811 -0.3883
  879MOL0     C15909  -0.268   9.553   9.641 -0.4262 -0.6629  0.1713
  879MOL0     C15910  -0.412   9.510   9.685 -0.5820 -0.4088 -0.1462
  879MOL0     C15911  -0.526   9.557   9.596 -0.0472  0.0766  0.4445
  879MOL0     C15912  -0.527   9.717   9.604 -0.2550 -1.3673  0.1382
  879MOL0     N15913  -0.638   9.780   9.530  0.4856 -0.6955 -0.4786
  879MOL0     C15914  -0.774   9.785   9.579 -0.4112 -0.0120 -1.0968
  879MOL0     C15915  -0.839   9.865   9.489  0.3656 -0.0588 -0.2192
  879MOL0     C15916  -0.985   9.914   9.488  0.0827  0.0153 -0.4811
  879MOL0     C15917  -1.012  10.031   9.394 -0.1305 -0.2359 -1.1117
  879MOL0     C15918  -0.985  10.173   9.445  0.8456  0.5229  0.7345
  879MOL0     C15919  -0.997  10.278   9.323 -1.0946  0.7235 -0.3564
  879MOL0     O15920  -0.927  10.395   9.333 -0.3852  0.3971 -0.0587
  879MOL0     C15921  -0.998  10.500   9.377 -0.6463  0.5410 -0.0465
  879MOL0     C15922  -0.993  10.629   9.309 -0.0842  0.1090 -0.9678
  879MOL0     C15923  -1.052  10.746   9.353  0.2844 -0.7041  0.5892
  879MOL0     C15924  -1.121  10.740   9.475  0.4212 -0.3190  0.2473
  879MOL0     C15925  -1.178  10.867   9.539 -0.3704 -0.0587  0.3662
  879MOL0     O15926  -1.229  10.860   9.659  0.1396  0.5663  0.5662
  879MOL0     C15927  -1.316  10.946   9.720 -0.2984 -0.7630  0.0175
  879MOL0     C15928  -1.399  11.040   9.651 -0.6118 -0.8764 -0.5091
  879MOL0     C15929  -1.476  11.137   9.710  0.3541 -0.0749 -1.3618
  879MOL0     C15930  -1.463  11.155   9.847 -0.8628 -0.1651 -0.3401
  879MOL0     O15931  -1.534  11.259   9.897  0.7788  0.0052 -0.7688
  879MOL0     C15932  -1.571  11.248  10.030 -0.3317  1.1776  0.6692
  879MOL0     C15933  -1.689  11.339  10.080  0.1712 -1.0823  0.7484
  879MOL0     C15934  -1.675  11.490  10.032 -0.2736  0.4219 -0.6986
  879MOL0     C15935  -1.751  11.590  10.119 -1.0386  0.4998 -0.3001
  879MOL0     C15936  -1.698  11.738  10.112  0.4400 -0.5300  0.2148
  879MOL0     C15937  -1.719  11.807   9.984 -0.6018 -0.1274  0.6686
  879MOL0     C15938  -1.679  11.950   9.981 -0.1535  0.1720  0.5900
  879MOL0     C15939  -1.684  12.008   9.840  0.0037  0.3393 -0.0466
  879MOL0    Cl15940  -1.682  12.185   9.826  0.7183  0.4912 -0.2859
  879MOL0     C15941  -1.380  11.062   9.917 -0.2197 -0.0477  0.0906
  879MOL0     C15942  -1.313  10.962   9.858  0.0580 -0.2792  0.3574
  879MOL0     O15943  -1.178  10.974   9.471 -0.4442 -0.4218  0.0369
  879MOL0     C15944  -1.119  10.615   9.543  0.0035 -0.2725 -0.8379
  879MOL0     C15945  -1.063  10.500   9.506 -0.0244  0.1877  0.8347
  879MOL0     N15946  -0.743   9.914   9.395  0.2515 -1.1157 -0.2368
  879MOL0     N15947  -0.624   9.867   9.428  0.6023  1.1507  0.4458
  879MOL0     C15948   0.163   9.110   9.682 -0.6802  0.4616  0.2344
  879MOL0     C15949   0.219   8.979   9.668 -0.7696  0.5917 -0.2900
  879MOL0     C15950   0.509   8.647   9.683 -0.3103 -1.0298 -1.0539
  879MOL0     C15951   0.418   8.564   9.617  0.1662 -0.1566  0.0358
  879MOL0     C15952   0.417   8.418   9.635  0.0637 -0.5602 -0.4930
  879MOL0     C15953   0.500   8.364   9.728 -0.0957 -0.7097 -0.1738
  879MOL0     O15954   0.489   8.227   9.753 -0.7433  0.0364 -0.8536
  879MOL0     C15955   0.572   8.172   9.862  0.3311  0.0532  0.3347
  879MOL0     C15956   0.557   8.016   9.877 -0.7934  0.0338 -0.6726
  879MOL0     C15957   0.552   7.933   9.750  1.1555  0.0700 -0.5536
  879MOL0     C15958   0.548   7.772   9.783  0.4406 -1.7577 -0.2057
  879MOL0     C15959   0.581   7.694   9.659  0.4304 -0.2047  0.5254
  879MOL0     C15960   0.567   7.656   9.542  0.1649 -0.0246 -0.2462
  879MOL0     C15961   0.607   8.442   9.777  0.1089  0.1863  0.1672
  879MOL0     C15962   0.614   8.582   9.751 -0.0980  1.1117 -0.8474
  879MOL0     H15963   0.516   9.056   9.539 -0.5472 -2.7486 -1.3003
  879MOL0     H15964   0.410   9.281   9.518  1.1547 -1.9876 -3.0529
  879MOL0     H15965  -0.018   9.308   9.574 -0.1479  0.3870  1.2360
  879MOL0     H15966   0.091   9.337   9.432  2.6628  2.2857  0.1196
  879MOL0     H15967   0.125   9.559   9.513  2.4813 -3.4810  0.9724
  879MOL0     H15968   0.018   9.543   9.646  3.1563 -0.9161  0.7708
  879MOL0     H15969  -0.072   9.522   9.355  0.3442  4.6897 -1.7105
  879MOL0     H15970  -0.072   9.653   9.472  1.8640 -0.7493  2.0921
  879MOL0     H15971  -0.299   9.521   9.428  0.9023  2.7673 -0.3505
  879MOL0     H15972  -0.233   9.384   9.506  2.7575  0.4414 -4.2714
  879MOL0     H15973  -0.261   9.662   9.643 -2.0370 -0.4778  3.5867
  879MOL0     H15974  -0.191   9.524   9.713  1.8502  0.6588 -1.5993
  879MOL0     H15975  -0.425   9.559   9.781 -0.6541  1.7503 -1.2013
  879MOL0     H15976  -0.432   9.404   9.706 -1.1894  0.0218  1.5319
  879MOL0     H15977  -0.518   9.537   9.489 -1.4824  0.9831  0.1469
  879MOL0     H15978  -0.623   9.519   9.629 -0.5392  0.5665 -0.4023
  879MOL0     H15979  -0.436   9.762   9.562 -0.0952  0.5497  2.3338
  879MOL0     H15980  -0.530   9.747   9.709  3.2565 -1.1998  0.3051
  879MOL0     H15981  -0.825   9.738   9.663  0.7130  0.2137 -0.2670
  879MOL0     H15982  -1.011   9.958   9.585 -1.2683  2.8308 -1.9748
  879MOL0     H15983  -1.050   9.830   9.462 -2.2132  2.0937 -1.9582
  879MOL0     H15984  -1.120  10.033   9.377 -0.2411  2.3566 -0.5537
  879MOL0     H15985  -0.958  10.020   9.299  0.1905 -0.3312 -0.9199
  879MOL0     H15986  -1.061  10.195   9.520  2.3673  1.9707  1.9557
  879MOL0     H15987  -0.890  10.184   9.499  1.3561  1.6845 -0.3327
  879MOL0     H15988  -1.104  10.290   9.306 -1.1350 -0.8830 -1.4867
  879MOL0     H15989  -0.964  10.234   9.228  2.8610  3.6907 -0.6014
  879MOL0     H15990  -0.936  10.630   9.216  2.5651 -1.9457  0.4906
  879MOL0     H15991  -1.044  10.837   9.294 -0.8573  0.7914  2.6423
  879MOL0     H15992  -1.412  11.012   9.546 -0.8694 -3.7839  0.2008
  879MOL0     H15993  -1.548  11.203   9.662 -0.7131  1.3601  1.9116
  879MOL0     H15994  -1.476  11.253  10.086  1.9862 -1.8591 -2.5437
  879MOL0     H15995  -1.601  11.145  10.049  0.3669  0.8020 -0.2332
  879MOL0     H15996  -1.692  11.338  10.189 -3.1794 -1.3961  0.7800
  879MOL0     H15997  -1.782  11.297  10.040  1.3584 -3.0497 -0.0925
  879MOL0     H15998  -1.705  11.501   9.928 -0.2280  3.2399 -0.5119
  879MOL0     H15999  -1.570  11.523  10.028 -0.0677 -0.1196  0.0335
  879MOL0     H16000  -1.858  11.574  10.100 -1.1437 -1.9491  1.7743
  879MOL0     H16001  -1.739  11.561  10.224 -0.7861 -2.0240 -0.9468
  879MOL0     H16002  -1.591  11.746  10.130  0.9252 -0.7929 -2.2172
  879MOL0     H16003  -1.753  11.804  10.180  1.0985  0.6372 -0.3570
  879MOL0     H16004  -1.826  11.797   9.965 -0.4622 -3.4092  1.1672
  879MOL0     H16005  -1.658  11.759   9.908  0.1211  1.7781 -0.0155
  879MOL0     H16006  -1.757  12.012  10.027 -1.8536  0.9191 -2.9661
  879MOL0     H16007  -1.581  11.964  10.026 -0.5154  1.3316  1.0612
  879MOL0     H16008  -1.785  11.986   9.805  0.8786 -2.7095 -0.9475
  879MOL0     H16009  -1.612  11.963   9.772  0.6473 -0.0320  0.8533
  879MOL0     H16010  -1.368  11.070  10.024  3.0864  2.9978 -0.2947
  879MOL0     H16011  -1.253  10.890   9.914 -2.2815 -1.2980  1.7165
  879MOL0     H16012  -1.174  10.614   9.637 -1.0523 -4.3845 -1.2649
  879MOL0     H16013  -1.069  10.413   9.569  2.6703 -0.2740  0.5798
  879MOL0     H16014   0.076   9.123   9.747  0.2794 -0.6621  1.8054
  879MOL0     H16015   0.170   8.891   9.709 -1.6101  1.5524  0.8198
  879MOL0     H16016   0.339   8.602   9.554  2.3751  0.0360 -2.7992
  879MOL0     H16017   0.349   8.354   9.581 -0.9224 -0.1780  0.2705
  879MOL0     H16018   0.558   8.229   9.954 -0.1243  4.4016 -2.1921
  879MOL0     H16019   0.677   8.185   9.837 -0.0324  0.7038 -0.9282
  879MOL0     H16020   0.654   7.989   9.920  0.5783  1.9085 -2.4220
  879MOL0     H16021   0.470   7.988   9.938 -1.3186  0.6867 -1.0968
  879MOL0     H16022   0.641   7.949   9.689  2.3090  2.6213  1.6281
  879MOL0     H16023   0.465   7.971   9.697 -1.7741 -0.4619  3.4137
  879MOL0     H16024   0.602   7.737   9.871 -1.1733  0.8857  1.9823
  879MOL0     H16025   0.445   7.745   9.806  0.6504 -2.0870  0.3499
  879MOL0     H16026   0.567   7.610   9.445  0.6486  0.0330 -0.2759
  879MOL0     H16027   0.690   8.400   9.832  0.0080 -1.3553 -0.7828
  879MOL0     H16028   0.695   8.642   9.791  0.7456 -0.0850 -0.7154
  880MOL0     O16029   0.108  10.086   5.118  0.0975  0.0157  0.2131
  880MOL0     C16030   0.084  10.126   5.228 -0.3073  0.3673 -0.1827
  880MOL0     O16031   0.003  10.061   5.321  0.9689  0.0987 -0.6278
  880MOL0     C16032  -0.045   9.936   5.311 -0.1360 -0.5672  0.1978
  880MOL0     C16033  -0.166   9.918   5.374  1.2907 -0.5609  0.6294
  880MOL0     C16034  -0.237   9.795   5.352  0.9665 -0.6670 -0.1795
  880MOL0     C16035  -0.174   9.701   5.267  0.0854 -0.1952  0.6245
  880MOL0     O16036  -0.222   9.574   5.236 -0.0575 -0.4929  0.4203
  880MOL0     C16037  -0.345   9.535   5.299 -0.2599 -0.1832 -0.0316
  880MOL0     C16038  -0.348   9.512   5.453  0.7834  0.1827  0.8262
  880MOL0     C16039  -0.485   9.441   5.496  0.3958 -0.2172  0.1491
  880MOL0     C16040  -0.499   9.434   5.654 -0.2347 -1.1791  1.1157
  880MOL0     C16041  -0.637   9.391   5.699 -0.1229 -0.6622 -0.3430
  880MOL0     C16042  -0.657   9.241   5.683  0.6064  1.0941  0.0170
  880MOL0     C16043  -0.794   9.198   5.753 -0.4985  0.2808  0.2815
  880MOL0     C16044  -0.856   9.061   5.705 -0.5505 -0.6960  0.1857
  880MOL0     N16045  -0.958   9.006   5.786  0.0980 -0.8242  0.8512
  880MOL0     C16046  -1.034   8.903   5.742 -0.2523 -0.1835 -0.9932
  880MOL0     C16047  -1.121   8.882   5.843  0.0649  0.9035 -0.2454
  880MOL0     C16048  -1.238   8.782   5.844 -0.3706  0.0555 -0.1210
  880MOL0     C16049  -1.266   8.715   5.979  0.4853  0.3388 -0.3817
  880MOL0     C16050  -1.415   8.652   5.974 -0.4514  0.4303 -1.1327
  880MOL0     C16051  -1.471   8.628   6.121 -0.4567 -0.3506 -1.2981
  880MOL0     O16052  -1.438   8.496   6.173  0.4289  0.3288 -0.1873
  880MOL0     C16053  -1.480   8.469   6.298  0.6954  0.7498 -0.0304
  880MOL0     C16054  -1.447   8.343   6.352  1.6043  0.4363 -0.8070
  880MOL0     C16055  -1.475   8.308   6.490 -0.6313 -1.5378 -0.0643
  880MOL0     C16056  -1.540   8.406   6.570 -0.6677 -0.1381  0.2359
  880MOL0     C16057  -1.553   8.375   6.720 -0.3255 -0.8142  0.3047
  880MOL0     O16058  -1.543   8.483   6.808  0.4353  0.7896  0.5214
  880MOL0     C16059  -1.552   8.462   6.943  1.0348 -0.6697 -0.2513
  880MOL0     C16060  -1.619   8.557   7.011  1.2856 -0.2745  0.1229
  880MOL0     C16061  -1.627   8.557   7.152 -0.0517  0.0024 -0.6386
  880MOL0     C16062  -1.573   8.441   7.225  0.4907 -0.3176  0.7445
  880MOL0     O16063  -1.595   8.432   7.360  0.9315 -0.6344  0.3592
  880MOL0     C16064  -1.547   8.534   7.447  1.4708 -0.2717  0.1355
  880MOL0     C16065  -1.668   8.547   7.540 -0.8321 -0.4213 -0.7111
  880MOL0     C16066  -1.685   8.438   7.643 -0.3438  0.7615  0.0075
  880MOL0     C16067  -1.608   8.468   7.776 -0.3243  0.0201 -1.1330
  880MOL0     C16068  -1.633   8.374   7.894 -1.4581  0.5310 -0.4882
  880MOL0     C16069  -1.591   8.223   7.867  0.6024  0.5609 -0.2288
  880MOL0     C16070  -1.602   8.142   8.002  0.0668  0.4191  0.3432
  880MOL0     C16071  -1.520   8.017   8.003  0.3191  0.7665 -0.3234
  880MOL0    Cl16072  -1.478   7.982   8.178 -0.0188 -0.2292 -0.0250
  880MOL0     C16073  -1.512   8.338   7.148  0.2720  0.6487 -0.1922
  880MOL0     C16074  -1.497   8.356   7.011  0.2852 -0.3553  0.2530
  880MOL0     O16075  -1.582   8.260   6.751  0.6143 -0.0328 -0.9445
  880MOL0     C16076  -1.598   8.519   6.513 -0.4290  0.2071 -0.2101
  880MOL0     C16077  -1.563   8.552   6.376 -0.2086  0.2153 -0.1756
  880MOL0     N16078  -1.101   8.967   5.942 -0.5414 -0.2252 -0.2742
  880MOL0     N16079  -0.998   9.041   5.912 -0.3130 -0.2472  1.1892
  880MOL0     C16080  -0.045   9.713   5.225 -0.6473 -0.2633  0.6611
  880MOL0     C16081   0.031   9.829   5.245 -0.3006 -0.5329  0.2708
  880MOL0     C16082   0.130  10.261   5.265  0.7407 -0.5251  0.0766
  880MOL0     C16083   0.211  10.353   5.184 -0.4033  0.7921  0.1734
  880MOL0     C16084   0.245  10.480   5.226  0.2822 -1.3630  0.5801
  880MOL0     C16085   0.211  10.520   5.354 -0.2558 -0.0904  0.7636
  880MOL0     O16086   0.238  10.642   5.402  0.0094  0.0719 -0.0852
  880MOL0     C16087   0.348  10.625   5.487 -0.4195 -0.2866  0.8542
  880MOL0     C16088   0.363  10.748   5.575 -0.3615 -0.3649  0.3598
  880MOL0     C16089   0.234  10.790   5.648  0.3622 -0.4668 -0.0874
  880MOL0     C16090   0.178  10.690   5.750  0.2733 -0.9135  0.2416
  880MOL0     C16091   0.275  10.659   5.858  0.9224 -0.9902 -0.3937
  880MOL0     C16092   0.365  10.661   5.943 -0.5097  0.5120 -0.2725
  880MOL0     C16093   0.119  10.445   5.422  0.0569 -0.0057 -0.3235
  880MOL0     C16094   0.090  10.316   5.390 -0.6107 -0.4804 -0.9518
  880MOL0     H16095  -0.210  10.004   5.422  1.6942 -1.8958  3.5758
  880MOL0     H16096  -0.339   9.781   5.387  0.6654 -0.3236 -0.8877
  880MOL0     H16097  -0.385   9.447   5.248 -2.0585 -0.3274  1.4985
  880MOL0     H16098  -0.414   9.618   5.282 -0.1977 -0.2636 -0.7056
  880MOL0     H16099  -0.321   9.607   5.499 -1.1672  0.4904  1.4329
  880MOL0     H16100  -0.277   9.433   5.477 -1.7232 -1.5070  3.5225
  880MOL0     H16101  -0.491   9.339   5.458 -2.1983 -1.3986  3.2221
  880MOL0     H16102  -0.575   9.490   5.459 -0.8809 -2.4442  0.1300
  880MOL0     H16103  -0.418   9.375   5.697  2.4184  2.3604  1.3627
  880MOL0     H16104  -0.482   9.527   5.709  0.8275 -1.4435  1.2460
  880MOL0     H16105  -0.711   9.434   5.631  1.2730  0.2363 -1.3326
  880MOL0     H16106  -0.660   9.408   5.805 -0.7196 -2.0874 -0.2199
  880MOL0     H16107  -0.576   9.180   5.725 -0.3771 -0.4046 -0.1558
  880MOL0     H16108  -0.659   9.208   5.578 -1.2480  0.8850  0.0876
  880MOL0     H16109  -0.775   9.215   5.860  2.7704 -1.9246  0.2037
  880MOL0     H16110  -0.881   9.260   5.732  0.1742  0.1456 -3.7128
  880MOL0     H16111  -0.771   8.991   5.705  0.1830  0.1804 -0.5437
  880MOL0     H16112  -0.896   9.073   5.604  0.2181 -0.4559 -0.0997
  880MOL0     H16113  -1.044   8.845   5.651 -0.6145 -2.8399  0.6393
  880MOL0     H16114  -1.213   8.698   5.778  4.7756  0.6530  0.6428
  880MOL0     H16115  -1.327   8.831   5.805 -0.4119 -0.9079 -1.2945
  880MOL0     H16116  -1.258   8.779   6.067  0.2845  0.4561 -0.4466
  880MOL0     H16117  -1.205   8.626   5.993 -0.4519  0.0134  1.9985
  880MOL0     H16118  -1.484   8.722   5.925 -2.3298  0.4600  1.3489
  880MOL0     H16119  -1.411   8.561   5.914  0.2146 -0.2285 -0.1144
  880MOL0     H16120  -1.580   8.628   6.123 -0.4839  0.2203 -2.1341
  880MOL0     H16121  -1.434   8.703   6.192 -3.9186 -0.3045  0.6675
  880MOL0     H16122  -1.397   8.275   6.284  0.2743 -0.6315 -0.7641
  880MOL0     H16123  -1.441   8.219   6.544 -1.1594 -1.2627  0.7381
  880MOL0     H16124  -1.667   8.646   6.972 -1.4106 -1.3054  0.8864
  880MOL0     H16125  -1.681   8.642   7.193 -2.1254 -0.3520 -2.4328
  880MOL0     H16126  -1.533   8.634   7.405 -0.7724  0.0435 -0.0089
  880MOL0     H16127  -1.457   8.508   7.502  3.8078  0.8845 -2.8335
  880MOL0     H16128  -1.757   8.538   7.478 -1.1261 -1.8921 -0.0887
  880MOL0     H16129  -1.670   8.642   7.594  3.7214 -1.4157  1.7189
  880MOL0     H16130  -1.642   8.345   7.607 -0.4422  0.3501  0.9314
  880MOL0     H16131  -1.791   8.425   7.668 -0.8867 -1.4080 -2.9058
  880MOL0     H16132  -1.500   8.468   7.763  0.4170 -0.0222  3.3847
  880MOL0     H16133  -1.637   8.567   7.813 -4.8871 -1.9704  1.5388
  880MOL0     H16134  -1.733   8.374   7.937 -0.1729  0.8671  2.7200
  880MOL0     H16135  -1.567   8.410   7.974  0.1143  0.1649 -1.5597
  880MOL0     H16136  -1.489   8.222   7.826  0.9067  0.3528  0.5116
  880MOL0     H16137  -1.664   8.175   7.801  2.5683 -1.4164 -1.0998
  880MOL0     H16138  -1.569   8.197   8.090  1.9954  0.2041 -0.1967
  880MOL0     H16139  -1.708   8.122   8.023  0.0086 -0.2655 -0.5219
  880MOL0     H16140  -1.424   8.024   7.950  3.1389 -0.5528  4.0134
  880MOL0     H16141  -1.576   7.934   7.959 -1.2411  1.9923 -0.7076
  880MOL0     H16142  -1.486   8.239   7.186 -0.6293 -0.6093 -2.6372
  880MOL0     H16143  -1.449   8.283   6.946 -1.3701 -1.9698  0.7644
  880MOL0     H16144  -1.639   8.587   6.587 -1.3095 -2.9199  2.4632
  880MOL0     H16145  -1.588   8.653   6.345 -0.4076 -0.5129 -2.6263
  880MOL0     H16146  -0.009   9.636   5.157  2.1627  2.4826 -1.2049
  880MOL0     H16147   0.128   9.841   5.199 -0.4376  3.2625  0.5983
  880MOL0     H16148   0.248  10.319   5.088  4.1763  0.4295  1.8393
  880MOL0     H16149   0.303  10.556   5.174 -1.6092  1.0081  1.7064
  880MOL0     H16150   0.440  10.621   5.429 -0.0882  4.0597  0.7293
  880MOL0     H16151   0.325  10.538   5.549 -0.7877 -0.5367  0.3747
  880MOL0     H16152   0.447  10.741   5.644 -0.5389 -0.7918  0.5381
  880MOL0     H16153   0.391  10.823   5.500 -0.4504  0.0655  0.7468
  880MOL0     H16154   0.153  10.805   5.575  0.3079 -5.0493 -1.2310
  880MOL0     H16155   0.253  10.884   5.700 -1.4272 -0.1083 -0.0285
  880MOL0     H16156   0.087  10.743   5.780  0.4364 -1.0206  0.9399
  880MOL0     H16157   0.137  10.600   5.704 -2.1547  0.0876  0.3318
  880MOL0     H16158   0.447  10.682   6.009  0.3402  0.1287 -1.1770
  880MOL0     H16159   0.073  10.487   5.511 -1.2774 -1.1297 -0.4447
  880MOL0     H16160   0.029  10.253   5.454  0.4977  0.1310  0.7718
  881MOL0     O16161   0.461  11.032   5.684  1.2366  0.2117 -0.2564
  881MOL0     C16162   0.539  11.090   5.610  0.0471  0.7874 -2.0987
  881MOL0     O16163   0.527  11.105   5.478 -0.8073 -0.0994 -0.5602
  881MOL0     C16164   0.410  11.087   5.411  0.3432 -0.2490  0.2727
  881MOL0     C16165   0.425  11.041   5.282  0.2242  0.9373 -0.0241
  881MOL0     C16166   0.317  10.999   5.205  0.0753  0.8157  0.3246
  881MOL0     C16167   0.190  11.009   5.256  0.2337 -0.5566  0.0503
  881MOL0     O16168   0.076  10.977   5.187 -0.0835  0.8247  0.0586
  881MOL0     C16169   0.055  10.837   5.158 -0.4512  0.2410 -0.3625
  881MOL0     C16170   0.053  10.803   5.009  0.0959 -0.0657 -0.1720
  881MOL0     C16171   0.053  10.662   4.968 -0.2434 -0.0088 -0.8307
  881MOL0     C16172  -0.071  10.587   5.005  0.8110 -0.8859 -0.4264
  881MOL0     C16173  -0.098  10.446   4.948 -0.8899 -0.4092 -0.1333
  881MOL0     C16174  -0.210  10.390   5.023  0.0273 -0.4165  0.1619
  881MOL0     C16175  -0.210  10.239   4.999 -0.2848  0.1077  0.5847
  881MOL0     C16176  -0.321  10.168   5.073  0.0477  0.3172 -0.2753
  881MOL0     N16177  -0.380  10.064   4.994 -0.0319  0.2720 -0.1894
  881MOL0     C16178  -0.328   9.941   4.979 -0.3211  0.1022 -0.4788
  881MOL0     C16179  -0.434   9.862   4.939  0.2385  0.4339 -0.3342
  881MOL0     C16180  -0.437   9.721   4.884 -0.4360 -0.4081  0.0980
  881MOL0     C16181  -0.516   9.618   4.958 -0.5693 -0.0201  0.0051
  881MOL0     C16182  -0.475   9.478   4.914  0.2372  0.1002 -0.1531
  881MOL0     C16183  -0.571   9.363   4.963  0.0036  0.3574 -0.0145
  881MOL0     O16184  -0.591   9.374   5.110 -0.3091 -0.1230  0.0155
  881MOL0     C16185  -0.668   9.274   5.161  0.2277  0.1877  0.7078
  881MOL0     C16186  -0.792   9.310   5.216  0.9415 -0.7219 -0.8938
  881MOL0     C16187  -0.876   9.216   5.265 -0.3772 -0.2256  0.1634
  881MOL0     C16188  -0.838   9.081   5.259  1.2843  0.8893  0.7204
  881MOL0     C16189  -0.931   8.978   5.314  0.8118 -0.7571  0.7296
  881MOL0     O16190  -1.054   9.021   5.346  0.4677  0.7285  0.2279
  881MOL0     C16191  -1.148   8.933   5.390  0.0929  0.2252 -0.3352
  881MOL0     C16192  -1.165   8.791   5.378 -0.2624  0.2191 -0.2203
  881MOL0     C16193  -1.273   8.725   5.435 -0.7038 -0.5584 -0.3867
  881MOL0     C16194  -1.367   8.801   5.497  0.2414 -0.5896  0.3909
  881MOL0     O16195  -1.473   8.744   5.572  0.5521  0.2781 -0.2919
  881MOL0     C16196  -1.598   8.810   5.549  1.0223  0.1752  0.5690
  881MOL0     C16197  -1.708   8.709   5.588  0.3720  0.4520 -0.0055
  881MOL0     C16198  -1.715   8.604   5.481 -0.9394 -0.4015  0.5116
  881MOL0     C16199  -1.819   8.499   5.519 -0.1271  0.4501 -0.5555
  881MOL0     C16200  -1.769   8.348   5.493  0.3426 -0.4642  0.3757
  881MOL0     C16201  -1.890   8.249   5.493  0.0695  0.7006  0.0157
  881MOL0     C16202  -1.829   8.108   5.499 -0.9104  1.0269 -0.5832
  881MOL0     C16203  -1.915   8.003   5.431 -0.4848  0.9081  0.2807
  881MOL0    Cl16204  -1.906   8.013   5.251  0.5163 -0.4267 -0.0563
  881MOL0     C16205  -1.355   8.939   5.515 -0.5301 -0.0374  0.0104
  881MOL0     C16206  -1.245   9.004   5.461  0.4573  0.3107 -0.7695
  881MOL0     O16207  -0.894   8.863   5.319  0.7298 -0.9372 -0.8285
  881MOL0     C16208  -0.713   9.041   5.222  0.1051 -1.2408 -0.6143
  881MOL0     C16209  -0.626   9.141   5.172  0.8077 -0.0264  0.5959
  881MOL0     N16210  -0.549   9.939   4.940 -0.3817  0.5855 -0.1928
  881MOL0     N16211  -0.511  10.058   4.978 -0.1995  0.2746  0.9088
  881MOL0     C16212   0.173  11.074   5.385 -0.3195  0.4043 -0.0180
  881MOL0     C16213   0.285  11.114   5.467  0.2646  0.3414 -0.0901
  881MOL0     C16214   0.665  11.145   5.669 -0.0003  0.2268 -0.6444
  881MOL0     C16215   0.767  11.208   5.588 -0.6870 -0.1580 -0.0670
  881MOL0     C16216   0.870  11.252   5.659 -1.2759 -0.3252 -0.0137
  881MOL0     C16217   0.881  11.249   5.805 -0.4235 -0.8168  0.6074
  881MOL0     O16218   0.995  11.308   5.862  0.6449 -0.3334  1.0791
  881MOL0     C16219   0.997  11.448   5.843  0.2596 -0.2566  0.1868
  881MOL0     C16220   1.024  11.508   5.985  0.3500 -0.5629  1.3175
  881MOL0     C16221   1.025  11.661   5.981  0.1381  1.0626  0.7254
  881MOL0     C16222   1.013  11.734   6.110  0.1881  1.3129 -0.3105
  881MOL0     C16223   1.067  11.661   6.225  0.4284  0.1250  0.3252
  881MOL0     C16224   1.126  11.591   6.304 -0.0298  0.4031  0.7626
  881MOL0     C16225   0.785  11.191   5.880 -0.5261 -0.2683 -0.1548
  881MOL0     C16226   0.681  11.135   5.808  0.5596 -0.1111 -0.9438
  881MOL0     H16227   0.532  11.025   5.270 -0.0260 -2.3188  1.1715
  881MOL0     H16228   0.333  10.950   5.109  1.2379 -1.7183  1.7113
  881MOL0     H16229  -0.041  10.819   5.208  0.2951 -0.9821  0.6998
  881MOL0     H16230   0.131  10.779   5.211 -1.3000  0.3452  1.0225
  881MOL0     H16231   0.143  10.854   4.974  1.2763 -0.8570  1.5649
  881MOL0     H16232  -0.034  10.857   4.970  1.2180  2.1210  0.1902
  881MOL0     H16233   0.142  10.617   5.011  0.8560  3.2059  0.5419
  881MOL0     H16234   0.055  10.658   4.858 -0.3628 -1.9571 -0.7872
  881MOL0     H16235  -0.064  10.597   5.114  2.3490  1.9359 -0.6696
  881MOL0     H16236  -0.156  10.642   4.963  1.2590  0.5948  0.5024
  881MOL0     H16237  -0.010  10.384   4.967 -1.3142 -0.5703  1.4641
  881MOL0     H16238  -0.115  10.446   4.840 -0.8005 -0.3044 -0.1479
  881MOL0     H16239  -0.297  10.447   4.988  0.4680  0.0663 -0.1607
  881MOL0     H16240  -0.196  10.404   5.130  2.7564  0.9894 -0.2854
  881MOL0     H16241  -0.224  10.226   4.891  0.4822  0.8865  0.3810
  881MOL0     H16242  -0.115  10.198   5.033  0.4796 -0.0106 -1.5474
  881MOL0     H16243  -0.399  10.240   5.101  0.0813  1.1702 -2.2134
  881MOL0     H16244  -0.292  10.114   5.164 -4.1881 -1.1744  0.4368
  881MOL0     H16245  -0.223   9.920   4.991 -0.2695  1.3824  1.9071
  881MOL0     H16246  -0.336   9.681   4.888  0.4002  1.3303 -1.6844
  881MOL0     H16247  -0.466   9.741   4.780  1.9989  4.0622  0.0372
  881MOL0     H16248  -0.625   9.632   4.958 -1.1252 -3.0646  2.5813
  881MOL0     H16249  -0.489   9.634   5.063  1.8853  3.2091 -0.9645
  881MOL0     H16250  -0.484   9.470   4.805 -1.6662  2.0509 -0.2038
  881MOL0     H16251  -0.374   9.458   4.951 -0.6251 -1.3493  1.5388
  881MOL0     H16252  -0.529   9.263   4.947  0.2953  0.3205  0.8991
  881MOL0     H16253  -0.670   9.372   4.917  0.0507  0.9855 -0.0076
  881MOL0     H16254  -0.817   9.415   5.207  3.0878  0.3592  3.3044
  881MOL0     H16255  -0.964   9.248   5.319  0.5426  0.4123  1.3155
  881MOL0     H16256  -1.087   8.747   5.317 -0.5247  0.5654 -0.8235
  881MOL0     H16257  -1.291   8.618   5.429 -4.2922 -0.0678 -1.0634
  881MOL0     H16258  -1.613   8.843   5.446  0.8658 -3.8410 -0.8657
  881MOL0     H16259  -1.587   8.902   5.607  1.1351  0.4093  0.1777
  881MOL0     H16260  -1.801   8.766   5.595  1.4226  2.2582 -0.0710
  881MOL0     H16261  -1.683   8.656   5.681 -0.7106  0.9732  0.5984
  881MOL0     H16262  -1.613   8.568   5.463 -1.3198 -1.3068  0.0544
  881MOL0     H16263  -1.743   8.637   5.381 -0.4431 -2.5471 -0.3973
  881MOL0     H16264  -1.848   8.502   5.625 -2.7310  1.3386 -1.2221
  881MOL0     H16265  -1.905   8.510   5.452  1.7581  2.6116 -2.7960
  881MOL0     H16266  -1.697   8.327   5.573 -0.7060  2.3553  2.2190
  881MOL0     H16267  -1.722   8.342   5.394  0.2354  1.7029  0.1421
  881MOL0     H16268  -1.949   8.256   5.401 -0.8869 -4.2110 -0.0520
  881MOL0     H16269  -1.948   8.268   5.584 -2.1950  6.5576 -2.1643
  881MOL0     H16270  -1.727   8.108   5.459 -0.7826 -2.8214 -0.5589
  881MOL0     H16271  -1.815   8.070   5.600  0.3723  0.9614 -0.7741
  881MOL0     H16272  -2.017   8.013   5.467 -2.2243 -0.1587 -3.7401
  881MOL0     H16273  -1.882   7.900   5.450 -1.3602  0.2734 -1.3620
  881MOL0     H16274  -1.435   8.999   5.558 -0.6477  1.2536 -1.9008
  881MOL0     H16275  -1.237   9.110   5.483 -1.4842  0.3541 -0.0463
  881MOL0     H16276  -0.680   8.938   5.236 -0.8230 -1.2471  2.2494
  881MOL0     H16277  -0.526   9.116   5.138  1.1354  1.9492 -0.0375
  881MOL0     H16278   0.075  11.073   5.430 -0.6050 -2.9096 -0.4878
  881MOL0     H16279   0.267  11.156   5.565  2.3638  1.6358 -0.2030
  881MOL0     H16280   0.751  11.217   5.481  0.5569 -0.5448 -0.2990
  881MOL0     H16281   0.960  11.294   5.615  0.0630 -2.1342  0.8501
  881MOL0     H16282   0.908  11.491   5.795  1.0832  1.1547 -0.1219
  881MOL0     H16283   1.083  11.464   5.779  0.4449  1.5716  0.8180
  881MOL0     H16284   0.940  11.476   6.048 -2.1882 -0.7152 -1.9271
  881MOL0     H16285   1.114  11.464   6.028  1.2133 -0.4433 -0.3060
  881MOL0     H16286   0.942  11.700   5.920 -1.7385 -2.0200  1.1063
  881MOL0     H16287   1.122  11.678   5.935  1.1791 -2.1520  1.4692
  881MOL0     H16288   1.033  11.841   6.111 -1.8696  1.7568 -0.5455
  881MOL0     H16289   0.906  11.733   6.135  0.9707 -1.5709  3.8963
  881MOL0     H16290   1.173  11.526   6.376  2.8659  1.6057  0.0965
  881MOL0     H16291   0.802  11.207   5.986  3.4747  0.8566 -0.7998
  881MOL0     H16292   0.607  11.076   5.862  2.1441 -1.4947 -0.1708
  882MOL0     O16293   6.700   8.027   1.596 -0.6805 -0.5811  0.3176
  882MOL0     C16294   6.780   7.942   1.585 -0.1493  1.0332 -0.8488
  882MOL0     O16295   6.908   7.949   1.633  0.6909 -0.1061  0.1478
  882MOL0     C16296   6.946   8.065   1.702 -0.7993  0.1402  0.2281
  882MOL0     C16297   7.033   8.052   1.812 -0.2832 -0.0683  0.7736
  882MOL0     C16298   7.079   8.157   1.886 -0.0327  0.2527  0.6072
  882MOL0     C16299   7.028   8.285   1.865 -0.4491  0.6143  0.2282
  882MOL0     O16300   7.059   8.382   1.952 -0.3795 -0.0741 -0.3096
  882MOL0     C16301   6.959   8.482   1.975 -0.5751 -0.1325  0.4437
  882MOL0     C16302   6.979   8.537   2.118 -0.0205 -0.1754  0.1676
  882MOL0     C16303   6.875   8.642   2.141  0.6933 -0.0757  1.1910
  882MOL0     C16304   6.892   8.711   2.279 -0.3075  0.3006  0.6723
  882MOL0     C16305   6.847   8.857   2.280  0.0364  0.0638 -0.2128
  882MOL0     C16306   6.952   8.948   2.212  0.3083 -0.2638  0.7381
  882MOL0     C16307   6.904   9.096   2.179  0.3287  0.2847 -1.4624
  882MOL0     C16308   6.996   9.166   2.087  0.7270  0.1442 -0.1926
  882MOL0     N16309   6.933   9.299   2.065  0.5306 -0.5140  0.1959
  882MOL0     C16310   6.844   9.316   1.962 -0.4366  0.6130 -0.5918
  882MOL0     C16311   6.792   9.440   1.985 -0.2405  1.4011  0.7133
  882MOL0     C16312   6.687   9.497   1.894  0.1070  0.2595 -0.1676
  882MOL0     C16313   6.545   9.509   1.959 -0.3092  1.0587  0.0445
  882MOL0     C16314   6.514   9.376   2.037  1.0945  0.0579 -0.1670
  882MOL0     C16315   6.519   9.409   2.195 -0.3044  0.8065  0.0002
  882MOL0     O16316   6.524   9.284   2.269 -0.9668 -0.1927  0.2691
  882MOL0     C16317   6.580   9.285   2.395  0.5474  0.6862  1.2371
  882MOL0     C16318   6.619   9.157   2.452 -0.6106 -0.1386  0.9210
  882MOL0     C16319   6.708   9.150   2.554  0.3632  0.3698  0.1968
  882MOL0     C16320   6.735   9.261   2.627 -0.6368  0.3410 -0.3885
  882MOL0     C16321   6.810   9.248   2.758  0.6508 -0.0794 -0.0326
  882MOL0     O16322   6.783   9.354   2.846  0.3526 -0.0398  0.5551
  882MOL0     C16323   6.856   9.363   2.960  0.3702 -0.9709 -0.9846
  882MOL0     C16324   6.990   9.325   2.980 -0.7329 -0.0133  0.4827
  882MOL0     C16325   7.052   9.321   3.101  0.0912 -1.1238  0.7336
  882MOL0     C16326   6.971   9.351   3.213  0.2543 -1.0588 -0.1588
  882MOL0     O16327   7.040   9.321   3.326 -0.7795  0.0847  0.4617
  882MOL0     C16328   6.964   9.236   3.407  0.3592 -0.9769  0.3225
  882MOL0     C16329   6.943   9.088   3.370 -0.8167 -0.3240  0.2109
  882MOL0     C16330   6.877   9.012   3.480  0.1463 -0.2373  0.7001
  882MOL0     C16331   6.880   8.857   3.458  0.1920 -0.0047  0.0114
  882MOL0     C16332   6.813   8.774   3.564 -0.4766 -0.9616 -0.8518
  882MOL0     C16333   6.864   8.632   3.553 -0.2016  0.4696 -0.5051
  882MOL0     C16334   6.802   8.534   3.654 -0.4010 -1.3927 -0.3569
  882MOL0     C16335   6.885   8.407   3.673  0.7139  0.1986 -0.0521
  882MOL0    Cl16336   6.783   8.305   3.772  0.0716  0.1843 -0.3273
  882MOL0     C16337   6.842   9.406   3.203 -0.2440 -0.2011 -0.0478
  882MOL0     C16338   6.784   9.414   3.069  0.2117 -0.2816 -0.5852
  882MOL0     O16339   6.890   9.159   2.771 -0.1887  0.1173  0.4994
  882MOL0     C16340   6.692   9.384   2.585  0.2808 -0.3326 -0.4728
  882MOL0     C16341   6.620   9.401   2.466  0.4430 -0.5473  0.3594
  882MOL0     N16342   6.861   9.496   2.095 -0.7358  0.2791 -0.8067
  882MOL0     N16343   6.944   9.407   2.144 -0.1174 -1.0294  0.2909
  882MOL0     C16344   6.942   8.310   1.751 -1.0503 -0.2637 -0.8419
  882MOL0     C16345   6.907   8.199   1.670  0.1891 -0.3108 -0.2338
  882MOL0     C16346   6.752   7.818   1.516 -0.5941 -0.3032 -0.1158
  882MOL0     C16347   6.854   7.729   1.498 -0.0428  0.8609 -0.6252
  882MOL0     C16348   6.833   7.610   1.428  0.4698  0.7346 -0.1585
  882MOL0     C16349   6.710   7.575   1.382  0.3073 -0.7615  0.1647
  882MOL0     O16350   6.692   7.460   1.310  0.8894  1.0183  0.5923
  882MOL0     C16351   6.673   7.338   1.390  0.0664 -0.1750 -0.4772
  882MOL0     C16352   6.710   7.220   1.307 -0.0362 -0.1372  0.1156
  882MOL0     C16353   6.638   7.193   1.178 -0.3617  0.6376 -0.5291
  882MOL0     C16354   6.708   7.075   1.097 -0.8432  0.3976  0.3283
  882MOL0     C16355   6.638   7.034   0.976  0.4839 -0.4480  1.7860
  882MOL0     C16356   6.571   6.993   0.880  0.5654  0.6702  0.6961
  882MOL0     C16357   6.599   7.659   1.424 -0.0488  0.1798 -0.8092
  882MOL0     C16358   6.621   7.779   1.495 -0.2661 -0.5677  0.6579
  882MOL0     H16359   7.068   7.955   1.847  0.1260 -1.3110 -2.7417
  882MOL0     H16360   7.149   8.144   1.968  0.9375  0.3131 -0.2084
  882MOL0     H16361   6.854   8.456   1.962 -0.6797 -0.5030  1.9232
  882MOL0     H16362   6.982   8.560   1.902 -1.7023  0.0704  0.2911
  882MOL0     H16363   7.076   8.586   2.131  1.0702 -1.6861 -1.7765
  882MOL0     H16364   6.970   8.471   2.205  2.5709  1.0028  1.4827
  882MOL0     H16365   6.772   8.605   2.141 -0.4323  2.7394 -0.1900
  882MOL0     H16366   6.890   8.719   2.065  2.1431 -0.3747  1.1336
  882MOL0     H16367   6.831   8.647   2.343  0.1692 -2.7470 -1.6964
  882MOL0     H16368   6.996   8.706   2.313 -0.7048  1.0154  2.0578
  882MOL0     H16369   6.843   8.877   2.387  0.2951 -3.9888  0.7020
  882MOL0     H16370   6.748   8.878   2.240  0.8540  4.2036 -0.6018
  882MOL0     H16371   6.985   8.900   2.119  2.2838  0.1446  1.1875
  882MOL0     H16372   7.043   8.947   2.272  2.2198 -2.0528 -1.9528
  882MOL0     H16373   6.799   9.096   2.148 -0.7445  0.5292  1.7786
  882MOL0     H16374   6.908   9.145   2.277  0.7841 -1.5036 -0.5479
  882MOL0     H16375   7.001   9.108   1.994 -1.1348 -1.5898  0.6844
  882MOL0     H16376   7.087   9.184   2.143 -2.1128  1.4113  4.6106
  882MOL0     H16377   6.809   9.249   1.884 -0.3821  1.3394 -1.2621
  882MOL0     H16378   6.682   9.434   1.805  1.4570 -0.8589  0.4996
  882MOL0     H16379   6.722   9.599   1.874  1.5536 -0.1292  0.2434
  882MOL0     H16380   6.469   9.523   1.881  0.3593  2.4800 -0.3872
  882MOL0     H16381   6.550   9.593   2.029  0.5831  0.1951  1.0589
  882MOL0     H16382   6.419   9.330   2.008  1.6426  1.4898 -5.3461
  882MOL0     H16383   6.582   9.294   2.011 -1.7085 -2.2349 -0.8008
  882MOL0     H16384   6.434   9.471   2.223 -0.4172  0.1697  1.1164
  882MOL0     H16385   6.611   9.465   2.212  2.2488 -2.7230 -0.9538
  882MOL0     H16386   6.602   9.069   2.391 -0.7054 -2.5005  4.1614
  882MOL0     H16387   6.748   9.054   2.583  0.4879 -0.6872 -3.0683
  882MOL0     H16388   7.043   9.284   2.895  0.1215 -1.0510  1.4757
  882MOL0     H16389   7.155   9.289   3.108  0.8980  0.8002 -1.1424
  882MOL0     H16390   6.866   9.276   3.435  0.9329  0.8044 -0.0975
  882MOL0     H16391   7.010   9.235   3.506  0.5397 -0.0708  0.2562
  882MOL0     H16392   7.043   9.045   3.357 -0.4352  1.0464 -2.1104
  882MOL0     H16393   6.893   9.082   3.273 -1.6500  1.2132  0.5075
  882MOL0     H16394   6.773   9.045   3.472 -0.3173 -1.7273  0.2628
  882MOL0     H16395   6.928   9.026   3.576  1.4075 -4.3068  0.7831
  882MOL0     H16396   6.835   8.833   3.361 -2.2587  1.3846  0.7063
  882MOL0     H16397   6.988   8.838   3.459 -0.3368 -3.8911 -1.6076
  882MOL0     H16398   6.705   8.760   3.550 -0.1364 -2.6901 -2.0896
  882MOL0     H16399   6.842   8.820   3.659  4.8811 -3.8406 -0.7362
  882MOL0     H16400   6.973   8.631   3.569 -0.0114  2.2409 -1.4040
  882MOL0     H16401   6.856   8.603   3.448  0.4962  1.8864 -0.9695
  882MOL0     H16402   6.788   8.576   3.753  0.3801  1.3806 -1.3413
  882MOL0     H16403   6.704   8.499   3.618 -0.7092  1.8853 -3.3322
  882MOL0     H16404   6.978   8.434   3.723  0.4531  2.3616 -0.6220
  882MOL0     H16405   6.906   8.354   3.579  3.5546 -2.1217  1.7066
  882MOL0     H16406   6.793   9.446   3.291 -0.4076  0.2595 -0.3469
  882MOL0     H16407   6.684   9.455   3.059  1.7102  3.7256 -1.0745
  882MOL0     H16408   6.713   9.471   2.647 -5.0855  1.0769 -0.1925
  882MOL0     H16409   6.590   9.503   2.445  1.0380 -0.3794  0.2997
  882MOL0     H16410   6.894   8.404   1.729  2.1916  1.7022 -0.1060
  882MOL0     H16411   6.824   8.222   1.604 -0.6499 -0.1025  0.8535
  882MOL0     H16412   6.955   7.754   1.532 -0.4716  0.7278  0.8331
  882MOL0     H16413   6.917   7.547   1.402 -0.9025 -1.7542  1.0073
  882MOL0     H16414   6.565   7.334   1.406 -0.0335  4.4066  1.7353
  882MOL0     H16415   6.723   7.350   1.486  0.1414  0.3224 -0.5743
  882MOL0     H16416   6.816   7.229   1.282  0.4848  0.0384  2.2213
  882MOL0     H16417   6.704   7.144   1.385 -1.4170 -0.0690  0.0951
  882MOL0     H16418   6.626   7.281   1.112  1.7477  0.7497 -0.8200
  882MOL0     H16419   6.535   7.158   1.190 -0.6569  1.7696  0.4527
  882MOL0     H16420   6.812   7.100   1.074  0.1978 -2.3116  1.6588
  882MOL0     H16421   6.713   6.987   1.161  1.0579 -0.1363 -0.5073
  882MOL0     H16422   6.521   6.966   0.789  2.9934 -2.7818  0.2014
  882MOL0     H16423   6.498   7.624   1.403  0.1122 -1.5423  0.9895
  882MOL0     H16424   6.540   7.850   1.509 -0.4231 -0.8483  1.1608
  883MOL0     O16425   9.717   8.986   2.999  0.8849  0.4175 -0.0108
  883MOL0     C16426   9.702   8.982   3.120 -0.2102  0.9065 -0.7835
  883MOL0     O16427   9.710   9.084   3.211 -0.0085 -0.4613  0.1120
  883MOL0     C16428   9.735   9.216   3.176 -0.4314 -0.5591  0.7757
  883MOL0     C16429   9.642   9.313   3.218 -0.5900  0.4009  0.8158
  883MOL0     C16430   9.668   9.447   3.204  0.0560  0.6772  0.1057
  883MOL0     C16431   9.793   9.493   3.156  1.2844 -0.1484 -0.9162
  883MOL0     O16432   9.813   9.631   3.134  0.6832  0.2349 -0.7435
  883MOL0     C16433   9.933   9.675   3.060 -0.8514  0.3463 -0.5551
  883MOL0     C16434  10.047   9.700   3.163  0.6319 -1.0114 -1.0031
  883MOL0     C16435  10.177   9.764   3.097 -0.5775 -0.3222  0.1109
  883MOL0     C16436  10.288   9.770   3.203  0.1485 -0.1482 -0.5455
  883MOL0     C16437  10.414   9.835   3.128 -0.7117  0.0365 -0.3429
  883MOL0     C16438  10.413   9.988   3.169  0.6077  0.5510  0.3327
  883MOL0     C16439  10.543  10.062   3.121  0.2777  0.8282  0.5475
  883MOL0     C16440  10.562  10.083   2.968  1.0578  0.3667 -0.1905
  883MOL0     N16441  10.481  10.188   2.908  0.5949 -0.1535 -0.4244
  883MOL0     C16442  10.438  10.300   2.968 -0.4094 -0.9047 -0.3665
  883MOL0     C16443  10.420  10.389   2.871 -0.0879 -0.0108 -0.4132
  883MOL0     C16444  10.389  10.539   2.874 -0.1386 -0.2413 -0.1025
  883MOL0     C16445  10.358  10.598   2.728 -0.5332  1.1478 -0.2709
  883MOL0     C16446  10.374  10.747   2.738  0.6376 -0.8239 -0.7007
  883MOL0     C16447  10.265  10.815   2.824  0.4946  0.3041 -0.0089
  883MOL0     O16448  10.306  10.841   2.962 -0.6719  0.3009  0.2175
  883MOL0     C16449  10.236  10.934   3.034  0.1512 -0.2972  0.2012
  883MOL0     C16450  10.281  10.983   3.158 -1.1965 -0.3108  0.1526
  883MOL0     C16451  10.215  11.083   3.232 -0.5372  0.1383  0.4598
  883MOL0     C16452  10.092  11.138   3.179  0.6662  0.1136 -0.3740
  883MOL0     C16453  10.028  11.251   3.254  0.5535 -0.2072 -0.0691
  883MOL0     O16454   9.922  11.310   3.194 -0.2663  0.6093  0.6542
  883MOL0     C16455   9.863  11.420   3.249 -0.8511 -0.2922  0.8858
  883MOL0     C16456   9.928  11.537   3.303  0.6426 -0.3551 -0.1200
  883MOL0     C16457   9.863  11.649   3.350 -0.2320 -0.3157  0.2994
  883MOL0     C16458   9.726  11.649   3.352  0.1971 -0.6049  0.0371
  883MOL0     O16459   9.661  11.756   3.409  0.4408 -0.0930  0.1090
  883MOL0     C16460   9.726  11.884   3.406  0.4658 -0.3294 -0.4737
  883MOL0     C16461   9.617  11.987   3.436  0.0530 -0.3905 -0.1408
  883MOL0     C16462   9.501  11.988   3.336  0.0628  0.5045  0.0948
  883MOL0     C16463   9.420  12.116   3.349  0.2922  0.6355  0.0091
  883MOL0     C16464   9.314  12.121   3.236  0.7486  0.3657  0.3191
  883MOL0     C16465   9.175  12.099   3.295 -1.1881  0.4895  0.4440
  883MOL0     C16466   9.066  12.148   3.210  0.8095  0.0687 -0.2760
  883MOL0     C16467   8.920  12.129   3.266 -1.0135 -0.2841 -0.9179
  883MOL0    Cl16468   8.868  11.970   3.232  0.3925  0.0342 -0.1117
  883MOL0     C16469   9.658  11.530   3.328  1.6785  1.0085 -0.8192
  883MOL0     C16470   9.725  11.422   3.270  0.5605  0.1812  0.3935
  883MOL0     O16471  10.071  11.282   3.370 -0.6776  0.2817 -0.2278
  883MOL0     C16472  10.047  11.084   3.058 -0.6317  0.0806 -0.7954
  883MOL0     C16473  10.115  10.989   2.991  0.0561  0.4238 -0.6340
  883MOL0     N16474  10.417  10.313   2.757 -0.4660 -0.0689  0.1822
  883MOL0     N16475  10.458  10.191   2.769  0.2766 -0.2601 -0.4260
  883MOL0     C16476   9.893   9.399   3.126 -0.3850 -0.0818 -0.7011
  883MOL0     C16477   9.864   9.259   3.136 -0.1819 -0.0924 -0.5891
  883MOL0     C16478   9.637   8.858   3.170  0.0469  0.1145  0.1861
  883MOL0     C16479   9.557   8.772   3.089 -0.3788  0.1617  0.1836
  883MOL0     C16480   9.477   8.670   3.149  0.1150  0.7068  0.6530
  883MOL0     C16481   9.483   8.642   3.284  0.0700 -0.2387  0.0261
  883MOL0     O16482   9.387   8.562   3.350 -0.4274 -0.6840  0.6583
  883MOL0     C16483   9.265   8.514   3.299 -0.7757  0.1930  0.1800
  883MOL0     C16484   9.297   8.386   3.224 -0.8362  1.2177  0.2833
  883MOL0     C16485   9.172   8.313   3.184  0.4338 -0.5992 -0.0772
  883MOL0     C16486   9.194   8.179   3.114  0.8208  0.0907  0.0143
  883MOL0     C16487   9.297   8.175   3.008  0.1859  0.3581  0.3419
  883MOL0     C16488   9.387   8.193   2.922  0.5023  0.0697 -0.3103
  883MOL0     C16489   9.573   8.713   3.359 -0.1352  0.3479  0.7972
  883MOL0     C16490   9.648   8.814   3.302 -0.0726 -1.1480 -0.1137
  883MOL0     H16491   9.546   9.283   3.260 -0.9925  1.0680  0.3938
  883MOL0     H16492   9.594   9.516   3.241 -2.6098 -0.3244 -2.8957
  883MOL0     H16493   9.922   9.774   3.016 -0.5913 -0.3634 -2.3167
  883MOL0     H16494   9.964   9.613   2.975 -0.4645  0.0590 -0.2089
  883MOL0     H16495  10.078   9.610   3.217 -2.4760 -0.3700  2.3067
  883MOL0     H16496  10.015   9.762   3.248 -0.1584 -0.7926 -1.4544
  883MOL0     H16497  10.157   9.866   3.064  0.5294  0.3572  1.4194
  883MOL0     H16498  10.211   9.712   3.007 -2.4430 -1.6214  0.1107
  883MOL0     H16499  10.250   9.819   3.293 -1.5604  0.0678 -1.3369
  883MOL0     H16500  10.310   9.667   3.231 -0.0298  0.6052  2.7191
  883MOL0     H16501  10.409   9.805   3.023  0.5352 -0.7715 -0.1854
  883MOL0     H16502  10.492   9.778   3.180 -0.5363 -0.0874 -0.7403
  883MOL0     H16503  10.404  10.001   3.278 -0.5265  3.1685  0.0043
  883MOL0     H16504  10.319  10.026   3.127  1.3690 -0.3044 -2.3403
  883MOL0     H16505  10.547  10.163   3.163  0.4515  0.5557  1.1995
  883MOL0     H16506  10.636  10.018   3.157  1.3879  1.4851 -1.3920
  883MOL0     H16507  10.543   9.997   2.902  2.5887  1.5858 -2.3549
  883MOL0     H16508  10.670  10.096   2.953  0.7057  3.7687 -0.5939
  883MOL0     H16509  10.448  10.326   3.073 -1.5855 -0.3347 -0.3875
  883MOL0     H16510  10.463  10.602   2.924 -1.3958 -1.4368  3.6616
  883MOL0     H16511  10.300  10.554   2.936  0.3184 -3.5725  1.5834
  883MOL0     H16512  10.256  10.578   2.695 -0.7656 -0.3214  1.1984
  883MOL0     H16513  10.431  10.559   2.657  0.5778  0.0116  1.4257
  883MOL0     H16514  10.469  10.791   2.767 -0.0942  2.9453 -3.3015
  883MOL0     H16515  10.351  10.787   2.639 -1.8521  0.3438  0.2778
  883MOL0     H16516  10.176  10.752   2.827  1.2200 -0.8936  4.6119
  883MOL0     H16517  10.255  10.910   2.770  0.4784  0.4401  0.2347
  883MOL0     H16518  10.381  10.957   3.194 -0.3998 -0.4308 -2.0275
  883MOL0     H16519  10.255  11.123   3.325  1.9669 -1.8699  0.3597
  883MOL0     H16520  10.035  11.548   3.317  0.2744  2.0808  1.4998
  883MOL0     H16521   9.927  11.730   3.385  1.4667 -1.0318 -0.9975
  883MOL0     H16522   9.781  11.901   3.313  0.7875  2.9876  0.2044
  883MOL0     H16523   9.807  11.899   3.478 -1.1549  2.1716  0.9955
  883MOL0     H16524   9.674  12.081   3.439  0.9199 -0.8761 -1.0408
  883MOL0     H16525   9.576  11.963   3.535  1.8907 -2.9940  0.0843
  883MOL0     H16526   9.435  11.903   3.352 -0.2124  0.7684  0.3579
  883MOL0     H16527   9.556  11.991   3.241  0.7418  0.5796  0.4807
  883MOL0     H16528   9.375  12.133   3.447  2.0897  1.6579  0.7131
  883MOL0     H16529   9.484  12.200   3.323 -1.5762  1.5309 -2.0107
  883MOL0     H16530   9.331  12.053   3.152  0.5282  1.6756 -0.8289
  883MOL0     H16531   9.314  12.223   3.194 -1.0009 -0.3730 -1.6302
  883MOL0     H16532   9.159  12.144   3.393 -4.8765  1.9012 -0.6211
  883MOL0     H16533   9.166  11.990   3.302 -3.6499  0.5971 -0.3021
  883MOL0     H16534   9.059  12.256   3.197  2.2975  0.4166  1.5532
  883MOL0     H16535   9.067  12.109   3.107  0.7563  0.6197 -0.4884
  883MOL0     H16536   8.848  12.188   3.208  0.1313  1.3719 -0.7276
  883MOL0     H16537   8.926  12.167   3.369 -3.0020  1.3579 -1.3576
  883MOL0     H16538   9.551  11.537   3.339  1.6105 -0.0457 -0.7922
  883MOL0     H16539   9.666  11.337   3.239 -3.5731  2.4299  1.3316
  883MOL0     H16540   9.955  11.132   3.026 -0.9515 -0.0940 -0.1531
  883MOL0     H16541  10.067  10.971   2.895 -0.6748 -0.2705 -0.1523
  883MOL0     H16542   9.993   9.435   3.104  1.0209 -1.5229  2.6554
  883MOL0     H16543   9.939   9.187   3.106  1.3584  1.6347 -1.0462
  883MOL0     H16544   9.539   8.799   2.985 -1.7080 -0.1466  0.3212
  883MOL0     H16545   9.410   8.609   3.090  2.9090 -1.4934 -0.4909
  883MOL0     H16546   9.220   8.578   3.223  0.1198 -0.4755 -0.9407
  883MOL0     H16547   9.194   8.493   3.380 -0.7229 -3.1511 -0.4851
  883MOL0     H16548   9.367   8.407   3.143 -0.2596 -1.2496  0.0530
  883MOL0     H16549   9.347   8.310   3.287 -3.8896 -2.0272 -0.8845
  883MOL0     H16550   9.099   8.371   3.128  1.0148  0.9128  0.6804
  883MOL0     H16551   9.111   8.292   3.271  3.5951  0.9025  2.7347
  883MOL0     H16552   9.220   8.099   3.184 -3.4104 -2.3277 -0.8131
  883MOL0     H16553   9.097   8.148   3.075 -0.0588  2.8572 -0.1825
  883MOL0     H16554   9.475   8.196   2.861  1.1027 -2.4729  0.2919
  883MOL0     H16555   9.583   8.688   3.464  4.7637 -3.6339 -0.2636
  883MOL0     H16556   9.701   8.880   3.370 -3.2884 -1.3800  2.8834
  884MOL0     O16557   8.351   6.895  10.693  0.2362  1.2270 -0.2460
  884MOL0     C16558   8.242   6.861  10.723 -0.1572  0.2252 -0.6990
  884MOL0     O16559   8.135   6.941  10.739  0.6485  0.3957 -1.3619
  884MOL0     C16560   8.164   7.079  10.736  0.2553 -0.1174  0.0909
  884MOL0     C16561   8.109   7.157  10.629  0.2135 -0.5059  0.4868
  884MOL0     C16562   8.149   7.288  10.602  0.9413  0.0935  0.0715
  884MOL0     C16563   8.211   7.359  10.706 -0.6272  0.0934  0.3080
  884MOL0     O16564   8.248   7.496  10.695  0.6185  0.1381 -0.4685
  884MOL0     C16565   8.130   7.582  10.701 -0.8905  0.4400 -1.0680
  884MOL0     C16566   8.185   7.728  10.683  0.2937  0.0522 -0.0299
  884MOL0     C16567   8.051   7.804  10.676 -0.6824  0.0027 -0.4623
  884MOL0     C16568   8.074   7.944  10.718 -0.1614 -0.5813  0.3881
  884MOL0     C16569   7.974   8.051  10.672  1.3940  0.9119 -0.1270
  884MOL0     C16570   8.016   8.189  10.725  0.6613  0.4684  0.0141
  884MOL0     C16571   8.009   8.218  10.875  1.3171 -0.2774 -0.9237
  884MOL0     C16572   8.034   8.369  10.917  0.4948  0.6076 -0.0682
  884MOL0     N16573   7.904   8.429  10.931  0.1492  0.7055 -0.5100
  884MOL0     C16574   7.828   8.424  11.047  0.4758  0.4320 -0.2221
  884MOL0     C16575   7.729   8.512  11.027 -0.7602  0.0424  0.6690
  884MOL0     C16576   7.618   8.540  11.123 -0.1857  0.3777 -0.5373
  884MOL0     C16577   7.524   8.423  11.142  0.2265  0.1640 -1.0902
  884MOL0     C16578   7.563   8.341  11.258  0.0384  0.3296 -0.8240
  884MOL0     C16579   7.544   8.404  11.396 -0.5719  0.3823 -0.2780
  884MOL0     O16580   7.419   8.467  11.410  1.0042  0.4560 -0.1582
  884MOL0     C16581   7.373   8.483  11.544  0.2959  0.1098  0.0963
  884MOL0     C16582   7.367   8.374  11.629  0.4823  0.2510  0.8597
  884MOL0     C16583   7.300   8.388  11.755 -0.9463 -0.3727  0.1875
  884MOL0     C16584   7.242   8.510  11.802  0.2645 -0.3402 -0.7790
  884MOL0     C16585   7.186   8.511  11.937 -0.0785  0.3611 -0.4555
  884MOL0     O16586   7.100   8.609  11.962 -0.3088  0.0309 -1.1543
  884MOL0     C16587   7.036   8.617  12.083 -0.2999  0.2235  0.2594
  884MOL0     C16588   7.087   8.576  12.209 -0.6345  0.3460  1.1700
  884MOL0     C16589   6.998   8.572  12.316 -0.1926  0.1993 -0.5134
  884MOL0     C16590   6.863   8.607  12.305  0.0547  0.5254  0.2093
  884MOL0     O16591   6.775   8.600  12.401  0.5393 -0.3131 -0.3012
  884MOL0     C16592   6.774   8.513  12.521  1.0846 -1.4592 -0.1812
  884MOL0     C16593   6.860   8.573  12.628 -0.7030 -0.2527  0.4343
  884MOL0     C16594   6.822   8.541  12.771  1.0879  0.6639 -0.1679
  884MOL0     C16595   6.926   8.558  12.881  0.0916 -0.0361  0.1350
  884MOL0     C16596   6.971   8.708  12.903  0.0758 -0.5029 -0.5193
  884MOL0     C16597   6.908   8.784  13.025 -0.3303  1.2150  0.2537
  884MOL0     C16598   6.966   8.932  13.029  0.5279  0.5986  0.6089
  884MOL0     C16599   6.906   9.022  13.150  0.1613  0.1849 -0.4367
  884MOL0    Cl16600   6.733   9.056  13.111 -0.0457  0.0430  0.2762
  884MOL0     C16601   6.815   8.659  12.187 -0.5954  0.2304  0.6074
  884MOL0     C16602   6.898   8.667  12.079 -0.0712  1.0753 -0.1577
  884MOL0     O16603   7.216   8.414  12.013  0.3689 -0.1486 -0.2209
  884MOL0     C16604   7.247   8.617  11.717  0.3122 -0.6275 -0.5419
  884MOL0     C16605   7.310   8.598  11.593 -0.9180 -0.5249 -0.0014
  884MOL0     N16606   7.736   8.542  10.891  0.5090 -0.5426 -0.4751
  884MOL0     N16607   7.837   8.490  10.829 -0.3162 -0.0076 -0.2795
  884MOL0     C16608   8.262   7.292  10.812 -0.4831 -0.8792  0.4724
  884MOL0     C16609   8.232   7.158  10.840 -0.3248  0.0698 -0.8121
  884MOL0     C16610   8.215   6.715  10.731 -0.3286  0.2957  0.3628
  884MOL0     C16611   8.323   6.623  10.702 -0.5076  0.5159  0.6915
  884MOL0     C16612   8.290   6.481  10.693  0.8882 -0.3191 -0.4103
  884MOL0     C16613   8.155   6.439  10.713  0.5655 -0.3656  0.5912
  884MOL0     O16614   8.117   6.310  10.687 -0.5909  0.3886 -0.3977
  884MOL0     C16615   8.149   6.273  10.555  0.7365  0.6636 -1.3872
  884MOL0     C16616   8.198   6.130  10.537  0.3009 -0.5516  0.6488
  884MOL0     C16617   8.111   6.025  10.598  0.9100 -0.4172 -0.3867
  884MOL0     C16618   8.069   5.927  10.495 -0.3865  0.3137  1.0726
  884MOL0     C16619   7.990   5.816  10.550  0.3592 -0.4050 -0.2327
  884MOL0     C16620   7.936   5.711  10.575  0.6729 -0.0489  0.3588
  884MOL0     C16621   8.056   6.535  10.754  0.7111 -0.6464  0.5353
  884MOL0     C16622   8.093   6.669  10.771 -0.3459  0.6045  0.4172
  884MOL0     H16623   8.039   7.118  10.556 -1.4336  1.1297  1.1081
  884MOL0     H16624   8.119   7.338  10.510  0.8250 -3.5242 -2.1049
  884MOL0     H16625   8.082   7.568  10.798  0.9293  1.9519  0.1250
  884MOL0     H16626   8.055   7.554  10.626  0.0522 -1.5263 -1.3462
  884MOL0     H16627   8.245   7.744  10.593 -0.6902  2.8431 -0.2894
  884MOL0     H16628   8.246   7.753  10.770 -0.7843  2.2545  0.1516
  884MOL0     H16629   7.978   7.770  10.749 -0.6402  0.6718 -0.1029
  884MOL0     H16630   8.014   7.797  10.573 -1.7268 -3.4244  0.0115
  884MOL0     H16631   8.066   7.936  10.827  1.4106  0.8800  0.6479
  884MOL0     H16632   8.176   7.979  10.701 -0.5245  0.6185  0.5697
  884MOL0     H16633   7.870   8.026  10.694  1.4025  2.5055  2.0360
  884MOL0     H16634   7.975   8.054  10.563 -1.5160 -3.4509 -0.5221
  884MOL0     H16635   7.952   8.261  10.672  1.3571  0.0906 -1.3929
  884MOL0     H16636   8.118   8.217  10.695  0.6072 -0.7173 -1.4089
  884MOL0     H16637   7.917   8.181  10.922  1.6663 -3.0353 -2.2192
  884MOL0     H16638   8.082   8.159  10.932  0.3517 -1.3221 -0.7306
  884MOL0     H16639   8.078   8.427  10.835  0.2101 -0.1927 -0.8042
  884MOL0     H16640   8.082   8.370  11.015 -1.2450  1.3064  0.8020
  884MOL0     H16641   7.851   8.355  11.127 -1.1989  0.1882  0.0991
  884MOL0     H16642   7.552   8.615  11.077  0.8413  0.7355 -1.4711
  884MOL0     H16643   7.651   8.570  11.222 -1.7292  0.4569 -0.0238
  884MOL0     H16644   7.500   8.366  11.051 -1.0920  0.9771 -1.2777
  884MOL0     H16645   7.427   8.462  11.173  0.1878  0.6471 -1.8156
  884MOL0     H16646   7.502   8.250  11.253 -1.3553  1.1423  0.5590
  884MOL0     H16647   7.669   8.313  11.250 -0.2874 -2.3108  2.0797
  884MOL0     H16648   7.625   8.473  11.419  0.6672 -0.8427 -0.8497
  884MOL0     H16649   7.555   8.321  11.466  2.4789  0.2496 -0.7950
  884MOL0     H16650   7.406   8.276  11.604 -1.0527  0.2382 -2.0408
  884MOL0     H16651   7.307   8.302  11.820  2.9477 -0.9464 -0.7505
  884MOL0     H16652   7.192   8.548  12.212  0.5380  2.0484 -6.0948
  884MOL0     H16653   7.035   8.549  12.415 -1.8788 -0.4411  0.0079
  884MOL0     H16654   6.780   8.404  12.508  1.2977 -1.1146 -3.9714
  884MOL0     H16655   6.673   8.532  12.559  2.2916  0.4804  2.3362
  884MOL0     H16656   6.852   8.682  12.626  2.4036  0.0627  0.7325
  884MOL0     H16657   6.965   8.546  12.635 -0.6555  0.3821  2.8899
  884MOL0     H16658   6.807   8.433  12.761  1.7057  0.5401  0.1336
  884MOL0     H16659   6.725   8.582  12.800  2.0480  1.1091  2.8216
  884MOL0     H16660   6.886   8.505  12.968 -1.7881 -1.1126 -1.2936
  884MOL0     H16661   7.017   8.504  12.851  0.4649  1.4992 -1.7363
  884MOL0     H16662   6.958   8.769  12.813  0.8806  3.6127  1.9362
  884MOL0     H16663   7.076   8.719  12.929 -0.2152 -1.2531  1.1067
  884MOL0     H16664   6.932   8.733  13.119  0.1095 -0.2302 -0.5970
  884MOL0     H16665   6.799   8.776  13.023 -0.2737 -0.0187 -2.0681
  884MOL0     H16666   7.074   8.928  13.046  0.8327 -0.1011 -1.2453
  884MOL0     H16667   6.961   8.981  12.931 -0.9630 -0.3547  0.1826
  884MOL0     H16668   6.961   9.115  13.167 -0.0435  0.8544 -3.0185
  884MOL0     H16669   6.901   8.962  13.241 -0.6605  0.8470 -0.0329
  884MOL0     H16670   6.715   8.703  12.186 -1.7730 -2.2602  0.9520
  884MOL0     H16671   6.855   8.728  12.000 -3.0059  1.3160  1.5015
  884MOL0     H16672   7.204   8.710  11.754  3.0754 -0.0188  1.4001
  884MOL0     H16673   7.305   8.668  11.510  0.1817 -1.2710 -0.7161
  884MOL0     H16674   8.319   7.346  10.888 -0.3828 -3.0124  1.9927
  884MOL0     H16675   8.265   7.125  10.937  1.3786  0.5879 -1.1821
  884MOL0     H16676   8.424   6.657  10.681 -0.8051 -0.2333 -2.4516
  884MOL0     H16677   8.370   6.418  10.656  1.1049 -1.5765  1.9732
  884MOL0     H16678   8.223   6.338  10.508 -0.1380  2.0856 -0.8284
  884MOL0     H16679   8.060   6.291  10.494  0.5995  0.3321 -1.2910
  884MOL0     H16680   8.231   6.124  10.432  4.4673  1.3105  1.6666
  884MOL0     H16681   8.300   6.135  10.577  2.0319 -0.0434 -3.3245
  884MOL0     H16682   8.025   6.072  10.647  0.3937 -0.8638 -0.8412
  884MOL0     H16683   8.168   5.969  10.673  1.2708  0.9548  0.4018
  884MOL0     H16684   8.005   5.974  10.420 -2.6160 -0.4213  2.3827
  884MOL0     H16685   8.157   5.890  10.443 -1.3521 -3.3344  1.7695
  884MOL0     H16686   7.897   5.611  10.580  0.6415 -0.0723 -0.2098
  884MOL0     H16687   7.954   6.498  10.767 -1.3411  3.1327 -2.6353
  884MOL0     H16688   8.013   6.734  10.804 -2.1156 -0.5788 -1.2408
  885MOL0     O16689   4.936   0.057   2.029 -0.3069  0.5931  0.0919
  885MOL0     C16690   4.904  -0.038   2.090 -0.6541  0.4614 -0.5285
  885MOL0     O16691   4.900  -0.166   2.039 -0.7611 -0.8373  0.4343
  885MOL0     C16692   4.966  -0.205   1.926  0.4831 -0.4587 -0.2920
  885MOL0     C16693   4.897  -0.289   1.836  0.0749  0.0111  0.1186
  885MOL0     C16694   4.952  -0.324   1.715  0.5322  0.0695  0.2273
  885MOL0     C16695   5.080  -0.288   1.687  0.7474  0.8036 -0.1457
  885MOL0     O16696   5.111  -0.339   1.564  0.2112 -0.8996  0.4332
  885MOL0     C16697   5.238  -0.304   1.498  1.4144  1.0268 -0.0301
  885MOL0     C16698   5.242  -0.155   1.444  0.0117 -0.0708 -0.8431
  885MOL0     C16699   5.389  -0.100   1.463  0.4636  0.2177  0.5848
  885MOL0     C16700   5.385   0.027   1.396 -0.0645 -0.6453  0.8780
  885MOL0     C16701   5.500   0.047   1.298 -0.4026 -0.1949  0.4478
  885MOL0     C16702   5.636   0.068   1.372 -0.5291 -0.4114  0.1874
  885MOL0     C16703   5.758   0.076   1.278 -0.0340  0.7883  1.0892
  885MOL0     C16704   5.780  -0.062   1.206 -0.4781  0.0420 -0.3084
  885MOL0     N16705   5.784  -0.172   1.302  0.5431 -0.2067 -0.3355
  885MOL0     C16706   5.849  -0.184   1.419 -0.7228 -0.1835 -0.7448
  885MOL0     C16707   5.801  -0.301   1.472  0.1652  0.3274  0.5120
  885MOL0     C16708   5.872  -0.366   1.592 -0.1367 -0.6315 -0.8379
  885MOL0     C16709   5.869  -0.517   1.605 -0.2871  0.4136  0.2581
  885MOL0     C16710   5.944  -0.580   1.486  0.1944 -0.0618  0.3680
  885MOL0     C16711   5.974  -0.725   1.512 -0.7493 -0.1858  0.4165
  885MOL0     O16712   6.088  -0.763   1.436 -0.1113 -0.2049 -0.1633
  885MOL0     C16713   6.097  -0.900   1.405 -0.4369  0.1168  0.8435
  885MOL0     C16714   6.030  -1.005   1.472 -0.2416  0.9258 -0.0694
  885MOL0     C16715   6.054  -1.131   1.422 -0.0177  0.1844 -0.7818
  885MOL0     C16716   6.131  -1.171   1.315  0.9635 -0.3541 -0.6794
  885MOL0     C16717   6.126  -1.316   1.275  0.9593 -0.7394 -0.0187
  885MOL0     O16718   6.011  -1.382   1.301  0.7918 -0.5457  0.3122
  885MOL0     C16719   5.992  -1.511   1.274 -0.8326 -0.0929  0.0261
  885MOL0     C16720   5.859  -1.553   1.248  0.3622  0.1328 -0.0790
  885MOL0     C16721   5.839  -1.680   1.204  0.0997  0.4419 -0.7446
  885MOL0     C16722   5.933  -1.782   1.208 -0.0902 -0.1322  0.9459
  885MOL0     O16723   5.887  -1.910   1.167  0.2464 -0.3848  0.0064
  885MOL0     C16724   5.984  -1.981   1.083 -0.4720 -0.5256 -0.1757
  885MOL0     C16725   5.910  -2.065   0.972  0.2516 -1.3525  0.7420
  885MOL0     C16726   5.832  -1.976   0.873 -0.1745  0.4085 -0.2662
  885MOL0     C16727   5.913  -1.915   0.761 -0.3771 -0.0954 -1.0987
  885MOL0     C16728   5.826  -1.857   0.649  0.6094  0.4657 -0.1470
  885MOL0     C16729   5.901  -1.780   0.545  0.4850 -0.6770 -0.0659
  885MOL0     C16730   5.966  -1.888   0.448  0.6397 -0.2323 -0.1060
  885MOL0     C16731   6.043  -1.819   0.332 -0.6835  0.4734  0.2750
  885MOL0    Cl16732   6.121  -1.943   0.233  0.0056  0.4240 -0.1835
  885MOL0     C16733   6.054  -1.750   1.255 -0.9137 -0.2793 -0.4275
  885MOL0     C16734   6.088  -1.609   1.277 -0.1320  0.9328 -0.5718
  885MOL0     O16735   6.227  -1.354   1.212  0.6857 -0.2464 -0.2649
  885MOL0     C16736   6.208  -1.074   1.257  0.1043  0.1114 -0.1406
  885MOL0     C16737   6.193  -0.939   1.310  0.6545  0.0485  0.0494
  885MOL0     N16738   5.707  -0.359   1.389  0.2486 -0.3674  0.5322
  885MOL0     N16739   5.695  -0.275   1.291 -0.7432 -1.1177 -0.1163
  885MOL0     C16740   5.146  -0.209   1.771  1.3765  0.0750 -0.3895
  885MOL0     C16741   5.087  -0.160   1.884  0.1353  0.7737 -0.8687
  885MOL0     C16742   4.843  -0.030   2.229  0.1745  0.2752  0.0517
  885MOL0     C16743   4.848   0.097   2.288 -1.0997  0.1075  0.3214
  885MOL0     C16744   4.789   0.115   2.414 -0.6508 -0.3413  0.6383
  885MOL0     C16745   4.719   0.009   2.477  0.7196 -0.2324 -0.1600
  885MOL0     O16746   4.676   0.031   2.606 -0.1473  0.2271 -0.2840
  885MOL0     C16747   4.718  -0.064   2.703  0.3189  0.7912  0.0402
  885MOL0     C16748   4.863  -0.136   2.709 -0.1346  0.0045 -0.7936
  885MOL0     C16749   4.957  -0.025   2.749  0.6097  0.1894 -0.0174
  885MOL0     C16750   5.096  -0.059   2.713 -0.3275  0.9638  0.0560
  885MOL0     C16751   5.191   0.035   2.762 -0.4528  0.0174 -0.3294
  885MOL0     C16752   5.274   0.109   2.807 -0.5190 -1.1696 -0.7848
  885MOL0     C16753   4.723  -0.124   2.419  0.1885 -0.0526 -0.1297
  885MOL0     C16754   4.791  -0.136   2.292  0.6147  0.3006 -0.1814
  885MOL0     H16755   4.800  -0.336   1.840 -0.2977  0.7184 -0.3926
  885MOL0     H16756   4.910  -0.408   1.660  3.5303  0.8123 -3.6057
  885MOL0     H16757   5.253  -0.368   1.411  1.3165  1.8687 -0.6796
  885MOL0     H16758   5.315  -0.323   1.574  0.7139  1.3059  0.7715
  885MOL0     H16759   5.169  -0.096   1.499 -2.0491 -4.2365  1.3673
  885MOL0     H16760   5.215  -0.158   1.338  1.6018 -0.6592 -1.2702
  885MOL0     H16761   5.453  -0.173   1.411 -1.0549  0.2723 -1.5334
  885MOL0     H16762   5.419  -0.091   1.567 -0.3357  3.3508  0.6189
  885MOL0     H16763   5.295   0.034   1.335  0.0103  0.3177  0.8607
  885MOL0     H16764   5.386   0.118   1.456  2.2376 -0.2617  0.3521
  885MOL0     H16765   5.478   0.130   1.230 -3.2566 -3.3470 -2.8651
  885MOL0     H16766   5.490  -0.040   1.232 -0.5076 -0.2889  0.5878
  885MOL0     H16767   5.656  -0.017   1.437  2.8630 -0.5234 -0.8190
  885MOL0     H16768   5.630   0.164   1.423  0.0234 -0.4367  0.3054
  885MOL0     H16769   5.762   0.163   1.211  0.0880  0.6397  0.9014
  885MOL0     H16770   5.832   0.089   1.357 -0.6536  1.8003  1.5217
  885MOL0     H16771   5.878  -0.064   1.158 -0.7780  1.3365 -1.0495
  885MOL0     H16772   5.700  -0.082   1.134 -0.8633  2.0021 -0.4732
  885MOL0     H16773   5.920  -0.112   1.457 -0.2157  0.0110 -2.0219
  885MOL0     H16774   5.836  -0.323   1.686 -0.1392 -2.4461  0.0245
  885MOL0     H16775   5.975  -0.335   1.574 -0.1431 -0.1008 -0.0145
  885MOL0     H16776   5.765  -0.550   1.606 -0.7400  1.6656 -1.1679
  885MOL0     H16777   5.927  -0.542   1.694  0.5734  4.5925  1.0914
  885MOL0     H16778   5.896  -0.554   1.391  1.0354  2.0750  0.4629
  885MOL0     H16779   6.041  -0.531   1.476  0.1338  0.2319  1.1652
  885MOL0     H16780   5.890  -0.784   1.476 -0.1546  0.1265 -1.6223
  885MOL0     H16781   5.994  -0.745   1.617  0.6806 -0.2545  0.1649
  885MOL0     H16782   5.969  -0.993   1.561 -0.0391  3.7217 -0.2073
  885MOL0     H16783   6.001  -1.209   1.477  0.8924  0.7982  1.0506
  885MOL0     H16784   5.779  -1.480   1.246 -0.8514 -1.1291 -3.4417
  885MOL0     H16785   5.739  -1.713   1.179  0.1400  0.6444 -1.1701
  885MOL0     H16786   6.035  -2.056   1.145 -0.6449 -0.2511  0.3023
  885MOL0     H16787   6.061  -1.911   1.048 -1.0779 -1.1786 -3.0526
  885MOL0     H16788   5.841  -2.135   1.021  0.1685 -0.5958  1.7183
  885MOL0     H16789   5.996  -2.116   0.927  2.8872  0.5247  3.2980
  885MOL0     H16790   5.768  -1.906   0.928 -1.7280 -1.5322  0.5640
  885MOL0     H16791   5.757  -2.041   0.826 -1.2147  1.3866 -0.0285
  885MOL0     H16792   5.977  -1.838   0.807  3.3285 -4.5349  2.0662
  885MOL0     H16793   5.974  -1.998   0.725  0.3786 -1.2260  2.3821
  885MOL0     H16794   5.760  -1.791   0.706 -0.5996 -2.1872  1.7093
  885MOL0     H16795   5.765  -1.929   0.593  0.8584  0.2925 -0.1988
  885MOL0     H16796   5.975  -1.714   0.592 -1.6223  0.9444  1.1574
  885MOL0     H16797   5.822  -1.725   0.494  0.4007 -3.9737 -4.0053
  885MOL0     H16798   6.037  -1.957   0.496  1.7968  0.8865 -0.1729
  885MOL0     H16799   5.880  -1.946   0.413  0.3678  0.7943 -1.1966
  885MOL0     H16800   6.112  -1.752   0.384 -0.9318  0.4661  0.6152
  885MOL0     H16801   5.978  -1.764   0.262 -0.7493  0.3936  0.2740
  885MOL0     H16802   6.136  -1.819   1.276 -1.3562 -0.0521  2.5064
  885MOL0     H16803   6.190  -1.584   1.306  0.2617 -1.6196  0.4742
  885MOL0     H16804   6.275  -1.104   1.176 -0.9732 -2.9273 -0.0338
  885MOL0     H16805   6.261  -0.870   1.261  1.8922 -0.5819  0.8325
  885MOL0     H16806   5.242  -0.171   1.739  2.1597 -2.2673 -0.9501
  885MOL0     H16807   5.151  -0.092   1.940 -0.2239 -0.5588  1.2905
  885MOL0     H16808   4.898   0.184   2.247  2.1729 -0.6657  2.3037
  885MOL0     H16809   4.786   0.216   2.455  1.3390  0.5503 -1.2318
  885MOL0     H16810   4.640  -0.141   2.703  3.1253 -2.2713  0.3831
  885MOL0     H16811   4.709  -0.011   2.799  0.3130  0.3617  0.2789
  885MOL0     H16812   4.872  -0.208   2.791  0.7215  0.3725 -0.5623
  885MOL0     H16813   4.885  -0.183   2.612  2.7234 -0.5098  0.0168
  885MOL0     H16814   4.940  -0.009   2.856  1.0372  0.8911 -0.0539
  885MOL0     H16815   4.929   0.050   2.674  0.6643 -1.8844 -2.2277
  885MOL0     H16816   5.122  -0.155   2.759 -0.7423  1.7111  1.9554
  885MOL0     H16817   5.109  -0.069   2.605 -0.8764  2.2925 -0.1455
  885MOL0     H16818   5.364   0.156   2.842 -1.7112  1.0739 -0.4815
  885MOL0     H16819   4.673  -0.210   2.461  1.6711 -1.0487 -0.3226
  885MOL0     H16820   4.782  -0.237   2.253  0.8825 -0.1116  0.7970
  886MOL0     O16821   7.627   8.836   3.186 -0.1335 -0.4088  0.2606
  886MOL0     C16822   7.569   8.771   3.095 -0.5214  0.9529 -0.1892
  886MOL0     O16823   7.504   8.823   2.984 -0.7450 -0.2456  0.0625
  886MOL0     C16824   7.527   8.954   2.950  0.2499 -0.1244  0.6956
  886MOL0     C16825   7.653   9.012   2.930 -0.1666  0.1926 -0.2657
  886MOL0     C16826   7.674   9.146   2.874  0.3907 -0.1292 -0.8839
  886MOL0     C16827   7.563   9.222   2.852  0.7128 -0.1354  0.1176
  886MOL0     O16828   7.571   9.340   2.789 -0.2788 -0.1481 -0.1957
  886MOL0     C16829   7.680   9.434   2.822  0.2728  0.8747  0.8412
  886MOL0     C16830   7.613   9.583   2.810 -0.0412 -0.8568 -0.0321
  886MOL0     C16831   7.707   9.688   2.867  0.2582  0.7645 -1.2029
  886MOL0     C16832   7.653   9.834   2.878  0.2794 -0.2980  0.8387
  886MOL0     C16833   7.758   9.959   2.858 -0.4294 -1.1099  0.3817
  886MOL0     C16834   7.701  10.102   2.885 -0.1201  1.2468  0.1158
  886MOL0     C16835   7.550  10.114   2.880  0.6598 -0.7351  0.0231
  886MOL0     C16836   7.519  10.262   2.843  0.6124 -0.8028 -0.5401
  886MOL0     N16837   7.393  10.300   2.922 -0.0080 -0.5872 -0.5804
  886MOL0     C16838   7.267  10.275   2.881  0.1331 -0.8861  0.3905
  886MOL0     C16839   7.184  10.325   2.980  0.7484  0.2581  0.4569
  886MOL0     C16840   7.033  10.316   2.991 -1.0596  0.2717 -0.3238
  886MOL0     C16841   6.987  10.175   3.005  0.3035  1.0316  0.3135
  886MOL0     C16842   7.058  10.095   3.114 -0.1990 -0.6184  0.0366
  886MOL0     C16843   7.015  10.120   3.258  1.2489  0.1310  0.1022
  886MOL0     O16844   7.043  10.007   3.330  0.1322 -0.1853  0.1290
  886MOL0     C16845   7.043  10.008   3.467  0.2483 -0.2235 -0.7135
  886MOL0     C16846   7.104   9.899   3.532  0.5898  0.2097  0.6217
  886MOL0     C16847   7.095   9.889   3.671 -0.2815  0.7837  0.2927
  886MOL0     C16848   7.015   9.973   3.743  0.3470  0.4335  0.7143
  886MOL0     C16849   7.005   9.950   3.889  0.4434  0.8267 -0.5341
  886MOL0     O16850   7.103   9.869   3.956  0.3534 -0.5673  0.4638
  886MOL0     C16851   7.121   9.855   4.087  0.2179  0.1787  0.6376
  886MOL0     C16852   7.225   9.765   4.105 -0.3476 -0.5002 -0.7906
  886MOL0     C16853   7.257   9.724   4.222  0.5793 -0.2811 -0.5934
  886MOL0     C16854   7.195   9.774   4.341 -0.0964 -0.4899  0.3762
  886MOL0     O16855   7.228   9.736   4.468  0.2242  0.0657 -0.1317
  886MOL0     C16856   7.366   9.736   4.517 -0.0271 -0.6201 -0.4752
  886MOL0     C16857   7.432   9.867   4.492  0.1235 -0.3113  0.0260
  886MOL0     C16858   7.576   9.882   4.555  0.4063 -0.1133  0.4473
  886MOL0     C16859   7.641  10.003   4.479  0.9070  0.4544  0.4273
  886MOL0     C16860   7.796   9.997   4.501  1.2362 -0.2291  0.1991
  886MOL0     C16861   7.884   9.922   4.399  0.0934  0.2500  0.0280
  886MOL0     C16862   8.035   9.942   4.438  0.4718  0.2612 -0.0443
  886MOL0     C16863   8.100   9.807   4.456 -1.0128  0.4605 -0.1315
  886MOL0    Cl16864   8.077   9.693   4.325 -0.3272 -0.6992 -0.1094
  886MOL0     C16865   7.084   9.861   4.324 -0.1073 -0.4576 -0.2075
  886MOL0     C16866   7.048   9.908   4.200  0.5600 -0.6369  0.8679
  886MOL0     O16867   6.920  10.023   3.946  0.4864 -0.1400  0.1493
  886MOL0     C16868   6.945  10.070   3.669  0.6945 -0.3473 -0.5693
  886MOL0     C16869   6.950  10.086   3.537  0.6469 -1.0914 -0.5073
  886MOL0     N16870   7.261  10.377   3.087  1.2961 -1.1129 -0.5065
  886MOL0     N16871   7.382  10.353   3.050 -0.1847 -0.4558  0.6230
  886MOL0     C16872   7.439   9.163   2.862  0.4485 -0.1655  0.7836
  886MOL0     C16873   7.417   9.040   2.926  0.4473  0.7822 -0.4448
  886MOL0     C16874   7.561   8.626   3.119  0.2451  0.5196 -1.0397
  886MOL0     C16875   7.582   8.537   3.014  0.3517 -0.1504 -0.1663
  886MOL0     C16876   7.590   8.397   3.037 -0.1338 -0.3505 -1.2299
  886MOL0     C16877   7.601   8.346   3.172 -0.7956  0.1186 -0.2416
  886MOL0     O16878   7.598   8.210   3.186  0.2148 -0.3390 -0.0386
  886MOL0     C16879   7.557   8.144   3.306 -0.0580 -0.7636 -0.9825
  886MOL0     C16880   7.564   7.990   3.289 -0.5392 -0.8302 -0.6896
  886MOL0     C16881   7.547   7.920   3.429  0.3314 -0.4181 -0.1616
  886MOL0     C16882   7.415   7.958   3.491  0.2908  0.5621  0.7546
  886MOL0     C16883   7.423   7.908   3.633  0.0532  0.1574 -0.4340
  886MOL0     C16884   7.438   7.887   3.755  0.0059  0.0917 -0.0921
  886MOL0     C16885   7.587   8.437   3.279  0.4267  0.1053 -0.2769
  886MOL0     C16886   7.578   8.576   3.255  0.2124 -0.2330  0.3620
  886MOL0     H16887   7.744   8.954   2.945 -1.3099 -1.9121 -0.9588
  886MOL0     H16888   7.777   9.178   2.864 -0.1672  1.4062 -2.2001
  886MOL0     H16889   7.763   9.432   2.751  2.0790  1.4682  2.8318
  886MOL0     H16890   7.720   9.423   2.924 -1.5320  2.4471  1.7843
  886MOL0     H16891   7.515   9.596   2.857  1.1963  0.0822  2.4744
  886MOL0     H16892   7.605   9.603   2.702 -2.7614  1.8509  0.5324
  886MOL0     H16893   7.801   9.680   2.812  0.6947 -0.2717 -0.3339
  886MOL0     H16894   7.730   9.664   2.971 -3.1596  3.0615  0.2511
  886MOL0     H16895   7.571   9.851   2.807  2.2131 -0.2428 -1.5204
  886MOL0     H16896   7.614   9.844   2.979  0.8919  1.5930  0.9258
  886MOL0     H16897   7.783   9.952   2.752  2.1413  3.4924  0.4603
  886MOL0     H16898   7.845   9.949   2.924  1.3177  0.9655 -1.4605
  886MOL0     H16899   7.757  10.171   2.821 -0.9320  1.6408 -0.1756
  886MOL0     H16900   7.741  10.128   2.983 -0.5959  0.8778  0.4148
  886MOL0     H16901   7.506  10.041   2.812  1.9335 -1.4657 -0.0616
  886MOL0     H16902   7.519  10.084   2.981 -1.0188 -1.5948 -0.7231
  886MOL0     H16903   7.512  10.267   2.734 -2.6862 -3.3423 -0.6004
  886MOL0     H16904   7.598  10.328   2.880 -2.7998  2.7487  1.0751
  886MOL0     H16905   7.243  10.237   2.782  0.2113  0.8017 -0.3112
  886MOL0     H16906   6.978  10.359   2.907 -0.1514 -1.8411 -2.1008
  886MOL0     H16907   7.005  10.368   3.083  0.9884 -0.7106  0.9274
  886MOL0     H16908   7.016  10.119   2.916 -1.6769 -0.3515  0.4833
  886MOL0     H16909   6.880  10.155   3.013  0.3855  0.4374 -0.0495
  886MOL0     H16910   7.050   9.990   3.085 -1.5312 -1.0611  1.8341
  886MOL0     H16911   7.166  10.115   3.108 -0.6219  1.6675 -1.5304
  886MOL0     H16912   6.912  10.156   3.257  1.2855  0.2310 -0.2680
  886MOL0     H16913   7.069  10.203   3.302  0.5755 -0.1862  1.5895
  886MOL0     H16914   7.162   9.829   3.473 -0.7398  1.1048 -1.8785
  886MOL0     H16915   7.156   9.818   3.727  0.8241  2.0092  0.6992
  886MOL0     H16916   7.285   9.725   4.024  2.2516  0.2570  0.6550
  886MOL0     H16917   7.329   9.643   4.236 -0.0108 -0.9604 -1.3445
  886MOL0     H16918   7.423   9.653   4.475 -1.1924 -1.2044 -0.9577
  886MOL0     H16919   7.353   9.725   4.625 -0.4512  1.7120 -0.2239
  886MOL0     H16920   7.367   9.940   4.541  2.0294  0.7710  1.0227
  886MOL0     H16921   7.429   9.880   4.383 -1.8181  1.4253  0.2260
  886MOL0     H16922   7.638   9.792   4.548  1.3493  0.5932 -0.6694
  886MOL0     H16923   7.568   9.909   4.661 -1.2720 -3.9814  1.4724
  886MOL0     H16924   7.621   9.990   4.372  2.2283  1.6526 -0.0081
  886MOL0     H16925   7.602  10.103   4.499  2.2397  1.1244 -0.1853
  886MOL0     H16926   7.814   9.984   4.608  0.1088 -1.0472  0.3047
  886MOL0     H16927   7.824  10.100   4.478 -0.4686 -0.0546 -1.3106
  886MOL0     H16928   7.861   9.966   4.301 -0.4753  1.0806  0.5198
  886MOL0     H16929   7.849   9.818   4.394  0.6163  0.0261  0.7799
  886MOL0     H16930   8.088   9.998   4.360  1.7699 -0.1129  0.5346
  886MOL0     H16931   8.027  10.002   4.528 -3.1170 -0.5322  0.3052
  886MOL0     H16932   8.053   9.759   4.542 -1.9829  1.5671 -0.0286
  886MOL0     H16933   8.208   9.813   4.474 -0.9167  0.4294 -0.6863
  886MOL0     H16934   7.029   9.891   4.412 -3.4221 -1.4971 -1.7361
  886MOL0     H16935   6.983   9.995   4.190  0.3561 -0.1905  4.6659
  886MOL0     H16936   6.890  10.151   3.717  0.5478 -1.3399  1.0312
  886MOL0     H16937   6.898  10.164   3.483  1.4986 -0.8710 -1.0359
  886MOL0     H16938   7.355   9.225   2.831 -0.4921 -1.5975  0.3793
  886MOL0     H16939   7.320   8.994   2.912  0.9637 -0.2534 -0.7018
  886MOL0     H16940   7.600   8.567   2.911 -2.5096  1.6507 -0.2666
  886MOL0     H16941   7.599   8.322   2.959  0.7752  0.6598 -2.1294
  886MOL0     H16942   7.452   8.175   3.307 -0.3574 -1.7544 -0.9612
  886MOL0     H16943   7.616   8.178   3.392 -0.1054  0.2949 -1.3565
  886MOL0     H16944   7.489   7.954   3.218 -1.4193  0.3657 -0.4039
  886MOL0     H16945   7.663   7.961   3.252  1.0306  2.4798  0.5745
  886MOL0     H16946   7.631   7.927   3.498  1.7201 -1.0100 -1.7204
  886MOL0     H16947   7.540   7.814   3.402  3.7156 -0.5300 -0.9312
  886MOL0     H16948   7.408   8.066   3.509  1.6830  0.8538 -0.2996
  886MOL0     H16949   7.337   7.923   3.423  0.8647  0.6721  0.0303
  886MOL0     H16950   7.440   7.862   3.859 -1.8258 -2.2225 -0.5314
  886MOL0     H16951   7.587   8.401   3.382  0.8146 -2.3201 -1.0417
  886MOL0     H16952   7.575   8.647   3.337 -2.7490 -2.0128  1.9771
  887MOL0     O16953   0.563   2.609   3.664 -0.3911 -0.9564 -0.5305
  887MOL0     C16954   0.500   2.509   3.647 -0.0968  0.3435 -0.2142
  887MOL0     O16955   0.539   2.395   3.576  0.1547 -1.0512  0.4830
  887MOL0     C16956   0.667   2.371   3.523  0.7995  0.2642  0.1343
  887MOL0     C16957   0.777   2.463   3.531  0.1287  0.3173  0.1948
  887MOL0     C16958   0.897   2.437   3.458  0.3266  0.0690 -0.2619
  887MOL0     C16959   0.922   2.324   3.392 -0.1539  1.1446 -0.2135
  887MOL0     O16960   1.054   2.318   3.333 -0.4645  0.8712  0.0429
  887MOL0     C16961   1.110   2.188   3.330 -1.1856 -0.9047  0.5956
  887MOL0     C16962   1.265   2.203   3.322  0.7671 -0.2365  0.3820
  887MOL0     C16963   1.315   2.065   3.370  0.5472 -0.1452 -0.2855
  887MOL0     C16964   1.466   2.068   3.384 -0.9040  0.5331 -0.2007
  887MOL0     C16965   1.530   2.064   3.253  0.0872 -0.3807 -0.7362
  887MOL0     C16966   1.682   2.054   3.271  0.1919  0.7292 -0.4962
  887MOL0     C16967   1.778   2.082   3.154  1.0207 -0.1285  1.0174
  887MOL0     C16968   1.760   1.965   3.046  0.6921 -0.3706  0.4197
  887MOL0     N16969   1.823   2.003   2.919  0.9021 -0.0876  0.6695
  887MOL0     C16970   1.754   2.006   2.803  0.7225  1.1153  0.2399
  887MOL0     C16971   1.843   2.043   2.711  0.7183 -0.5314  0.7805
  887MOL0     C16972   1.801   2.027   2.559  0.1301  1.0192  0.5544
  887MOL0     C16973   1.677   2.106   2.516  0.6174  0.7888  0.1137
  887MOL0     C16974   1.622   2.023   2.405  0.6941  0.7812  0.5548
  887MOL0     C16975   1.515   2.102   2.332 -0.5458 -0.0100  0.5812
  887MOL0     O16976   1.576   2.183   2.235  0.3369 -0.3753  1.1172
  887MOL0     C16977   1.492   2.237   2.135 -0.0014  0.6333 -0.8543
  887MOL0     C16978   1.563   2.316   2.048  0.0836 -0.3952 -0.6887
  887MOL0     C16979   1.503   2.392   1.946 -0.0625  0.4669  0.1808
  887MOL0     C16980   1.365   2.391   1.934  0.9566 -0.1468 -0.3780
  887MOL0     C16981   1.298   2.487   1.843 -0.0041  0.5093 -0.5993
  887MOL0     O16982   1.377   2.583   1.783 -0.1978 -0.0796 -0.0805
  887MOL0     C16983   1.317   2.683   1.715 -0.8047  1.1285  0.2704
  887MOL0     C16984   1.386   2.801   1.734 -0.9836 -0.1366 -0.1534
  887MOL0     C16985   1.356   2.913   1.653 -0.7699 -0.5009 -0.1994
  887MOL0     C16986   1.244   2.921   1.576  0.5818 -0.0805  0.0613
  887MOL0     O16987   1.211   3.038   1.531  0.1470  0.1184 -0.2328
  887MOL0     C16988   1.123   3.054   1.421 -0.5968 -0.7344  0.7285
  887MOL0     C16989   0.968   3.067   1.461  0.6144 -0.5245  0.8996
  887MOL0     C16990   0.922   3.195   1.530  0.0946 -0.8253  0.1256
  887MOL0     C16991   0.950   3.206   1.671 -0.7402  0.0705 -0.6634
  887MOL0     C16992   0.871   3.313   1.747 -0.9065  0.5321  0.2246
  887MOL0     C16993   0.964   3.418   1.810  0.6913  0.0693 -0.1775
  887MOL0     C16994   0.882   3.525   1.890  0.4197 -0.9632 -0.8104
  887MOL0     C16995   0.754   3.590   1.830  0.6040  1.3160 -0.5091
  887MOL0    Cl16996   0.807   3.653   1.664  0.0420 -0.0211 -0.1196
  887MOL0     C16997   1.164   2.800   1.564 -0.3420  0.2903  0.2270
  887MOL0     C16998   1.206   2.683   1.628  0.3301  1.3166  0.0423
  887MOL0     O16999   1.175   2.493   1.846 -0.2143  0.8308 -0.8721
  887MOL0     C17000   1.288   2.308   2.026 -0.5731  0.4738  0.0029
  887MOL0     C17001   1.358   2.224   2.121 -0.1540  0.3600 -0.1785
  887MOL0     N17002   1.963   2.063   2.771 -0.1998  0.6979 -0.4291
  887MOL0     N17003   1.958   2.036   2.898 -0.0913 -0.3727 -0.6636
  887MOL0     C17004   0.815   2.241   3.380 -0.3009  0.8956 -0.8043
  887MOL0     C17005   0.694   2.256   3.450  0.6760 -0.4065 -0.5098
  887MOL0     C17006   0.356   2.504   3.682  0.2861 -1.0004  0.7633
  887MOL0     C17007   0.284   2.382   3.704 -0.4719 -0.5167  0.7072
  887MOL0     C17008   0.145   2.383   3.725  0.4950 -0.3944  0.0435
  887MOL0     C17009   0.068   2.505   3.728 -0.3602 -0.0412  0.4003
  887MOL0     O17010  -0.064   2.522   3.747  0.0589  0.3826 -0.2829
  887MOL0     C17011  -0.142   2.409   3.739 -0.0366 -0.2934 -1.4000
  887MOL0     C17012  -0.177   2.374   3.883  0.1957 -0.0520 -0.2012
  887MOL0     C17013  -0.244   2.238   3.888 -0.5753  0.1099  0.0884
  887MOL0     C17014  -0.319   2.213   4.020  0.6299  0.1500 -0.0896
  887MOL0     C17015  -0.236   2.191   4.144  0.1045 -0.4088 -0.2136
  887MOL0     C17016  -0.159   2.180   4.234  0.7223  0.5568  0.1840
  887MOL0     C17017   0.145   2.625   3.709  0.2417  0.0086  0.4776
  887MOL0     C17018   0.278   2.624   3.688 -0.1993  0.5153  0.1490
  887MOL0     H17019   0.767   2.564   3.571  0.5598 -0.6541  3.0160
  887MOL0     H17020   0.973   2.514   3.450  0.4767 -0.1144 -0.6182
  887MOL0     H17021   1.089   2.117   3.249  4.5503 -3.5876  0.9307
  887MOL0     H17022   1.098   2.149   3.432 -2.0280 -1.0627  0.4418
  887MOL0     H17023   1.315   2.288   3.371 -0.3270  0.6261  0.0454
  887MOL0     H17024   1.299   2.212   3.219  1.5791 -0.5592  0.6194
  887MOL0     H17025   1.288   1.992   3.293  2.5805  1.2561 -2.4773
  887MOL0     H17026   1.270   2.037   3.465  0.2804  0.9380 -0.0810
  887MOL0     H17027   1.488   2.158   3.443  2.6645 -0.9841  1.0512
  887MOL0     H17028   1.491   1.979   3.443  1.1498  0.5594 -0.9661
  887MOL0     H17029   1.520   2.156   3.194 -1.7776  0.2828  0.5172
  887MOL0     H17030   1.500   1.969   3.208 -0.2590 -1.9622  2.4712
  887MOL0     H17031   1.703   1.953   3.308  1.2784 -0.2012 -3.3545
  887MOL0     H17032   1.717   2.120   3.351 -0.4270  0.5664 -0.0798
  887MOL0     H17033   1.751   2.172   3.097  3.1823 -1.7202 -2.9106
  887MOL0     H17034   1.882   2.092   3.186  2.1090 -0.6723 -1.9934
  887MOL0     H17035   1.655   1.951   3.016  1.0253  0.1441 -1.0604
  887MOL0     H17036   1.809   1.873   3.078  1.2552 -0.2424 -0.0667
  887MOL0     H17037   1.652   1.977   2.778  0.4684  1.8024  0.4714
  887MOL0     H17038   1.773   1.922   2.571 -1.1946  1.0632 -1.5685
  887MOL0     H17039   1.890   2.032   2.494  2.0137 -2.2375  2.6049
  887MOL0     H17040   1.711   2.206   2.484  2.8346 -0.0025 -0.2264
  887MOL0     H17041   1.608   2.113   2.600 -2.1202 -2.5386 -1.6510
  887MOL0     H17042   1.703   1.987   2.340  0.6293  1.5545  0.0365
  887MOL0     H17043   1.565   1.942   2.450 -1.5127  0.6293 -2.2559
  887MOL0     H17044   1.461   2.145   2.416 -0.0035 -0.5301  1.2047
  887MOL0     H17045   1.454   2.039   2.268 -1.9429  1.4776  0.3888
  887MOL0     H17046   1.671   2.314   2.057  0.0124 -0.4461  0.3754
  887MOL0     H17047   1.563   2.447   1.874  1.4074  0.0904  1.0821
  887MOL0     H17048   1.473   2.801   1.799 -1.1584 -0.9577  0.0999
  887MOL0     H17049   1.425   2.995   1.670  0.5667 -1.4398 -0.9583
  887MOL0     H17050   1.153   2.979   1.347  0.8026  2.8164 -2.6491
  887MOL0     H17051   1.152   3.152   1.382  2.2859 -0.1436  3.8505
  887MOL0     H17052   0.931   2.988   1.527  2.6148 -1.0042  1.5148
  887MOL0     H17053   0.918   3.065   1.363  4.9798 -0.3756 -1.5804
  887MOL0     H17054   0.817   3.218   1.508  0.4798  0.8708 -0.1252
  887MOL0     H17055   0.965   3.277   1.471 -0.2879 -1.4873 -1.1084
  887MOL0     H17056   0.923   3.109   1.715 -1.4517  1.4354  2.1412
  887MOL0     H17057   1.057   3.206   1.694 -0.7175  0.4645 -0.7643
  887MOL0     H17058   0.832   3.269   1.839  6.4200  0.3373  4.0253
  887MOL0     H17059   0.808   3.371   1.680  0.2489  2.6351  0.8633
  887MOL0     H17060   1.017   3.468   1.728 -0.0646  0.3122 -0.5341
  887MOL0     H17061   1.041   3.375   1.874  1.2294 -0.7312 -1.3346
  887MOL0     H17062   0.872   3.502   1.996  3.3065 -0.5686 -0.3801
  887MOL0     H17063   0.944   3.614   1.907  0.0400 -0.9432  0.6278
  887MOL0     H17064   0.703   3.661   1.896  0.2587  0.0971  0.5846
  887MOL0     H17065   0.685   3.505   1.826  3.6233 -1.2514 -2.2700
  887MOL0     H17066   1.080   2.787   1.496  0.8444 -0.9997 -1.0517
  887MOL0     H17067   1.140   2.597   1.618  1.0460  0.8734 -0.9786
  887MOL0     H17068   1.180   2.308   2.009 -0.3556  0.0381 -1.5308
  887MOL0     H17069   1.294   2.154   2.173 -2.3863 -0.0304 -3.1705
  887MOL0     H17070   0.835   2.149   3.328  1.7631  0.2832  0.9556
  887MOL0     H17071   0.613   2.187   3.430  1.7838 -1.3820 -1.8011
  887MOL0     H17072   0.329   2.283   3.703 -1.3999 -0.9851  2.2175
  887MOL0     H17073   0.089   2.291   3.740 -2.9696  1.6497  0.6357
  887MOL0     H17074  -0.087   2.328   3.689  0.2311 -2.7454  2.4484
  887MOL0     H17075  -0.231   2.441   3.684  0.2109  3.1645 -0.0352
  887MOL0     H17076  -0.084   2.376   3.941 -0.0486  2.5493  0.2279
  887MOL0     H17077  -0.238   2.451   3.930  0.0854  0.8889 -1.7847
  887MOL0     H17078  -0.168   2.161   3.871  0.3360  1.0256 -0.0840
  887MOL0     H17079  -0.320   2.219   3.811 -0.6279  0.0650  0.1513
  887MOL0     H17080  -0.397   2.289   4.033 -0.6261 -1.4837  3.5313
  887MOL0     H17081  -0.370   2.117   4.005  3.3088 -1.3751  0.0652
  887MOL0     H17082  -0.103   2.160   4.323  0.7494  1.5149  0.3908
  887MOL0     H17083   0.099   2.723   3.724  4.1295  1.9782  0.7477
  887MOL0     H17084   0.332   2.719   3.683  0.8495 -0.0403  0.5830
  888MOL0     O17085   7.146  10.578   8.803  0.5888  0.2575  0.0691
  888MOL0     C17086   7.094  10.471   8.826  0.6228 -0.4178  0.2129
  888MOL0     O17087   7.004  10.439   8.929  0.1170  0.5110  0.0590
  888MOL0     C17088   6.997  10.529   9.023  0.1260  0.2556  0.0819
  888MOL0     C17089   7.046  10.497   9.151  0.1696 -0.8717 -0.7061
  888MOL0     C17090   7.049  10.599   9.253  1.0044  0.0503  0.3893
  888MOL0     C17091   7.016  10.724   9.224 -0.0197 -1.2019  0.4454
  888MOL0     O17092   7.046  10.816   9.318  0.3218 -0.3997  0.3428
  888MOL0     C17093   6.993  10.943   9.313  0.1831 -0.1138  0.9962
  888MOL0     C17094   6.838  10.938   9.334 -0.5020  0.1274  0.1621
  888MOL0     C17095   6.787  11.081   9.337  0.3168 -0.1506 -0.0864
  888MOL0     C17096   6.650  11.088   9.398 -0.0128  0.6560  0.0761
  888MOL0     C17097   6.596  11.226   9.408  0.8884 -0.6721 -0.6485
  888MOL0     C17098   6.680  11.321   9.498  1.3048 -0.4478 -0.0481
  888MOL0     C17099   6.594  11.439   9.538 -0.0694  0.0593  0.0700
  888MOL0     C17100   6.672  11.561   9.588 -0.1424  0.8327 -0.2341
  888MOL0     N17101   6.744  11.645   9.497 -0.1118 -0.0142 -0.1043
  888MOL0     C17102   6.788  11.771   9.525  1.0237  0.6279 -0.4066
  888MOL0     C17103   6.839  11.826   9.413  0.4519  0.4943 -0.1704
  888MOL0     C17104   6.892  11.962   9.390 -0.3817 -0.0502 -0.7544
  888MOL0     C17105   6.801  12.044   9.303  0.0464  1.2322 -0.7319
  888MOL0     C17106   6.877  12.103   9.190 -0.0086  0.0314 -0.0160
  888MOL0     C17107   6.795  12.210   9.112  0.0486 -0.9599  0.0836
  888MOL0     O17108   6.865  12.241   8.990 -0.3624  0.2151  0.1123
  888MOL0     C17109   6.796  12.300   8.886  0.1551 -0.8895  0.2281
  888MOL0     C17110   6.657  12.339   8.887  0.2685 -0.1353 -0.8194
  888MOL0     C17111   6.620  12.428   8.791  1.1904  0.7500  0.8691
  888MOL0     C17112   6.692  12.462   8.678 -0.1456  0.9908 -0.2246
  888MOL0     C17113   6.641  12.553   8.576  0.5202 -0.5909  0.4466
  888MOL0     O17114   6.735  12.627   8.506  0.5515  0.3076  0.0621
  888MOL0     C17115   6.696  12.716   8.404 -0.0088 -0.0968  0.6851
  888MOL0     C17116   6.807  12.769   8.327  0.2803  0.0186  0.6328
  888MOL0     C17117   6.791  12.848   8.214  0.6088 -1.1577 -0.1198
  888MOL0     C17118   6.662  12.888   8.170 -0.2009 -0.6750  0.1872
  888MOL0     O17119   6.662  12.956   8.052  0.4998  0.0595 -0.0686
  888MOL0     C17120   6.539  12.942   7.971  0.0330  0.4709  0.1658
  888MOL0     C17121   6.574  12.983   7.833 -0.5088 -0.1007  0.4277
  888MOL0     C17122   6.457  12.993   7.747  0.1725 -0.4941 -1.0375
  888MOL0     C17123   6.480  12.942   7.609 -0.3568  0.2459 -0.3323
  888MOL0     C17124   6.413  13.017   7.497  1.1183 -0.8125 -0.0455
  888MOL0     C17125   6.264  12.975   7.481  0.8222 -0.5355 -0.0014
  888MOL0     C17126   6.200  13.053   7.359 -0.3621  0.4341 -0.3359
  888MOL0     C17127   6.192  13.201   7.373  0.1362  0.6878 -0.4237
  888MOL0    Cl17128   6.040  13.250   7.442  0.4075  0.3060  0.7974
  888MOL0     C17129   6.549  12.840   8.245 -0.9253 -0.8426 -0.2797
  888MOL0     C17130   6.565  12.766   8.362  0.4694  0.2878  0.1537
  888MOL0     O17131   6.521  12.568   8.568 -0.2916  0.6392  0.1203
  888MOL0     C17132   6.827  12.411   8.668  0.1310 -0.1514  0.0573
  888MOL0     C17133   6.883  12.352   8.778  0.0770 -0.2773 -0.3903
  888MOL0     N17134   6.808  11.734   9.309 -0.2388 -0.0739  0.1355
  888MOL0     N17135   6.756  11.635   9.363 -0.6041  0.2500 -0.4748
  888MOL0     C17136   6.947  10.742   9.102  0.1485  0.4168 -0.5058
  888MOL0     C17137   6.925  10.642   9.007 -0.0924 -0.7406  0.2028
  888MOL0     C17138   7.152  10.362   8.745 -0.3141  0.1178  0.5272
  888MOL0     C17139   7.113  10.227   8.764 -0.4513  0.1441  0.2267
  888MOL0     C17140   7.174  10.120   8.707  0.5054 -1.1674 -0.1980
  888MOL0     C17141   7.267  10.137   8.614 -0.1713  0.6572  0.2096
  888MOL0     O17142   7.324  10.034   8.556  0.3821  0.0535  0.0220
  888MOL0     C17143   7.242   9.916   8.522  1.2353 -0.1296  0.3594
  888MOL0     C17144   7.311   9.831   8.417 -0.1374  0.8210  0.2015
  888MOL0     C17145   7.211   9.721   8.382  0.8013  0.3254 -0.2020
  888MOL0     C17146   7.251   9.664   8.248  0.9199 -0.2574 -0.4007
  888MOL0     C17147   7.203   9.749   8.133 -0.4501 -0.2576 -0.7494
  888MOL0     C17148   7.183   9.815   8.032 -0.6673  0.4274 -0.5498
  888MOL0     C17149   7.309  10.260   8.582 -0.4869 -0.7329 -0.4196
  888MOL0     C17150   7.253  10.373   8.646  0.5639 -0.6380  0.0550
  888MOL0     H17151   7.092  10.399   9.164 -2.5651 -1.9600  1.9796
  888MOL0     H17152   7.102  10.584   9.346  0.3515 -1.9551  0.4798
  888MOL0     H17153   7.023  10.985   9.216  0.2050  1.2341  1.5666
  888MOL0     H17154   7.039  10.991   9.401 -1.3782 -0.0209  1.7866
  888MOL0     H17155   6.805  10.887   9.425 -4.7391  0.7611 -0.8215
  888MOL0     H17156   6.796  10.881   9.251  2.8344  2.0572 -3.1728
  888MOL0     H17157   6.777  11.122   9.236  2.5900  5.0258  1.4751
  888MOL0     H17158   6.864  11.142   9.384  2.8310 -2.0612 -1.4649
  888MOL0     H17159   6.584  11.031   9.331 -0.0345  0.1472  0.5182
  888MOL0     H17160   6.655  11.035   9.494 -2.7648  1.0600  0.5342
  888MOL0     H17161   6.494  11.220   9.446  1.6482 -0.8558  1.5204
  888MOL0     H17162   6.584  11.275   9.311 -1.2084  2.4194  1.0134
  888MOL0     H17163   6.756  11.369   9.436  0.1533  1.8192  0.1933
  888MOL0     H17164   6.720  11.268   9.585  1.2968 -1.1230 -0.4504
  888MOL0     H17165   6.534  11.466   9.451 -0.0898 -1.8480 -0.5564
  888MOL0     H17166   6.515  11.406   9.607 -1.1597  0.4767 -0.9509
  888MOL0     H17167   6.749  11.543   9.663 -1.8827  0.6108  1.5639
  888MOL0     H17168   6.596  11.623   9.636  0.2423  0.6822  0.5789
  888MOL0     H17169   6.806  11.817   9.622  1.3390 -2.5283  1.1376
  888MOL0     H17170   6.996  11.958   9.359 -0.1382 -2.1523  0.1017
  888MOL0     H17171   6.910  12.006   9.488  2.2677 -1.9392 -0.2680
  888MOL0     H17172   6.761  12.129   9.360 -2.0488  2.4584 -3.7656
  888MOL0     H17173   6.715  11.989   9.265  1.0381 -0.3451 -0.7901
  888MOL0     H17174   6.971  12.149   9.221 -0.2805  1.7617 -1.6005
  888MOL0     H17175   6.891  12.014   9.128 -2.2363 -0.3697 -0.0372
  888MOL0     H17176   6.775  12.299   9.173  2.6454 -0.3469  0.1584
  888MOL0     H17177   6.702  12.157   9.088  0.2968 -1.9440  1.1579
  888MOL0     H17178   6.584  12.312   8.963 -1.0004  1.5216 -1.3919
  888MOL0     H17179   6.517  12.462   8.787  1.3509  1.3381  1.4613
  888MOL0     H17180   6.912  12.751   8.349  0.5686  0.6400 -0.1803
  888MOL0     H17181   6.885  12.870   8.164 -0.3831  1.3130 -1.0741
  888MOL0     H17182   6.462  13.002   8.020  1.8279  2.0340  1.2374
  888MOL0     H17183   6.518  12.835   7.970 -0.1380  0.5055  0.1070
  888MOL0     H17184   6.653  12.922   7.788  0.4380  1.3047  0.0762
  888MOL0     H17185   6.618  13.084   7.839 -2.1959  0.5905  2.2721
  888MOL0     H17186   6.435  13.100   7.746  1.3379 -0.0349  3.2286
  888MOL0     H17187   6.372  12.940   7.793  0.7559 -0.4117  0.1778
  888MOL0     H17188   6.586  12.930   7.583  0.6338  3.2360  1.6735
  888MOL0     H17189   6.438  12.842   7.617  0.7327 -0.3246 -1.4189
  888MOL0     H17190   6.456  13.003   7.397 -1.3506  0.3697 -1.3650
  888MOL0     H17191   6.441  13.119   7.524 -0.2385  0.3232 -2.5879
  888MOL0     H17192   6.204  12.984   7.572  3.1161  0.3067  1.5313
  888MOL0     H17193   6.259  12.868   7.463 -2.7542 -0.9931  2.5866
  888MOL0     H17194   6.275  13.037   7.280 -1.1151 -4.6764 -0.3816
  888MOL0     H17195   6.106  13.010   7.323 -0.3533 -3.6363  3.6355
  888MOL0     H17196   6.194  13.254   7.277  4.1815  1.3791 -0.1352
  888MOL0     H17197   6.276  13.243   7.429 -0.7501  2.5928 -0.4149
  888MOL0     H17198   6.451  12.860   8.202  0.1387 -1.2537 -3.0949
  888MOL0     H17199   6.480  12.726   8.416  1.8544 -0.0061  2.1921
  888MOL0     H17200   6.882  12.413   8.575 -0.7968  1.7672 -0.4983
  888MOL0     H17201   6.985  12.316   8.777 -0.3387 -1.4732 -1.3065
  888MOL0     H17202   6.908  10.837   9.067  0.2669  0.7529  0.2504
  888MOL0     H17203   6.874  10.665   8.914 -0.2904  0.6842  0.6496
  888MOL0     H17204   7.051  10.204   8.850 -0.7623 -3.2522 -0.7989
  888MOL0     H17205   7.153  10.016   8.733  3.2876 -1.7322  0.1346
  888MOL0     H17206   7.142   9.951   8.497  2.0695  5.2476  3.0491
  888MOL0     H17207   7.239   9.857   8.614  1.0770 -3.1639 -1.4829
  888MOL0     H17208   7.337   9.898   8.334  0.2897  0.0861 -0.2642
  888MOL0     H17209   7.408   9.791   8.448 -0.3685 -1.9084 -2.2004
  888MOL0     H17210   7.110   9.764   8.380  1.5876  2.2236 -1.8015
  888MOL0     H17211   7.218   9.645   8.460 -1.0419 -0.2673 -0.5537
  888MOL0     H17212   7.358   9.643   8.241  1.4732  2.6697 -2.8950
  888MOL0     H17213   7.210   9.564   8.233 -2.5475  1.0417 -0.5343
  888MOL0     H17214   7.172   9.897   7.964  0.3159  1.4264  0.4406
  888MOL0     H17215   7.390  10.283   8.514 -1.0157 -0.1199 -0.8532
  888MOL0     H17216   7.304  10.462   8.611  3.5147 -2.5023 -0.6912
  889MOL0     O17217   9.894  10.611   2.094 -0.3221  0.4520  0.1012
  889MOL0     C17218  10.009  10.651   2.082  0.7780  0.8028  1.5130
  889MOL0     O17219  10.122  10.581   2.047 -0.2951  0.0818 -0.5696
  889MOL0     C17220  10.113  10.447   2.016  0.4047  0.1677  0.4795
  889MOL0     C17221  10.088  10.403   1.887  0.0870 -0.4522  0.4318
  889MOL0     C17222  10.076  10.266   1.855 -0.3471  0.0789  0.6115
  889MOL0     C17223  10.096  10.168   1.952  0.5062 -0.0436  0.0209
  889MOL0     O17224  10.094  10.039   1.913  0.8205  0.2448 -0.2546
  889MOL0     C17225  10.166   9.936   1.982 -0.4602  0.4356  0.6658
  889MOL0     C17226  10.135   9.805   1.901  0.3218 -0.6812 -0.6864
  889MOL0     C17227  10.184   9.818   1.759 -0.1649  1.3176  1.0703
  889MOL0     C17228  10.214   9.681   1.695 -0.6478 -0.8319  0.0831
  889MOL0     C17229  10.253   9.685   1.551  0.3700 -0.3019 -0.3568
  889MOL0     C17230  10.282   9.552   1.481 -0.2329 -0.1768  0.7222
  889MOL0     C17231  10.368   9.545   1.357 -0.2819  0.6045 -0.0932
  889MOL0     C17232  10.304   9.598   1.230  0.3557  1.0915 -1.0236
  889MOL0     N17233  10.367   9.729   1.201  0.7298  0.5815  1.0878
  889MOL0     C17234  10.316   9.850   1.239  0.9174  0.5905 -0.0472
  889MOL0     C17235  10.403   9.945   1.196 -0.6050  0.0796  0.0199
  889MOL0     C17236  10.382  10.091   1.212  0.5909 -0.5049  0.5261
  889MOL0     C17237  10.317  10.125   1.348 -0.5985  0.8847  0.6218
  889MOL0     C17238  10.289  10.271   1.358  0.2914  0.1084  0.6651
  889MOL0     C17239  10.416  10.360   1.341  0.2619  0.7543 -0.0065
  889MOL0     O17240  10.387  10.495   1.349  0.2651  0.1938  0.9914
  889MOL0     C17241  10.376  10.562   1.225 -0.5593 -0.0281  0.1619
  889MOL0     C17242  10.364  10.706   1.232  0.9889  0.0654  0.3984
  889MOL0     C17243  10.336  10.780   1.112  0.1417  0.2042 -0.9245
  889MOL0     C17244  10.331  10.716   0.986  0.0012 -1.0413  0.8955
  889MOL0     C17245  10.311  10.788   0.857  0.0188 -0.5781 -0.3418
  889MOL0     O17246  10.339  10.713   0.751  0.3457  0.2823 -0.4700
  889MOL0     C17247  10.315  10.764   0.622  0.2838  0.0641 -0.4111
  889MOL0     C17248  10.213  10.854   0.579 -0.2882  0.0399 -0.7638
  889MOL0     C17249  10.225  10.921   0.458 -0.5361  0.0212  0.7099
  889MOL0     C17250  10.314  10.888   0.356 -0.1713 -0.3881  0.4021
  889MOL0     O17251  10.313  10.933   0.226 -0.4350 -0.5726 -0.0240
  889MOL0     C17252  10.429  11.017   0.205 -0.1896 -0.2207  0.4378
  889MOL0     C17253  10.459  11.048   0.058 -0.1336 -0.2873  0.3813
  889MOL0     C17254  10.368  11.152  -0.014  0.0666  0.0781 -0.8145
  889MOL0     C17255  10.297  11.099  -0.130  0.5109  0.2021  0.5289
  889MOL0     C17256  10.207  11.202  -0.197  0.1102 -0.3430  0.9429
  889MOL0     C17257  10.068  11.210  -0.139  0.7545 -0.0960  0.1712
  889MOL0     C17258  10.004  11.321  -0.217  0.1127  0.2854  0.8997
  889MOL0     C17259   9.944  11.277  -0.352 -0.1220  0.7928  1.4400
  889MOL0    Cl17260   9.998  11.367  -0.499  0.4080 -0.3213 -0.0674
  889MOL0     C17261  10.396  10.776   0.379 -0.1265 -0.3883 -0.4287
  889MOL0     C17262  10.389  10.715   0.509  0.4026  0.1146  0.1655
  889MOL0     O17263  10.276  10.909   0.856  0.2417  0.1003  0.0020
  889MOL0     C17264  10.355  10.575   0.973  1.3575  0.2381 -0.0901
  889MOL0     C17265  10.379  10.502   1.096 -0.4788 -0.2102 -0.7188
  889MOL0     N17266  10.510   9.879   1.135 -0.6378 -0.5035 -0.1036
  889MOL0     N17267  10.476   9.759   1.132  1.2343  0.1848 -0.5669
  889MOL0     C17268  10.131  10.216   2.080 -0.0828  0.2580  0.4605
  889MOL0     C17269  10.134  10.348   2.112  0.3148  0.1103  0.3874
  889MOL0     C17270  10.034  10.794   2.106  0.2215  0.7769  0.1642
  889MOL0     C17271  10.163  10.848   2.081 -0.1998 -0.0765 -0.7127
  889MOL0     C17272  10.192  10.975   2.106  0.3814  0.5750  1.2557
  889MOL0     C17273  10.099  11.058   2.150  0.7300 -0.4676 -0.7284
  889MOL0     O17274  10.120  11.189   2.192 -0.4314  0.7577 -0.3996
  889MOL0     C17275  10.167  11.280   2.097 -1.1035  0.5852  0.3170
  889MOL0     C17276  10.043  11.366   2.047 -0.7420  0.0693 -0.3216
  889MOL0     C17277  10.071  11.464   1.929  0.0616  0.1175 -0.6507
  889MOL0     C17278  10.168  11.592   1.961 -0.3843  0.3440  0.1988
  889MOL0     C17279  10.111  11.664   2.082 -0.4338 -0.3433 -0.4077
  889MOL0     C17280  10.069  11.734   2.176  0.4246 -0.1819  0.4219
  889MOL0     C17281   9.968  11.011   2.176 -0.1125  1.0753  1.2171
  889MOL0     C17282   9.935  10.878   2.153  0.0046 -1.2216 -0.5190
  889MOL0     H17283  10.052  10.467   1.807  0.1018 -2.0399 -0.8974
  889MOL0     H17284  10.062  10.255   1.748  2.0825  4.2731 -0.3883
  889MOL0     H17285  10.126   9.923   2.083 -2.5185  0.8900 -0.0557
  889MOL0     H17286  10.274   9.946   1.971 -0.6034 -0.9432 -3.7932
  889MOL0     H17287  10.027   9.791   1.908  0.2199  0.4766  0.5145
  889MOL0     H17288  10.177   9.713   1.943 -1.7861 -2.7015 -2.7176
  889MOL0     H17289  10.275   9.877   1.772  0.9792 -0.7605  3.5598
  889MOL0     H17290  10.113   9.867   1.693  2.5364  3.6049 -0.3553
  889MOL0     H17291  10.285   9.626   1.757  1.1620 -0.8601 -1.8577
  889MOL0     H17292  10.115   9.636   1.704 -2.1661  2.0789 -0.7398
  889MOL0     H17293  10.349   9.737   1.554  1.4678 -2.2463  1.5436
  889MOL0     H17294  10.170   9.740   1.506 -1.2275 -0.5866  2.0159
  889MOL0     H17295  10.184   9.510   1.455 -1.1638  3.6606 -3.1675
  889MOL0     H17296  10.318   9.486   1.561  0.3962  0.9892  1.4221
  889MOL0     H17297  10.459   9.601   1.381 -1.6259  2.4667  0.8836
  889MOL0     H17298  10.395   9.439   1.350 -0.6554  0.5715 -1.1070
  889MOL0     H17299  10.196   9.592   1.248  0.3716 -0.8290 -1.3071
  889MOL0     H17300  10.318   9.520   1.155  1.6071 -1.0402  1.2711
  889MOL0     H17301  10.227   9.856   1.301 -0.7720 -1.4727 -2.0818
  889MOL0     H17302  10.311  10.126   1.136 -1.0903 -2.1227  1.2864
  889MOL0     H17303  10.479  10.135   1.187 -0.5799  2.1834  0.3351
  889MOL0     H17304  10.370  10.092   1.437  2.0614  1.8128 -0.5313
  889MOL0     H17305  10.216  10.081   1.342  0.3963 -1.7247  1.6543
  889MOL0     H17306  10.210  10.283   1.283  0.7867 -2.5681 -0.3936
  889MOL0     H17307  10.247  10.285   1.457  3.4535 -2.4142  2.5649
  889MOL0     H17308  10.481  10.326   1.259  2.1229  0.7977  1.3943
  889MOL0     H17309  10.482  10.344   1.426 -0.5239 -0.2932  0.4182
  889MOL0     H17310  10.361  10.763   1.324  0.4158  3.8514 -1.7163
  889MOL0     H17311  10.324  10.888   1.118  0.0761  0.1689 -0.3372
  889MOL0     H17312  10.141  10.881   0.655  0.4043 -2.8684  1.1088
  889MOL0     H17313  10.163  11.008   0.442 -0.8960 -0.6139 -1.9466
  889MOL0     H17314  10.516  10.970   0.251 -0.7466 -0.8226  0.9059
  889MOL0     H17315  10.411  11.113   0.256  0.0643 -0.2616  0.6074
  889MOL0     H17316  10.455  10.949   0.012  1.2188  0.2600 -1.0064
  889MOL0     H17317  10.562  11.086   0.056  0.0132 -0.6627  0.8800
  889MOL0     H17318  10.424  11.242  -0.042  1.4835  0.5113  2.8255
  889MOL0     H17319  10.314  11.195   0.071 -0.2918 -0.9940 -0.4858
  889MOL0     H17320  10.363  11.066  -0.211 -1.4598  0.2119 -1.1482
  889MOL0     H17321  10.236  11.013  -0.103 -2.3199  2.6753  2.7606
  889MOL0     H17322  10.201  11.182  -0.305  0.8855 -2.5845  1.2859
  889MOL0     H17323  10.252  11.301  -0.181  2.5767 -1.1211 -0.5738
  889MOL0     H17324  10.051  11.236  -0.034 -0.5634  3.1265 -0.7014
  889MOL0     H17325  10.017  11.116  -0.158  1.4140 -1.0670  2.8397
  889MOL0     H17326   9.910  11.344  -0.165 -0.9846 -2.5410  0.3786
  889MOL0     H17327  10.066  11.410  -0.231 -0.3618  0.4253 -0.5748
  889MOL0     H17328   9.835  11.276  -0.341 -0.5079  1.4727 -1.4682
  889MOL0     H17329   9.974  11.174  -0.376 -0.5905  0.7212  1.1325
  889MOL0     H17330  10.457  10.723   0.306  2.6975  0.1957  1.3513
  889MOL0     H17331  10.455  10.630   0.515 -0.2298 -0.3626  0.5512
  889MOL0     H17332  10.352  10.519   0.879  3.4124  0.2421 -0.1988
  889MOL0     H17333  10.377  10.395   1.082 -4.1199 -0.2337 -0.9572
  889MOL0     H17334  10.154  10.149   2.163  1.3528  0.7514  0.4816
  889MOL0     H17335  10.154  10.366   2.217 -0.3817 -1.6110  0.8609
  889MOL0     H17336  10.245  10.799   2.030 -0.8899 -1.1282 -0.8407
  889MOL0     H17337  10.285  11.017   2.071  0.0623 -0.2327 -0.6889
  889MOL0     H17338  10.224  11.253   2.007 -0.8108  3.7126 -0.5475
  889MOL0     H17339  10.240  11.348   2.142 -1.5836  0.2230  1.6772
  889MOL0     H17340   9.965  11.302   2.003  0.3440  0.4841 -3.0215
  889MOL0     H17341  10.010  11.412   2.141  2.4254 -3.8389  3.1141
  889MOL0     H17342   9.977  11.492   1.880  1.0658  2.1753 -1.5060
  889MOL0     H17343  10.112  11.401   1.849  0.5968 -1.5545  0.8656
  889MOL0     H17344  10.268  11.553   1.981  0.1116  1.3445 -0.2514
  889MOL0     H17345  10.164  11.650   1.868 -1.6524  0.9603  0.6111
  889MOL0     H17346  10.047  11.789   2.265  1.0375  0.2749  0.3013
  889MOL0     H17347   9.886  11.066   2.219 -1.4897 -0.2511  0.3903
  889MOL0     H17348   9.837  10.853   2.192  0.1442  0.4635  1.0489
  890MOL0     O17349   5.763   4.746   0.192 -0.8237 -0.4606  0.2360
  890MOL0     C17350   5.662   4.775   0.131 -0.2578 -0.4288  0.0226
  890MOL0     O17351   5.645   4.783  -0.003  0.0967 -0.8184  0.0638
  890MOL0     C17352   5.758   4.777  -0.072  0.0559 -0.0887  0.7914
  890MOL0     C17353   5.819   4.900  -0.112  0.0517 -0.5546 -0.2726
  890MOL0     C17354   5.905   4.903  -0.225  0.1638  0.0285  0.8066
  890MOL0     C17355   5.944   4.781  -0.285 -0.1560  0.8098 -0.7926
  890MOL0     O17356   6.038   4.768  -0.379  0.1508  1.3051  0.4973
  890MOL0     C17357   6.130   4.877  -0.408 -0.6749  0.1453 -0.2163
  890MOL0     C17358   6.253   4.813  -0.460 -0.1575 -0.8104  0.8850
  890MOL0     C17359   6.341   4.929  -0.501  0.6918  0.0399 -0.2168
  890MOL0     C17360   6.410   5.001  -0.378  0.1935 -0.5560 -0.5004
  890MOL0     C17361   6.525   5.093  -0.413  0.2348 -0.7697 -0.4335
  890MOL0     C17362   6.479   5.223  -0.485  0.6745  0.3946  0.2143
  890MOL0     C17363   6.382   5.308  -0.405  0.6366  0.2242  0.5475
  890MOL0     C17364   6.353   5.448  -0.478  0.1285 -0.8004  0.0056
  890MOL0     N17365   6.463   5.538  -0.464 -0.7874 -0.5804 -0.2662
  890MOL0     C17366   6.569   5.560  -0.555 -1.1429  0.4703 -0.4740
  890MOL0     C17367   6.643   5.663  -0.501  0.6161  0.7088 -0.0014
  890MOL0     C17368   6.768   5.729  -0.554  0.9835  0.6690  0.2847
  890MOL0     C17369   6.711   5.820  -0.663 -0.1617 -0.2107  0.5654
  890MOL0     C17370   6.809   5.942  -0.676  0.3935  0.7842 -0.3354
  890MOL0     C17371   6.766   6.053  -0.774 -0.1607  0.5937  0.3783
  890MOL0     O17372   6.875   6.157  -0.778  0.6318  0.2373 -0.1222
  890MOL0     C17373   6.896   6.237  -0.888 -0.3858 -0.1645 -0.3849
  890MOL0     C17374   6.973   6.350  -0.859  0.4318 -0.1909 -0.2965
  890MOL0     C17375   7.003   6.442  -0.966 -1.2575  0.5764 -0.1041
  890MOL0     C17376   6.968   6.422  -1.095 -0.8917  0.0022 -0.2232
  890MOL0     C17377   6.997   6.513  -1.207 -0.5769 -0.8941  0.1387
  890MOL0     O17378   6.942   6.491  -1.331 -0.5515  1.0241 -0.8468
  890MOL0     C17379   6.927   6.604  -1.405  0.0376 -0.3466  0.1900
  890MOL0     C17380   6.991   6.609  -1.528  0.0948  0.0574  0.4879
  890MOL0     C17381   6.968   6.711  -1.613  0.2805 -0.0216  0.1338
  890MOL0     C17382   6.881   6.819  -1.586  0.2327 -0.3265 -0.2896
  890MOL0     O17383   6.863   6.922  -1.676  0.0093 -0.5610 -0.2406
  890MOL0     C17384   6.967   6.956  -1.768 -0.2674 -0.2720 -0.0298
  890MOL0     C17385   6.938   7.088  -1.840  0.8984  0.2366 -0.0430
  890MOL0     C17386   7.039   7.128  -1.949 -0.0399  0.1302  0.4048
  890MOL0     C17387   6.995   7.267  -2.007 -0.3262  1.1060  0.5621
  890MOL0     C17388   7.087   7.305  -2.119 -0.3060 -0.2795 -0.1188
  890MOL0     C17389   7.077   7.457  -2.160  0.3379 -0.4127  1.1194
  890MOL0     C17390   7.145   7.544  -2.060 -0.1520 -0.1742  1.6690
  890MOL0     C17391   7.174   7.689  -2.104 -1.3215 -0.1226 -0.1027
  890MOL0    Cl17392   7.022   7.781  -2.100 -0.3649  0.0557  0.0547
  890MOL0     C17393   6.820   6.817  -1.460  1.2780  0.9000  0.0169
  890MOL0     C17394   6.847   6.712  -1.374 -0.8279  0.5129 -0.4909
  890MOL0     O17395   7.058   6.622  -1.183 -0.2307 -0.0936  0.1017
  890MOL0     C17396   6.902   6.302  -1.124  0.2963  0.5189 -0.3477
  890MOL0     C17397   6.866   6.212  -1.019 -0.5753  1.3860  1.1739
  890MOL0     N17398   6.588   5.700  -0.382  0.2607  0.2334 -0.3281
  890MOL0     N17399   6.485   5.621  -0.361 -1.2530 -0.1071 -0.3322
  890MOL0     C17400   5.885   4.656  -0.245 -0.2104  0.3144 -0.5321
  890MOL0     C17401   5.791   4.658  -0.141  0.4973 -0.1872  0.1569
  890MOL0     C17402   5.537   4.776   0.216  0.5502 -0.5325  0.0711
  890MOL0     C17403   5.421   4.837   0.166  0.0540 -0.0594 -0.8995
  890MOL0     C17404   5.305   4.845   0.253 -0.3896  0.2332  0.3252
  890MOL0     C17405   5.301   4.799   0.384  0.2074  1.3008 -1.1711
  890MOL0     O17406   5.189   4.808   0.469  0.0310  0.6576  0.2586
  890MOL0     C17407   5.062   4.823   0.415 -0.3390  0.6563  0.1835
  890MOL0     C17408   4.958   4.784   0.521  0.9207 -0.6291 -0.9573
  890MOL0     C17409   4.943   4.634   0.536 -0.5681 -0.4798 -0.8907
  890MOL0     C17410   4.835   4.596   0.628 -0.3709  0.9126 -0.1837
  890MOL0     C17411   4.850   4.642   0.769 -0.2067 -1.0982 -0.5267
  890MOL0     C17412   4.847   4.700   0.879 -0.1084  0.7325 -0.0104
  890MOL0     C17413   5.415   4.725   0.423  0.3589  0.5493 -0.0886
  890MOL0     C17414   5.531   4.712   0.342 -0.7048 -0.3250 -0.1929
  890MOL0     H17415   5.786   4.992  -0.063  1.0241 -0.3755  0.0627
  890MOL0     H17416   5.961   4.995  -0.237  3.0850 -1.1506  3.9744
  890MOL0     H17417   6.153   4.936  -0.319  0.2380 -2.0646  1.0836
  890MOL0     H17418   6.083   4.944  -0.481 -0.3698  2.8946  1.9569
  890MOL0     H17419   6.245   4.746  -0.547  2.5076 -0.4330  0.2661
  890MOL0     H17420   6.299   4.753  -0.382 -0.0451  0.4667  1.8305
  890MOL0     H17421   6.280   4.996  -0.562 -0.2058  0.4033  1.0583
  890MOL0     H17422   6.419   4.887  -0.566  1.1267  1.7703 -0.8668
  890MOL0     H17423   6.342   5.060  -0.316  0.5269 -0.6746 -0.0197
  890MOL0     H17424   6.436   4.924  -0.306 -1.0338 -2.2311 -1.7649
  890MOL0     H17425   6.603   5.029  -0.456  1.5219 -1.1435  2.2362
  890MOL0     H17426   6.564   5.110  -0.312 -3.7602  0.0136  1.1506
  890MOL0     H17427   6.427   5.196  -0.577 -1.3132 -0.3413  1.4781
  890MOL0     H17428   6.568   5.283  -0.504  0.6277  0.0377 -1.2640
  890MOL0     H17429   6.287   5.254  -0.403  0.3691  0.6213 -0.8234
  890MOL0     H17430   6.406   5.316  -0.298 -0.0506 -1.0904  0.8259
  890MOL0     H17431   6.264   5.491  -0.433 -0.6682  1.2045 -3.1390
  890MOL0     H17432   6.342   5.430  -0.586 -0.2410  2.3535 -0.5784
  890MOL0     H17433   6.598   5.501  -0.642  1.3279 -2.4779  2.1133
  890MOL0     H17434   6.832   5.650  -0.595  2.5586  1.4908  1.0726
  890MOL0     H17435   6.823   5.769  -0.469  1.4351 -1.9434  1.3423
  890MOL0     H17436   6.619   5.864  -0.624  0.9289  0.1651  2.8324
  890MOL0     H17437   6.689   5.768  -0.757  0.9128  0.3793 -0.0355
  890MOL0     H17438   6.832   5.986  -0.578  2.5328  1.3661 -1.0316
  890MOL0     H17439   6.911   5.913  -0.704  1.3190  2.3339  1.2073
  890MOL0     H17440   6.671   6.099  -0.743 -3.2009 -3.4411 -1.8689
  890MOL0     H17441   6.757   6.009  -0.874  0.3285 -1.1118  1.0446
  890MOL0     H17442   7.001   6.360  -0.755  2.7641  2.0469 -1.0462
  890MOL0     H17443   7.072   6.520  -0.933 -2.0369  0.6287  1.4869
  890MOL0     H17444   7.057   6.533  -1.568  3.5115  1.4043  3.0297
  890MOL0     H17445   7.019   6.717  -1.709 -0.0185  2.4884  0.0712
  890MOL0     H17446   6.986   6.874  -1.837 -0.1634  0.8056 -1.3120
  890MOL0     H17447   7.063   6.956  -1.715 -0.4084  0.5048  0.2528
  890MOL0     H17448   6.945   7.171  -1.769 -1.5655 -1.1235  1.9497
  890MOL0     H17449   6.839   7.078  -1.883  0.7534  1.2939  0.0037
  890MOL0     H17450   7.042   7.055  -2.030 -2.0908  0.4003  0.0461
  890MOL0     H17451   7.140   7.130  -1.907 -0.1959  0.6050  0.7757
  890MOL0     H17452   6.893   7.267  -2.049 -0.7312  4.2611  1.3024
  890MOL0     H17453   6.995   7.337  -1.923  0.0619  0.8770  0.7558
  890MOL0     H17454   7.068   7.241  -2.205  1.1171 -3.2531  1.6261
  890MOL0     H17455   7.192   7.289  -2.091 -0.2164 -1.9853 -1.2916
  890MOL0     H17456   6.977   7.495  -2.185  0.7208 -0.1569 -0.1043
  890MOL0     H17457   7.142   7.461  -2.248  1.0891 -0.2860  1.6667
  890MOL0     H17458   7.092   7.554  -1.965 -0.6789  0.8564  1.2815
  890MOL0     H17459   7.240   7.499  -2.032 -0.1133  1.1021  3.8393
  890MOL0     H17460   7.226   7.693  -2.200  0.2675 -1.6488  0.6299
  890MOL0     H17461   7.242   7.736  -2.032  2.1915 -1.9154 -1.9660
  890MOL0     H17462   6.743   6.891  -1.440  0.9695  1.1358 -1.8343
  890MOL0     H17463   6.801   6.726  -1.276 -2.8801 -1.2321 -1.1180
  890MOL0     H17464   6.883   6.272  -1.227 -1.5471  0.9527 -0.1677
  890MOL0     H17465   6.815   6.121  -1.049  0.5991  0.0936  2.8973
  890MOL0     H17466   5.908   4.563  -0.296  0.7537  2.0442 -3.4481
  890MOL0     H17467   5.739   4.565  -0.119 -0.1483 -0.3499 -1.8503
  890MOL0     H17468   5.416   4.867   0.062 -1.2136  0.4280 -0.7244
  890MOL0     H17469   5.210   4.884   0.219 -0.9255 -1.7339 -0.5925
  890MOL0     H17470   5.052   4.739   0.345  2.8038 -0.2285  0.6283
  890MOL0     H17471   5.033   4.922   0.381 -1.4358  0.1843 -0.3090
  890MOL0     H17472   4.995   4.833   0.612 -2.5958  0.0164  0.2780
  890MOL0     H17473   4.867   4.828   0.480  1.2578 -1.2491 -2.4083
  890MOL0     H17474   5.036   4.587   0.569  0.2659  2.2129  0.8904
  890MOL0     H17475   4.909   4.587   0.443  1.0762 -4.2962  0.2282
  890MOL0     H17476   4.733   4.621   0.595 -0.0941  1.2238 -0.8223
  890MOL0     H17477   4.826   4.487   0.631 -1.0705  0.9596  2.6074
  890MOL0     H17478   4.830   4.738   0.978 -1.4541 -1.2913  0.5988
  890MOL0     H17479   5.406   4.688   0.524  0.9750  3.2882  1.0568
  890MOL0     H17480   5.614   4.646   0.365 -0.0284  0.7420  0.5242
  891MOL0     O17481   5.492   8.865   8.248 -0.3000 -0.0970 -0.0225
  891MOL0     C17482   5.425   8.769   8.287  0.2800  0.0844 -0.0494
  891MOL0     O17483   5.450   8.641   8.257 -0.3544 -0.5791  0.1532
  891MOL0     C17484   5.552   8.608   8.174 -0.5700 -0.7866  0.7131
  891MOL0     C17485   5.570   8.661   8.047  0.4747 -0.5640  0.3764
  891MOL0     C17486   5.673   8.622   7.961  1.3536  0.6288  0.2159
  891MOL0     C17487   5.767   8.523   7.999  0.0470  0.6231 -0.6039
  891MOL0     O17488   5.880   8.503   7.913  0.4302  1.0037  0.0177
  891MOL0     C17489   5.976   8.405   7.923  0.0325  0.4165  0.2624
  891MOL0     C17490   6.110   8.428   7.837 -0.1245 -0.6327 -0.8040
  891MOL0     C17491   6.133   8.310   7.741 -0.4275 -0.6605 -0.9181
  891MOL0     C17492   6.278   8.271   7.735  0.2952 -0.1428  0.1066
  891MOL0     C17493   6.281   8.126   7.679 -0.2158  0.1325  0.2231
  891MOL0     C17494   6.426   8.094   7.645  0.4536  0.9878 -0.2692
  891MOL0     C17495   6.454   7.968   7.560  0.2286 -0.0651  0.4426
  891MOL0     C17496   6.596   7.906   7.592 -0.7866 -0.0987  0.8688
  891MOL0     N17497   6.667   7.857   7.471  0.1372 -1.0903 -0.1835
  891MOL0     C17498   6.772   7.931   7.407  0.0439 -0.6909 -0.8093
  891MOL0     C17499   6.800   7.861   7.297  0.0701  0.5202 -0.4526
  891MOL0     C17500   6.918   7.889   7.208  0.1674 -0.1539  0.2638
  891MOL0     C17501   6.937   7.769   7.100  0.4373 -1.0720 -0.2664
  891MOL0     C17502   6.842   7.740   6.988 -0.2246 -0.2212 -0.3778
  891MOL0     C17503   6.789   7.864   6.927 -0.0155  0.0039  0.5439
  891MOL0     O17504   6.703   7.827   6.824  0.2693 -0.1083 -0.3647
  891MOL0     C17505   6.757   7.871   6.707  0.8926 -0.5981  1.0588
  891MOL0     C17506   6.819   7.774   6.620 -0.2609 -0.5779  0.2495
  891MOL0     C17507   6.866   7.816   6.488 -0.9986  0.3441 -0.5412
  891MOL0     C17508   6.864   7.954   6.455 -0.0862  0.1805  0.4211
  891MOL0     C17509   6.910   7.998   6.318  0.0392  0.1092  0.8339
  891MOL0     O17510   6.937   7.908   6.216 -0.2436 -0.4095 -0.2503
  891MOL0     C17511   7.051   7.920   6.135 -0.9117 -0.6739 -0.4810
  891MOL0     C17512   7.162   8.012   6.144  0.3596  0.2014 -0.1750
  891MOL0     C17513   7.276   7.999   6.074  0.1252 -0.2512 -0.7307
  891MOL0     C17514   7.278   7.901   5.970 -0.5056 -0.0338 -0.7974
  891MOL0     O17515   7.392   7.874   5.900 -0.4341 -0.4791 -0.1968
  891MOL0     C17516   7.433   7.737   5.905 -0.7662  0.1424 -0.0079
  891MOL0     C17517   7.472   7.694   5.767 -0.3941 -0.2440 -0.1287
  891MOL0     C17518   7.520   7.537   5.780 -1.0433 -1.1636 -0.5687
  891MOL0     C17519   7.569   7.476   5.648 -0.2713 -0.4326 -0.4161
  891MOL0     C17520   7.620   7.342   5.638 -0.5672  0.9636  0.2576
  891MOL0     C17521   7.517   7.238   5.648 -0.1412  0.2683 -0.0483
  891MOL0     C17522   7.577   7.096   5.638 -0.1192 -0.2040 -0.2299
  891MOL0     C17523   7.468   6.992   5.657  0.2678 -0.5059  0.7062
  891MOL0    Cl17524   7.499   6.816   5.610  0.0603 -0.5135  0.1949
  891MOL0     C17525   7.166   7.822   5.952 -0.6595  0.2663 -0.2108
  891MOL0     C17526   7.053   7.832   6.030 -0.5230 -0.0484 -0.8550
  891MOL0     O17527   6.909   8.115   6.298  0.6490  0.0068 -0.3886
  891MOL0     C17528   6.790   8.039   6.539 -0.3555 -0.7164 -0.6359
  891MOL0     C17529   6.738   8.003   6.659 -0.4626  0.1575 -0.8255
  891MOL0     N17530   6.717   7.738   7.297 -0.2964 -0.5531  0.2713
  891MOL0     N17531   6.631   7.751   7.390  0.0214 -0.0541  0.6118
  891MOL0     C17532   5.741   8.455   8.121 -0.9619 -0.4172  0.3631
  891MOL0     C17533   5.633   8.495   8.210 -0.0086  0.1328 -0.0488
  891MOL0     C17534   5.303   8.794   8.364  0.1137 -0.3122 -0.3137
  891MOL0     C17535   5.222   8.686   8.407  0.3744 -0.4132 -0.3510
  891MOL0     C17536   5.109   8.705   8.491 -1.0940 -0.5991  0.1849
  891MOL0     C17537   5.090   8.840   8.537  0.2990  0.2443  0.2451
  891MOL0     O17538   4.979   8.881   8.600  0.3389 -0.4037 -0.7031
  891MOL0     C17539   4.961   8.800   8.716  0.6015 -0.2978  0.2086
  891MOL0     C17540   4.818   8.798   8.764  1.3431 -0.5040 -0.4493
  891MOL0     C17541   4.759   8.940   8.814 -0.2788 -0.1538  0.0090
  891MOL0     C17542   4.606   8.935   8.830  0.2713  0.3929  0.3914
  891MOL0     C17543   4.537   9.057   8.876 -0.5806  0.1899 -0.3985
  891MOL0     C17544   4.493   9.165   8.915  0.8093 -0.6097  0.5832
  891MOL0     C17545   5.165   8.952   8.480  1.0683 -0.0845  0.0560
  891MOL0     C17546   5.266   8.925   8.398  0.6371 -0.0718  0.9637
  891MOL0     H17547   5.519   8.747   8.004  1.7143 -2.1016 -4.8311
  891MOL0     H17548   5.683   8.676   7.868 -0.0618  3.0286  1.3705
  891MOL0     H17549   5.923   8.321   7.876  3.8810 -1.0054 -2.0002
  891MOL0     H17550   5.998   8.400   8.030 -1.1059  1.1772  0.5434
  891MOL0     H17551   6.184   8.434   7.917  0.2039  1.4862 -1.2255
  891MOL0     H17552   6.110   8.530   7.797 -1.3794  1.0165  2.9637
  891MOL0     H17553   6.091   8.347   7.647 -0.9501  2.5573  0.4401
  891MOL0     H17554   6.076   8.223   7.776  0.0064 -0.6537 -0.1762
  891MOL0     H17555   6.330   8.339   7.666 -1.1940  0.4893 -0.4306
  891MOL0     H17556   6.337   8.265   7.826 -0.9830 -1.4677  0.8920
  891MOL0     H17557   6.226   8.116   7.586 -0.4620 -2.1653  0.5748
  891MOL0     H17558   6.240   8.053   7.749 -3.9776  1.0409 -0.8346
  891MOL0     H17559   6.481   8.079   7.738 -0.2800 -2.8867 -0.2902
  891MOL0     H17560   6.476   8.183   7.607  0.3682  2.1973  2.2153
  891MOL0     H17561   6.377   7.891   7.567 -0.3941  0.3840 -1.1309
  891MOL0     H17562   6.444   8.001   7.456  0.6412  2.9968  1.2724
  891MOL0     H17563   6.596   7.837   7.677 -0.9777  0.0437  0.9864
  891MOL0     H17564   6.659   7.985   7.634  4.3611 -1.2188 -3.6918
  891MOL0     H17565   6.822   8.023   7.437 -4.2017  1.5021  0.3933
  891MOL0     H17566   7.013   7.897   7.263 -1.4944  2.0884  3.1309
  891MOL0     H17567   6.904   7.991   7.170  2.5234  0.1098 -0.0917
  891MOL0     H17568   6.962   7.683   7.164 -2.1439 -1.5226  0.2554
  891MOL0     H17569   7.033   7.792   7.052  0.2549  2.0890  0.6627
  891MOL0     H17570   6.890   7.698   6.899 -2.2538 -1.2350 -1.0605
  891MOL0     H17571   6.771   7.661   7.016  2.6697 -2.2137  1.9435
  891MOL0     H17572   6.884   7.908   6.896 -0.0496  0.4543  1.0660
  891MOL0     H17573   6.734   7.917   7.006  2.7572 -0.1221  2.7170
  891MOL0     H17574   6.812   7.673   6.659 -2.2227 -1.1926 -1.5071
  891MOL0     H17575   6.920   7.737   6.437  0.0419  1.4585 -1.2075
  891MOL0     H17576   7.169   8.083   6.226  0.0516  0.7664 -0.6348
  891MOL0     H17577   7.362   8.060   6.100 -0.5909  1.6485 -2.5404
  891MOL0     H17578   7.360   7.668   5.949  1.1384 -2.6401 -0.8943
  891MOL0     H17579   7.525   7.725   5.963  1.0590  1.2879 -2.4711
  891MOL0     H17580   7.549   7.756   5.720 -1.2306 -1.1708 -2.9619
  891MOL0     H17581   7.383   7.699   5.704  0.0126  0.9377 -0.6406
  891MOL0     H17582   7.446   7.473   5.829 -0.7141 -2.5359 -1.7883
  891MOL0     H17583   7.610   7.536   5.843  1.8179  2.3098 -4.1509
  891MOL0     H17584   7.487   7.491   5.578  0.2884  2.1658 -0.5999
  891MOL0     H17585   7.645   7.538   5.601  0.5570 -2.0379 -1.2884
  891MOL0     H17586   7.695   7.320   5.715 -0.5560 -1.0561 -0.2718
  891MOL0     H17587   7.682   7.337   5.548 -0.7008  0.9100  0.1673
  891MOL0     H17588   7.443   7.249   5.568 -2.3334 -1.7538  1.5294
  891MOL0     H17589   7.454   7.248   5.737 -0.2021  0.9680 -0.1656
  891MOL0     H17590   7.628   7.076   5.544  0.2239  0.5452 -0.2118
  891MOL0     H17591   7.651   7.099   5.719 -0.9449  1.3991  0.5125
  891MOL0     H17592   7.381   7.022   5.599  2.2154  1.7147 -1.2939
  891MOL0     H17593   7.430   6.990   5.759 -0.3472  2.3303  0.6022
  891MOL0     H17594   7.169   7.735   5.887  2.6241  1.1329 -1.4282
  891MOL0     H17595   6.970   7.763   6.019 -0.1161 -0.4456 -1.5206
  891MOL0     H17596   6.777   8.142   6.508 -0.5319 -0.5592 -0.0473
  891MOL0     H17597   6.676   8.070   6.719  1.8277  0.0163  1.9726
  891MOL0     H17598   5.800   8.378   8.169 -0.7763 -0.5504 -0.0714
  891MOL0     H17599   5.617   8.460   8.311 -0.8603  4.0624  1.3861
  891MOL0     H17600   5.262   8.587   8.391  0.4363 -0.6414  1.0493
  891MOL0     H17601   5.047   8.619   8.516 -1.8051  0.4297  2.1088
  891MOL0     H17602   5.032   8.825   8.795 -0.4224  0.0317  1.0546
  891MOL0     H17603   4.975   8.694   8.694  2.6605  0.4145 -2.4036
  891MOL0     H17604   4.751   8.758   8.687 -2.8834  1.4671  1.8520
  891MOL0     H17605   4.815   8.720   8.841  3.4904  0.7430  0.9876
  891MOL0     H17606   4.786   9.027   8.753 -2.3359  2.6004  2.6491
  891MOL0     H17607   4.805   8.971   8.909 -0.9067  1.6142 -0.2154
  891MOL0     H17608   4.558   8.913   8.734  1.0389 -0.1174  0.1168
  891MOL0     H17609   4.581   8.857   8.902 -0.6626  0.6989  0.4133
  891MOL0     H17610   4.446   9.244   8.969  0.6236 -0.6948  0.5460
  891MOL0     H17611   5.131   9.053   8.498 -0.5091 -0.0131 -2.6768
  891MOL0     H17612   5.330   9.002   8.355  2.0220 -2.3531 -1.3313
  892MOL0     O17613   9.620  10.867   8.518 -0.4977  0.0879 -0.1412
  892MOL0     C17614   9.711  10.954   8.515  0.7967 -0.6565  0.4964
  892MOL0     O17615   9.689  11.083   8.508 -0.5855  0.7392  0.4638
  892MOL0     C17616   9.564  11.117   8.517 -0.4037 -0.1295  0.1303
  892MOL0     C17617   9.507  11.165   8.396  0.7438  0.4489  0.2233
  892MOL0     C17618   9.388  11.232   8.400  0.6912 -0.1111  0.0046
  892MOL0     C17619   9.302  11.210   8.514  0.0477 -0.0201 -0.3587
  892MOL0     O17620   9.168  11.245   8.512 -0.6511 -0.2480 -0.1601
  892MOL0     C17621   9.140  11.361   8.435 -0.0670  0.3260 -0.1252
  892MOL0     C17622   8.981  11.381   8.435  0.1026 -0.2234  0.6052
  892MOL0     C17623   8.926  11.449   8.559 -0.1468 -0.6285  0.0190
  892MOL0     C17624   8.777  11.497   8.566 -0.4075  0.7331 -0.3733
  892MOL0     C17625   8.776  11.605   8.685  1.1618 -0.3652 -0.6515
  892MOL0     C17626   8.641  11.684   8.697  0.8230  0.6499  0.7113
  892MOL0     C17627   8.633  11.765   8.832 -0.3850  0.1552 -0.4800
  892MOL0     C17628   8.759  11.863   8.856  0.6170 -0.3258  0.0216
  892MOL0     N17629   8.814  11.953   8.753  0.3419  0.4741  0.2214
  892MOL0     C17630   8.944  11.975   8.724 -0.3558  0.5572 -0.4576
  892MOL0     C17631   8.945  12.041   8.603 -0.3135 -0.1710 -0.0332
  892MOL0     C17632   9.073  12.082   8.526 -0.7137 -1.1888 -0.5774
  892MOL0     C17633   9.044  12.119   8.381 -0.2594 -1.0310 -0.3199
  892MOL0     C17634   9.161  12.186   8.304 -0.4285  0.4971 -0.5222
  892MOL0     C17635   9.267  12.077   8.280  0.1584  0.0691 -0.2580
  892MOL0     O17636   9.367  12.140   8.196  0.7307 -0.7832 -0.5061
  892MOL0     C17637   9.470  12.067   8.156  1.0633 -0.5994 -0.6644
  892MOL0     C17638   9.468  11.929   8.140 -0.9741  0.9658  0.0734
  892MOL0     C17639   9.571  11.857   8.087  0.4691 -0.6536  0.3048
  892MOL0     C17640   9.684  11.924   8.039 -0.8437  0.5495  1.6031
  892MOL0     C17641   9.812  11.856   7.974  0.8743  0.0720  0.3015
  892MOL0     O17642   9.811  11.723   7.958  0.7835 -0.3535  0.5725
  892MOL0     C17643   9.909  11.659   7.879 -1.1427 -0.1916  0.3760
  892MOL0     C17644   9.981  11.718   7.771  0.1336 -0.1482 -1.2542
  892MOL0     C17645  10.079  11.643   7.705  0.3713  0.3264 -0.6434
  892MOL0     C17646  10.099  11.507   7.741  0.0386  0.9072 -0.9405
  892MOL0     O17647  10.204  11.447   7.674 -0.3340 -0.1925  0.4603
  892MOL0     C17648  10.272  11.344   7.742 -0.1012 -0.1646 -0.7110
  892MOL0     C17649  10.408  11.332   7.683  0.5842  0.2234  0.3129
  892MOL0     C17650  10.497  11.236   7.775  0.9355 -0.7041  0.5430
  892MOL0     C17651  10.632  11.201   7.710  0.1797  0.3799 -0.0550
  892MOL0     C17652  10.617  11.074   7.628 -0.0291  0.1465 -0.2550
  892MOL0     C17653  10.740  11.042   7.534  0.3805  0.3827 -0.1328
  892MOL0     C17654  10.726  10.920   7.438  0.8192 -0.2978 -0.9478
  892MOL0     C17655  10.698  10.785   7.497  0.5992 -0.5727 -0.1360
  892MOL0    Cl17656  10.839  10.723   7.585 -0.0630  0.5326 -0.5777
  892MOL0     C17657  10.013  11.444   7.840 -1.0310 -0.5529 -0.4778
  892MOL0     C17658   9.916  11.523   7.911 -0.9348 -0.6162 -0.3598
  892MOL0     O17659   9.908  11.930   7.957 -0.1122  0.3075  0.2336
  892MOL0     C17660   9.688  12.064   8.046 -0.5181 -0.0557 -0.2897
  892MOL0     C17661   9.583  12.136   8.095 -1.4674  0.4308 -0.1835
  892MOL0     N17662   8.812  12.064   8.560 -0.2601 -0.2454 -0.2076
  892MOL0     N17663   8.735  12.011   8.654 -0.7080 -0.5140 -0.1199
  892MOL0     C17664   9.352  11.149   8.630  0.0549  0.0297  1.0489
  892MOL0     C17665   9.489  11.108   8.633  0.3188 -0.4799 -0.4759
  892MOL0     C17666   9.850  10.912   8.533 -0.0037  0.7729 -0.1631
  892MOL0     C17667   9.957  11.001   8.507 -0.9949 -0.0277 -0.5827
  892MOL0     C17668  10.087  10.955   8.511  0.9366 -0.3465 -0.9022
  892MOL0     C17669  10.116  10.829   8.553  0.1655 -0.7379  0.1305
  892MOL0     O17670  10.249  10.787   8.564  0.1541  0.0480  0.2182
  892MOL0     C17671  10.271  10.705   8.447 -0.2595 -0.5141 -0.2981
  892MOL0     C17672  10.419  10.694   8.429 -0.3394  1.8090  0.8365
  892MOL0     C17673  10.504  10.674   8.551 -1.0241  0.0905 -0.0025
  892MOL0     C17674  10.650  10.630   8.535  0.1160  0.1488  0.1182
  892MOL0     C17675  10.733  10.740   8.503 -0.4418  0.5685 -0.0819
  892MOL0     C17676  10.757  10.851   8.471  0.8954 -0.7822 -0.1267
  892MOL0     C17677  10.013  10.745   8.587 -0.0161  0.2358  0.6638
  892MOL0     C17678   9.883  10.778   8.576 -0.9527 -0.7760 -0.1039
  892MOL0     H17679   9.576  11.176   8.313  2.4485  0.0864  1.5314
  892MOL0     H17680   9.344  11.284   8.315 -0.5504  0.1559  0.7728
  892MOL0     H17681   9.160  11.348   8.328 -1.7916  0.7268 -0.5449
  892MOL0     H17682   9.196  11.448   8.470  3.3857 -2.6836  2.4962
  892MOL0     H17683   8.938  11.281   8.421  4.9177 -2.4311 -0.6687
  892MOL0     H17684   8.946  11.441   8.351 -4.0549 -3.8800 -0.6750
  892MOL0     H17685   8.988  11.538   8.572 -0.9885 -0.1221  0.6858
  892MOL0     H17686   8.950  11.383   8.643 -3.5943 -0.3597  1.4118
  892MOL0     H17687   8.770  11.556   8.474 -1.1694 -1.1612 -1.6112
  892MOL0     H17688   8.705  11.415   8.576  3.2264 -2.7712 -0.4588
  892MOL0     H17689   8.852  11.674   8.647  0.2411 -0.0100 -1.8975
  892MOL0     H17690   8.813  11.569   8.781 -0.3490  4.5596  2.1140
  892MOL0     H17691   8.559  11.612   8.699  1.7354 -0.4448  2.9889
  892MOL0     H17692   8.624  11.742   8.606 -0.8362 -1.3051 -0.2910
  892MOL0     H17693   8.537  11.818   8.827 -0.2014  0.7768  1.5600
  892MOL0     H17694   8.626  11.698   8.918  1.5821 -1.0546 -1.2029
  892MOL0     H17695   8.842  11.799   8.889 -0.1278 -1.4343 -0.2077
  892MOL0     H17696   8.730  11.928   8.939  2.2166 -1.9806  1.9857
  892MOL0     H17697   9.036  11.937   8.766  1.2775 -0.8905 -4.7820
  892MOL0     H17698   9.142  11.998   8.535 -1.4417 -1.6824  0.6374
  892MOL0     H17699   9.112  12.170   8.578 -0.6355 -2.4475  1.5738
  892MOL0     H17700   8.958  12.185   8.383 -1.2237 -2.0509 -3.2493
  892MOL0     H17701   9.003  12.039   8.319  0.9641 -3.6915  2.0581
  892MOL0     H17702   9.115  12.228   8.214 -1.8119  0.5316  0.1714
  892MOL0     H17703   9.199  12.271   8.361 -1.6359  0.4142  0.4588
  892MOL0     H17704   9.213  12.002   8.221 -0.2801  0.7595 -0.7551
  892MOL0     H17705   9.310  12.042   8.374 -1.6399  1.9923  1.3831
  892MOL0     H17706   9.377  11.877   8.166  0.3748 -0.8188  1.4429
  892MOL0     H17707   9.554  11.752   8.065 -0.8961 -0.3109 -0.3432
  892MOL0     H17708   9.965  11.818   7.731  3.4712  0.7309 -0.7377
  892MOL0     H17709  10.132  11.677   7.616  0.1766 -0.3344 -1.0218
  892MOL0     H17710  10.226  11.248   7.716 -0.9871  0.2432 -0.7025
  892MOL0     H17711  10.277  11.366   7.849 -2.4007 -1.3022 -0.3044
  892MOL0     H17712  10.451  11.432   7.681 -1.6723  1.2433  0.7972
  892MOL0     H17713  10.408  11.278   7.588  3.0372 -0.6998  0.7469
  892MOL0     H17714  10.445  11.145   7.809  0.2681 -1.5679 -2.4884
  892MOL0     H17715  10.522  11.297   7.863  1.9331  2.3933 -1.7420
  892MOL0     H17716  10.668  11.282   7.646  1.5802 -2.0479 -2.5612
  892MOL0     H17717  10.707  11.188   7.788  0.1137  1.9818  0.2975
  892MOL0     H17718  10.524  11.074   7.570 -1.1727  1.1501  1.4937
  892MOL0     H17719  10.609  10.993   7.701 -0.6906  0.1445 -0.3240
  892MOL0     H17720  10.831  11.034   7.594  0.6303 -1.0977 -0.6628
  892MOL0     H17721  10.750  11.138   7.483  1.2357  2.0070  2.8416
  892MOL0     H17722  10.643  10.923   7.367  1.3401  1.2114 -1.5455
  892MOL0     H17723  10.817  10.921   7.377  0.3251  0.0287 -1.6938
  892MOL0     H17724  10.668  10.704   7.431 -0.1057 -1.1995  0.9136
  892MOL0     H17725  10.615  10.800   7.566 -0.6049  2.8138 -2.0922
  892MOL0     H17726  10.010  11.337   7.855 -0.6928 -0.4878  0.0996
  892MOL0     H17727   9.852  11.479   7.986 -0.7507  0.7853  0.6497
  892MOL0     H17728   9.774  12.117   8.006 -1.2202  0.8091 -0.7047
  892MOL0     H17729   9.578  12.245   8.094  2.7795  0.8020 -2.0056
  892MOL0     H17730   9.294  11.152   8.722  0.1031 -4.5302  1.4654
  892MOL0     H17731   9.535  11.064   8.720  1.9082  3.1394  0.7244
  892MOL0     H17732   9.935  11.100   8.470 -0.8527  0.2420  0.0566
  892MOL0     H17733  10.164  11.028   8.491  2.2077 -0.4907  2.7147
  892MOL0     H17734  10.229  10.741   8.352  0.9033  0.1428 -0.5905
  892MOL0     H17735  10.234  10.604   8.462 -1.6509  0.1744  1.2331
  892MOL0     H17736  10.431  10.602   8.371  0.8916 -0.7773  4.7447
  892MOL0     H17737  10.464  10.781   8.381 -1.0124  2.8156  1.9607
  892MOL0     H17738  10.446  10.606   8.614 -2.2919  1.0126 -0.1281
  892MOL0     H17739  10.513  10.770   8.603  0.7608  1.3877 -2.5423
  892MOL0     H17740  10.681  10.588   8.632  0.0754  1.3142  0.6474
  892MOL0     H17741  10.665  10.549   8.462 -0.1992 -0.6212  0.8855
  892MOL0     H17742  10.788  10.951   8.446 -1.3708  0.1165  0.3377
  892MOL0     H17743  10.030  10.651   8.639  0.3361 -0.2553 -0.3129
  892MOL0     H17744   9.800  10.716   8.608 -2.1563  1.1759  0.7552
  893MOL0     O17745   8.926   5.778   4.095  0.5456  0.4871 -0.7327
  893MOL0     C17746   9.029   5.717   4.114 -0.4872  0.1879 -0.0729
  893MOL0     O17747   9.087   5.693   4.231 -0.0945 -0.2431  0.2033
  893MOL0     C17748   9.017   5.728   4.340  0.6985 -0.1843  0.1820
  893MOL0     C17749   8.984   5.862   4.382  0.2928  0.8611 -0.6343
  893MOL0     C17750   8.951   5.880   4.516 -0.8896  0.2667 -1.0353
  893MOL0     C17751   8.937   5.773   4.602 -0.2188  0.3578 -1.3793
  893MOL0     O17752   8.889   5.801   4.733 -0.9959 -0.3759  0.1780
  893MOL0     C17753   8.802   5.699   4.795 -0.2511 -0.1728  0.9855
  893MOL0     C17754   8.751   5.746   4.931  0.1963 -0.3859 -0.9537
  893MOL0     C17755   8.849   5.808   5.033  0.2563 -0.1726 -0.3464
  893MOL0     C17756   8.952   5.709   5.081 -0.4471  0.6347  0.5200
  893MOL0     C17757   9.050   5.735   5.199 -0.0094  1.1110  0.6568
  893MOL0     C17758   8.997   5.789   5.320  0.4827 -0.8715  0.2669
  893MOL0     C17759   8.922   5.691   5.414  0.4286  0.3727  0.4160
  893MOL0     C17760   8.905   5.753   5.552 -0.0242 -0.3368  0.0735
  893MOL0     N17761   8.876   5.643   5.654  0.1838 -0.3581 -0.0083
  893MOL0     C17762   8.972   5.602   5.756  0.4984  0.1482 -0.6749
  893MOL0     C17763   8.909   5.499   5.824 -0.1488 -0.2014  0.6015
  893MOL0     C17764   8.963   5.408   5.926 -0.0003  0.5462  0.5557
  893MOL0     C17765   8.948   5.256   5.894 -0.7057  0.7779 -0.5635
  893MOL0     C17766   9.029   5.187   6.008  0.1327 -0.0984  0.2690
  893MOL0     C17767   9.017   5.033   5.983 -0.4230 -0.0227  0.7631
  893MOL0     O17768   8.893   4.991   6.043 -0.5147  0.2787 -0.7939
  893MOL0     C17769   8.863   4.859   5.994  0.3588  0.7139  0.3675
  893MOL0     C17770   8.900   4.749   6.067  0.1859 -0.3232 -0.4701
  893MOL0     C17771   8.889   4.619   6.018 -0.1551 -0.8248 -0.6599
  893MOL0     C17772   8.845   4.590   5.888 -0.1405  0.7270 -0.1171
  893MOL0     C17773   8.842   4.454   5.838 -0.4738  0.5531 -0.8295
  893MOL0     O17774   8.902   4.356   5.907 -0.4803  0.0148 -0.2172
  893MOL0     C17775   8.926   4.235   5.842  0.4471 -0.1018  0.4275
  893MOL0     C17776   8.851   4.132   5.903 -1.5667 -0.1218  0.0664
  893MOL0     C17777   8.866   3.996   5.851  1.6209 -0.0626 -0.0253
  893MOL0     C17778   8.938   3.981   5.730 -0.0730 -0.3183 -0.4409
  893MOL0     O17779   8.950   3.856   5.663 -0.3516 -0.0511 -0.3272
  893MOL0     C17780   8.912   3.737   5.736 -0.1267  1.0355 -0.8444
  893MOL0     C17781   8.956   3.611   5.665  0.2287 -0.0390 -0.0782
  893MOL0     C17782   9.104   3.618   5.617  0.0323  0.6094 -0.3553
  893MOL0     C17783   9.156   3.487   5.582  1.0123  0.7182 -0.1213
  893MOL0     C17784   9.287   3.466   5.511 -0.1524 -0.0728  0.0058
  893MOL0     C17785   9.405   3.556   5.553 -0.6160 -0.8891  0.8520
  893MOL0     C17786   9.531   3.517   5.475 -0.7265  0.0423  0.2273
  893MOL0     C17787   9.605   3.391   5.509  0.3255  0.6535 -0.3019
  893MOL0    Cl17788   9.752   3.391   5.397  0.5963 -0.0392  0.5287
  893MOL0     C17789   8.987   4.094   5.663  0.2043  0.1602  0.5267
  893MOL0     C17790   8.993   4.221   5.722  0.7648 -0.2620  0.2252
  893MOL0     O17791   8.797   4.440   5.727 -0.2384 -0.4522 -0.1165
  893MOL0     C17792   8.812   4.702   5.811  0.3237  0.8778  0.0791
  893MOL0     C17793   8.820   4.830   5.865 -0.4069 -0.6350  0.5252
  893MOL0     N17794   8.775   5.486   5.765 -0.6092 -0.5231  0.4993
  893MOL0     N17795   8.756   5.571   5.666  0.0106 -0.7620  0.1415
  893MOL0     C17796   8.957   5.640   4.556 -0.5927  0.5483 -0.0364
  893MOL0     C17797   9.003   5.621   4.418 -0.2930  0.4039  0.3653
  893MOL0     C17798   9.093   5.677   3.985 -0.1395  0.2221  0.3728
  893MOL0     C17799   9.040   5.720   3.862 -0.4857  0.2078 -0.0467
  893MOL0     C17800   9.099   5.675   3.744 -0.9361 -0.2820 -0.4718
  893MOL0     C17801   9.194   5.570   3.744 -0.7073  0.1126 -0.6005
  893MOL0     O17802   9.244   5.501   3.634 -0.0023  0.5353  0.4427
  893MOL0     C17803   9.167   5.516   3.509 -0.0495  0.1627  0.1739
  893MOL0     C17804   9.023   5.454   3.494 -0.6446 -0.5081  0.8534
  893MOL0     C17805   8.954   5.493   3.364  0.1032  0.1037 -0.1492
  893MOL0     C17806   8.820   5.423   3.352 -0.4878 -1.2645  0.0623
  893MOL0     C17807   8.738   5.472   3.239  0.6024 -0.0978 -0.0158
  893MOL0     C17808   8.672   5.511   3.141 -0.3039 -0.2256  0.2149
  893MOL0     C17809   9.242   5.523   3.866  0.3303 -0.8416 -0.0726
  893MOL0     C17810   9.193   5.583   3.986  0.1247  0.3876 -0.1534
  893MOL0     H17811   8.994   5.950   4.319 -0.8338  0.9480 -0.7080
  893MOL0     H17812   8.933   5.978   4.558 -0.8375  0.8077 -2.2355
  893MOL0     H17813   8.841   5.597   4.794 -3.3444 -1.5795 -2.6587
  893MOL0     H17814   8.717   5.686   4.727  1.5081 -0.0991 -1.3616
  893MOL0     H17815   8.701   5.654   4.964  0.5608 -0.5375 -0.8242
  893MOL0     H17816   8.673   5.822   4.930  0.6800  0.1418  0.3400
  893MOL0     H17817   8.778   5.836   5.111 -1.7550 -2.7268 -1.1315
  893MOL0     H17818   8.889   5.898   4.985  2.9019 -0.8160  0.4617
  893MOL0     H17819   8.901   5.613   5.097 -1.0465  1.1559  1.9197
  893MOL0     H17820   9.015   5.687   4.994 -1.7643 -3.7914  0.4212
  893MOL0     H17821   9.128   5.804   5.166  1.1240 -0.6397 -0.5109
  893MOL0     H17822   9.095   5.636   5.209  3.4824  2.4138 -0.7226
  893MOL0     H17823   8.939   5.877   5.290 -0.2670 -1.5110 -0.1706
  893MOL0     H17824   9.078   5.824   5.386 -0.4121 -3.4802  2.9778
  893MOL0     H17825   8.829   5.665   5.362  0.5172  1.7275 -0.4691
  893MOL0     H17826   8.983   5.600   5.418  1.8485  1.3491  3.7766
  893MOL0     H17827   8.811   5.810   5.552  1.3389  2.0857 -0.8926
  893MOL0     H17828   8.983   5.827   5.572  1.4892 -2.0746  0.8513
  893MOL0     H17829   9.075   5.633   5.775  0.2122  0.7322 -0.0346
  893MOL0     H17830   8.906   5.430   6.017 -0.6650 -1.0403  0.5603
  893MOL0     H17831   9.066   5.438   5.947  1.2268 -1.3063 -2.1802
  893MOL0     H17832   8.985   5.242   5.792 -0.3847  0.6569 -0.4327
  893MOL0     H17833   8.843   5.231   5.909 -0.9106  1.4378 -0.8347
  893MOL0     H17834   9.135   5.212   6.018  0.1114 -0.7969  2.7998
  893MOL0     H17835   8.977   5.211   6.102  1.1017  2.1502  0.3028
  893MOL0     H17836   9.104   4.983   6.025  0.9065 -0.1566 -1.9611
  893MOL0     H17837   9.017   5.026   5.874 -0.1288  1.7215  0.6246
  893MOL0     H17838   8.926   4.760   6.171  2.3021  1.2682 -1.1071
  893MOL0     H17839   8.917   4.538   6.085  0.1838 -0.3002 -0.1506
  893MOL0     H17840   8.781   4.160   5.981  0.4977  1.8236  1.3212
  893MOL0     H17841   8.820   3.909   5.895  0.5032  0.3457 -0.3545
  893MOL0     H17842   8.807   3.735   5.764  0.2814 -0.3673  0.7886
  893MOL0     H17843   8.957   3.734   5.836 -0.5820 -0.5412 -0.6631
  893MOL0     H17844   8.886   3.591   5.583  1.2981  0.5074 -1.1754
  893MOL0     H17845   8.966   3.537   5.745  2.5167 -0.2811 -0.5235
  893MOL0     H17846   9.166   3.658   5.697 -2.7304  0.7209  1.8990
  893MOL0     H17847   9.103   3.687   5.533 -0.9515 -0.2670 -1.1002
  893MOL0     H17848   9.168   3.428   5.673  1.8372  0.5455 -0.3321
  893MOL0     H17849   9.083   3.438   5.516 -0.7460  3.1907 -0.1517
  893MOL0     H17850   9.278   3.497   5.407  1.8565  1.1057  0.1371
  893MOL0     H17851   9.309   3.359   5.498 -0.4091 -0.0902 -0.2938
  893MOL0     H17852   9.421   3.541   5.660  1.3773 -0.7277  0.6123
  893MOL0     H17853   9.376   3.660   5.535 -3.0750 -1.4713  1.1110
  893MOL0     H17854   9.510   3.513   5.367  0.3450  2.3814 -0.1320
  893MOL0     H17855   9.604   3.599   5.471  2.1652 -2.3953 -1.7941
  893MOL0     H17856   9.549   3.298   5.494  1.6783  0.0637 -2.1031
  893MOL0     H17857   9.639   3.395   5.613  2.6221  0.8533 -1.0049
  893MOL0     H17858   9.037   4.078   5.568 -0.3573  1.9333 -0.0936
  893MOL0     H17859   9.051   4.303   5.683  0.7292 -0.5740 -0.4955
  893MOL0     H17860   8.784   4.684   5.708  3.7017  2.2402 -1.2218
  893MOL0     H17861   8.805   4.915   5.799 -0.0390 -1.5246 -0.7553
  893MOL0     H17862   8.943   5.556   4.622  2.5876 -0.8986 -1.0134
  893MOL0     H17863   9.029   5.522   4.383 -0.3703  0.8401 -0.9805
  893MOL0     H17864   8.948   5.778   3.865  1.4775  3.5709  3.4482
  893MOL0     H17865   9.072   5.716   3.646  0.5594  1.1642 -0.3311
  893MOL0     H17866   9.235   5.477   3.432 -0.6037 -2.0585  0.7444
  893MOL0     H17867   9.161   5.621   3.480  0.5849  0.1105 -0.1929
  893MOL0     H17868   9.010   5.348   3.517 -2.4058  0.1049  3.0007
  893MOL0     H17869   8.961   5.496   3.574  0.6820 -1.3698  2.3974
  893MOL0     H17870   9.003   5.462   3.272 -1.0460 -2.3829 -0.0217
  893MOL0     H17871   8.940   5.601   3.356  2.0954  0.6184  2.2152
  893MOL0     H17872   8.826   5.315   3.335 -0.5161 -1.1399 -0.7871
  893MOL0     H17873   8.760   5.437   3.442 -1.5468  0.6118 -0.8612
  893MOL0     H17874   8.599   5.551   3.074 -1.8579 -0.4268  1.6923
  893MOL0     H17875   9.326   5.454   3.874  1.6216  0.7970  1.4165
  893MOL0     H17876   9.242   5.554   4.079  1.0991  2.3028 -0.0106
  894MOL0     O17877  10.768   8.039   1.487  0.1021 -0.3623 -0.3550
  894MOL0     C17878  10.800   7.944   1.554  0.1251  0.1863 -0.1619
  894MOL0     O17879  10.887   7.949   1.660  0.0851 -0.0801  0.8420
  894MOL0     C17880  10.974   8.059   1.681  0.3760  0.9851 -0.0953
  894MOL0     C17881  11.074   8.086   1.579 -0.4357  0.8904 -0.3995
  894MOL0     C17882  11.179   8.172   1.606  0.2963 -0.6772 -0.3784
  894MOL0     C17883  11.190   8.239   1.726  0.0601  0.2832  0.2283
  894MOL0     O17884  11.264   8.347   1.749 -0.6757 -0.3340 -0.2374
  894MOL0     C17885  11.408   8.318   1.747 -0.8194 -0.4369  1.3311
  894MOL0     C17886  11.471   8.446   1.708 -0.2287 -0.2285  0.1842
  894MOL0     C17887  11.621   8.445   1.730  0.0384 -0.1992  0.3794
  894MOL0     C17888  11.688   8.321   1.681  0.4439 -0.4292 -0.0418
  894MOL0     C17889  11.834   8.345   1.707 -0.1734 -0.5866  0.8546
  894MOL0     C17890  11.905   8.203   1.731  0.6470 -0.5854 -0.0534
  894MOL0     C17891  12.054   8.213   1.784 -0.0392  0.2294 -0.0678
  894MOL0     C17892  12.090   8.087   1.863 -1.1456  0.0293 -0.0234
  894MOL0     N17893  12.098   7.951   1.809  0.8938 -0.5377  0.1975
  894MOL0     C17894  11.992   7.862   1.806 -1.1656  0.1529 -0.9251
  894MOL0     C17895  12.032   7.762   1.726  0.1651 -0.2127  0.5992
  894MOL0     C17896  11.959   7.641   1.680 -0.1862  0.7091 -0.0025
  894MOL0     C17897  12.048   7.508   1.686 -0.2868  0.1486  0.5820
  894MOL0     C17898  12.102   7.469   1.826  0.1855  0.0188 -0.1690
  894MOL0     C17899  12.202   7.362   1.813 -0.6549  0.1343  0.2879
  894MOL0     O17900  12.144   7.231   1.822  0.4972 -0.1991 -0.4501
  894MOL0     C17901  12.149   7.177   1.951  0.6495 -0.1191  0.1764
  894MOL0     C17902  12.275   7.148   2.013 -0.4807 -0.4740 -0.6111
  894MOL0     C17903  12.272   7.102   2.144  0.1116  0.8075  0.5274
  894MOL0     C17904  12.155   7.077   2.216 -1.0442 -0.2211 -0.5656
  894MOL0     C17905  12.164   7.028   2.356 -0.9492 -0.0490 -0.0955
  894MOL0     O17906  12.047   6.992   2.410  0.1136 -0.0188  0.3363
  894MOL0     C17907  12.042   6.929   2.527 -0.3465 -0.1819 -1.4938
  894MOL0     C17908  12.093   6.977   2.650 -0.6968 -0.0926  0.2186
  894MOL0     C17909  12.096   6.898   2.762 -0.1949 -0.0553 -0.0096
  894MOL0     C17910  12.058   6.760   2.751  0.8797 -0.4491 -0.5147
  894MOL0     O17911  12.071   6.673   2.856  0.4733  0.8325  0.2560
  894MOL0     C17912  12.212   6.669   2.898 -1.8303 -0.5370  0.2764
  894MOL0     C17913  12.229   6.580   3.021 -0.3166 -0.1986 -0.4639
  894MOL0     C17914  12.373   6.536   3.030  0.2546 -0.2697 -0.3325
  894MOL0     C17915  12.393   6.419   2.925 -0.2637  1.2165 -0.1073
  894MOL0     C17916  12.542   6.415   2.861 -0.3365  0.7307 -0.0744
  894MOL0     C17917  12.639   6.416   2.986 -0.4391 -0.3132  0.0524
  894MOL0     C17918  12.772   6.359   2.950  0.1423  0.3138 -0.5291
  894MOL0     C17919  12.764   6.207   2.951 -0.3561 -0.2428 -0.5284
  894MOL0    Cl17920  12.699   6.156   3.121 -0.3513  0.6861  0.2492
  894MOL0     C17921  12.017   6.713   2.629 -0.1929 -0.3188  0.9445
  894MOL0     C17922  12.009   6.795   2.520  0.4459  1.2810 -0.2681
  894MOL0     O17923  12.279   6.995   2.402 -0.1766 -0.2818 -0.0686
  894MOL0     C17924  12.035   7.104   2.154 -0.0329 -0.0972  0.5284
  894MOL0     C17925  12.035   7.144   2.015  0.7186 -1.0103 -1.3259
  894MOL0     N17926  12.150   7.797   1.669  0.1412 -0.3432  0.1736
  894MOL0     N17927  12.189   7.908   1.717  0.7599 -0.2687 -0.2626
  894MOL0     C17928  11.094   8.207   1.821  0.7535  0.4447 -0.0135
  894MOL0     C17929  10.989   8.121   1.802 -0.7708  0.8148 -0.5502
  894MOL0     C17930  10.751   7.807   1.516  0.3593  0.1233 -0.6375
  894MOL0     C17931  10.779   7.687   1.589 -0.8232  0.0880 -0.4434
  894MOL0     C17932  10.715   7.563   1.572  0.2799 -0.0729 -0.9799
  894MOL0     C17933  10.629   7.557   1.469 -0.6699 -0.0946  0.4391
  894MOL0     O17934  10.532   7.460   1.453  0.5627 -0.6993 -0.6162
  894MOL0     C17935  10.536   7.333   1.526  0.0208  0.0963  0.9868
  894MOL0     C17936  10.453   7.326   1.649  0.1938 -0.2988  0.3710
  894MOL0     C17937  10.427   7.180   1.698 -0.8804 -0.5840 -0.1927
  894MOL0     C17938  10.378   7.168   1.837  0.1206 -0.1505 -0.5303
  894MOL0     C17939  10.307   7.036   1.856 -0.0240 -0.3026  0.0599
  894MOL0     C17940  10.247   6.927   1.841  0.1605  0.7505 -0.2545
  894MOL0     C17941  10.609   7.671   1.380  0.5357  0.8260 -0.4410
  894MOL0     C17942  10.676   7.792   1.405 -0.5623  0.2002  0.6597
  894MOL0     H17943  11.069   8.035   1.483 -0.5880 -1.7990  0.9139
  894MOL0     H17944  11.249   8.201   1.528  1.2326 -1.1880  0.2417
  894MOL0     H17945  11.430   8.230   1.685  2.0192  0.2822  1.2096
  894MOL0     H17946  11.439   8.297   1.850  3.3557 -1.3108  0.0867
  894MOL0     H17947  11.433   8.533   1.762  0.5992  0.3970 -0.2210
  894MOL0     H17948  11.451   8.468   1.603  1.3733  1.9007  0.2539
  894MOL0     H17949  11.646   8.452   1.836 -1.6287  3.1038  0.6910
  894MOL0     H17950  11.673   8.525   1.676 -0.4394  0.0518  0.2899
  894MOL0     H17951  11.656   8.236   1.741  0.5939 -1.4339 -1.3453
  894MOL0     H17952  11.652   8.292   1.581 -0.3608  0.6721 -0.0950
  894MOL0     H17953  11.853   8.418   1.786 -4.4765  0.0378  1.5930
  894MOL0     H17954  11.875   8.391   1.617  3.3071  0.1617  2.6627
  894MOL0     H17955  11.904   8.142   1.641 -3.1753 -0.4904 -0.2499
  894MOL0     H17956  11.855   8.148   1.812  0.9093 -3.9183 -1.9838
  894MOL0     H17957  12.119   8.233   1.698  0.6365 -0.7580  0.2013
  894MOL0     H17958  12.063   8.307   1.839  1.3205 -0.8470  1.6824
  894MOL0     H17959  12.006   8.076   1.933 -3.2949 -0.1420 -2.4531
  894MOL0     H17960  12.189   8.108   1.904 -1.4484 -1.0821  1.3651
  894MOL0     H17961  11.896   7.871   1.857 -0.8952 -0.2316 -0.3347
  894MOL0     H17962  11.918   7.651   1.579 -2.2402  0.8535  0.7972
  894MOL0     H17963  11.873   7.626   1.747 -0.7504 -2.1906 -1.1937
  894MOL0     H17964  12.136   7.519   1.622  0.6819 -1.7067  1.5351
  894MOL0     H17965  11.991   7.424   1.646 -3.4557 -0.4199  5.3963
  894MOL0     H17966  12.146   7.562   1.862  1.3084  1.5541 -4.7427
  894MOL0     H17967  12.021   7.433   1.889  2.1741 -1.8737  1.4633
  894MOL0     H17968  12.270   7.377   1.898 -2.5051 -2.0085  2.2825
  894MOL0     H17969  12.261   7.358   1.721  2.1458 -4.1448  1.9879
  894MOL0     H17970  12.365   7.170   1.956  0.5694  0.3333  1.2571
  894MOL0     H17971  12.369   7.066   2.178  1.6576  1.2094 -2.9859
  894MOL0     H17972  12.142   7.073   2.653  0.8746 -0.7951 -1.0946
  894MOL0     H17973  12.141   6.934   2.854 -1.6576  2.9739 -0.3734
  894MOL0     H17974  12.251   6.768   2.924 -2.5735  0.5225 -2.3728
  894MOL0     H17975  12.268   6.633   2.812 -3.0288 -0.1005 -0.7159
  894MOL0     H17976  12.172   6.486   3.019 -0.0670 -0.5630  3.1482
  894MOL0     H17977  12.208   6.645   3.106 -2.6410 -2.3247  0.7235
  894MOL0     H17978  12.394   6.507   3.133 -1.9215  2.3201  0.9732
  894MOL0     H17979  12.441   6.617   3.000 -0.5260 -0.0713 -1.6805
  894MOL0     H17980  12.374   6.327   2.980 -1.2618 -0.0945 -2.4837
  894MOL0     H17981  12.322   6.423   2.842 -0.2668  1.1344 -0.1082
  894MOL0     H17982  12.560   6.499   2.793  0.6547  2.3011  2.0319
  894MOL0     H17983  12.546   6.322   2.804  4.1325  0.6788 -0.0063
  894MOL0     H17984  12.595   6.362   3.070  1.1237 -2.5818 -0.4971
  894MOL0     H17985  12.659   6.519   3.019  3.5881 -0.2864 -1.8971
  894MOL0     H17986  12.794   6.407   2.855 -0.2320  5.1707  1.5150
  894MOL0     H17987  12.842   6.384   3.031  1.6264 -3.7079 -0.3693
  894MOL0     H17988  12.864   6.163   2.938  1.0633  2.1096  1.4582
  894MOL0     H17989  12.684   6.163   2.892  0.2623 -0.2889 -1.3419
  894MOL0     H17990  11.992   6.608   2.621 -1.1902 -0.1206  1.3579
  894MOL0     H17991  11.980   6.751   2.425  0.5954 -1.7397  0.9706
  894MOL0     H17992  11.944   7.088   2.211 -1.3871 -0.5420 -1.6396
  894MOL0     H17993  11.945   7.174   1.963  1.5246  2.2271 -1.0800
  894MOL0     H17994  11.108   8.255   1.917  1.1973 -0.3157  0.3144
  894MOL0     H17995  10.905   8.107   1.869 -1.3568 -0.4189 -1.4993
  894MOL0     H17996  10.843   7.686   1.676  0.3699 -0.4355 -1.3010
  894MOL0     H17997  10.729   7.485   1.646  1.5061  0.2372 -0.8625
  894MOL0     H17998  10.633   7.300   1.565 -1.0767 -2.0106  2.0709
  894MOL0     H17999  10.505   7.255   1.456 -0.5722  0.9620  0.2797
  894MOL0     H18000  10.516   7.385   1.717  0.7512 -0.8546  0.3432
  894MOL0     H18001  10.358   7.380   1.638 -0.7839 -2.1241 -0.5905
  894MOL0     H18002  10.525   7.130   1.706 -0.1886  0.8443  0.5859
  894MOL0     H18003  10.368   7.127   1.623  0.1074 -0.0886 -1.3561
  894MOL0     H18004  10.454   7.156   1.915 -0.7216 -3.1349 -0.0483
  894MOL0     H18005  10.318   7.256   1.864  0.3303 -0.3777  0.7417
  894MOL0     H18006  10.191   6.837   1.832  0.3625  0.5602  0.3532
  894MOL0     H18007  10.528   7.657   1.309 -1.1212  2.7772  0.9438
  894MOL0     H18008  10.659   7.878   1.341 -1.4258 -0.1655  0.3867
  895MOL0     O18009  10.832   1.642  10.987  0.5546  0.5104  0.3192
  895MOL0     C18010  10.908   1.658  10.891 -0.4163  0.5047 -0.1167
  895MOL0     O18011  10.986   1.565  10.824 -0.6841 -0.2266  0.1369
  895MOL0     C18012  10.993   1.442  10.891 -0.3171 -0.0785  1.3526
  895MOL0     C18013  10.920   1.323  10.866 -0.1166 -0.1697  0.5953
  895MOL0     C18014  10.953   1.204  10.918  0.2545 -0.6785 -0.5441
  895MOL0     C18015  11.069   1.187  10.998 -0.3822 -0.3126  0.2750
  895MOL0     O18016  11.100   1.063  11.063  0.3020 -0.4008  0.5777
  895MOL0     C18017  11.043   0.947  11.004  0.5724 -0.0945 -0.2417
  895MOL0     C18018  11.088   0.833  11.083  0.4794 -0.0766  0.2690
  895MOL0     C18019  11.033   0.711  11.008 -1.3198  0.5415 -0.5600
  895MOL0     C18020  11.095   0.578  11.059 -0.1836  0.1218  0.2500
  895MOL0     C18021  11.014   0.467  11.016  0.8545 -0.0636 -0.5596
  895MOL0     C18022  11.087   0.334  11.045  0.1246 -0.3915 -0.0077
  895MOL0     C18023  11.106   0.305  11.199 -0.0956 -0.0243  0.4546
  895MOL0     C18024  11.139   0.164  11.230  0.2898  0.0833  0.0232
  895MOL0     N18025  11.035   0.060  11.198  0.1010  0.2366  0.0133
  895MOL0     C18026  10.918   0.040  11.281 -0.2514 -0.5114  0.3568
  895MOL0     C18027  10.864  -0.083  11.247  0.8138 -0.2956  0.5389
  895MOL0     C18028  10.739  -0.151  11.297 -0.9415 -0.3135  0.0569
  895MOL0     C18029  10.660  -0.207  11.186 -0.2564 -0.1013 -0.0544
  895MOL0     C18030  10.617  -0.106  11.070 -0.5252  0.6517 -0.6212
  895MOL0     C18031  10.516  -0.012  11.126 -0.6666  0.1011 -0.7227
  895MOL0     O18032  10.583   0.103  11.202  1.3019 -0.2242 -0.2573
  895MOL0     C18033  10.586   0.220  11.142 -0.6837 -0.5272  0.3705
  895MOL0     C18034  10.484   0.314  11.162 -0.0314  0.4764 -0.1254
  895MOL0     C18035  10.494   0.437  11.103 -0.0488 -0.3469  1.1103
  895MOL0     C18036  10.595   0.462  11.010  1.1009 -0.4084 -0.4846
  895MOL0     C18037  10.606   0.606  10.961  0.3202  0.3762 -0.1316
  895MOL0     O18038  10.700   0.619  10.863 -0.5155 -0.6422 -0.4927
  895MOL0     C18039  10.714   0.738  10.788  0.4200 -0.6551  0.3846
  895MOL0     C18040  10.611   0.836  10.769  0.5077 -0.4814  0.1979
  895MOL0     C18041  10.642   0.955  10.707 -0.9177  0.1334 -1.1657
  895MOL0     C18042  10.761   0.986  10.650 -0.4943 -0.5118  0.4648
  895MOL0     O18043  10.768   1.111  10.584  0.7926  0.0979  0.1408
  895MOL0     C18044  10.884   1.155  10.518 -0.6077 -0.1676  0.7109
  895MOL0     C18045  10.867   1.300  10.472 -0.3150  0.0295 -0.1398
  895MOL0     C18046  10.723   1.361  10.457 -0.5171 -0.6574 -0.9280
  895MOL0     C18047  10.743   1.501  10.418 -0.3353 -0.7542 -0.0837
  895MOL0     C18048  10.608   1.581  10.412 -0.2015 -0.5307  0.0155
  895MOL0     C18049  10.623   1.734  10.393 -0.6353  0.9869  0.2913
  895MOL0     C18050  10.694   1.771  10.255  0.1445 -0.7956  0.2905
  895MOL0     C18051  10.690   1.922  10.231 -0.3071  0.1309 -0.4972
  895MOL0    Cl18052  10.524   1.983  10.247  0.0512 -0.3845  0.1848
  895MOL0     C18053  10.867   0.897  10.666  0.6016  0.5528  0.0545
  895MOL0     C18054  10.837   0.765  10.730 -0.5094  0.6656  0.5940
  895MOL0     O18055  10.538   0.691  11.016 -0.1038  0.1823 -0.5072
  895MOL0     C18056  10.691   0.360  10.976  1.3182 -0.3228 -0.4365
  895MOL0     C18057  10.687   0.249  11.050  0.9363  0.4228  0.3009
  895MOL0     N18058  10.947  -0.122  11.140  0.2421  0.3704  1.0439
  895MOL0     N18059  11.045  -0.040  11.110 -0.6738  0.8549  0.5838
  895MOL0     C18060  11.129   1.309  11.039  0.9312 -1.2107 -0.9546
  895MOL0     C18061  11.103   1.432  10.978 -0.3812 -0.6414  0.1436
  895MOL0     C18062  10.921   1.803  10.856  0.1899  1.0396 -0.2973
  895MOL0     C18063  10.860   1.903  10.922 -0.9464  0.7839 -1.1735
  895MOL0     C18064  10.878   2.036  10.888  0.3757 -0.0574 -0.9111
  895MOL0     C18065  10.970   2.077  10.789  0.1686  0.4033 -0.6917
  895MOL0     O18066  10.988   2.212  10.752  0.2327  0.1177  0.0339
  895MOL0     C18067  10.979   2.311  10.854 -0.6770  0.2553 -0.2820
  895MOL0     C18068  10.851   2.397  10.851 -0.1600 -0.2825 -0.7626
  895MOL0     C18069  10.868   2.499  10.964  0.2885 -0.0760 -0.6931
  895MOL0     C18070  10.926   2.631  10.908 -1.3091  0.0135  0.9525
  895MOL0     C18071  10.828   2.683  10.822 -0.2834  0.0654 -0.1587
  895MOL0     C18072  10.747   2.723  10.742 -0.3264 -0.4923  0.6154
  895MOL0     C18073  11.021   1.975  10.715 -1.2733 -0.3833  0.1665
  895MOL0     C18074  11.012   1.837  10.754  0.0966  0.0691 -0.0570
  895MOL0     H18075  10.858   1.315  10.778  0.7760  0.2339 -0.0919
  895MOL0     H18076  10.901   1.113  10.887 -1.5969 -0.6687  2.1662
  895MOL0     H18077  11.074   0.939  10.900  0.2831  2.8746 -0.6518
  895MOL0     H18078  10.934   0.955  11.016  0.5377  0.2083 -0.7521
  895MOL0     H18079  11.044   0.822  11.183  0.0651 -2.1130 -0.0741
  895MOL0     H18080  11.197   0.828  11.086  0.4711 -1.0523 -0.3571
  895MOL0     H18081  11.048   0.708  10.900  1.8384 -0.2981 -0.1894
  895MOL0     H18082  10.925   0.708  11.029 -1.2763  1.2857 -0.2162
  895MOL0     H18083  11.200   0.563  11.032 -0.3746 -1.9080  0.4468
  895MOL0     H18084  11.096   0.582  11.168 -3.5276  1.9061  0.3584
  895MOL0     H18085  11.014   0.473  10.907 -0.4663 -0.0271 -0.5773
  895MOL0     H18086  10.913   0.471  11.058  1.6677 -0.6822  1.5832
  895MOL0     H18087  11.188   0.338  11.001  0.7612 -0.5264  1.4076
  895MOL0     H18088  11.024   0.256  11.002 -5.4550  3.2130  0.4763
  895MOL0     H18089  11.198   0.358  11.225  0.6759 -0.8121 -0.6000
  895MOL0     H18090  11.020   0.334  11.260 -2.0869 -3.9981 -0.1036
  895MOL0     H18091  11.175   0.159  11.333  2.9997  3.6506 -0.5688
  895MOL0     H18092  11.216   0.135  11.159 -0.0767  0.4898 -0.5468
  895MOL0     H18093  10.871   0.103  11.356 -1.1783 -1.8262  0.9095
  895MOL0     H18094  10.674  -0.074  11.339 -1.6361 -0.9411  0.1630
  895MOL0     H18095  10.774  -0.228  11.367  2.3906  0.6422 -0.3699
  895MOL0     H18096  10.567  -0.243  11.232 -0.0235  1.2115  1.5272
  895MOL0     H18097  10.718  -0.292  11.149  2.2278 -0.2775  3.6796
  895MOL0     H18098  10.698  -0.052  11.020 -0.5197  1.4370  0.2064
  895MOL0     H18099  10.570  -0.170  10.994 -0.5359 -0.9412  0.6672
  895MOL0     H18100  10.447  -0.059  11.197 -0.8161 -1.1459 -1.6549
  895MOL0     H18101  10.461   0.031  11.042  1.5611  0.6990 -1.9622
  895MOL0     H18102  10.395   0.280  11.213 -0.0721  0.3555 -0.2754
  895MOL0     H18103  10.424   0.515  11.130  0.6662 -0.2246  2.7250
  895MOL0     H18104  10.516   0.817  10.816  1.3165 -2.5110  1.1299
  895MOL0     H18105  10.567   1.034  10.712  0.5673  1.5363  2.3109
  895MOL0     H18106  10.902   1.083  10.437 -1.2001 -0.0716  0.4865
  895MOL0     H18107  10.969   1.153  10.587  1.4992 -0.5952 -1.7187
  895MOL0     H18108  10.920   1.307  10.377  1.9447  0.5418  1.0806
  895MOL0     H18109  10.929   1.357  10.542 -1.8425  1.8211 -0.1330
  895MOL0     H18110  10.664   1.350  10.549  0.7011  0.4695  0.0351
  895MOL0     H18111  10.664   1.306  10.383 -2.1130  1.0016 -0.9615
  895MOL0     H18112  10.820   1.557  10.473 -2.1443  0.4879  1.2798
  895MOL0     H18113  10.782   1.502  10.316 -0.5253  2.6107 -0.2478
  895MOL0     H18114  10.553   1.569  10.506  0.8286  1.0584  0.8687
  895MOL0     H18115  10.559   1.547  10.320 -1.4097  1.2549 -0.0428
  895MOL0     H18116  10.675   1.786  10.474  4.5556  2.8552 -3.6474
  895MOL0     H18117  10.517   1.762  10.383 -0.5761  0.8658 -0.8799
  895MOL0     H18118  10.798   1.742  10.242 -0.2244 -2.4878  0.7861
  895MOL0     H18119  10.632   1.733  10.172  0.6328 -0.1946 -0.3585
  895MOL0     H18120  10.740   1.945  10.136  1.8890 -2.2976 -0.0368
  895MOL0     H18121  10.741   1.965  10.318  0.3302 -0.3943 -0.6052
  895MOL0     H18122  10.968   0.915  10.632  0.6827 -0.6910 -0.4092
  895MOL0     H18123  10.899   0.677  10.740 -0.3934  0.6310 -0.3465
  895MOL0     H18124  10.769   0.373  10.901  0.1295 -4.0394 -2.5926
  895MOL0     H18125  10.760   0.169  11.041 -0.7941 -1.3002  0.8679
  895MOL0     H18126  11.212   1.306  11.110  1.6698  1.2669 -1.6344
  895MOL0     H18127  11.168   1.518  10.996 -1.9682  0.8548 -0.9023
  895MOL0     H18128  10.799   1.879  11.008  1.4155 -0.7301  0.2167
  895MOL0     H18129  10.816   2.095  10.955 -0.8693 -2.4436  0.1542
  895MOL0     H18130  11.055   2.385  10.827  0.2440 -0.9306 -1.0697
  895MOL0     H18131  11.001   2.282  10.957  1.1951  3.1713  0.2616
  895MOL0     H18132  10.837   2.443  10.753 -2.7717  1.4429  0.3001
  895MOL0     H18133  10.765   2.332  10.869 -1.2573  1.5650  1.1658
  895MOL0     H18134  10.935   2.460  11.042  0.2797  0.5438 -0.3716
  895MOL0     H18135  10.777   2.520  11.020  0.8088  1.0340 -0.2275
  895MOL0     H18136  10.947   2.701  10.990  1.2191  2.6319 -1.6833
  895MOL0     H18137  11.021   2.618  10.856 -2.3648 -1.2966 -0.7539
  895MOL0     H18138  10.669   2.751  10.674  1.3415  3.2466  0.0351
  895MOL0     H18139  11.069   2.016  10.627 -0.0192  0.2722  1.1319
  895MOL0     H18140  11.063   1.765  10.690  2.5605  3.4335 -2.2324
  896MOL0     O18141   8.387   4.017   5.315  0.4790  0.0897  0.3203
  896MOL0     C18142   8.481   4.041   5.391  0.8896  0.0778 -0.3951
  896MOL0     O18143   8.605   3.978   5.385  0.8051 -0.1671 -0.1248
  896MOL0     C18144   8.619   3.884   5.285 -0.7613 -0.4543 -0.6780
  896MOL0     C18145   8.624   3.932   5.150 -0.2591 -0.1177  1.0646
  896MOL0     C18146   8.636   3.838   5.047 -0.1128 -0.0467 -0.2399
  896MOL0     C18147   8.639   3.703   5.070  1.6097 -0.1348  0.3735
  896MOL0     O18148   8.652   3.614   4.967  0.1726  0.4384  0.6531
  896MOL0     C18149   8.792   3.594   4.930  0.7865 -0.5742 -0.7717
  896MOL0     C18150   8.829   3.513   4.804 -0.0631 -0.0545  0.3607
  896MOL0     C18151   8.792   3.605   4.679 -0.5972 -0.2318 -0.9571
  896MOL0     C18152   8.791   3.521   4.548  0.0416 -0.2681  0.3850
  896MOL0     C18153   8.823   3.592   4.425  0.2303 -0.5375  0.4034
  896MOL0     C18154   8.805   3.503   4.308  0.5281  0.0618  1.1044
  896MOL0     C18155   8.651   3.485   4.279  0.3431  0.1503  0.5614
  896MOL0     C18156   8.632   3.472   4.124 -0.2634 -0.4022 -0.3923
  896MOL0     N18157   8.653   3.600   4.056 -0.5908 -0.1699 -0.1914
  896MOL0     C18158   8.583   3.714   4.067  0.6490  0.1362  0.1275
  896MOL0     C18159   8.637   3.807   3.984  0.1428 -0.7015  1.1861
  896MOL0     C18160   8.598   3.952   3.951 -0.2452 -1.1320  1.1913
  896MOL0     C18161   8.561   3.982   3.810 -0.2634 -0.8618  0.4257
  896MOL0     C18162   8.557   4.135   3.784  0.6537 -0.2617  0.8150
  896MOL0     C18163   8.574   4.173   3.639  0.3850 -1.4515 -0.1521
  896MOL0     O18164   8.471   4.114   3.559 -0.5490 -0.0058 -0.3584
  896MOL0     C18165   8.464   4.173   3.435 -0.3278 -0.2187  0.0539
  896MOL0     C18166   8.547   4.127   3.343  0.3519  0.5733  0.0225
  896MOL0     C18167   8.543   4.165   3.204 -0.3205  0.2626 -0.0208
  896MOL0     C18168   8.463   4.277   3.173 -1.2803  0.2588 -0.5510
  896MOL0     C18169   8.462   4.317   3.032 -0.6167 -0.8208 -0.6614
  896MOL0     O18170   8.575   4.294   2.954  0.3484 -0.6236 -0.2202
  896MOL0     C18171   8.598   4.352   2.833  0.9414  0.6628 -0.1155
  896MOL0     C18172   8.699   4.289   2.763  0.3513  0.0127  0.4894
  896MOL0     C18173   8.715   4.328   2.631  0.6118 -1.0336 -0.0703
  896MOL0     C18174   8.656   4.439   2.575 -0.2339  0.3845  0.2482
  896MOL0     O18175   8.704   4.490   2.459  0.7147 -0.3364  0.4603
  896MOL0     C18176   8.842   4.511   2.432  0.0703  0.3871 -0.3549
  896MOL0     C18177   8.858   4.612   2.313  0.2014  0.8084 -0.4853
  896MOL0     C18178   8.881   4.553   2.170  0.0813  0.0311  0.5252
  896MOL0     C18179   8.768   4.457   2.129  0.3804 -1.0892 -0.0321
  896MOL0     C18180   8.756   4.426   1.973 -0.5955 -0.1980 -0.4594
  896MOL0     C18181   8.742   4.554   1.893  0.2686  0.2838 -0.0392
  896MOL0     C18182   8.702   4.512   1.752 -0.0172  0.1942 -0.3812
  896MOL0     C18183   8.817   4.447   1.670 -0.2241 -0.5732 -0.4946
  896MOL0    Cl18184   8.742   4.448   1.509 -0.2040  0.1793 -0.3048
  896MOL0     C18185   8.553   4.505   2.646  0.4976  0.3883  0.2275
  896MOL0     C18186   8.535   4.470   2.780  0.3814 -0.0290  0.5829
  896MOL0     O18187   8.357   4.381   3.004 -0.2628 -0.0627 -0.7108
  896MOL0     C18188   8.380   4.325   3.276  1.8290 -0.0137 -0.0214
  896MOL0     C18189   8.387   4.292   3.406 -0.2231  0.5890  0.1040
  896MOL0     N18190   8.748   3.745   3.933  0.5555 -0.4366  0.2243
  896MOL0     N18191   8.763   3.630   3.981  0.8304 -1.2583  0.4393
  896MOL0     C18192   8.625   3.649   5.198  0.8796  0.3222 -0.5012
  896MOL0     C18193   8.613   3.745   5.306 -0.4358 -0.0033  0.1029
  896MOL0     C18194   8.457   4.129   5.506 -0.4026 -0.5814  0.6231
  896MOL0     C18195   8.327   4.187   5.527 -0.4103 -0.1740 -0.0829
  896MOL0     C18196   8.303   4.257   5.649  0.1380 -0.2608 -1.2775
  896MOL0     C18197   8.402   4.268   5.756  0.2200  0.4748 -0.4064
  896MOL0     O18198   8.375   4.359   5.857 -0.6582  0.5990  0.0506
  896MOL0     C18199   8.488   4.403   5.942  0.4219 -0.0022  0.1808
  896MOL0     C18200   8.445   4.524   6.025  0.8255  0.1712  0.1812
  896MOL0     C18201   8.563   4.585   6.096 -0.5087  0.8878  0.8926
  896MOL0     C18202   8.498   4.695   6.192 -1.0395  0.0102 -0.3042
  896MOL0     C18203   8.599   4.788   6.247 -0.4685  0.0007  0.6529
  896MOL0     C18204   8.683   4.873   6.263  0.2014  0.1240  0.8501
  896MOL0     C18205   8.530   4.218   5.723 -0.4328  0.5410 -0.7424
  896MOL0     C18206   8.561   4.147   5.601 -0.0889 -0.1699 -0.1024
  896MOL0     H18207   8.611   4.036   5.124 -2.2017 -0.5726 -0.0241
  896MOL0     H18208   8.640   3.856   4.940  0.4271 -1.2586 -0.4332
  896MOL0     H18209   8.838   3.546   5.018  1.5161  2.9453  0.9254
  896MOL0     H18210   8.834   3.694   4.925  0.7824 -0.3521  1.9791
  896MOL0     H18211   8.771   3.421   4.790  1.0291 -0.3969 -2.8188
  896MOL0     H18212   8.935   3.488   4.814 -0.6344 -3.8089 -1.0761
  896MOL0     H18213   8.858   3.691   4.690 -1.3720  0.0424  3.7238
  896MOL0     H18214   8.693   3.646   4.701 -0.3454  0.1938 -0.6143
  896MOL0     H18215   8.866   3.443   4.565  0.7776  0.5634  1.0127
  896MOL0     H18216   8.690   3.479   4.543 -1.7423  3.4971  1.2131
  896MOL0     H18217   8.926   3.626   4.428  0.6099 -1.7336  3.0248
  896MOL0     H18218   8.756   3.679   4.419  1.5548  0.4151 -1.6799
  896MOL0     H18219   8.841   3.404   4.338 -0.3785 -0.3477  0.8995
  896MOL0     H18220   8.863   3.537   4.222 -0.8229  2.4701  1.0749
  896MOL0     H18221   8.604   3.402   4.332  1.3038 -1.6628 -1.2909
  896MOL0     H18222   8.592   3.570   4.314  1.7508  0.5088  2.2255
  896MOL0     H18223   8.530   3.440   4.102 -0.1903 -1.8481  1.2241
  896MOL0     H18224   8.700   3.398   4.081 -2.6859 -1.4640 -2.6909
  896MOL0     H18225   8.504   3.723   4.141  2.4363 -2.0885  2.4830
  896MOL0     H18226   8.696   3.999   3.964 -0.5681  3.4350 -6.5038
  896MOL0     H18227   8.529   4.005   4.017 -1.5532  0.8302 -1.5573
  896MOL0     H18228   8.464   3.941   3.779  0.9763 -4.3914  0.7239
  896MOL0     H18229   8.639   3.937   3.749  0.7615 -2.5472  2.7851
  896MOL0     H18230   8.466   4.174   3.829  0.2817 -0.6117  0.3746
  896MOL0     H18231   8.640   4.175   3.843 -0.9611  0.4342  2.7248
  896MOL0     H18232   8.675   4.147   3.605  1.9260  2.3745  0.8844
  896MOL0     H18233   8.562   4.282   3.633 -2.8368 -1.5924  1.5716
  896MOL0     H18234   8.605   4.040   3.376 -0.8501 -0.2569  0.0142
  896MOL0     H18235   8.603   4.118   3.127 -1.8044  0.3054 -1.2435
  896MOL0     H18236   8.760   4.204   2.791  1.4072  0.4542 -0.3812
  896MOL0     H18237   8.780   4.276   2.562  0.3077  1.7014 -2.5962
  896MOL0     H18238   8.886   4.415   2.404 -2.0487 -1.1226  1.2677
  896MOL0     H18239   8.890   4.557   2.519 -4.4496  1.0457  2.0713
  896MOL0     H18240   8.928   4.688   2.347 -3.1961  4.6302 -1.3099
  896MOL0     H18241   8.766   4.671   2.314  0.8832  2.0764 -3.1432
  896MOL0     H18242   8.978   4.502   2.157 -1.0746 -1.8469 -1.3910
  896MOL0     H18243   8.880   4.635   2.099 -2.4275 -2.4066 -2.5434
  896MOL0     H18244   8.779   4.364   2.185 -2.4036 -1.2581  0.3525
  896MOL0     H18245   8.676   4.508   2.159  1.1049 -0.6193  1.5160
  896MOL0     H18246   8.667   4.364   1.963 -2.5588  2.0577  1.6005
  896MOL0     H18247   8.854   4.385   1.945 -1.7448 -1.9779 -2.0586
  896MOL0     H18248   8.838   4.601   1.871  0.0284 -0.3600 -2.9114
  896MOL0     H18249   8.675   4.626   1.939  1.5555  1.2315  0.4151
  896MOL0     H18250   8.626   4.433   1.748 -0.5629  0.5689  1.4391
  896MOL0     H18251   8.671   4.601   1.697 -1.8644  1.4185  2.4050
  896MOL0     H18252   8.848   4.349   1.708 -2.0945  0.1749  3.5217
  896MOL0     H18253   8.907   4.509   1.671 -0.0184 -0.8127  1.9182
  896MOL0     H18254   8.521   4.601   2.606  2.1510  3.4071  5.2721
  896MOL0     H18255   8.474   4.538   2.838  2.8962  2.6093  0.3309
  896MOL0     H18256   8.308   4.406   3.262 -0.1058 -1.3682  1.6207
  896MOL0     H18257   8.328   4.307   3.496 -0.3456 -2.4299  0.6175
  896MOL0     H18258   8.624   3.542   5.219 -2.8122  0.1240 -0.9520
  896MOL0     H18259   8.608   3.725   5.412 -5.0152 -1.0012 -0.1016
  896MOL0     H18260   8.243   4.173   5.460  0.1136  2.8948 -1.5584
  896MOL0     H18261   8.205   4.300   5.669  1.1371  3.0301 -2.6378
  896MOL0     H18262   8.566   4.442   5.876  1.3707  0.0109  1.2798
  896MOL0     H18263   8.539   4.318   5.988 -0.3959 -0.5545  0.0937
  896MOL0     H18264   8.402   4.595   5.954 -1.3472  0.1002  1.3268
  896MOL0     H18265   8.371   4.480   6.093 -1.7450 -1.5872 -3.4265
  896MOL0     H18266   8.624   4.621   6.012  2.3082 -0.0781  2.4059
  896MOL0     H18267   8.624   4.513   6.151 -0.6217  1.1474  1.3636
  896MOL0     H18268   8.423   4.750   6.135 -0.8343 -0.3837 -0.9673
  896MOL0     H18269   8.438   4.656   6.275  0.0386  0.8014  0.8715
  896MOL0     H18270   8.751   4.954   6.280  1.1534 -0.6398  0.7573
  896MOL0     H18271   8.611   4.237   5.792 -1.0085  2.0263 -0.4498
  896MOL0     H18272   8.662   4.107   5.591  0.3156  0.9290 -0.6422
  897MOL0     O18273   2.396   6.887   0.730 -0.2624  0.9197  0.4201
  897MOL0     C18274   2.463   6.838   0.640  0.8250  0.7780 -0.8449
  897MOL0     O18275   2.546   6.733   0.659  0.3017 -0.0101 -0.0571
  897MOL0     C18276   2.609   6.709   0.779  0.4126  0.6917  0.8537
  897MOL0     C18277   2.598   6.785   0.904 -0.6507 -0.3526  0.3135
  897MOL0     C18278   2.643   6.733   1.029 -0.0404  0.1573  0.6630
  897MOL0     C18279   2.690   6.602   1.026 -0.0284  0.2223 -0.6503
  897MOL0     O18280   2.730   6.564   1.151  0.4485  0.1156  0.1316
  897MOL0     C18281   2.764   6.434   1.177 -0.0863 -0.2686  0.0145
  897MOL0     C18282   2.912   6.424   1.153  0.8554  0.3912  0.1275
  897MOL0     C18283   2.952   6.275   1.115 -0.3990  0.4247  1.0608
  897MOL0     C18284   3.105   6.261   1.068  0.5638  0.3020 -0.6690
  897MOL0     C18285   3.124   6.129   0.994 -0.6128  0.9102  0.3175
  897MOL0     C18286   3.265   6.123   0.928 -0.4004 -0.1683  0.6225
  897MOL0     C18287   3.296   5.991   0.853  0.1764  0.5199  0.1422
  897MOL0     C18288   3.324   5.860   0.937  0.7435  0.1606  0.7535
  897MOL0     N18289   3.436   5.887   1.024 -0.5984  0.2712 -0.3578
  897MOL0     C18290   3.443   5.933   1.152  0.5975 -0.2366  0.4645
  897MOL0     C18291   3.576   5.945   1.176  0.5299  0.1378 -0.8331
  897MOL0     C18292   3.626   6.007   1.305 -1.2340 -0.0861  0.2346
  897MOL0     C18293   3.781   6.032   1.304 -0.0107 -0.7533 -0.4792
  897MOL0     C18294   3.839   6.107   1.432  0.0553  0.0072  1.1926
  897MOL0     C18295   3.830   6.258   1.425 -0.3455  0.6069  0.1290
  897MOL0     O18296   3.899   6.319   1.534 -0.5095 -1.1557  0.3897
  897MOL0     C18297   3.812   6.370   1.627 -0.7105 -0.0469 -0.3281
  897MOL0     C18298   3.790   6.306   1.751  0.1846 -0.4618 -0.8959
  897MOL0     C18299   3.716   6.369   1.848  0.2113  0.2319  1.3575
  897MOL0     C18300   3.651   6.488   1.826 -0.3934 -0.0952 -0.3473
  897MOL0     C18301   3.568   6.550   1.933 -1.0509  0.2317  0.2969
  897MOL0     O18302   3.610   6.521   2.060  0.3502  0.5038 -0.9428
  897MOL0     C18303   3.528   6.525   2.172  1.0201 -0.0432 -0.4202
  897MOL0     C18304   3.383   6.514   2.173 -0.2024  0.3701  0.2490
  897MOL0     C18305   3.305   6.536   2.290  0.6265  0.3117  0.1210
  897MOL0     C18306   3.369   6.551   2.409 -0.2123  0.3170  0.0687
  897MOL0     O18307   3.302   6.588   2.524  0.2371 -0.0968  0.9623
  897MOL0     C18308   3.218   6.699   2.517 -0.1504 -0.2430 -1.1848
  897MOL0     C18309   3.155   6.717   2.665  0.0731  0.3232 -0.2644
  897MOL0     C18310   3.120   6.872   2.690 -0.3787  0.4007 -0.4381
  897MOL0     C18311   3.035   6.875   2.815  0.4202  0.3400  0.3723
  897MOL0     C18312   2.971   7.012   2.858 -0.2663  0.0088  0.6749
  897MOL0     C18313   2.942   7.007   3.010 -0.5093 -0.0583  0.9540
  897MOL0     C18314   2.863   7.127   3.078  0.6146 -0.3298 -0.9983
  897MOL0     C18315   2.864   7.115   3.228  0.0130 -0.8964 -1.3883
  897MOL0    Cl18316   2.820   6.968   3.311 -0.2904  0.2304  0.5345
  897MOL0     C18317   3.514   6.581   2.408  1.6240 -1.0226  0.2237
  897MOL0     C18318   3.581   6.567   2.293 -0.9094  0.2950  0.7177
  897MOL0     O18319   3.477   6.631   1.904 -0.2224  0.8860  0.3413
  897MOL0     C18320   3.668   6.552   1.703 -1.0097 -0.1816  0.3717
  897MOL0     C18321   3.752   6.493   1.605 -0.5337 -0.2988  0.1359
  897MOL0     N18322   3.652   5.895   1.071 -0.2380 -0.0392  0.3636
  897MOL0     N18323   3.563   5.867   0.981 -0.4313 -1.0634 -0.2944
  897MOL0     C18324   2.697   6.525   0.903  0.0580 -0.0911 -0.1206
  897MOL0     C18325   2.654   6.582   0.785  0.3342  0.5702 -0.2843
  897MOL0     C18326   2.437   6.883   0.497 -0.4173 -0.2963 -0.1903
  897MOL0     C18327   2.339   6.976   0.475  0.1982  1.0337 -0.2048
  897MOL0     C18328   2.318   7.017   0.351 -0.1315 -0.8494  0.7432
  897MOL0     C18329   2.389   6.968   0.243 -0.3306 -0.0294  0.5922
  897MOL0     O18330   2.334   7.005   0.120 -0.5859 -0.5147  0.0919
  897MOL0     C18331   2.352   6.919   0.004  0.3948  0.4536  0.2379
  897MOL0     C18332   2.253   6.800   0.020 -0.5961 -0.7008  0.1446
  897MOL0     C18333   2.110   6.844  -0.011  0.6297 -1.2923  1.1419
  897MOL0     C18334   2.008   6.743   0.037 -0.6387  0.5261 -0.0269
  897MOL0     C18335   2.009   6.721   0.179  0.3809 -0.2133 -0.2256
  897MOL0     C18336   1.990   6.699   0.297 -1.1208  0.0839 -0.4173
  897MOL0     C18337   2.491   6.879   0.262 -0.8368  0.1101  0.4755
  897MOL0     C18338   2.520   6.831   0.389 -0.0845  1.1055  0.2735
  897MOL0     H18339   2.569   6.890   0.906  2.8918  0.7942 -0.9518
  897MOL0     H18340   2.648   6.803   1.112 -1.5707 -0.0102  0.9317
  897MOL0     H18341   2.712   6.369   1.105  2.7951  0.0591 -2.5659
  897MOL0     H18342   2.730   6.408   1.277 -3.7784 -0.8087 -1.1923
  897MOL0     H18343   2.965   6.465   1.239 -0.1647  0.4264  0.7517
  897MOL0     H18344   2.941   6.489   1.070 -1.7387  1.0258 -0.3719
  897MOL0     H18345   2.892   6.230   1.035  0.1436 -3.0390  2.4320
  897MOL0     H18346   2.940   6.203   1.196 -1.3769  2.3729  2.7232
  897MOL0     H18347   3.132   6.350   1.011 -0.5383  0.9494 -0.2197
  897MOL0     H18348   3.167   6.252   1.158 -2.3834  0.6781  1.5853
  897MOL0     H18349   3.046   6.118   0.917  0.7938 -1.1032 -0.9262
  897MOL0     H18350   3.106   6.042   1.057  0.4089  0.2687 -0.2467
  897MOL0     H18351   3.347   6.140   0.999  1.4058  1.8766 -1.7563
  897MOL0     H18352   3.269   6.205   0.856 -0.5091  1.1640  2.0983
  897MOL0     H18353   3.209   5.969   0.790 -1.3770  2.8953  1.2945
  897MOL0     H18354   3.377   6.012   0.783 -0.4326  1.0166 -0.4331
  897MOL0     H18355   3.356   5.781   0.869 -1.6854  0.3313 -0.6988
  897MOL0     H18356   3.242   5.827   1.002 -0.0151 -1.6680 -1.0130
  897MOL0     H18357   3.356   5.958   1.211 -1.7003 -0.6462 -2.5179
  897MOL0     H18358   3.589   5.948   1.390 -0.6384 -1.8437 -0.6720
  897MOL0     H18359   3.583   6.104   1.330  5.3794  3.1611  1.2740
  897MOL0     H18360   3.797   6.098   1.219 -1.2000  1.8608  1.2124
  897MOL0     H18361   3.840   5.943   1.278  2.1551  0.8505 -1.3356
  897MOL0     H18362   3.795   6.063   1.522 -1.2193 -5.9139 -1.8410
  897MOL0     H18363   3.948   6.100   1.420 -0.0252  2.1255 -2.0677
  897MOL0     H18364   3.724   6.282   1.430 -0.0229  2.2662 -0.3613
  897MOL0     H18365   3.869   6.303   1.333 -2.5289 -1.1927 -1.8062
  897MOL0     H18366   3.837   6.213   1.782 -1.9070 -2.1404 -2.4597
  897MOL0     H18367   3.701   6.319   1.943  4.2248  1.4573  2.8667
  897MOL0     H18368   3.333   6.492   2.080 -3.1985 -0.4900  1.9333
  897MOL0     H18369   3.197   6.528   2.281  0.6323  1.2976 -1.1125
  897MOL0     H18370   3.139   6.689   2.442 -1.6855  2.3003 -0.0041
  897MOL0     H18371   3.283   6.785   2.499  0.1730 -0.8627 -3.3036
  897MOL0     H18372   3.221   6.671   2.740 -0.6468 -3.5556 -1.7654
  897MOL0     H18373   3.072   6.646   2.661  0.8504 -0.5742 -1.1000
  897MOL0     H18374   3.073   6.904   2.597  2.2743 -2.7945 -3.1544
  897MOL0     H18375   3.213   6.926   2.710 -0.2541 -0.6250  2.1183
  897MOL0     H18376   2.962   6.796   2.796  3.5086 -1.8576 -3.7476
  897MOL0     H18377   3.092   6.843   2.903 -1.3741  1.8455  2.2055
  897MOL0     H18378   2.878   7.033   2.804  0.6748 -0.6308 -1.2852
  897MOL0     H18379   3.041   7.094   2.837  0.2439 -0.4823  0.4181
  897MOL0     H18380   3.035   7.016   3.067 -1.1125 -0.7301  2.0884
  897MOL0     H18381   2.883   6.916   3.023 -1.8555  0.1931 -2.3298
  897MOL0     H18382   2.923   7.217   3.061 -0.2366  0.5286  0.3559
  897MOL0     H18383   2.769   7.153   3.027  1.2466  2.5093 -0.8493
  897MOL0     H18384   2.799   7.191   3.274  2.9127 -1.3615  4.4554
  897MOL0     H18385   2.966   7.131   3.264  0.5447  0.0169 -3.1707
  897MOL0     H18386   3.576   6.615   2.491 -0.9625  3.3888  0.7010
  897MOL0     H18387   3.688   6.584   2.296 -0.9717  0.9325 -0.1061
  897MOL0     H18388   3.619   6.647   1.683 -0.9617 -0.3256 -0.5000
  897MOL0     H18389   3.768   6.547   1.512  0.3450  1.2987  1.1651
  897MOL0     H18390   2.742   6.427   0.894 -1.0078 -0.5110 -1.1889
  897MOL0     H18391   2.668   6.524   0.695 -1.2713  3.0075 -2.2339
  897MOL0     H18392   2.300   7.016   0.568 -1.7119 -1.5094  0.1976
  897MOL0     H18393   2.256   7.102   0.325  1.3494 -0.2868 -1.1451
  897MOL0     H18394   2.452   6.876  -0.005  0.7155  0.7112  2.0503
  897MOL0     H18395   2.325   6.973  -0.087 -5.3133 -0.6334  0.8871
  897MOL0     H18396   2.276   6.721  -0.053 -0.9927  0.3400 -1.1495
  897MOL0     H18397   2.245   6.770   0.125 -0.4659 -3.5342 -0.5646
  897MOL0     H18398   2.098   6.841  -0.120 -2.5806 -0.0096  1.3571
  897MOL0     H18399   2.092   6.944   0.029  1.0218 -0.8577  0.2519
  897MOL0     H18400   1.908   6.785   0.023 -0.4945  0.6331 -0.7713
  897MOL0     H18401   2.024   6.649  -0.015  0.6246  0.1347  1.0182
  897MOL0     H18402   1.966   6.659   0.393  1.3461 -2.8192 -0.8739
  897MOL0     H18403   2.533   6.836   0.172 -4.7418  1.4126 -2.2558
  897MOL0     H18404   2.592   6.753   0.413 -1.0472  0.1226  0.0873
  898MOL0     O18405   8.569   8.231   0.084  0.2042 -0.9440 -0.6747
  898MOL0     C18406   8.530   8.178   0.191 -0.2039 -0.0847 -0.0742
  898MOL0     O18407   8.538   8.042   0.216 -1.0097  0.1395 -0.8535
  898MOL0     C18408   8.584   7.962   0.115 -0.0602 -1.2594 -0.5675
  898MOL0     C18409   8.713   7.910   0.122 -0.0168  0.3392 -1.0698
  898MOL0     C18410   8.783   7.838   0.021  0.8635  0.2249 -0.2574
  898MOL0     C18411   8.704   7.811  -0.097  1.0373  0.0453 -0.6001
  898MOL0     O18412   8.736   7.724  -0.202 -0.2985 -0.3326  0.1722
  898MOL0     C18413   8.873   7.697  -0.220 -0.5680  0.0316  0.0769
  898MOL0     C18414   8.936   7.823  -0.282 -0.0030 -0.1343  0.6268
  898MOL0     C18415   9.086   7.818  -0.287 -0.4760 -0.0748 -0.2180
  898MOL0     C18416   9.186   7.933  -0.308  0.2066  0.6621 -0.0845
  898MOL0     C18417   9.143   8.037  -0.408  1.1033  0.9774  0.0452
  898MOL0     C18418   9.130   7.956  -0.537 -0.7359 -0.6499  0.0619
  898MOL0     C18419   9.100   8.048  -0.669 -0.4692  0.9384  0.5826
  898MOL0     C18420   9.185   8.020  -0.801 -0.1346 -0.3958 -0.2471
  898MOL0     N18421   9.221   7.880  -0.827 -0.1599  1.1937  0.3086
  898MOL0     C18422   9.140   7.772  -0.825 -0.1071  0.2240  0.0649
  898MOL0     C18423   9.213   7.661  -0.826 -0.1487 -0.4941 -0.7346
  898MOL0     C18424   9.141   7.530  -0.815  0.2437  1.4994 -0.3930
  898MOL0     C18425   9.083   7.518  -0.674 -0.0610  0.4719  0.2038
  898MOL0     C18426   9.049   7.373  -0.642 -0.3922  1.0708 -0.5605
  898MOL0     C18427   9.014   7.360  -0.492  0.7395 -0.4705 -1.1507
  898MOL0     O18428   9.127   7.382  -0.409  0.5731  1.1067  0.5549
  898MOL0     C18429   9.102   7.402  -0.279  0.0073 -0.5787 -0.5348
  898MOL0     C18430   9.211   7.464  -0.195  0.6797 -0.6214  0.5296
  898MOL0     C18431   9.186   7.503  -0.065  0.1714  1.0315  0.6092
  898MOL0     C18432   9.065   7.476  -0.004 -0.6091  0.2627  0.3354
  898MOL0     C18433   9.020   7.550   0.115 -1.1124 -0.0663 -0.4969
  898MOL0     O18434   9.093   7.652   0.156  0.6526 -0.3397  0.7048
  898MOL0     C18435   9.056   7.740   0.249 -0.6028 -0.5055  0.2718
  898MOL0     C18436   9.144   7.839   0.267 -0.5472 -0.7237 -0.8958
  898MOL0     C18437   9.127   7.929   0.369 -1.1466 -1.1838 -0.6918
  898MOL0     C18438   9.019   7.930   0.461  0.0930  0.5849 -0.4701
  898MOL0     O18439   9.017   8.032   0.547 -0.8000  0.0548 -0.3099
  898MOL0     C18440   8.990   7.995   0.685 -0.8203 -0.1041  0.3872
  898MOL0     C18441   9.103   8.061   0.764 -0.1272 -0.0938 -0.2250
  898MOL0     C18442   9.097   8.022   0.915 -0.0255 -0.0423 -0.3960
  898MOL0     C18443   9.138   7.874   0.931 -0.0579  0.6508  0.1984
  898MOL0     C18444   9.142   7.826   1.079 -0.3791 -0.2370  0.1803
  898MOL0     C18445   9.257   7.861   1.177  0.1692 -0.3260  0.2602
  898MOL0     C18446   9.412   7.834   1.139  0.3922  0.4796 -0.1014
  898MOL0     C18447   9.437   7.695   1.079 -0.0729 -0.4374  0.2472
  898MOL0    Cl18448   9.437   7.569   1.201  0.2671  0.2538 -0.1997
  898MOL0     C18449   8.929   7.826   0.444  1.1412 -0.0914  0.1262
  898MOL0     C18450   8.945   7.728   0.339  0.3749 -0.5132  0.7296
  898MOL0     O18451   8.913   7.525   0.161  0.5203 -0.2224  0.5286
  898MOL0     C18452   8.968   7.400  -0.075 -0.6323  0.1736 -0.2302
  898MOL0     C18453   8.989   7.365  -0.205 -0.6948  0.3890  0.1344
  898MOL0     N18454   9.349   7.693  -0.821  0.0299 -0.8134 -0.2239
  898MOL0     N18455   9.350   7.823  -0.815  0.0409 -0.3539 -0.3561
  898MOL0     C18456   8.565   7.850  -0.088 -1.2401  0.0772 -0.3882
  898MOL0     C18457   8.517   7.942  -0.002  0.7401  0.3032  0.4109
  898MOL0     C18458   8.460   8.252   0.299  0.1161  0.0519  1.2651
  898MOL0     C18459   8.442   8.393   0.282  0.0143 -0.1572  0.2720
  898MOL0     C18460   8.385   8.469   0.387  0.1457  0.5730 -0.1221
  898MOL0     C18461   8.348   8.402   0.506  0.8334  0.2157  0.4495
  898MOL0     O18462   8.268   8.462   0.598  0.2500 -0.0889  0.2278
  898MOL0     C18463   8.165   8.538   0.548  0.4823 -0.0777  0.4887
  898MOL0     C18464   8.051   8.451   0.510 -0.9343  0.1513  1.2337
  898MOL0     C18465   7.977   8.386   0.619  0.5370  0.6373 -0.7387
  898MOL0     C18466   7.932   8.475   0.742 -0.0265 -0.3672 -0.2065
  898MOL0     C18467   7.896   8.403   0.865  1.2334 -0.1304 -0.3434
  898MOL0     C18468   7.825   8.356   0.952 -0.1414  0.4329  0.0938
  898MOL0     C18469   8.365   8.261   0.518 -0.2261  0.1493 -0.8210
  898MOL0     C18470   8.432   8.192   0.425 -0.7925 -0.8814  1.0351
  898MOL0     H18471   8.760   7.924   0.219  3.1104 -0.7233 -2.3167
  898MOL0     H18472   8.884   7.805   0.042 -0.2690 -2.6310  1.2645
  898MOL0     H18473   8.882   7.617  -0.295  0.2300  1.3324 -1.2659
  898MOL0     H18474   8.921   7.656  -0.131  0.5264 -0.7196 -0.8195
  898MOL0     H18475   8.920   7.911  -0.219  1.5423  1.2935 -0.8753
  898MOL0     H18476   8.883   7.846  -0.375  2.7945  4.6750 -0.1081
  898MOL0     H18477   9.108   7.753  -0.372 -2.8158 -0.7581 -0.3844
  898MOL0     H18478   9.108   7.769  -0.192 -0.3797  1.8037  0.7935
  898MOL0     H18479   9.215   7.976  -0.212  2.3906 -0.2716 -0.2727
  898MOL0     H18480   9.279   7.892  -0.347 -0.2908 -0.2309 -0.3540
  898MOL0     H18481   9.221   8.114  -0.413  2.2271  0.0454  2.0301
  898MOL0     H18482   9.051   8.095  -0.392  2.6809  4.0068 -1.0930
  898MOL0     H18483   9.049   7.883  -0.529  0.7816 -2.2149  2.0636
  898MOL0     H18484   9.230   7.913  -0.544  0.8566  2.0815  3.0848
  898MOL0     H18485   8.995   8.030  -0.691  0.0629 -2.6690  0.3067
  898MOL0     H18486   9.116   8.152  -0.640  1.0144  1.5969 -2.2247
  898MOL0     H18487   9.279   8.076  -0.789 -1.0865  1.0575  0.8108
  898MOL0     H18488   9.121   8.060  -0.880  0.6662  0.2784 -0.5809
  898MOL0     H18489   9.033   7.787  -0.833  0.0212 -0.0274 -4.2886
  898MOL0     H18490   9.217   7.454  -0.839 -1.0834 -0.6428  1.7059
  898MOL0     H18491   9.063   7.512  -0.890 -1.4371 -0.5185  1.6830
  898MOL0     H18492   8.995   7.579  -0.652 -0.3609 -0.5797  2.1170
  898MOL0     H18493   9.162   7.549  -0.606 -0.3035  2.8775 -0.5337
  898MOL0     H18494   8.964   7.331  -0.697 -0.3585 -0.5994  0.5851
  898MOL0     H18495   9.133   7.303  -0.649 -1.0916 -0.0636  1.6179
  898MOL0     H18496   8.978   7.259  -0.470  0.9254 -0.1243  0.9226
  898MOL0     H18497   8.943   7.437  -0.460  1.7043 -0.3722  0.8829
  898MOL0     H18498   9.309   7.481  -0.239 -0.4535 -0.9976 -2.3301
  898MOL0     H18499   9.271   7.540  -0.009  2.5256  0.0698 -2.1122
  898MOL0     H18500   9.227   7.854   0.198 -0.4692  1.1643 -0.4565
  898MOL0     H18501   9.200   8.002   0.402 -0.4925 -3.7233  4.5882
  898MOL0     H18502   8.982   7.887   0.702  0.9639 -0.2880  0.2331
  898MOL0     H18503   8.892   8.026   0.723 -1.1795 -0.2055 -0.4528
  898MOL0     H18504   9.100   8.170   0.754 -0.4189  0.1493  2.0063
  898MOL0     H18505   9.196   8.021   0.725 -1.3499 -1.5225 -1.8046
  898MOL0     H18506   8.992   8.040   0.941 -0.3197 -0.7262 -1.0812
  898MOL0     H18507   9.164   8.084   0.975 -0.6204  0.1550  0.0756
  898MOL0     H18508   9.068   7.805   0.883  2.7503 -3.3988  1.3962
  898MOL0     H18509   9.235   7.855   0.883 -0.1259  1.2388 -0.1802
  898MOL0     H18510   9.142   7.719   1.058  0.1144  0.2829 -2.9177
  898MOL0     H18511   9.049   7.857   1.128 -1.5819 -1.4761 -1.2556
  898MOL0     H18512   9.231   7.798   1.262 -0.3701 -3.9340 -2.3634
  898MOL0     H18513   9.241   7.967   1.201  1.1574 -0.4830  1.7230
  898MOL0     H18514   9.431   7.911   1.064 -1.9204  0.9610 -0.2886
  898MOL0     H18515   9.485   7.843   1.220 -0.3889  0.8883  0.5839
  898MOL0     H18516   9.530   7.676   1.025  1.0522  1.9687  1.1701
  898MOL0     H18517   9.351   7.678   1.013 -1.5447  2.8822  1.0927
  898MOL0     H18518   8.844   7.821   0.511 -2.0416  2.3887 -3.3292
  898MOL0     H18519   8.877   7.643   0.341  0.6395 -0.7142  1.4915
  898MOL0     H18520   8.869   7.378  -0.034 -0.7771  0.9544 -0.1512
  898MOL0     H18521   8.915   7.299  -0.249 -0.9461  0.3178  0.6550
  898MOL0     H18522   8.495   7.808  -0.159 -2.7400  3.7064 -1.2818
  898MOL0     H18523   8.414   7.974  -0.013  0.4314 -0.5520  0.7360
  898MOL0     H18524   8.475   8.460   0.204 -1.1247 -0.0981 -0.1827
  898MOL0     H18525   8.373   8.576   0.375  1.6126  1.0046  1.7648
  898MOL0     H18526   8.198   8.603   0.466 -4.3546  0.2595 -1.5595
  898MOL0     H18527   8.135   8.611   0.623 -1.2662 -2.3124  2.0852
  898MOL0     H18528   7.967   8.507   0.467 -1.4025  2.2502  4.5371
  898MOL0     H18529   8.084   8.384   0.430  1.9120  0.5582  1.9427
  898MOL0     H18530   8.037   8.307   0.666 -0.9518  0.8152  1.6171
  898MOL0     H18531   7.886   8.332   0.590  0.0435  0.6042  0.7696
  898MOL0     H18532   8.007   8.552   0.759  1.2382 -1.4440 -0.7130
  898MOL0     H18533   7.844   8.533   0.712  1.2989  0.2758 -3.2018
  898MOL0     H18534   7.779   8.318   1.041  2.7995 -1.2249  1.0663
  898MOL0     H18535   8.341   8.207   0.609  0.7119  0.6218 -0.2729
  898MOL0     H18536   8.445   8.085   0.438 -1.5154 -1.3547 -1.5244
  899MOL0     O18537   6.498   8.945   9.423 -0.2720  0.3828 -0.1007
  899MOL0     C18538   6.617   8.986   9.433  0.3321 -0.2146 -0.0461
  899MOL0     O18539   6.662   9.098   9.376 -0.0842  0.5943  0.4869
  899MOL0     C18540   6.592   9.178   9.285 -0.1151  0.5226  0.0722
  899MOL0     C18541   6.611   9.317   9.295 -0.6725  0.7440 -0.7566
  899MOL0     C18542   6.532   9.399   9.209  0.2410 -0.7517 -0.4224
  899MOL0     C18543   6.444   9.340   9.114 -0.2367  0.5350  0.7314
  899MOL0     O18544   6.353   9.402   9.037  0.0872  0.4158  0.4189
  899MOL0     C18545   6.393   9.516   8.952  0.3199  0.4978  0.2308
  899MOL0     C18546   6.366   9.478   8.801  0.6617  0.3641  0.1430
  899MOL0     C18547   6.417   9.580   8.696  1.2042 -0.3146  0.6738
  899MOL0     C18548   6.568   9.606   8.679 -0.8233  0.3374  0.3049
  899MOL0     C18549   6.650   9.480   8.681 -1.3939  0.0906 -0.0847
  899MOL0     C18550   6.653   9.407   8.543 -0.0441 -0.3732  0.1277
  899MOL0     C18551   6.678   9.260   8.580 -1.8354 -0.3673  0.1069
  899MOL0     C18552   6.836   9.236   8.586  0.2170  0.1093 -0.2242
  899MOL0     N18553   6.915   9.294   8.476  1.1009  0.0345 -0.8323
  899MOL0     C18554   6.884   9.273   8.343 -0.9970 -0.9864  1.1708
  899MOL0     C18555   6.977   9.346   8.281  0.4349 -0.6100  0.0150
  899MOL0     C18556   6.988   9.348   8.133  0.3711 -0.4291 -0.0331
  899MOL0     C18557   6.856   9.373   8.066 -0.4026 -0.0336  0.7503
  899MOL0     C18558   6.862   9.473   7.950  0.3944 -0.5699  0.5298
  899MOL0     C18559   6.939   9.601   7.980 -0.5601 -0.1826 -0.0182
  899MOL0     O18560   6.864   9.702   7.913 -0.2488 -0.2007 -0.0290
  899MOL0     C18561   6.913   9.796   7.826 -0.6310  0.4758 -0.0492
  899MOL0     C18562   7.022   9.785   7.737 -0.0334  0.3217 -0.3743
  899MOL0     C18563   7.037   9.883   7.650  0.3859 -0.2310 -0.4924
  899MOL0     C18564   6.944   9.987   7.628  0.3468 -1.1866  0.1719
  899MOL0     C18565   6.961  10.081   7.504  0.2375  0.1239  0.1024
  899MOL0     O18566   6.883  10.192   7.495 -0.8796  0.1556 -0.1056
  899MOL0     C18567   6.862  10.246   7.374  0.5415  0.8869 -0.2153
  899MOL0     C18568   6.913  10.374   7.346 -1.0421  0.0833 -0.2961
  899MOL0     C18569   6.906  10.426   7.218  0.0126 -0.2164  0.1211
  899MOL0     C18570   6.832  10.365   7.118  0.2558  0.2395 -0.8024
  899MOL0     O18571   6.813  10.442   7.003  0.0619  0.7930  0.4714
  899MOL0     C18572   6.754  10.385   6.887  0.3955  0.4100  0.6778
  899MOL0     C18573   6.710  10.513   6.818  0.3443 -1.0806 -0.2186
  899MOL0     C18574   6.618  10.496   6.690  0.8056  0.1468  0.7957
  899MOL0     C18575   6.702  10.426   6.586  0.3172  0.1473  0.6657
  899MOL0     C18576   6.634  10.427   6.448  0.5787 -0.2747  0.9819
  899MOL0     C18577   6.738  10.418   6.332 -0.8880 -0.2287 -0.5129
  899MOL0     C18578   6.668  10.392   6.199 -0.8477  0.6317  0.1586
  899MOL0     C18579   6.756  10.390   6.069  0.2534  0.8040  0.7014
  899MOL0    Cl18580   6.656  10.426   5.924  0.1977  0.0787 -0.3697
  899MOL0     C18581   6.765  10.243   7.150  0.2810 -0.0745 -0.3025
  899MOL0     C18582   6.788  10.181   7.272  0.5780 -0.1770 -0.9715
  899MOL0     O18583   7.039  10.036   7.423 -0.2861 -0.3854  0.3142
  899MOL0     C18584   6.831   9.996   7.722 -1.3413 -0.1301 -0.3868
  899MOL0     C18585   6.818   9.897   7.817  0.9049  0.3422  0.1023
  899MOL0     N18586   7.047   9.424   8.370 -0.7996  0.5911 -0.5574
  899MOL0     N18587   7.002   9.393   8.495  0.8885 -0.1250  0.1962
  899MOL0     C18588   6.443   9.207   9.099 -0.0758  0.2184 -0.0575
  899MOL0     C18589   6.513   9.127   9.189  0.2033  1.1151 -0.0609
  899MOL0     C18590   6.711   8.911   9.513  0.3761 -1.0157 -0.1410
  899MOL0     C18591   6.693   8.781   9.552 -0.8592 -0.6340  0.0786
  899MOL0     C18592   6.799   8.715   9.615  0.6589  1.2244 -0.0084
  899MOL0     C18593   6.915   8.773   9.653 -0.0119  0.9794  0.5790
  899MOL0     O18594   7.010   8.690   9.699 -1.0325  0.4167 -0.1418
  899MOL0     C18595   7.145   8.737   9.718 -0.0246  0.7923 -0.2115
  899MOL0     C18596   7.224   8.738   9.586  0.5704  0.3085 -0.3929
  899MOL0     C18597   7.256   8.589   9.544  0.0972 -0.6339 -0.6668
  899MOL0     C18598   7.356   8.510   9.633  0.0652  0.2680 -0.3377
  899MOL0     C18599   7.347   8.366   9.604 -0.2452  0.1947  1.2343
  899MOL0     C18600   7.350   8.250   9.576 -0.6022 -0.1520  0.2233
  899MOL0     C18601   6.939   8.901   9.610  0.0236 -0.4744  0.6377
  899MOL0     C18602   6.844   8.958   9.533 -0.0920  0.2979  0.2271
  899MOL0     H18603   6.679   9.353   9.371  0.7988  1.1757 -2.2071
  899MOL0     H18604   6.538   9.507   9.222  1.6514 -0.9799  1.1904
  899MOL0     H18605   6.499   9.539   8.967  0.1955  3.0804 -2.1585
  899MOL0     H18606   6.340   9.608   8.977  0.2928  1.4203 -2.8234
  899MOL0     H18607   6.257   9.474   8.800  0.1579  5.2284 -4.1068
  899MOL0     H18608   6.413   9.380   8.788 -3.4770 -2.1124  1.8426
  899MOL0     H18609   6.352   9.667   8.705 -0.0566 -0.7153 -2.7685
  899MOL0     H18610   6.390   9.540   8.597  3.6262 -2.1970  0.6736
  899MOL0     H18611   6.598   9.652   8.584  0.0065  2.2449  1.4379
  899MOL0     H18612   6.602   9.679   8.753  1.0339  0.6192 -0.7839
  899MOL0     H18613   6.603   9.411   8.751 -1.0965  0.1784  0.2039
  899MOL0     H18614   6.750   9.500   8.721 -1.7710 -2.5414  2.5826
  899MOL0     H18615   6.720   9.465   8.479  1.0598  1.8147  3.0018
  899MOL0     H18616   6.562   9.408   8.482  3.0686  1.6910 -5.1266
  899MOL0     H18617   6.644   9.221   8.676 -1.0580 -3.5249 -0.8037
  899MOL0     H18618   6.637   9.197   8.501 -1.1682 -2.7337  1.5264
  899MOL0     H18619   6.844   9.127   8.580 -0.5774  0.1115 -2.4829
  899MOL0     H18620   6.883   9.274   8.677  3.6226 -3.6563 -0.1203
  899MOL0     H18621   6.823   9.199   8.293  0.7535 -0.5469 -1.8795
  899MOL0     H18622   7.023   9.254   8.088 -1.7130 -0.4577 -1.7627
  899MOL0     H18623   7.059   9.428   8.116 -0.6830  0.2317 -1.5629
  899MOL0     H18624   6.786   9.425   8.133  0.1513 -0.1613  1.4381
  899MOL0     H18625   6.807   9.281   8.030  0.7315 -0.8672  1.2872
  899MOL0     H18626   6.897   9.432   7.854 -0.4578 -0.4174  0.1464
  899MOL0     H18627   6.765   9.515   7.924  1.2676  0.6708 -0.9562
  899MOL0     H18628   7.039   9.572   7.947 -1.2100 -3.8877  0.8758
  899MOL0     H18629   6.943   9.609   8.089 -2.9393 -0.1404  0.1100
  899MOL0     H18630   7.097   9.707   7.731  1.2253  1.5949 -1.9481
  899MOL0     H18631   7.132   9.889   7.599  1.5533  0.8031  1.6397
  899MOL0     H18632   6.968  10.425   7.424 -0.6524  1.4673 -1.4333
  899MOL0     H18633   6.961  10.517   7.194 -3.6164  2.2533  0.4321
  899MOL0     H18634   6.663  10.330   6.914 -1.3224  3.9432  2.8918
  899MOL0     H18635   6.821  10.320   6.831 -0.0813 -0.8882  1.5544
  899MOL0     H18636   6.791  10.572   6.774 -1.9914  1.5030 -1.3882
  899MOL0     H18637   6.651  10.579   6.883  1.2248  0.3481 -0.8108
  899MOL0     H18638   6.589  10.592   6.646 -0.6222 -0.1225  1.1069
  899MOL0     H18639   6.537  10.426   6.710 -0.1354 -0.1903 -3.3598
  899MOL0     H18640   6.793  10.485   6.569  1.0370 -0.7564  1.2485
  899MOL0     H18641   6.729  10.322   6.606 -0.8952 -0.3881 -0.3753
  899MOL0     H18642   6.574  10.518   6.450 -2.0066 -1.8549  0.4430
  899MOL0     H18643   6.561  10.345   6.440  2.7449 -2.0957 -2.5190
  899MOL0     H18644   6.796  10.328   6.358 -2.4389 -1.6532 -1.7400
  899MOL0     H18645   6.814  10.497   6.337 -0.5581 -0.4813 -1.3418
  899MOL0     H18646   6.618  10.295   6.190  2.3369 -1.1237 -0.0600
  899MOL0     H18647   6.593  10.471   6.187 -1.6469 -0.1290  0.0924
  899MOL0     H18648   6.811  10.296   6.062 -1.9849 -0.5722  0.3496
  899MOL0     H18649   6.826  10.472   6.087  1.4119  0.1761 -0.8254
  899MOL0     H18650   6.700  10.192   7.079  0.3681 -1.5166  0.6103
  899MOL0     H18651   6.733  10.094   7.306  0.4040  0.6451  0.9985
  899MOL0     H18652   6.751  10.064   7.696  2.0188  3.3027 -2.6533
  899MOL0     H18653   6.734   9.900   7.885 -1.8580 -0.1083 -3.0740
  899MOL0     H18654   6.368   9.154   9.040  0.1804  0.6993 -0.8260
  899MOL0     H18655   6.512   9.019   9.177 -1.0121  1.2790 -1.7271
  899MOL0     H18656   6.596   8.739   9.528 -1.2467 -0.4264  1.1952
  899MOL0     H18657   6.798   8.610   9.640  1.6908  0.5808 -2.3626
  899MOL0     H18658   7.197   8.667   9.783 -3.3267 -1.1820  0.4989
  899MOL0     H18659   7.165   8.835   9.764  4.6008  0.1321 -0.3473
  899MOL0     H18660   7.176   8.787   9.501  2.0295  1.1187 -0.7772
  899MOL0     H18661   7.314   8.795   9.609  0.1173  0.6711  0.4928
  899MOL0     H18662   7.291   8.596   9.440  0.3003 -0.5918 -0.5965
  899MOL0     H18663   7.162   8.534   9.546 -0.7906  0.8442 -0.4249
  899MOL0     H18664   7.457   8.551   9.619  1.4458 -3.7767 -5.3723
  899MOL0     H18665   7.334   8.511   9.740 -0.2684 -2.0292 -0.3367
  899MOL0     H18666   7.352   8.144   9.583  1.6441 -0.1636  0.0422
  899MOL0     H18667   7.037   8.949   9.612 -0.8380  1.4295 -0.5848
  899MOL0     H18668   6.870   9.051   9.483  0.1623 -0.0611 -0.3214
  900MOL0     O18669   4.916   5.372   6.245 -0.2904  0.0861  0.0420
  900MOL0     C18670   4.868   5.289   6.170 -0.8954 -0.4612  0.2735
  900MOL0     O18671   4.936   5.207   6.076  0.0476 -1.0189 -0.2987
  900MOL0     C18672   5.058   5.239   6.022 -0.2510 -0.5623  0.3954
  900MOL0     C18673   5.099   5.374   6.006 -0.1039  0.6449 -0.1480
  900MOL0     C18674   5.216   5.414   5.948  0.2811  0.9914  1.2416
  900MOL0     C18675   5.306   5.311   5.899  0.0643 -0.1986  0.5122
  900MOL0     O18676   5.425   5.332   5.839  0.0853 -0.5953 -0.6330
  900MOL0     C18677   5.493   5.454   5.873 -0.2488 -0.8232 -0.7301
  900MOL0     C18678   5.618   5.453   5.777 -0.4826  0.3837  0.4132
  900MOL0     C18679   5.690   5.582   5.788 -0.5355 -0.2535  0.3339
  900MOL0     C18680   5.796   5.569   5.682  0.9590  0.8953 -0.5478
  900MOL0     C18681   5.877   5.693   5.670 -0.2346  0.4183  0.5009
  900MOL0     C18682   5.962   5.722   5.796 -0.4693  0.1749 -0.5516
  900MOL0     C18683   6.090   5.805   5.775  0.1004 -1.1969  0.1001
  900MOL0     C18684   6.053   5.926   5.677 -0.3683 -0.5925  0.3875
  900MOL0     N18685   6.163   6.015   5.695 -0.3211  0.4372 -0.4197
  900MOL0     C18686   6.284   5.999   5.625 -0.0868  1.2111 -0.2291
  900MOL0     C18687   6.351   6.109   5.668 -0.6838 -0.2384 -0.4263
  900MOL0     C18688   6.484   6.151   5.603 -0.5353  0.5624  0.3369
  900MOL0     C18689   6.595   6.153   5.703 -0.0291 -0.8880  0.4886
  900MOL0     C18690   6.619   6.011   5.758 -0.4707  0.2643 -0.7850
  900MOL0     C18691   6.714   6.022   5.880  0.4166 -0.7766 -0.3478
  900MOL0     O18692   6.740   5.892   5.936 -0.4535  0.4551  0.5285
  900MOL0     C18693   6.631   5.839   6.014 -0.2468  0.6138 -0.1027
  900MOL0     C18694   6.593   5.893   6.137 -0.6482 -0.1737  0.0227
  900MOL0     C18695   6.496   5.826   6.221 -0.3483 -0.3676  0.5287
  900MOL0     C18696   6.437   5.699   6.176 -0.0796  0.6309 -0.0653
  900MOL0     C18697   6.318   5.638   6.238  0.3952  0.2143  1.5054
  900MOL0     O18698   6.254   5.527   6.170 -0.2193 -0.0109 -0.7104
  900MOL0     C18699   6.129   5.487   6.222 -1.0269  0.1426 -0.0708
  900MOL0     C18700   6.110   5.438   6.352  0.9374 -0.3179  0.0881
  900MOL0     C18701   5.997   5.372   6.392  0.9797  1.1767 -0.2620
  900MOL0     C18702   5.889   5.365   6.304 -0.7363 -0.0615 -0.1424
  900MOL0     O18703   5.767   5.305   6.335 -0.9108 -0.4114 -0.3229
  900MOL0     C18704   5.746   5.271   6.473  0.4937 -0.1753  0.0738
  900MOL0     C18705   5.622   5.179   6.492  0.0966 -0.5179  1.0586
  900MOL0     C18706   5.630   5.105   6.616  0.0559  0.1980  0.1180
  900MOL0     C18707   5.518   5.016   6.644  0.8462 -0.1394 -0.3151
  900MOL0     C18708   5.381   5.089   6.681  0.1954 -0.4908 -0.2892
  900MOL0     C18709   5.366   5.145   6.818 -0.2776 -1.0017  0.2821
  900MOL0     C18710   5.391   5.041   6.932 -0.3646 -0.6990 -0.1664
  900MOL0     C18711   5.342   5.090   7.077 -0.3327 -0.2185  0.6352
  900MOL0    Cl18712   5.166   5.113   7.078  0.0206  0.1155 -0.1218
  900MOL0     C18713   5.899   5.426   6.174  0.2152  0.5743 -0.7115
  900MOL0     C18714   6.030   5.464   6.126  1.1788 -0.1032 -0.3086
  900MOL0     O18715   6.282   5.683   6.338 -0.3585  0.1905 -0.3459
  900MOL0     C18716   6.490   5.645   6.060 -0.0267 -0.3723  1.1238
  900MOL0     C18717   6.578   5.713   5.978 -0.6029 -0.9066 -0.3234
  900MOL0     N18718   6.280   6.192   5.750 -0.6696  0.8527  0.2435
  900MOL0     N18719   6.162   6.131   5.767 -0.4298  0.8721  0.6088
  900MOL0     C18720   5.269   5.177   5.931 -0.0932  0.8563  0.5800
  900MOL0     C18721   5.151   5.139   5.990  0.7502 -0.2417 -0.1019
  900MOL0     C18722   4.717   5.294   6.163 -0.6150  0.0512  1.2668
  900MOL0     C18723   4.648   5.360   6.268  0.2003 -0.8801 -0.0841
  900MOL0     C18724   4.512   5.360   6.259  0.5444  0.1581 -0.3277
  900MOL0     C18725   4.445   5.287   6.174  0.1784 -0.4441 -0.0123
  900MOL0     O18726   4.312   5.278   6.187 -0.7067  0.6478 -0.0508
  900MOL0     C18727   4.263   5.204   6.305 -0.6005 -0.1913 -0.1181
  900MOL0     C18728   4.130   5.266   6.347  0.5327 -0.8746  0.6639
  900MOL0     C18729   4.032   5.272   6.222 -0.4861  0.3364 -0.1639
  900MOL0     C18730   3.906   5.349   6.242  0.2815 -0.4058  0.5390
  900MOL0     C18731   3.804   5.265   6.305  0.1479 -0.8960  1.1519
  900MOL0     C18732   3.710   5.206   6.343 -0.7205 -0.6739  0.6868
  900MOL0     C18733   4.509   5.225   6.063 -0.2384  0.0105 -0.9180
  900MOL0     C18734   4.650   5.226   6.049  0.8919 -0.7626  0.0336
  900MOL0     H18735   5.037   5.456   6.042  1.8788  0.8935  3.1752
  900MOL0     H18736   5.241   5.520   5.940  1.8572  0.5171 -0.9400
  900MOL0     H18737   5.531   5.459   5.976  1.1235  0.1455 -1.2634
  900MOL0     H18738   5.451   5.554   5.860  1.9065  0.5773  2.0662
  900MOL0     H18739   5.592   5.442   5.671  4.0389  0.4572 -0.9127
  900MOL0     H18740   5.681   5.367   5.801 -2.2110 -1.2519 -0.6253
  900MOL0     H18741   5.735   5.593   5.887  2.1977 -1.0598 -0.7248
  900MOL0     H18742   5.629   5.670   5.765  0.5356  0.1899 -0.9563
  900MOL0     H18743   5.858   5.480   5.700  1.0089  1.2550  1.2391
  900MOL0     H18744   5.740   5.558   5.589  0.0029  1.2536 -0.0263
  900MOL0     H18745   5.809   5.773   5.640 -1.1240  0.3281  2.1451
  900MOL0     H18746   5.945   5.678   5.586 -0.7091  2.2570 -0.2517
  900MOL0     H18747   6.000   5.623   5.824  1.0712  1.4070  2.1180
  900MOL0     H18748   5.893   5.768   5.867 -2.4598  1.5343 -3.2093
  900MOL0     H18749   6.114   5.848   5.873 -5.2408 -0.3762  1.3400
  900MOL0     H18750   6.178   5.755   5.732  1.2323 -0.1451  1.0995
  900MOL0     H18751   5.959   5.971   5.711 -0.4166  2.4038 -3.0929
  900MOL0     H18752   6.031   5.894   5.575 -1.5739  3.5600 -0.8759
  900MOL0     H18753   6.309   5.921   5.553  0.7614  1.9027 -0.6972
  900MOL0     H18754   6.479   6.248   5.552  3.5657  1.1796  0.7177
  900MOL0     H18755   6.513   6.081   5.524  1.9494  0.0668  1.5628
  900MOL0     H18756   6.557   6.218   5.783 -1.3007 -2.4154  1.1739
  900MOL0     H18757   6.683   6.195   5.652 -1.3602  1.3008 -0.1259
  900MOL0     H18758   6.522   5.972   5.789 -0.4564 -0.1538 -1.2539
  900MOL0     H18759   6.661   5.947   5.679  0.2804 -1.5951  1.0230
  900MOL0     H18760   6.664   6.096   5.944 -1.5850  1.9031 -4.5422
  900MOL0     H18761   6.808   6.072   5.856  1.4718 -3.7217 -2.9036
  900MOL0     H18762   6.620   5.993   6.172  2.2824 -0.8381 -0.0913
  900MOL0     H18763   6.442   5.878   6.299 -0.8941  0.5530 -0.4270
  900MOL0     H18764   6.174   5.457   6.438 -0.5271  1.6916  0.8182
  900MOL0     H18765   6.012   5.325   6.489  1.7525 -0.2573 -1.0376
  900MOL0     H18766   5.733   5.356   6.541 -0.2926 -0.1905 -0.0400
  900MOL0     H18767   5.840   5.226   6.506  0.9870 -0.1607 -1.2528
  900MOL0     H18768   5.627   5.107   6.410  0.3176  0.3732  0.2775
  900MOL0     H18769   5.527   5.232   6.477 -1.0982 -2.1452  2.5083
  900MOL0     H18770   5.624   5.175   6.701 -0.9463  0.2148  0.0399
  900MOL0     H18771   5.724   5.050   6.629 -0.4023 -0.2065  1.9485
  900MOL0     H18772   5.493   4.952   6.559 -2.2739 -1.9224  1.7409
  900MOL0     H18773   5.550   4.964   6.735  3.7114  1.5184 -0.2584
  900MOL0     H18774   5.304   5.012   6.688  2.5828 -2.8690  3.5952
  900MOL0     H18775   5.348   5.161   6.606  0.6854  0.8269  0.7119
  900MOL0     H18776   5.265   5.185   6.829  0.1265 -0.0378  0.6410
  900MOL0     H18777   5.435   5.230   6.824  1.5337 -2.3364 -0.8052
  900MOL0     H18778   5.342   4.948   6.901 -1.3859  0.0113 -0.7115
  900MOL0     H18779   5.498   5.016   6.936  0.0309 -0.2426 -3.7654
  900MOL0     H18780   5.404   5.167   7.124  1.8209 -0.1246 -2.0678
  900MOL0     H18781   5.356   4.997   7.133 -1.0414 -2.1358 -2.1746
  900MOL0     H18782   5.804   5.419   6.121 -1.0574 -0.2523  1.5363
  900MOL0     H18783   6.039   5.500   6.024  1.9612  2.0165  0.4523
  900MOL0     H18784   6.458   5.551   6.015  0.9833  0.2598 -1.0479
  900MOL0     H18785   6.627   5.673   5.889 -0.6208 -1.9464  0.1199
  900MOL0     H18786   5.333   5.093   5.905 -1.7186 -0.5032  0.8224
  900MOL0     H18787   5.126   5.035   6.007 -0.1994  0.1792  1.2159
  900MOL0     H18788   4.685   5.414   6.355  0.2466 -3.7777  1.8271
  900MOL0     H18789   4.452   5.416   6.331 -0.0517  0.7008 -1.2271
  900MOL0     H18790   4.339   5.207   6.384  1.4315  0.9612 -2.0018
  900MOL0     H18791   4.253   5.097   6.284 -1.8655 -0.8021  2.9946
  900MOL0     H18792   4.078   5.195   6.412  0.6345 -1.1975  0.3937
  900MOL0     H18793   4.156   5.355   6.406 -0.1720 -2.2420  3.1927
  900MOL0     H18794   4.024   5.168   6.186  2.4360 -0.1666  0.4315
  900MOL0     H18795   4.085   5.320   6.138 -0.4009 -2.5896 -1.9339
  900MOL0     H18796   3.935   5.429   6.310  0.3138 -0.3309  0.4385
  900MOL0     H18797   3.874   5.396   6.148  0.0221 -1.4860  0.0643
  900MOL0     H18798   3.621   5.152   6.368 -0.9909 -0.2630  0.6290
  900MOL0     H18799   4.443   5.182   5.988  1.8558 -0.5616 -2.5127
  900MOL0     H18800   4.701   5.171   5.970  2.4347 -1.4560  1.4223
  901MOL0     O18801   8.910   2.194   0.285 -0.2049 -0.1129  0.4912
  901MOL0     C18802   8.897   2.297   0.220 -0.8974  0.0949  0.3702
  901MOL0     O18803   8.822   2.305   0.109  0.4538  0.2820  0.1782
  901MOL0     C18804   8.734   2.203   0.077 -0.1099  0.4979  1.3516
  901MOL0     C18805   8.765   2.062   0.053 -0.0149 -0.4949  1.1233
  901MOL0     C18806   8.669   1.976   0.011 -0.6952 -0.3555 -1.4821
  901MOL0     C18807   8.547   2.019  -0.025  0.0252  1.0619 -0.6736
  901MOL0     O18808   8.446   1.933  -0.062 -0.4708  0.0470 -0.1480
  901MOL0     C18809   8.463   1.847  -0.180 -0.3716  0.4298  0.4285
  901MOL0     C18810   8.369   1.728  -0.179 -0.1905 -0.2555 -1.4304
  901MOL0     C18811   8.415   1.603  -0.258 -0.2467  0.9965 -0.4449
  901MOL0     C18812   8.357   1.469  -0.227  0.3083 -0.1943 -0.8203
  901MOL0     C18813   8.211   1.454  -0.257 -0.4235 -0.4626 -0.0468
  901MOL0     C18814   8.165   1.308  -0.252 -0.5011  0.5744 -0.5125
  901MOL0     C18815   8.200   1.236  -0.122  0.3234 -0.3896 -0.9753
  901MOL0     C18816   8.133   1.099  -0.104 -0.4763  0.4870 -0.4167
  901MOL0     N18817   8.185   1.000  -0.200  0.5818 -0.4631 -0.5934
  901MOL0     C18818   8.144   0.990  -0.331  0.9724  0.4819 -0.0645
  901MOL0     C18819   8.227   0.904  -0.380 -0.5891  1.3085  0.2456
  901MOL0     C18820   8.211   0.835  -0.511 -1.2067  0.3564  0.3317
  901MOL0     C18821   8.174   0.942  -0.623 -0.9621  0.1944  0.4453
  901MOL0     C18822   8.294   1.037  -0.639 -0.8887  0.3269 -0.5556
  901MOL0     C18823   8.285   1.102  -0.781 -0.1955  0.7600 -0.1148
  901MOL0     O18824   8.184   1.198  -0.779  0.9412 -0.0707 -0.5525
  901MOL0     C18825   8.217   1.323  -0.729  0.3642 -0.2986 -0.0276
  901MOL0     C18826   8.346   1.361  -0.682  1.1523  0.0323 -0.1998
  901MOL0     C18827   8.376   1.487  -0.631  0.3047  0.4245  0.4793
  901MOL0     C18828   8.274   1.582  -0.623 -0.1541 -0.8162 -0.1906
  901MOL0     C18829   8.317   1.727  -0.585  0.1811  0.0300  0.5356
  901MOL0     O18830   8.213   1.805  -0.542 -0.4409 -0.1839  0.5288
  901MOL0     C18831   8.248   1.925  -0.489 -0.3150  0.8142 -1.0116
  901MOL0     C18832   8.341   2.012  -0.545 -0.2180 -0.8611 -0.2137
  901MOL0     C18833   8.367   2.136  -0.494  0.6052  0.1550 -0.0336
  901MOL0     C18834   8.301   2.179  -0.374 -0.0683  0.4576  0.3044
  901MOL0     O18835   8.339   2.291  -0.312 -0.6978  0.0527 -0.2801
  901MOL0     C18836   8.247   2.368  -0.236  0.2009 -0.4436 -0.0130
  901MOL0     C18837   8.309   2.508  -0.227  0.1384 -0.8126  0.4995
  901MOL0     C18838   8.416   2.499  -0.116 -0.7443  0.4936  0.2534
  901MOL0     C18839   8.483   2.632  -0.081  0.3362  0.7867  0.4623
  901MOL0     C18840   8.554   2.637   0.056 -0.2092  0.2507 -0.6420
  901MOL0     C18841   8.593   2.773   0.108 -0.0114 -0.3636 -0.6512
  901MOL0     C18842   8.728   2.815   0.048 -0.7903  0.3519 -0.5444
  901MOL0     C18843   8.793   2.940   0.108 -0.4268 -0.6545 -0.1430
  901MOL0    Cl18844   8.962   2.947   0.100 -0.4282  0.3461  0.0367
  901MOL0     C18845   8.216   2.095  -0.311 -0.5715  0.0073  0.0584
  901MOL0     C18846   8.177   1.970  -0.372  0.5698 -1.1340 -0.2887
  901MOL0     O18847   8.440   1.758  -0.581  0.6270  0.2432 -0.6185
  901MOL0     C18848   8.147   1.546  -0.661 -0.3891 -0.3420 -0.1172
  901MOL0     C18849   8.111   1.423  -0.717 -0.9241  0.0091 -0.5134
  901MOL0     N18850   8.330   0.876  -0.293 -0.1918  0.6127 -0.8535
  901MOL0     N18851   8.308   0.951  -0.191  0.1304  0.9303  1.5554
  901MOL0     C18852   8.514   2.153  -0.024  0.2266 -0.3699  0.5754
  901MOL0     C18853   8.604   2.244   0.034 -0.0505 -0.6573 -0.0570
  901MOL0     C18854   8.975   2.421   0.261 -0.3495  0.9960  1.0694
  901MOL0     C18855   9.107   2.409   0.309  0.0396 -1.0534 -0.4130
  901MOL0     C18856   9.175   2.526   0.356 -0.4118 -0.0299  0.2441
  901MOL0     C18857   9.116   2.649   0.326 -0.0341 -0.6570 -0.6741
  901MOL0     O18858   9.196   2.752   0.368 -0.4810 -0.0854  0.2571
  901MOL0     C18859   9.250   2.832   0.262  1.9256 -0.2171 -0.0873
  901MOL0     C18860   9.226   2.978   0.313 -0.0345 -0.0823 -0.1358
  901MOL0     C18861   9.357   3.032   0.385  0.1581  0.4093  0.5650
  901MOL0     C18862   9.348   3.163   0.469  0.5867  1.3954 -0.1282
  901MOL0     C18863   9.324   3.276   0.382 -0.2472 -0.8657 -0.5815
  901MOL0     C18864   9.317   3.368   0.305 -0.1905  0.2085 -0.6306
  901MOL0     C18865   8.992   2.664   0.272 -0.3463  1.0767  0.0618
  901MOL0     C18866   8.922   2.545   0.237  0.4291  0.0892 -0.2642
  901MOL0     H18867   8.860   2.013   0.069  0.3021 -0.3251 -0.1364
  901MOL0     H18868   8.692   1.871   0.013 -2.1065 -0.7196  1.4886
  901MOL0     H18869   8.564   1.804  -0.186 -1.3795 -2.2979  1.4004
  901MOL0     H18870   8.442   1.883  -0.281 -0.6090  0.7466  0.5928
  901MOL0     H18871   8.271   1.759  -0.217 -0.3627  0.4113 -0.4737
  901MOL0     H18872   8.350   1.718  -0.072 -2.8591  2.3709 -1.5015
  901MOL0     H18873   8.521   1.590  -0.233  0.1133  1.0098 -1.8877
  901MOL0     H18874   8.410   1.614  -0.367 -1.3035 -3.7364 -1.0964
  901MOL0     H18875   8.412   1.385  -0.271  1.8049 -0.6975  1.7740
  901MOL0     H18876   8.362   1.475  -0.118  0.2980  0.4988 -0.8529
  901MOL0     H18877   8.199   1.486  -0.361  1.8751 -2.4626 -0.9952
  901MOL0     H18878   8.154   1.516  -0.187  0.5085  1.3512 -0.8304
  901MOL0     H18879   8.207   1.257  -0.339 -0.3684  0.0831 -0.1656
  901MOL0     H18880   8.056   1.305  -0.261 -0.3420 -0.8132 -2.7960
  901MOL0     H18881   8.309   1.233  -0.113  0.2498 -0.1441  0.0909
  901MOL0     H18882   8.173   1.301  -0.039  2.8110 -0.0288 -0.3922
  901MOL0     H18883   8.025   1.115  -0.106 -0.8694 -1.1744  2.4554
  901MOL0     H18884   8.166   1.066  -0.005  0.0512 -0.3499 -0.8576
  901MOL0     H18885   8.045   1.024  -0.359  0.8346 -1.7720 -2.7428
  901MOL0     H18886   8.142   0.751  -0.512  1.7996 -2.3395 -1.4559
  901MOL0     H18887   8.306   0.787  -0.537 -3.1358 -2.4569 -2.3231
  901MOL0     H18888   8.086   0.995  -0.587 -1.7720  1.0206 -2.5200
  901MOL0     H18889   8.149   0.894  -0.718  2.3886 -1.8726  0.4138
  901MOL0     H18890   8.271   1.120  -0.571  2.5022  0.2121  0.9726
  901MOL0     H18891   8.389   0.987  -0.615 -2.7481 -3.5868 -0.5955
  901MOL0     H18892   8.261   1.025  -0.854  0.5519 -1.2239  1.6250
  901MOL0     H18893   8.387   1.130  -0.809  0.3140 -1.3757 -0.5158
  901MOL0     H18894   8.422   1.283  -0.677 -0.5191 -1.8496 -2.1608
  901MOL0     H18895   8.474   1.507  -0.589 -1.2317 -0.4293  4.9562
  901MOL0     H18896   8.401   1.982  -0.630 -0.0858 -3.4417  0.6910
  901MOL0     H18897   8.435   2.199  -0.550 -0.0423 -0.5930 -1.7165
  901MOL0     H18898   8.230   2.318  -0.140 -1.3496  1.8891  0.9938
  901MOL0     H18899   8.153   2.377  -0.290  0.7503 -1.6240 -1.2495
  901MOL0     H18900   8.230   2.569  -0.183  1.6628 -0.3730  2.8129
  901MOL0     H18901   8.358   2.539  -0.320  0.5558  0.2134  1.0444
  901MOL0     H18902   8.493   2.426  -0.139  1.3191  2.8351 -0.7594
  901MOL0     H18903   8.371   2.464  -0.023 -1.2696  1.8432  0.5393
  901MOL0     H18904   8.559   2.652  -0.157 -0.2623 -1.7981 -0.9497
  901MOL0     H18905   8.407   2.710  -0.091  1.3829  1.9288  1.1150
  901MOL0     H18906   8.645   2.576   0.057  0.1923  0.8374  0.0844
  901MOL0     H18907   8.487   2.589   0.127 -0.1132  0.5083 -0.3767
  901MOL0     H18908   8.599   2.766   0.217 -0.2423 -1.2915 -0.6902
  901MOL0     H18909   8.513   2.842   0.078 -0.2627  1.1889  3.0203
  901MOL0     H18910   8.793   2.730   0.071 -1.3954  0.3224  1.2060
  901MOL0     H18911   8.710   2.829  -0.059 -0.9272 -0.2838 -0.6131
  901MOL0     H18912   8.767   2.949   0.214 -0.2673  0.1426 -0.1682
  901MOL0     H18913   8.752   3.029   0.059  0.2345  1.9020  3.5396
  901MOL0     H18914   8.168   2.127  -0.219 -2.2219  2.4120 -1.5394
  901MOL0     H18915   8.091   1.913  -0.339 -0.5344  1.6809  2.0928
  901MOL0     H18916   8.071   1.624  -0.660 -1.1925 -1.0992  0.4355
  901MOL0     H18917   8.015   1.412  -0.766 -0.8743  1.8408 -1.1103
  901MOL0     H18918   8.424   2.202  -0.060  1.3916 -0.4719 -2.7425
  901MOL0     H18919   8.577   2.348   0.051  1.8212 -0.2957  0.8854
  901MOL0     H18920   9.145   2.310   0.330  1.0644 -1.5599 -3.9920
  901MOL0     H18921   9.259   2.508   0.422 -2.8105 -0.9625  3.2517
  901MOL0     H18922   9.197   2.828   0.167 -1.9074  1.7106  1.7404
  901MOL0     H18923   9.356   2.815   0.237  1.9156  2.0290 -1.8889
  901MOL0     H18924   9.208   3.042   0.226  2.4037  1.7060  0.5817
  901MOL0     H18925   9.131   2.983   0.367 -1.3337 -2.3721 -2.0158
  901MOL0     H18926   9.436   3.057   0.314  1.0764  0.6947  1.6499
  901MOL0     H18927   9.383   2.945   0.446  2.8080 -2.1386 -3.6991
  901MOL0     H18928   9.280   3.158   0.554  1.9425  1.1447  0.9843
  901MOL0     H18929   9.439   3.177   0.527 -0.2029 -2.1604  2.2793
  901MOL0     H18930   9.312   3.454   0.242 -2.2167  1.0469  0.5780
  901MOL0     H18931   8.939   2.757   0.256 -2.2592  0.1484  0.6032
  901MOL0     H18932   8.827   2.568   0.191 -0.7178  0.2352  2.0288
  902MOL0     O18933   2.114   2.645   9.014 -0.3703 -0.2313  0.0584
  902MOL0     C18934   2.193   2.689   8.930  0.4205 -0.8168  1.2134
  902MOL0     O18935   2.213   2.639   8.810 -0.0199  0.3077 -0.0812
  902MOL0     C18936   2.188   2.513   8.768  1.1354  0.0914 -0.4897
  902MOL0     C18937   2.237   2.399   8.845  0.0136  0.3705  0.5179
  902MOL0     C18938   2.203   2.265   8.811 -0.6224 -0.7705  0.1094
  902MOL0     C18939   2.114   2.247   8.703  0.6398  0.4747  1.1134
  902MOL0     O18940   2.089   2.117   8.671 -0.2521 -0.8603  0.2170
  902MOL0     C18941   2.061   2.072   8.538 -0.2516  0.8051  0.3301
  902MOL0     C18942   2.004   1.936   8.547 -0.7967 -0.2995 -0.5798
  902MOL0     C18943   1.965   1.895   8.412 -1.3119 -0.0083  0.5958
  902MOL0     C18944   1.885   1.765   8.429 -0.7128  0.8866  1.2481
  902MOL0     C18945   1.881   1.681   8.299  0.0001 -1.0791  0.4937
  902MOL0     C18946   1.769   1.572   8.314 -0.0713 -0.8215  0.4549
  902MOL0     C18947   1.781   1.445   8.228 -0.1330 -0.0203 -0.0173
  902MOL0     C18948   1.656   1.356   8.250  0.4384 -0.2018  0.5179
  902MOL0     N18949   1.639   1.251   8.150  0.5598 -0.2181  0.5952
  902MOL0     C18950   1.704   1.137   8.157  0.6587 -0.0323 -0.9250
  902MOL0     C18951   1.666   1.060   8.055  0.2429  0.9017  0.4564
  902MOL0     C18952   1.711   0.927   8.017 -1.3678 -0.1544 -0.2664
  902MOL0     C18953   1.659   0.800   8.099  0.4614 -0.5821 -0.6099
  902MOL0     C18954   1.511   0.775   8.084  0.4650 -0.4704  0.2757
  902MOL0     C18955   1.466   0.665   8.176 -0.1066  0.3505  0.0973
  902MOL0     O18956   1.539   0.541   8.148 -0.0514 -0.1230  0.7540
  902MOL0     C18957   1.464   0.424   8.145 -0.2828 -0.8877 -0.6390
  902MOL0     C18958   1.366   0.394   8.238 -0.1037  0.2954 -0.0686
  902MOL0     C18959   1.273   0.290   8.204 -0.4806  0.0137 -1.3419
  902MOL0     C18960   1.297   0.203   8.096  1.3473  0.0079 -0.7985
  902MOL0     C18961   1.203   0.095   8.072  0.1672 -0.1783 -0.0212
  902MOL0     O18962   1.136   0.051   8.188 -0.0290 -0.3983  0.6440
  902MOL0     C18963   1.045  -0.050   8.169  0.6148  0.4221 -0.0346
  902MOL0     C18964   1.046  -0.157   8.255 -0.3778  0.0466  0.0569
  902MOL0     C18965   0.955  -0.261   8.237  0.3750  0.1859 -0.1808
  902MOL0     C18966   0.858  -0.263   8.127 -0.7897 -0.6321 -0.4022
  902MOL0     O18967   0.779  -0.365   8.098 -0.4618 -0.1806  0.3879
  902MOL0     C18968   0.844  -0.486   8.052 -0.4891 -0.7321  0.4836
  902MOL0     C18969   0.869  -0.474   7.904  1.4159 -0.0780 -0.2949
  902MOL0     C18970   0.933  -0.602   7.861 -0.1955 -0.0868 -0.0890
  902MOL0     C18971   1.009  -0.596   7.722 -0.0164 -0.5739 -0.8088
  902MOL0     C18972   1.108  -0.480   7.693  0.9945  0.2309 -0.3776
  902MOL0     C18973   1.207  -0.460   7.809  0.7232 -0.2512 -0.0735
  902MOL0     C18974   1.322  -0.364   7.766  0.5480  0.3319 -0.7727
  902MOL0     C18975   1.262  -0.218   7.740 -0.3638  0.0767 -0.2420
  902MOL0    Cl18976   1.396  -0.128   7.660 -0.0083 -0.0366 -0.2991
  902MOL0     C18977   0.859  -0.158   8.032  0.6838 -1.1817  0.4119
  902MOL0     C18978   0.948  -0.055   8.059 -0.4098  0.6658  0.4391
  902MOL0     O18979   1.210   0.032   7.969  0.0222  0.1467  0.3695
  902MOL0     C18980   1.401   0.227   8.006 -0.6084 -0.8756  0.6946
  902MOL0     C18981   1.484   0.340   8.029 -0.2747 -0.1012 -0.4492
  902MOL0     N18982   1.567   1.125   7.994  0.0266  0.6306 -0.2975
  902MOL0     N18983   1.546   1.240   8.045 -0.0418 -0.0148  1.1409
  902MOL0     C18984   2.074   2.356   8.623 -0.0756  1.2749 -0.1074
  902MOL0     C18985   2.111   2.488   8.649  1.3142  0.1919 -0.4473
  902MOL0     C18986   2.298   2.786   8.968 -1.2589  0.6223  0.4644
  902MOL0     C18987   2.278   2.877   9.074  0.0179 -0.1513 -0.8975
  902MOL0     C18988   2.396   2.953   9.121 -0.2742  0.5941  0.7241
  902MOL0     C18989   2.519   2.944   9.058 -0.7060  0.2830 -0.8111
  902MOL0     O18990   2.638   3.003   9.115 -0.2121  0.0344 -0.5372
  902MOL0     C18991   2.639   2.993   9.265 -0.9173 -0.9158  0.0314
  902MOL0     C18992   2.682   2.857   9.316  0.0864 -0.0865 -0.1904
  902MOL0     C18993   2.829   2.826   9.271  0.6286  0.5302  0.6143
  902MOL0     C18994   2.870   2.703   9.350 -0.6335  0.0581  0.7181
  902MOL0     C18995   2.887   2.741   9.493 -0.3607 -0.6635 -1.0305
  902MOL0     C18996   2.909   2.766   9.607 -0.5384  0.4344  0.8828
  902MOL0     C18997   2.537   2.866   8.942 -0.2152 -0.7477 -1.2132
  902MOL0     C18998   2.428   2.781   8.915 -1.0063  0.3697  0.4783
  902MOL0     H18999   2.280   2.433   8.939 -0.5144 -0.5500  1.1122
  902MOL0     H19000   2.232   2.195   8.889 -1.1001  1.4392  2.3753
  902MOL0     H19001   2.149   2.084   8.474 -1.5890 -1.7639 -2.2421
  902MOL0     H19002   1.992   2.139   8.487  1.9360  3.6731  0.8403
  902MOL0     H19003   1.909   1.941   8.601 -0.5683  0.9279 -0.2513
  902MOL0     H19004   2.080   1.874   8.596 -1.5328 -0.4745  0.3671
  902MOL0     H19005   2.065   1.875   8.371 -0.6762 -0.1233  2.1230
  902MOL0     H19006   1.921   1.979   8.358  2.9564  2.2921  0.2296
  902MOL0     H19007   1.931   1.713   8.514  4.6996  4.8634  1.2932
  902MOL0     H19008   1.782   1.792   8.452 -1.0788  1.0764 -0.5137
  902MOL0     H19009   1.978   1.645   8.265 -0.8440 -4.2975  1.1695
  902MOL0     H19010   1.859   1.739   8.209  1.5246  1.8645  1.8886
  902MOL0     H19011   1.674   1.615   8.280 -1.4441 -1.9448  2.6232
  902MOL0     H19012   1.757   1.541   8.418  1.0658  0.7240  1.0788
  902MOL0     H19013   1.784   1.473   8.122 -1.0102 -1.2586 -0.3978
  902MOL0     H19014   1.875   1.402   8.265  0.7468  1.6687 -0.1867
  902MOL0     H19015   1.565   1.416   8.239 -0.0266 -1.2878 -2.4581
  902MOL0     H19016   1.654   1.313   8.351 -3.0452 -0.7882  0.3356
  902MOL0     H19017   1.779   1.109   8.229  0.8786 -0.4305 -1.3034
  902MOL0     H19018   1.820   0.934   8.011 -1.4805  1.3566 -1.2615
  902MOL0     H19019   1.681   0.901   7.915  0.7705  2.7424 -1.7838
  902MOL0     H19020   1.664   0.813   8.208 -2.7976  2.2312 -0.6095
  902MOL0     H19021   1.720   0.712   8.080  3.2007  1.1840 -0.5911
  902MOL0     H19022   1.459   0.868   8.110  2.6557  0.0123  3.6066
  902MOL0     H19023   1.495   0.756   7.978  0.5443  4.0920 -0.7500
  902MOL0     H19024   1.364   0.652   8.137  0.3873  1.8930 -1.8999
  902MOL0     H19025   1.470   0.695   8.281 -1.4334  2.1455 -0.3277
  902MOL0     H19026   1.351   0.444   8.334  0.9590  1.1035 -0.3079
  902MOL0     H19027   1.193   0.286   8.278 -0.4337  2.2889 -1.1109
  902MOL0     H19028   1.102  -0.145   8.348 -1.2558  4.2668  0.2216
  902MOL0     H19029   0.978  -0.350   8.295  3.2568  1.0624  0.1476
  902MOL0     H19030   0.782  -0.575   8.066  2.3998 -3.3671 -2.0305
  902MOL0     H19031   0.933  -0.511   8.109 -0.6327 -2.4198  0.0021
  902MOL0     H19032   0.917  -0.378   7.884  0.9022  0.2963  0.2349
  902MOL0     H19033   0.773  -0.473   7.851  1.3767  1.6840 -0.2261
  902MOL0     H19034   0.868  -0.690   7.861  0.4964 -0.6105 -0.1309
  902MOL0     H19035   1.006  -0.620   7.940 -1.5566  1.6303  1.6356
  902MOL0     H19036   1.074  -0.684   7.716  5.9940  2.7806  3.7776
  902MOL0     H19037   0.939  -0.620   7.641  2.1832 -0.5838 -2.8119
  902MOL0     H19038   1.041  -0.393   7.693 -0.2158 -0.6107  2.0913
  902MOL0     H19039   1.151  -0.506   7.596 -1.3037  2.5530 -2.1836
  902MOL0     H19040   1.248  -0.559   7.828  3.4389  0.4012 -1.9661
  902MOL0     H19041   1.167  -0.427   7.906  4.6237 -3.5999  3.0400
  902MOL0     H19042   1.395  -0.351   7.847 -1.4255 -0.9182  1.3316
  902MOL0     H19043   1.368  -0.404   7.675  1.9232 -0.8562  0.3881
  902MOL0     H19044   1.234  -0.165   7.831 -1.0585 -1.1027  0.2448
  902MOL0     H19045   1.176  -0.224   7.672 -1.4287 -5.3172  1.1353
  902MOL0     H19046   0.786  -0.162   7.952 -0.8844 -1.9111  1.8172
  902MOL0     H19047   0.940   0.021   7.983  0.6814 -3.4104 -4.2769
  902MOL0     H19048   1.418   0.155   7.926 -2.8783  0.1518 -0.8269
  902MOL0     H19049   1.552   0.376   7.953 -0.8558  1.9089 -0.0753
  902MOL0     H19050   2.018   2.337   8.532 -0.1214 -2.7164  0.5713
  902MOL0     H19051   2.072   2.571   8.592 -0.4273  0.1142  0.5391
  902MOL0     H19052   2.184   2.873   9.127 -0.5968  2.1750 -1.6887
  902MOL0     H19053   2.390   3.036   9.191 -0.2655  2.8209 -1.7381
  902MOL0     H19054   2.547   3.022   9.317 -0.3166 -0.7150  1.0042
  902MOL0     H19055   2.714   3.066   9.298 -0.0554 -1.2290 -1.1594
  902MOL0     H19056   2.686   2.856   9.425 -2.5485  1.2493  0.0019
  902MOL0     H19057   2.606   2.785   9.284  1.5630 -3.0749  2.5280
  902MOL0     H19058   2.886   2.915   9.300  2.6631 -0.9905  1.5125
  902MOL0     H19059   2.834   2.808   9.164 -2.6914 -1.2414  0.6139
  902MOL0     H19060   2.788   2.632   9.336  0.3163 -1.5222  2.6454
  902MOL0     H19061   2.962   2.667   9.304 -1.9793 -1.4089 -0.9205
  902MOL0     H19062   2.941   2.793   9.706  2.3750  2.0580 -0.3834
  902MOL0     H19063   2.635   2.849   8.900 -0.6806 -3.2000 -1.4410
  902MOL0     H19064   2.459   2.706   8.842  2.3788  2.1370 -0.0894
  903MOL0     O19065  10.276   5.741  11.315 -0.3602 -0.3141  0.8605
  903MOL0     C19066  10.206   5.723  11.413 -0.1833  0.6257  1.5626
  903MOL0     O19067  10.238   5.640  11.514  0.6552 -0.0298  0.5383
  903MOL0     C19068  10.366   5.587  11.515  0.5217 -0.5967  0.2004
  903MOL0     C19069  10.404   5.493  11.419 -0.0631  0.1836 -0.1591
  903MOL0     C19070  10.530   5.431  11.427 -0.2382  0.4391 -0.4908
  903MOL0     C19071  10.610   5.460  11.534  0.2072 -0.4067  0.2889
  903MOL0     O19072  10.736   5.407  11.542  1.4406  0.2502 -0.1552
  903MOL0     C19073  10.770   5.295  11.458 -0.1724  0.2927 -0.4208
  903MOL0     C19074  10.709   5.159  11.502 -0.2803  0.9570 -0.5143
  903MOL0     C19075  10.754   5.058  11.397  0.2514  0.1029 -0.1643
  903MOL0     C19076  10.695   4.926  11.434 -0.1347  1.2190  1.1176
  903MOL0     C19077  10.752   4.826  11.332  0.6883 -0.1586 -0.1231
  903MOL0     C19078  10.721   4.688  11.397  0.5256  0.1604  0.1160
  903MOL0     C19079  10.781   4.569  11.327 -1.2763 -0.0881  0.0785
  903MOL0     C19080  10.719   4.545  11.178 -0.6129 -0.3519 -0.1247
  903MOL0     N19081  10.576   4.509  11.184 -0.6808  0.2475  0.1760
  903MOL0     C19082  10.529   4.399  11.248  0.4134  0.5444 -0.1004
  903MOL0     C19083  10.394   4.419  11.252  0.2864 -0.4326 -0.2425
  903MOL0     C19084  10.283   4.344  11.308 -0.0967 -0.2847  0.5714
  903MOL0     C19085  10.163   4.306  11.213 -0.7916  0.1132 -0.1241
  903MOL0     C19086  10.028   4.343  11.269  0.3310  0.3251  0.5882
  903MOL0     C19087   9.979   4.248  11.372  0.2268 -0.4352  0.1812
  903MOL0     O19088   9.923   4.125  11.309 -0.0164  0.3924  0.7388
  903MOL0     C19089   9.897   4.033  11.398 -0.5519  0.5676 -0.0518
  903MOL0     C19090   9.848   3.932  11.317 -0.5934 -0.6245  0.0895
  903MOL0     C19091   9.805   3.813  11.375  0.0957 -0.5722  0.1560
  903MOL0     C19092   9.811   3.796  11.515  1.5783 -0.3610 -0.3744
  903MOL0     C19093   9.781   3.669  11.585  0.4599  0.2422 -0.3967
  903MOL0     O19094   9.837   3.639  11.704 -0.0282  0.0122  0.2180
  903MOL0     C19095   9.824   3.526  11.766 -0.0100  1.4751  0.2510
  903MOL0     C19096   9.941   3.469  11.825  0.3472 -0.0449  0.0040
  903MOL0     C19097   9.949   3.340  11.874 -0.3482 -0.4305  0.0033
  903MOL0     C19098   9.841   3.256  11.858 -0.1706 -0.2501 -0.4276
  903MOL0     O19099   9.842   3.124  11.893 -0.5501 -0.0677  0.2129
  903MOL0     C19100   9.928   3.076  11.997 -0.4042  0.3206 -1.1873
  903MOL0     C19101   9.841   2.991  12.090 -0.1322 -0.8326 -0.3385
  903MOL0     C19102   9.847   2.838  12.060  0.4809  0.6208 -0.4922
  903MOL0     C19103   9.736   2.774  12.151  0.0139 -0.0043  0.8259
  903MOL0     C19104   9.586   2.800  12.094  0.1983  0.1532  0.1225
  903MOL0     C19105   9.487   2.697  12.133 -0.2144 -0.3699 -0.4207
  903MOL0     C19106   9.454   2.695  12.288 -0.3764 -0.0747 -0.0289
  903MOL0     C19107   9.359   2.580  12.321  0.1489 -0.3823  0.1425
  903MOL0    Cl19108   9.294   2.586  12.484  0.2220  0.4490  1.0056
  903MOL0     C19109   9.723   3.302  11.797 -0.2918 -0.0038 -0.1837
  903MOL0     C19110   9.712   3.441  11.755  0.9074  0.6329  0.1274
  903MOL0     O19111   9.726   3.588  11.512  0.7348 -0.7029  0.4737
  903MOL0     C19112   9.865   3.902  11.595  0.3713 -0.2232 -0.0037
  903MOL0     C19113   9.910   4.025  11.533 -0.6799  0.5431 -0.7417
  903MOL0     N19114  10.358   4.533  11.176  0.1003 -0.5697  1.3957
  903MOL0     N19115  10.475   4.595  11.152 -0.3818  0.0628  0.4111
  903MOL0     C19116  10.561   5.543  11.637 -0.5602  0.2681  0.2741
  903MOL0     C19117  10.439   5.614  11.628  0.3928 -0.6322  1.2677
  903MOL0     C19118  10.075   5.781  11.405  0.5656  0.2945  0.8094
  903MOL0     C19119   9.985   5.749  11.501 -0.1042  0.2294 -0.6526
  903MOL0     C19120   9.860   5.805  11.512 -0.1448 -0.3759  0.3054
  903MOL0     C19121   9.819   5.902  11.420  0.1071 -1.2270  0.8844
  903MOL0     O19122   9.697   5.964  11.413  0.4714 -1.4945  0.8798
  903MOL0     C19123   9.596   5.921  11.496 -0.2322  0.1917 -0.7781
  903MOL0     C19124   9.468   5.997  11.459  0.2569 -0.1895  0.0781
  903MOL0     C19125   9.387   5.973  11.329 -0.3633  0.5622 -0.2863
  903MOL0     C19126   9.473   5.990  11.201  0.2762 -0.3741  0.0114
  903MOL0     C19127   9.551   6.109  11.181 -0.4121  0.3392  1.2877
  903MOL0     C19128   9.611   6.212  11.152 -0.0978  0.4213 -0.3605
  903MOL0     C19129   9.908   5.940  11.315  0.3947  1.0475 -0.1172
  903MOL0     C19130  10.034   5.876  11.312  0.4076  0.2713  0.6079
  903MOL0     H19131  10.335   5.467  11.339 -1.9352  1.1385  1.0738
  903MOL0     H19132  10.553   5.357  11.351 -1.0028 -1.7041  1.2781
  903MOL0     H19133  10.879   5.291  11.450 -0.3231 -1.6303 -2.2367
  903MOL0     H19134  10.748   5.327  11.356  0.6187  0.0550 -0.6754
  903MOL0     H19135  10.600   5.154  11.512 -0.0664 -1.9943  1.7141
  903MOL0     H19136  10.750   5.134  11.600 -0.3794 -1.9037 -1.0981
  903MOL0     H19137  10.863   5.061  11.388  0.2388  2.5614 -0.2430
  903MOL0     H19138  10.703   5.093  11.306  2.7887 -1.0518 -2.1515
  903MOL0     H19139  10.728   4.901  11.535  1.4781  1.4182  0.6780
  903MOL0     H19140  10.587   4.930  11.420 -0.1746 -0.9482  0.4819
  903MOL0     H19141  10.861   4.837  11.331  0.7877 -0.5238  1.9912
  903MOL0     H19142  10.715   4.853  11.233  0.2427  0.3512  0.1739
  903MOL0     H19143  10.611   4.684  11.396  0.4793  1.0809 -1.5250
  903MOL0     H19144  10.753   4.696  11.501 -0.6189 -0.2817  0.5277
  903MOL0     H19145  10.888   4.591  11.324 -1.0703 -0.8456  1.1086
  903MOL0     H19146  10.772   4.481  11.392 -0.0392  1.1620  2.0267
  903MOL0     H19147  10.776   4.470  11.122 -0.0821 -0.5236  0.6282
  903MOL0     H19148  10.738   4.631  11.113 -1.4332 -1.0466 -1.3159
  903MOL0     H19149  10.586   4.322  11.300 -0.3190 -0.0649 -0.1807
  903MOL0     H19150  10.246   4.410  11.388  0.5203  1.0961 -0.2509
  903MOL0     H19151  10.325   4.254  11.354  0.4335 -1.5520 -2.2138
  903MOL0     H19152  10.170   4.201  11.184 -0.0952  0.8861 -3.0975
  903MOL0     H19153  10.169   4.361  11.118 -1.5681 -1.3275 -1.0424
  903MOL0     H19154  10.027   4.447  11.303  2.8986  0.4499  0.4650
  903MOL0     H19155   9.960   4.334  11.184 -0.2491 -0.7401  1.1512
  903MOL0     H19156   9.897   4.298  11.424  0.0812 -3.5165  3.2214
  903MOL0     H19157  10.057   4.225  11.446 -0.9337 -2.2030  0.9080
  903MOL0     H19158   9.833   3.931  11.210  0.0740  0.8150 -0.0411
  903MOL0     H19159   9.761   3.738  11.309  3.8496 -1.7570 -1.2804
  903MOL0     H19160  10.025   3.538  11.821 -1.8439  2.7738 -2.3704
  903MOL0     H19161  10.043   3.313  11.922 -1.0960 -1.1431  1.1140
  903MOL0     H19162   9.980   3.151  12.057 -1.1752  0.9940 -1.3374
  903MOL0     H19163  10.006   3.004  11.971  1.3745  2.0243 -0.8361
  903MOL0     H19164   9.740   3.026  12.068  0.8249  0.0541 -3.9967
  903MOL0     H19165   9.872   3.004  12.194  1.9759 -2.1102 -0.7545
  903MOL0     H19166   9.944   2.794  12.086  0.2051  1.8217  3.2160
  903MOL0     H19167   9.824   2.824  11.954  1.3372 -1.0713 -0.4853
  903MOL0     H19168   9.760   2.672  12.119 -1.9954  0.0668 -1.1492
  903MOL0     H19169   9.747   2.795  12.257 -2.8129 -0.5411  1.3060
  903MOL0     H19170   9.596   2.809  11.985 -1.1855  0.6632  0.0220
  903MOL0     H19171   9.551   2.890  12.144 -0.2347  1.6016 -2.5845
  903MOL0     H19172   9.528   2.600  12.103  1.0806  0.5010 -1.5870
  903MOL0     H19173   9.401   2.714  12.068  0.0817  1.3502 -0.4082
  903MOL0     H19174   9.548   2.674  12.342 -0.5748 -3.1624 -0.6651
  903MOL0     H19175   9.419   2.796  12.306  3.4117  1.2682  0.8270
  903MOL0     H19176   9.392   2.479  12.296  0.9032 -0.2126  0.4415
  903MOL0     H19177   9.273   2.581  12.253 -1.1141 -1.9161  1.6093
  903MOL0     H19178   9.649   3.229  11.767 -0.5723  0.9451 -1.9564
  903MOL0     H19179   9.611   3.464  11.721  0.8528  0.7107  0.3416
  903MOL0     H19180   9.869   3.905  11.704 -3.4612 -1.0357  0.3140
  903MOL0     H19181   9.958   4.095  11.600  2.1300 -2.0279  0.1499
  903MOL0     H19182  10.625   5.533  11.724 -1.7340  2.2303  1.4386
  903MOL0     H19183  10.408   5.692  11.697 -3.1913  2.5815 -3.3192
  903MOL0     H19184  10.015   5.671  11.571 -1.4125 -0.0054 -0.3345
  903MOL0     H19185   9.794   5.766  11.590  0.3477 -0.4261  0.7050
  903MOL0     H19186   9.625   5.935  11.601  1.1506  2.0067 -1.3611
  903MOL0     H19187   9.567   5.819  11.468 -1.8296 -0.4149  2.5210
  903MOL0     H19188   9.387   5.986  11.531  1.1793  2.1293  1.6186
  903MOL0     H19189   9.506   6.100  11.465  0.5047 -0.2364 -0.5537
  903MOL0     H19190   9.315   6.055  11.328  0.7137  1.5206 -0.7447
  903MOL0     H19191   9.341   5.874  11.341 -1.2039  0.9434 -0.2777
  903MOL0     H19192   9.547   5.909  11.197  0.0345 -0.5563 -2.6345
  903MOL0     H19193   9.408   5.976  11.114 -2.2890  1.0340  1.6009
  903MOL0     H19194   9.649   6.308  11.124 -2.2617  1.2182 -0.7560
  903MOL0     H19195   9.881   6.009  11.236  5.5789  1.8928 -1.5780
  903MOL0     H19196  10.102   5.901  11.231 -0.5183 -0.8768 -0.5815
  904MOL0     O19197   3.393   0.182   4.343  0.5642  0.4090 -0.3251
  904MOL0     C19198   3.284   0.170   4.394  0.2645 -0.5107 -0.8372
  904MOL0     O19199   3.158   0.173   4.333  0.3084  0.0518 -0.0705
  904MOL0     C19200   3.146   0.172   4.199 -0.6696  0.5265  0.0188
  904MOL0     C19201   3.208   0.076   4.116 -0.2382 -0.2937  0.5950
  904MOL0     C19202   3.187   0.080   3.971 -0.5940 -0.8686 -0.0673
  904MOL0     C19203   3.091   0.172   3.921 -0.2265  0.0002  0.4292
  904MOL0     O19204   3.066   0.197   3.780 -0.1186  0.2695 -0.9231
  904MOL0     C19205   3.178   0.193   3.690 -0.3513 -0.3424  0.3631
  904MOL0     C19206   3.290   0.292   3.732 -0.8056 -0.4760  0.2451
  904MOL0     C19207   3.382   0.319   3.609 -0.0907  0.4733  0.5315
  904MOL0     C19208   3.497   0.417   3.640 -0.4987  0.0984 -0.1120
  904MOL0     C19209   3.597   0.402   3.524 -0.5025 -0.3424  1.0304
  904MOL0     C19210   3.644   0.543   3.485  0.8081  0.0116 -0.4296
  904MOL0     C19211   3.766   0.559   3.387  0.4789  0.3103  0.5498
  904MOL0     C19212   3.714   0.540   3.242 -0.2171  0.6427 -1.0291
  904MOL0     N19213   3.833   0.550   3.155  0.1369  0.4617 -0.7661
  904MOL0     C19214   3.878   0.670   3.111  1.0662 -0.1890  0.5448
  904MOL0     C19215   3.996   0.649   3.054  1.4529  0.0598  0.6862
  904MOL0     C19216   4.085   0.749   2.979 -0.2971 -1.1614  0.1164
  904MOL0     C19217   4.045   0.746   2.826 -0.2487  0.4912 -0.2564
  904MOL0     C19218   4.077   0.870   2.750 -0.0581  0.0672 -0.2326
  904MOL0     C19219   4.222   0.919   2.759  0.0212  0.6485  0.0776
  904MOL0     O19220   4.314   0.811   2.724  0.1994 -0.3301  0.4156
  904MOL0     C19221   4.430   0.803   2.796  0.5304  0.3163 -0.1321
  904MOL0     C19222   4.496   0.904   2.851 -0.1257 -0.2100 -0.2020
  904MOL0     C19223   4.600   0.891   2.943  0.1157 -0.1543  0.1228
  904MOL0     C19224   4.652   0.762   2.972  0.1922 -0.2805 -0.1580
  904MOL0     C19225   4.760   0.735   3.072  0.3808  0.1758  0.7289
  904MOL0     O19226   4.771   0.623   3.141  1.4500  0.3233 -0.0041
  904MOL0     C19227   4.798   0.634   3.277 -0.0815  0.1724 -0.3028
  904MOL0     C19228   4.749   0.738   3.364 -0.3414 -0.4352  0.9706
  904MOL0     C19229   4.763   0.728   3.501  0.1891  0.1127 -1.2486
  904MOL0     C19230   4.821   0.616   3.561 -0.6677  0.2421  0.5478
  904MOL0     O19231   4.844   0.625   3.691 -0.5065 -0.8107  0.7821
  904MOL0     C19232   4.987   0.617   3.723  0.2606  0.3671  0.4278
  904MOL0     C19233   5.059   0.743   3.700  0.1660 -0.6851  0.6771
  904MOL0     C19234   5.115   0.783   3.558  0.2644  0.4262 -0.5067
  904MOL0     C19235   5.234   0.697   3.509  0.5397 -1.1018  0.0450
  904MOL0     C19236   5.362   0.733   3.578  0.0309  0.6804 -0.3731
  904MOL0     C19237   5.424   0.865   3.558  0.4402 -1.0915  0.1446
  904MOL0     C19238   5.569   0.890   3.609  0.5377  0.0408 -0.3644
  904MOL0     C19239   5.662   0.946   3.497  0.5690  0.4772  0.3943
  904MOL0    Cl19240   5.843   0.933   3.516  0.1944  0.4061  0.0767
  904MOL0     C19241   4.851   0.508   3.483  0.3599 -0.5199 -0.4147
  904MOL0     C19242   4.840   0.523   3.342 -0.5829  0.0729  0.4879
  904MOL0     O19243   4.828   0.834   3.094 -0.0513  0.6509  0.5571
  904MOL0     C19244   4.597   0.656   2.898 -0.1463 -0.7898  0.0530
  904MOL0     C19245   4.487   0.679   2.815  0.5960 -0.2139  0.7002
  904MOL0     N19246   4.009   0.510   3.047  0.0404 -0.0795  0.8573
  904MOL0     N19247   3.918   0.447   3.109 -0.0931  0.0987  0.1779
  904MOL0     C19248   3.028   0.251   4.006 -0.0141 -0.1240  0.1989
  904MOL0     C19249   3.072   0.267   4.132  0.3620 -0.0219 -0.8148
  904MOL0     C19250   3.275   0.140   4.540 -0.2114 -0.3620  0.3488
  904MOL0     C19251   3.382   0.136   4.621  0.4257 -0.0270  0.6567
  904MOL0     C19252   3.371   0.113   4.761  0.4382  0.3949  0.2874
  904MOL0     C19253   3.253   0.082   4.821  0.0217  1.5117 -0.9579
  904MOL0     O19254   3.260   0.065   4.959 -0.3080  0.4726 -0.1137
  904MOL0     C19255   3.135   0.089   5.021  0.5925 -0.2801 -0.2038
  904MOL0     C19256   3.162   0.140   5.168  0.1654 -0.2493 -0.3062
  904MOL0     C19257   3.133   0.298   5.176  0.0380  0.0735 -0.0610
  904MOL0     C19258   3.123   0.351   5.311 -0.2646 -0.5061 -0.0752
  904MOL0     C19259   3.014   0.295   5.388 -0.6654 -0.3437  0.4644
  904MOL0     C19260   2.928   0.251   5.460  0.3121 -0.0653  0.4937
  904MOL0     C19261   3.136   0.093   4.740 -0.0864  0.9010 -0.2068
  904MOL0     C19262   3.149   0.131   4.603 -0.7523  1.5230  0.4347
  904MOL0     H19263   3.268  -0.006   4.153 -0.1038  0.2713  1.6695
  904MOL0     H19264   3.241   0.021   3.897 -1.5465 -1.5764 -0.2143
  904MOL0     H19265   3.153   0.225   3.588 -0.5478 -1.6657 -0.0194
  904MOL0     H19266   3.215   0.091   3.678  0.1176 -0.3185  1.4869
  904MOL0     H19267   3.341   0.255   3.822 -4.1207 -0.1096  2.4626
  904MOL0     H19268   3.249   0.389   3.762 -1.6328  0.6298 -3.8168
  904MOL0     H19269   3.330   0.351   3.518  2.9517 -0.3219 -1.6245
  904MOL0     H19270   3.424   0.221   3.584  1.0298  0.9257  0.6233
  904MOL0     H19271   3.462   0.521   3.648 -0.8404 -0.0730  0.8083
  904MOL0     H19272   3.541   0.389   3.737 -2.3470  0.8150  0.9831
  904MOL0     H19273   3.554   0.351   3.438  1.2325  1.7080 -1.1717
  904MOL0     H19274   3.687   0.352   3.562 -2.8169 -3.3166  3.2278
  904MOL0     H19275   3.673   0.587   3.581  0.6159  1.6558 -1.0938
  904MOL0     H19276   3.569   0.609   3.440  2.0099  2.8540  1.4780
  904MOL0     H19277   3.820   0.654   3.390  0.2342  0.6499 -2.4691
  904MOL0     H19278   3.848   0.489   3.407 -1.1942 -1.5309  1.2891
  904MOL0     H19279   3.636   0.614   3.227 -1.8222 -1.0710 -1.5457
  904MOL0     H19280   3.672   0.439   3.234 -1.7634  1.2808 -1.1407
  904MOL0     H19281   3.839   0.770   3.122  0.2178 -0.0922 -2.4010
  904MOL0     H19282   4.188   0.712   2.974  1.0863  2.4303 -2.1729
  904MOL0     H19283   4.068   0.849   3.019 -0.1146 -1.4214  0.8659
  904MOL0     H19284   3.937   0.732   2.815 -0.0014  0.0890 -2.6023
  904MOL0     H19285   4.084   0.651   2.790  0.0114  0.6023 -0.2703
  904MOL0     H19286   4.034   0.856   2.651 -0.9211 -0.5205  0.2130
  904MOL0     H19287   4.022   0.955   2.793 -2.8140 -1.9877  0.5912
  904MOL0     H19288   4.242   0.950   2.862  3.3396 -0.0359 -0.2442
  904MOL0     H19289   4.244   1.002   2.691 -0.8804  0.2135 -0.7660
  904MOL0     H19290   4.463   1.001   2.816  0.1858 -0.9048 -2.6742
  904MOL0     H19291   4.642   0.985   2.975  0.3821  1.3692 -4.1209
  904MOL0     H19292   4.708   0.828   3.320  0.8833  0.1862  1.0540
  904MOL0     H19293   4.734   0.818   3.554  2.1413  0.2246 -0.2998
  904MOL0     H19294   5.029   0.538   3.659 -0.2055  0.6047 -0.1790
  904MOL0     H19295   4.995   0.574   3.824  2.7945 -4.2139 -1.3793
  904MOL0     H19296   5.147   0.725   3.763  0.2197 -0.4217  0.6758
  904MOL0     H19297   5.005   0.825   3.749  1.7479 -0.1574  1.6248
  904MOL0     H19298   5.156   0.884   3.562 -0.0511  0.5292  1.8800
  904MOL0     H19299   5.030   0.793   3.490 -2.0080  0.6008  2.1557
  904MOL0     H19300   5.210   0.591   3.524 -1.1852 -1.3647 -3.5578
  904MOL0     H19301   5.235   0.704   3.400 -5.4073  0.8694 -0.2277
  904MOL0     H19302   5.438   0.662   3.544  1.8577  1.5137  1.7397
  904MOL0     H19303   5.351   0.703   3.683 -0.8103 -0.0705 -0.6557
  904MOL0     H19304   5.352   0.933   3.605 -0.2182 -1.9176  0.3665
  904MOL0     H19305   5.417   0.887   3.451 -2.2021 -0.3955  0.3842
  904MOL0     H19306   5.574   0.961   3.692 -2.7920  0.5023 -0.4367
  904MOL0     H19307   5.608   0.794   3.645 -0.2043 -0.8614 -1.8569
  904MOL0     H19308   5.636   1.052   3.487 -2.7846 -0.4500 -3.1308
  904MOL0     H19309   5.627   0.893   3.408 -0.6573  0.5914  0.7843
  904MOL0     H19310   4.894   0.422   3.534 -2.0524 -2.0262 -0.7950
  904MOL0     H19311   4.868   0.440   3.278 -0.7224  1.5972 -1.6647
  904MOL0     H19312   4.649   0.563   2.917  3.5275  1.0530 -0.1533
  904MOL0     H19313   4.448   0.596   2.756 -1.5987  1.9038 -1.0222
  904MOL0     H19314   2.959   0.319   3.957  3.3473  2.4879 -1.3379
  904MOL0     H19315   3.039   0.352   4.190 -2.2872 -0.6628 -1.2362
  904MOL0     H19316   3.480   0.144   4.574 -0.3036  0.8452 -0.7768
  904MOL0     H19317   3.457   0.109   4.828  1.0512  4.0139 -0.0798
  904MOL0     H19318   3.075  -0.003   5.020 -0.1835  0.1920  0.7855
  904MOL0     H19319   3.069   0.165   4.977  1.7292  1.0220  0.3055
  904MOL0     H19320   3.090   0.095   5.236 -0.6678  1.0117 -0.3196
  904MOL0     H19321   3.261   0.110   5.204 -0.4074 -0.6310  1.0120
  904MOL0     H19322   3.041   0.319   5.120 -0.1782 -0.8090 -0.0420
  904MOL0     H19323   3.221   0.344   5.130  1.6732 -1.7816  1.0638
  904MOL0     H19324   3.217   0.326   5.362 -0.8389  0.9291  1.7907
  904MOL0     H19325   3.127   0.460   5.314  0.5660 -0.4743 -1.3535
  904MOL0     H19326   2.856   0.209   5.528  1.0473 -0.0350  1.3083
  904MOL0     H19327   3.036   0.082   4.782  1.2853 -0.2316  3.1061
  904MOL0     H19328   3.066   0.138   4.533 -1.4435 -0.4776  1.0025
  905MOL0     O19329   3.718   3.430   8.637 -0.1624  0.3311  0.5660
  905MOL0     C19330   3.711   3.309   8.626 -0.2024  1.3581 -0.2884
  905MOL0     O19331   3.728   3.219   8.731 -0.4480  0.0145 -0.2754
  905MOL0     C19332   3.778   3.270   8.848 -0.1610  0.7611 -1.2609
  905MOL0     C19333   3.714   3.254   8.971 -0.5438  0.6633  1.3350
  905MOL0     C19334   3.773   3.303   9.086 -1.0953 -0.2098 -0.4465
  905MOL0     C19335   3.903   3.364   9.080  0.4939 -0.6968 -0.0065
  905MOL0     O19336   3.973   3.416   9.185  0.3406  0.0642  0.2567
  905MOL0     C19337   3.919   3.407   9.321  0.6504 -0.0859  0.3088
  905MOL0     C19338   4.037   3.392   9.420  0.9670  0.7590 -0.0379
  905MOL0     C19339   4.124   3.261   9.415  0.1964 -1.3609 -0.1362
  905MOL0     C19340   4.238   3.276   9.524 -0.3173  0.5801 -0.2704
  905MOL0     C19341   4.322   3.142   9.529  0.3356  0.7856  0.2017
  905MOL0     C19342   4.449   3.147   9.614  0.1895 -0.9013  0.1026
  905MOL0     C19343   4.537   3.021   9.621  0.7220 -0.0258  0.1836
  905MOL0     C19344   4.482   2.904   9.697  0.7050  1.0444 -0.4896
  905MOL0     N19345   4.513   2.919   9.838 -0.1566 -0.2953 -0.0682
  905MOL0     C19346   4.635   2.896   9.882  0.3965 -0.0850 -0.3356
  905MOL0     C19347   4.635   2.912  10.017  0.0780 -0.0965 -1.1982
  905MOL0     C19348   4.761   2.906  10.094 -0.8549 -0.4300 -0.7143
  905MOL0     C19349   4.753   2.807  10.209  0.0961  0.8353  0.0995
  905MOL0     C19350   4.760   2.661  10.160  0.4760  1.1181 -0.0070
  905MOL0     C19351   4.701   2.557  10.268 -0.4372 -0.2407  0.5630
  905MOL0     O19352   4.778   2.581  10.387 -0.0428  0.1309 -0.1240
  905MOL0     C19353   4.843   2.475  10.443 -0.5840  0.5045  0.0882
  905MOL0     C19354   4.771   2.365  10.476 -0.4110 -0.1554 -0.0290
  905MOL0     C19355   4.825   2.256  10.532  0.2470 -0.0343  0.0302
  905MOL0     C19356   4.961   2.261  10.571 -0.1970 -0.2350 -0.3653
  905MOL0     C19357   5.017   2.143  10.650  0.6457  0.4272  1.0374
  905MOL0     O19358   5.137   2.169  10.704 -0.0397 -0.2591 -0.2937
  905MOL0     C19359   5.220   2.072  10.743 -0.9453  0.5144 -0.1312
  905MOL0     C19360   5.236   1.938  10.702 -0.6572 -0.1715 -0.5749
  905MOL0     C19361   5.343   1.858  10.746  0.0294 -0.0293 -0.6864
  905MOL0     C19362   5.434   1.907  10.840  0.5787 -0.3528  0.0056
  905MOL0     O19363   5.543   1.821  10.865 -0.2356  0.1116 -0.0307
  905MOL0     C19364   5.629   1.852  10.978  0.6051  0.0612  0.1444
  905MOL0     C19365   5.724   1.740  11.015 -0.4111  0.2479  0.3641
  905MOL0     C19366   5.673   1.625  11.099  0.0187  0.4066  0.4679
  905MOL0     C19367   5.785   1.525  11.134 -0.3270 -0.1954 -1.3174
  905MOL0     C19368   5.871   1.470  11.009  0.3880 -0.3335 -0.1547
  905MOL0     C19369   5.949   1.339  11.044  0.2024  0.4782 -0.2196
  905MOL0     C19370   5.998   1.251  10.923  0.4202 -0.3422 -0.0391
  905MOL0     C19371   5.883   1.204  10.830  0.1484 -0.8742  0.3452
  905MOL0    Cl19372   5.842   1.323  10.697 -0.3178  0.3760 -0.3504
  905MOL0     C19373   5.424   2.039  10.884  0.2523 -0.3153 -0.8912
  905MOL0     C19374   5.329   2.124  10.828  0.0645  0.3204  0.4962
  905MOL0     O19375   4.941   2.044  10.662  0.1145  0.1820 -0.2216
  905MOL0     C19376   5.035   2.374  10.550 -0.1597  0.7927  0.6353
  905MOL0     C19377   4.977   2.486  10.486  0.6498  0.9466  0.2278
  905MOL0     N19378   4.500   2.940  10.055  0.7377  0.1791 -1.0918
  905MOL0     N19379   4.431   2.955   9.941 -0.2388  0.6254 -0.0767
  905MOL0     C19380   3.973   3.377   8.959 -0.6195  0.0934 -0.4356
  905MOL0     C19381   3.910   3.336   8.839  0.0337  0.4800 -0.8106
  905MOL0     C19382   3.691   3.244   8.498  0.2753 -1.7320  0.5832
  905MOL0     C19383   3.661   3.323   8.382 -0.9059  0.5491  0.1842
  905MOL0     C19384   3.652   3.253   8.260  0.3129  0.2337 -0.2240
  905MOL0     C19385   3.658   3.112   8.251 -0.0792 -0.2643  0.7898
  905MOL0     O19386   3.629   3.066   8.119 -0.5940 -0.2157  0.2062
  905MOL0     C19387   3.622   2.926   8.088  0.0439  0.0440  0.2508
  905MOL0     C19388   3.586   2.912   7.942 -0.5601  0.0256 -0.6285
  905MOL0     C19389   3.431   2.929   7.913 -0.2098  0.8841  0.2315
  905MOL0     C19390   3.380   3.074   7.928 -0.2733  0.2129  0.2146
  905MOL0     C19391   3.231   3.063   7.914 -0.2305  0.6967  0.6923
  905MOL0     C19392   3.112   3.031   7.913  0.5659 -0.2248  1.2080
  905MOL0     C19393   3.676   3.039   8.366 -0.6068 -0.7561  0.1811
  905MOL0     C19394   3.699   3.107   8.484 -0.1795  0.8851 -0.1309
  905MOL0     H19395   3.618   3.204   8.961  0.5180 -1.2793  0.2237
  905MOL0     H19396   3.717   3.291   9.178 -2.3503 -1.4688 -1.3322
  905MOL0     H19397   3.846   3.326   9.334 -0.2850  0.8228  0.8784
  905MOL0     H19398   3.865   3.499   9.344  0.7885 -0.6995  3.5657
  905MOL0     H19399   3.985   3.398   9.516 -0.0495  1.2221 -0.5990
  905MOL0     H19400   4.098   3.483   9.416  3.3796 -0.6569  1.4666
  905MOL0     H19401   4.161   3.241   9.314 -1.0188 -1.5417 -0.5667
  905MOL0     H19402   4.069   3.173   9.448  2.5357 -4.0851 -2.8745
  905MOL0     H19403   4.290   3.366   9.489 -1.3710  1.3218  0.0231
  905MOL0     H19404   4.208   3.295   9.628 -0.9736 -0.0712 -0.3373
  905MOL0     H19405   4.350   3.113   9.427  0.8110  0.7508  0.3396
  905MOL0     H19406   4.259   3.057   9.557 -1.0790  1.5900 -0.4580
  905MOL0     H19407   4.416   3.178   9.714  1.1501  0.7012 -0.0486
  905MOL0     H19408   4.513   3.230   9.583 -1.0800  0.6445  1.4324
  905MOL0     H19409   4.535   2.995   9.515 -1.8381  3.2707 -0.7478
  905MOL0     H19410   4.636   3.040   9.662  0.9735 -0.1353 -0.3710
  905MOL0     H19411   4.528   2.812   9.663 -0.9405 -0.4706  1.1125
  905MOL0     H19412   4.378   2.892   9.665  1.1459 -2.1231 -1.0060
  905MOL0     H19413   4.720   2.866   9.821  1.6913 -1.6495  2.0559
  905MOL0     H19414   4.784   2.996  10.152 -3.8885  0.4643 -0.7461
  905MOL0     H19415   4.851   2.888  10.033 -0.6604  0.2750 -0.6523
  905MOL0     H19416   4.670   2.839  10.273  1.0655  2.0056  0.8166
  905MOL0     H19417   4.841   2.834  10.268 -0.1812 -0.5583  1.1809
  905MOL0     H19418   4.710   2.648  10.063 -1.4549 -1.9501  1.2204
  905MOL0     H19419   4.866   2.643  10.142  0.1010  0.4724 -1.8723
  905MOL0     H19420   4.729   2.459  10.229  2.3228  0.0847  1.5152
  905MOL0     H19421   4.592   2.558  10.269 -0.4893  2.3303  0.0897
  905MOL0     H19422   4.665   2.380  10.453  0.1286  2.2734 -1.2984
  905MOL0     H19423   4.758   2.178  10.566  3.1848 -2.3450  0.9467
  905MOL0     H19424   5.154   1.879  10.663  0.7848 -1.4607 -1.8312
  905MOL0     H19425   5.355   1.754  10.717  0.4525 -0.0704 -0.3784
  905MOL0     H19426   5.566   1.870  11.065 -1.5638  0.5841 -1.4409
  905MOL0     H19427   5.694   1.939  10.960  1.7668 -0.6360  0.8701
  905MOL0     H19428   5.807   1.785  11.069  0.3100 -0.6231  0.0187
  905MOL0     H19429   5.770   1.706  10.921 -0.4683  3.4524 -0.9424
  905MOL0     H19430   5.600   1.566  11.043  0.6374 -2.9135  2.8562
  905MOL0     H19431   5.625   1.656  11.192 -0.7718 -1.9535  0.9216
  905MOL0     H19432   5.856   1.573  11.202 -1.7985 -0.6300  0.5995
  905MOL0     H19433   5.745   1.446  11.198 -0.5613  2.3858  1.9960
  905MOL0     H19434   5.952   1.541  10.991  4.0500 -3.8867  0.6945
  905MOL0     H19435   5.801   1.460  10.925  1.7649  0.7352 -1.4808
  905MOL0     H19436   5.894   1.268  11.106 -0.6464  0.1653 -1.3026
  905MOL0     H19437   6.025   1.377  11.113  0.5575  1.5873 -1.1981
  905MOL0     H19438   6.064   1.303  10.853 -2.0442 -0.2262 -2.3878
  905MOL0     H19439   6.051   1.164  10.962  0.5181 -2.3657 -4.1949
  905MOL0     H19440   5.796   1.186  10.892 -1.4612 -0.9208 -1.8097
  905MOL0     H19441   5.902   1.107  10.781 -2.8452 -0.6258 -1.5758
  905MOL0     H19442   5.510   2.087  10.930 -0.7843 -1.8938  3.1289
  905MOL0     H19443   5.329   2.233  10.827 -1.7482  0.3700 -1.0823
  905MOL0     H19444   5.138   2.384  10.583 -0.4499 -0.4208  2.0450
  905MOL0     H19445   5.024   2.581  10.467  4.4244 -0.5200  1.2260
  905MOL0     H19446   4.073   3.418   8.964 -1.9281  3.4869  1.1334
  905MOL0     H19447   3.942   3.346   8.736 -0.8255 -0.6493 -1.2074
  905MOL0     H19448   3.658   3.431   8.378  0.4784  0.6611  1.3267
  905MOL0     H19449   3.635   3.306   8.167  3.0116 -0.5202 -1.2324
  905MOL0     H19450   3.543   2.890   8.154 -2.0181  2.0563 -0.9879
  905MOL0     H19451   3.716   2.871   8.101 -0.2808 -1.7464 -3.6268
  905MOL0     H19452   3.658   2.981   7.897 -0.1950  2.4324  3.1583
  905MOL0     H19453   3.616   2.809   7.921  0.1194 -0.0180  0.4523
  905MOL0     H19454   3.383   2.856   7.978  0.9832 -2.1212 -2.0009
  905MOL0     H19455   3.410   2.897   7.810 -2.8208  2.4198  0.1978
  905MOL0     H19456   3.399   3.116   8.027 -0.0770  2.3057 -0.6571
  905MOL0     H19457   3.429   3.146   7.861  2.4681  0.7049  2.5492
  905MOL0     H19458   3.005   3.025   7.910  0.4831  1.2020 -0.3578
  905MOL0     H19459   3.668   2.932   8.353 -1.4722 -0.7195  0.3830
  905MOL0     H19460   3.735   3.046   8.567  1.0386  2.7503  0.7867
  906MOL0     O19461   6.689   2.470   9.462 -0.0328 -0.2669  0.7366
  906MOL0     C19462   6.773   2.397   9.511  0.0250 -0.1088  0.3323
  906MOL0     O19463   6.900   2.430   9.539 -0.9240  0.5955 -0.4125
  906MOL0     C19464   6.959   2.555   9.517  0.6351  0.7304  0.1036
  906MOL0     C19465   6.952   2.618   9.393  0.3520  0.1652 -1.1452
  906MOL0     C19466   7.026   2.732   9.375  0.4281 -1.4369 -0.3149
  906MOL0     C19467   7.097   2.794   9.475  0.7924  0.1817 -0.2950
  906MOL0     O19468   7.169   2.899   9.424 -0.4727 -0.0046 -0.6099
  906MOL0     C19469   7.296   2.914   9.488  0.5686  0.4658  0.8386
  906MOL0     C19470   7.374   3.030   9.432  1.1656  0.2967  0.9721
  906MOL0     C19471   7.302   3.157   9.479  0.2884 -0.0188  1.3582
  906MOL0     C19472   7.393   3.284   9.471 -0.0468  0.0369 -0.3289
  906MOL0     C19473   7.336   3.416   9.412  1.5917  0.3750 -0.1443
  906MOL0     C19474   7.218   3.459   9.507  0.3100  0.6352 -0.6344
  906MOL0     C19475   7.254   3.597   9.580  0.6160  0.0578 -0.5082
  906MOL0     C19476   7.394   3.613   9.653 -0.1176 -0.4647 -0.5917
  906MOL0     N19477   7.387   3.741   9.719  0.3044 -0.2768 -0.7161
  906MOL0     C19478   7.305   3.776   9.831 -0.0567  0.7316 -0.9780
  906MOL0     C19479   7.308   3.910   9.836  1.2085  0.0718 -1.3768
  906MOL0     C19480   7.241   3.996   9.940  0.0714  0.3496  0.4456
  906MOL0     C19481   7.262   4.148   9.927  0.0866 -0.8903 -0.2869
  906MOL0     C19482   7.167   4.236  10.025 -0.7572 -0.0162  0.3272
  906MOL0     C19483   7.016   4.216   9.990  0.8023 -1.5331  0.2069
  906MOL0     O19484   6.938   4.336  10.020 -1.1282  0.9155  0.7166
  906MOL0     C19485   6.955   4.452   9.945  0.5251  0.4351  0.2810
  906MOL0     C19486   6.851   4.547   9.973  0.5260  0.0237  0.6883
  906MOL0     C19487   6.853   4.675   9.912 -0.4935 -0.3539 -0.3381
  906MOL0     C19488   6.965   4.720   9.840  1.1458 -0.7147  0.3191
  906MOL0     C19489   6.971   4.853   9.775  0.2732  0.1500 -0.0972
  906MOL0     O19490   7.084   4.882   9.697  0.4299  0.1145 -0.3646
  906MOL0     C19491   7.117   5.009   9.659 -0.0143  0.3738 -0.6332
  906MOL0     C19492   7.188   5.020   9.540 -0.4342  0.2714  0.0758
  906MOL0     C19493   7.234   5.142   9.490  0.3757  0.2887  0.1272
  906MOL0     C19494   7.230   5.253   9.571  0.2065 -1.0734  0.2577
  906MOL0     O19495   7.281   5.374   9.528 -0.2476  0.6912 -0.8468
  906MOL0     C19496   7.417   5.380   9.490 -0.1881  0.3303 -0.2778
  906MOL0     C19497   7.425   5.534   9.470  0.4519  0.9111  0.7448
  906MOL0     C19498   7.501   5.586   9.587  0.4326 -0.6558 -0.3567
  906MOL0     C19499   7.519   5.743   9.565 -0.7138  0.0182  0.0837
  906MOL0     C19500   7.636   5.812   9.643 -0.5071  0.3341 -0.1814
  906MOL0     C19501   7.639   5.963   9.616  0.3000  0.7453  0.4920
  906MOL0     C19502   7.751   6.025   9.699  0.8675  0.5056  0.1089
  906MOL0     C19503   7.894   5.985   9.671  0.6865 -0.1809 -0.7316
  906MOL0    Cl19504   8.010   6.089   9.771 -0.2274 -0.4297  0.0246
  906MOL0     C19505   7.168   5.247   9.695 -0.7339  0.9754  0.2848
  906MOL0     C19506   7.105   5.129   9.729 -0.4431 -0.1345 -0.0241
  906MOL0     O19507   6.873   4.925   9.805  0.0768 -1.5771 -0.8494
  906MOL0     C19508   7.063   4.623   9.820 -0.2402  0.3881  0.8010
  906MOL0     C19509   7.056   4.489   9.862 -0.1446  0.8016  0.0357
  906MOL0     N19510   7.386   3.958   9.737 -0.1365 -0.8297 -0.1993
  906MOL0     N19511   7.431   3.863   9.668 -0.0274  0.8179  0.2960
  906MOL0     C19512   7.099   2.732   9.600  0.7738  0.4967 -0.1686
  906MOL0     C19513   7.023   2.615   9.622  0.5805  0.3307 -0.4290
  906MOL0     C19514   6.713   2.281   9.570 -0.4324 -0.1902 -0.1254
  906MOL0     C19515   6.750   2.221   9.702 -0.0711 -0.2565 -0.0619
  906MOL0     C19516   6.674   2.121   9.759 -0.7802 -1.0157 -0.5739
  906MOL0     C19517   6.561   2.076   9.690 -0.2110  0.4307 -0.0829
  906MOL0     O19518   6.476   1.975   9.734  0.5574  0.2884 -1.0070
  906MOL0     C19519   6.509   1.904   9.864 -0.8796 -0.2790 -0.7252
  906MOL0     C19520   6.608   1.794   9.819  0.5282 -0.3103 -0.6963
  906MOL0     C19521   6.679   1.721   9.935 -0.2007  0.2992  0.1069
  906MOL0     C19522   6.786   1.809  10.006 -0.6315  0.2029 -0.5773
  906MOL0     C19523   6.859   1.721  10.093  0.0716 -1.0221 -0.4806
  906MOL0     C19524   6.902   1.648  10.177  1.2510 -0.9611 -0.1282
  906MOL0     C19525   6.530   2.124   9.561  0.0513  0.4998 -0.1726
  906MOL0     C19526   6.603   2.227   9.506  1.0421  0.5109  0.3600
  906MOL0     H19527   6.898   2.571   9.312 -3.2701 -1.3445  1.8834
  906MOL0     H19528   7.026   2.776   9.275  0.2378 -1.4739 -0.3322
  906MOL0     H19529   7.365   2.831   9.469  0.3088  0.5557 -0.6574
  906MOL0     H19530   7.287   2.922   9.597 -0.0309  0.5237  0.7874
  906MOL0     H19531   7.366   3.023   9.323  2.7072  1.1196  0.7858
  906MOL0     H19532   7.481   3.028   9.454  1.3059 -3.4545  0.4479
  906MOL0     H19533   7.266   3.151   9.583 -1.2656  1.0064  0.9028
  906MOL0     H19534   7.211   3.163   9.418 -0.8872  3.7782  3.1694
  906MOL0     H19535   7.437   3.307   9.568 -1.8659  1.0490  0.3068
  906MOL0     H19536   7.472   3.262   9.398 -0.2401  3.3039 -1.6809
  906MOL0     H19537   7.306   3.399   9.308  0.2083 -1.4794  0.5015
  906MOL0     H19538   7.408   3.497   9.402  1.7547  0.2636  0.1214
  906MOL0     H19539   7.195   3.381   9.580 -0.4182  1.8155  0.4394
  906MOL0     H19540   7.127   3.481   9.450  0.0245  0.5721 -0.2012
  906MOL0     H19541   7.253   3.671   9.499  0.2963 -0.0652 -0.6189
  906MOL0     H19542   7.179   3.622   9.655  0.2126 -0.1411 -0.8398
  906MOL0     H19543   7.474   3.617   9.578  1.9929 -0.4978  1.5645
  906MOL0     H19544   7.422   3.544   9.733  0.3363  0.6367  0.2148
  906MOL0     H19545   7.242   3.715   9.896 -1.1548  0.3160 -2.3778
  906MOL0     H19546   7.262   3.962  10.041  1.1574  1.5776  0.6558
  906MOL0     H19547   7.135   3.983   9.915  0.0793  0.6984  0.2227
  906MOL0     H19548   7.246   4.180   9.823 -0.2468 -1.4529 -0.4149
  906MOL0     H19549   7.363   4.175   9.958 -0.4033 -1.1757  1.7030
  906MOL0     H19550   7.185   4.196  10.125 -0.6921 -2.2198 -0.4956
  906MOL0     H19551   7.200   4.340  10.020 -0.8223  0.3143  4.1287
  906MOL0     H19552   6.971   4.133  10.047  3.3800 -1.4096  2.6313
  906MOL0     H19553   7.007   4.183   9.886  0.1219 -1.4954  0.2471
  906MOL0     H19554   6.759   4.519  10.022 -0.6854  4.0867  1.0689
  906MOL0     H19555   6.770   4.743   9.928  1.3324  1.4492  2.7333
  906MOL0     H19556   7.221   4.926   9.496  0.2771  0.7264 -0.3821
  906MOL0     H19557   7.288   5.139   9.395 -0.5293 -0.8806 -0.3745
  906MOL0     H19558   7.428   5.322   9.398  0.8234  4.6948 -3.1559
  906MOL0     H19559   7.496   5.357   9.563  1.5106  0.7555 -1.9236
  906MOL0     H19560   7.325   5.575   9.456 -0.3023 -0.7941  0.8798
  906MOL0     H19561   7.487   5.564   9.385 -1.7377 -0.5373 -1.5129
  906MOL0     H19562   7.605   5.553   9.601  0.9003  0.3693 -1.2599
  906MOL0     H19563   7.459   5.571   9.687  4.1291 -0.4001  1.4044
  906MOL0     H19564   7.539   5.762   9.459  0.6219 -2.5408 -0.2116
  906MOL0     H19565   7.427   5.795   9.593 -1.9289 -2.8412  1.8401
  906MOL0     H19566   7.729   5.763   9.611  0.8839  3.1191 -0.6934
  906MOL0     H19567   7.621   5.801   9.751 -3.5769 -1.0699 -0.6616
  906MOL0     H19568   7.544   6.009   9.644  0.1965  2.0011 -1.6918
  906MOL0     H19569   7.653   5.985   9.510  0.2026  0.6928  0.4682
  906MOL0     H19570   7.745   6.131   9.672  1.9761  0.0633 -2.0399
  906MOL0     H19571   7.718   6.008   9.802  2.8066  4.8764  1.7078
  906MOL0     H19572   7.919   5.985   9.565  0.7893 -1.1451 -0.7165
  906MOL0     H19573   7.918   5.882   9.700 -2.4715 -0.3661  1.8358
  906MOL0     H19574   7.171   5.338   9.753  0.4258 -1.0159  3.6233
  906MOL0     H19575   7.073   5.117   9.832  2.7720 -2.0790  0.9108
  906MOL0     H19576   7.149   4.648   9.758 -1.2073  0.4334 -0.5410
  906MOL0     H19577   7.138   4.421   9.839 -1.8245 -0.5530 -2.5212
  906MOL0     H19578   7.147   2.777   9.686 -0.3545  4.5008 -1.4063
  906MOL0     H19579   7.029   2.565   9.718 -0.0816 -3.1524 -2.0700
  906MOL0     H19580   6.836   2.252   9.760 -0.9235  1.1304  0.5098
  906MOL0     H19581   6.711   2.085   9.854  0.0601  1.4099  0.0794
  906MOL0     H19582   6.414   1.863   9.901 -1.9752  3.1200  0.6277
  906MOL0     H19583   6.536   1.977   9.940 -2.0458 -0.1414 -0.4256
  906MOL0     H19584   6.546   1.717   9.773  0.1472 -0.2108 -0.3555
  906MOL0     H19585   6.680   1.840   9.749  0.2554  4.3456  1.6612
  906MOL0     H19586   6.727   1.632   9.892 -0.8668  0.7600 -1.6473
  906MOL0     H19587   6.600   1.693  10.006 -1.0083 -0.2218 -0.9653
  906MOL0     H19588   6.839   1.868   9.930 -1.8096  2.0685 -0.0170
  906MOL0     H19589   6.720   1.879  10.057 -2.6882 -1.5947 -0.6219
  906MOL0     H19590   6.965   1.586  10.238  0.0677 -0.2753  1.9010
  906MOL0     H19591   6.449   2.091   9.497  0.6248 -1.7459  0.1742
  906MOL0     H19592   6.569   2.271   9.413  0.2050  2.6535  1.6215
  907MOL0     O19593   1.281   0.384  10.559 -0.5902  0.4858  1.1771
  907MOL0     C19594   1.214   0.280  10.539 -0.2753 -0.3723 -0.9013
  907MOL0     O19595   1.095   0.271  10.464  0.0418  0.1701 -0.3652
  907MOL0     C19596   1.074   0.357  10.355 -0.5239 -0.2366  0.8934
  907MOL0     C19597   1.175   0.412  10.276  0.5981 -0.4055  0.4112
  907MOL0     C19598   1.139   0.482  10.167 -0.0088 -0.3431 -0.8255
  907MOL0     C19599   1.006   0.511  10.134  0.7146 -0.2882  0.4784
  907MOL0     O19600   0.987   0.582  10.014 -0.2779  0.6731  0.3873
  907MOL0     C19601   0.857   0.569   9.957  0.5957 -0.6085 -0.9258
  907MOL0     C19602   0.862   0.629   9.809 -0.3682  1.0132  0.1433
  907MOL0     C19603   0.938   0.764   9.786 -0.8358 -0.5018  0.9248
  907MOL0     C19604   0.848   0.890   9.805  1.0666  0.4521 -0.0712
  907MOL0     C19605   0.918   1.020   9.765  0.8933  0.3815  0.7967
  907MOL0     C19606   0.851   1.156   9.786  0.0042 -0.1176 -0.2382
  907MOL0     C19607   0.771   1.216   9.661 -0.3985  0.4864  0.0296
  907MOL0     C19608   0.698   1.343   9.694 -1.4658 -0.3726  0.1051
  907MOL0     N19609   0.784   1.463   9.725 -0.2684  0.1303 -0.7891
  907MOL0     C19610   0.768   1.597   9.667 -0.5200  1.2278  0.5635
  907MOL0     C19611   0.869   1.671   9.717  0.6424  0.1682 -0.2154
  907MOL0     C19612   0.882   1.819   9.712  0.4202 -0.0193 -0.2766
  907MOL0     C19613   0.891   1.853   9.569  0.3439 -0.1072  0.7416
  907MOL0     C19614   1.039   1.849   9.518 -0.1991  0.9629 -0.7372
  907MOL0     C19615   1.130   1.721   9.529  0.2913 -0.0021 -0.5435
  907MOL0     O19616   1.066   1.625   9.447  0.2904  0.2939  0.0836
  907MOL0     C19617   1.117   1.496   9.457 -0.1285  0.0568  0.8062
  907MOL0     C19618   1.187   1.432   9.562  0.3341 -0.8382  0.6054
  907MOL0     C19619   1.215   1.299   9.578  0.0276 -0.7357 -0.0415
  907MOL0     C19620   1.181   1.228   9.464 -0.9596 -0.3762  0.5770
  907MOL0     C19621   1.217   1.086   9.456 -0.8569  0.1629  0.3189
  907MOL0     O19622   1.309   1.042   9.547 -0.5919  0.4842 -0.3560
  907MOL0     C19623   1.323   0.907   9.570 -0.1538  0.2901 -0.3288
  907MOL0     C19624   1.313   0.873   9.702  0.2396 -0.1672  0.0061
  907MOL0     C19625   1.329   0.740   9.734 -0.2413  0.5484 -0.2606
  907MOL0     C19626   1.355   0.641   9.637  0.2533  0.0347  0.0170
  907MOL0     O19627   1.364   0.504   9.665 -0.0833 -1.0559  0.4426
  907MOL0     C19628   1.355   0.466   9.800  0.1371  0.3107 -0.3072
  907MOL0     C19629   1.210   0.422   9.819 -0.1110 -0.0331  0.2016
  907MOL0     C19630   1.171   0.285   9.774  0.4180 -0.2499 -0.1393
  907MOL0     C19631   1.025   0.266   9.751 -0.4527  0.5423 -0.7204
  907MOL0     C19632   0.992   0.134   9.675 -0.6529 -0.0474  0.3414
  907MOL0     C19633   1.007   0.014   9.770  0.6512  0.0544 -0.0002
  907MOL0     C19634   0.984  -0.130   9.717 -0.0799 -0.1911  0.0147
  907MOL0     C19635   0.983  -0.238   9.823 -0.0596  0.4383  0.5771
  907MOL0    Cl19636   0.985  -0.408   9.768  0.1218  0.4646  0.0286
  907MOL0     C19637   1.390   0.678   9.510 -0.6603 -0.2366 -0.9883
  907MOL0     C19638   1.372   0.814   9.481  0.1203 -0.3410  0.3906
  907MOL0     O19639   1.166   1.018   9.369 -0.6751 -0.6093 -0.0199
  907MOL0     C19640   1.119   1.291   9.347  1.2839  0.7929 -0.1690
  907MOL0     C19641   1.079   1.424   9.350 -0.7519 -0.1878 -0.6042
  907MOL0     N19642   0.934   1.597   9.812  0.6939  0.6958  0.3062
  907MOL0     N19643   0.886   1.476   9.812  0.2267 -0.1081  0.0810
  907MOL0     C19644   0.903   0.464  10.223  0.0900 -0.2814  0.4267
  907MOL0     C19645   0.935   0.388  10.334 -1.7329  1.0562  0.0006
  907MOL0     C19646   1.256   0.155  10.589 -0.5542 -0.7966 -1.7523
  907MOL0     C19647   1.187   0.032  10.549 -0.2516 -0.0109  0.5144
  907MOL0     C19648   1.243  -0.092  10.593  0.4391  0.7021  0.6030
  907MOL0     C19649   1.373  -0.090  10.659 -0.1571 -0.0976 -0.9643
  907MOL0     O19650   1.447  -0.211  10.681  0.4461  0.0246 -0.2115
  907MOL0     C19651   1.550  -0.219  10.779  0.4328 -0.5652 -0.1732
  907MOL0     C19652   1.605  -0.368  10.799 -0.1592 -1.6225  0.0371
  907MOL0     C19653   1.721  -0.409  10.696  0.8547 -0.6516  1.1420
  907MOL0     C19654   1.764  -0.551  10.727 -0.1975 -0.8053 -0.3443
  907MOL0     C19655   1.672  -0.663  10.715 -0.0615  0.1443 -0.5511
  907MOL0     C19656   1.574  -0.737  10.721 -0.8803 -0.6896  0.0010
  907MOL0     C19657   1.443   0.030  10.701 -0.7055  0.8012  0.2036
  907MOL0     C19658   1.381   0.145  10.654 -0.4741 -0.3715  0.6449
  907MOL0     H19659   1.278   0.394  10.302  0.3677 -1.2595  0.7741
  907MOL0     H19660   1.207   0.539  10.105 -0.6664  2.3428  0.7915
  907MOL0     H19661   0.777   0.621  10.011 -1.2262 -1.0586 -3.0603
  907MOL0     H19662   0.815   0.469   9.967 -0.4872 -0.1201 -0.3567
  907MOL0     H19663   0.759   0.633   9.772 -1.5867 -2.0875  2.7868
  907MOL0     H19664   0.917   0.551   9.755 -1.2728 -0.9704  1.9545
  907MOL0     H19665   0.982   0.756   9.686 -0.8956 -1.0697  0.9388
  907MOL0     H19666   1.019   0.780   9.859 -0.5181 -0.9214  0.6671
  907MOL0     H19667   0.762   0.867   9.742  1.5361  2.4088 -1.5107
  907MOL0     H19668   0.815   0.896   9.909 -0.5838 -0.4023 -0.5093
  907MOL0     H19669   0.950   0.997   9.663 -2.2898 -0.6542 -0.0846
  907MOL0     H19670   1.014   1.028   9.817  1.8885  1.4067 -1.0685
  907MOL0     H19671   0.934   1.225   9.801 -2.1786  2.9594 -1.2196
  907MOL0     H19672   0.790   1.153   9.877 -0.6354 -0.0445 -0.6525
  907MOL0     H19673   0.829   1.225   9.569  1.8376 -0.9861  1.2197
  907MOL0     H19674   0.690   1.143   9.651  0.5131 -0.7800  1.3571
  907MOL0     H19675   0.625   1.325   9.774  0.9272 -2.0888  2.0782
  907MOL0     H19676   0.631   1.365   9.611 -0.6569 -0.7282 -0.6636
  907MOL0     H19677   0.684   1.629   9.606 -1.3498  3.2934  2.6761
  907MOL0     H19678   0.973   1.854   9.763 -0.8664  1.2604  1.2379
  907MOL0     H19679   0.796   1.862   9.764  0.7612 -0.6223  0.8078
  907MOL0     H19680   0.851   1.952   9.547  0.1605 -0.9898 -3.8960
  907MOL0     H19681   0.822   1.787   9.516  3.4631 -2.1230 -1.1602
  907MOL0     H19682   1.030   1.861   9.409 -1.1088 -2.5089 -1.1628
  907MOL0     H19683   1.095   1.935   9.557  3.0405 -2.1078  2.0891
  907MOL0     H19684   1.116   1.692   9.634  0.6166  1.5155 -0.0557
  907MOL0     H19685   1.236   1.722   9.501  0.1431 -0.2763 -1.1391
  907MOL0     H19686   1.188   1.496   9.650  0.3565  1.8338 -1.2200
  907MOL0     H19687   1.239   1.258   9.675 -0.5004  1.0411  0.8974
  907MOL0     H19688   1.297   0.951   9.776  3.6601  0.2997  0.4230
  907MOL0     H19689   1.310   0.719   9.838 -0.4718  0.2449 -0.3644
  907MOL0     H19690   1.398   0.537   9.871  1.0639 -2.7805  2.5140
  907MOL0     H19691   1.414   0.377   9.824 -1.2045 -0.0802  1.8310
  907MOL0     H19692   1.146   0.497   9.773 -2.0711  0.0783  2.8730
  907MOL0     H19693   1.181   0.426   9.925  3.4675  1.7735  1.2829
  907MOL0     H19694   1.196   0.212   9.852 -0.2241  0.8076  1.0765
  907MOL0     H19695   1.224   0.249   9.686  0.2429  1.0188 -0.7834
  907MOL0     H19696   0.978   0.259   9.849 -1.1786  4.0670 -0.6794
  907MOL0     H19697   0.977   0.346   9.694 -0.8034  0.3744 -0.6603
  907MOL0     H19698   1.049   0.123   9.582 -1.2964 -0.0413 -0.0531
  907MOL0     H19699   0.889   0.138   9.639 -0.9437  0.2383  1.1737
  907MOL0     H19700   0.922   0.025   9.838  2.5979  2.5826  2.2270
  907MOL0     H19701   1.098   0.004   9.829 -0.2672 -0.5472  1.3511
  907MOL0     H19702   0.890  -0.143   9.663  0.1344  1.9822 -0.9786
  907MOL0     H19703   1.068  -0.144   9.648  1.6619  1.7413  1.6175
  907MOL0     H19704   0.886  -0.238   9.872  0.4067 -1.6376  1.6050
  907MOL0     H19705   1.058  -0.204   9.895 -1.5624  0.8617  2.0018
  907MOL0     H19706   1.405   0.600   9.436  0.3460 -0.1290 -0.9044
  907MOL0     H19707   1.396   0.843   9.379  0.3065 -1.4810  0.0931
  907MOL0     H19708   1.099   1.221   9.266 -2.6145 -0.1030  1.3512
  907MOL0     H19709   1.032   1.477   9.268  2.1693  3.1982 -0.3486
  907MOL0     H19710   0.798   0.476  10.198 -0.4915  0.0983  2.8242
  907MOL0     H19711   0.869   0.340  10.405 -0.7939 -0.8725 -0.3542
  907MOL0     H19712   1.098   0.031  10.487  0.6035 -0.7735 -0.7390
  907MOL0     H19713   1.190  -0.185  10.575  0.1263  0.5320  2.2721
  907MOL0     H19714   1.516  -0.181  10.876  0.2051  4.1585 -1.8359
  907MOL0     H19715   1.630  -0.153  10.743  0.6996  0.4140  1.9913
  907MOL0     H19716   1.634  -0.376  10.904 -0.1765 -1.1796  0.0784
  907MOL0     H19717   1.519  -0.435  10.798  0.0082 -1.8333 -0.5045
  907MOL0     H19718   1.799  -0.332  10.703 -1.5978  2.1032  0.1075
  907MOL0     H19719   1.666  -0.411  10.602 -2.5416  1.4370  2.8899
  907MOL0     H19720   1.848  -0.583  10.664  0.6597  1.0265 -0.2166
  907MOL0     H19721   1.800  -0.552  10.830  1.9890  3.1759 -0.8318
  907MOL0     H19722   1.489  -0.800  10.738  0.7263 -3.1092 -0.4663
  907MOL0     H19723   1.540   0.045  10.748  1.6167 -0.8277 -3.6494
  907MOL0     H19724   1.415   0.240  10.692 -1.3644  0.6156 -0.9063
  908MOL0     O19725   2.744   5.807   3.035 -0.2804  0.5735 -0.4194
  908MOL0     C19726   2.771   5.712   2.959 -0.0202 -0.6276  0.5545
  908MOL0     O19727   2.820   5.595   3.005 -0.8237 -0.8860 -0.1667
  908MOL0     C19728   2.784   5.546   3.131 -1.6869 -0.0956 -0.4032
  908MOL0     C19729   2.671   5.480   3.146 -0.4416  0.1622 -0.4849
  908MOL0     C19730   2.632   5.442   3.281  0.3220 -0.6607 -0.0021
  908MOL0     C19731   2.710   5.479   3.395  0.2713  0.5509  0.4941
  908MOL0     O19732   2.692   5.432   3.515  0.5446  0.4292  0.9056
  908MOL0     C19733   2.692   5.289   3.530 -0.5680  0.1246 -0.4496
  908MOL0     C19734   2.759   5.243   3.665 -0.1446  0.6216 -0.3965
  908MOL0     C19735   2.696   5.122   3.737 -0.1591  0.3999  0.2931
  908MOL0     C19736   2.724   4.991   3.649 -0.4686 -0.5084  0.3766
  908MOL0     C19737   2.622   4.883   3.685  0.4500 -0.7859  0.0998
  908MOL0     C19738   2.664   4.742   3.631  0.4771  0.4040 -0.4102
  908MOL0     C19739   2.559   4.636   3.657  0.6770  0.3362  0.0738
  908MOL0     C19740   2.596   4.490   3.601 -0.0571 -0.2411 -0.8181
  908MOL0     N19741   2.728   4.449   3.639 -1.3634 -0.3417  0.1068
  908MOL0     C19742   2.841   4.474   3.557  0.5346  1.1457 -1.3790
  908MOL0     C19743   2.936   4.405   3.623 -0.2611 -0.4405  0.4522
  908MOL0     C19744   3.082   4.422   3.606  0.4825 -0.3267  0.6666
  908MOL0     C19745   3.136   4.316   3.510  0.1601  0.4238 -0.3245
  908MOL0     C19746   3.111   4.346   3.368  0.4216 -0.7920  0.3645
  908MOL0     C19747   3.144   4.492   3.322 -0.4455 -0.1684  0.5668
  908MOL0     O19748   3.280   4.517   3.350 -0.0731 -0.8046  0.0279
  908MOL0     C19749   3.324   4.647   3.344 -0.1890  0.2729 -0.0849
  908MOL0     C19750   3.354   4.704   3.219  0.2116 -0.1187  1.6665
  908MOL0     C19751   3.372   4.843   3.210  0.2663  0.5296 -0.8694
  908MOL0     C19752   3.385   4.924   3.329  0.2502  0.0309  0.0529
  908MOL0     C19753   3.422   5.069   3.328  0.4927 -0.0553 -0.6224
  908MOL0     O19754   3.525   5.115   3.415  0.4795 -0.1562  0.4372
  908MOL0     C19755   3.601   5.236   3.419  1.3557  0.2458  0.9120
  908MOL0     C19756   3.588   5.337   3.328 -0.0682  0.3887 -0.1579
  908MOL0     C19757   3.651   5.462   3.355  0.1289  0.0321  0.3413
  908MOL0     C19758   3.753   5.482   3.451  1.1110  0.1098  0.4968
  908MOL0     O19759   3.808   5.602   3.472 -0.9691  0.9576  0.3480
  908MOL0     C19760   3.828   5.697   3.364  0.0696  0.8392 -0.2692
  908MOL0     C19761   3.975   5.705   3.325  1.1009  0.0509  0.5103
  908MOL0     C19762   4.027   5.572   3.254 -0.6580 -0.0428  0.1242
  908MOL0     C19763   3.947   5.533   3.137 -1.0078 -0.0075 -0.2808
  908MOL0     C19764   4.037   5.451   3.053  0.7695  0.9346  1.1423
  908MOL0     C19765   3.967   5.406   2.912 -1.0608  0.9686  0.2668
  908MOL0     C19766   4.056   5.316   2.821 -0.4805 -0.5749 -0.0365
  908MOL0     C19767   4.189   5.386   2.780 -0.0705 -0.2819  0.5572
  908MOL0    Cl19768   4.153   5.529   2.681  0.5297  0.2913  0.2486
  908MOL0     C19769   3.758   5.377   3.539 -1.4533  0.3768 -0.9431
  908MOL0     C19770   3.682   5.258   3.525 -0.0659 -0.1830 -1.1022
  908MOL0     O19771   3.379   5.131   3.234 -0.4815 -0.2657 -0.1639
  908MOL0     C19772   3.352   4.858   3.457 -1.1960 -0.5801  0.5878
  908MOL0     C19773   3.332   4.717   3.465  0.0365  0.2379 -0.6042
  908MOL0     N19774   2.875   4.329   3.717  0.0641 -0.6016  0.0142
  908MOL0     N19775   2.756   4.371   3.735 -0.2916  1.1376  0.5424
  908MOL0     C19776   2.821   5.562   3.374  1.1529  0.0290  0.2165
  908MOL0     C19777   2.863   5.597   3.239 -0.7619 -0.5419  0.8036
  908MOL0     C19778   2.757   5.739   2.811 -0.5764  0.1815  0.0705
  908MOL0     C19779   2.795   5.637   2.731 -0.9495  0.7305 -0.2667
  908MOL0     C19780   2.814   5.670   2.594  0.7055  0.3340 -1.0032
  908MOL0     C19781   2.762   5.780   2.537 -0.4405 -1.4202  0.1651
  908MOL0     O19782   2.764   5.801   2.397  0.3051 -0.0161  0.1677
  908MOL0     C19783   2.661   5.884   2.336 -0.0002 -0.0406 -0.1537
  908MOL0     C19784   2.658   5.869   2.189  0.7725 -0.6032  0.3598
  908MOL0     C19785   2.634   5.716   2.156 -0.7946 -0.4150 -0.9401
  908MOL0     C19786   2.604   5.714   2.012  0.5079  0.4386  0.7448
  908MOL0     C19787   2.496   5.802   1.959 -0.3226  0.2058 -0.7628
  908MOL0     C19788   2.414   5.883   1.917  0.6616  0.0365  0.3187
  908MOL0     C19789   2.718   5.888   2.623  0.5206 -0.9722 -0.6719
  908MOL0     C19790   2.726   5.865   2.762  0.6232  0.4786  0.1461
  908MOL0     H19791   2.602   5.458   3.065  0.0924  0.4708 -1.0363
  908MOL0     H19792   2.536   5.391   3.286  1.4069 -3.1407 -1.8841
  908MOL0     H19793   2.747   5.235   3.453  2.3364  0.8085  1.0106
  908MOL0     H19794   2.586   5.263   3.539 -1.6662  3.9637 -0.5738
  908MOL0     H19795   2.757   5.324   3.739  0.1999  2.2914 -2.1353
  908MOL0     H19796   2.863   5.210   3.653  0.0316  0.9020  0.2898
  908MOL0     H19797   2.589   5.143   3.738  0.0975  2.2339 -2.3725
  908MOL0     H19798   2.724   5.112   3.843 -1.9900  0.4487  0.8180
  908MOL0     H19799   2.731   5.011   3.542  1.7674  5.0714  1.2233
  908MOL0     H19800   2.827   4.960   3.669 -0.3948  0.6820  2.1105
  908MOL0     H19801   2.519   4.905   3.655  0.1955 -1.4969  0.4287
  908MOL0     H19802   2.604   4.888   3.793  1.4948  2.6524  0.2411
  908MOL0     H19803   2.751   4.712   3.691  1.4738  3.8692  0.0919
  908MOL0     H19804   2.684   4.749   3.524 -1.5755 -1.0981 -0.9571
  908MOL0     H19805   2.539   4.643   3.764  2.7225 -0.1951  0.5186
  908MOL0     H19806   2.465   4.659   3.606 -0.1202 -2.8399 -0.0971
  908MOL0     H19807   2.584   4.461   3.496  0.1244  1.5646 -1.3576
  908MOL0     H19808   2.535   4.415   3.653  2.1566 -0.9675  0.9200
  908MOL0     H19809   2.829   4.551   3.481  1.2144  0.2139 -2.4485
  908MOL0     H19810   3.134   4.413   3.701  1.8663 -2.4535 -0.2038
  908MOL0     H19811   3.107   4.523   3.572 -2.6636  0.3636  0.0692
  908MOL0     H19812   3.099   4.220   3.546 -0.6098  0.8681  0.1111
  908MOL0     H19813   3.242   4.303   3.532 -0.6399 -0.1547  4.0720
  908MOL0     H19814   3.179   4.279   3.314  0.8289 -1.5436  1.7466
  908MOL0     H19815   3.005   4.343   3.341  0.4950  1.2892 -0.2960
  908MOL0     H19816   3.084   4.570   3.369  1.3287  1.2523  0.5629
  908MOL0     H19817   3.130   4.510   3.215  0.6706  1.1223  0.6117
  908MOL0     H19818   3.347   4.636   3.134  2.6311 -0.1927  1.4756
  908MOL0     H19819   3.376   4.898   3.116  0.3038 -0.8358 -1.6877
  908MOL0     H19820   3.513   5.322   3.250  0.8458 -1.7642 -0.7047
  908MOL0     H19821   3.608   5.534   3.286  0.8465  1.0100  0.8984
  908MOL0     H19822   3.811   5.798   3.402  0.9642  1.4967 -1.5525
  908MOL0     H19823   3.769   5.675   3.275  2.8000 -0.8156 -1.8090
  908MOL0     H19824   4.024   5.736   3.417  0.5808  2.7903 -0.0397
  908MOL0     H19825   3.994   5.781   3.249  0.7267 -0.8225 -0.4923
  908MOL0     H19826   4.021   5.490   3.326  0.1025 -3.6321 -3.5675
  908MOL0     H19827   4.130   5.586   3.219 -0.7978 -2.6230 -1.6078
  908MOL0     H19828   3.867   5.469   3.175  0.3534 -1.1556  0.8003
  908MOL0     H19829   3.913   5.619   3.080  3.3411  2.3942  0.3277
  908MOL0     H19830   4.059   5.353   3.096  2.3704 -0.5315 -2.5513
  908MOL0     H19831   4.127   5.507   3.024 -0.0360  2.1343  0.8713
  908MOL0     H19832   3.931   5.490   2.853  0.4749  2.6706  1.6377
  908MOL0     H19833   3.880   5.350   2.950 -1.6359  1.0905 -0.8281
  908MOL0     H19834   4.082   5.229   2.881  1.9746  0.3414  0.3772
  908MOL0     H19835   4.008   5.285   2.728  0.6774  1.7333 -1.5258
  908MOL0     H19836   4.260   5.325   2.724 -0.4146 -1.7361  1.6252
  908MOL0     H19837   4.237   5.423   2.871 -0.2503  1.3669  0.0011
  908MOL0     H19838   3.843   5.367   3.606  0.1179 -1.8869 -3.0841
  908MOL0     H19839   3.700   5.181   3.599 -2.6571 -0.1502 -0.3387
  908MOL0     H19840   3.395   4.909   3.543  2.4717 -3.0517  0.4375
  908MOL0     H19841   3.324   4.682   3.568 -1.9315  1.4659 -0.2766
  908MOL0     H19842   2.875   5.604   3.458  0.3351  0.7814  0.3881
  908MOL0     H19843   2.952   5.653   3.216 -0.1365 -2.1437 -1.0254
  908MOL0     H19844   2.840   5.546   2.770 -1.9160  1.4907  2.8295
  908MOL0     H19845   2.852   5.603   2.518 -0.7158 -1.2278 -0.4121
  908MOL0     H19846   2.671   5.991   2.357  1.8871  1.0158 -5.0262
  908MOL0     H19847   2.566   5.847   2.377  0.5204  0.4545  1.5834
  908MOL0     H19848   2.570   5.926   2.161  1.3304  0.6303  1.0448
  908MOL0     H19849   2.744   5.913   2.138  0.5563 -0.3589  0.2062
  908MOL0     H19850   2.549   5.673   2.209 -1.3537  0.5432 -1.0584
  908MOL0     H19851   2.725   5.660   2.183 -0.5977 -0.7090 -2.1431
  908MOL0     H19852   2.696   5.732   1.956  2.7873  0.8176  4.2921
  908MOL0     H19853   2.575   5.613   1.983  1.1855  1.0798 -2.5285
  908MOL0     H19854   2.344   5.959   1.890  1.7158  1.0547  0.3410
  908MOL0     H19855   2.702   5.991   2.596 -1.1786 -0.9949  0.1228
  908MOL0     H19856   2.705   5.955   2.820  0.8440  0.0875  0.8345
  909MOL0     O19857   4.090   6.818   7.730 -0.3801  0.1776 -0.2066
  909MOL0     C19858   4.048   6.922   7.765 -0.0288 -0.5228 -0.0795
  909MOL0     O19859   4.087   7.043   7.717 -0.0571  0.2992  0.2582
  909MOL0     C19860   4.179   7.053   7.610  0.3810 -0.0243 -1.4569
  909MOL0     C19861   4.301   7.129   7.632  0.2815  0.5668  0.5179
  909MOL0     C19862   4.386   7.161   7.527 -0.1780  0.0279 -0.7714
  909MOL0     C19863   4.348   7.121   7.401 -0.7564  0.2217 -0.4060
  909MOL0     O19864   4.440   7.147   7.301  0.3737 -0.2843 -0.4478
  909MOL0     C19865   4.488   7.284   7.273 -1.1767 -0.1724  0.3689
  909MOL0     C19866   4.550   7.280   7.127  0.3162 -0.8805  1.5781
  909MOL0     C19867   4.427   7.299   7.032  0.5471 -0.6508  0.2527
  909MOL0     C19868   4.460   7.277   6.884  0.1247 -0.5267  0.4777
  909MOL0     C19869   4.344   7.317   6.789  0.2251  0.6273  1.1946
  909MOL0     C19870   4.336   7.465   6.747  0.8505  0.0606 -0.1032
  909MOL0     C19871   4.242   7.469   6.628  0.1244  0.3206  0.6363
  909MOL0     C19872   4.105   7.413   6.632 -0.9851  1.2286 -0.0252
  909MOL0     N19873   4.040   7.419   6.504  0.4616 -0.5690  1.4018
  909MOL0     C19874   3.992   7.306   6.438  0.3468 -0.0478 -0.3046
  909MOL0     C19875   3.954   7.343   6.315  0.5115 -0.1943  0.2898
  909MOL0     C19876   3.893   7.258   6.208  0.4147  1.2011 -0.2412
  909MOL0     C19877   3.877   7.102   6.229 -1.3362 -0.6411  0.2852
  909MOL0     C19878   3.809   7.028   6.114  0.7671  0.9531 -0.6285
  909MOL0     C19879   3.850   7.063   5.978 -0.0530  0.6019  0.2595
  909MOL0     O19880   3.787   7.192   5.940  0.7112 -0.0688  0.0112
  909MOL0     C19881   3.785   7.230   5.813  0.5207 -1.2120 -0.1320
  909MOL0     C19882   3.715   7.357   5.775 -0.4704 -0.0022 -0.1809
  909MOL0     C19883   3.704   7.399   5.646  0.4710 -0.2360  0.1090
  909MOL0     C19884   3.754   7.335   5.542 -0.1902 -0.3239 -0.6294
  909MOL0     C19885   3.738   7.363   5.404  0.6854  0.3969  0.8389
  909MOL0     O19886   3.640   7.460   5.378  0.0900  0.1001 -0.5578
  909MOL0     C19887   3.601   7.490   5.249 -0.6439 -1.3031 -0.5349
  909MOL0     C19888   3.704   7.521   5.167 -0.8272  0.8144  0.0351
  909MOL0     C19889   3.688   7.529   5.022 -0.4700  0.0355  0.3260
  909MOL0     C19890   3.565   7.505   4.968  0.2920  0.3602  0.5528
  909MOL0     O19891   3.540   7.511   4.826  0.6500 -0.6208 -0.3977
  909MOL0     C19892   3.425   7.444   4.768  0.2596 -0.5087 -0.3814
  909MOL0     C19893   3.418   7.465   4.617  1.0078  0.7311  0.9128
  909MOL0     C19894   3.530   7.418   4.537 -0.4405 -0.7395  0.0202
  909MOL0     C19895   3.508   7.435   4.386 -1.5677  0.4736 -0.3425
  909MOL0     C19896   3.478   7.583   4.339 -0.0622  0.0577 -0.0177
  909MOL0     C19897   3.596   7.689   4.367 -0.0163  0.5694  0.0424
  909MOL0     C19898   3.586   7.801   4.269  0.2868 -0.4809  0.1713
  909MOL0     C19899   3.638   7.932   4.330 -0.2114  0.3166  0.5321
  909MOL0    Cl19900   3.571   7.968   4.484  0.0657 -0.0800  0.0284
  909MOL0     C19901   3.462   7.464   5.058  0.4477  0.6022 -0.9180
  909MOL0     C19902   3.480   7.460   5.195 -0.2652  0.0626  0.3330
  909MOL0     O19903   3.798   7.289   5.317  0.1048  0.0565  0.0616
  909MOL0     C19904   3.832   7.224   5.579 -0.1541  1.1101  0.2239
  909MOL0     C19905   3.848   7.174   5.707 -0.9751  0.0600 -0.5857
  909MOL0     N19906   3.971   7.474   6.294 -0.2778  1.0853  0.2195
  909MOL0     N19907   4.027   7.517   6.403 -0.0986  1.0585  0.0962
  909MOL0     C19908   4.227   7.050   7.377 -0.3220  0.6080  0.3372
  909MOL0     C19909   4.139   7.015   7.485 -0.2222  0.7277  0.6812
  909MOL0     C19910   3.959   6.927   7.890 -0.3116  0.1542 -0.5755
  909MOL0     C19911   3.929   6.808   7.961 -0.8157 -0.1454  0.2797
  909MOL0     C19912   3.844   6.804   8.075  0.6106 -0.1149 -0.8878
  909MOL0     C19913   3.786   6.931   8.115 -1.7180  1.0333 -0.2543
  909MOL0     O19914   3.713   6.934   8.238  0.4846  0.3617  0.3319
  909MOL0     C19915   3.670   7.055   8.297 -0.0686  1.3383  0.6252
  909MOL0     C19916   3.539   7.091   8.224 -0.9108  0.1800  0.6870
  909MOL0     C19917   3.469   7.209   8.280 -0.3672 -0.1446  0.3588
  909MOL0     C19918   3.343   7.265   8.207  0.1899 -0.1664  0.8599
  909MOL0     C19919   3.219   7.256   8.283  0.1270 -0.1798  0.2583
  909MOL0     C19920   3.134   7.259   8.365 -0.3509  0.6065 -0.7516
  909MOL0     C19921   3.817   7.047   8.043  0.0573 -0.5218 -0.1222
  909MOL0     C19922   3.900   7.047   7.932  0.3756 -0.0762 -0.1691
  909MOL0     H19923   4.309   7.160   7.735 -1.4260 -3.7410  2.1848
  909MOL0     H19924   4.481   7.210   7.547 -0.9190  0.5010  2.1781
  909MOL0     H19925   4.569   7.312   7.341  1.1594  0.3396 -2.4492
  909MOL0     H19926   4.406   7.356   7.274  2.1904  4.0964 -1.6685
  909MOL0     H19927   4.591   7.181   7.103  1.2409  0.1200 -1.3175
  909MOL0     H19928   4.617   7.367   7.121  1.6386 -1.8075  2.2435
  909MOL0     H19929   4.388   7.402   7.029 -0.5353 -1.0087 -4.1014
  909MOL0     H19930   4.355   7.222   7.062 -1.2659 -0.4051 -3.0464
  909MOL0     H19931   4.543   7.343   6.858  1.8563 -1.8424  2.4109
  909MOL0     H19932   4.484   7.172   6.866  0.1372 -0.2887 -1.0833
  909MOL0     H19933   4.249   7.286   6.832  0.0913 -2.6757 -1.1454
  909MOL0     H19934   4.350   7.263   6.694 -5.7565  0.2014  0.6782
  909MOL0     H19935   4.433   7.513   6.730  1.5040 -1.1711  0.0501
  909MOL0     H19936   4.293   7.514   6.835 -1.9862  2.5102 -2.6194
  909MOL0     H19937   4.227   7.574   6.601 -0.6647  0.2404  0.7479
  909MOL0     H19938   4.289   7.421   6.542 -1.3109 -1.0904  0.6033
  909MOL0     H19939   4.041   7.472   6.697 -1.8350  1.8437 -1.3638
  909MOL0     H19940   4.108   7.308   6.662  3.2450  0.8074 -1.1968
  909MOL0     H19941   3.981   7.204   6.473 -1.5634  1.0808  2.7445
  909MOL0     H19942   3.950   7.273   6.116  0.0693  1.4805 -0.4123
  909MOL0     H19943   3.788   7.289   6.201 -0.1585  0.6206  3.4258
  909MOL0     H19944   3.823   7.088   6.323  0.6862 -2.1516  1.2851
  909MOL0     H19945   3.976   7.060   6.248 -0.4157  2.2876  2.8914
  909MOL0     H19946   3.831   6.922   6.128 -2.2378  0.4845  1.7274
  909MOL0     H19947   3.701   7.033   6.133  0.6334  1.6046 -1.5158
  909MOL0     H19948   3.821   6.978   5.917 -0.3255  0.4168  0.6466
  909MOL0     H19949   3.958   7.081   5.973  0.8330 -3.3153  2.0416
  909MOL0     H19950   3.662   7.412   5.852 -0.6511  0.3408 -0.5464
  909MOL0     H19951   3.645   7.483   5.613 -0.6495 -1.1830 -0.3802
  909MOL0     H19952   3.805   7.547   5.197 -1.0372  2.6010 -0.6972
  909MOL0     H19953   3.783   7.542   4.970  1.4225 -0.6028  3.3683
  909MOL0     H19954   3.334   7.481   4.816 -1.7064 -1.8160 -2.8668
  909MOL0     H19955   3.432   7.338   4.796  3.0870 -0.8700 -2.0984
  909MOL0     H19956   3.395   7.565   4.580 -1.8202 -0.5353 -1.1160
  909MOL0     H19957   3.339   7.395   4.587 -0.4084  1.6008  2.4362
  909MOL0     H19958   3.544   7.314   4.566 -1.9288 -1.5407 -1.9422
  909MOL0     H19959   3.616   7.480   4.565 -0.7749 -0.2110 -0.1066
  909MOL0     H19960   3.600   7.396   4.341 -0.8177  0.0679  1.4578
  909MOL0     H19961   3.418   7.377   4.366  0.6228 -2.2475 -3.5426
  909MOL0     H19962   3.395   7.632   4.389 -0.8963 -1.3712  0.0554
  909MOL0     H19963   3.456   7.580   4.232  1.5937  0.7848 -0.4195
  909MOL0     H19964   3.698   7.649   4.363 -0.0350  0.4799  0.4204
  909MOL0     H19965   3.587   7.712   4.473 -3.0188 -3.0119  0.7794
  909MOL0     H19966   3.643   7.777   4.178 -1.8060 -0.9661 -1.0651
  909MOL0     H19967   3.485   7.818   4.233  0.4330 -1.5159 -0.7825
  909MOL0     H19968   3.626   8.015   4.259  0.0766 -0.9751 -1.0723
  909MOL0     H19969   3.743   7.913   4.352 -0.6758 -0.6078  2.1202
  909MOL0     H19970   3.372   7.426   5.009  0.0676  1.8377 -1.2198
  909MOL0     H19971   3.403   7.431   5.266  1.3311  1.6939  2.8893
  909MOL0     H19972   3.894   7.174   5.506 -1.0850  1.3247 -0.7393
  909MOL0     H19973   3.912   7.088   5.720 -1.3566 -0.2896 -1.0029
  909MOL0     H19974   4.197   7.025   7.275 -3.7065  2.7682  0.6588
  909MOL0     H19975   4.044   6.977   7.449  1.5783 -0.5299 -3.3359
  909MOL0     H19976   3.965   6.713   7.923  1.5728  0.3717  1.0970
  909MOL0     H19977   3.827   6.704   8.112 -1.8801  0.2668 -0.8070
  909MOL0     H19978   3.747   7.132   8.289  2.9233 -1.5759 -0.9453
  909MOL0     H19979   3.645   7.047   8.403  1.2263 -0.3936  0.8329
  909MOL0     H19980   3.564   7.108   8.119 -0.2201 -0.6235  0.7137
  909MOL0     H19981   3.479   7.000   8.224  0.1357 -0.5503  2.2049
  909MOL0     H19982   3.547   7.286   8.280 -1.3118  0.8576 -0.6210
  909MOL0     H19983   3.455   7.177   8.384 -1.6143 -3.9293 -0.7881
  909MOL0     H19984   3.373   7.363   8.170  1.1422 -0.6234  0.3657
  909MOL0     H19985   3.334   7.210   8.112  2.4603  3.5026 -1.7778
  909MOL0     H19986   3.073   7.268   8.453  2.0490 -1.5112  1.2868
  909MOL0     H19987   3.775   7.141   8.078 -2.1463 -1.0632 -1.1900
  909MOL0     H19988   3.910   7.134   7.867 -3.2189  0.2847 -0.4508
  910MOL0     O19989  11.295   3.200   3.305  0.2844  0.0153  0.3061
  910MOL0     C19990  11.213   3.178   3.388 -0.6049 -0.4110 -0.9878
  910MOL0     O19991  11.233   3.190   3.523 -0.2860  0.6176  0.0981
  910MOL0     C19992  11.363   3.152   3.562  0.2067 -0.2586  0.0595
  910MOL0     C19993  11.404   3.022   3.556 -0.0277  0.7971 -0.9934
  910MOL0     C19994  11.531   2.978   3.595 -0.5885  0.2070 -0.5911
  910MOL0     C19995  11.620   3.077   3.644  0.2342 -0.6413 -0.4154
  910MOL0     O19996  11.741   3.024   3.680  0.7326  0.0068  0.0924
  910MOL0     C19997  11.832   3.094   3.762 -0.4379 -0.3185  0.1429
  910MOL0     C19998  11.963   3.027   3.739  0.2863  0.1428  0.5983
  910MOL0     C19999  12.076   3.074   3.826 -0.0149 -0.2940 -0.1240
  910MOL0     C20000  12.201   2.998   3.788 -0.0672  0.2466  0.2556
  910MOL0     C20001  12.327   3.036   3.879  0.0101 -0.6810  0.5472
  910MOL0     C20002  12.439   2.928   3.861 -0.3031  0.0438 -0.0358
  910MOL0     C20003  12.564   2.965   3.948 -0.0154 -0.4380  0.2400
  910MOL0     C20004  12.617   3.103   3.935 -0.7535  0.0937 -0.1230
  910MOL0     N20005  12.661   3.135   3.799  0.2398 -0.1411  0.3840
  910MOL0     C20006  12.743   3.056   3.719  0.7058 -0.0408 -0.6126
  910MOL0     C20007  12.773   3.145   3.615  0.1773  0.1937  0.0918
  910MOL0     C20008  12.888   3.139   3.524 -0.1563  0.0590 -0.2247
  910MOL0     C20009  13.017   3.092   3.581  0.7330 -0.3451  0.1163
  910MOL0     C20010  13.077   3.183   3.691  0.1243 -0.5459  0.4706
  910MOL0     C20011  13.190   3.135   3.776  0.4560 -0.0044  0.1392
  910MOL0     O20012  13.320   3.112   3.715  0.6166 -0.1384 -0.1018
  910MOL0     C20013  13.387   3.226   3.676  1.3072 -0.7535  0.5913
  910MOL0     C20014  13.394   3.244   3.541 -0.2856  0.0884 -0.8342
  910MOL0     C20015  13.447   3.366   3.491 -0.1615  0.8894 -0.6114
  910MOL0     C20016  13.527   3.451   3.573  0.1828 -0.3345 -0.1798
  910MOL0     C20017  13.601   3.563   3.517  0.5786  0.0863 -0.5176
  910MOL0     O20018  13.587   3.589   3.384  0.7039  0.4457 -0.4236
  910MOL0     C20019  13.658   3.685   3.314 -0.6606 -0.5222 -0.4633
  910MOL0     C20020  13.598   3.740   3.202 -0.0322 -0.1679  0.5032
  910MOL0     C20021  13.670   3.812   3.101 -0.6955 -1.5082  0.4593
  910MOL0     C20022  13.804   3.847   3.128  0.7484 -0.0809 -0.0266
  910MOL0     O20023  13.886   3.935   3.055  0.3987  0.6698  0.5652
  910MOL0     C20024  13.951   3.870   2.941  0.4150 -0.3534  0.4132
  910MOL0     C20025  14.079   3.809   3.002  0.2389  0.6196  0.4135
  910MOL0     C20026  14.185   3.914   3.049  0.0349 -0.0580 -1.3160
  910MOL0     C20027  14.306   3.831   3.113 -0.9183 -0.3555 -0.4072
  910MOL0     C20028  14.365   3.903   3.239 -0.5525 -0.5849 -0.4381
  910MOL0     C20029  14.467   3.814   3.316 -0.1010 -0.0689  1.1144
  910MOL0     C20030  14.541   3.880   3.431 -0.8898  0.5322  0.6334
  910MOL0     C20031  14.646   3.797   3.493  0.3195 -0.4249 -0.7255
  910MOL0    Cl20032  14.764   3.744   3.369 -0.2897  0.2137 -0.6267
  910MOL0     C20033  13.866   3.809   3.249 -1.0045  0.4555 -0.5609
  910MOL0     C20034  13.791   3.724   3.336 -0.5349 -0.5830  0.0526
  910MOL0     O20035  13.677   3.621   3.595 -0.3289  0.0963 -0.7037
  910MOL0     C20036  13.529   3.420   3.712  0.0467 -0.4605  0.2487
  910MOL0     C20037  13.450   3.314   3.763  0.9680 -0.1494  0.4174
  910MOL0     N20038  12.707   3.262   3.640  0.6624 -0.3773 -1.1293
  910MOL0     N20039  12.643   3.257   3.754 -0.7049  0.6556 -0.2968
  910MOL0     C20040  11.577   3.211   3.660  0.3696  0.3958  1.0298
  910MOL0     C20041  11.446   3.246   3.628 -0.6800  0.4159  1.0740
  910MOL0     C20042  11.083   3.150   3.345  0.1034 -0.8731  0.3664
  910MOL0     C20043  11.062   3.131   3.208  0.8692 -0.0948  0.2329
  910MOL0     C20044  10.936   3.102   3.159  0.5943 -0.0802 -0.4714
  910MOL0     C20045  10.828   3.083   3.247  0.1287 -0.5269 -0.7581
  910MOL0     O20046  10.710   3.039   3.195 -0.8673  0.3793  0.4387
  910MOL0     C20047  10.608   3.014   3.285 -0.0418  0.5784 -0.2182
  910MOL0     C20048  10.517   3.141   3.314 -0.0954  0.1980  0.5194
  910MOL0     C20049  10.448   3.193   3.187 -0.4922 -0.2148 -0.9635
  910MOL0     C20050  10.343   3.299   3.234  0.7422 -0.9832 -0.0577
  910MOL0     C20051  10.278   3.347   3.110 -0.4457 -0.1491 -0.8776
  910MOL0     C20052  10.214   3.374   3.007  0.5722  1.0046 -0.7697
  910MOL0     C20053  10.850   3.112   3.388 -0.3860 -0.6848  0.0760
  910MOL0     C20054  10.979   3.146   3.435 -0.0511  0.3384 -0.8127
  910MOL0     H20055  11.325   2.950   3.539  0.7513 -0.2185 -0.4388
  910MOL0     H20056  11.555   2.872   3.589 -1.6985 -0.1073  0.1218
  910MOL0     H20057  11.799   3.098   3.866  1.4302 -0.5418  0.7925
  910MOL0     H20058  11.838   3.198   3.730  0.3324  0.4444  2.4807
  910MOL0     H20059  11.993   3.044   3.635 -0.3344  0.8660  0.5259
  910MOL0     H20060  11.950   2.919   3.746  2.1731 -0.4941 -3.1435
  910MOL0     H20061  12.049   3.054   3.930 -0.9684 -1.0272 -0.5000
  910MOL0     H20062  12.101   3.180   3.819 -1.2407 -0.0746 -1.8509
  910MOL0     H20063  12.177   2.892   3.788  1.1832 -0.0517  0.4346
  910MOL0     H20064  12.233   3.036   3.690 -0.2748  0.5735  0.3126
  910MOL0     H20065  12.286   3.042   3.980 -0.9439 -2.4660  0.3026
  910MOL0     H20066  12.352   3.138   3.849 -3.0017  0.1677  0.6454
  910MOL0     H20067  12.471   2.908   3.758  1.5634  3.3639 -0.2324
  910MOL0     H20068  12.392   2.838   3.900 -1.8724  0.3987 -1.0172
  910MOL0     H20069  12.533   2.949   4.051  1.3293  0.2186  0.7762
  910MOL0     H20070  12.635   2.886   3.921 -2.2292 -1.6754 -2.5825
  910MOL0     H20071  12.697   3.119   4.008  1.1356  1.4309 -2.3159
  910MOL0     H20072  12.533   3.170   3.955 -0.3107  0.8239 -0.6306
  910MOL0     H20073  12.785   2.957   3.738  2.9382  0.8320 -0.6402
  910MOL0     H20074  12.920   3.227   3.467  2.2193 -0.5306  0.0704
  910MOL0     H20075  12.862   3.059   3.453 -0.4924 -1.6166  1.6986
  910MOL0     H20076  13.091   3.092   3.501  1.8011 -1.5639  1.0573
  910MOL0     H20077  12.999   2.994   3.627 -1.5694  0.4565  1.0556
  910MOL0     H20078  13.110   3.278   3.647 -1.8351  0.1357  0.3826
  910MOL0     H20079  12.994   3.206   3.759  0.2089  3.9606 -0.6086
  910MOL0     H20080  13.156   3.042   3.823 -0.3264  0.0362 -0.3320
  910MOL0     H20081  13.214   3.200   3.861 -0.7613 -0.1288  0.5985
  910MOL0     H20082  13.347   3.185   3.464 -1.3489 -1.7690  1.1265
  910MOL0     H20083  13.440   3.382   3.384  1.6260  0.7099 -0.7850
  910MOL0     H20084  13.494   3.712   3.196 -0.7156  2.3685 -0.9752
  910MOL0     H20085  13.630   3.853   3.008  0.6334  1.8350  1.2109
  910MOL0     H20086  13.975   3.937   2.858  0.6401  0.5738  1.2005
  910MOL0     H20087  13.882   3.795   2.903  0.3987  0.6977 -1.7778
  910MOL0     H20088  14.139   3.739   2.943  0.3492 -0.5987  1.8976
  910MOL0     H20089  14.044   3.746   3.084  1.2593 -0.4287  0.0750
  910MOL0     H20090  14.140   3.983   3.121  1.8226  1.7943 -1.8873
  910MOL0     H20091  14.217   3.982   2.969  0.3984  0.7506 -0.4987
  910MOL0     H20092  14.281   3.727   3.136 -2.5177  0.1601  0.3395
  910MOL0     H20093  14.389   3.826   3.042 -1.7295 -3.3575 -1.2917
  910MOL0     H20094  14.281   3.937   3.300 -0.0038 -0.5641  0.3128
  910MOL0     H20095  14.427   3.989   3.209  2.2636 -1.0763  3.3006
  910MOL0     H20096  14.540   3.788   3.237  0.6822 -1.6676  2.2926
  910MOL0     H20097  14.416   3.721   3.341 -0.3934 -2.0095 -4.9268
  910MOL0     H20098  14.580   3.969   3.383 -2.8460 -0.0016 -2.1802
  910MOL0     H20099  14.463   3.911   3.501 -2.6695  0.1006 -1.0853
  910MOL0     H20100  14.608   3.709   3.545 -3.5161  1.7184  0.5140
  910MOL0     H20101  14.703   3.852   3.568  0.9227  0.4533 -1.7967
  910MOL0     H20102  13.963   3.843   3.283 -1.0545 -2.1594  2.8533
  910MOL0     H20103  13.842   3.690   3.426  1.6857  0.7282 -0.6223
  910MOL0     H20104  13.592   3.480   3.777 -0.2777 -0.0906  0.2314
  910MOL0     H20105  13.448   3.284   3.867 -2.9185  1.9808  1.1302
  910MOL0     H20106  11.640   3.286   3.707  0.8246 -1.1551  3.0462
  910MOL0     H20107  11.414   3.350   3.632  2.2650  1.3915  2.6658
  910MOL0     H20108  11.148   3.136   3.141 -0.3503 -2.5764 -1.7406
  910MOL0     H20109  10.916   3.111   3.052  1.8920  2.0161 -0.5918
  910MOL0     H20110  10.641   2.954   3.369  0.4951 -3.5745 -3.0859
  910MOL0     H20111  10.540   2.945   3.234 -2.1352  2.7224 -0.5096
  910MOL0     H20112  10.450   3.112   3.396  1.5420  1.6042  2.4488
  910MOL0     H20113  10.575   3.222   3.359  1.6936  1.0191 -2.9895
  910MOL0     H20114  10.403   3.116   3.123 -2.1365 -3.7312  3.7948
  910MOL0     H20115  10.531   3.239   3.133  0.6394 -4.2228 -3.0393
  910MOL0     H20116  10.270   3.255   3.302  0.5190 -0.7801 -0.1652
  910MOL0     H20117  10.398   3.387   3.270  0.2098  0.1182 -1.8446
  910MOL0     H20118  10.140   3.392   2.931  0.4285  0.0718 -0.8671
  910MOL0     H20119  10.765   3.109   3.455 -1.5543 -0.3024 -1.3514
  910MOL0     H20120  10.978   3.190   3.534  0.1552  0.3267 -0.8037
  911MOL0     O20121   1.968   4.323   5.982 -1.2878  0.4127 -0.0669
  911MOL0     C20122   1.903   4.267   5.896 -0.7849  0.0466  0.2721
  911MOL0     O20123   1.826   4.331   5.805  1.2281  0.3871 -0.1694
  911MOL0     C20124   1.836   4.468   5.817 -0.2695  0.2767  0.0562
  911MOL0     C20125   1.757   4.539   5.911 -0.6127 -0.4315  0.4226
  911MOL0     C20126   1.757   4.680   5.900  0.2469  0.5878  0.4336
  911MOL0     C20127   1.857   4.742   5.821  0.2411  0.1615 -0.1363
  911MOL0     O20128   1.875   4.871   5.825 -0.1185  0.3465 -0.0790
  911MOL0     C20129   1.857   4.938   5.698 -0.5024  0.2233  0.1522
  911MOL0     C20130   1.784   5.074   5.709 -1.0955 -0.1044 -0.4747
  911MOL0     C20131   1.652   5.076   5.773 -0.1072  0.4694  0.2511
  911MOL0     C20132   1.547   4.968   5.724 -0.1994 -0.3042  0.0600
  911MOL0     C20133   1.412   4.981   5.794 -0.6600 -0.6973 -0.6250
  911MOL0     C20134   1.329   4.855   5.767 -0.4273  0.1911 -0.7821
  911MOL0     C20135   1.184   4.881   5.817  0.2241 -0.3037 -0.0419
  911MOL0     C20136   1.146   4.906   5.962 -0.7984  0.2734  0.3823
  911MOL0     N20137   1.221   4.822   6.054  0.4818 -0.3590 -0.9324
  911MOL0     C20138   1.340   4.864   6.120  0.1596 -0.1266  0.2794
  911MOL0     C20139   1.385   4.748   6.171 -0.0574  0.3184 -0.2250
  911MOL0     C20140   1.492   4.754   6.271 -0.8991  0.3887  0.3901
  911MOL0     C20141   1.451   4.706   6.412 -1.6218 -1.0299  0.2033
  911MOL0     C20142   1.343   4.801   6.475 -0.1589 -1.2860  1.1411
  911MOL0     C20143   1.302   4.758   6.620 -0.0826  0.6518  0.0450
  911MOL0     O20144   1.430   4.758   6.698 -0.6910  0.3456 -0.7656
  911MOL0     C20145   1.409   4.758   6.836 -0.1576 -0.9647 -0.2199
  911MOL0     C20146   1.297   4.711   6.907  0.1335  0.2462  0.2446
  911MOL0     C20147   1.302   4.719   7.048  1.2299 -0.3189 -0.3258
  911MOL0     C20148   1.412   4.761   7.124 -0.2318 -1.5746  0.2963
  911MOL0     C20149   1.407   4.776   7.270 -0.2956  1.2041 -0.3804
  911MOL0     O20150   1.288   4.744   7.339  0.3912 -0.0759 -0.1689
  911MOL0     C20151   1.266   4.783   7.472  0.0333  0.4488 -0.5578
  911MOL0     C20152   1.331   4.882   7.543  0.7145  1.2195 -0.2482
  911MOL0     C20153   1.293   4.910   7.675 -0.1802  0.7871  0.3510
  911MOL0     C20154   1.197   4.844   7.744  0.6885  0.7001 -0.4829
  911MOL0     O20155   1.176   4.871   7.881  0.0803  0.7359 -0.2952
  911MOL0     C20156   1.045   4.871   7.941 -0.1502  0.0432 -0.2431
  911MOL0     C20157   1.007   5.008   8.009 -0.6298 -0.4300  0.0045
  911MOL0     C20158   1.033   5.121   7.907 -0.1375 -0.8804 -0.5535
  911MOL0     C20159   0.958   5.255   7.930 -0.3992  0.1629  0.6527
  911MOL0     C20160   0.965   5.304   8.073 -0.7896  0.1287  0.8452
  911MOL0     C20161   1.109   5.342   8.108  0.4728  0.0769  0.9754
  911MOL0     C20162   1.189   5.429   8.009 -0.2406 -0.5205 -0.2248
  911MOL0     C20163   1.263   5.543   8.088 -1.2300  0.3851 -0.4882
  911MOL0    Cl20164   1.397   5.483   8.202 -0.2913  0.1070  0.1863
  911MOL0     C20165   1.136   4.742   7.675  0.3719 -0.5407  1.2628
  911MOL0     C20166   1.164   4.712   7.541  0.2468  0.0466 -0.7926
  911MOL0     O20167   1.511   4.802   7.321  0.0666  0.9203  0.9459
  911MOL0     C20168   1.532   4.786   7.042 -0.9595 -1.3250  0.1962
  911MOL0     C20169   1.531   4.782   6.906  0.3658  0.3324 -0.4141
  911MOL0     N20170   1.305   4.643   6.133 -0.6458  0.8404  0.1831
  911MOL0     N20171   1.203   4.686   6.060 -0.4053 -0.3493 -0.2626
  911MOL0     C20172   1.939   4.669   5.748 -0.9226  1.2624  0.7835
  911MOL0     C20173   1.925   4.532   5.730 -0.2148  0.2884  0.3080
  911MOL0     C20174   1.907   4.111   5.889 -0.0453 -0.0041 -0.7111
  911MOL0     C20175   1.823   4.045   5.794  0.6571  0.1066 -0.3105
  911MOL0     C20176   1.838   3.904   5.765  0.6862 -0.2574  0.8659
  911MOL0     C20177   1.936   3.836   5.841  0.3528 -0.9941  0.5888
  911MOL0     O20178   1.956   3.702   5.838  0.2818 -0.2804 -0.4062
  911MOL0     C20179   1.871   3.610   5.763  0.3063  0.7273  0.2463
  911MOL0     C20180   1.735   3.585   5.837  0.3346  0.4016  0.1578
  911MOL0     C20181   1.647   3.482   5.773  0.1916  0.6577  0.4097
  911MOL0     C20182   1.588   3.527   5.638 -0.2558 -0.0941 -0.5236
  911MOL0     C20183   1.502   3.645   5.650  0.6266 -0.2393 -0.2163
  911MOL0     C20184   1.451   3.758   5.669 -0.7665  0.7394 -0.6792
  911MOL0     C20185   2.017   3.897   5.939  0.1504  0.2948  0.9797
  911MOL0     C20186   2.000   4.033   5.963 -1.3599  0.2473 -1.4992
  911MOL0     H20187   1.685   4.483   5.971 -0.0672 -3.5862 -1.6456
  911MOL0     H20188   1.695   4.741   5.964  0.5987  2.8036 -1.2123
  911MOL0     H20189   1.815   4.874   5.620 -1.2225  1.1244 -0.2181
  911MOL0     H20190   1.955   4.979   5.674 -1.1188  2.1851  0.7683
  911MOL0     H20191   1.781   5.119   5.609  2.3996  0.6040 -0.3819
  911MOL0     H20192   1.859   5.132   5.763 -0.7755 -1.4417  0.5555
  911MOL0     H20193   1.617   5.177   5.752  1.3913  1.1365  0.8763
  911MOL0     H20194   1.661   5.058   5.880 -3.4604  2.0470  0.9242
  911MOL0     H20195   1.529   4.976   5.617 -1.9227 -3.2843  0.0264
  911MOL0     H20196   1.585   4.867   5.740  3.1845  1.1163  2.2368
  911MOL0     H20197   1.366   5.076   5.764  4.5721  2.3637 -0.2795
  911MOL0     H20198   1.429   4.999   5.900 -1.4682  2.0898 -0.8856
  911MOL0     H20199   1.367   4.769   5.823 -0.6363  0.3832 -0.3393
  911MOL0     H20200   1.315   4.827   5.663  0.7382  0.1635 -0.9370
  911MOL0     H20201   1.142   4.956   5.748 -0.7638 -0.0428  0.8172
  911MOL0     H20202   1.130   4.788   5.798 -2.7405  1.1343  0.6939
  911MOL0     H20203   1.039   4.886   5.973 -0.7256 -0.6298 -0.4480
  911MOL0     H20204   1.168   5.010   5.991  2.1536  1.2672 -4.2409
  911MOL0     H20205   1.366   4.967   6.142  1.1708 -0.7220  2.1388
  911MOL0     H20206   1.521   4.859   6.277  0.4784  0.1459 -1.4847
  911MOL0     H20207   1.578   4.698   6.234  1.5026  2.8116  1.9630
  911MOL0     H20208   1.539   4.703   6.477 -0.2414  1.7308 -1.3643
  911MOL0     H20209   1.399   4.610   6.408 -1.9588 -0.7995 -3.0736
  911MOL0     H20210   1.374   4.905   6.491 -1.0979  0.1825 -4.3822
  911MOL0     H20211   1.255   4.814   6.412  0.6749  0.3978  0.2257
  911MOL0     H20212   1.258   4.659   6.631 -0.3063  0.9578  2.4683
  911MOL0     H20213   1.236   4.839   6.654 -0.3498  0.8218 -0.8653
  911MOL0     H20214   1.209   4.677   6.852 -0.2228 -0.6742  1.3458
  911MOL0     H20215   1.211   4.679   7.094  2.2795  0.4981  2.7396
  911MOL0     H20216   1.422   4.931   7.512 -0.0928  1.3136 -2.6309
  911MOL0     H20217   1.334   4.996   7.726  2.6962  1.6640 -3.0677
  911MOL0     H20218   1.046   4.785   8.009 -3.6955 -0.5635 -0.7802
  911MOL0     H20219   0.958   4.846   7.880 -0.7894  4.5071 -1.5323
  911MOL0     H20220   1.070   5.016   8.098 -2.0078 -3.2703  1.3820
  911MOL0     H20221   0.902   5.013   8.040 -0.6692  3.6782 -0.3069
  911MOL0     H20222   0.980   5.084   7.818  0.3483  1.2032 -1.7841
  911MOL0     H20223   1.135   5.136   7.870 -0.5652  1.1205 -1.0595
  911MOL0     H20224   0.990   5.332   7.859  3.2255 -2.2304 -0.5918
  911MOL0     H20225   0.849   5.243   7.920 -0.2983 -0.9431  0.8035
  911MOL0     H20226   0.927   5.238   8.152 -1.7942  1.0619  1.1735
  911MOL0     H20227   0.907   5.397   8.073 -0.3071  0.4343  0.8731
  911MOL0     H20228   1.175   5.255   8.107  0.7299  0.0301 -4.4223
  911MOL0     H20229   1.096   5.386   8.208  0.6658  0.9856  0.6114
  911MOL0     H20230   1.267   5.373   7.955 -0.2480 -1.2977  0.5564
  911MOL0     H20231   1.121   5.476   7.938 -0.6159 -1.3008 -0.3958
  911MOL0     H20232   1.193   5.598   8.153  1.5174  2.3959  0.9857
  911MOL0     H20233   1.309   5.608   8.013  1.7798 -2.4573 -1.3216
  911MOL0     H20234   1.064   4.684   7.731 -1.7051 -0.4173 -1.1345
  911MOL0     H20235   1.108   4.630   7.498 -0.3089 -0.3043  0.5450
  911MOL0     H20236   1.624   4.801   7.098 -1.5454 -2.4299  1.5072
  911MOL0     H20237   1.628   4.809   6.866 -0.0515  1.7821 -0.5157
  911MOL0     H20238   2.020   4.703   5.685 -0.0604 -2.2809 -0.2613
  911MOL0     H20239   1.995   4.477   5.667 -3.8622 -2.3390 -1.8563
  911MOL0     H20240   1.745   4.097   5.740  0.5005  0.9566  0.7029
  911MOL0     H20241   1.766   3.864   5.694  1.4274 -2.3383  1.2196
  911MOL0     H20242   1.909   3.509   5.743  0.2031  0.4356  1.4137
  911MOL0     H20243   1.851   3.656   5.667 -0.8654 -1.5510 -0.6852
  911MOL0     H20244   1.752   3.554   5.940 -3.9945  0.2469  1.0071
  911MOL0     H20245   1.692   3.685   5.844  3.8054  2.1825 -1.4601
  911MOL0     H20246   1.558   3.464   5.834  0.1370  0.5588  0.3034
  911MOL0     H20247   1.704   3.389   5.770  0.9678  1.1311  0.1153
  911MOL0     H20248   1.670   3.543   5.567 -2.4193  0.0196 -3.1483
  911MOL0     H20249   1.525   3.444   5.605 -2.7983  0.5337  2.3164
  911MOL0     H20250   1.400   3.845   5.706 -0.3543 -0.4633  3.2693
  911MOL0     H20251   2.094   3.849   5.999  1.6917  2.9383  1.3022
  911MOL0     H20252   2.064   4.081   6.036 -0.5473 -2.3078 -0.4184
  912MOL0     O20253   0.013   5.443   2.721 -0.2193  0.3360  0.2030
  912MOL0     C20254  -0.075   5.405   2.638  0.3456 -0.5859  0.5058
  912MOL0     O20255  -0.210   5.395   2.668  0.5088  1.2322  0.8650
  912MOL0     C20256  -0.265   5.455   2.779  0.2367 -0.1677 -0.7054
  912MOL0     C20257  -0.203   5.524   2.882 -0.6369 -0.3739 -0.2235
  912MOL0     C20258  -0.283   5.600   2.975  0.0046  0.3041 -0.6746
  912MOL0     C20259  -0.419   5.574   2.991 -0.0804  0.6709 -0.4176
  912MOL0     O20260  -0.498   5.622   3.091  0.2557 -0.1040  0.1690
  912MOL0     C20261  -0.513   5.538   3.207 -0.1134  0.0479 -0.2838
  912MOL0     C20262  -0.389   5.531   3.300 -0.5684 -0.1935 -0.0058
  912MOL0     C20263  -0.413   5.479   3.441 -0.1679  0.2894  0.0504
  912MOL0     C20264  -0.480   5.588   3.531  0.3491 -1.0231 -0.3548
  912MOL0     C20265  -0.530   5.540   3.671  0.8999 -0.4356  0.4086
  912MOL0     C20266  -0.572   5.659   3.754 -0.0167 -0.1571 -0.5116
  912MOL0     C20267  -0.702   5.632   3.837 -0.2424  0.7942  0.3748
  912MOL0     C20268  -0.745   5.740   3.933 -1.0665 -0.1951 -0.2779
  912MOL0     N20269  -0.888   5.769   3.942  0.5322  0.3656  0.6132
  912MOL0     C20270  -0.984   5.760   3.837  0.7351  0.2346 -0.0774
  912MOL0     C20271  -1.106   5.799   3.894 -0.0839  0.2288 -0.0371
  912MOL0     C20272  -1.236   5.834   3.829  0.4548  0.7049  0.4908
  912MOL0     C20273  -1.251   5.771   3.689  0.7575 -0.4542  0.8506
  912MOL0     C20274  -1.303   5.625   3.682 -1.1301  0.6506 -0.9838
  912MOL0     C20275  -1.307   5.578   3.533 -0.3789 -0.8956  0.9003
  912MOL0     O20276  -1.415   5.640   3.471  0.3723 -0.1742  0.5770
  912MOL0     C20277  -1.431   5.647   3.336 -0.4722 -0.7307  0.6593
  912MOL0     C20278  -1.351   5.585   3.240 -0.0256 -0.0447  0.1793
  912MOL0     C20279  -1.373   5.596   3.100 -0.6173 -0.0763 -0.0294
  912MOL0     C20280  -1.469   5.683   3.047 -0.9323  0.5545  0.7537
  912MOL0     C20281  -1.488   5.698   2.905 -0.1188 -0.2136  0.3985
  912MOL0     O20282  -1.406   5.635   2.818  0.6371 -0.0267 -0.0373
  912MOL0     C20283  -1.435   5.626   2.679 -0.4847 -0.2497  0.1032
  912MOL0     C20284  -1.341   5.658   2.585 -0.9903 -0.2814  0.0295
  912MOL0     C20285  -1.366   5.659   2.446 -0.6288 -1.9541 -0.3186
  912MOL0     C20286  -1.485   5.625   2.405 -0.0192 -0.0357 -0.5499
  912MOL0     O20287  -1.522   5.634   2.277  0.1110  0.8070  0.0053
  912MOL0     C20288  -1.540   5.768   2.244  0.8847 -0.9123  1.0091
  912MOL0     C20289  -1.615   5.777   2.105 -1.0460  0.0255  0.3706
  912MOL0     C20290  -1.530   5.731   1.985 -0.0707 -0.1305 -0.7065
  912MOL0     C20291  -1.594   5.786   1.852  0.4204  0.5547  0.4011
  912MOL0     C20292  -1.558   5.702   1.719  0.1253 -0.4364 -1.0661
  912MOL0     C20293  -1.413   5.738   1.670  0.7326  0.8379 -0.0430
  912MOL0     C20294  -1.381   5.659   1.544  0.7045  0.1132 -0.6281
  912MOL0     C20295  -1.234   5.631   1.525 -0.2000  0.2865  0.6118
  912MOL0    Cl20296  -1.134   5.776   1.513  0.5456 -0.0309  0.1308
  912MOL0     C20297  -1.584   5.577   2.498 -0.7243  1.2623  0.7375
  912MOL0     C20298  -1.558   5.582   2.636  0.9784  0.4594  0.5902
  912MOL0     O20299  -1.579   5.765   2.860  0.0915 -0.0497 -0.3223
  912MOL0     C20300  -1.537   5.762   3.148 -0.4767 -0.9669  0.1838
  912MOL0     C20301  -1.526   5.732   3.287 -0.3129  0.6064 -0.2105
  912MOL0     N20302  -1.084   5.821   4.030 -0.4632 -0.5228 -1.2574
  912MOL0     N20303  -0.957   5.815   4.052 -0.5871  0.0753 -0.5558
  912MOL0     C20304  -0.477   5.499   2.890 -0.7952  0.9646  0.5670
  912MOL0     C20305  -0.406   5.443   2.784 -0.1962 -1.3802 -0.5226
  912MOL0     C20306  -0.026   5.358   2.508  0.4252  0.5544  0.5164
  912MOL0     C20307   0.102   5.377   2.453 -0.3856 -0.0557  0.1786
  912MOL0     C20308   0.140   5.321   2.332 -1.0368  0.0967 -0.5006
  912MOL0     C20309   0.040   5.241   2.260 -0.7834  0.0690 -0.6015
  912MOL0     O20310   0.054   5.172   2.143 -0.3425 -0.1860 -0.0713
  912MOL0     C20311   0.181   5.199   2.077 -0.4520  0.1007 -0.2607
  912MOL0     C20312   0.182   5.122   1.950  0.0712  0.3526 -1.0954
  912MOL0     C20313   0.069   5.168   1.849 -0.1650 -0.5158  0.1077
  912MOL0     C20314   0.103   5.092   1.720  0.3492 -0.0850  0.1661
  912MOL0     C20315   0.128   4.950   1.729  0.1733  0.5184 -0.6380
  912MOL0     C20316   0.158   4.830   1.750  0.4296  0.2790  0.6743
  912MOL0     C20317  -0.087   5.221   2.313 -0.1594  0.4175  0.0540
  912MOL0     C20318  -0.118   5.287   2.428  0.0216  0.3537 -0.0160
  912MOL0     H20319  -0.096   5.545   2.884 -0.0677 -2.3758 -3.2421
  912MOL0     H20320  -0.232   5.655   3.053 -1.4586  0.3309  0.3046
  912MOL0     H20321  -0.540   5.433   3.189  3.3541 -0.6538 -2.2502
  912MOL0     H20322  -0.602   5.575   3.259 -0.4046 -1.2280  0.1745
  912MOL0     H20323  -0.360   5.635   3.319 -0.5075 -0.4308  1.3595
  912MOL0     H20324  -0.314   5.464   3.257  1.8503  0.8475  2.3025
  912MOL0     H20325  -0.323   5.444   3.492 -0.4170  0.7380  0.8071
  912MOL0     H20326  -0.475   5.389   3.438  0.5152 -0.2757  1.7620
  912MOL0     H20327  -0.407   5.665   3.558 -1.7753  1.6914 -1.8936
  912MOL0     H20328  -0.557   5.640   3.474 -1.3550 -1.6290  1.2955
  912MOL0     H20329  -0.457   5.473   3.718  0.9114 -0.4632  0.3505
  912MOL0     H20330  -0.619   5.479   3.653  1.3254 -0.1854 -3.1706
  912MOL0     H20331  -0.609   5.737   3.686  3.5788  1.3564 -0.9209
  912MOL0     H20332  -0.489   5.691   3.817 -1.7672 -0.5556  2.1792
  912MOL0     H20333  -0.790   5.604   3.777  2.9975 -2.6028 -3.4358
  912MOL0     H20334  -0.700   5.543   3.899 -0.9437 -1.1684 -2.2122
  912MOL0     H20335  -0.702   5.830   3.886  0.5362 -1.5031 -1.4368
  912MOL0     H20336  -0.702   5.722   4.032  0.1828  0.6491 -0.6408
  912MOL0     H20337  -0.961   5.741   3.732  0.2910  0.0771 -0.1490
  912MOL0     H20338  -1.236   5.943   3.813  1.4017  0.3031 -2.9675
  912MOL0     H20339  -1.327   5.809   3.885 -2.1497 -0.1344 -3.6381
  912MOL0     H20340  -1.163   5.788   3.626  1.9186 -0.3108  2.4531
  912MOL0     H20341  -1.327   5.828   3.635  2.3596 -0.2433 -1.3312
  912MOL0     H20342  -1.232   5.582   3.753 -2.0490  1.6637  0.6205
  912MOL0     H20343  -1.406   5.619   3.720 -0.9960 -0.4723 -0.7512
  912MOL0     H20344  -1.314   5.470   3.521  1.7103 -1.3098  2.8853
  912MOL0     H20345  -1.218   5.619   3.483 -1.0958 -2.7960 -2.2275
  912MOL0     H20346  -1.266   5.522   3.267 -0.2829  0.1870  1.5577
  912MOL0     H20347  -1.319   5.529   3.034  1.8543 -1.1977  2.8895
  912MOL0     H20348  -1.244   5.694   2.619 -1.4535 -0.1051  1.2011
  912MOL0     H20349  -1.286   5.690   2.380  0.8648  1.8289  2.8201
  912MOL0     H20350  -1.445   5.821   2.231  1.2586 -2.0122 -1.3099
  912MOL0     H20351  -1.608   5.810   2.318 -0.2429 -0.1570 -0.4077
  912MOL0     H20352  -1.632   5.883   2.085  0.5068 -0.1149 -2.0155
  912MOL0     H20353  -1.711   5.725   2.111 -0.4286 -1.3357 -0.9320
  912MOL0     H20354  -1.539   5.622   1.985 -3.0119  0.0334 -0.1824
  912MOL0     H20355  -1.429   5.772   1.980 -1.0050  2.9752  2.3970
  912MOL0     H20356  -1.703   5.787   1.860  0.3198  0.4808 -0.8297
  912MOL0     H20357  -1.569   5.891   1.832 -1.8262  0.6262 -2.8570
  912MOL0     H20358  -1.630   5.743   1.647 -2.1635 -0.9383  0.8220
  912MOL0     H20359  -1.573   5.595   1.735  2.2562 -0.8724 -1.7214
  912MOL0     H20360  -1.352   5.701   1.753  1.9974  1.5178 -0.6474
  912MOL0     H20361  -1.405   5.840   1.630  0.3884 -0.1521 -2.8658
  912MOL0     H20362  -1.428   5.561   1.562  1.6108 -0.2285 -0.0034
  912MOL0     H20363  -1.423   5.710   1.457  2.3119  0.3902 -1.2660
  912MOL0     H20364  -1.227   5.574   1.432  0.3932  1.1084  0.1505
  912MOL0     H20365  -1.195   5.562   1.601  0.2888  1.1080  1.1183
  912MOL0     H20366  -1.678   5.536   2.465 -0.6012  1.2411  0.3978
  912MOL0     H20367  -1.638   5.561   2.706  0.1474  2.4620  0.3072
  912MOL0     H20368  -1.614   5.834   3.121 -0.1390 -1.7570 -3.4008
  912MOL0     H20369  -1.580   5.792   3.359 -0.5751  0.4972 -0.3158
  912MOL0     H20370  -0.583   5.484   2.904 -0.1694 -3.0541  2.4695
  912MOL0     H20371  -0.469   5.383   2.719  0.6654 -2.0735 -0.7446
  912MOL0     H20372   0.175   5.443   2.499 -1.1781  0.3701  0.8487
  912MOL0     H20373   0.240   5.335   2.294  0.0200  0.5602  2.2275
  912MOL0     H20374   0.264   5.170   2.142 -0.4157 -1.9716 -1.1755
  912MOL0     H20375   0.195   5.307   2.068 -0.0509  0.3327  2.3586
  912MOL0     H20376   0.281   5.123   1.903  0.2996  1.4418 -0.6320
  912MOL0     H20377   0.174   5.017   1.978  1.3147  1.2088  3.2218
  912MOL0     H20378   0.063   5.276   1.833 -2.0469 -0.5179  0.6302
  912MOL0     H20379  -0.032   5.137   1.876  1.0153 -2.9157  2.1492
  912MOL0     H20380   0.014   5.107   1.658 -0.8687 -2.0380  1.3135
  912MOL0     H20381   0.193   5.123   1.665 -0.7074  0.9033 -1.0908
  912MOL0     H20382   0.195   4.730   1.749  2.7291  0.9968  2.8476
  912MOL0     H20383  -0.148   5.152   2.255 -0.2117 -1.0188  1.6967
  912MOL0     H20384  -0.222   5.282   2.459 -0.3746 -0.4292 -1.3946
  913MOL0     O20385  10.302   8.341   1.444  0.1923 -0.2444  0.4877
  913MOL0     C20386  10.270   8.442   1.377 -0.1681  0.0489  0.6604
  913MOL0     O20387  10.359   8.541   1.339 -0.5596 -0.7086 -0.2147
  913MOL0     C20388  10.488   8.532   1.376 -0.7372  0.3588 -1.5222
  913MOL0     C20389  10.533   8.599   1.490  0.6170  0.3630  0.1513
  913MOL0     C20390  10.673   8.592   1.522  0.4124 -0.8003 -0.1676
  913MOL0     C20391  10.758   8.516   1.448  0.5566 -0.3312 -0.0884
  913MOL0     O20392  10.890   8.505   1.481 -0.5473  0.1260 -0.3624
  913MOL0     C20393  10.966   8.600   1.562  0.5506 -0.4754 -0.3993
  913MOL0     C20394  11.105   8.610   1.485  0.5978  0.1569 -0.6302
  913MOL0     C20395  11.098   8.647   1.334  0.1591 -0.7261  0.3257
  913MOL0     C20396  11.228   8.681   1.272 -0.3747  0.3306  0.4912
  913MOL0     C20397  11.192   8.727   1.129  0.5519 -0.1208 -0.5612
  913MOL0     C20398  11.314   8.793   1.053  0.0816  0.6390 -0.5743
  913MOL0     C20399  11.273   8.868   0.918 -0.0804 -0.4080  0.2265
  913MOL0     C20400  11.218   8.770   0.815 -0.7251 -0.4216 -0.3815
  913MOL0     N20401  11.136   8.852   0.731  0.2440  0.3511  0.4725
  913MOL0     C20402  11.020   8.905   0.765  0.3494 -0.1296 -0.5475
  913MOL0     C20403  11.002   8.991   0.663 -0.5109 -0.2170  0.9868
  913MOL0     C20404  10.886   9.085   0.653 -1.7561  0.2882  0.0408
  913MOL0     C20405  10.760   9.042   0.574  0.4535  0.1496  0.3658
  913MOL0     C20406  10.644   9.146   0.582 -0.2968 -0.1096 -0.8701
  913MOL0     C20407  10.699   9.298   0.577  0.2330  0.4401 -0.4607
  913MOL0     O20408  10.782   9.318   0.464  0.5020  0.1916  0.0024
  913MOL0     C20409  10.731   9.305   0.332  0.0105  0.5911 -0.4728
  913MOL0     C20410  10.589   9.319   0.314  0.3656  0.1418  1.0132
  913MOL0     C20411  10.541   9.307   0.188 -0.4971  0.2011  0.1748
  913MOL0     C20412  10.621   9.321   0.073  0.2907 -0.7251 -0.2234
  913MOL0     C20413  10.548   9.324  -0.055  1.0532  0.1096 -0.1956
  913MOL0     O20414  10.600   9.408  -0.147  0.2844  0.2054 -0.1580
  913MOL0     C20415  10.541   9.417  -0.269  0.6382 -0.0745  0.5555
  913MOL0     C20416  10.443   9.511  -0.293 -0.8082  0.2727 -0.2028
  913MOL0     C20417  10.397   9.539  -0.422  0.2709  0.3062 -0.0620
  913MOL0     C20418  10.454   9.478  -0.526 -0.0050 -0.7965  1.1068
  913MOL0     O20419  10.424   9.506  -0.659 -0.1138  0.7296  0.0102
  913MOL0     C20420  10.287   9.545  -0.685 -0.3625  0.0920  0.0680
  913MOL0     C20421  10.204   9.427  -0.670 -0.0948  0.4586  0.0252
  913MOL0     C20422  10.254   9.300  -0.728 -0.4285 -0.7404 -0.1162
  913MOL0     C20423  10.157   9.182  -0.713 -0.3083 -0.1303 -0.5292
  913MOL0     C20424  10.007   9.214  -0.741 -0.2173  0.2487  0.3223
  913MOL0     C20425   9.980   9.261  -0.881  0.8375  0.5321 -0.3271
  913MOL0     C20426  10.012   9.150  -0.984 -1.2947  0.3882 -0.5105
  913MOL0     C20427   9.962   9.199  -1.117  0.1393  0.4335  0.2111
  913MOL0    Cl20428   9.790   9.200  -1.128 -0.1459  0.3485 -0.0450
  913MOL0     C20429  10.551   9.374  -0.506 -0.0216 -0.5475  0.0505
  913MOL0     C20430  10.599   9.350  -0.379  0.0822 -0.1242 -0.8184
  913MOL0     O20431  10.453   9.249  -0.078 -0.4662  0.4341  0.3040
  913MOL0     C20432  10.758   9.330   0.095  0.0239 -0.1934  0.4112
  913MOL0     C20433  10.808   9.323   0.225  0.4264  0.3234  0.0941
  913MOL0     N20434  11.098   8.996   0.568 -0.5232  0.1659  0.5276
  913MOL0     N20435  11.177   8.893   0.603  1.2257 -0.2661  0.0452
  913MOL0     C20436  10.716   8.447   1.342  0.4099  1.3113  0.6333
  913MOL0     C20437  10.583   8.448   1.310  0.2151 -0.5698  0.5788
  913MOL0     C20438  10.133   8.458   1.341  0.1319  0.4719  0.1652
  913MOL0     C20439  10.085   8.559   1.260  1.0000  0.0656  0.1334
  913MOL0     C20440   9.953   8.576   1.238 -0.4589 -0.4096  0.2384
  913MOL0     C20441   9.858   8.485   1.290 -0.7677 -0.5611  0.7941
  913MOL0     O20442   9.737   8.504   1.247  0.0836  0.0391  0.5553
  913MOL0     C20443   9.658   8.390   1.219 -0.1397  0.5859 -0.5608
  913MOL0     C20444   9.666   8.369   1.066  0.8007  0.4012 -0.2136
  913MOL0     C20445   9.578   8.250   1.011 -0.6002  0.1634 -0.1813
  913MOL0     C20446   9.431   8.296   0.985 -0.0298  0.1987  0.2952
  913MOL0     C20447   9.403   8.324   0.850  0.4527 -0.0458  0.5509
  913MOL0     C20448   9.361   8.359   0.736 -0.1649  0.1066 -0.6570
  913MOL0     C20449   9.897   8.382   1.374  0.5935 -0.2400 -0.9887
  913MOL0     C20450  10.036   8.376   1.407 -0.4804 -0.6231 -0.4869
  913MOL0     H20451  10.461   8.662   1.541 -1.8882 -2.1873  0.0904
  913MOL0     H20452  10.709   8.649   1.607 -2.7840 -1.2924  1.6519
  913MOL0     H20453  10.989   8.557   1.660  1.9458 -1.2978 -1.0574
  913MOL0     H20454  10.917   8.696   1.579 -1.2703 -1.7021  1.6664
  913MOL0     H20455  11.159   8.515   1.490 -0.7281 -0.6585 -1.3093
  913MOL0     H20456  11.149   8.697   1.534 -2.1732  2.6161 -2.1806
  913MOL0     H20457  11.025   8.728   1.323 -1.2208 -1.9139  0.5038
  913MOL0     H20458  11.056   8.561   1.282  1.6194 -1.0117 -0.4244
  913MOL0     H20459  11.286   8.758   1.323 -0.4159 -0.6513  2.0576
  913MOL0     H20460  11.296   8.596   1.281  1.5648  1.4808 -1.8334
  913MOL0     H20461  11.103   8.790   1.135  1.5961  1.2686  3.4570
  913MOL0     H20462  11.163   8.635   1.077 -2.3397 -1.4802  3.0375
  913MOL0     H20463  11.396   8.726   1.024  0.6757  1.6783 -1.3807
  913MOL0     H20464  11.363   8.863   1.121  1.7112 -2.7130  1.9856
  913MOL0     H20465  11.205   8.952   0.929 -0.2130 -0.5699  0.6465
  913MOL0     H20466  11.367   8.903   0.874 -0.3329 -0.3082 -0.2390
  913MOL0     H20467  11.151   8.697   0.861  1.2213 -2.9491 -1.3261
  913MOL0     H20468  11.297   8.719   0.758  1.3637 -1.0323  2.8329
  913MOL0     H20469  10.966   8.875   0.855 -1.0904  1.5010 -0.8146
  913MOL0     H20470  10.940   9.168   0.606  0.8523 -1.2017  0.2556
  913MOL0     H20471  10.865   9.112   0.757  1.0168  0.3639  0.6620
  913MOL0     H20472  10.726   8.947   0.619  0.5477  0.2090  0.5627
  913MOL0     H20473  10.789   9.016   0.472  0.1390 -1.3244  0.6206
  913MOL0     H20474  10.563   9.129   0.511 -1.7204  0.0718  0.6385
  913MOL0     H20475  10.594   9.121   0.676 -1.1160 -1.8270 -1.7144
  913MOL0     H20476  10.758   9.326   0.665  3.1600 -1.6574 -1.5932
  913MOL0     H20477  10.605   9.353   0.592 -0.9229 -1.8110  1.0288
  913MOL0     H20478  10.515   9.325   0.394 -2.2577 -1.2670 -1.1265
  913MOL0     H20479  10.435   9.295   0.170 -0.5511  1.6393 -0.5872
  913MOL0     H20480  10.411   9.572  -0.209  0.8048 -1.0971  1.4823
  913MOL0     H20481  10.310   9.604  -0.428  0.0989 -0.0410 -1.7891
  913MOL0     H20482  10.275   9.578  -0.789  0.6805  0.8354  0.1629
  913MOL0     H20483  10.244   9.619  -0.618 -1.5068 -0.5381  0.0499
  913MOL0     H20484  10.117   9.461  -0.728  1.9111  1.1231 -2.8437
  913MOL0     H20485  10.177   9.413  -0.565 -0.4055 -1.2099 -0.2529
  913MOL0     H20486  10.351   9.275  -0.684  0.8703  1.8460 -1.2720
  913MOL0     H20487  10.276   9.329  -0.831 -3.8602  0.0880 -0.7433
  913MOL0     H20488  10.199   9.091  -0.758  2.3912  2.0662 -2.9125
  913MOL0     H20489  10.145   9.160  -0.607  1.2166 -2.7729 -0.8152
  913MOL0     H20490   9.970   9.299  -0.685 -1.6206 -0.9984  1.3794
  913MOL0     H20491   9.951   9.125  -0.711 -1.3898  0.9203  0.1692
  913MOL0     H20492  10.032   9.354  -0.908  0.8528  0.2557 -1.2813
  913MOL0     H20493   9.873   9.285  -0.877  0.4106 -0.8842 -1.9969
  913MOL0     H20494  10.118   9.122  -0.980 -1.2534  0.3983 -1.4104
  913MOL0     H20495   9.953   9.064  -0.952  1.2344 -0.3717  2.6323
  913MOL0     H20496  10.002   9.127  -1.189  0.8748  1.3866 -0.3604
  913MOL0     H20497  10.010   9.291  -1.149  0.4788  0.0396 -0.4208
  913MOL0     H20498  10.586   9.316  -0.591  3.8620 -0.5504  1.4551
  913MOL0     H20499  10.667   9.268  -0.358  0.0942  0.1530  0.2931
  913MOL0     H20500  10.825   9.341   0.011 -0.3653 -3.9095 -0.5722
  913MOL0     H20501  10.914   9.335   0.245  0.3356  0.5767  0.4234
  913MOL0     H20502  10.776   8.384   1.278 -2.3641 -1.8507  0.8855
  913MOL0     H20503  10.552   8.387   1.226 -0.5836 -2.0971  1.9252
  913MOL0     H20504  10.148   8.634   1.212  1.3550  0.1344  0.7032
  913MOL0     H20505   9.927   8.661   1.177  1.1105 -1.2669 -1.7459
  913MOL0     H20506   9.554   8.402   1.249  0.0858  1.0255  0.0695
  913MOL0     H20507   9.691   8.295   1.262 -0.0759 -0.2316 -2.3218
  913MOL0     H20508   9.649   8.469   1.024 -0.6227  0.3925  0.2817
  913MOL0     H20509   9.770   8.348   1.038  0.4157 -3.1008  0.5677
  913MOL0     H20510   9.583   8.170   1.086  0.8179  1.7639  1.5489
  913MOL0     H20511   9.618   8.203   0.921 -1.7576  0.9617 -1.1489
  913MOL0     H20512   9.366   8.209   0.997  0.4973 -0.2290  0.0879
  913MOL0     H20513   9.395   8.367   1.060 -1.2444  1.6094 -1.5225
  913MOL0     H20514   9.345   8.383   0.632  0.7077  1.8774 -0.4318
  913MOL0     H20515   9.829   8.316   1.427 -1.0080  2.9898  1.3431
  913MOL0     H20516  10.078   8.313   1.485  0.8462 -0.0855 -0.7301
  914MOL0     O20517   4.050   8.665   5.687  0.5000 -0.0577  0.3440
  914MOL0     C20518   4.047   8.588   5.588 -0.3298  0.3255  0.1213
  914MOL0     O20519   4.153   8.522   5.544 -0.5344 -0.2022 -0.8256
  914MOL0     C20520   4.271   8.600   5.557  1.1036 -0.2128 -0.4123
  914MOL0     C20521   4.302   8.716   5.486  1.5710 -0.6986 -0.5478
  914MOL0     C20522   4.418   8.788   5.514  0.6637 -1.1319  0.2651
  914MOL0     C20523   4.498   8.754   5.628 -0.1083 -0.5964  0.3094
  914MOL0     O20524   4.607   8.833   5.647 -0.2909 -0.0443  0.4555
  914MOL0     C20525   4.733   8.765   5.645 -0.0899  0.8911 -0.1262
  914MOL0     C20526   4.844   8.870   5.649  0.5732 -0.9472 -1.0142
  914MOL0     C20527   4.850   8.942   5.787 -0.0089  0.2767  0.3821
  914MOL0     C20528   4.975   9.030   5.797  0.0221 -0.1458  0.0952
  914MOL0     C20529   4.980   9.115   5.921  0.3659 -0.7341  0.1823
  914MOL0     C20530   5.054   9.246   5.903 -0.4954 -0.7192 -0.3465
  914MOL0     C20531   5.098   9.297   6.047 -0.5173 -0.1918 -0.3426
  914MOL0     C20532   5.184   9.420   6.059 -1.2684 -0.1117  0.0140
  914MOL0     N20533   5.238   9.428   6.198  0.5070 -0.8599  0.3657
  914MOL0     C20534   5.217   9.533   6.286 -0.0787 -0.2365 -0.9790
  914MOL0     C20535   5.289   9.501   6.397 -0.3792  0.9714  0.8810
  914MOL0     C20536   5.298   9.589   6.520  0.3859  0.3326 -0.1393
  914MOL0     C20537   5.357   9.526   6.651  0.2027 -0.5714 -0.4496
  914MOL0     C20538   5.291   9.398   6.700 -0.4700 -0.2121  0.4441
  914MOL0     C20539   5.155   9.431   6.771  0.2452 -0.0997  0.1869
  914MOL0     O20540   5.109   9.308   6.825  0.2026 -0.0452 -0.0734
  914MOL0     C20541   5.016   9.315   6.933 -0.5813 -0.7299  0.7070
  914MOL0     C20542   4.965   9.438   6.981  0.1419  0.6297  0.1001
  914MOL0     C20543   4.856   9.441   7.062  0.2893  0.6481  0.3236
  914MOL0     C20544   4.799   9.326   7.111 -0.4646 -0.1574  0.1543
  914MOL0     C20545   4.669   9.333   7.177  0.3601 -0.2583  1.6578
  914MOL0     O20546   4.630   9.226   7.257  0.3281 -0.3869 -0.2856
  914MOL0     C20547   4.519   9.226   7.341  0.5676  0.1020  0.5151
  914MOL0     C20548   4.387   9.279   7.311 -0.2824  0.0071 -0.1615
  914MOL0     C20549   4.277   9.258   7.399  0.1211  0.2352 -1.0336
  914MOL0     C20550   4.290   9.176   7.510 -0.2658  0.5528 -0.4103
  914MOL0     O20551   4.197   9.146   7.609 -0.6211 -0.1264 -0.2361
  914MOL0     C20552   4.076   9.230   7.619 -0.0714  0.6235 -0.8943
  914MOL0     C20553   3.946   9.159   7.575  0.0812  0.0835 -0.2395
  914MOL0     C20554   3.947   9.008   7.601  0.3594 -0.2092  0.2576
  914MOL0     C20555   3.807   8.948   7.576 -0.4463 -0.2186  0.1417
  914MOL0     C20556   3.803   8.803   7.621  0.1176  0.9761  0.9725
  914MOL0     C20557   3.801   8.794   7.779  0.6183  0.9498  0.9680
  914MOL0     C20558   3.693   8.700   7.829 -0.9366  0.7861 -0.3265
  914MOL0     C20559   3.667   8.722   7.975  0.3423  0.1552 -0.3568
  914MOL0    Cl20560   3.603   8.887   8.009 -0.0094  0.0719 -0.5296
  914MOL0     C20561   4.419   9.125   7.535 -0.1362  0.0871 -0.2711
  914MOL0     C20562   4.533   9.141   7.453 -0.6779  0.1386  0.1686
  914MOL0     O20563   4.623   9.448   7.183  0.1480  0.5627 -0.7209
  914MOL0     C20564   4.856   9.204   7.084 -1.0874 -0.2129 -0.1836
  914MOL0     C20565   4.961   9.196   6.992 -0.0561 -0.7456 -0.8743
  914MOL0     N20566   5.361   9.385   6.364  0.7454 -0.2632  0.1765
  914MOL0     N20567   5.330   9.347   6.251 -0.5976  0.1942  0.2321
  914MOL0     C20568   4.464   8.642   5.705 -0.1880  0.7912  0.1405
  914MOL0     C20569   4.351   8.561   5.670 -0.9838  0.5114  1.0602
  914MOL0     C20570   3.916   8.544   5.541  0.6666 -0.5483 -0.1576
  914MOL0     C20571   3.798   8.621   5.574 -0.1167  0.5995  0.5080
  914MOL0     C20572   3.674   8.577   5.534 -0.2259 -0.8458 -0.5070
  914MOL0     C20573   3.647   8.456   5.469 -0.4233  0.3342  0.7593
  914MOL0     O20574   3.520   8.414   5.447 -1.1370 -0.3469  0.2666
  914MOL0     C20575   3.494   8.317   5.337  0.3153 -0.8172 -0.7007
  914MOL0     C20576   3.350   8.345   5.305  0.0388 -0.4922  0.2590
  914MOL0     C20577   3.242   8.322   5.403 -0.6595 -0.2322  0.2324
  914MOL0     C20578   3.108   8.365   5.335  0.5638 -0.0913 -0.1126
  914MOL0     C20579   2.990   8.346   5.429 -0.2306  1.0816  0.1452
  914MOL0     C20580   2.905   8.342   5.516  0.2664  0.3118  0.3809
  914MOL0     C20581   3.762   8.379   5.441 -0.2314 -0.3788 -0.5742
  914MOL0     C20582   3.893   8.419   5.477 -0.2521 -0.7828 -0.4855
  914MOL0     H20583   4.249   8.759   5.402 -2.2378  0.0975  2.0204
  914MOL0     H20584   4.437   8.868   5.443 -1.9227 -1.8719 -1.3962
  914MOL0     H20585   4.736   8.693   5.563 -2.1844  1.6519 -0.9151
  914MOL0     H20586   4.737   8.709   5.740  1.6871  1.9551  0.4809
  914MOL0     H20587   4.844   8.943   5.567 -0.9708 -1.1201 -1.1963
  914MOL0     H20588   4.940   8.818   5.639  1.2946  0.2673 -0.6111
  914MOL0     H20589   4.862   8.871   5.870  1.5153 -1.3726 -1.1604
  914MOL0     H20590   4.758   8.990   5.822 -0.0773  0.3669  0.0766
  914MOL0     H20591   5.068   8.973   5.797  0.3308  0.2491  2.5809
  914MOL0     H20592   4.975   9.101   5.713 -3.8173 -0.4361 -0.3113
  914MOL0     H20593   5.016   9.062   6.010  2.0782  0.6713  0.3857
  914MOL0     H20594   4.881   9.144   5.958  1.4997  2.5661  0.9925
  914MOL0     H20595   4.989   9.314   5.846 -1.7214  0.9526  2.8367
  914MOL0     H20596   5.136   9.217   5.836 -1.1411  0.9926 -1.9823
  914MOL0     H20597   5.013   9.317   6.113  0.0033 -1.2304  0.6879
  914MOL0     H20598   5.159   9.215   6.086  2.4943  2.2491  0.4375
  914MOL0     H20599   5.127   9.512   6.045  1.3437  1.6154  0.1094
  914MOL0     H20600   5.250   9.421   5.972 -0.1872  1.7596  0.7981
  914MOL0     H20601   5.144   9.614   6.289  0.4127  0.2269 -1.2837
  914MOL0     H20602   5.198   9.625   6.544 -0.8505 -1.5482 -2.1542
  914MOL0     H20603   5.365   9.668   6.485  2.4023 -1.5947 -0.8937
  914MOL0     H20604   5.357   9.595   6.735  2.4422  3.3979 -3.3846
  914MOL0     H20605   5.461   9.501   6.630  1.0491  0.8001  1.7601
  914MOL0     H20606   5.275   9.331   6.615 -0.7197  0.5776 -0.1376
  914MOL0     H20607   5.353   9.354   6.779  1.6625  0.5334 -0.7183
  914MOL0     H20608   5.078   9.471   6.704  0.8497  2.4910  0.9232
  914MOL0     H20609   5.170   9.510   6.846  0.2946  2.6510 -2.5359
  914MOL0     H20610   5.001   9.535   6.949  1.9718 -0.6306 -2.0019
  914MOL0     H20611   4.813   9.539   7.080 -1.1156  0.3275 -1.0269
  914MOL0     H20612   4.373   9.348   7.229  4.2223  0.3405 -0.9003
  914MOL0     H20613   4.178   9.297   7.376 -1.4138 -1.8050  1.4889
  914MOL0     H20614   4.088   9.330   7.577  2.3608  1.2584  1.0378
  914MOL0     H20615   4.051   9.247   7.725 -2.5365 -1.6688 -0.9862
  914MOL0     H20616   3.944   9.177   7.467 -0.3823 -0.1505 -0.2714
  914MOL0     H20617   3.860   9.203   7.627  0.1546 -0.3070  0.2184
  914MOL0     H20618   3.983   8.992   7.704 -1.7182 -2.2973  0.7699
  914MOL0     H20619   4.018   8.963   7.531  2.5115 -2.2571  3.4719
  914MOL0     H20620   3.752   9.017   7.641  1.0752  0.1463  1.1074
  914MOL0     H20621   3.784   8.973   7.472  2.5860  3.6798  0.1575
  914MOL0     H20622   3.890   8.749   7.582  1.3314  2.1627  1.9485
  914MOL0     H20623   3.718   8.749   7.578  1.4866  0.8657 -1.8338
  914MOL0     H20624   3.779   8.890   7.827  0.7093  0.7068  1.5014
  914MOL0     H20625   3.898   8.767   7.822  0.1222 -2.4627  0.2189
  914MOL0     H20626   3.595   8.707   7.780 -0.9477 -1.6598 -0.7385
  914MOL0     H20627   3.733   8.602   7.803  3.1767  2.9075 -3.2392
  914MOL0     H20628   3.749   8.699   8.043 -1.5710  3.1039  3.2985
  914MOL0     H20629   3.588   8.652   8.003  0.9441  0.2591  1.8023
  914MOL0     H20630   4.417   9.059   7.621 -1.2404 -1.2141 -1.2652
  914MOL0     H20631   4.624   9.086   7.474 -0.4610  0.8655  1.2668
  914MOL0     H20632   4.825   9.105   7.117 -0.2326 -0.7814 -0.9947
  914MOL0     H20633   5.002   9.101   6.961 -1.2048 -0.9099 -2.0065
  914MOL0     H20634   4.532   8.616   5.785  2.7003  0.3236 -2.2910
  914MOL0     H20635   4.337   8.467   5.723  0.2888 -1.4467 -1.8360
  914MOL0     H20636   3.808   8.721   5.615  2.1897  1.0292 -0.9147
  914MOL0     H20637   3.598   8.648   5.563  0.7261  1.0640 -2.3649
  914MOL0     H20638   3.500   8.219   5.384  1.4124  0.8960  3.1466
  914MOL0     H20639   3.556   8.336   5.249 -0.0713 -0.9027 -0.9956
  914MOL0     H20640   3.348   8.453   5.291  1.1157 -0.2332  1.8133
  914MOL0     H20641   3.316   8.290   5.217 -1.6603 -0.3712  0.8072
  914MOL0     H20642   3.261   8.394   5.484 -0.8271  1.6448 -1.3122
  914MOL0     H20643   3.250   8.220   5.441 -0.4695  0.3034  1.6870
  914MOL0     H20644   3.107   8.472   5.310  1.7908 -0.5635 -2.4382
  914MOL0     H20645   3.094   8.305   5.245  0.9291  2.6919 -2.1638
  914MOL0     H20646   2.837   8.339   5.599 -0.1696 -0.7427  0.0092
  914MOL0     H20647   3.761   8.280   5.397  0.8372  0.4964 -2.7693
  914MOL0     H20648   3.984   8.361   5.461  0.8677  0.2503  1.6744
  915MOL0     O20649   9.858   2.098   2.838 -0.1525 -0.8126 -0.4320
  915MOL0     C20650   9.835   2.198   2.770  0.9552  0.1103 -0.4665
  915MOL0     O20651   9.789   2.313   2.816 -0.7664  0.3274 -0.1658
  915MOL0     C20652   9.746   2.313   2.952 -1.1930 -0.5459  1.3514
  915MOL0     C20653   9.740   2.430   3.004 -0.4266  0.0745 -0.8336
  915MOL0     C20654   9.682   2.452   3.135 -0.1534  0.4737 -0.3594
  915MOL0     C20655   9.601   2.349   3.192  0.0277 -0.4395 -0.5115
  915MOL0     O20656   9.518   2.375   3.299  0.1027 -0.4822 -0.1674
  915MOL0     C20657   9.539   2.511   3.365  0.5892  0.2500 -0.3613
  915MOL0     C20658   9.431   2.514   3.473 -0.8655 -0.1201 -1.0234
  915MOL0     C20659   9.429   2.656   3.530 -0.6556 -0.5791 -0.3814
  915MOL0     C20660   9.383   2.659   3.669  0.7916 -0.4523 -0.5308
  915MOL0     C20661   9.409   2.782   3.767  0.2978  0.2560 -0.0101
  915MOL0     C20662   9.289   2.880   3.762 -0.5277 -0.2443 -0.0160
  915MOL0     C20663   9.284   2.960   3.893  0.1458 -0.4325 -0.2371
  915MOL0     C20664   9.172   3.067   3.883  0.4057 -1.0181  0.9613
  915MOL0     N20665   9.177   3.167   3.991  0.4664  0.0859  1.0330
  915MOL0     C20666   9.273   3.194   4.078 -0.8521  0.0963  0.4537
  915MOL0     C20667   9.226   3.309   4.132 -0.7378  0.0478  0.3180
  915MOL0     C20668   9.303   3.383   4.239  0.8663  0.8423  0.6776
  915MOL0     C20669   9.225   3.488   4.312 -0.2384 -0.5678 -0.7254
  915MOL0     C20670   9.305   3.555   4.426 -0.4494 -0.6377  0.4072
  915MOL0     C20671   9.218   3.646   4.509  0.8457  0.3522  0.0171
  915MOL0     O20672   9.287   3.719   4.607 -0.4903  0.1822  0.6789
  915MOL0     C20673   9.241   3.835   4.668 -0.2371 -0.0643  0.4729
  915MOL0     C20674   9.120   3.896   4.634 -0.5321 -0.2178 -0.2131
  915MOL0     C20675   9.070   3.997   4.713 -0.4091 -0.4165  0.0307
  915MOL0     C20676   9.141   4.027   4.837 -0.4884 -0.2725  0.0821
  915MOL0     C20677   9.075   4.094   4.946 -0.2629 -0.2961 -0.4630
  915MOL0     O20678   8.944   4.111   4.936 -0.3815  0.6164  0.4400
  915MOL0     C20679   8.885   4.175   5.032 -0.2346  0.6675 -0.4474
  915MOL0     C20680   8.920   4.181   5.175  0.0270  0.3614  0.2824
  915MOL0     C20681   8.866   4.277   5.259  0.2496 -0.8154  1.2515
  915MOL0     C20682   8.764   4.361   5.210 -0.0943  0.6280 -0.5304
  915MOL0     O20683   8.720   4.468   5.280 -1.1930 -1.5055  0.9714
  915MOL0     C20684   8.680   4.452   5.418 -0.2320 -0.5919 -0.2750
  915MOL0     C20685   8.598   4.575   5.460 -0.1856 -0.8325 -0.6412
  915MOL0     C20686   8.453   4.575   5.425  0.4337  0.1955  1.2034
  915MOL0     C20687   8.372   4.693   5.486 -0.0857  0.5489 -0.4463
  915MOL0     C20688   8.229   4.697   5.433  0.2199 -0.3113  0.9391
  915MOL0     C20689   8.215   4.731   5.287 -0.3226 -0.7670 -0.7500
  915MOL0     C20690   8.074   4.748   5.245 -0.3064  0.2364 -0.1692
  915MOL0     C20691   8.079   4.812   5.102 -0.0402  0.1874  0.6926
  915MOL0    Cl20692   8.063   4.990   5.112 -0.2491 -0.0627 -0.1870
  915MOL0     C20693   8.723   4.354   5.083  0.0271  0.6696 -0.6163
  915MOL0     C20694   8.779   4.255   4.997  0.0761  0.3574 -0.8134
  915MOL0     O20695   9.151   4.131   5.041  0.7635  0.5124 -0.4177
  915MOL0     C20696   9.272   3.979   4.861 -0.3718  0.1227 -0.7141
  915MOL0     C20697   9.313   3.885   4.773 -0.5377  0.2553  0.3829
  915MOL0     N20698   9.103   3.345   4.080 -0.2932  0.2762 -0.4823
  915MOL0     N20699   9.069   3.248   3.998  0.5282 -0.1158 -0.4782
  915MOL0     C20700   9.599   2.228   3.128 -0.5930 -0.1258  0.0489
  915MOL0     C20701   9.672   2.215   3.011 -0.1795  0.1661  0.2471
  915MOL0     C20702   9.847   2.188   2.627 -0.0147 -0.2372  1.0219
  915MOL0     C20703   9.842   2.059   2.558  0.1078 -0.1284 -0.0795
  915MOL0     C20704   9.832   2.055   2.414 -0.1347  0.1623 -0.6654
  915MOL0     C20705   9.822   2.168   2.338 -0.2182  0.1731  0.8496
  915MOL0     O20706   9.820   2.170   2.201  0.6702  0.3520 -0.5839
  915MOL0     C20707   9.826   2.047   2.125  0.0059 -0.5871  0.4559
  915MOL0     C20708   9.974   1.999   2.129 -0.3063  0.6956  1.0787
  915MOL0     C20709  10.071   2.079   2.044 -0.7235 -1.2972 -0.5771
  915MOL0     C20710  10.043   2.097   1.896  1.0006  0.1808 -0.6927
  915MOL0     C20711  10.166   2.144   1.831  0.1759 -0.7266  0.1236
  915MOL0     C20712  10.260   2.177   1.762  0.6819  0.1732 -0.1051
  915MOL0     C20713   9.840   2.292   2.407  0.2636 -0.4573 -0.1765
  915MOL0     C20714   9.853   2.301   2.547  0.4011  0.2339 -0.1798
  915MOL0     H20715   9.775   2.518   2.952  2.4530 -3.7648 -6.3724
  915MOL0     H20716   9.688   2.554   3.171 -1.9390  2.2163 -4.3327
  915MOL0     H20717   9.518   2.591   3.294 -0.4951  0.5818  0.3133
  915MOL0     H20718   9.640   2.523   3.405  0.5466  5.1745 -1.0802
  915MOL0     H20719   9.466   2.460   3.562  0.0720  2.6502  0.4304
  915MOL0     H20720   9.335   2.478   3.437 -1.7121  2.0213 -1.0258
  915MOL0     H20721   9.363   2.714   3.464 -1.9109 -1.2539  0.2381
  915MOL0     H20722   9.531   2.694   3.533 -1.0092  0.4096 -0.2912
  915MOL0     H20723   9.275   2.643   3.667  0.6238  0.0465  1.8079
  915MOL0     H20724   9.425   2.575   3.724 -1.8055 -1.1977  0.4715
  915MOL0     H20725   9.508   2.825   3.751  0.6348  2.4042  5.5530
  915MOL0     H20726   9.409   2.747   3.871 -0.1484  2.2157  0.6875
  915MOL0     H20727   9.193   2.828   3.753  0.5191 -2.1166 -1.0672
  915MOL0     H20728   9.286   2.958   3.686 -1.0333  0.8764  1.1144
  915MOL0     H20729   9.263   2.892   3.975  0.6255 -2.3536 -1.6332
  915MOL0     H20730   9.380   3.010   3.905  1.0595 -2.0389 -0.6086
  915MOL0     H20731   9.073   3.020   3.880 -0.1515  0.1475  0.8002
  915MOL0     H20732   9.188   3.130   3.795  1.0473  1.3806  2.7021
  915MOL0     H20733   9.372   3.154   4.099 -1.3200 -0.1826  2.2506
  915MOL0     H20734   9.396   3.424   4.198  1.6014 -0.8313  0.5572
  915MOL0     H20735   9.324   3.305   4.313 -0.2975 -0.6010 -0.4347
  915MOL0     H20736   9.134   3.446   4.354  0.0729 -1.6229 -1.0821
  915MOL0     H20737   9.195   3.556   4.232 -1.8529 -1.8553 -1.2554
  915MOL0     H20738   9.358   3.483   4.488  3.7229  0.4907 -1.4714
  915MOL0     H20739   9.374   3.624   4.376 -0.7419  0.1306  1.0488
  915MOL0     H20740   9.140   3.589   4.560  2.7148 -3.0125 -0.5842
  915MOL0     H20741   9.158   3.707   4.441 -2.1959  0.4087  2.5114
  915MOL0     H20742   9.059   3.867   4.550  2.3471 -2.5225 -1.7133
  915MOL0     H20743   8.972   4.038   4.691 -1.1031 -1.7819  0.4520
  915MOL0     H20744   8.985   4.098   5.203 -1.4198 -0.7621  0.4638
  915MOL0     H20745   8.906   4.303   5.357  0.5679 -1.0366  1.1839
  915MOL0     H20746   8.769   4.451   5.482  0.6041  2.5638 -1.1999
  915MOL0     H20747   8.629   4.356   5.427  2.0772 -2.0529 -1.5776
  915MOL0     H20748   8.637   4.662   5.406  1.2006 -2.7283 -2.9077
  915MOL0     H20749   8.625   4.583   5.565  0.8494 -2.0417 -0.7818
  915MOL0     H20750   8.403   4.483   5.458 -0.0226 -0.2914 -0.6725
  915MOL0     H20751   8.441   4.579   5.316 -1.2726  1.2258  1.3935
  915MOL0     H20752   8.372   4.676   5.594 -1.7492 -1.2355 -0.6638
  915MOL0     H20753   8.421   4.789   5.469 -2.4404  2.0476  0.5845
  915MOL0     H20754   8.182   4.772   5.498  0.2951 -2.6541  3.9210
  915MOL0     H20755   8.182   4.598   5.439  0.0189 -0.3122 -0.4362
  915MOL0     H20756   8.258   4.657   5.219  0.6795  0.2811 -1.2833
  915MOL0     H20757   8.276   4.818   5.261 -2.3768  0.2810 -2.4530
  915MOL0     H20758   8.020   4.654   5.238  0.6253 -0.6844  3.0271
  915MOL0     H20759   8.023   4.821   5.309 -0.8897 -2.5489  2.7667
  915MOL0     H20760   7.989   4.781   5.047  0.4777 -1.2169  0.6126
  915MOL0     H20761   8.173   4.777   5.059 -0.3135 -1.1661  1.1517
  915MOL0     H20762   8.638   4.414   5.055  0.3015  0.4409 -2.0410
  915MOL0     H20763   8.762   4.261   4.890 -1.2018  1.6540 -0.5762
  915MOL0     H20764   9.338   3.996   4.946  0.0004 -2.1268 -0.4933
  915MOL0     H20765   9.406   3.830   4.788 -0.5422 -0.3457 -1.5046
  915MOL0     H20766   9.562   2.139   3.177  2.7769 -0.5511  2.1101
  915MOL0     H20767   9.657   2.118   2.964 -0.8574  1.9101 -3.4649
  915MOL0     H20768   9.841   1.971   2.621 -1.5044 -0.9870 -1.2454
  915MOL0     H20769   9.837   1.959   2.365  0.8838  0.3032 -0.8573
  915MOL0     H20770   9.808   2.076   2.021  3.4540  0.6313  0.0589
  915MOL0     H20771   9.753   1.971   2.155 -1.6417  0.7946  0.1533
  915MOL0     H20772  10.008   1.977   2.231  2.3990 -1.5400 -0.1560
  915MOL0     H20773   9.983   1.901   2.080  3.9588  1.0812  0.7195
  915MOL0     H20774  10.171   2.038   2.055  0.2744  0.9955 -0.6028
  915MOL0     H20775  10.066   2.181   2.084 -1.7783 -1.1347 -1.0813
  915MOL0     H20776  10.010   2.000   1.858 -0.6384  0.1231  0.7199
  915MOL0     H20777   9.961   2.167   1.881  0.9468  0.2121 -0.2826
  915MOL0     H20778  10.344   2.205   1.702 -0.9406 -0.6346 -2.9180
  915MOL0     H20779   9.834   2.386   2.352 -0.2854  1.5344  3.0162
  915MOL0     H20780   9.849   2.401   2.591  1.4652  0.6914 -1.0702
  916MOL0     O20781   5.581   1.361   4.123 -0.4167  0.3795  0.1407
  916MOL0     C20782   5.531   1.316   4.021  0.1151  0.4918  0.6211
  916MOL0     O20783   5.559   1.341   3.890  0.5556  0.0633 -0.3793
  916MOL0     C20784   5.671   1.418   3.860 -0.3204 -1.2563 -0.1195
  916MOL0     C20785   5.644   1.524   3.771 -0.6977  0.3562  1.0085
  916MOL0     C20786   5.734   1.625   3.745  0.1476  0.2366 -0.1752
  916MOL0     C20787   5.868   1.609   3.787 -1.2298 -0.2784  0.0333
  916MOL0     O20788   5.967   1.706   3.765  0.2264 -0.1234 -0.3299
  916MOL0     C20789   5.933   1.811   3.665 -0.1348  1.6557 -0.3918
  916MOL0     C20790   6.057   1.879   3.617 -0.1437  0.7919  0.8133
  916MOL0     C20791   6.037   2.021   3.568 -0.0857 -0.3909  0.3392
  916MOL0     C20792   6.157   2.098   3.513 -0.7801  0.5402  0.0932
  916MOL0     C20793   6.125   2.252   3.507 -0.0676  0.4049 -0.4652
  916MOL0     C20794   6.251   2.334   3.524  0.3308 -0.1154 -0.4082
  916MOL0     C20795   6.213   2.477   3.499  0.3906  0.3254 -0.0317
  916MOL0     C20796   6.124   2.536   3.619 -0.3469 -0.2102 -0.4121
  916MOL0     N20797   6.096   2.686   3.613 -0.4803  0.3015 -0.3151
  916MOL0     C20798   6.182   2.788   3.653  0.1813  0.6047 -0.0296
  916MOL0     C20799   6.105   2.900   3.646 -0.4588  0.2459 -0.1878
  916MOL0     C20800   6.136   3.043   3.670 -1.0601 -0.5255 -0.0241
  916MOL0     C20801   6.161   3.123   3.540  0.0026  0.6172 -0.7319
  916MOL0     C20802   6.263   3.066   3.440 -1.0374  0.0418 -1.3347
  916MOL0     C20803   6.186   2.992   3.331  0.5140  0.8415  1.1369
  916MOL0     O20804   6.098   3.078   3.262  0.1185 -0.8080  0.4692
  916MOL0     C20805   6.155   3.147   3.155  0.2852 -0.3962  0.9574
  916MOL0     C20806   6.293   3.169   3.117 -0.7367  0.3854  0.0861
  916MOL0     C20807   6.343   3.252   3.019 -0.3484  1.4150 -0.4584
  916MOL0     C20808   6.257   3.319   2.937  0.2763 -0.7106 -0.5277
  916MOL0     C20809   6.310   3.411   2.835  0.5091 -1.1210 -0.1794
  916MOL0     O20810   6.229   3.458   2.732  0.7729  0.4297 -0.4661
  916MOL0     C20811   6.287   3.525   2.627 -0.0927 -0.1486 -1.0063
  916MOL0     C20812   6.231   3.641   2.593 -0.2604 -0.4172  1.4823
  916MOL0     C20813   6.292   3.725   2.499  0.0165  0.6415  0.7878
  916MOL0     C20814   6.393   3.674   2.421 -0.2187  0.1696 -1.4853
  916MOL0     O20815   6.430   3.758   2.318 -0.7255 -0.0517 -0.2357
  916MOL0     C20816   6.570   3.753   2.275 -0.1165  0.6455  0.2563
  916MOL0     C20817   6.666   3.840   2.361 -0.1506 -0.0505  0.7743
  916MOL0     C20818   6.807   3.802   2.367 -0.0312 -0.6005  0.3360
  916MOL0     C20819   6.889   3.869   2.485 -0.5662  0.4031 -0.2620
  916MOL0     C20820   7.033   3.819   2.500 -0.3527 -0.0579  0.0403
  916MOL0     C20821   7.045   3.732   2.630  0.6792  0.7093 -0.2423
  916MOL0     C20822   7.172   3.658   2.663  0.3937 -0.7560  0.5065
  916MOL0     C20823   7.166   3.550   2.764  0.2783 -0.2064 -1.1351
  916MOL0    Cl20824   7.252   3.602   2.910  0.1544  0.4336  0.2057
  916MOL0     C20825   6.446   3.542   2.441 -0.0318 -0.2610 -0.7612
  916MOL0     C20826   6.393   3.471   2.550 -0.0026 -0.1910 -0.6130
  916MOL0     O20827   6.427   3.437   2.845  0.5944 -1.1835 -0.0968
  916MOL0     C20828   6.124   3.301   2.962  0.1561 -0.1711  0.4977
  916MOL0     C20829   6.072   3.221   3.069  0.1939  0.8416  0.0056
  916MOL0     N20830   5.978   2.869   3.613  0.0444  1.0108 -0.4076
  916MOL0     N20831   5.968   2.744   3.602 -0.1460 -0.1085  0.4474
  916MOL0     C20832   5.902   1.483   3.852 -0.2515 -0.1138  0.3402
  916MOL0     C20833   5.803   1.390   3.889  0.0605 -0.2116  0.7792
  916MOL0     C20834   5.441   1.202   4.032  0.1372  0.2667 -1.0622
  916MOL0     C20835   5.402   1.115   3.922 -0.1934 -0.6545  0.4224
  916MOL0     C20836   5.309   1.016   3.941  0.0842 -0.3501 -0.5653
  916MOL0     C20837   5.239   1.000   4.061  0.1756 -0.5667 -0.7004
  916MOL0     O20838   5.159   0.893   4.069 -0.3507 -0.4231  0.3731
  916MOL0     C20839   5.108   0.857   4.197 -0.4949 -0.2061 -0.0409
  916MOL0     C20840   5.007   0.743   4.178  1.0448 -0.2315 -0.4448
  916MOL0     C20841   5.070   0.614   4.217  0.3109  0.2188 -0.2184
  916MOL0     C20842   5.092   0.523   4.097 -0.2824  0.5088  0.3429
  916MOL0     C20843   5.146   0.400   4.150 -0.2836  0.5860  0.0401
  916MOL0     C20844   5.210   0.307   4.209  1.6514  0.1006  0.2007
  916MOL0     C20845   5.255   1.099   4.165 -0.2137  0.3837  0.0902
  916MOL0     C20846   5.365   1.188   4.153 -0.7620  0.2242  0.4325
  916MOL0     H20847   5.548   1.551   3.726 -1.6072 -2.8423  0.7635
  916MOL0     H20848   5.701   1.714   3.692 -1.7105  0.3055  1.0206
  916MOL0     H20849   5.880   1.894   3.713 -2.3609 -0.9910  2.0155
  916MOL0     H20850   5.870   1.784   3.580  0.4258  0.2014 -0.3600
  916MOL0     H20851   6.098   1.807   3.546  0.1251  1.6616  0.0673
  916MOL0     H20852   6.137   1.888   3.691  1.1471  0.5745 -0.5087
  916MOL0     H20853   5.992   2.082   3.647  1.3653  4.9892 -2.4848
  916MOL0     H20854   5.963   2.023   3.487  0.8424 -0.6504 -0.5401
  916MOL0     H20855   6.246   2.077   3.573 -0.8993 -0.3648 -0.0311
  916MOL0     H20856   6.189   2.071   3.412  3.6066  1.9611  0.8590
  916MOL0     H20857   6.058   2.278   3.589  1.7355 -0.5701  1.4118
  916MOL0     H20858   6.078   2.276   3.411  0.7392  2.7269 -0.3285
  916MOL0     H20859   6.329   2.299   3.456  2.1752  0.8520  1.1239
  916MOL0     H20860   6.282   2.321   3.628  0.2837 -0.6100 -0.4556
  916MOL0     H20861   6.304   2.538   3.507 -0.3649  1.2489  3.7351
  916MOL0     H20862   6.162   2.493   3.404 -1.1197  0.0944  0.7073
  916MOL0     H20863   6.178   2.523   3.713 -0.4878  0.3651 -0.2467
  916MOL0     H20864   6.033   2.475   3.630  0.3662 -1.6046 -1.7659
  916MOL0     H20865   6.282   2.759   3.687 -0.5185 -0.9242  0.8582
  916MOL0     H20866   6.238   3.035   3.709 -0.3372  0.0294 -1.7214
  916MOL0     H20867   6.076   3.104   3.738  0.6841  1.7607 -0.3947
  916MOL0     H20868   6.205   3.218   3.571 -0.3005  0.1353  1.3189
  916MOL0     H20869   6.064   3.152   3.497 -1.5653 -0.7862  1.6089
  916MOL0     H20870   6.311   3.152   3.393 -2.2388  1.8253  0.4829
  916MOL0     H20871   6.331   2.994   3.486  0.3325  2.2691  0.3468
  916MOL0     H20872   6.125   2.911   3.371  0.2105  1.1191  1.2348
  916MOL0     H20873   6.254   2.942   3.261 -1.6525  0.2844 -0.6931
  916MOL0     H20874   6.370   3.120   3.176  0.2416  2.4522  0.6283
  916MOL0     H20875   6.450   3.266   3.010 -0.2603  0.9538 -0.1527
  916MOL0     H20876   6.134   3.665   2.636 -0.5821  1.8490 -0.3055
  916MOL0     H20877   6.249   3.819   2.466  0.6732 -0.3040 -3.3566
  916MOL0     H20878   6.572   3.789   2.171 -1.2173 -4.5746 -1.9061
  916MOL0     H20879   6.606   3.650   2.270 -0.6930  0.3611  1.5068
  916MOL0     H20880   6.635   3.837   2.466  1.4707  0.5840  1.2942
  916MOL0     H20881   6.660   3.945   2.332  5.2231  1.1226  2.7400
  916MOL0     H20882   6.863   3.825   2.275 -0.4857  3.3604  0.8863
  916MOL0     H20883   6.804   3.693   2.376 -0.0877 -0.7330 -0.9999
  916MOL0     H20884   6.896   3.978   2.477  6.4420  0.5673  1.6796
  916MOL0     H20885   6.828   3.846   2.573 -3.9559  1.0068 -2.2439
  916MOL0     H20886   7.101   3.905   2.495  1.5173 -0.8842  5.2956
  916MOL0     H20887   7.054   3.753   2.415 -2.9385  1.4706 -1.9349
  916MOL0     H20888   6.971   3.652   2.621  0.0195  0.9965  1.9475
  916MOL0     H20889   7.017   3.793   2.716  3.6013 -0.4424  1.6789
  916MOL0     H20890   7.186   3.607   2.567  0.0059  1.4641 -0.8200
  916MOL0     H20891   7.260   3.722   2.673  0.4315 -0.7742  0.3079
  916MOL0     H20892   7.205   3.456   2.724 -1.1116 -1.5843  0.5703
  916MOL0     H20893   7.064   3.528   2.798  0.4105  2.8717  1.7300
  916MOL0     H20894   6.517   3.494   2.374 -0.9182 -2.9011  0.0573
  916MOL0     H20895   6.422   3.371   2.581 -1.8748 -1.4500 -2.6095
  916MOL0     H20896   6.056   3.359   2.901  1.4208  2.5141  1.4699
  916MOL0     H20897   5.971   3.238   3.105  1.1288  2.1446  2.2122
  916MOL0     H20898   6.007   1.460   3.868  0.7103 -0.3966 -4.7857
  916MOL0     H20899   5.817   1.301   3.950 -1.4920 -1.6066 -0.8164
  916MOL0     H20900   5.444   1.121   3.822 -0.8359 -2.9245 -0.0585
  916MOL0     H20901   5.305   0.951   3.854 -1.7273  2.3414 -2.6470
  916MOL0     H20902   5.044   0.935   4.240  0.4153  1.4791 -1.5729
  916MOL0     H20903   5.192   0.833   4.263  1.6772  2.4029 -1.6442
  916MOL0     H20904   4.923   0.764   4.244 -0.4585 -1.1979 -1.9583
  916MOL0     H20905   4.978   0.743   4.072  0.3860 -0.3116 -0.2653
  916MOL0     H20906   5.009   0.558   4.289 -0.8661 -0.3441 -1.5884
  916MOL0     H20907   5.166   0.630   4.266  1.7466 -2.4027 -1.9790
  916MOL0     H20908   5.004   0.498   4.037  1.5432  2.6068 -3.6078
  916MOL0     H20909   5.166   0.568   4.031 -1.1536 -1.3846 -2.0565
  916MOL0     H20910   5.245   0.228   4.271  1.4704 -1.0404 -1.1036
  916MOL0     H20911   5.200   1.108   4.257 -2.4206 -2.7174 -0.7639
  916MOL0     H20912   5.400   1.240   4.242  0.2579  1.2961 -0.5509
  917MOL0     O20913   5.090   5.378   3.367 -0.7644  0.3593 -0.4143
  917MOL0     C20914   5.199   5.416   3.320  0.3421  0.0161 -0.7063
  917MOL0     O20915   5.265   5.528   3.350  0.1767 -0.1575 -0.8845
  917MOL0     C20916   5.243   5.588   3.476 -0.9678 -1.2339  0.4697
  917MOL0     C20917   5.244   5.517   3.592 -0.5840  0.5721  0.1318
  917MOL0     C20918   5.237   5.571   3.725 -0.1205 -0.4901 -0.0922
  917MOL0     C20919   5.240   5.711   3.739  0.4284 -0.2988 -0.8335
  917MOL0     O20920   5.236   5.756   3.875 -0.5268  0.4186  0.0158
  917MOL0     C20921   5.242   5.896   3.902 -0.1876  0.9277  0.1409
  917MOL0     C20922   5.296   5.908   4.046  0.1304 -0.4045 -0.4142
  917MOL0     C20923   5.328   6.054   4.084  0.4064  0.3407 -0.4817
  917MOL0     C20924   5.398   6.059   4.224 -0.7019 -0.5436 -0.0161
  917MOL0     C20925   5.418   6.199   4.285 -0.1514 -0.2340  0.0899
  917MOL0     C20926   5.281   6.259   4.330  0.4912 -0.4026 -0.6672
  917MOL0     C20927   5.287   6.396   4.397 -0.7000 -0.1767 -0.0376
  917MOL0     C20928   5.269   6.385   4.550 -0.1396 -0.8381 -0.5460
  917MOL0     N20929   5.288   6.518   4.606  0.1324  0.0748  0.4248
  917MOL0     C20930   5.404   6.579   4.627  0.6226 -0.5729  0.4980
  917MOL0     C20931   5.381   6.695   4.693  0.7301 -0.3088  0.8797
  917MOL0     C20932   5.468   6.814   4.731 -0.4624  0.0796  0.4552
  917MOL0     C20933   5.517   6.798   4.878  0.8395 -0.4520  0.2667
  917MOL0     C20934   5.422   6.879   4.974  0.2391 -1.0101 -0.0004
  917MOL0     C20935   5.420   7.030   4.950 -0.7226  0.9731 -0.0031
  917MOL0     O20936   5.555   7.078   4.927 -0.1974  0.3796 -0.1711
  917MOL0     C20937   5.650   7.099   5.031  0.4633 -0.0718  0.2095
  917MOL0     C20938   5.760   7.177   4.996  0.1242  0.0257  0.0508
  917MOL0     C20939   5.854   7.206   5.094 -0.4331  0.5707  0.8295
  917MOL0     C20940   5.850   7.162   5.226  0.5199 -0.6588  0.8918
  917MOL0     C20941   5.946   7.195   5.325  0.1700  1.0165  0.8016
  917MOL0     O20942   6.078   7.182   5.319 -0.2646 -1.0225  0.2147
  917MOL0     C20943   6.144   7.198   5.444  0.2999 -1.1847  0.7537
  917MOL0     C20944   6.137   7.315   5.522  0.3854  1.4355 -0.6810
  917MOL0     C20945   6.198   7.319   5.647  0.1276  0.3268 -0.4450
  917MOL0     C20946   6.298   7.225   5.684 -0.4834  0.3795  0.1780
  917MOL0     O20947   6.383   7.226   5.791  0.6130  0.1581 -0.0428
  917MOL0     C20948   6.410   7.351   5.846 -0.9256 -0.2752 -0.5956
  917MOL0     C20949   6.527   7.347   5.948  0.2505  0.3577  0.3254
  917MOL0     C20950   6.664   7.306   5.881  0.3050  0.5937 -0.1437
  917MOL0     C20951   6.731   7.431   5.818 -1.0801  0.6119  1.1328
  917MOL0     C20952   6.866   7.398   5.738  0.0282  0.1565 -0.3000
  917MOL0     C20953   6.846   7.293   5.639  0.6744 -0.0874  0.2124
  917MOL0     C20954   6.978   7.276   5.551  0.3707 -0.8120  0.0468
  917MOL0     C20955   7.036   7.415   5.492 -0.5464 -0.1716 -0.0110
  917MOL0    Cl20956   7.168   7.481   5.601 -0.1203  0.0897  0.2773
  917MOL0     C20957   6.308   7.108   5.605 -1.3678  0.1631 -0.5670
  917MOL0     C20958   6.238   7.105   5.481 -0.9301  0.3563 -0.6251
  917MOL0     O20959   5.887   7.241   5.426 -0.6394  0.2157 -0.1155
  917MOL0     C20960   5.731   7.100   5.263  0.3453  0.1934 -0.3053
  917MOL0     C20961   5.638   7.060   5.169  1.6057  0.2673  1.3243
  917MOL0     N20962   5.241   6.704   4.708 -0.8287  0.7322 -0.0458
  917MOL0     N20963   5.183   6.604   4.643 -0.1856 -0.5227 -1.1017
  917MOL0     C20964   5.239   5.788   3.619 -0.0085 -0.6071 -0.5557
  917MOL0     C20965   5.232   5.722   3.494  0.0439 -0.4906 -0.0344
  917MOL0     C20966   5.274   5.305   3.241  0.4213  0.0019 -0.4453
  917MOL0     C20967   5.413   5.304   3.203 -0.1446  0.0748  0.0100
  917MOL0     C20968   5.483   5.207   3.137  1.0410 -0.8850 -0.6613
  917MOL0     C20969   5.407   5.088   3.111 -0.4228 -0.8815  1.0721
  917MOL0     O20970   5.491   4.987   3.053  1.1086 -0.5066  0.1527
  917MOL0     C20971   5.429   4.872   2.994  0.3945  0.5834  0.0183
  917MOL0     C20972   5.541   4.784   2.957 -0.6697  0.9940  0.4815
  917MOL0     C20973   5.495   4.663   2.877  0.3453 -0.3622 -0.2195
  917MOL0     C20974   5.612   4.579   2.821  0.0853  0.3172 -0.4201
  917MOL0     C20975   5.694   4.654   2.722 -0.2480  1.0623  0.4407
  917MOL0     C20976   5.754   4.730   2.648 -0.2858 -0.0143  0.0007
  917MOL0     C20977   5.273   5.086   3.124 -0.4217 -0.8053 -0.5373
  917MOL0     C20978   5.207   5.189   3.193  0.7172 -0.2656 -0.2283
  917MOL0     H20979   5.244   5.408   3.589 -0.0770  0.4479  2.5408
  917MOL0     H20980   5.234   5.506   3.812 -0.7554 -1.0099 -0.4902
  917MOL0     H20981   5.141   5.939   3.900 -1.0290 -0.9353 -2.0036
  917MOL0     H20982   5.309   5.948   3.833  1.4211  2.8238  2.9845
  917MOL0     H20983   5.395   5.861   4.054  0.3853  0.1959  0.0512
  917MOL0     H20984   5.213   5.882   4.111 -2.2041  2.1294 -2.1466
  917MOL0     H20985   5.236   6.113   4.085  1.6644  2.4180 -0.7765
  917MOL0     H20986   5.404   6.099   4.020 -0.8044  3.3450 -0.0060
  917MOL0     H20987   5.333   6.014   4.300 -2.2221  3.1950  1.1564
  917MOL0     H20988   5.493   6.006   4.230 -0.1741  0.5170  2.4121
  917MOL0     H20989   5.462   6.264   4.210  0.2450  1.6329  1.8528
  917MOL0     H20990   5.484   6.194   4.372 -0.9807 -1.0408  0.6999
  917MOL0     H20991   5.211   6.202   4.392 -0.8275  1.0780 -0.7286
  917MOL0     H20992   5.227   6.268   4.236 -3.4486  0.8992  1.4576
  917MOL0     H20993   5.381   6.449   4.378 -1.4311  1.8489  1.6638
  917MOL0     H20994   5.209   6.454   4.348 -0.4065 -1.0701 -1.6585
  917MOL0     H20995   5.350   6.329   4.597  1.1119  1.8952  0.7750
  917MOL0     H20996   5.178   6.333   4.583  0.1826 -0.1480  1.5731
  917MOL0     H20997   5.504   6.543   4.608  1.1161  0.6088  0.7700
  917MOL0     H20998   5.410   6.900   4.694 -0.5625 -0.3585 -0.4388
  917MOL0     H20999   5.559   6.799   4.673  0.0292 -2.9793  1.8334
  917MOL0     H21000   5.621   6.830   4.884  1.9290 -3.8041  1.4311
  917MOL0     H21001   5.523   6.690   4.898  1.3560 -1.3741 -3.8638
  917MOL0     H21002   5.317   6.846   4.969  0.9803 -3.5518 -0.3254
  917MOL0     H21003   5.460   6.863   5.075  1.6841  1.8462  0.0023
  917MOL0     H21004   5.373   7.083   5.033  0.5455  0.3275  1.1671
  917MOL0     H21005   5.368   7.045   4.855 -2.3970  0.7872  0.8345
  917MOL0     H21006   5.779   7.227   4.902  1.1851 -3.2260 -1.6443
  917MOL0     H21007   5.939   7.269   5.070  2.5800 -3.4046  0.0639
  917MOL0     H21008   6.069   7.392   5.488 -3.0247 -1.9277 -2.1092
  917MOL0     H21009   6.159   7.392   5.717  0.2459 -1.5001  1.6281
  917MOL0     H21010   6.319   7.380   5.899  0.2812 -0.6720  1.8217
  917MOL0     H21011   6.440   7.421   5.769  2.7078  0.1906  1.0572
  917MOL0     H21012   6.509   7.275   6.029  0.0744  0.8142  0.6920
  917MOL0     H21013   6.527   7.442   6.002 -3.5038  0.8205 -0.1875
  917MOL0     H21014   6.643   7.233   5.802  1.0591  1.0562 -0.7831
  917MOL0     H21015   6.731   7.262   5.954  2.1626  1.8921 -0.9912
  917MOL0     H21016   6.656   7.463   5.745 -0.2387 -2.4361 -1.2828
  917MOL0     H21017   6.745   7.509   5.893 -0.9087 -0.3891  2.1678
  917MOL0     H21018   6.941   7.363   5.810  0.9614 -0.3487 -1.4780
  917MOL0     H21019   6.890   7.492   5.687  0.9470 -0.6976 -1.4784
  917MOL0     H21020   6.757   7.320   5.581 -1.0809  1.3792  3.3388
  917MOL0     H21021   6.839   7.193   5.684  7.4727 -1.1332 -0.0207
  917MOL0     H21022   7.052   7.233   5.619  1.5195 -1.0444 -1.2975
  917MOL0     H21023   6.950   7.204   5.473 -2.9521  0.8019 -0.4147
  917MOL0     H21024   6.958   7.492   5.495  1.3561  1.9489 -1.3646
  917MOL0     H21025   7.067   7.414   5.387  0.7230  2.1230  0.2655
  917MOL0     H21026   6.378   7.028   5.625 -2.3658 -0.7186 -0.5370
  917MOL0     H21027   6.287   7.038   5.412 -1.6382 -1.5019  0.5798
  917MOL0     H21028   5.720   7.082   5.369 -1.7665  1.2837 -0.2822
  917MOL0     H21029   5.538   7.024   5.191  0.0969  0.5968 -3.6809
  917MOL0     H21030   5.233   5.896   3.622 -2.2677 -0.5381 -3.2665
  917MOL0     H21031   5.222   5.794   3.413  0.3519 -0.8884 -0.4340
  917MOL0     H21032   5.451   5.396   3.245 -0.4484  0.8653 -1.3920
  917MOL0     H21033   5.589   5.212   3.115  1.6485 -0.1110  2.0759
  917MOL0     H21034   5.374   4.899   2.903 -2.1180 -5.0121 -0.5294
  917MOL0     H21035   5.361   4.819   3.062 -0.8386  0.1817 -1.4730
  917MOL0     H21036   5.599   4.856   2.898  0.2711  1.5805  2.0636
  917MOL0     H21037   5.603   4.742   3.037 -2.7209 -2.6627  0.3772
  917MOL0     H21038   5.442   4.703   2.791  2.8615 -0.1752 -1.7708
  917MOL0     H21039   5.429   4.610   2.946  0.6059  0.5452  0.7645
  917MOL0     H21040   5.664   4.544   2.911 -1.5102 -1.5160 -0.1440
  917MOL0     H21041   5.557   4.503   2.764  1.8269  0.9420 -3.1155
  917MOL0     H21042   5.813   4.807   2.602  0.7860 -1.8388 -1.8302
  917MOL0     H21043   5.220   4.997   3.090 -1.8751  0.4176 -1.5999
  917MOL0     H21044   5.099   5.185   3.199  0.4509  1.6390 -2.1106
  918MOL0     O21045   7.110  11.157   4.130 -0.4920  0.8601 -0.0083
  918MOL0     C21046   7.151  11.085   4.034 -0.4268  0.1283 -0.4217
  918MOL0     O21047   7.252  11.111   3.955  0.0387 -0.0925  0.0296
  918MOL0     C21048   7.319  11.232   3.941  0.5436 -0.5086 -0.3044
  918MOL0     C21049   7.455  11.217   3.928  0.5076  0.0752 -1.0636
  918MOL0     C21050   7.533  11.337   3.913 -0.5494  0.3543  0.0521
  918MOL0     C21051   7.475  11.466   3.911 -0.1809 -0.3982 -0.5230
  918MOL0     O21052   7.562  11.575   3.887  0.0754  0.6103 -0.5123
  918MOL0     C21053   7.523  11.702   3.925 -0.0056 -0.6150  0.4583
  918MOL0     C21054   7.553  11.731   4.075  0.5865  0.3451  1.0377
  918MOL0     C21055   7.700  11.706   4.105  0.2542  0.0818 -0.3762
  918MOL0     C21056   7.804  11.785   4.013  0.2473  0.4401  0.3470
  918MOL0     C21057   7.950  11.735   4.054  0.0873  0.6605  0.4719
  918MOL0     C21058   8.007  11.621   3.958 -0.3099 -0.2723  0.2772
  918MOL0     C21059   8.062  11.684   3.833  0.0833 -0.6836  0.0698
  918MOL0     C21060   8.152  11.592   3.742  0.5961  1.0521  0.2466
  918MOL0     N21061   8.191  11.651   3.618 -0.0615 -0.7356  0.4963
  918MOL0     C21062   8.329  11.654   3.594  0.3035 -0.3617  0.9505
  918MOL0     C21063   8.343  11.679   3.463  0.5402  0.7370 -0.0260
  918MOL0     C21064   8.469  11.699   3.378  0.7431  0.3713 -0.6808
  918MOL0     C21065   8.599  11.641   3.433  0.4200 -0.8821 -0.9776
  918MOL0     C21066   8.724  11.655   3.348 -0.2614 -0.0752 -0.7930
  918MOL0     C21067   8.796  11.515   3.327 -0.7454  1.1379 -0.3516
  918MOL0     O21068   8.704  11.401   3.300 -0.7104  0.0540  0.5308
  918MOL0     C21069   8.604  11.413   3.200 -0.3990 -0.8247 -0.0310
  918MOL0     C21070   8.613  11.495   3.089  0.2892 -0.5273 -0.2426
  918MOL0     C21071   8.519  11.490   2.991  0.6154  0.1942  0.0015
  918MOL0     C21072   8.401  11.416   3.010 -0.0236 -0.6214 -0.5870
  918MOL0     C21073   8.294  11.414   2.905  0.7278  0.0013 -0.1880
  918MOL0     O21074   8.188  11.324   2.919  0.6592  0.4858 -1.0946
  918MOL0     C21075   8.076  11.323   2.849 -0.7806 -0.3232  0.7399
  918MOL0     C21076   7.965  11.320   2.928  0.2173  0.2628  0.5192
  918MOL0     C21077   7.837  11.344   2.869  0.8298  0.2981  1.0158
  918MOL0     C21078   7.829  11.374   2.733 -0.4568  1.2418 -0.8170
  918MOL0     O21079   7.703  11.382   2.693  0.8642 -0.7495 -1.3914
  918MOL0     C21080   7.680  11.412   2.557  0.6382 -1.0995  0.2357
  918MOL0     C21081   7.541  11.474   2.529 -0.7763  0.1707 -1.0176
  918MOL0     C21082   7.429  11.403   2.610  0.7489  0.1313 -0.2378
  918MOL0     C21083   7.288  11.428   2.550 -0.1707  1.3065  0.0355
  918MOL0     C21084   7.258  11.578   2.535  0.7482  0.2398 -0.0493
  918MOL0     C21085   7.230  11.659   2.661  0.8657 -0.5815 -0.2367
  918MOL0     C21086   7.266  11.804   2.646  0.0095  0.1233 -0.6783
  918MOL0     C21087   7.183  11.889   2.547  0.6191 -0.0890 -0.3205
  918MOL0    Cl21088   7.194  11.855   2.368 -0.6377  0.0249  0.6049
  918MOL0     C21089   7.944  11.372   2.651  0.3697  0.8354  0.0163
  918MOL0     C21090   8.066  11.335   2.714 -0.6384  0.6091 -0.7827
  918MOL0     O21091   8.303  11.501   2.819 -1.2787 -0.1253 -0.1186
  918MOL0     C21092   8.383  11.346   3.133  0.2980  0.2943  0.0058
  918MOL0     C21093   8.486  11.337   3.220 -0.8614  0.6742  0.5767
  918MOL0     N21094   8.214  11.676   3.412  0.6209 -0.0982 -0.0626
  918MOL0     N21095   8.121  11.665   3.503 -0.0106 -0.1565 -0.0439
  918MOL0     C21096   7.332  11.472   3.906 -0.4034  0.2562  0.5039
  918MOL0     C21097   7.253  11.352   3.918 -0.2360 -0.0880 -0.1180
  918MOL0     C21098   7.111  10.946   4.032 -0.3281 -0.6138  0.3981
  918MOL0     C21099   7.162  10.845   3.957 -0.0894 -0.3680  0.8321
  918MOL0     C21100   7.124  10.704   3.972  0.0246 -0.4811  0.1086
  918MOL0     C21101   7.009  10.677   4.052  0.2087  0.7675 -0.2402
  918MOL0     O21102   6.955  10.550   4.040  1.3838  0.8352 -0.5660
  918MOL0     C21103   6.870  10.498   4.142  0.6793  0.9851 -0.4605
  918MOL0     C21104   6.820  10.357   4.112 -0.2089 -0.6482  0.0687
  918MOL0     C21105   6.714  10.351   4.011 -0.6248 -0.0245 -0.0899
  918MOL0     C21106   6.632  10.220   4.005  0.4019 -1.3241  0.2098
  918MOL0     C21107   6.552  10.185   4.121 -1.3019  0.7315  0.4082
  918MOL0     C21108   6.476  10.173   4.216  0.0983  0.3093  0.0544
  918MOL0     C21109   6.943  10.784   4.112 -0.0928  0.4116  0.6615
  918MOL0     C21110   6.998  10.908   4.110 -0.0081  0.4158  0.2081
  918MOL0     H21111   7.497  11.119   3.947 -2.2045 -1.4531 -2.3060
  918MOL0     H21112   7.639  11.324   3.892 -1.2472 -1.5858 -2.9050
  918MOL0     H21113   7.414  11.709   3.916  0.0574 -0.0169  0.0982
  918MOL0     H21114   7.565  11.776   3.856 -0.7184  0.6626  1.3591
  918MOL0     H21115   7.481  11.686   4.143 -0.7501  0.6799 -0.1092
  918MOL0     H21116   7.536  11.835   4.105 -1.4888 -0.5873  3.5319
  918MOL0     H21117   7.721  11.600   4.087  0.8875 -0.1009  1.2409
  918MOL0     H21118   7.722  11.731   4.210 -1.9335  1.5336 -0.2007
  918MOL0     H21119   7.784  11.785   3.905  0.1098  2.2753  0.3298
  918MOL0     H21120   7.803  11.892   4.037  1.8270  0.5206  0.2070
  918MOL0     H21121   7.933  11.699   4.156 -0.2731  0.0171  0.1952
  918MOL0     H21122   8.017  11.821   4.060 -0.4966  1.0713  1.2483
  918MOL0     H21123   7.928  11.547   3.943 -0.6463  0.0214  0.5950
  918MOL0     H21124   8.089  11.568   4.008  0.2672 -0.9280 -1.2926
  918MOL0     H21125   7.980  11.702   3.763  1.8069  0.8582 -1.7004
  918MOL0     H21126   8.111  11.781   3.848  0.4148  0.1582 -4.8172
  918MOL0     H21127   8.095  11.499   3.731 -1.0230  1.9209  0.9714
  918MOL0     H21128   8.232  11.560   3.809 -0.0914 -0.6413  0.2987
  918MOL0     H21129   8.408  11.638   3.667  2.5305  1.7267 -0.8230
  918MOL0     H21130   8.464  11.803   3.346 -4.2529  0.8786  0.8566
  918MOL0     H21131   8.442  11.637   3.291 -0.8317  2.6520 -1.9023
  918MOL0     H21132   8.575  11.543   3.474 -1.8258  0.6148  1.5782
  918MOL0     H21133   8.622  11.702   3.520 -0.0208 -1.1880 -0.6428
  918MOL0     H21134   8.697  11.689   3.247 -2.6441 -2.3789 -1.0496
  918MOL0     H21135   8.781  11.734   3.398 -2.6000  0.3562  1.3821
  918MOL0     H21136   8.877  11.505   3.400  1.2700 -2.0522 -2.7315
  918MOL0     H21137   8.857  11.526   3.236  1.3443  4.2566  1.2491
  918MOL0     H21138   8.701  11.550   3.059 -0.3725  0.6133 -0.1213
  918MOL0     H21139   8.534  11.547   2.900 -0.0915  1.5914  0.7304
  918MOL0     H21140   7.980  11.295   3.033 -2.0852 -1.3048  0.5523
  918MOL0     H21141   7.746  11.345   2.927  0.4127  1.1408  0.3586
  918MOL0     H21142   7.688  11.315   2.506  1.6741 -2.9811  3.6685
  918MOL0     H21143   7.751  11.478   2.506 -3.1410  1.7746 -1.8412
  918MOL0     H21144   7.520  11.475   2.422  1.1003 -2.3521 -1.4945
  918MOL0     H21145   7.546  11.575   2.572 -1.5632  0.1923 -0.9720
  918MOL0     H21146   7.432  11.433   2.715 -0.9886 -0.3600 -0.0070
  918MOL0     H21147   7.453  11.297   2.622  1.1238  0.5064  3.3696
  918MOL0     H21148   7.299  11.375   2.455 -1.8904 -3.5672  2.2449
  918MOL0     H21149   7.210  11.382   2.611  0.4675  0.2933  0.1002
  918MOL0     H21150   7.166  11.580   2.476  1.2595 -0.6648 -0.9096
  918MOL0     H21151   7.342  11.630   2.488  0.0905 -2.4059 -4.7313
  918MOL0     H21152   7.280  11.619   2.750 -0.1107 -0.9798  0.1434
  918MOL0     H21153   7.127  11.658   2.696  1.1796  0.6323  0.7924
  918MOL0     H21154   7.259  11.850   2.745  1.3086 -0.6002 -0.2305
  918MOL0     H21155   7.369  11.808   2.609  0.5849  2.0942  0.9600
  918MOL0     H21156   7.223  11.988   2.571  1.6206 -0.8316  1.1955
  918MOL0     H21157   7.076  11.885   2.570  0.8388  0.2319  0.8253
  918MOL0     H21158   7.949  11.367   2.542  1.7115 -0.1189  0.1077
  918MOL0     H21159   8.152  11.322   2.648  0.0402  1.1769 -0.0389
  918MOL0     H21160   8.290  11.293   3.151 -1.4889  2.7809 -1.3475
  918MOL0     H21161   8.477  11.279   3.312  0.1502 -1.3621 -0.5270
  918MOL0     H21162   7.279  11.561   3.873  0.3390  0.6270  0.2824
  918MOL0     H21163   7.146  11.360   3.899 -0.4332 -0.5588  0.7710
  918MOL0     H21164   7.245  10.860   3.890 -0.2378 -0.6003  0.5935
  918MOL0     H21165   7.172  10.621   3.920 -0.9693 -0.6808 -0.5153
  918MOL0     H21166   6.782  10.560   4.164 -0.8012 -1.4072  0.7768
  918MOL0     H21167   6.928  10.493   4.235 -2.8973 -1.6600  1.9087
  918MOL0     H21168   6.907  10.306   4.070  0.8384  0.5787  0.6882
  918MOL0     H21169   6.792  10.308   4.205  1.0238  0.8043  1.2498
  918MOL0     H21170   6.755  10.375   3.912 -1.2914 -1.2400 -0.6876
  918MOL0     H21171   6.643  10.433   4.026  1.2734  1.7437 -0.2233
  918MOL0     H21172   6.567  10.211   3.917 -2.3569  1.4624  1.7332
  918MOL0     H21173   6.703  10.142   3.978  0.0205 -1.4546 -0.4161
  918MOL0     H21174   6.432  10.173   4.314  0.4856  0.3997  0.2318
  918MOL0     H21175   6.849  10.773   4.166  0.1097  2.0465  1.3841
  918MOL0     H21176   6.953  10.985   4.172  0.0227  0.3886  0.2649
  919MOL0     O21177   1.645   9.516   0.931  0.5004  0.2519  0.9337
  919MOL0     C21178   1.682   9.538   1.049  0.9009 -0.9317  0.7377
  919MOL0     O21179   1.624   9.641   1.126 -0.3497 -0.3870 -0.5427
  919MOL0     C21180   1.544   9.722   1.047  0.8600  0.0153 -0.7041
  919MOL0     C21181   1.405   9.722   1.044 -1.0301  0.4132  0.7669
  919MOL0     C21182   1.332   9.797   0.953  0.5796  0.0030  1.1403
  919MOL0     C21183   1.411   9.886   0.870 -0.8996  0.4409  0.4870
  919MOL0     O21184   1.330   9.957   0.784  0.7588 -0.3008  0.4995
  919MOL0     C21185   1.374  10.058   0.701 -0.0546 -0.3271 -0.5055
  919MOL0     C21186   1.309  10.194   0.741  0.1774  0.1328  1.2142
  919MOL0     C21187   1.160  10.183   0.711  1.3770 -0.0045 -0.2791
  919MOL0     C21188   1.103  10.319   0.688  0.1291 -0.7587 -0.7449
  919MOL0     C21189   0.950  10.310   0.680  0.9686  0.2078 -0.4559
  919MOL0     C21190   0.894  10.458   0.695  0.5099  0.6403 -0.8424
  919MOL0     C21191   0.928  10.569   0.588 -0.4069 -0.2388 -0.1019
  919MOL0     C21192   0.821  10.557   0.473 -0.5455  0.0208  0.1542
  919MOL0     N21193   0.836  10.652   0.367  0.4760 -0.1891  0.5603
  919MOL0     C21194   0.876  10.628   0.237 -0.2000  0.5086  0.3938
  919MOL0     C21195   0.913  10.744   0.187  0.2420  0.5067  0.4888
  919MOL0     C21196   0.944  10.779   0.047  1.5869  0.5031 -0.0951
  919MOL0     C21197   1.084  10.768   0.005 -0.5674 -0.0889 -0.1480
  919MOL0     C21198   1.096  10.796  -0.141 -0.3815 -0.0082 -0.3172
  919MOL0     C21199   1.250  10.775  -0.178 -0.1902 -0.0107 -0.2882
  919MOL0     O21200   1.280  10.635  -0.184  0.0314 -0.4448 -0.0447
  919MOL0     C21201   1.391  10.599  -0.247 -0.4378 -0.1320  0.0145
  919MOL0     C21202   1.392  10.466  -0.277 -0.5837  0.0859 -0.7954
  919MOL0     C21203   1.493  10.413  -0.353  0.5601 -0.8504  0.2047
  919MOL0     C21204   1.597  10.497  -0.413 -0.9450  0.4651 -0.2847
  919MOL0     C21205   1.710  10.445  -0.500 -0.7009 -0.4093  0.7732
  919MOL0     O21206   1.824  10.523  -0.505 -0.5866  0.1701  0.0014
  919MOL0     C21207   1.939  10.473  -0.560 -0.6964 -0.4004 -0.2841
  919MOL0     C21208   2.002  10.534  -0.671  0.2289 -0.1626 -0.0834
  919MOL0     C21209   2.111  10.476  -0.727 -0.3487 -1.3072 -0.2334
  919MOL0     C21210   2.169  10.358  -0.683  0.7900 -0.4151  0.3723
  919MOL0     O21211   2.271  10.322  -0.757  0.8635  0.4496  0.4785
  919MOL0     C21212   2.372  10.246  -0.691  0.0844  0.3677 -0.2362
  919MOL0     C21213   2.510  10.301  -0.753  0.2454  0.3298  0.0783
  919MOL0     C21214   2.630  10.212  -0.707  1.1375 -0.0781  0.3051
  919MOL0     C21215   2.657  10.205  -0.557  0.8990  0.5385  0.2545
  919MOL0     C21216   2.774  10.105  -0.541  0.6787 -0.3893  0.1641
  919MOL0     C21217   2.917  10.169  -0.552  0.0488  0.3174  0.1323
  919MOL0     C21218   3.028  10.060  -0.523 -0.4118 -0.5580 -0.1413
  919MOL0     C21219   3.173  10.121  -0.552 -0.0093 -0.2726 -0.1969
  919MOL0    Cl21220   3.209  10.268  -0.442 -0.2292 -0.1380  0.1521
  919MOL0     C21221   2.105  10.294  -0.567 -0.7213  0.1286 -0.9959
  919MOL0     C21222   1.990  10.345  -0.514  0.2619 -0.7338  0.2387
  919MOL0     O21223   1.702  10.338  -0.560 -0.1654 -0.2768 -0.1952
  919MOL0     C21224   1.591  10.630  -0.378  0.1343 -0.7497 -0.1075
  919MOL0     C21225   1.492  10.682  -0.299 -1.0925  0.2534 -0.3345
  919MOL0     N21226   0.893  10.841   0.284 -1.1332  0.3711  0.3388
  919MOL0     N21227   0.847  10.792   0.387  0.8288 -0.7187  0.2601
  919MOL0     C21228   1.552   9.903   0.886  0.0865 -0.1529 -0.0932
  919MOL0     C21229   1.615   9.820   0.976 -1.1899 -0.5370  0.0695
  919MOL0     C21230   1.775   9.448   1.111 -0.8474 -0.8094  0.4187
  919MOL0     C21231   1.834   9.330   1.050 -1.1591 -0.1549  0.5527
  919MOL0     C21232   1.920   9.248   1.128 -0.2915 -0.5169 -0.0860
  919MOL0     C21233   1.960   9.283   1.254  0.5494 -0.2623 -0.2000
  919MOL0     O21234   2.049   9.194   1.312  0.0969 -0.4932  0.5934
  919MOL0     C21235   2.048   9.189   1.458 -0.8135 -0.4013  1.1440
  919MOL0     C21236   2.131   9.062   1.505 -0.8924  0.4511 -0.3157
  919MOL0     C21237   2.173   9.071   1.647  0.0305  0.0935 -0.5605
  919MOL0     C21238   2.182   8.932   1.703 -0.6193  0.6146 -0.3562
  919MOL0     C21239   2.269   8.925   1.821  0.1388  0.0438 -0.1526
  919MOL0     C21240   2.331   8.943   1.928 -0.1730  0.9591  0.2318
  919MOL0     C21241   1.910   9.399   1.308 -0.0451 -0.3983 -0.2761
  919MOL0     C21242   1.826   9.485   1.234  0.8491  0.8120  0.0790
  919MOL0     H21243   1.358   9.660   1.120 -0.9990 -0.2185  0.2824
  919MOL0     H21244   1.224   9.797   0.945  0.6080 -3.6403 -2.6634
  919MOL0     H21245   1.351  10.027   0.599 -1.4547 -0.6032 -0.1332
  919MOL0     H21246   1.482  10.072   0.706  0.0706 -1.4031  0.0792
  919MOL0     H21247   1.350  10.275   0.680  1.3064 -1.2861  0.0029
  919MOL0     H21248   1.317  10.217   0.847  1.2577  1.3163  0.8982
  919MOL0     H21249   1.101  10.141   0.793  1.9658 -2.0314 -0.8283
  919MOL0     H21250   1.143  10.118   0.625  1.4841 -2.4070  1.4330
  919MOL0     H21251   1.137  10.384   0.770 -3.0563  0.2682 -0.1104
  919MOL0     H21252   1.153  10.350   0.596 -1.7172 -1.9300 -2.2023
  919MOL0     H21253   0.916  10.246   0.762 -0.1478 -1.3121 -2.0188
  919MOL0     H21254   0.914  10.262   0.588  1.4798 -2.0995  0.4747
  919MOL0     H21255   0.912  10.506   0.791  1.8682  4.1846 -2.7010
  919MOL0     H21256   0.785  10.446   0.701  0.4335  2.0058  1.8702
  919MOL0     H21257   0.944  10.671   0.624  1.2450  0.7936 -3.3253
  919MOL0     H21258   1.023  10.531   0.550  1.1727 -0.4556  3.6028
  919MOL0     H21259   0.723  10.579   0.516 -1.5861  0.1305 -2.1155
  919MOL0     H21260   0.810  10.454   0.440 -0.8125 -0.1691  0.8185
  919MOL0     H21261   0.866  10.535   0.181 -0.6461  2.4740 -3.0761
  919MOL0     H21262   0.916  10.885   0.038 -1.1948  0.4788  4.8437
  919MOL0     H21263   0.865  10.735  -0.014 -2.3526  1.2443  3.9206
  919MOL0     H21264   1.116  10.664   0.019 -0.4200 -0.1176 -0.6877
  919MOL0     H21265   1.150  10.833   0.063 -1.2211  0.8800 -0.4776
  919MOL0     H21266   1.050  10.721  -0.206  2.5302  0.9684 -3.8810
  919MOL0     H21267   1.060  10.898  -0.159  0.4540  0.5707  1.1375
  919MOL0     H21268   1.306  10.817  -0.094  0.8321  1.6002 -1.6972
  919MOL0     H21269   1.275  10.831  -0.270  1.8390 -3.0742 -1.7550
  919MOL0     H21270   1.302  10.412  -0.249 -0.7148  0.2763 -0.8503
  919MOL0     H21271   1.485  10.316  -0.400  3.4794 -0.2266 -1.9224
  919MOL0     H21272   1.965  10.624  -0.720  0.4825  0.4534  0.8180
  919MOL0     H21273   2.155  10.526  -0.813  0.2263  0.6164  1.0967
  919MOL0     H21274   2.382  10.141  -0.720  0.6472 -0.4980  2.7753
  919MOL0     H21275   2.369  10.242  -0.582 -2.3609 -6.0215 -0.1015
  919MOL0     H21276   2.515  10.405  -0.718 -0.7292  1.0816 -1.8646
  919MOL0     H21277   2.497  10.311  -0.861 -1.0600  1.8013  0.3407
  919MOL0     H21278   2.724  10.249  -0.750  2.1605 -1.3283  1.3986
  919MOL0     H21279   2.621  10.108  -0.740  3.6070 -0.4712  0.6539
  919MOL0     H21280   2.692  10.300  -0.517  2.8052 -0.4578  1.0864
  919MOL0     H21281   2.569  10.166  -0.503  3.0635 -2.4813  1.9312
  919MOL0     H21282   2.762  10.020  -0.609  2.8930  1.4846 -2.7799
  919MOL0     H21283   2.760  10.060  -0.442  0.8108 -0.0346  0.3448
  919MOL0     H21284   2.917  10.243  -0.473  0.6797  0.3588  0.0956
  919MOL0     H21285   2.933  10.208  -0.653  0.0830 -2.6149 -1.0957
  919MOL0     H21286   3.014  10.022  -0.421 -1.4178  0.6647  0.2024
  919MOL0     H21287   3.012   9.971  -0.584  1.5018 -1.9484  1.2476
  919MOL0     H21288   3.178  10.157  -0.656  1.0686 -2.6116 -1.0233
  919MOL0     H21289   3.260  10.058  -0.533  1.3949  1.9490  1.2027
  919MOL0     H21290   2.127  10.193  -0.531 -0.1888  0.0323 -1.5792
  919MOL0     H21291   1.945  10.278  -0.440  0.7342  0.0311  1.2452
  919MOL0     H21292   1.666  10.700  -0.414 -0.7786 -0.2996 -1.1809
  919MOL0     H21293   1.499  10.779  -0.252 -0.0188 -0.1784  0.4176
  919MOL0     H21294   1.611   9.965   0.819 -1.3421 -0.6812 -1.9429
  919MOL0     H21295   1.722   9.834   0.981 -1.0495 -1.2811 -0.5816
  919MOL0     H21296   1.822   9.291   0.950  1.6465 -3.8312  1.4427
  919MOL0     H21297   1.956   9.157   1.080  1.5197  1.0922 -1.9240
  919MOL0     H21298   1.945   9.160   1.483 -0.4627 -1.1581  1.7784
  919MOL0     H21299   2.079   9.284   1.503 -0.9357 -0.0263  0.4478
  919MOL0     H21300   2.083   8.965   1.485  1.3391 -1.1568  1.6120
  919MOL0     H21301   2.227   9.066   1.452 -1.0122  1.4461 -0.4831
  919MOL0     H21302   2.098   9.122   1.709  0.9873 -3.2324  3.8807
  919MOL0     H21303   2.275   9.112   1.643 -0.9749  2.7147 -1.5322
  919MOL0     H21304   2.084   8.901   1.740 -0.8077  0.8379 -0.6707
  919MOL0     H21305   2.206   8.858   1.626  3.3883  2.9893 -1.7481
  919MOL0     H21306   2.388   8.945   2.019 -0.3916  1.8339  0.3619
  919MOL0     H21307   1.942   9.426   1.408 -1.3603  5.0500 -1.0091
  919MOL0     H21308   1.790   9.575   1.283 -0.9706  1.6518 -2.6017
  920MOL0     O21309   3.009  10.337   9.600  0.0857  0.0276 -0.3536
  920MOL0     C21310   2.958  10.378   9.497  0.3510 -0.1812 -0.3834
  920MOL0     O21311   3.014  10.475   9.409 -0.3956 -0.6812 -0.0253
  920MOL0     C21312   3.136  10.540   9.422  0.3511 -0.2816 -0.3558
  920MOL0     C21313   3.156  10.663   9.353  0.0371 -0.0349 -0.2241
  920MOL0     C21314   3.264  10.745   9.383  0.3544 -0.6276  0.3441
  920MOL0     C21315   3.366  10.704   9.470  0.3147  0.1893  0.4825
  920MOL0     O21316   3.466  10.798   9.498 -0.1691  0.9324 -0.5707
  920MOL0     C21317   3.598  10.754   9.459 -0.1624  0.0438  0.7577
  920MOL0     C21318   3.620  10.747   9.305 -0.9481 -0.0544  0.5978
  920MOL0     C21319   3.777  10.727   9.279  0.7108 -0.5120  0.1343
  920MOL0     C21320   3.825  10.724   9.138 -0.3156 -0.2675  0.0171
  920MOL0     C21321   3.846  10.867   9.065  0.4914  0.2077 -0.3368
  920MOL0     C21322   3.931  10.847   8.949  0.4078  0.1572  0.1357
  920MOL0     C21323   3.921  10.966   8.851  0.7108 -0.4420 -0.3472
  920MOL0     C21324   4.017  11.080   8.905 -0.5423  0.0123 -0.3954
  920MOL0     N21325   4.162  11.058   8.880  0.2815 -1.0755  0.3282
  920MOL0     C21326   4.246  11.016   8.974 -0.8898  1.2004  0.0318
  920MOL0     C21327   4.367  11.021   8.912 -1.0901 -0.4660 -1.6662
  920MOL0     C21328   4.499  10.969   8.951  0.0640  0.0170 -0.4728
  920MOL0     C21329   4.494  10.816   8.951  1.0564  0.0415 -0.1908
  920MOL0     C21330   4.627  10.739   8.939 -0.4660  0.1972 -0.3827
  920MOL0     C21331   4.723  10.779   9.051 -0.2143 -0.2429 -0.2491
  920MOL0     O21332   4.655  10.726   9.168 -0.4618  0.3125 -0.0053
  920MOL0     C21333   4.724  10.703   9.290  0.5549 -0.7749  0.1057
  920MOL0     C21334   4.854  10.761   9.311  0.7265  0.0800  0.9269
  920MOL0     C21335   4.912  10.723   9.431 -0.4443 -0.0191 -0.7945
  920MOL0     C21336   4.855  10.630   9.522  1.5178 -0.2532 -0.1902
  920MOL0     C21337   4.925  10.563   9.633  0.5330  0.3663 -0.1433
  920MOL0     O21338   4.846  10.508   9.727  0.5511  0.1239 -0.1329
  920MOL0     C21339   4.911  10.464   9.846  0.4580 -0.3155  0.2199
  920MOL0     C21340   4.949  10.331   9.849 -0.9606  0.4119  0.0027
  920MOL0     C21341   5.031  10.287   9.950 -0.5718  1.1142  0.3507
  920MOL0     C21342   5.055  10.369  10.055 -0.6285  0.4091 -0.1606
  920MOL0     O21343   5.143  10.315  10.148 -0.9946  0.3311  0.1444
  920MOL0     C21344   5.239  10.406  10.206  0.2181  0.3119 -0.6157
  920MOL0     C21345   5.346  10.318  10.274  0.1359 -0.3347 -0.1081
  920MOL0     C21346   5.436  10.414  10.357 -0.5760 -0.5752  0.2950
  920MOL0     C21347   5.499  10.324  10.468 -0.6734 -0.0931  0.6535
  920MOL0     C21348   5.612  10.389  10.552 -0.0413 -0.3584  1.2418
  920MOL0     C21349   5.578  10.529  10.617  0.3589  0.4406  0.5507
  920MOL0     C21350   5.455  10.504  10.721 -0.8914  0.6498 -0.3768
  920MOL0     C21351   5.412  10.627  10.802 -0.1376  0.3039  0.7282
  920MOL0    Cl21352   5.244  10.602  10.846 -0.1874 -0.3318  0.3071
  920MOL0     C21353   5.008  10.503  10.061 -0.4835  0.0833  0.9880
  920MOL0     C21354   4.933  10.552   9.956 -0.2402  0.2270 -0.0019
  920MOL0     O21355   5.053  10.572   9.638 -0.7491 -0.5751 -0.2197
  920MOL0     C21356   4.720  10.584   9.512  0.8616  0.4337  0.1684
  920MOL0     C21357   4.663  10.619   9.392 -0.4577  0.2074 -0.1945
  920MOL0     N21358   4.351  11.072   8.784  0.5503 -0.0302 -0.3110
  920MOL0     N21359   4.224  11.095   8.770 -0.3142 -0.5407 -0.1389
  920MOL0     C21360   3.359  10.577   9.527  1.5443  1.1069 -0.2428
  920MOL0     C21361   3.247  10.497   9.514  0.1745 -0.4090  0.7620
  920MOL0     C21362   2.835  10.314   9.449 -1.4637  0.8608  0.2730
  920MOL0     C21363   2.765  10.376   9.342  0.5435  0.7803  0.5637
  920MOL0     C21364   2.643  10.314   9.303 -0.5103 -0.2544 -0.4917
  920MOL0     C21365   2.616  10.179   9.334  0.1074  0.1901  0.8195
  920MOL0     O21366   2.502  10.122   9.270 -0.2888 -1.1504  0.0947
  920MOL0     C21367   2.481   9.980   9.281  0.7002  0.2700 -0.0787
  920MOL0     C21368   2.368   9.914   9.193  0.2886 -0.5435  0.0055
  920MOL0     C21369   2.315   9.781   9.263 -1.0080  0.4459 -1.0414
  920MOL0     C21370   2.173   9.755   9.226 -0.4714 -0.0858  0.7043
  920MOL0     C21371   2.151   9.761   9.083  0.1410 -0.4330  0.1469
  920MOL0     C21372   2.134   9.774   8.963 -0.8275  1.3184  0.6731
  920MOL0     C21373   2.703  10.114   9.420  0.2983  0.3110 -0.6027
  920MOL0     C21374   2.807  10.185   9.481 -0.2201  0.6160 -1.0107
  920MOL0     H21375   3.082  10.704   9.284 -1.9870 -0.1363  1.7885
  920MOL0     H21376   3.276  10.837   9.326 -1.3899  1.3971  2.9720
  920MOL0     H21377   3.616  10.663   9.518 -2.3147 -0.7532  0.3044
  920MOL0     H21378   3.667  10.829   9.499  0.3245  1.0288 -1.7868
  920MOL0     H21379   3.592  10.839   9.254  3.0424  2.1164  1.9360
  920MOL0     H21380   3.567  10.664   9.257 -0.7841  0.6747 -0.9157
  920MOL0     H21381   3.816  10.636   9.326  1.6272  1.0473  2.6541
  920MOL0     H21382   3.824  10.819   9.316  0.6280 -0.5200  0.2586
  920MOL0     H21383   3.919  10.667   9.134 -1.5468 -2.4619  0.4543
  920MOL0     H21384   3.757  10.659   9.082  1.2687 -0.6997 -1.4933
  920MOL0     H21385   3.904  10.941   9.120 -0.6569  3.2624 -2.9462
  920MOL0     H21386   3.749  10.912   9.045 -0.6755 -1.1154  1.8993
  920MOL0     H21387   3.889  10.763   8.893 -0.7522  1.1511 -0.5367
  920MOL0     H21388   4.035  10.830   8.979  0.6729 -0.8619 -1.2633
  920MOL0     H21389   3.956  10.926   8.756 -1.6928 -1.0893 -1.0174
  920MOL0     H21390   3.816  10.995   8.846  0.1768 -2.3356 -0.6975
  920MOL0     H21391   4.007  11.092   9.014  2.8005 -1.1337  0.1852
  920MOL0     H21392   3.999  11.180   8.865  2.0829  1.1828  1.0336
  920MOL0     H21393   4.234  10.973   9.073 -0.9623 -3.2671 -1.6716
  920MOL0     H21394   4.523  11.005   9.051 -2.7412 -0.9055  0.6273
  920MOL0     H21395   4.573  11.009   8.881  0.1746  2.8867  1.1496
  920MOL0     H21396   4.425  10.788   8.871 -0.2282  0.7073  0.6629
  920MOL0     H21397   4.445  10.788   9.044  0.4980 -0.6758 -0.6925
  920MOL0     H21398   4.618  10.630   8.942 -1.6738  0.2348 -1.8337
  920MOL0     H21399   4.668  10.777   8.845 -0.1967  1.3546  0.1810
  920MOL0     H21400   4.726  10.889   9.049 -0.9756 -0.1270  2.2820
  920MOL0     H21401   4.820  10.733   9.031 -0.3236 -1.1541  1.1828
  920MOL0     H21402   4.899  10.838   9.249  1.2832 -0.2278  0.9395
  920MOL0     H21403   5.010  10.763   9.455 -1.5612  1.3838  1.8902
  920MOL0     H21404   4.925  10.265   9.767  0.7909 -0.4188  0.1052
  920MOL0     H21405   5.080  10.190   9.938  0.0414  1.5764 -1.0797
  920MOL0     H21406   5.191  10.470  10.280  0.3271  1.0788 -1.1944
  920MOL0     H21407   5.277  10.468  10.125  0.0117  0.3086 -0.7156
  920MOL0     H21408   5.392  10.255  10.196  0.2584  1.3013 -1.4035
  920MOL0     H21409   5.299  10.255  10.351  0.0788  1.7871  1.6792
  920MOL0     H21410   5.379  10.497  10.400  0.9115  0.4616  0.3609
  920MOL0     H21411   5.504  10.445  10.278 -1.8448  1.3809 -0.0914
  920MOL0     H21412   5.423  10.300  10.542 -0.0864  0.1375  1.3383
  920MOL0     H21413   5.539  10.231  10.427  1.1818 -0.6073  3.3805
  920MOL0     H21414   5.698  10.416  10.490 -0.2594 -4.0142 -0.9570
  920MOL0     H21415   5.640  10.316  10.628  0.5550  2.1692  3.6233
  920MOL0     H21416   5.547  10.606  10.546 -2.5210 -0.9585  0.1437
  920MOL0     H21417   5.661  10.574  10.673  1.0358  1.2250 -1.0098
  920MOL0     H21418   5.361  10.482  10.671 -2.0602  1.1675  1.4991
  920MOL0     H21419   5.472  10.422  10.791  2.5240  0.8957 -0.7287
  920MOL0     H21420   5.416  10.713  10.735  2.2386 -1.3176 -1.4263
  920MOL0     H21421   5.476  10.646  10.889 -0.6458  2.4537  0.6710
  920MOL0     H21422   5.042  10.584  10.123  3.5664 -0.1943 -0.5460
  920MOL0     H21423   4.891  10.652   9.952 -0.0441  0.2974 -0.3806
  920MOL0     H21424   4.670  10.521   9.585  2.5587 -0.4612  0.6327
  920MOL0     H21425   4.567  10.577   9.365 -0.3521 -0.9058  1.0576
  920MOL0     H21426   3.444  10.528   9.575  1.8839 -0.8702 -2.6258
  920MOL0     H21427   3.241  10.406   9.573  2.4810  0.1939  2.0561
  920MOL0     H21428   2.776  10.474   9.296  1.5603 -0.4316 -1.9769
  920MOL0     H21429   2.581  10.380   9.244  2.3870  0.9592 -2.4190
  920MOL0     H21430   2.464   9.950   9.385  2.6738  0.5621  0.3682
  920MOL0     H21431   2.573   9.928   9.252  0.6270 -0.3165  0.7168
  920MOL0     H21432   2.284   9.983   9.191 -0.3408 -1.2107  1.5808
  920MOL0     H21433   2.388   9.904   9.086 -3.2923 -0.3894 -0.7947
  920MOL0     H21434   2.320   9.799   9.371  1.7874  2.7944 -1.4308
  920MOL0     H21435   2.369   9.688   9.246 -0.5945 -0.0854  2.4351
  920MOL0     H21436   2.143   9.654   9.254 -1.5063 -1.5031 -4.4326
  920MOL0     H21437   2.100   9.824   9.269 -1.5463 -0.9243  0.2820
  920MOL0     H21438   2.118   9.787   8.858  0.5222 -1.2566  0.0635
  920MOL0     H21439   2.693  10.008   9.437  3.5891 -0.0387 -0.1789
  920MOL0     H21440   2.862  10.131   9.559 -1.6431 -0.8278 -0.9491
  921MOL0     O21441   9.264   1.407   0.191 -0.5466  0.0796  0.1219
  921MOL0     C21442   9.304   1.439   0.305 -0.0348 -1.0872  0.4084
  921MOL0     O21443   9.322   1.565   0.351 -0.2646 -0.1311 -0.1519
  921MOL0     C21444   9.278   1.672   0.263 -0.1018 -0.4460 -0.1248
  921MOL0     C21445   9.145   1.675   0.222  0.2371 -0.1308  0.5434
  921MOL0     C21446   9.099   1.772   0.125 -0.4404 -0.1484  0.2688
  921MOL0     C21447   9.177   1.879   0.083  0.7425 -0.9930  0.3987
  921MOL0     O21448   9.121   1.984   0.007 -0.2587 -0.6808  0.2723
  921MOL0     C21449   9.199   2.087  -0.059  0.4384 -0.3191  0.2494
  921MOL0     C21450   9.123   2.153  -0.175 -0.1644  0.2799  0.3613
  921MOL0     C21451   9.186   2.250  -0.262  0.1473 -0.5212  1.2361
  921MOL0     C21452   9.233   2.380  -0.192 -0.2233  0.7110 -0.2864
  921MOL0     C21453   9.132   2.490  -0.199 -0.2206 -0.2466  0.1671
  921MOL0     C21454   9.172   2.622  -0.134  0.0506 -0.7653 -0.3049
  921MOL0     C21455   9.280   2.708  -0.206  0.0639  0.3358 -1.0678
  921MOL0     C21456   9.220   2.822  -0.298 -0.1926  0.2299  0.1975
  921MOL0     N21457   9.330   2.913  -0.342  0.4911 -1.1188 -0.2165
  921MOL0     C21458   9.377   2.936  -0.473 -1.0176 -0.0400 -0.4177
  921MOL0     C21459   9.444   3.049  -0.469 -0.0489 -0.4148  0.8045
  921MOL0     C21460   9.500   3.112  -0.595 -0.8022 -0.3706  0.0139
  921MOL0     C21461   9.502   3.265  -0.576  0.2120  0.2724 -0.6650
  921MOL0     C21462   9.563   3.322  -0.704 -0.2505  0.3945  0.1593
  921MOL0     C21463   9.718   3.329  -0.696  0.0509 -0.6591 -0.7293
  921MOL0     O21464   9.776   3.357  -0.828  0.5259 -0.5114 -0.3036
  921MOL0     C21465   9.912   3.380  -0.852  0.3609 -0.1779  0.1761
  921MOL0     C21466  10.005   3.379  -0.747  0.3371 -0.8433  0.6590
  921MOL0     C21467  10.136   3.408  -0.770 -0.1340  0.0740 -0.1828
  921MOL0     C21468  10.177   3.452  -0.893 -1.1720 -0.1514  1.0481
  921MOL0     C21469  10.327   3.485  -0.925  0.7394  0.4864  0.0162
  921MOL0     O21470  10.371   3.548  -1.041  0.2688 -0.9889  0.7130
  921MOL0     C21471  10.510   3.536  -1.072  0.5247  0.2501 -0.9488
  921MOL0     C21472  10.615   3.592  -0.990 -0.0195  0.5358  0.9815
  921MOL0     C21473  10.746   3.568  -1.025  0.1511 -0.2008 -0.3319
  921MOL0     C21474  10.773   3.490  -1.138  0.1019  0.3281  0.2871
  921MOL0     O21475  10.903   3.480  -1.180 -0.7016  0.3871  0.8372
  921MOL0     C21476  10.992   3.407  -1.094  0.2581 -0.8280 -0.7210
  921MOL0     C21477  11.087   3.305  -1.163  0.4910  0.2538 -0.1426
  921MOL0     C21478  11.187   3.255  -1.070 -0.3761 -0.1721  0.6931
  921MOL0     C21479  11.306   3.180  -1.131 -0.5604  0.1950 -0.0170
  921MOL0     C21480  11.438   3.197  -1.068  0.4461 -0.6307  0.4036
  921MOL0     C21481  11.443   3.147  -0.919  0.6312  1.7984 -0.0029
  921MOL0     C21482  11.391   3.004  -0.908 -0.5146 -0.2036 -1.6825
  921MOL0     C21483  11.475   2.905  -0.978  0.7964 -0.1368 -0.2520
  921MOL0    Cl21484  11.652   2.894  -0.917 -0.2280  0.5696 -0.4252
  921MOL0     C21485  10.667   3.440  -1.215  0.0085 -0.3684  1.0808
  921MOL0     C21486  10.537   3.453  -1.181 -0.6913 -0.3463 -0.8522
  921MOL0     O21487  10.402   3.440  -0.838 -0.3359  0.3729 -0.0260
  921MOL0     C21488  10.079   3.457  -0.996 -0.0884 -0.2951  0.4094
  921MOL0     C21489   9.949   3.421  -0.979 -0.4060 -0.0175  0.3510
  921MOL0     N21490   9.449   3.096  -0.335  0.4305  0.5806 -0.1649
  921MOL0     N21491   9.369   3.021  -0.268  0.2442 -0.2615  0.8193
  921MOL0     C21492   9.308   1.876   0.123 -0.3885 -0.3146 -1.1022
  921MOL0     C21493   9.354   1.777   0.216 -0.2955 -0.1938 -0.1578
  921MOL0     C21494   9.308   1.331   0.402  0.4633 -0.0345 -0.1528
  921MOL0     C21495   9.244   1.209   0.378 -0.3419  0.1222 -0.8166
  921MOL0     C21496   9.264   1.103   0.469  0.3506  0.6394  0.3408
  921MOL0     C21497   9.325   1.108   0.587  0.3063 -0.5837  0.7663
  921MOL0     O21498   9.332   1.012   0.681  0.0757 -0.0400  0.0062
  921MOL0     C21499   9.459   0.995   0.738 -0.5024  1.0927 -0.6769
  921MOL0     C21500   9.559   0.927   0.641 -0.8420 -0.1948  0.6662
  921MOL0     C21501   9.542   0.777   0.620  0.0594 -0.0242 -0.5335
  921MOL0     C21502   9.636   0.715   0.511 -0.4933 -0.3591 -0.5353
  921MOL0     C21503   9.781   0.714   0.540 -0.0863  0.5858 -0.1377
  921MOL0     C21504   9.901   0.714   0.565 -1.0006 -0.2444 -0.1395
  921MOL0     C21505   9.373   1.238   0.615  0.2074 -0.2221 -0.6502
  921MOL0     C21506   9.367   1.345   0.529 -0.1507  0.2210  0.0714
  921MOL0     H21507   9.080   1.590   0.242 -0.3008 -0.8646 -3.4537
  921MOL0     H21508   8.998   1.773   0.085  0.0247 -1.3602 -1.0254
  921MOL0     H21509   9.289   2.041  -0.102  1.4774  1.6425  0.2398
  921MOL0     H21510   9.241   2.158   0.012  0.8780  1.8123 -2.0164
  921MOL0     H21511   9.035   2.209  -0.141  1.3905  4.3487 -1.7229
  921MOL0     H21512   9.088   2.077  -0.245  0.1109  0.7951 -0.3475
  921MOL0     H21513   9.110   2.286  -0.332  1.0843  2.8076  1.7605
  921MOL0     H21514   9.269   2.199  -0.311  1.1702  1.6019  0.6744
  921MOL0     H21515   9.243   2.347  -0.088  1.5306 -0.9935 -0.9534
  921MOL0     H21516   9.327   2.420  -0.231 -0.4946  1.4449 -0.2172
  921MOL0     H21517   9.041   2.447  -0.157 -0.2651 -0.0517  0.2749
  921MOL0     H21518   9.106   2.498  -0.305  0.4211 -2.8624 -0.2393
  921MOL0     H21519   9.203   2.588  -0.035  0.7650 -3.1300 -1.2913
  921MOL0     H21520   9.091   2.695  -0.130  2.4693  2.0932  0.4791
  921MOL0     H21521   9.341   2.763  -0.134 -2.0818  1.3568  0.0775
  921MOL0     H21522   9.342   2.639  -0.264 -1.7900 -0.7014 -1.8989
  921MOL0     H21523   9.155   2.886  -0.238 -0.4024 -0.7109  1.0057
  921MOL0     H21524   9.160   2.771  -0.374  0.9818 -0.8723 -0.0238
  921MOL0     H21525   9.354   2.878  -0.562 -2.1088 -2.0476  1.0982
  921MOL0     H21526   9.439   3.089  -0.683 -0.9616  0.0948 -0.0042
  921MOL0     H21527   9.602   3.078  -0.615  0.3229  2.3777  0.5296
  921MOL0     H21528   9.560   3.287  -0.486 -0.1581 -1.0196 -0.0960
  921MOL0     H21529   9.396   3.294  -0.577 -0.3413 -1.6175 -1.7028
  921MOL0     H21530   9.523   3.276  -0.795 -1.6809  2.4380 -0.3295
  921MOL0     H21531   9.535   3.428  -0.706  1.5599  1.0112  2.9996
  921MOL0     H21532   9.768   3.240  -0.656 -2.7010 -0.9330  2.6004
  921MOL0     H21533   9.753   3.406  -0.626 -2.8915  1.7423 -1.7146
  921MOL0     H21534   9.963   3.361  -0.648 -1.0579 -1.1483  0.0378
  921MOL0     H21535  10.212   3.382  -0.697 -1.3925 -0.5814  0.9368
  921MOL0     H21536  10.588   3.652  -0.904 -0.3070  4.0960 -1.3771
  921MOL0     H21537  10.834   3.618  -0.985 -0.9702 -0.3292  2.4891
  921MOL0     H21538  10.939   3.358  -1.012  2.7531 -0.1228  1.4792
  921MOL0     H21539  11.054   3.482  -1.044 -0.2670 -0.1760 -1.0220
  921MOL0     H21540  11.126   3.353  -1.253 -0.4247 -0.9016 -1.2039
  921MOL0     H21541  11.030   3.216  -1.191  0.6495 -1.0554  3.2138
  921MOL0     H21542  11.123   3.190  -1.009 -1.3859  0.4909  0.3550
  921MOL0     H21543  11.232   3.345  -1.026  1.5868  1.0014 -3.2776
  921MOL0     H21544  11.277   3.077  -1.155 -4.0773  1.0503  0.0224
  921MOL0     H21545  11.327   3.213  -1.233 -1.7217 -0.7616 -0.5912
  921MOL0     H21546  11.461   3.303  -1.054  2.0463 -1.0383  1.1018
  921MOL0     H21547  11.513   3.150  -1.131 -2.7679 -3.0979 -1.9214
  921MOL0     H21548  11.365   3.204  -0.866 -0.3206 -0.3064  0.9778
  921MOL0     H21549  11.543   3.157  -0.875  0.5323 -0.4087  0.8560
  921MOL0     H21550  11.391   2.974  -0.803 -3.7352  0.8252 -1.2899
  921MOL0     H21551  11.286   2.999  -0.937 -1.3463  0.5797  0.8961
  921MOL0     H21552  11.465   2.939  -1.081 -0.2632  1.6858  0.3808
  921MOL0     H21553  11.424   2.809  -0.967  0.2981  0.0294 -1.0329
  921MOL0     H21554  10.701   3.390  -1.306  0.4121 -0.3958  1.2460
  921MOL0     H21555  10.448   3.415  -1.229 -1.7895  0.9188  0.1017
  921MOL0     H21556  10.117   3.498  -1.089 -0.0446 -3.2840 -1.0089
  921MOL0     H21557   9.884   3.419  -1.066 -0.5432 -1.4478  0.4631
  921MOL0     H21558   9.363   1.967   0.099  0.5325 -0.3826  0.5829
  921MOL0     H21559   9.457   1.792   0.245  0.0546 -0.7967 -1.0336
  921MOL0     H21560   9.197   1.182   0.283  0.9851 -0.9825 -1.1821
  921MOL0     H21561   9.228   1.009   0.427  0.6879  0.7467 -0.1928
  921MOL0     H21562   9.432   0.931   0.822  0.0483  0.1969 -1.1620
  921MOL0     H21563   9.501   1.090   0.773  0.8291 -0.2685  1.7282
  921MOL0     H21564   9.561   0.975   0.543 -1.6173 -0.1508  0.6608
  921MOL0     H21565   9.656   0.959   0.680 -1.7623  0.9457  2.1263
  921MOL0     H21566   9.446   0.766   0.568  0.3609  1.3493 -1.4364
  921MOL0     H21567   9.564   0.726   0.714  0.4207 -1.3569 -1.3219
  921MOL0     H21568   9.600   0.615   0.483 -3.6967  0.5125  0.0477
  921MOL0     H21569   9.626   0.772   0.418 -4.1116  0.4787  0.1919
  921MOL0     H21570  10.005   0.722   0.590 -0.9739 -1.5681  0.2209
  921MOL0     H21571   9.407   1.263   0.715 -0.6589 -1.2517 -0.0773
  921MOL0     H21572   9.430   1.429   0.554  1.6162  0.3056 -3.8894
  922MOL0     O21573   7.823   9.190   3.930 -0.1033 -0.0691 -0.2690
  922MOL0     C21574   7.738   9.246   3.999 -0.4475  0.0080  0.4474
  922MOL0     O21575   7.767   9.320   4.104 -0.1278 -0.7788 -0.6062
  922MOL0     C21576   7.732   9.451   4.086  0.1728 -0.8008 -0.2266
  922MOL0     C21577   7.676   9.508   4.200  0.9013  0.1452 -0.2874
  922MOL0     C21578   7.646   9.636   4.203 -0.3638 -0.1375  0.2176
  922MOL0     C21579   7.677   9.717   4.097  0.7351  0.6521  0.4462
  922MOL0     O21580   7.651   9.847   4.119 -0.3567 -0.1977  0.8307
  922MOL0     C21581   7.687   9.951   4.023 -0.0220  0.2290  0.6344
  922MOL0     C21582   7.623  10.083   4.068  0.1105  0.8631  0.1750
  922MOL0     C21583   7.465  10.078   4.063 -0.4291 -0.2372  0.3352
  922MOL0     C21584   7.396  10.207   4.108  0.4017  0.4983  0.2010
  922MOL0     C21585   7.269  10.180   4.186 -0.1786  0.0605 -0.3523
  922MOL0     C21586   7.259  10.262   4.309  0.3894 -0.5820  0.4618
  922MOL0     C21587   7.168  10.210   4.412  0.8510 -0.4401 -0.1991
  922MOL0     C21588   7.115  10.321   4.506 -0.7239 -0.3025 -0.0479
  922MOL0     N21589   6.978  10.283   4.535  1.2607 -0.1492 -0.4221
  922MOL0     C21590   6.930  10.197   4.631  0.2939 -0.3527 -1.2262
  922MOL0     C21591   6.804  10.177   4.600  0.0688 -0.7008  0.1714
  922MOL0     C21592   6.694  10.099   4.666  0.9411  0.6513 -0.0490
  922MOL0     C21593   6.589  10.048   4.569 -0.6868 -0.0653 -0.0908
  922MOL0     C21594   6.658   9.977   4.452  0.2532 -0.0954 -0.0086
  922MOL0     C21595   6.721   9.842   4.484  0.6400  0.1034  0.1181
  922MOL0     O21596   6.821   9.847   4.591  0.3313  1.1562  0.5771
  922MOL0     C21597   6.863   9.719   4.632 -0.3936 -0.5803 -0.0890
  922MOL0     C21598   6.979   9.728   4.709  0.4001 -1.0953 -0.2175
  922MOL0     C21599   7.066   9.610   4.738  0.5970  0.0920 -1.8869
  922MOL0     C21600   7.012   9.487   4.698  1.2906 -0.6875 -0.8519
  922MOL0     C21601   7.096   9.359   4.722  0.3070 -0.4259  1.1384
  922MOL0     O21602   7.232   9.365   4.742 -0.5953  0.4476  1.0693
  922MOL0     C21603   7.312   9.248   4.766 -0.0776 -0.0544 -0.8787
  922MOL0     C21604   7.424   9.228   4.674  1.1427  0.3705  0.2611
  922MOL0     C21605   7.524   9.131   4.709  0.3617  0.1264  0.1148
  922MOL0     C21606   7.501   9.046   4.822  0.4370 -0.3124  0.5555
  922MOL0     O21607   7.593   8.958   4.867  0.2070  0.7879 -0.0309
  922MOL0     C21608   7.630   8.858   4.786  1.1542 -0.1355 -0.0919
  922MOL0     C21609   7.780   8.844   4.771  0.6416  0.6575 -0.5432
  922MOL0     C21610   7.824   8.739   4.677  0.0662  0.0028  0.2416
  922MOL0     C21611   7.971   8.745   4.654  0.4038  0.0556  0.2430
  922MOL0     C21612   8.007   8.646   4.545 -0.7910  0.1156 -0.3896
  922MOL0     C21613   8.158   8.629   4.545  0.0361  1.0431 -0.6241
  922MOL0     C21614   8.185   8.559   4.408  0.1941  0.4139 -0.8287
  922MOL0     C21615   8.334   8.508   4.393 -0.1640 -0.2914  0.9762
  922MOL0    Cl21616   8.426   8.651   4.386  0.1555  0.4632  0.1951
  922MOL0     C21617   7.385   9.068   4.905  1.0855  0.1102  0.1067
  922MOL0     C21618   7.291   9.160   4.875  0.1228  0.1584 -0.3430
  922MOL0     O21619   7.028   9.251   4.715  0.1461  0.0860  0.0327
  922MOL0     C21620   6.890   9.480   4.625 -0.2185 -0.2784 -0.0812
  922MOL0     C21621   6.816   9.588   4.590  1.1366  0.0961 -0.8984
  922MOL0     N21622   6.780  10.268   4.498  0.4038 -0.0448  0.5097
  922MOL0     N21623   6.877  10.335   4.457 -0.2034  0.1039  0.2710
  922MOL0     C21624   7.724   9.662   3.977 -0.4282  0.1425 -0.5426
  922MOL0     C21625   7.750   9.525   3.972  0.1419 -0.0987  0.9556
  922MOL0     C21626   7.599   9.199   3.970  0.4116  1.3110 -0.0450
  922MOL0     C21627   7.576   9.161   3.837  0.0006 -0.6826  0.4610
  922MOL0     C21628   7.460   9.084   3.814  0.1166 -0.0710  0.9073
  922MOL0     C21629   7.353   9.069   3.908  0.6173  0.2169 -0.3392
  922MOL0     O21630   7.243   8.987   3.881  0.5148 -0.1644  0.3790
  922MOL0     C21631   7.159   8.935   3.984  0.8623  0.2114  0.3879
  922MOL0     C21632   7.035   9.023   3.988 -0.0883 -0.2787  0.3606
  922MOL0     C21633   6.954   9.019   3.855 -0.8413  0.4217 -0.8335
  922MOL0     C21634   6.838   9.107   3.871 -0.6111 -0.4649 -0.4096
  922MOL0     C21635   6.732   9.035   3.947  0.4135 -0.9315  0.0855
  922MOL0     C21636   6.632   8.992   3.999  0.5343 -0.1420 -0.0239
  922MOL0     C21637   7.377   9.128   4.034  0.6823 -0.8359 -0.4689
  922MOL0     C21638   7.501   9.177   4.068 -0.0269 -0.6848 -0.4313
  922MOL0     H21639   7.649   9.446   4.286 -1.7762  2.8785  1.0443
  922MOL0     H21640   7.597   9.668   4.294 -0.1681  0.3961  0.1346
  922MOL0     H21641   7.640   9.924   3.928 -3.2492  0.1840  2.1276
  922MOL0     H21642   7.796   9.960   4.015  0.2878 -3.2877 -1.7020
  922MOL0     H21643   7.661  10.151   3.991  2.6105 -1.2788 -0.5976
  922MOL0     H21644   7.665  10.129   4.157  0.3164  2.0144 -0.4960
  922MOL0     H21645   7.437   9.996   4.130  0.7772 -1.2435 -0.3480
  922MOL0     H21646   7.429  10.054   3.963  0.1188  3.0997 -0.7957
  922MOL0     H21647   7.465  10.269   4.167  1.8715 -0.6735 -0.2144
  922MOL0     H21648   7.382  10.276   4.025  1.2707  0.5621  0.0992
  922MOL0     H21649   7.268  10.074   4.213 -2.2379  0.6012  2.1709
  922MOL0     H21650   7.171  10.187   4.138 -1.8143 -3.0565  2.0955
  922MOL0     H21651   7.225  10.359   4.271 -1.0600 -2.4561 -3.5654
  922MOL0     H21652   7.361  10.276   4.346  0.1635  0.8953  0.5722
  922MOL0     H21653   7.084  10.151   4.376 -2.1310  1.3035  3.2523
  922MOL0     H21654   7.233  10.138   4.462 -2.0045 -2.2422  1.1882
  922MOL0     H21655   7.123  10.421   4.462  1.2272  0.6351  2.1567
  922MOL0     H21656   7.169  10.321   4.601 -2.0899  0.4854  0.7629
  922MOL0     H21657   6.991  10.148   4.707 -0.5058 -2.2454 -1.7400
  922MOL0     H21658   6.648  10.163   4.742  0.3975 -0.3965  0.5244
  922MOL0     H21659   6.749  10.028   4.729  0.9397  0.2379 -0.5049
  922MOL0     H21660   6.536  10.129   4.518 -1.1353 -1.0470 -1.2216
  922MOL0     H21661   6.518   9.978   4.614 -1.2645 -0.8133 -2.0568
  922MOL0     H21662   6.566   9.953   4.397 -1.0433 -0.0635  2.0415
  922MOL0     H21663   6.720  10.038   4.385 -1.6749  0.6345 -1.2179
  922MOL0     H21664   6.764   9.798   4.393  2.5237 -0.1272  1.0773
  922MOL0     H21665   6.641   9.780   4.525  1.8793 -1.7737 -0.1351
  922MOL0     H21666   7.013   9.829   4.732 -0.6351  1.1011 -6.4508
  922MOL0     H21667   7.162   9.612   4.790 -1.0581 -1.5247  1.6166
  922MOL0     H21668   7.420   9.313   4.606  1.8916  1.3654  1.4025
  922MOL0     H21669   7.621   9.128   4.660  0.4336  4.4993 -0.4035
  922MOL0     H21670   7.582   8.865   4.688 -2.6894 -2.0348  1.4470
  922MOL0     H21671   7.593   8.767   4.834 -1.3217  0.5147 -0.6300
  922MOL0     H21672   7.829   8.813   4.864  0.0687  2.6872  0.4989
  922MOL0     H21673   7.816   8.943   4.743 -4.0161  2.9128  0.3690
  922MOL0     H21674   7.757   8.753   4.591 -3.3372 -1.2057  2.4971
  922MOL0     H21675   7.798   8.640   4.717 -1.5035 -0.4968 -1.8470
  922MOL0     H21676   7.986   8.845   4.612  1.1788 -0.4605 -0.7408
  922MOL0     H21677   8.022   8.723   4.748 -1.3343 -1.4014  0.8930
  922MOL0     H21678   7.977   8.688   4.449  2.1750 -0.2426 -1.5578
  922MOL0     H21679   7.964   8.546   4.555 -2.4278  0.8814  0.7805
  922MOL0     H21680   8.196   8.581   4.636 -0.0840  1.8319 -0.1505
  922MOL0     H21681   8.196   8.731   4.547 -0.3755  1.2525 -2.1312
  922MOL0     H21682   8.114   8.476   4.399  0.9094 -0.7026  2.4158
  922MOL0     H21683   8.166   8.636   4.333  0.2066  1.5088  0.2576
  922MOL0     H21684   8.363   8.448   4.306  0.6458 -0.0650  1.0822
  922MOL0     H21685   8.348   8.447   4.482 -2.7357  1.6075  2.8264
  922MOL0     H21686   7.368   9.002   4.989  3.2484 -1.3815 -0.5427
  922MOL0     H21687   7.208   9.161   4.945 -0.3495  0.6192 -0.9028
  922MOL0     H21688   6.854   9.388   4.580  1.9127 -0.6899 -1.0491
  922MOL0     H21689   6.731   9.576   4.524 -0.5737 -0.4889  1.3100
  922MOL0     H21690   7.744   9.735   3.899 -1.8556  1.7961  0.5711
  922MOL0     H21691   7.811   9.487   3.891 -0.8534  2.5727 -1.1775
  922MOL0     H21692   7.655   9.167   3.763  0.7955  0.0885  1.3443
  922MOL0     H21693   7.448   9.031   3.720  0.4244 -0.9427  1.3479
  922MOL0     H21694   7.210   8.954   4.078 -3.3334  2.3476  2.4872
  922MOL0     H21695   7.139   8.833   3.949 -0.9151  1.0749 -1.3606
  922MOL0     H21696   6.971   8.976   4.063 -0.4178 -2.6179 -1.2767
  922MOL0     H21697   7.051   9.127   4.020 -0.4222  0.2113 -0.9965
  922MOL0     H21698   6.928   8.917   3.827 -0.7969 -0.9057  3.2462
  922MOL0     H21699   7.020   9.054   3.776 -2.4803  0.1581 -2.3719
  922MOL0     H21700   6.837   9.212   3.902  0.4212 -0.3257 -0.7789
  922MOL0     H21701   6.803   9.123   3.769  2.5904  0.6484 -1.4863
  922MOL0     H21702   6.556   8.949   4.062 -1.7151 -1.2826 -3.2552
  922MOL0     H21703   7.296   9.135   4.106  2.7282 -0.9089  1.9595
  922MOL0     H21704   7.520   9.189   4.175 -2.1055  0.0732 -0.0940
  923MOL0     O21705   4.310  11.159   6.626 -0.1875  0.2871  0.4314
  923MOL0     C21706   4.313  11.188   6.509  0.7765 -0.3266  0.2646
  923MOL0     O21707   4.216  11.263   6.443  0.5320  0.4712 -0.0192
  923MOL0     C21708   4.105  11.315   6.497  0.6573  0.1666 -0.8542
  923MOL0     C21709   4.097  11.456   6.525  0.0351  0.0732 -0.6575
  923MOL0     C21710   3.979  11.498   6.584  1.4846 -0.0979 -0.0583
  923MOL0     C21711   3.866  11.413   6.601  0.0146  0.6528 -0.4194
  923MOL0     O21712   3.758  11.457   6.668 -0.7878 -0.6037 -0.7726
  923MOL0     C21713   3.631  11.369   6.659  0.4092 -0.1600  0.3233
  923MOL0     C21714   3.597  11.325   6.792  0.2472 -0.9721 -0.3446
  923MOL0     C21715   3.453  11.306   6.817 -1.0350  0.4852  0.1969
  923MOL0     C21716   3.399  11.202   6.724  0.0691 -0.3855  0.4880
  923MOL0     C21717   3.243  11.214   6.732 -0.5621  0.8762 -0.3981
  923MOL0     C21718   3.194  11.137   6.859 -0.2816  0.1595 -0.7030
  923MOL0     C21719   3.033  11.117   6.856 -0.2618 -0.3266 -0.9030
  923MOL0     C21720   2.997  11.052   6.991  0.0067  0.3744  0.4300
  923MOL0     N21721   2.850  11.034   6.998 -0.0195  0.1764  0.8244
  923MOL0     C21722   2.757  11.131   7.020  0.1874  0.1548 -0.4816
  923MOL0     C21723   2.647  11.064   7.023 -0.0523  0.3957  0.0378
  923MOL0     C21724   2.512  11.130   7.056  0.7173 -0.5468 -0.0003
  923MOL0     C21725   2.423  11.024   7.128  0.2340 -0.1449 -1.0334
  923MOL0     C21726   2.278  11.088   7.132 -0.4362  0.1126  0.3995
  923MOL0     C21727   2.183  10.977   7.178 -0.3290  0.1426  0.0101
  923MOL0     O21728   2.068  11.046   7.244 -0.5522  0.8318 -0.9265
  923MOL0     C21729   1.969  10.964   7.279  0.1064  0.2947 -0.3270
  923MOL0     C21730   1.851  11.029   7.266 -0.1284 -1.1248  0.4677
  923MOL0     C21731   1.736  10.960   7.315 -0.8487 -0.9985  0.0095
  923MOL0     C21732   1.742  10.824   7.357 -0.0886  0.0030 -0.3397
  923MOL0     C21733   1.638  10.762   7.426 -0.3359 -0.1330 -0.1133
  923MOL0     O21734   1.664  10.643   7.504  0.0711  0.0162 -0.3347
  923MOL0     C21735   1.578  10.594   7.601 -0.4896  0.6762  0.5079
  923MOL0     C21736   1.579  10.453   7.623  0.7118  0.4542 -0.0655
  923MOL0     C21737   1.505  10.393   7.726 -0.9389 -0.3168  0.7693
  923MOL0     C21738   1.435  10.473   7.807  0.0831 -0.0077  0.3592
  923MOL0     O21739   1.363  10.421   7.911 -0.8178  0.4426 -0.3246
  923MOL0     C21740   1.268  10.316   7.874 -0.1858 -0.2231  0.4172
  923MOL0     C21741   1.148  10.339   7.956  0.8396  0.1579  0.5348
  923MOL0     C21742   1.033  10.250   7.930 -0.5812 -0.2182 -0.1889
  923MOL0     C21743   0.942  10.251   8.050 -0.1452  0.4198 -0.9252
  923MOL0     C21744   0.794  10.212   8.023 -0.8369  0.5637  0.3126
  923MOL0     C21745   0.784  10.059   8.012  0.7438  0.0585  0.1636
  923MOL0     C21746   0.649   9.998   7.956  0.0059  0.4011  0.3145
  923MOL0     C21747   0.682   9.853   7.907  0.0557 -0.3236 -0.3524
  923MOL0    Cl21748   0.792   9.870   7.767 -0.4062 -0.2112 -0.0418
  923MOL0     C21749   1.425  10.610   7.784  0.2465 -0.2119 -0.5433
  923MOL0     C21750   1.512  10.670   7.690  0.3566 -0.6035  0.1891
  923MOL0     O21751   1.529  10.821   7.416 -0.0528  0.4252 -0.7111
  923MOL0     C21752   1.863  10.757   7.343  0.2653 -0.9630 -0.3633
  923MOL0     C21753   1.977  10.828   7.312  0.7213  0.5727  0.0168
  923MOL0     N21754   2.671  10.930   6.994 -0.3128 -0.0122  0.4156
  923MOL0     N21755   2.799  10.910   6.980 -0.6606  0.1953 -0.0198
  923MOL0     C21756   3.876  11.273   6.562 -0.2660 -0.0175  0.8399
  923MOL0     C21757   3.996  11.223   6.522  0.1327  0.1503  0.3424
  923MOL0     C21758   4.419  11.152   6.422 -1.2533  0.8275 -0.7848
  923MOL0     C21759   4.521  11.061   6.476  0.6274 -0.0513 -0.0401
  923MOL0     C21760   4.607  10.998   6.385 -0.5122 -0.1611 -0.1940
  923MOL0     C21761   4.597  11.021   6.248 -1.2188  1.4572 -0.6673
  923MOL0     O21762   4.680  10.960   6.155  0.0256 -0.8113 -0.2563
  923MOL0     C21763   4.746  10.841   6.181  0.2511  0.0959 -0.6256
  923MOL0     C21764   4.701  10.730   6.086  0.0620 -1.0210 -0.2751
  923MOL0     C21765   4.803  10.618   6.102 -0.5972 -0.5262  0.0014
  923MOL0     C21766   4.921  10.607   6.017  0.4037  0.0311  0.4789
  923MOL0     C21767   4.876  10.576   5.881 -0.3803  0.6036  0.4441
  923MOL0     C21768   4.845  10.546   5.767  0.2692 -0.3570 -1.1510
  923MOL0     C21769   4.516  11.120   6.206 -0.2863  0.7752 -1.4323
  923MOL0     C21770   4.430  11.190   6.293  0.6222 -0.3819  0.8740
  923MOL0     H21771   4.183  11.520   6.506 -0.1983  0.8728  0.8099
  923MOL0     H21772   3.967  11.605   6.596  0.8733  0.4191 -3.9193
  923MOL0     H21773   3.628  11.293   6.581  6.3517  0.3925 -0.9206
  923MOL0     H21774   3.559  11.448   6.636  1.0798  0.3030 -0.2379
  923MOL0     H21775   3.614  11.409   6.861  0.3077  0.6846 -2.2915
  923MOL0     H21776   3.660  11.245   6.834 -0.9684 -1.2447  1.0522
  923MOL0     H21777   3.399  11.401   6.801 -0.1972  1.1410  1.1344
  923MOL0     H21778   3.429  11.284   6.922 -3.0361  1.0670 -0.0795
  923MOL0     H21779   3.421  11.220   6.618 -2.4552 -0.4750 -0.1114
  923MOL0     H21780   3.436  11.106   6.759 -1.8491 -2.2854 -2.2146
  923MOL0     H21781   3.209  11.148   6.652  1.6372 -1.1501  0.2122
  923MOL0     H21782   3.205  11.316   6.720 -1.4643  0.5862 -0.0579
  923MOL0     H21783   3.228  11.191   6.948 -2.3188  1.5042 -0.6738
  923MOL0     H21784   3.235  11.036   6.852 -0.4033 -0.0187  0.8976
  923MOL0     H21785   2.985  11.215   6.851  1.9334  0.7323 -3.7404
  923MOL0     H21786   3.011  11.049   6.774  3.5825  0.0146 -2.4533
  923MOL0     H21787   3.034  11.126   7.062  1.0198 -0.2471  0.5731
  923MOL0     H21788   3.041  10.955   7.017 -3.2528 -1.0195  1.2312
  923MOL0     H21789   2.771  11.238   7.033  0.6519  0.0911 -0.4667
  923MOL0     H21790   2.469  11.164   6.961  2.1189  0.1837 -0.4004
  923MOL0     H21791   2.532  11.219   7.116  3.4671 -1.9563  1.3644
  923MOL0     H21792   2.455  10.991   7.228  1.1634  1.0816 -0.9001
  923MOL0     H21793   2.405  10.929   7.077 -0.6831 -0.6322  0.1607
  923MOL0     H21794   2.283  11.173   7.201 -2.1162  3.4697 -3.2441
  923MOL0     H21795   2.248  11.113   7.030  3.0162  2.2222 -0.2574
  923MOL0     H21796   2.231  10.905   7.244 -2.4461 -1.5117 -0.1264
  923MOL0     H21797   2.144  10.923   7.091 -0.2709  1.1292 -0.6446
  923MOL0     H21798   1.847  11.132   7.232 -0.5975 -1.1071  0.5678
  923MOL0     H21799   1.641  11.011   7.306  0.9289  2.1847 -3.7049
  923MOL0     H21800   1.637  10.399   7.549  1.0236 -0.9028  1.1062
  923MOL0     H21801   1.516  10.289   7.755 -1.1416 -0.5346  0.0792
  923MOL0     H21802   1.299  10.212   7.889 -1.1166 -0.4721  0.7336
  923MOL0     H21803   1.236  10.326   7.770 -0.8314  0.0604  0.6369
  923MOL0     H21804   1.108  10.440   7.941 -2.5340 -1.4103 -2.6471
  923MOL0     H21805   1.185  10.324   8.057  4.7715  1.4767 -0.5439
  923MOL0     H21806   1.061  10.145   7.920 -3.2479 -0.7944 -2.9275
  923MOL0     H21807   0.982  10.283   7.839  1.0069  0.3712 -0.9091
  923MOL0     H21808   0.963  10.190   8.139 -0.2423 -1.8959 -2.4180
  923MOL0     H21809   0.939  10.353   8.088 -1.0711  0.4219 -0.9898
  923MOL0     H21810   0.765  10.265   7.931 -2.7093  3.3315  2.3506
  923MOL0     H21811   0.728  10.246   8.102 -1.0751 -2.2490  1.4291
  923MOL0     H21812   0.800  10.025   8.115  0.7983 -1.1599 -0.2407
  923MOL0     H21813   0.870  10.024   7.955 -0.5086 -0.7489 -1.3097
  923MOL0     H21814   0.572   9.999   8.034  0.1406 -0.6537  0.4796
  923MOL0     H21815   0.613  10.069   7.881  0.3073 -0.6872 -0.8991
  923MOL0     H21816   0.598   9.786   7.887  1.2261 -2.4211  1.3663
  923MOL0     H21817   0.733   9.798   7.987  1.2427  2.4394  0.9181
  923MOL0     H21818   1.372  10.670   7.857  1.1712  0.8578 -0.7180
  923MOL0     H21819   1.511  10.777   7.672 -0.9924 -0.7762 -0.9122
  923MOL0     H21820   1.878  10.651   7.356  1.3785 -0.7786 -0.0347
  923MOL0     H21821   2.067  10.768   7.314  0.2447 -0.1591  0.5526
  923MOL0     H21822   3.798  11.200   6.581  0.9845 -2.6385 -2.8918
  923MOL0     H21823   3.999  11.116   6.508 -0.6203 -0.2231  2.6599
  923MOL0     H21824   4.529  11.034   6.581 -0.3995  2.4583  0.7738
  923MOL0     H21825   4.675  10.924   6.425 -1.1175  0.6188  2.4581
  923MOL0     H21826   4.726  10.810   6.284 -3.0577  2.8197 -0.2830
  923MOL0     H21827   4.852  10.866   6.169  0.4866 -0.3144  0.4461
  923MOL0     H21828   4.602  10.693   6.114  0.0183 -1.2991 -0.8004
  923MOL0     H21829   4.703  10.768   5.983  1.6844 -3.9933 -1.4511
  923MOL0     H21830   4.749  10.525   6.082  0.1107 -1.3635  1.8087
  923MOL0     H21831   4.843  10.615   6.204 -2.4450 -0.9337  0.7422
  923MOL0     H21832   4.974  10.701   5.998 -3.6484  1.7444 -5.0108
  923MOL0     H21833   4.986  10.532   6.063 -1.5799 -0.8046  2.0517
  923MOL0     H21834   4.820  10.531   5.664  1.4789  1.6319 -1.7773
  923MOL0     H21835   4.516  11.141   6.099 -4.2652 -0.0664 -1.7479
  923MOL0     H21836   4.356  11.261   6.257 -0.6387 -1.0700  2.0494
  924MOL0     O21837   2.735   3.946  10.830  0.6753 -1.0074 -0.5313
  924MOL0     C21838   2.776   3.908  10.938 -0.6612  0.0379 -0.6264
  924MOL0     O21839   2.705   3.837  11.034 -0.9839  0.4788 -0.0920
  924MOL0     C21840   2.573   3.822  11.020 -0.0462 -0.2279 -0.8612
  924MOL0     C21841   2.520   3.700  11.072  0.1287  0.3847  0.6121
  924MOL0     C21842   2.386   3.670  11.062 -0.9278  0.6068 -0.0081
  924MOL0     C21843   2.300   3.771  11.006  0.3490  0.2305  1.8095
  924MOL0     O21844   2.164   3.747  10.992  0.0059 -0.9057  0.1035
  924MOL0     C21845   2.134   3.645  10.892  0.0374 -0.2290  1.0417
  924MOL0     C21846   2.094   3.730  10.763  0.3064  0.1898  0.1020
  924MOL0     C21847   1.955   3.800  10.774  0.4693 -0.0001 -0.5831
  924MOL0     C21848   1.962   3.944  10.732  0.1942  0.5274  0.3143
  924MOL0     C21849   1.836   4.027  10.773 -0.1680  0.5744 -0.1305
  924MOL0     C21850   1.824   4.053  10.929  0.0850  0.3915 -0.1691
  924MOL0     C21851   1.937   4.129  10.993  0.1785 -0.3995 -0.2128
  924MOL0     C21852   1.903   4.166  11.142 -1.0827 -0.3274 -0.5022
  924MOL0     N21853   1.922   4.048  11.222 -0.6605 -0.0156 -0.1282
  924MOL0     C21854   2.038   3.993  11.276  0.5412  0.2840 -0.7758
  924MOL0     C21855   2.007   3.900  11.368 -0.8969 -0.3051 -0.3942
  924MOL0     C21856   2.108   3.820  11.445  0.0039  0.3390 -0.0026
  924MOL0     C21857   2.158   3.886  11.573  0.0127  0.1402  0.3146
  924MOL0     C21858   2.247   4.006  11.559  0.8585 -0.6531 -0.9547
  924MOL0     C21859   2.284   4.068  11.698  0.1767 -1.0804 -0.0707
  924MOL0     O21860   2.326   3.968  11.788 -0.2607  0.3970 -1.0194
  924MOL0     C21861   2.319   3.995  11.919  0.0580 -0.1528  0.4306
  924MOL0     C21862   2.316   4.121  11.981 -0.1824 -0.0270 -0.0818
  924MOL0     C21863   2.318   4.132  12.121  0.2981  0.8400 -1.5323
  924MOL0     C21864   2.336   4.011  12.202  0.0292  0.5732 -0.9858
  924MOL0     C21865   2.359   4.016  12.350  0.2033 -0.9132 -0.4605
  924MOL0     O21866   2.434   4.118  12.402  0.2365 -1.0069 -0.2895
  924MOL0     C21867   2.484   4.094  12.530  0.4346  0.8247 -0.8096
  924MOL0     C21868   2.582   4.005  12.551 -0.6573 -0.2066 -0.0981
  924MOL0     C21869   2.631   3.983  12.688  0.3258  0.7363  0.7857
  924MOL0     C21870   2.575   4.047  12.789  0.8331 -0.5955  0.4109
  924MOL0     O21871   2.625   4.014  12.915 -0.6000  0.4467 -0.0827
  924MOL0     C21872   2.552   4.076  13.027  0.4453 -0.6569 -0.3071
  924MOL0     C21873   2.616   4.057  13.165 -0.1801  0.2447 -0.5231
  924MOL0     C21874   2.537   4.108  13.287  0.0272  0.4652  0.6089
  924MOL0     C21875   2.620   4.107  13.418 -0.8506 -0.1614 -0.0999
  924MOL0     C21876   2.535   4.087  13.546  0.6638 -0.8546 -0.0033
  924MOL0     C21877   2.504   3.939  13.570  0.1673 -0.2897  0.3200
  924MOL0     C21878   2.355   3.913  13.577  0.1598 -0.7576 -0.1929
  924MOL0     C21879   2.319   3.778  13.519  0.1198  0.5868  1.1472
  924MOL0    Cl21880   2.149   3.753  13.554 -0.0252 -0.0165 -0.0564
  924MOL0     C21881   2.476   4.137  12.769 -0.6659 -0.2795 -0.1840
  924MOL0     C21882   2.436   4.167  12.634 -0.1034  0.2364 -0.2736
  924MOL0     O21883   2.307   3.923  12.416 -0.3958 -0.5213 -0.2954
  924MOL0     C21884   2.344   3.885  12.135  0.1260  0.0810 -0.9163
  924MOL0     C21885   2.341   3.881  11.998  0.1792 -0.1660  0.7668
  924MOL0     N21886   1.869   3.884  11.365 -0.1153 -0.6493  0.4118
  924MOL0     N21887   1.818   3.979  11.292 -0.3498 -0.1842  0.3214
  924MOL0     C21888   2.358   3.885  10.946 -0.0054  0.0215 -0.3232
  924MOL0     C21889   2.493   3.907  10.956 -0.2739 -0.0327  1.1866
  924MOL0     C21890   2.917   3.928  10.973 -0.5178  0.0248  0.1489
  924MOL0     C21891   3.008   4.005  10.889  0.3016  0.7705 -0.7220
  924MOL0     C21892   3.134   4.038  10.925 -0.2171 -0.4506  0.1314
  924MOL0     C21893   3.190   3.979  11.037 -0.7686 -0.9314 -1.2702
  924MOL0     O21894   3.328   4.006  11.067  1.1322 -0.0186 -0.2537
  924MOL0     C21895   3.398   3.890  11.129 -0.8101  0.2690 -0.0264
  924MOL0     C21896   3.551   3.893  11.108  0.1204 -0.3143 -0.4374
  924MOL0     C21897   3.579   3.948  10.962  0.2732 -0.0220  0.0544
  924MOL0     C21898   3.728   3.993  10.953 -0.4810  0.2880  0.4168
  924MOL0     C21899   3.822   3.871  10.935  0.6436 -0.5820 -0.1413
  924MOL0     C21900   3.871   3.766  10.898  0.4438  0.2302  1.0007
  924MOL0     C21901   3.112   3.888  11.118 -0.4464  0.3940  0.3614
  924MOL0     C21902   2.975   3.871  11.089 -0.5854  0.5420 -0.6605
  924MOL0     H21903   2.591   3.634  11.121  2.7729  3.0782  0.7389
  924MOL0     H21904   2.353   3.574  11.100  2.3876 -1.2677 -1.4715
  924MOL0     H21905   2.056   3.573  10.920  1.4059 -0.9255  3.4014
  924MOL0     H21906   2.226   3.587  10.881 -0.2650 -1.0635  2.5925
  924MOL0     H21907   2.093   3.667  10.673  2.4361  1.1409 -0.6432
  924MOL0     H21908   2.175   3.796  10.733 -0.6887  0.3692 -2.4635
  924MOL0     H21909   1.934   3.797  10.881  0.1193 -1.3340 -0.6678
  924MOL0     H21910   1.881   3.748  10.713  0.4084 -0.9631  0.2911
  924MOL0     H21911   2.054   3.993  10.767 -0.6704  1.0979  1.8622
  924MOL0     H21912   1.967   3.942  10.622  1.8407  0.9867  0.3436
  924MOL0     H21913   1.748   3.970  10.743 -0.1506  0.3477  0.2582
  924MOL0     H21914   1.832   4.112  10.703  0.8861 -0.7952 -1.9483
  924MOL0     H21915   1.795   3.964  10.987 -0.8438  0.5682 -0.3448
  924MOL0     H21916   1.731   4.109  10.942  0.3425  0.6699  0.4782
  924MOL0     H21917   2.038   4.090  10.976  0.6977  0.8089 -0.0489
  924MOL0     H21918   1.947   4.219  10.931 -0.1127  0.0954  0.4479
  924MOL0     H21919   1.811   4.223  11.156  0.6128  2.6011 -0.2174
  924MOL0     H21920   1.979   4.241  11.170 -0.8790  0.1646 -2.2238
  924MOL0     H21921   2.140   4.028  11.263  0.4214  1.4101  1.0681
  924MOL0     H21922   2.197   3.802  11.385 -0.2480  1.2872 -0.6892
  924MOL0     H21923   2.059   3.730  11.484 -0.8037  2.3619  4.2581
  924MOL0     H21924   2.203   3.805  11.632  0.6816 -1.2909 -2.0278
  924MOL0     H21925   2.067   3.910  11.628 -0.0017 -1.5180  1.0700
  924MOL0     H21926   2.339   3.983  11.504  0.5587 -0.0529 -1.7374
  924MOL0     H21927   2.185   4.080  11.507  0.1931 -1.3598 -1.1942
  924MOL0     H21928   2.205   4.120  11.753  2.6961  1.1115  1.7800
  924MOL0     H21929   2.368   4.138  11.690  0.5440 -1.1923  2.1456
  924MOL0     H21930   2.322   4.211  11.921  3.2796 -0.9729 -1.3695
  924MOL0     H21931   2.336   4.228  12.167  0.9908 -0.8689  2.1240
  924MOL0     H21932   2.599   3.940  12.465  0.6978  0.6312 -0.4929
  924MOL0     H21933   2.708   3.908  12.705 -1.4628 -1.1025  1.1489
  924MOL0     H21934   2.448   4.042  13.031  0.1974  0.2327  2.9922
  924MOL0     H21935   2.546   4.185  13.029 -1.6536 -0.7497  0.0169
  924MOL0     H21936   2.714   4.102  13.148  0.7938 -1.1660  1.0060
  924MOL0     H21937   2.628   3.948  13.166 -3.1670 -0.1856  1.4820
  924MOL0     H21938   2.434   4.081  13.312 -1.0266  3.2751 -0.2740
  924MOL0     H21939   2.517   4.213  13.261 -0.5807 -0.2076 -1.9800
  924MOL0     H21940   2.696   4.028  13.415 -0.0547  0.5629  0.2291
  924MOL0     H21941   2.679   4.200  13.416 -1.4220  0.3082  2.1843
  924MOL0     H21942   2.451   4.156  13.537  1.7486  0.4915 -0.0733
  924MOL0     H21943   2.583   4.116  13.640  2.1742  1.6504 -1.4661
  924MOL0     H21944   2.550   3.914  13.666  0.6837  0.8193  0.3759
  924MOL0     H21945   2.547   3.863  13.504 -0.6180 -0.7102  0.2766
  924MOL0     H21946   2.328   3.916  13.683  1.1722  0.5195  0.0487
  924MOL0     H21947   2.293   3.991  13.532  0.9063 -1.7360 -3.1396
  924MOL0     H21948   2.375   3.697  13.567 -0.5990  1.4896  3.6689
  924MOL0     H21949   2.333   3.778  13.411 -0.1710 -0.3013  1.1035
  924MOL0     H21950   2.429   4.188  12.852  1.0433  2.2718 -0.6760
  924MOL0     H21951   2.360   4.242  12.616 -2.2627 -2.4928 -3.8571
  924MOL0     H21952   2.354   3.796  12.197 -1.1414 -0.1950 -1.0601
  924MOL0     H21953   2.355   3.789  11.943 -2.0444  0.0082 -0.2029
  924MOL0     H21954   2.308   3.969  10.899  1.1560  0.1595 -1.3575
  924MOL0     H21955   2.521   4.001  10.908  0.2946 -1.3193 -1.1403
  924MOL0     H21956   2.966   4.045  10.798  1.8715  4.5878  0.0296
  924MOL0     H21957   3.188   4.096  10.852 -0.2165  0.2030  0.6382
  924MOL0     H21958   3.361   3.804  11.073  1.7636  0.4143 -2.1486
  924MOL0     H21959   3.391   3.874  11.237  0.7819 -1.6794 -0.1455
  924MOL0     H21960   3.600   3.955  11.183 -3.4165  2.9031 -0.5251
  924MOL0     H21961   3.589   3.791  11.122 -1.2153 -1.3488 -3.3427
  924MOL0     H21962   3.513   4.027  10.926 -1.1145 -1.3249 -0.3600
  924MOL0     H21963   3.563   3.858  10.902  2.3995  0.5388 -1.4500
  924MOL0     H21964   3.752   4.059  10.869  2.2681  0.9634  1.6358
  924MOL0     H21965   3.758   4.047  11.043 -2.7186  1.7988  0.3543
  924MOL0     H21966   3.914   3.675  10.861 -0.3215 -0.0592  0.7866
  924MOL0     H21967   3.150   3.842  11.209 -2.3849  0.0984  1.0619
  924MOL0     H21968   2.913   3.812  11.155  1.7371  0.2446  1.3992
  925MOL0     O21969   8.250   4.525   9.379  0.9563  0.0119  0.3810
  925MOL0     C21970   8.341   4.451   9.333  0.0320  0.0489  0.1261
  925MOL0     O21971   8.327   4.321   9.294 -0.1321 -0.6533  0.6615
  925MOL0     C21972   8.206   4.254   9.309  0.2361  0.8705 -0.0028
  925MOL0     C21973   8.200   4.130   9.375  0.0536 -0.2684 -0.5761
  925MOL0     C21974   8.075   4.071   9.400 -0.2527 -0.3991  0.8666
  925MOL0     C21975   7.959   4.127   9.353 -1.3895  0.3816  0.6298
  925MOL0     O21976   7.837   4.075   9.386 -0.0947  0.0541  0.1597
  925MOL0     C21977   7.734   4.100   9.291  0.5405 -0.5452  0.2607
  925MOL0     C21978   7.635   3.998   9.319 -0.4929  0.1417  0.5440
  925MOL0     C21979   7.500   4.036   9.265  0.2741 -0.4641  0.9832
  925MOL0     C21980   7.393   3.917   9.285 -1.1947  0.6778 -0.7531
  925MOL0     C21981   7.284   3.929   9.179 -0.7331  1.0342  0.5966
  925MOL0     C21982   7.170   3.826   9.185  0.1088  1.0040  0.5838
  925MOL0     C21983   7.214   3.676   9.201 -0.0512 -0.5264  0.7432
  925MOL0     C21984   7.308   3.627   9.094 -0.6584  0.4921 -0.2370
  925MOL0     N21985   7.258   3.642   8.956 -0.4895  0.2636 -1.0066
  925MOL0     C21986   7.167   3.555   8.898  0.5839  0.0083  0.2390
  925MOL0     C21987   7.152   3.586   8.768  0.3145 -0.2878 -0.1181
  925MOL0     C21988   7.051   3.516   8.673  0.0193  0.6555  0.7482
  925MOL0     C21989   7.096   3.378   8.644 -0.6106  0.6329  0.2686
  925MOL0     C21990   7.220   3.361   8.552 -0.6466  0.1716  0.4398
  925MOL0     C21991   7.179   3.393   8.401 -0.8319 -0.5870 -0.3998
  925MOL0     O21992   7.302   3.431   8.342  0.1753 -0.7400  0.5155
  925MOL0     C21993   7.345   3.348   8.242 -0.6383 -0.4830  0.3133
  925MOL0     C21994   7.352   3.209   8.263  0.8489  0.6815 -0.1042
  925MOL0     C21995   7.368   3.123   8.160  0.6686  0.5902 -0.1534
  925MOL0     C21996   7.410   3.174   8.035 -0.3474 -0.2992 -0.3894
  925MOL0     C21997   7.435   3.085   7.914 -0.2980  0.8559  0.7364
  925MOL0     O21998   7.447   2.951   7.933  0.0274  0.1200 -0.7641
  925MOL0     C21999   7.452   2.872   7.825 -0.3364 -1.4459 -0.2504
  925MOL0     C22000   7.577   2.818   7.796  0.0759 -0.0665  0.1715
  925MOL0     C22001   7.592   2.723   7.693 -0.7073  0.9248 -0.1195
  925MOL0     C22002   7.482   2.670   7.628 -0.0404  0.6703  0.1911
  925MOL0     O22003   7.497   2.573   7.528 -0.6465 -0.8276 -1.0205
  925MOL0     C22004   7.591   2.465   7.559  0.5434 -0.7756  0.0925
  925MOL0     C22005   7.608   2.337   7.462  0.5934 -1.2620 -0.7245
  925MOL0     C22006   7.713   2.358   7.355 -0.6522 -0.7480 -1.1560
  925MOL0     C22007   7.650   2.417   7.234 -0.2115 -0.6840  0.7008
  925MOL0     C22008   7.756   2.479   7.140  0.9034  0.2484  0.6498
  925MOL0     C22009   7.804   2.609   7.200 -0.0351 -0.9745 -0.4530
  925MOL0     C22010   7.845   2.707   7.088  0.5832 -0.7385  0.3260
  925MOL0     C22011   7.850   2.846   7.137 -0.2300 -0.5519 -0.3270
  925MOL0    Cl22012   8.015   2.887   7.199 -0.2279  0.0229 -0.2703
  925MOL0     C22013   7.353   2.719   7.666 -0.5886 -0.9591  0.0778
  925MOL0     C22014   7.343   2.818   7.760 -0.1574 -0.0835 -0.3637
  925MOL0     O22015   7.440   3.148   7.806 -0.2734  0.7709  0.2731
  925MOL0     C22016   7.420   3.316   8.025  1.0963  0.4710  0.6080
  925MOL0     C22017   7.376   3.401   8.122 -0.6996  0.0888  0.7662
  925MOL0     N22018   7.248   3.687   8.755  0.1444 -0.4937  0.5796
  925MOL0     N22019   7.316   3.721   8.866 -0.4361 -0.5854  0.0009
  925MOL0     C22020   7.966   4.243   9.268 -0.4115  0.4002 -0.3864
  925MOL0     C22021   8.087   4.310   9.259  0.7168  0.3636  0.3543
  925MOL0     C22022   8.477   4.500   9.328 -0.3244  0.1443  0.2725
  925MOL0     C22023   8.518   4.620   9.378  0.7246 -1.2364 -0.0810
  925MOL0     C22024   8.645   4.671   9.361 -0.7051  0.1345  0.1027
  925MOL0     C22025   8.733   4.595   9.294  0.0773  0.4796  0.6646
  925MOL0     O22026   8.864   4.635   9.275 -0.7300 -0.6887  0.3046
  925MOL0     C22027   8.966   4.547   9.329 -0.1132  0.2679 -0.4635
  925MOL0     C22028   9.083   4.632   9.384  0.6801 -0.8727 -0.0223
  925MOL0     C22029   9.202   4.555   9.440  0.7292 -0.9446 -0.9282
  925MOL0     C22030   9.317   4.655   9.442  0.2101 -0.4040 -0.0176
  925MOL0     C22031   9.441   4.585   9.466  0.7524  0.2239  0.0224
  925MOL0     C22032   9.534   4.513   9.485 -0.0264  0.5628  0.1507
  925MOL0     C22033   8.707   4.463   9.258  1.5435 -0.1271 -0.4773
  925MOL0     C22034   8.577   4.415   9.265  0.6729 -0.7547 -0.5172
  925MOL0     H22035   8.285   4.079   9.418 -1.7612 -3.0120  0.0250
  925MOL0     H22036   8.083   3.976   9.453 -0.5496  0.6486  2.9178
  925MOL0     H22037   7.773   4.090   9.189  1.7582 -2.0946  0.8434
  925MOL0     H22038   7.687   4.197   9.309 -3.0051 -1.7742 -1.3415
  925MOL0     H22039   7.632   3.969   9.424 -0.2194 -2.0351  0.0027
  925MOL0     H22040   7.666   3.903   9.274 -0.9215  0.7609 -1.1515
  925MOL0     H22041   7.508   4.054   9.157  0.2074  3.3766  1.4653
  925MOL0     H22042   7.461   4.128   9.309  0.0063  1.4739 -2.9103
  925MOL0     H22043   7.452   3.826   9.279 -2.0811 -0.0069  0.4584
  925MOL0     H22044   7.357   3.915   9.388 -0.5988  0.2128 -0.5502
  925MOL0     H22045   7.321   3.918   9.076  0.4102  0.5716  1.0388
  925MOL0     H22046   7.234   4.026   9.182 -0.6004  1.1071  0.4593
  925MOL0     H22047   7.108   3.834   9.095  2.3417 -1.8686 -1.4122
  925MOL0     H22048   7.100   3.844   9.267 -1.5117  2.6908 -1.0648
  925MOL0     H22049   7.264   3.669   9.298 -2.5401 -3.6374  1.9766
  925MOL0     H22050   7.126   3.612   9.210  0.9002 -2.1186 -0.5647
  925MOL0     H22051   7.332   3.521   9.108 -1.1979  0.2699 -0.9583
  925MOL0     H22052   7.406   3.677   9.094 -1.5317  2.4609 -3.1000
  925MOL0     H22053   7.121   3.470   8.947 -1.7491  0.1541 -1.4998
  925MOL0     H22054   7.039   3.561   8.574 -1.2051  0.5335  0.8167
  925MOL0     H22055   6.956   3.524   8.728 -1.4784  0.6964 -1.6617
  925MOL0     H22056   7.011   3.320   8.607 -1.2819  1.1312  0.9766
  925MOL0     H22057   7.118   3.318   8.733 -0.4987 -0.6434 -0.6075
  925MOL0     H22058   7.308   3.420   8.579 -1.5565  1.8536 -0.1342
  925MOL0     H22059   7.236   3.253   8.556  0.2301  0.3160  1.0166
  925MOL0     H22060   7.124   3.488   8.398  1.3253  0.7066 -4.0881
  925MOL0     H22061   7.119   3.317   8.350  0.8197 -0.7487 -2.2016
  925MOL0     H22062   7.325   3.167   8.359 -1.4058  0.0866 -0.9301
  925MOL0     H22063   7.344   3.019   8.180 -2.0563  1.5200  1.9446
  925MOL0     H22064   7.657   2.857   7.859 -1.1732  0.5429  1.4448
  925MOL0     H22065   7.694   2.692   7.673 -0.7056  0.9973 -0.2221
  925MOL0     H22066   7.566   2.424   7.657  0.1753 -1.9998 -0.4845
  925MOL0     H22067   7.696   2.489   7.572 -0.1527  1.8349  1.5212
  925MOL0     H22068   7.512   2.325   7.411 -0.0505 -0.6074  0.2992
  925MOL0     H22069   7.641   2.249   7.517 -0.0410 -2.0697 -1.6089
  925MOL0     H22070   7.763   2.266   7.322  0.6764  0.4095 -2.5259
  925MOL0     H22071   7.787   2.429   7.394  0.0486 -0.7612 -2.4157
  925MOL0     H22072   7.604   2.339   7.173  0.7587 -0.9974  0.3555
  925MOL0     H22073   7.579   2.498   7.255 -1.4985 -1.1028 -1.6885
  925MOL0     H22074   7.712   2.507   7.044 -0.4956  2.0128  1.7433
  925MOL0     H22075   7.826   2.397   7.122  1.3326  0.6810  0.3298
  925MOL0     H22076   7.895   2.600   7.261 -0.1681 -0.7382 -0.2136
  925MOL0     H22077   7.727   2.659   7.261  2.1557  2.2565 -0.0728
  925MOL0     H22078   7.940   2.667   7.050  1.2209  0.9397  0.0961
  925MOL0     H22079   7.768   2.714   7.011  0.9423  0.8430  0.0863
  925MOL0     H22080   7.788   2.859   7.227  0.3784 -2.4467  0.4088
  925MOL0     H22081   7.815   2.918   7.063 -0.6160  0.7220  1.0471
  925MOL0     H22082   7.272   2.694   7.598 -0.0760 -0.9797 -0.5288
  925MOL0     H22083   7.254   2.869   7.795  0.0768 -0.9843  1.6705
  925MOL0     H22084   7.433   3.374   7.934  0.4627 -1.9013 -1.1127
  925MOL0     H22085   7.371   3.509   8.110  0.5373 -0.0797 -1.8160
  925MOL0     H22086   7.887   4.291   9.211  2.3723  0.4536 -4.6913
  925MOL0     H22087   8.083   4.400   9.198  1.4508 -1.0002 -1.7694
  925MOL0     H22088   8.434   4.677   9.417 -0.5807 -1.7880 -1.9157
  925MOL0     H22089   8.684   4.770   9.384 -1.8878  1.0440 -1.5374
  925MOL0     H22090   9.004   4.477   9.255  1.3093 -0.4767  0.9059
  925MOL0     H22091   8.921   4.499   9.417  0.6729 -0.7175 -0.5829
  925MOL0     H22092   9.104   4.706   9.306 -2.6889 -1.3147 -1.5411
  925MOL0     H22093   9.054   4.691   9.471 -0.6371 -2.1484  0.4392
  925MOL0     H22094   9.219   4.463   9.384  0.0003 -2.2685  0.9187
  925MOL0     H22095   9.185   4.518   9.542  1.6318 -1.5165 -0.9662
  925MOL0     H22096   9.316   4.707   9.345 -5.3722  0.7680  0.3107
  925MOL0     H22097   9.294   4.718   9.528 -1.8664 -5.2860  3.4622
  925MOL0     H22098   9.612   4.442   9.502  0.3281  0.6441 -1.0094
  925MOL0     H22099   8.776   4.385   9.227  3.4431  0.4337  1.9934
  925MOL0     H22100   8.562   4.321   9.212  3.7920  0.1301 -3.3794
  926MOL0     O22101   3.181  10.494   4.508 -0.2917  0.0866  0.0786
  926MOL0     C22102   3.097  10.425   4.566  0.1110 -0.7981 -0.0611
  926MOL0     O22103   3.078  10.411   4.701  0.1423  0.2481 -0.0547
  926MOL0     C22104   3.133  10.504   4.788 -0.3281  0.1669  0.3266
  926MOL0     C22105   3.166  10.640   4.757 -0.9521 -1.1472  0.4686
  926MOL0     C22106   3.222  10.724   4.849 -0.7360  0.0156 -0.2857
  926MOL0     C22107   3.229  10.682   4.978 -0.4640  0.3669  0.4517
  926MOL0     O22108   3.276  10.767   5.075 -0.9712  1.0256 -0.1560
  926MOL0     C22109   3.190  10.823   5.169  0.2669  0.9506 -0.3207
  926MOL0     C22110   3.285  10.900   5.260  0.2699  0.8798  0.6485
  926MOL0     C22111   3.344  10.823   5.382 -0.2857 -0.0293  0.7354
  926MOL0     C22112   3.379  10.680   5.361 -0.5382  0.3744 -0.0987
  926MOL0     C22113   3.432  10.628   5.496  0.5943  0.8442  0.1995
  926MOL0     C22114   3.589  10.594   5.489  0.3132  0.1571 -0.3567
  926MOL0     C22115   3.657  10.603   5.628 -0.4358 -0.4164 -0.5229
  926MOL0     C22116   3.663  10.746   5.681 -0.2399  0.3580  0.6050
  926MOL0     N22117   3.742  10.768   5.808 -0.1569 -0.2783  0.0297
  926MOL0     C22118   3.805  10.882   5.840  0.9264 -0.8149  0.4924
  926MOL0     C22119   3.878  10.857   5.947 -0.9235  0.5610  0.0129
  926MOL0     C22120   3.975  10.954   6.010  1.0412  0.3173  0.5471
  926MOL0     C22121   3.888  11.074   6.058 -0.1152 -0.6617  0.5538
  926MOL0     C22122   3.963  11.192   6.123  0.5768 -0.5531  0.1724
  926MOL0     C22123   4.070  11.249   6.025  0.3533 -0.0744  0.8741
  926MOL0     O22124   4.140  11.364   6.088  0.1573 -0.4764  0.8628
  926MOL0     C22125   4.255  11.405   6.021 -0.1579  0.2705  0.3923
  926MOL0     C22126   4.280  11.369   5.886 -0.7087  0.5689 -1.0410
  926MOL0     C22127   4.405  11.405   5.828 -0.5614  0.0787  0.1647
  926MOL0     C22128   4.515  11.453   5.906 -0.2495 -0.3698 -0.2392
  926MOL0     C22129   4.648  11.466   5.847 -0.3180  0.5856 -0.1825
  926MOL0     O22130   4.674  11.433   5.715 -0.8033  0.5896  0.0668
  926MOL0     C22131   4.800  11.456   5.662 -0.6156  1.2975  0.7790
  926MOL0     C22132   4.839  11.370   5.566  0.4466 -0.0665  0.7124
  926MOL0     C22133   4.958  11.412   5.493  0.5637 -0.1751  0.2554
  926MOL0     C22134   5.016  11.537   5.499  0.9573  0.0539 -0.2298
  926MOL0     O22135   5.119  11.577   5.419  0.4620  0.0137  0.5175
  926MOL0     C22136   5.065  11.642   5.302  0.7722  0.4541  0.1308
  926MOL0     C22137   5.022  11.540   5.202 -0.8985 -0.4919  0.2755
  926MOL0     C22138   5.130  11.436   5.176 -0.4395 -0.9854  0.4355
  926MOL0     C22139   5.076  11.333   5.084  0.4505 -0.5180  0.2428
  926MOL0     C22140   5.185  11.231   5.043 -0.3155 -0.0795 -0.1844
  926MOL0     C22141   5.127  11.124   4.951  0.2121 -0.0731  0.0363
  926MOL0     C22142   5.243  11.029   4.908  0.3035 -0.5159  0.7652
  926MOL0     C22143   5.188  10.896   4.833  1.1353 -0.2112  0.4792
  926MOL0    Cl22144   5.148  10.928   4.663  0.3116 -0.0197 -0.0670
  926MOL0     C22145   4.953  11.624   5.582  0.3917  0.1615  0.3220
  926MOL0     C22146   4.857  11.581   5.673  0.5802  0.5229 -0.5917
  926MOL0     O22147   4.736  11.476   5.931 -0.3550  0.0055  0.4439
  926MOL0     C22148   4.483  11.487   6.042  0.3040  0.1625 -0.1305
  926MOL0     C22149   4.355  11.462   6.098  0.4934 -0.2314  0.3106
  926MOL0     N22150   3.868  10.721   5.979  0.2206 -0.6435  0.8409
  926MOL0     N22151   3.775  10.670   5.901 -0.1175  0.1011 -0.6385
  926MOL0     C22152   3.174  10.559   5.022 -0.7116 -0.4075 -0.0399
  926MOL0     C22153   3.128  10.467   4.926 -0.5270 -1.7643 -0.2440
  926MOL0     C22154   3.022  10.337   4.480 -1.2821  1.5126  0.0140
  926MOL0     C22155   3.049  10.304   4.342  1.2088 -0.6590 -0.0646
  926MOL0     C22156   2.971  10.212   4.267 -0.5353  0.0696 -0.8389
  926MOL0     C22157   2.858  10.149   4.331 -0.3686  1.1004 -0.2395
  926MOL0     O22158   2.773  10.059   4.277 -1.1355  0.5435 -0.4301
  926MOL0     C22159   2.819   9.975   4.161 -0.3260 -0.3492 -0.7966
  926MOL0     C22160   2.762  10.018   4.030 -0.4057 -0.2360 -0.5628
  926MOL0     C22161   2.617  10.052   4.019  0.1291 -0.1147  0.3199
  926MOL0     C22162   2.566  10.182   4.085 -0.7709  0.7988 -0.5216
  926MOL0     C22163   2.634  10.306   4.036  0.1825  0.2935 -0.2747
  926MOL0     C22164   2.679  10.398   3.990 -0.7292 -0.2266  0.6031
  926MOL0     C22165   2.834  10.180   4.470 -0.7439  0.2394 -0.3346
  926MOL0     C22166   2.916  10.265   4.541  0.1235  0.6094  0.9972
  926MOL0     H22167   3.159  10.678   4.656  0.2995  1.5634  1.3111
  926MOL0     H22168   3.255  10.825   4.828  0.4159  0.6508  3.7435
  926MOL0     H22169   3.139  10.744   5.225  3.9083 -0.0659  1.8952
  926MOL0     H22170   3.112  10.888   5.126 -3.4551 -0.6482  3.2949
  926MOL0     H22171   3.243  10.997   5.287  0.3027  1.4806 -1.2603
  926MOL0     H22172   3.371  10.925   5.197  1.6277 -2.0471  1.1612
  926MOL0     H22173   3.257  10.821   5.449  0.4448 -2.5792  1.7306
  926MOL0     H22174   3.430  10.879   5.419 -0.0087 -0.4534  0.7508
  926MOL0     H22175   3.303  10.613   5.321  1.0818 -0.7086 -1.5065
  926MOL0     H22176   3.461  10.668   5.289  0.9867 -0.8310  1.7318
  926MOL0     H22177   3.378  10.538   5.524  1.2431  0.0463 -1.0136
  926MOL0     H22178   3.402  10.704   5.568 -1.0623 -0.8647  1.3901
  926MOL0     H22179   3.644  10.660   5.421 -1.1718  2.0893  0.2201
  926MOL0     H22180   3.594  10.494   5.447 -0.0795 -0.2302  0.4896
  926MOL0     H22181   3.597  10.554   5.705 -0.0896  1.1866  0.8420
  926MOL0     H22182   3.758  10.561   5.622  0.2534  1.3227 -2.0297
  926MOL0     H22183   3.557  10.767   5.696  0.2827  2.6335  1.4682
  926MOL0     H22184   3.693  10.823   5.610  0.9645  0.7205  1.4794
  926MOL0     H22185   3.784  10.979   5.796  4.1525 -0.7380 -1.1497
  926MOL0     H22186   4.047  10.981   5.933  0.7245 -0.0797  0.1037
  926MOL0     H22187   4.040  10.915   6.089  0.4597  0.9715  1.3675
  926MOL0     H22188   3.816  11.037   6.131  2.4956 -1.0713  3.0895
  926MOL0     H22189   3.838  11.105   5.966 -0.2332 -1.0817  0.4713
  926MOL0     H22190   3.888  11.269   6.139 -0.1535 -1.3471  0.6733
  926MOL0     H22191   4.002  11.185   6.225  3.0181  0.7205 -0.5905
  926MOL0     H22192   4.017  11.283   5.936  0.5528 -0.5482  0.5716
  926MOL0     H22193   4.146  11.171   6.011 -1.5177 -2.2296  2.1444
  926MOL0     H22194   4.198  11.340   5.822 -1.7036 -1.3326  0.9705
  926MOL0     H22195   4.423  11.389   5.722  1.1281  2.5681 -0.0038
  926MOL0     H22196   4.786  11.278   5.546  0.3851 -0.0301  0.7117
  926MOL0     H22197   5.017  11.345   5.431 -0.8755 -0.2556 -1.0982
  926MOL0     H22198   5.139  11.708   5.256  1.4335  0.5036  1.2270
  926MOL0     H22199   4.979  11.705   5.328  1.5010  0.6655  2.2941
  926MOL0     H22200   5.004  11.601   5.113  3.0644  0.4367 -0.0865
  926MOL0     H22201   4.931  11.481   5.216  2.0778 -6.1965 -1.3804
  926MOL0     H22202   5.166  11.383   5.265 -1.4241  1.0212  2.1203
  926MOL0     H22203   5.220  11.484   5.136 -0.3089  0.3603  2.2301
  926MOL0     H22204   4.988  11.286   5.130  1.5792 -1.1199  1.8905
  926MOL0     H22205   5.030  11.387   5.001 -1.3945 -2.4922 -0.1088
  926MOL0     H22206   5.216  11.178   5.133  1.3428  0.7231 -0.2301
  926MOL0     H22207   5.269  11.287   5.001 -0.8790 -1.5217 -3.5614
  926MOL0     H22208   5.083  11.166   4.861 -0.6737 -1.8695 -0.3998
  926MOL0     H22209   5.050  11.065   5.000  0.5967 -3.1256 -2.7140
  926MOL0     H22210   5.315  11.073   4.839  0.1271 -0.3320  0.6983
  926MOL0     H22211   5.292  10.995   4.999 -3.3082 -1.9082  2.3795
  926MOL0     H22212   5.105  10.843   4.881 -1.6763  3.1636 -0.2669
  926MOL0     H22213   5.283  10.843   4.821  0.7309 -0.4805 -2.0028
  926MOL0     H22214   4.984  11.727   5.566  1.6406 -0.6440 -3.8470
  926MOL0     H22215   4.816  11.649   5.747  0.1093 -1.5049  1.1157
  926MOL0     H22216   4.556  11.531   6.109  0.3718 -0.8134  0.4584
  926MOL0     H22217   4.332  11.470   6.203 -1.9149  0.1234 -0.1679
  926MOL0     H22218   3.164  10.536   5.128  5.5261 -0.0427  1.0056
  926MOL0     H22219   3.106  10.369   4.968  2.2154 -1.1359  3.2202
  926MOL0     H22220   3.142  10.348   4.308  2.1018 -2.3297  0.1018
  926MOL0     H22221   3.003  10.195   4.165  2.8813  1.6005 -0.1725
  926MOL0     H22222   2.796   9.872   4.192  1.5951 -0.8935 -1.0327
  926MOL0     H22223   2.928   9.977   4.159 -0.0079  0.2317  4.0009
  926MOL0     H22224   2.821  10.108   4.007  3.3956 -1.3787  3.3854
  926MOL0     H22225   2.795   9.945   3.955  3.4461 -1.4672  2.0476
  926MOL0     H22226   2.557   9.965   4.048  2.3241 -1.3593  1.4237
  926MOL0     H22227   2.599  10.071   3.913 -0.2450  2.2582  0.7700
  926MOL0     H22228   2.459  10.181   4.065 -0.3770  0.4558 -3.0257
  926MOL0     H22229   2.567  10.187   4.194 -1.9902  0.5114 -0.4816
  926MOL0     H22230   2.736  10.479   3.950  3.2093 -1.9788  2.2027
  926MOL0     H22231   2.748  10.135   4.520 -1.3317 -0.7408 -2.1225
  926MOL0     H22232   2.875  10.292   4.637 -5.2066 -1.2757 -0.4125
  927MOL0     O22233   3.547   9.220   0.420 -0.2340  1.1759  0.3134
  927MOL0     C22234   3.640   9.252   0.346  0.0520 -0.5728 -0.1438
  927MOL0     O22235   3.639   9.284   0.218  0.3190  0.2895  0.5902
  927MOL0     C22236   3.522   9.261   0.149  0.1924 -0.4368  0.0584
  927MOL0     C22237   3.449   9.372   0.115  0.1249 -0.0118  0.8214
  927MOL0     C22238   3.335   9.358   0.041 -0.5577  0.4879  0.0822
  927MOL0     C22239   3.282   9.232   0.007 -0.0263  0.3482 -0.2776
  927MOL0     O22240   3.170   9.241  -0.071 -0.3205  0.0625  0.0652
  927MOL0     C22241   3.100   9.117  -0.088 -0.6467  0.1286  1.4977
  927MOL0     C22242   2.969   9.125  -0.159 -0.5676  0.1223 -0.1889
  927MOL0     C22243   2.856   9.197  -0.079  0.1519  1.3922 -0.1074
  927MOL0     C22244   2.810   9.105   0.033 -0.9600 -0.1971 -0.3312
  927MOL0     C22245   2.755   9.167   0.152 -0.1563 -0.1590  0.6625
  927MOL0     C22246   2.702   9.074   0.263 -0.2016 -0.0843  0.4805
  927MOL0     C22247   2.674   9.161   0.380 -0.0334 -0.0285 -0.5960
  927MOL0     C22248   2.620   9.094   0.512  0.6510  0.8357 -0.2120
  927MOL0     N22249   2.494   9.031   0.494  0.1395 -0.0504  1.2326
  927MOL0     C22250   2.378   9.094   0.439  1.1653  0.0468 -0.3189
  927MOL0     C22251   2.291   8.989   0.439  0.5942 -0.4352 -0.0100
  927MOL0     C22252   2.143   8.980   0.432  0.9375 -0.8954  0.2972
  927MOL0     C22253   2.074   9.104   0.457  0.6337  0.7406 -0.1604
  927MOL0     C22254   2.028   9.127   0.607  0.8673  0.2652  0.1184
  927MOL0     C22255   1.929   9.249   0.619  0.3527 -0.2166 -0.7877
  927MOL0     O22256   1.977   9.353   0.537  0.6335  0.6926  0.3388
  927MOL0     C22257   1.925   9.484   0.533 -0.1612  0.3603 -0.7098
  927MOL0     C22258   1.820   9.531   0.622 -0.2926  0.4296 -0.9814
  927MOL0     C22259   1.755   9.655   0.589 -0.6219  0.1115  0.0787
  927MOL0     C22260   1.784   9.732   0.474 -0.1701  0.4520 -0.2530
  927MOL0     C22261   1.706   9.852   0.447  0.3006 -0.2191 -0.0360
  927MOL0     O22262   1.751   9.938   0.354  0.0737  0.0891  0.6074
  927MOL0     C22263   1.757  10.076   0.377 -0.3665 -0.2938  0.7099
  927MOL0     C22264   1.882  10.138   0.382 -1.7991 -1.0227  0.9706
  927MOL0     C22265   1.884  10.285   0.407  0.4345 -0.9509 -0.5609
  927MOL0     C22266   1.763  10.353   0.434 -0.3911  0.4404  1.0688
  927MOL0     O22267   1.754  10.487   0.472 -0.0020  0.5075 -0.0254
  927MOL0     C22268   1.852  10.576   0.416 -0.6721  0.9424 -0.0041
  927MOL0     C22269   1.966  10.595   0.511 -0.1794  0.0300 -0.0673
  927MOL0     C22270   1.956  10.702   0.619  1.0432  0.0326 -0.6569
  927MOL0     C22271   1.853  10.662   0.735 -0.7368 -0.2578  1.1678
  927MOL0     C22272   1.875  10.712   0.879 -1.2261  0.1857  0.1375
  927MOL0     C22273   2.007  10.671   0.932  0.3645  0.6100 -0.4048
  927MOL0     C22274   2.037  10.524   0.948  0.4611 -0.2167  0.8476
  927MOL0     C22275   2.073  10.481   1.085 -0.3759  0.6929 -0.3255
  927MOL0    Cl22276   2.108  10.305   1.114 -0.1904 -0.0673  0.1727
  927MOL0     C22277   1.643  10.282   0.423 -0.7495 -0.0639 -0.5745
  927MOL0     C22278   1.639  10.151   0.382  1.1057  0.7105  0.8050
  927MOL0     O22279   1.603   9.885   0.508 -0.1911 -0.1047  0.4325
  927MOL0     C22280   1.899   9.699   0.398  0.4764 -0.5636  0.6086
  927MOL0     C22281   1.963   9.570   0.433  0.3530 -0.4066  0.7329
  927MOL0     N22282   2.358   8.873   0.479 -0.5015 -0.6405  0.6792
  927MOL0     N22283   2.480   8.900   0.509 -0.9033  0.0166 -0.6121
  927MOL0     C22284   3.355   9.114   0.034  0.6841 -0.4184 -0.1443
  927MOL0     C22285   3.476   9.129   0.108  0.3744 -0.1294 -1.1841
  927MOL0     C22286   3.771   9.273   0.410  0.2839  0.0693  0.5750
  927MOL0     C22287   3.893   9.294   0.345  0.1164 -0.6204  0.2146
  927MOL0     C22288   4.012   9.314   0.421  0.4105 -0.0130 -0.5956
  927MOL0     C22289   4.014   9.326   0.559 -0.0292  0.2293 -0.4720
  927MOL0     O22290   4.129   9.349   0.635  0.0877 -0.4170 -0.9047
  927MOL0     C22291   4.257   9.357   0.568 -0.3362  0.1487  0.4083
  927MOL0     C22292   4.350   9.351   0.682 -0.2952  0.0311 -0.7838
  927MOL0     C22293   4.328   9.477   0.773 -1.4710  0.8286  0.0084
  927MOL0     C22294   4.465   9.521   0.832  0.1486  0.7134 -0.0525
  927MOL0     C22295   4.546   9.416   0.885 -0.4751 -0.0938  1.0156
  927MOL0     C22296   4.633   9.337   0.911 -0.5656  0.4752 -0.3774
  927MOL0     C22297   3.892   9.303   0.620 -0.0852 -0.2689  0.3490
  927MOL0     C22298   3.777   9.274   0.549  0.9290 -0.3704 -1.0587
  927MOL0     H22299   3.475   9.472   0.151  2.5834 -1.4208  3.4108
  927MOL0     H22300   3.284   9.448   0.009  2.7939  1.4271 -3.4159
  927MOL0     H22301   3.078   9.070   0.008 -3.8247 -1.2094  0.2485
  927MOL0     H22302   3.170   9.056  -0.146 -1.1521  0.9525 -0.0430
  927MOL0     H22303   2.936   9.027  -0.196 -2.0498  1.5051 -2.8172
  927MOL0     H22304   2.996   9.185  -0.247  3.4527 -0.5964  0.3782
  927MOL0     H22305   2.771   9.226  -0.141  1.1164  0.9295 -1.7237
  927MOL0     H22306   2.889   9.292  -0.036  0.1379  1.9522 -1.2922
  927MOL0     H22307   2.729   9.048  -0.014 -0.8315  2.3587 -4.0723
  927MOL0     H22308   2.888   9.031   0.056 -0.7817 -1.5816 -4.5722
  927MOL0     H22309   2.685   9.247   0.126  1.8474  1.0679 -1.4152
  927MOL0     H22310   2.832   9.239   0.179 -0.8669  0.2361  1.6949
  927MOL0     H22311   2.773   8.996   0.292  0.1889 -0.7019 -1.9218
  927MOL0     H22312   2.605   9.030   0.240 -1.5063  0.9417  3.5767
  927MOL0     H22313   2.771   9.209   0.392  0.5216 -1.2917  0.3148
  927MOL0     H22314   2.595   9.234   0.362 -0.3277 -0.4881 -1.2026
  927MOL0     H22315   2.621   9.168   0.593 -1.2031 -0.4595  1.0518
  927MOL0     H22316   2.700   9.030   0.551 -0.3820 -1.0222 -1.0088
  927MOL0     H22317   2.374   9.202   0.435  1.5375  0.0377 -0.9536
  927MOL0     H22318   2.101   8.914   0.509 -0.7855  1.3596  1.4247
  927MOL0     H22319   2.111   8.948   0.333  0.3835 -0.9223  0.4819
  927MOL0     H22320   1.984   9.097   0.395 -0.8173 -0.8206  1.9828
  927MOL0     H22321   2.125   9.191   0.415 -0.3325  0.0336 -3.0317
  927MOL0     H22322   1.981   9.037   0.646  2.6490 -1.1428 -0.8444
  927MOL0     H22323   2.113   9.149   0.673  1.3003  1.4213 -0.7918
  927MOL0     H22324   1.935   9.277   0.724 -4.6482 -1.6707  0.1254
  927MOL0     H22325   1.823   9.235   0.596  0.3918  3.2411 -4.2315
  927MOL0     H22326   1.781   9.464   0.698 -1.5531 -0.1990 -2.1600
  927MOL0     H22327   1.682   9.698   0.657 -1.3067  1.8094 -1.6209
  927MOL0     H22328   1.975  10.089   0.355 -1.5740 -0.0766 -0.0300
  927MOL0     H22329   1.978  10.338   0.420 -1.3374  2.3194 -0.0043
  927MOL0     H22330   1.816  10.678   0.403 -0.0307  1.1931  0.1602
  927MOL0     H22331   1.879  10.538   0.317 -1.4734 -1.0774  0.5067
  927MOL0     H22332   2.055  10.620   0.452  0.0384 -2.7496 -1.0676
  927MOL0     H22333   1.998  10.501   0.557  1.7220  0.5556 -0.2119
  927MOL0     H22334   1.942  10.802   0.577  0.2141  0.8161  1.3240
  927MOL0     H22335   2.055  10.709   0.666 -0.2965  3.8961  2.1434
  927MOL0     H22336   1.751  10.694   0.716  0.0197  1.6941  0.1298
  927MOL0     H22337   1.868  10.554   0.745 -0.0577 -0.8022 -3.5611
  927MOL0     H22338   1.790  10.674   0.937  0.0657 -2.8905  0.2228
  927MOL0     H22339   1.866  10.821   0.873  4.1921  0.8151 -3.2736
  927MOL0     H22340   2.010  10.705   1.036 -0.4838 -2.0327  0.5461
  927MOL0     H22341   2.082  10.719   0.868  1.5458 -0.8332 -0.1424
  927MOL0     H22342   1.950  10.464   0.920 -0.1389  1.7952 -2.0015
  927MOL0     H22343   2.114  10.479   0.884 -0.3308  0.2888 -0.5131
  927MOL0     H22344   1.986  10.500   1.147 -0.9817 -0.5200 -0.7706
  927MOL0     H22345   2.163  10.535   1.116  1.3266 -1.8310 -0.5297
  927MOL0     H22346   1.552  10.339   0.440 -0.3960  0.2183  0.4158
  927MOL0     H22347   1.540  10.108   0.367  0.0864  2.5668  1.7779
  927MOL0     H22348   1.935   9.764   0.318  0.2916  1.3162  1.9871
  927MOL0     H22349   2.054   9.553   0.377 -0.3875  0.0912 -0.6614
  927MOL0     H22350   3.329   9.014   0.000 -1.9425  0.0532  0.2593
  927MOL0     H22351   3.522   9.033   0.130  0.6493  0.0633 -0.9157
  927MOL0     H22352   3.910   9.311   0.239  0.5317  0.3004  0.4182
  927MOL0     H22353   4.108   9.319   0.371  1.2174 -0.9444  0.8042
  927MOL0     H22354   4.282   9.447   0.511 -2.2669 -0.5637 -1.7538
  927MOL0     H22355   4.282   9.274   0.500  1.1874  0.0124  1.0956
  927MOL0     H22356   4.325   9.258   0.733  1.4931 -0.5316 -0.8762
  927MOL0     H22357   4.456   9.331   0.660  0.6026 -1.0112  3.6216
  927MOL0     H22358   4.267   9.446   0.858 -0.5970 -0.3183  0.2428
  927MOL0     H22359   4.278   9.558   0.720 -1.8639  1.4145  1.2311
  927MOL0     H22360   4.514   9.573   0.750 -0.0239 -1.0130 -1.3150
  927MOL0     H22361   4.445   9.599   0.906  3.7627  4.2067 -2.3908
  927MOL0     H22362   4.700   9.269   0.960  1.6317  2.1193 -0.9562
  927MOL0     H22363   3.874   9.308   0.727 -1.0665 -2.4078  0.3251
  927MOL0     H22364   3.681   9.259   0.598  2.0089 -1.9990  0.6944
  928MOL0     O22365   2.785   5.234   9.715  0.0771  0.3499 -0.3024
  928MOL0     C22366   2.703   5.145   9.721  0.1671 -0.5631  1.1482
  928MOL0     O22367   2.568   5.161   9.753 -0.0628  0.1399  0.4211
  928MOL0     C22368   2.512   5.280   9.780 -0.4221  0.7164 -1.5982
  928MOL0     C22369   2.390   5.275   9.846  0.3901 -0.1526 -0.3504
  928MOL0     C22370   2.314   5.394   9.870  0.3633 -0.6793  0.1568
  928MOL0     C22371   2.375   5.527   9.850 -0.1089  0.0406  0.9040
  928MOL0     O22372   2.325   5.650   9.878 -0.4250 -0.3931  0.2835
  928MOL0     C22373   2.177   5.650   9.876  0.4903  0.2054  0.0907
  928MOL0     C22374   2.139   5.789   9.845  0.2162  0.7804  0.7439
  928MOL0     C22375   2.003   5.827   9.813  0.3277 -0.1644  0.5759
  928MOL0     C22376   1.991   5.988   9.813  0.0701 -0.9808 -1.0017
  928MOL0     C22377   1.850   6.042   9.770  0.1116  0.3045  0.2024
  928MOL0     C22378   1.850   6.121   9.641  1.6534 -0.0327 -0.1094
  928MOL0     C22379   1.701   6.151   9.600 -0.1869 -0.1319 -0.1117
  928MOL0     C22380   1.662   6.270   9.511 -1.7314  0.2016 -0.3096
  928MOL0     N22381   1.694   6.261   9.370 -0.0364 -0.2644  0.2321
  928MOL0     C22382   1.799   6.337   9.321 -0.8914  0.2748 -0.5560
  928MOL0     C22383   1.790   6.325   9.187  0.0933 -0.7793 -0.3741
  928MOL0     C22384   1.875   6.382   9.084 -0.4352  0.2703  0.1296
  928MOL0     C22385   1.815   6.502   9.023 -0.2072  0.4757 -0.4674
  928MOL0     C22386   1.908   6.558   8.916 -1.3444 -0.0724 -0.3144
  928MOL0     C22387   1.815   6.667   8.849 -0.2895  0.5398 -0.5130
  928MOL0     O22388   1.883   6.738   8.748 -0.2953 -0.0255 -0.6935
  928MOL0     C22389   1.820   6.722   8.628 -0.5232 -0.1328 -1.0104
  928MOL0     C22390   1.693   6.768   8.606 -0.0661  0.6077 -0.0942
  928MOL0     C22391   1.652   6.765   8.472 -0.0425  0.0785  0.7083
  928MOL0     C22392   1.736   6.717   8.369  0.4848  0.2137 -0.3231
  928MOL0     C22393   1.684   6.714   8.229 -0.7725  0.6657 -0.3169
  928MOL0     O22394   1.572   6.777   8.203  0.3259  0.6749 -0.0732
  928MOL0     C22395   1.554   6.817   8.071  0.3141 -0.3074 -0.5872
  928MOL0     C22396   1.503   6.739   7.960 -0.2211  0.1694 -0.1584
  928MOL0     C22397   1.490   6.792   7.830  1.1238 -0.3534 -0.6833
  928MOL0     C22398   1.539   6.924   7.803 -0.8727  0.1042 -0.4709
  928MOL0     O22399   1.547   6.987   7.680 -0.6429 -0.2074 -0.0834
  928MOL0     C22400   1.460   6.951   7.578 -0.1851  0.6397 -0.7189
  928MOL0     C22401   1.345   7.051   7.588  0.3726 -0.7545 -0.5591
  928MOL0     C22402   1.257   7.052   7.466 -0.0619 -0.1646  0.0019
  928MOL0     C22403   1.172   7.183   7.486  0.0081 -0.4775 -0.5519
  928MOL0     C22404   1.085   7.209   7.356 -0.3036 -1.1451 -0.5355
  928MOL0     C22405   1.167   7.294   7.249  1.4524 -0.8112 -0.6635
  928MOL0     C22406   1.066   7.345   7.146 -0.0505  0.2658  0.8330
  928MOL0     C22407   1.006   7.240   7.060 -0.5780  0.2096 -0.0637
  928MOL0    Cl22408   1.122   7.125   6.979 -0.2724  0.0735 -0.2305
  928MOL0     C22409   1.596   6.996   7.910 -0.5033  0.4184  1.0833
  928MOL0     C22410   1.596   6.949   8.043 -0.2388  0.1738  0.3869
  928MOL0     O22411   1.753   6.648   8.150  0.0678 -0.3858  0.4851
  928MOL0     C22412   1.857   6.655   8.402 -0.6975 -0.4264  0.3453
  928MOL0     C22413   1.900   6.658   8.534  0.5268 -0.8745 -0.4893
  928MOL0     N22414   1.675   6.251   9.157 -0.1317  0.3271 -0.1896
  928MOL0     N22415   1.619   6.208   9.264 -0.1641  0.2646 -0.1884
  928MOL0     C22416   2.505   5.524   9.800  0.3847 -0.7070  0.2801
  928MOL0     C22417   2.566   5.410   9.755 -0.6408  0.4823 -0.3835
  928MOL0     C22418   2.748   5.007   9.712 -0.7070 -0.0279 -0.4289
  928MOL0     C22419   2.665   4.892   9.716 -0.3055 -0.3337 -0.8146
  928MOL0     C22420   2.713   4.763   9.718 -0.5964  1.0037  0.1148
  928MOL0     C22421   2.857   4.751   9.701 -0.0257 -0.4399  0.6762
  928MOL0     O22422   2.907   4.620   9.694 -0.1845  0.1750 -0.1854
  928MOL0     C22423   2.833   4.498   9.697  0.0941  0.3639 -0.0438
  928MOL0     C22424   2.904   4.375   9.641  0.5134  0.4171 -0.0177
  928MOL0     C22425   2.995   4.304   9.740  0.6062  0.8695 -0.1026
  928MOL0     C22426   3.032   4.157   9.717 -0.1277  0.2899 -0.1914
  928MOL0     C22427   3.031   4.076   9.835  0.4862  0.6759 -0.1675
  928MOL0     C22428   3.029   4.006   9.939  0.9328 -0.0305 -0.5529
  928MOL0     C22429   2.940   4.858   9.683 -0.1162  0.5126  0.0590
  928MOL0     C22430   2.883   4.984   9.694 -0.3939 -0.3327 -0.2796
  928MOL0     H22431   2.353   5.178   9.875 -0.1546 -0.1588 -1.0237
  928MOL0     H22432   2.213   5.391   9.910 -0.2139  0.3742 -1.1201
  928MOL0     H22433   2.141   5.624   9.976  0.4800  3.6144  1.1028
  928MOL0     H22434   2.138   5.589   9.794  2.7279 -0.3478 -0.6313
  928MOL0     H22435   2.196   5.818   9.756  1.6128  1.8750  1.9482
  928MOL0     H22436   2.173   5.856   9.924 -0.0234  2.5504 -0.5880
  928MOL0     H22437   1.943   5.771   9.885 -2.9834  0.3744 -1.5450
  928MOL0     H22438   1.958   5.791   9.720 -1.5671  1.1350  0.9463
  928MOL0     H22439   2.001   6.020   9.917  1.4443 -2.2375 -0.7105
  928MOL0     H22440   2.079   6.031   9.765  0.6387 -0.0189  0.7866
  928MOL0     H22441   1.813   6.107   9.849 -1.7723  1.5831 -1.6382
  928MOL0     H22442   1.779   5.959   9.768  1.3894 -0.8407  0.4649
  928MOL0     H22443   1.903   6.061   9.567  1.3971  0.5857 -0.8140
  928MOL0     H22444   1.883   6.224   9.661  1.6238  0.0020 -0.2405
  928MOL0     H22445   1.660   6.055   9.567  1.8762 -0.6316 -1.3556
  928MOL0     H22446   1.653   6.170   9.697  1.5901  0.9087  0.6280
  928MOL0     H22447   1.713   6.359   9.550 -0.8163 -1.6466  3.1851
  928MOL0     H22448   1.554   6.282   9.526 -2.3937 -2.7496 -1.8874
  928MOL0     H22449   1.881   6.387   9.373 -0.1010 -2.3577  0.9338
  928MOL0     H22450   1.885   6.310   9.003  0.8281  1.8798 -1.2291
  928MOL0     H22451   1.977   6.408   9.115 -0.4673  0.5407  0.0110
  928MOL0     H22452   1.801   6.575   9.103 -4.5319 -2.3640  1.7535
  928MOL0     H22453   1.721   6.474   8.975 -0.0307 -0.8633 -0.0856
  928MOL0     H22454   1.997   6.605   8.958 -1.7436  1.1685 -0.8066
  928MOL0     H22455   1.936   6.488   8.838 -0.4760 -1.2486  1.0042
  928MOL0     H22456   1.777   6.740   8.921 -1.2777 -0.0312 -0.4345
  928MOL0     H22457   1.733   6.614   8.801 -0.8749  1.4460 -0.5407
  928MOL0     H22458   1.641   6.831   8.677  0.1570  0.7907 -0.0897
  928MOL0     H22459   1.559   6.812   8.441 -1.9340 -1.4349  3.6468
  928MOL0     H22460   1.487   6.636   7.990 -2.0176 -0.5812 -3.2110
  928MOL0     H22461   1.457   6.719   7.756 -0.2529 -0.5523  0.0777
  928MOL0     H22462   1.427   6.847   7.589  0.1909  0.5653 -0.3048
  928MOL0     H22463   1.519   6.966   7.487  0.7289 -2.0865 -0.6645
  928MOL0     H22464   1.385   7.152   7.583  0.9912 -1.0503 -2.8119
  928MOL0     H22465   1.289   7.017   7.676 -1.2211  0.6912 -0.9541
  928MOL0     H22466   1.189   6.967   7.471 -0.8058  0.4941  2.4817
  928MOL0     H22467   1.312   7.049   7.371  1.7842 -1.4659  1.0629
  928MOL0     H22468   1.108   7.175   7.574 -2.0265  2.1562 -1.6590
  928MOL0     H22469   1.237   7.267   7.513  0.2589 -0.8940  0.1548
  928MOL0     H22470   1.009   7.284   7.380  2.4851  2.3425 -1.8123
  928MOL0     H22471   1.037   7.117   7.320 -2.5108  0.4892 -2.0652
  928MOL0     H22472   1.239   7.220   7.214  0.0422 -2.6424  0.0874
  928MOL0     H22473   1.221   7.375   7.298  1.6620 -3.0630  3.3056
  928MOL0     H22474   0.978   7.390   7.193 -1.6715 -0.5542 -1.2693
  928MOL0     H22475   1.123   7.415   7.084  1.1185 -2.1637 -1.0031
  928MOL0     H22476   0.954   7.288   6.977  1.1716 -0.5817 -1.7146
  928MOL0     H22477   0.932   7.183   7.116 -0.1462  0.3822  0.6996
  928MOL0     H22478   1.633   7.096   7.893  1.2289  0.0614  2.4761
  928MOL0     H22479   1.658   7.007   8.111  1.8169 -0.9287 -0.4661
  928MOL0     H22480   1.922   6.611   8.327  0.6971  1.2819  0.4646
  928MOL0     H22481   1.981   6.593   8.568  0.0095  0.0823  2.9560
  928MOL0     H22482   2.537   5.624   9.774  0.5778 -0.8370  0.0204
  928MOL0     H22483   2.648   5.426   9.687 -0.1227  3.7606  0.8296
  928MOL0     H22484   2.559   4.901   9.736  0.0772  1.5378  0.6730
  928MOL0     H22485   2.640   4.688   9.689 -1.8377  3.2741 -3.2117
  928MOL0     H22486   2.751   4.510   9.625  2.8581  1.2204 -3.3033
  928MOL0     H22487   2.795   4.474   9.797  0.2599 -0.5826 -0.2002
  928MOL0     H22488   2.833   4.299   9.606  1.3119 -0.1207 -0.5095
  928MOL0     H22489   2.971   4.407   9.560 -1.1236  1.1725 -1.1243
  928MOL0     H22490   2.934   4.299   9.831 -1.4872  2.2035 -1.3622
  928MOL0     H22491   3.085   4.362   9.765 -1.3148  3.9085  0.2419
  928MOL0     H22492   2.966   4.117   9.639 -0.4338  1.2466 -0.4407
  928MOL0     H22493   3.134   4.155   9.679 -1.3455  2.1831 -4.1746
  928MOL0     H22494   3.038   3.940  10.022  0.2988  0.3638 -0.1597
  928MOL0     H22495   3.047   4.855   9.662  0.3682  1.9577  2.0810
  928MOL0     H22496   2.944   5.074   9.694  0.1739 -0.7058 -1.0847
  929MOL0     O22497   4.249   2.267   2.255  0.4241 -0.3349  0.4423
  929MOL0     C22498   4.291   2.379   2.294 -0.7420  0.9252  0.6530
  929MOL0     O22499   4.421   2.403   2.320 -0.4550  0.8683 -0.3569
  929MOL0     C22500   4.521   2.310   2.305  0.6252 -0.4282 -0.0365
  929MOL0     C22501   4.534   2.225   2.198  0.6812  0.1724  0.2662
  929MOL0     C22502   4.648   2.146   2.180  0.7163 -0.8244  0.3845
  929MOL0     C22503   4.756   2.145   2.274  0.1635  0.5447  0.0229
  929MOL0     O22504   4.880   2.100   2.243 -0.8721 -0.0701  0.3955
  929MOL0     C22505   4.911   1.966   2.283 -0.7205  0.4124  0.6001
  929MOL0     C22506   5.057   1.943   2.291 -0.5732 -1.2190 -0.2159
  929MOL0     C22507   5.106   1.913   2.145  0.2959 -0.2268 -0.2613
  929MOL0     C22508   5.237   1.841   2.144  0.0617  0.4270  0.2599
  929MOL0     C22509   5.276   1.800   1.999 -0.6776  0.5871  0.5522
  929MOL0     C22510   5.397   1.709   2.002  0.9965  0.1265  0.2791
  929MOL0     C22511   5.436   1.678   1.859  0.1994  0.0555  0.4150
  929MOL0     C22512   5.575   1.601   1.838 -0.9189 -0.6914 -0.4168
  929MOL0     N22513   5.697   1.669   1.889 -0.8597  0.7738  0.2075
  929MOL0     C22514   5.784   1.740   1.805 -0.3942  0.7059 -0.4869
  929MOL0     C22515   5.896   1.730   1.879 -0.8633  0.2751 -0.0444
  929MOL0     C22516   6.024   1.749   1.812  0.4568 -0.0485 -0.1320
  929MOL0     C22517   6.135   1.760   1.921  0.2846  0.2515  0.6643
  929MOL0     C22518   6.164   1.630   1.995 -0.7135 -0.8288  1.3114
  929MOL0     C22519   6.306   1.621   2.055  0.6095 -0.0756  0.7246
  929MOL0     O22520   6.405   1.642   1.955  0.9815 -1.0363 -0.0343
  929MOL0     C22521   6.440   1.535   1.878  0.1841  1.0966 -0.6687
  929MOL0     C22522   6.561   1.559   1.807 -0.5525 -0.1488  0.3480
  929MOL0     C22523   6.612   1.464   1.727 -0.0075 -0.1457  0.3530
  929MOL0     C22524   6.554   1.335   1.710  0.1794  1.4252 -0.1147
  929MOL0     C22525   6.632   1.233   1.622 -0.0140 -0.6941 -0.6757
  929MOL0     O22526   6.723   1.272   1.536  0.0519 -0.7373  0.4245
  929MOL0     C22527   6.768   1.176   1.450 -0.1437  0.0134  0.6473
  929MOL0     C22528   6.707   1.153   1.324  0.3306  0.9254 -0.6739
  929MOL0     C22529   6.769   1.066   1.238 -1.1682  0.1480 -0.4049
  929MOL0     C22530   6.888   1.009   1.260  0.2325 -0.5573 -0.7397
  929MOL0     O22531   6.950   0.929   1.176 -0.2138 -0.4822  0.5918
  929MOL0     C22532   6.970   0.981   1.039 -0.1939 -0.5440 -1.0349
  929MOL0     C22533   7.029   0.875   0.955  0.1205 -0.3762  0.6635
  929MOL0     C22534   6.973   0.734   0.962 -0.6195  0.3158 -0.1485
  929MOL0     C22535   6.831   0.716   0.888  0.5259 -0.5685 -1.1451
  929MOL0     C22536   6.785   0.575   0.920  0.5791  0.7823  0.1694
  929MOL0     C22537   6.641   0.553   0.897 -0.1501 -0.2980  0.6906
  929MOL0     C22538   6.596   0.410   0.927 -0.0213  0.5469  0.0527
  929MOL0     C22539   6.443   0.391   0.882 -0.4261  0.3162  0.8212
  929MOL0    Cl22540   6.416   0.436   0.704  0.0298  0.4647  0.1020
  929MOL0     C22541   6.944   1.035   1.389 -0.0169 -0.0519 -0.4671
  929MOL0     C22542   6.897   1.126   1.476  0.3660  0.7737 -0.1228
  929MOL0     O22543   6.585   1.127   1.629 -0.5432  0.2133 -0.3080
  929MOL0     C22544   6.440   1.310   1.787 -0.0915  0.1397  0.8235
  929MOL0     C22545   6.381   1.410   1.870  0.1819  0.8450  0.2669
  929MOL0     N22546   5.872   1.674   1.999 -0.3205  0.1105 -0.6792
  929MOL0     N22547   5.758   1.627   1.999 -0.3969  0.3044 -0.0348
  929MOL0     C22548   4.740   2.217   2.393 -0.0288  0.3411  0.1519
  929MOL0     C22549   4.619   2.296   2.410  0.2601  0.9675 -0.2634
  929MOL0     C22550   4.195   2.488   2.322 -0.0791 -0.3294  0.4785
  929MOL0     C22551   4.056   2.471   2.314 -0.1380  0.1978 -0.0641
  929MOL0     C22552   3.969   2.576   2.345  0.2051  0.5474 -0.4796
  929MOL0     C22553   4.016   2.707   2.366  0.2574  0.0525 -0.3318
  929MOL0     O22554   3.937   2.821   2.366 -0.3403 -0.2801  0.2340
  929MOL0     C22555   3.793   2.803   2.400 -1.4011 -0.3885 -0.0573
  929MOL0     C22556   3.715   2.928   2.442  0.9164  0.2690  0.0082
  929MOL0     C22557   3.648   3.010   2.332  0.0857 -0.0903 -0.1936
  929MOL0     C22558   3.558   3.116   2.394 -0.7434  0.2234  1.3224
  929MOL0     C22559   3.634   3.214   2.479 -0.2386  0.4110  1.1565
  929MOL0     C22560   3.691   3.287   2.564  0.3384 -0.1089 -0.2105
  929MOL0     C22561   4.156   2.731   2.369 -0.3163 -0.1017  0.2207
  929MOL0     C22562   4.236   2.626   2.345  0.5075  0.3874  0.3882
  929MOL0     H22563   4.458   2.227   2.120  0.2432 -2.9812  0.4944
  929MOL0     H22564   4.661   2.090   2.088  0.3112 -1.6505  0.8208
  929MOL0     H22565   4.876   1.892   2.211  1.0011  1.6707 -1.6612
  929MOL0     H22566   4.877   1.939   2.384  2.4159 -0.4658  1.5616
  929MOL0     H22567   5.083   1.862   2.359 -2.7025 -1.4773  0.3638
  929MOL0     H22568   5.121   2.026   2.324  2.0621 -4.0723  2.5544
  929MOL0     H22569   5.121   2.008   2.094  0.7156  0.7083  1.5172
  929MOL0     H22570   5.044   1.848   2.082  0.3057  1.4126 -2.0365
  929MOL0     H22571   5.326   1.899   2.172  2.2689 -2.3910 -0.4412
  929MOL0     H22572   5.222   1.756   2.211  4.5324 -1.3607 -0.6483
  929MOL0     H22573   5.306   1.886   1.939  1.4310  0.1272  0.8963
  929MOL0     H22574   5.192   1.745   1.955 -0.0077 -0.5849  0.7111
  929MOL0     H22575   5.375   1.611   2.047 -2.4857 -0.2808 -1.9817
  929MOL0     H22576   5.480   1.762   2.049 -0.5132  1.7711  1.1997
  929MOL0     H22577   5.362   1.605   1.826  0.2928 -0.0869  0.5200
  929MOL0     H22578   5.423   1.752   1.780 -1.7870 -1.3135 -0.6077
  929MOL0     H22579   5.591   1.574   1.733 -2.4863  0.1064 -0.9029
  929MOL0     H22580   5.574   1.501   1.882  0.1979 -1.0519 -1.1646
  929MOL0     H22581   5.785   1.768   1.701  2.4070 -0.5860 -0.9104
  929MOL0     H22582   6.020   1.844   1.758 -2.1657  1.0681  1.7977
  929MOL0     H22583   6.030   1.676   1.732 -4.3271 -0.8727 -0.0103
  929MOL0     H22584   6.102   1.833   1.996 -0.5635 -0.0930  0.6359
  929MOL0     H22585   6.218   1.808   1.868  0.6323 -0.8004  0.2219
  929MOL0     H22586   6.094   1.618   2.078 -0.6061 -0.9668  1.3829
  929MOL0     H22587   6.147   1.555   1.917  1.0989  0.0268  0.0190
  929MOL0     H22588   6.331   1.522   2.094  4.0862  0.0322 -0.8827
  929MOL0     H22589   6.310   1.698   2.132 -1.1793  0.8422 -0.0328
  929MOL0     H22590   6.607   1.657   1.808  1.4701 -1.0330 -0.4333
  929MOL0     H22591   6.705   1.498   1.682 -0.4314 -0.9220 -1.1921
  929MOL0     H22592   6.611   1.194   1.296 -0.8599 -0.7884  0.6577
  929MOL0     H22593   6.729   1.025   1.146  1.4640 -0.3389 -1.4247
  929MOL0     H22594   7.028   1.073   1.036  0.5901 -0.9495  0.5597
  929MOL0     H22595   6.874   1.009   0.995  0.5098  2.5094 -0.8188
  929MOL0     H22596   7.135   0.878   0.984  0.6812  0.3866 -1.2484
  929MOL0     H22597   7.046   0.911   0.852  2.2010 -1.8131  0.4381
  929MOL0     H22598   6.959   0.701   1.066  0.9818  2.7849  0.9605
  929MOL0     H22599   7.043   0.663   0.919 -3.5266 -3.9607  1.5178
  929MOL0     H22600   6.766   0.796   0.925  1.2406 -1.5145  2.5824
  929MOL0     H22601   6.840   0.731   0.780 -1.0186  2.3352 -0.9767
  929MOL0     H22602   6.805   0.550   1.024  0.4081 -5.4927 -0.8737
  929MOL0     H22603   6.850   0.512   0.858  0.1958 -1.1369  1.6036
  929MOL0     H22604   6.623   0.587   0.795  4.2410 -2.8293 -1.1878
  929MOL0     H22605   6.588   0.622   0.963  2.1109  1.1234  1.1278
  929MOL0     H22606   6.659   0.335   0.879  1.4362  0.1503  2.3986
  929MOL0     H22607   6.595   0.390   1.035 -1.4498  1.2893  0.1999
  929MOL0     H22608   6.375   0.451   0.942 -0.7226  1.2357 -0.3709
  929MOL0     H22609   6.412   0.287   0.892  2.7137 -0.8876 -0.5802
  929MOL0     H22610   7.045   1.001   1.409 -0.3682 -0.8820 -0.0475
  929MOL0     H22611   6.951   1.147   1.568  2.1296 -0.6781 -0.7813
  929MOL0     H22612   6.396   1.210   1.784  2.6135 -1.1361 -2.3106
  929MOL0     H22613   6.289   1.374   1.916 -0.7799  0.8207 -1.6066
  929MOL0     H22614   4.827   2.223   2.457  2.1724  1.1904 -2.6753
  929MOL0     H22615   4.600   2.365   2.492 -4.4343  0.1806 -0.3769
  929MOL0     H22616   4.020   2.369   2.310  1.2828 -0.2818 -1.4051
  929MOL0     H22617   3.864   2.550   2.340  0.4577 -0.9777  0.9565
  929MOL0     H22618   3.774   2.721   2.471  1.4834 -1.6322 -0.5547
  929MOL0     H22619   3.743   2.763   2.311  1.8477 -0.0169 -2.2293
  929MOL0     H22620   3.640   2.887   2.511  1.5166  1.4137  1.3822
  929MOL0     H22621   3.787   2.989   2.497  0.0793  0.9642  0.3691
  929MOL0     H22622   3.598   2.946   2.259  1.4264 -1.2692 -0.1136
  929MOL0     H22623   3.739   3.046   2.282  1.3681  0.2220  2.2086
  929MOL0     H22624   3.526   3.190   2.321  1.9098  0.8128  0.6306
  929MOL0     H22625   3.471   3.077   2.448 -1.8006 -0.1211 -0.5345
  929MOL0     H22626   3.717   3.347   2.649 -1.8134 -0.4247  0.7400
  929MOL0     H22627   4.192   2.833   2.382 -3.0897  1.1962 -1.1541
  929MOL0     H22628   4.340   2.657   2.339  0.6361 -0.3114 -1.3216
  930MOL0     O22629  10.645  10.564   5.163 -0.4781 -0.1027  0.4107
  930MOL0     C22630  10.717  10.486   5.101  0.0058 -0.8563 -0.1175
  930MOL0     O22631  10.852  10.486   5.096 -0.0010  0.0092  0.2190
  930MOL0     C22632  10.923  10.538   5.193 -0.1989  0.1233 -0.7881
  930MOL0     C22633  10.886  10.518   5.324  0.4277  0.2967  0.3660
  930MOL0     C22634  10.961  10.589   5.421  0.7990  0.9513  0.7484
  930MOL0     C22635  11.080  10.660   5.394 -0.6009 -0.2247 -0.5123
  930MOL0     O22636  11.155  10.733   5.490 -0.1902  0.8552 -0.1557
  930MOL0     C22637  11.069  10.788   5.601 -0.6588 -1.1960  0.2273
  930MOL0     C22638  11.167  10.872   5.689  0.8578  0.0268 -0.3454
  930MOL0     C22639  11.121  10.854   5.835  0.3854  0.1032 -0.2224
  930MOL0     C22640  11.196  10.939   5.938  0.0329 -0.3139  0.8568
  930MOL0     C22641  11.346  10.935   5.919  0.7772 -0.2645 -0.0450
  930MOL0     C22642  11.411  11.053   5.995  0.0989  0.0843 -0.1302
  930MOL0     C22643  11.569  11.055   5.986 -0.5647  0.4942  0.6554
  930MOL0     C22644  11.612  11.142   5.869  0.2155  0.1626  0.1596
  930MOL0     N22645  11.588  11.282   5.898  0.4170  0.0042 -0.0527
  930MOL0     C22646  11.650  11.358   5.990 -0.2230  0.5664 -0.5474
  930MOL0     C22647  11.628  11.484   5.958  0.4243 -0.7925 -1.1483
  930MOL0     C22648  11.670  11.614   6.025 -1.4000  0.3229  0.3507
  930MOL0     C22649  11.578  11.678   6.121 -0.1967 -0.4185 -0.2339
  930MOL0     C22650  11.660  11.772   6.215 -0.5344 -0.0386 -0.1609
  930MOL0     C22651  11.568  11.851   6.315  0.4800 -0.9559  0.4747
  930MOL0     O22652  11.639  11.867   6.438  0.5650  0.2019 -0.8338
  930MOL0     C22653  11.606  11.965   6.523 -1.0421 -0.7588 -0.2048
  930MOL0     C22654  11.515  12.072   6.496 -0.1255  0.0203 -0.4208
  930MOL0     C22655  11.503  12.185   6.586 -0.0987 -0.1608  0.2956
  930MOL0     C22656  11.582  12.192   6.699  0.3302  0.0648 -0.2743
  930MOL0     C22657  11.562  12.312   6.779 -0.5852 -0.2457  0.0653
  930MOL0     O22658  11.497  12.420   6.723  0.5274 -0.1737  0.1808
  930MOL0     C22659  11.485  12.538   6.787  0.1248  0.4620  0.6107
  930MOL0     C22660  11.562  12.586   6.896  0.1569  0.0219 -0.1993
  930MOL0     C22661  11.524  12.707   6.954  1.2243 -0.7044  0.3510
  930MOL0     C22662  11.406  12.780   6.901  0.2974  0.9028 -0.2012
  930MOL0     O22663  11.372  12.902   6.945  0.5061 -0.3435 -0.2407
  930MOL0     C22664  11.424  12.957   7.071 -0.3188  0.7544  0.6415
  930MOL0     C22665  11.346  13.079   7.107 -0.0160  0.5352  0.9709
  930MOL0     C22666  11.201  13.057   7.135  0.0874 -0.1514 -0.2672
  930MOL0     C22667  11.106  13.174   7.098 -0.2706 -1.1954 -0.0204
  930MOL0     C22668  10.967  13.134   7.107  0.5022 -0.4304  0.0798
  930MOL0     C22669  10.920  13.070   6.971 -0.5573 -0.4308  0.5797
  930MOL0     C22670  10.792  12.982   6.985 -0.7053 -1.6766 -0.1219
  930MOL0     C22671  10.770  12.910   6.850  0.3561  0.9470  0.4747
  930MOL0    Cl22672  10.897  12.773   6.823 -0.5302  0.2612 -0.4418
  930MOL0     C22673  11.342  12.730   6.791 -0.0319 -0.5987  0.0126
  930MOL0     C22674  11.377  12.612   6.737 -0.2122  0.4675 -0.2946
  930MOL0     O22675  11.613  12.302   6.890  0.4944 -0.3580  0.1526
  930MOL0     C22676  11.665  12.086   6.734 -0.1413 -0.2546 -0.5511
  930MOL0     C22677  11.676  11.983   6.637 -0.6881 -0.4101 -0.3948
  930MOL0     N22678  11.538  11.490   5.859 -0.0441 -0.3780 -0.1714
  930MOL0     N22679  11.508  11.371   5.833 -0.4848  0.0358 -0.0333
  930MOL0     C22680  11.115  10.670   5.260 -0.1050  0.2728 -0.1638
  930MOL0     C22681  11.028  10.618   5.160 -0.1626  0.0575 -0.1451
  930MOL0     C22682  10.649  10.382   5.014 -0.8027 -0.8693  1.2593
  930MOL0     C22683  10.518  10.361   5.019 -0.0126  1.2819  0.0390
  930MOL0     C22684  10.450  10.253   4.945 -0.0428 -0.4576  0.8109
  930MOL0     C22685  10.524  10.169   4.856 -0.6637  0.3140  0.0587
  930MOL0     O22686  10.468  10.055   4.793  0.0637  0.8745 -0.3891
  930MOL0     C22687  10.548   9.944   4.734  0.0284  0.1002 -0.2416
  930MOL0     C22688  10.635   9.976   4.610 -0.2601 -1.3371 -0.2736
  930MOL0     C22689  10.560   9.945   4.479 -0.2695 -0.0319 -0.8766
  930MOL0     C22690  10.597  10.042   4.360  0.2313 -0.2831  0.4988
  930MOL0     C22691  10.747  10.055   4.329  0.1314  0.1013  0.3317
  930MOL0     C22692  10.863  10.093   4.305  0.1053  0.2095 -0.0477
  930MOL0     C22693  10.666  10.193   4.862 -0.5026 -0.6845  0.2063
  930MOL0     C22694  10.729  10.301   4.933  1.0947 -0.4767 -0.2282
  930MOL0     H22695  10.802  10.454   5.347 -0.8424  2.1657  1.1903
  930MOL0     H22696  10.920  10.562   5.518  0.2614 -0.3400  0.1819
  930MOL0     H22697  11.030  10.702   5.657  0.1548 -1.2830  0.6724
  930MOL0     H22698  10.984  10.848   5.567  1.2868  1.0622 -0.8910
  930MOL0     H22699  11.165  10.977   5.658  0.8921  0.0615 -0.2297
  930MOL0     H22700  11.269  10.833   5.691  0.1868 -1.9089  2.8445
  930MOL0     H22701  11.141  10.753   5.872  0.2959  1.0373  2.5689
  930MOL0     H22702  11.013  10.869   5.831  0.1266 -1.1825  1.2789
  930MOL0     H22703  11.149  11.036   5.924  2.0306  0.5736 -0.0715
  930MOL0     H22704  11.173  10.900   6.038 -2.1051 -0.2581  0.4238
  930MOL0     H22705  11.367  10.950   5.813 -2.4850  1.8019 -0.5413
  930MOL0     H22706  11.382  10.837   5.951  4.8470  1.2482  0.5227
  930MOL0     H22707  11.397  11.055   6.103  0.0740 -1.4566 -0.0900
  930MOL0     H22708  11.367  11.143   5.949  2.5094  0.5711 -1.6519
  930MOL0     H22709  11.601  11.100   6.080  0.3741 -3.0281  2.2075
  930MOL0     H22710  11.606  10.952   5.978  0.9602  0.9072  1.8821
  930MOL0     H22711  11.551  11.098   5.789  2.1522 -3.5292  0.4754
  930MOL0     H22712  11.714  11.123   5.834  0.2187 -0.0908  0.2973
  930MOL0     H22713  11.722  11.320   6.062 -0.8067 -2.1801 -1.2953
  930MOL0     H22714  11.684  11.690   5.948 -1.1672  1.2294  1.2642
  930MOL0     H22715  11.772  11.600   6.063 -1.1370  1.5654  0.1657
  930MOL0     H22716  11.528  11.603   6.183 -2.1391  0.7984 -0.2548
  930MOL0     H22717  11.510  11.731   6.053  0.5140  2.0654  0.8744
  930MOL0     H22718  11.727  11.708   6.273 -0.2968 -0.0955 -0.4938
  930MOL0     H22719  11.730  11.827   6.151  1.1591 -0.2270  1.4297
  930MOL0     H22720  11.476  11.795   6.340 -1.2471  1.9136  0.9973
  930MOL0     H22721  11.544  11.948   6.270  2.4298  1.7897  4.7267
  930MOL0     H22722  11.444  12.071   6.414  0.2368 -3.0945 -0.8317
  930MOL0     H22723  11.429  12.263   6.572 -3.1133 -2.7678  0.5692
  930MOL0     H22724  11.650  12.535   6.933 -1.1381 -2.5263 -0.3490
  930MOL0     H22725  11.587  12.747   7.033  2.5036  1.9554 -1.8481
  930MOL0     H22726  11.530  12.980   7.057 -0.1928 -1.7635 -4.8567
  930MOL0     H22727  11.423  12.880   7.148 -0.7658 -0.1326 -0.2224
  930MOL0     H22728  11.357  13.151   7.025  1.2941 -0.0051  0.6549
  930MOL0     H22729  11.386  13.115   7.202  4.7779 -2.1211  0.2922
  930MOL0     H22730  11.191  13.030   7.241  0.8522 -0.4013 -0.2532
  930MOL0     H22731  11.166  12.974   7.073  1.0382 -2.1332  1.7271
  930MOL0     H22732  11.123  13.249   7.176  4.0291 -0.4324 -1.4470
  930MOL0     H22733  11.129  13.229   7.007 -0.9570 -1.6355 -0.4685
  930MOL0     H22734  10.886  13.207   7.121  0.8702  0.0027 -0.0698
  930MOL0     H22735  10.946  13.055   7.181 -0.7213  0.5782  0.8674
  930MOL0     H22736  11.001  13.008   6.930 -1.5138 -0.3090 -1.6245
  930MOL0     H22737  10.894  13.147   6.897 -1.0863 -0.2638  0.9317
  930MOL0     H22738  10.793  12.921   7.076 -5.0753 -0.0616  1.2684
  930MOL0     H22739  10.705  13.046   7.005 -1.6291 -1.5929 -3.7315
  930MOL0     H22740  10.794  12.973   6.765 -0.4648 -0.9374 -1.2271
  930MOL0     H22741  10.668  12.870   6.847 -0.0091  1.9267 -0.9687
  930MOL0     H22742  11.257  12.782   6.749 -1.8554 -2.8258  0.7596
  930MOL0     H22743  11.328  12.567   6.651  2.2559  1.2193 -2.1748
  930MOL0     H22744  11.730  12.078   6.820  1.6615 -4.4387 -2.0314
  930MOL0     H22745  11.752  11.906   6.653  3.4557  1.9843 -5.6442
  930MOL0     H22746  11.211  10.716   5.239  1.1850 -1.9632  0.3976
  930MOL0     H22747  11.049  10.640   5.055 -2.8542 -0.9493 -0.9732
  930MOL0     H22748  10.453  10.426   5.077 -0.3515  1.2476 -0.2985
  930MOL0     H22749  10.344  10.251   4.968  0.3351  1.6685  3.1609
  930MOL0     H22750  10.473   9.869   4.706  0.5367 -0.6695  0.4213
  930MOL0     H22751  10.621   9.906   4.806 -2.0774 -2.1010  0.8687
  930MOL0     H22752  10.672  10.079   4.607 -2.1649 -0.6163 -3.6093
  930MOL0     H22753  10.722   9.910   4.617 -0.9601 -3.0005 -4.5589
  930MOL0     H22754  10.451   9.951   4.489 -0.1933  0.8902 -0.5342
  930MOL0     H22755  10.586   9.849   4.433 -3.2336 -1.1687 -0.3792
  930MOL0     H22756  10.548  10.002   4.271 -2.1840  0.4266  1.4261
  930MOL0     H22757  10.549  10.137   4.383 -1.4580 -1.3418  1.5907
  930MOL0     H22758  10.959  10.136   4.288  1.0154 -0.1927  3.3756
  930MOL0     H22759  10.728  10.117   4.815 -1.2551 -0.7755 -0.6828
  930MOL0     H22760  10.837  10.309   4.929  1.0891 -0.9752 -1.9220
  931MOL0     O22761   3.077   2.139   8.027 -0.3884  0.3488  0.6293
  931MOL0     C22762   2.967   2.110   7.983  0.0231  0.6071 -0.6844
  931MOL0     O22763   2.936   2.000   7.894  0.3724 -0.4101  0.3263
  931MOL0     C22764   3.020   1.909   7.856  0.2752  0.3090  0.4919
  931MOL0     C22765   2.990   1.840   7.743  0.2236  0.7728 -0.5118
  931MOL0     C22766   3.079   1.753   7.683  0.7610  0.6682  0.7512
  931MOL0     C22767   3.193   1.705   7.755  0.0294 -0.7903  0.0226
  931MOL0     O22768   3.272   1.613   7.697 -0.4751  0.0142 -0.3301
  931MOL0     C22769   3.404   1.599   7.743 -0.6182  0.2262 -0.8235
  931MOL0     C22770   3.473   1.501   7.646 -0.3651  0.1526  0.6937
  931MOL0     C22771   3.610   1.450   7.705  0.6768 -0.3167  0.0440
  931MOL0     C22772   3.676   1.348   7.612 -0.6162 -0.5089 -0.8898
  931MOL0     C22773   3.610   1.209   7.609 -1.0109  0.9613 -0.5438
  931MOL0     C22774   3.682   1.113   7.515 -0.4236  0.0383  0.4087
  931MOL0     C22775   3.614   0.980   7.504 -0.5162  0.5910 -0.0219
  931MOL0     C22776   3.456   0.986   7.484 -0.1911 -0.1102  0.1067
  931MOL0     N22777   3.406   0.851   7.445  0.3502  0.2573  0.7715
  931MOL0     C22778   3.405   0.741   7.527 -0.6423 -0.3687 -1.0579
  931MOL0     C22779   3.326   0.656   7.458 -0.4790  1.1805 -0.3367
  931MOL0     C22780   3.272   0.523   7.508  0.6353  1.7721 -0.5042
  931MOL0     C22781   3.133   0.548   7.559 -0.4833  0.0549  0.3931
  931MOL0     C22782   3.109   0.646   7.671 -0.4764 -0.1348  0.1350
  931MOL0     C22783   2.975   0.632   7.742  0.3217 -0.1343 -0.1655
  931MOL0     O22784   2.968   0.715   7.864  0.1420  0.0602 -1.0865
  931MOL0     C22785   2.865   0.677   7.946 -0.2010  0.7616  1.2825
  931MOL0     C22786   2.745   0.746   7.968  0.3239 -0.2033  0.2734
  931MOL0     C22787   2.642   0.696   8.048  0.3018 -0.0676 -0.9592
  931MOL0     C22788   2.663   0.581   8.120 -0.9745 -0.0754 -0.0553
  931MOL0     C22789   2.572   0.533   8.217  0.1171  0.0179  0.3679
  931MOL0     O22790   2.478   0.633   8.253  0.5868 -0.7838 -0.8136
  931MOL0     C22791   2.385   0.597   8.347  0.2830  0.8645 -0.0356
  931MOL0     C22792   2.338   0.691   8.434 -0.9977 -0.1331  0.0417
  931MOL0     C22793   2.240   0.667   8.529  0.6094 -0.0368 -0.2709
  931MOL0     C22794   2.177   0.543   8.545 -0.2931 -0.7197 -0.0832
  931MOL0     O22795   2.090   0.506   8.643 -0.7223  0.3142  0.3362
  931MOL0     C22796   2.018   0.610   8.714 -0.6413  0.0047  0.7960
  931MOL0     C22797   1.905   0.544   8.797 -0.0686  0.2350 -0.2773
  931MOL0     C22798   1.966   0.477   8.932 -0.3584  0.8969  0.5861
  931MOL0     C22799   1.863   0.459   9.029  0.5208  0.2489 -0.7075
  931MOL0     C22800   1.905   0.411   9.167 -0.0099  1.2565  0.0142
  931MOL0     C22801   1.792   0.392   9.259  0.7064 -0.0264  0.2273
  931MOL0     C22802   1.717   0.258   9.240  0.0176  0.4650  0.0570
  931MOL0     C22803   1.624   0.211   9.356 -0.6285 -0.3820 -0.2074
  931MOL0    Cl22804   1.585   0.029   9.353  0.0674  0.0813 -0.1957
  931MOL0     C22805   2.207   0.448   8.445  0.0046  0.2512  0.3873
  931MOL0     C22806   2.316   0.475   8.356  0.3035 -0.3705  0.1450
  931MOL0     O22807   2.583   0.424   8.271  1.2805  0.0347 -0.0304
  931MOL0     C22808   2.779   0.510   8.103  0.1521 -0.2373  0.1838
  931MOL0     C22809   2.877   0.559   8.017  0.9941 -0.0957 -0.3515
  931MOL0     N22810   3.294   0.708   7.336 -0.2630 -0.1741 -0.6851
  931MOL0     N22811   3.338   0.826   7.328 -0.5388 -0.5862 -0.5128
  931MOL0     C22812   3.205   1.765   7.882  0.2114 -0.1301  0.4012
  931MOL0     C22813   3.133   1.872   7.924  0.0535 -0.7689  0.5400
  931MOL0     C22814   2.866   2.206   8.036 -0.7348 -0.8707  0.9979
  931MOL0     C22815   2.730   2.170   8.035  0.0123 -0.5189 -0.7097
  931MOL0     C22816   2.636   2.238   8.112  0.7656 -0.0153  0.0120
  931MOL0     C22817   2.679   2.358   8.189 -0.4468  0.6207 -0.4136
  931MOL0     O22818   2.597   2.439   8.266 -0.1125  0.5464 -0.4616
  931MOL0     C22819   2.458   2.460   8.236  0.0551 -0.3677 -0.0817
  931MOL0     C22820   2.407   2.595   8.276 -0.2362 -0.5940  0.2888
  931MOL0     C22821   2.444   2.647   8.412  0.1577  0.3479 -0.0390
  931MOL0     C22822   2.411   2.801   8.416 -0.0566  1.0444 -0.6384
  931MOL0     C22823   2.480   2.872   8.525  0.2525 -0.3611  0.1187
  931MOL0     C22824   2.552   2.919   8.609 -0.3521 -0.0332 -0.5012
  931MOL0     C22825   2.814   2.403   8.172  0.1866 -0.0076  0.6197
  931MOL0     C22826   2.899   2.325   8.103 -0.8183  0.5906 -0.1790
  931MOL0     H22827   2.909   1.880   7.683  0.7078 -0.0057 -1.7234
  931MOL0     H22828   3.061   1.711   7.584 -4.3018 -0.7439  1.9722
  931MOL0     H22829   3.407   1.557   7.844 -1.1810  0.9768 -0.4891
  931MOL0     H22830   3.460   1.693   7.747  4.1450 -2.2478 -1.5424
  931MOL0     H22831   3.490   1.536   7.543 -0.7272  0.0422  0.5938
  931MOL0     H22832   3.403   1.417   7.639  4.0614 -3.8798  0.5318
  931MOL0     H22833   3.587   1.404   7.802  1.2269 -0.3307  0.1677
  931MOL0     H22834   3.677   1.536   7.711 -0.5576  0.7522 -0.8252
  931MOL0     H22835   3.685   1.398   7.515  3.6030  1.3173  0.2254
  931MOL0     H22836   3.779   1.334   7.645 -0.7449 -2.5545 -1.1978
  931MOL0     H22837   3.506   1.226   7.579 -1.1392  0.4452 -0.4040
  931MOL0     H22838   3.608   1.162   7.708 -0.3634  0.0470 -0.9512
  931MOL0     H22839   3.787   1.095   7.539 -0.5974  2.1567  3.2350
  931MOL0     H22840   3.678   1.160   7.416 -4.1790 -3.1850 -1.2331
  931MOL0     H22841   3.656   0.933   7.414  0.0301  1.2783 -0.1331
  931MOL0     H22842   3.635   0.917   7.591 -1.1094 -0.4632 -0.6195
  931MOL0     H22843   3.431   1.052   7.400  0.5891  0.3527  0.2256
  931MOL0     H22844   3.408   1.029   7.572 -3.7208 -2.8728 -0.2578
  931MOL0     H22845   3.439   0.730   7.629 -1.8362 -0.7745 -0.6912
  931MOL0     H22846   3.342   0.475   7.576 -2.6669 -0.2836  1.7317
  931MOL0     H22847   3.250   0.456   7.424 -1.5727  1.3786  0.3077
  931MOL0     H22848   3.091   0.451   7.588  2.2841 -1.8197 -1.3858
  931MOL0     H22849   3.070   0.598   7.486  1.5153  1.9322 -0.1487
  931MOL0     H22850   3.192   0.627   7.741  0.7696 -0.4012 -1.3608
  931MOL0     H22851   3.129   0.751   7.647  1.3397  0.0660  2.1920
  931MOL0     H22852   2.961   0.527   7.767  1.6475 -0.7513 -1.8447
  931MOL0     H22853   2.891   0.651   7.674 -1.4339 -1.5112  1.4833
  931MOL0     H22854   2.701   0.830   7.915 -3.0894 -1.8345  0.2779
  931MOL0     H22855   2.554   0.756   8.070  1.0794 -0.2314  3.5744
  931MOL0     H22856   2.392   0.783   8.452  1.6328 -1.8707  1.7328
  931MOL0     H22857   2.212   0.747   8.598  2.4312  2.2112 -1.9494
  931MOL0     H22858   1.960   0.667   8.641 -2.1806  0.1134  2.0474
  931MOL0     H22859   2.077   0.683   8.769  1.7187  1.0233 -2.7907
  931MOL0     H22860   1.870   0.471   8.723 -0.4051 -1.0958  1.1269
  931MOL0     H22861   1.827   0.617   8.819  1.7599  3.2191 -2.9205
  931MOL0     H22862   2.037   0.552   8.969  1.9174 -2.6050  4.1460
  931MOL0     H22863   2.017   0.385   8.902 -1.9689  0.2296 -0.1956
  931MOL0     H22864   1.815   0.553   9.054  0.1513 -0.4429  1.4178
  931MOL0     H22865   1.794   0.391   8.978  1.5781 -1.6994  0.3340
  931MOL0     H22866   1.974   0.485   9.209  1.3911  1.4899 -2.4643
  931MOL0     H22867   1.962   0.319   9.153  3.5676  3.3084 -0.3255
  931MOL0     H22868   1.728   0.481   9.254 -1.1526 -1.3713 -0.9768
  931MOL0     H22869   1.824   0.380   9.363 -2.6072  2.0654  1.6650
  931MOL0     H22870   1.654   0.256   9.151 -1.2251 -1.5596  0.8959
  931MOL0     H22871   1.795   0.181   9.238  3.2072  3.4312  0.4722
  931MOL0     H22872   1.526   0.260   9.353 -0.2542  0.4615  0.6939
  931MOL0     H22873   1.679   0.223   9.450  0.1889 -2.1767 -0.4141
  931MOL0     H22874   2.170   0.346   8.448 -1.0531  0.5609 -0.7728
  931MOL0     H22875   2.340   0.398   8.283  0.8332 -1.3037  1.2741
  931MOL0     H22876   2.799   0.415   8.150  1.2355 -2.0572 -3.5516
  931MOL0     H22877   2.966   0.502   7.992 -0.1350 -0.5498 -3.9984
  931MOL0     H22878   3.284   1.724   7.944 -0.1720 -1.9063 -0.2253
  931MOL0     H22879   3.169   1.916   8.017  1.2641  1.3661 -0.8273
  931MOL0     H22880   2.713   2.084   7.971  4.9701 -2.1145 -0.3232
  931MOL0     H22881   2.535   2.198   8.112  1.3529 -1.6150  1.1824
  931MOL0     H22882   2.401   2.386   8.295  0.8660  0.1183  1.3469
  931MOL0     H22883   2.430   2.442   8.132  0.0552  1.1215 -0.3533
  931MOL0     H22884   2.463   2.672   8.223 -0.4029  0.1970  1.2304
  931MOL0     H22885   2.301   2.610   8.252 -0.6963  0.1930  2.5764
  931MOL0     H22886   2.549   2.639   8.441 -0.5811  1.1715  3.2341
  931MOL0     H22887   2.389   2.590   8.486 -0.2027  1.2437  0.4003
  931MOL0     H22888   2.451   2.847   8.325  2.4300  1.7386  0.7261
  931MOL0     H22889   2.306   2.823   8.435 -0.3517  1.0382 -2.1513
  931MOL0     H22890   2.616   2.949   8.689  0.8466 -2.8905 -0.2605
  931MOL0     H22891   2.846   2.490   8.227  0.2983  0.3655 -0.0323
  931MOL0     H22892   3.001   2.360   8.106 -0.0586 -1.4855  0.5976
  932MOL0     O22893   8.387   9.735   0.088 -0.2037 -0.5174 -0.1729
  932MOL0     C22894   8.315   9.804   0.164  0.4008  0.3215  0.0269
  932MOL0     O22895   8.272   9.928   0.145 -1.1208  0.0547  0.4176
  932MOL0     C22896   8.313   9.981   0.028 -0.1702 -0.2097  0.9105
  932MOL0     C22897   8.247   9.947  -0.089  0.3061 -0.7342 -0.5753
  932MOL0     C22898   8.289  10.005  -0.213 -0.1754 -1.3443  0.1332
  932MOL0     C22899   8.384  10.104  -0.216 -0.8713 -1.1330 -0.1020
  932MOL0     O22900   8.403  10.186  -0.331  0.0464  0.1459 -0.6584
  932MOL0     C22901   8.532  10.236  -0.347 -1.0231 -1.2199  0.0217
  932MOL0     C22902   8.557  10.297  -0.484 -0.2717 -0.3212 -0.3585
  932MOL0     C22903   8.639  10.193  -0.576 -0.4034 -0.1053 -0.1871
  932MOL0     C22904   8.623  10.237  -0.716 -0.1669 -0.1133  0.6952
  932MOL0     C22905   8.696  10.133  -0.813 -0.3163  0.2233 -0.6238
  932MOL0     C22906   8.703  10.179  -0.952  0.2507 -0.6131  0.3369
  932MOL0     C22907   8.824  10.120  -1.029  0.5494 -1.2126  0.1784
  932MOL0     C22908   8.829  10.171  -1.171 -0.3580 -0.1154  0.1157
  932MOL0     N22909   8.952  10.122  -1.241 -0.3071  0.3027  0.4531
  932MOL0     C22910   8.983  10.138  -1.373 -0.3796  0.4989  0.2211
  932MOL0     C22911   9.101  10.082  -1.392  0.1098 -0.4560 -0.1504
  932MOL0     C22912   9.172  10.071  -1.527 -1.1374 -0.2186 -0.0887
  932MOL0     C22913   9.193   9.920  -1.561  0.9638  1.0109 -0.1382
  932MOL0     C22914   9.058   9.842  -1.561  0.4016 -0.1219 -0.8014
  932MOL0     C22915   8.955   9.892  -1.660 -0.8801 -0.8423  0.5000
  932MOL0     O22916   8.999   9.918  -1.795 -0.3986  0.0189  1.0405
  932MOL0     C22917   8.920  10.013  -1.860 -0.8545 -0.6284 -0.3444
  932MOL0     C22918   8.988  10.122  -1.913 -0.1247  0.0834  0.0006
  932MOL0     C22919   8.918  10.230  -1.952  0.3038 -0.6105 -0.9498
  932MOL0     C22920   8.774  10.228  -1.930  0.0432  0.6795 -0.0170
  932MOL0     C22921   8.686  10.345  -1.918 -0.9761  0.8091  0.4911
  932MOL0     O22922   8.549  10.353  -1.940 -0.4980  0.3979 -0.5833
  932MOL0     C22923   8.484  10.463  -1.983 -0.2211  0.6564 -0.6181
  932MOL0     C22924   8.516  10.585  -1.924  0.5419 -0.2215 -0.3996
  932MOL0     C22925   8.452  10.706  -1.975  0.0166  0.7693  0.4178
  932MOL0     C22926   8.371  10.698  -2.084 -0.1807 -0.3868  1.7210
  932MOL0     O22927   8.340  10.814  -2.144  0.4876 -0.0477  0.4189
  932MOL0     C22928   8.352  10.831  -2.282  0.3751  0.1243 -0.5891
  932MOL0     C22929   8.342  10.975  -2.318  1.0252 -0.7696 -0.6209
  932MOL0     C22930   8.426  11.076  -2.234  0.2540  0.1859  1.2779
  932MOL0     C22931   8.382  11.224  -2.254 -0.5873 -0.1581  0.0689
  932MOL0     C22932   8.472  11.323  -2.179  0.3459  0.6393  0.4472
  932MOL0     C22933   8.610  11.314  -2.212 -0.4777  0.2838  0.3442
  932MOL0     C22934   8.694  11.435  -2.173  0.2264  0.6690  0.2997
  932MOL0     C22935   8.847  11.417  -2.192  1.2786  0.0341 -0.4708
  932MOL0    Cl22936   8.914  11.587  -2.147 -0.1836  0.1283  0.0640
  932MOL0     C22937   8.341  10.573  -2.133  0.3535 -0.3414  0.2411
  932MOL0     C22938   8.393  10.460  -2.080  0.6251  0.4977  0.1283
  932MOL0     O22939   8.760  10.444  -1.903  0.3875  0.0388  0.8212
  932MOL0     C22940   8.711  10.112  -1.902  0.0399 -0.5907 -0.2493
  932MOL0     C22941   8.777  10.008  -1.857 -1.1278  0.4205  0.0192
  932MOL0     N22942   9.153  10.029  -1.276  0.9159  0.1982 -0.8918
  932MOL0     N22943   9.068  10.063  -1.184  0.6028  0.0760  1.2308
  932MOL0     C22944   8.440  10.145  -0.099  0.4033 -1.2474 -0.0990
  932MOL0     C22945   8.416  10.079   0.022 -0.3341 -0.0780  1.1398
  932MOL0     C22946   8.293   9.750   0.299 -0.3891  0.6273 -0.2492
  932MOL0     C22947   8.281   9.606   0.318  0.5300 -0.4174  0.3891
  932MOL0     C22948   8.254   9.565   0.446 -0.4040  0.2233  0.3264
  932MOL0     C22949   8.252   9.662   0.559  0.3774 -1.1226 -0.4732
  932MOL0     O22950   8.254   9.618   0.692 -0.9761 -0.2166  0.1103
  932MOL0     C22951   8.293   9.483   0.726 -1.2358  0.0075 -0.3694
  932MOL0     C22952   8.446   9.477   0.729 -0.1455  0.2401 -0.0552
  932MOL0     C22953   8.517   9.368   0.818 -0.4840 -1.0568  1.3393
  932MOL0     C22954   8.489   9.227   0.782  0.0657  0.2119  0.2690
  932MOL0     C22955   8.546   9.191   0.650 -0.7758 -0.9407 -0.8719
  932MOL0     C22956   8.574   9.163   0.540  0.0164 -0.8424  0.0263
  932MOL0     C22957   8.257   9.794   0.534  0.2602 -0.6099  0.8473
  932MOL0     C22958   8.271   9.841   0.401  0.3037  0.6346  0.0482
  932MOL0     H22959   8.170   9.872  -0.077  1.7331 -2.1247  0.2711
  932MOL0     H22960   8.245   9.970  -0.306 -1.3928  2.0696 -0.7170
  932MOL0     H22961   8.609  10.160  -0.329 -0.3119 -0.6703 -0.6388
  932MOL0     H22962   8.553  10.318  -0.277  5.1246 -1.5622 -0.8189
  932MOL0     H22963   8.591  10.401  -0.481 -1.3718  0.0443  0.1839
  932MOL0     H22964   8.460  10.310  -0.535 -0.7475 -4.0982 -0.6766
  932MOL0     H22965   8.589  10.096  -0.565  0.0636 -0.4926 -1.3321
  932MOL0     H22966   8.745  10.171  -0.559  0.0401  2.6997  1.2803
  932MOL0     H22967   8.517  10.249  -0.738 -0.1274  0.9784  1.0308
  932MOL0     H22968   8.669  10.337  -0.722  1.3037 -0.8099 -0.3490
  932MOL0     H22969   8.650  10.034  -0.813  2.3177 -1.0742 -1.6509
  932MOL0     H22970   8.796  10.116  -0.774 -0.7688  0.7466  0.8078
  932MOL0     H22971   8.708  10.288  -0.952  0.7492 -0.5645  3.1106
  932MOL0     H22972   8.615  10.150  -1.011  0.4125  1.6789 -1.1348
  932MOL0     H22973   8.911  10.156  -0.973  2.9219 -3.0332 -2.0506
  932MOL0     H22974   8.819  10.011  -1.020  0.8878 -1.1866  0.7489
  932MOL0     H22975   8.830  10.280  -1.158 -0.8597 -0.1910  0.8052
  932MOL0     H22976   8.738  10.142  -1.223 -1.2732 -0.8006  2.0275
  932MOL0     H22977   8.926  10.178  -1.456  0.7983 -3.3989 -2.8021
  932MOL0     H22978   9.267  10.125  -1.525 -1.1674 -0.1846  0.4868
  932MOL0     H22979   9.118  10.119  -1.609 -1.2895  0.2908  0.3032
  932MOL0     H22980   9.271   9.878  -1.496  0.3787  1.7346  1.0446
  932MOL0     H22981   9.243   9.916  -1.659  1.0499  3.3825 -0.2462
  932MOL0     H22982   9.090   9.739  -1.580  2.1045 -0.6653  3.8413
  932MOL0     H22983   9.016   9.836  -1.461  0.0260 -2.0579 -1.0354
  932MOL0     H22984   8.908   9.983  -1.623  0.5823  0.2555 -0.2338
  932MOL0     H22985   8.884   9.810  -1.674 -0.5323 -0.7994 -1.9997
  932MOL0     H22986   9.096  10.136  -1.913 -0.0005 -0.7323  1.1216
  932MOL0     H22987   8.971  10.324  -1.963  1.2397 -1.1467 -1.1296
  932MOL0     H22988   8.578  10.598  -1.836  0.8836 -0.9077 -0.5280
  932MOL0     H22989   8.491  10.802  -1.941  2.1000  0.4663 -0.8937
  932MOL0     H22990   8.274  10.771  -2.331 -1.5242  0.4056  1.9082
  932MOL0     H22991   8.452  10.804  -2.317  0.1737 -0.8969 -0.4013
  932MOL0     H22992   8.237  11.001  -2.302  1.3112  0.2250 -0.3218
  932MOL0     H22993   8.362  10.992  -2.424  0.4617  0.9012 -0.4874
  932MOL0     H22994   8.525  11.073  -2.280 -0.0522  0.9351  0.5661
  932MOL0     H22995   8.416  11.059  -2.126  2.7700 -0.8397  1.4254
  932MOL0     H22996   8.378  11.256  -2.358  1.3932 -0.1806 -0.0501
  932MOL0     H22997   8.285  11.244  -2.207  0.4958 -0.6070  2.6409
  932MOL0     H22998   8.476  11.305  -2.071  1.3311 -1.3810  0.1265
  932MOL0     H22999   8.451  11.431  -2.180  4.3532  1.6072  0.9069
  932MOL0     H23000   8.617  11.299  -2.320 -0.7487 -1.3268  0.5251
  932MOL0     H23001   8.653  11.222  -2.171  1.7312  0.2301 -1.8536
  932MOL0     H23002   8.669  11.533  -2.216 -2.6284 -0.2536 -0.4027
  932MOL0     H23003   8.681  11.440  -2.064  1.4874 -1.1942  0.5756
  932MOL0     H23004   8.880  11.382  -2.290  0.5314  2.7113 -1.7572
  932MOL0     H23005   8.878  11.344  -2.116 -3.4118 -1.4182  0.3836
  932MOL0     H23006   8.280  10.544  -2.218  1.7454  0.2087 -0.9924
  932MOL0     H23007   8.370  10.364  -2.126  1.2817 -1.0994  2.9439
  932MOL0     H23008   8.606  10.102  -1.878 -0.1049  0.1355 -0.5888
  932MOL0     H23009   8.725   9.923  -1.813 -0.9931  1.5640  2.5509
  932MOL0     H23010   8.523  10.215  -0.096 -0.3544 -0.3645  1.4763
  932MOL0     H23011   8.470  10.103   0.113  0.2237 -0.9116  1.0403
  932MOL0     H23012   8.316   9.536   0.242  0.4928  0.4884 -0.4919
  932MOL0     H23013   8.261   9.458   0.463  2.2614  0.3356  0.3310
  932MOL0     H23014   8.254   9.402   0.665  0.4347  0.0195 -1.5330
  932MOL0     H23015   8.258   9.462   0.827  0.0543 -0.4279  0.0038
  932MOL0     H23016   8.483   9.461   0.627 -0.2279 -0.6573  0.0505
  932MOL0     H23017   8.483   9.575   0.761  0.1930  1.4719 -3.7794
  932MOL0     H23018   8.489   9.388   0.922 -2.8581  2.6415  0.1763
  932MOL0     H23019   8.622   9.392   0.798 -0.7647 -1.4576 -0.8604
  932MOL0     H23020   8.531   9.156   0.854  1.4914 -1.4231 -2.0266
  932MOL0     H23021   8.383   9.200   0.792  0.4197 -1.7299 -0.6020
  932MOL0     H23022   8.626   9.128   0.453 -2.4484 -0.5573 -1.6700
  932MOL0     H23023   8.253   9.872   0.609 -1.0272 -1.9847  2.2783
  932MOL0     H23024   8.259   9.946   0.379 -0.5167  0.3380 -1.0370
  933MOL0     O23025   9.737  10.405   3.063  0.1673 -0.1307 -0.6929
  933MOL0     C23026   9.824  10.421   2.980 -0.5272 -0.4641  0.4701
  933MOL0     O23027   9.902  10.536   2.974  0.1234 -0.0094  0.3696
  933MOL0     C23028   9.874  10.637   3.063 -0.6231  0.9145  0.5924
  933MOL0     C23029   9.752  10.690   3.095  0.4175  0.0138  0.0242
  933MOL0     C23030   9.730  10.798   3.184 -0.2598 -0.1404 -0.3631
  933MOL0     C23031   9.840  10.853   3.242  0.7599  0.4652  0.3569
  933MOL0     O23032   9.838  10.954   3.342 -0.0770 -0.0318  0.7037
  933MOL0     C23033   9.716  11.016   3.357 -0.1699  0.6201  0.0314
  933MOL0     C23034   9.717  11.114   3.479 -0.2073 -0.0772 -0.5557
  933MOL0     C23035   9.572  11.123   3.533 -0.5022 -0.3077 -0.4594
  933MOL0     C23036   9.575  11.227   3.647  0.5279 -0.8444 -1.3194
  933MOL0     C23037   9.487  11.206   3.777 -0.0751 -0.5971  0.0161
  933MOL0     C23038   9.335  11.212   3.759  1.0176 -0.7107  0.5613
  933MOL0     C23039   9.245  11.132   3.854  0.3502  0.1321 -0.0471
  933MOL0     C23040   9.101  11.176   3.841  1.4715  0.9725 -1.1278
  933MOL0     N23041   9.008  11.096   3.939 -0.2883 -0.0453  0.9460
  933MOL0     C23042   8.983  10.962   3.916  0.0353 -0.5380 -0.0334
  933MOL0     C23043   8.881  10.945   4.004 -0.7745  0.9621 -0.4556
  933MOL0     C23044   8.804  10.808   4.025 -0.2891 -0.0795  0.1910
  933MOL0     C23045   8.648  10.830   4.018 -0.4391 -0.2461  0.6220
  933MOL0     C23046   8.569  10.698   4.038 -0.6356  0.1959 -0.2362
  933MOL0     C23047   8.566  10.625   4.170 -0.1289 -0.1952 -0.8784
  933MOL0     O23048   8.452  10.538   4.183  0.6981  0.2607  0.5655
  933MOL0     C23049   8.382  10.524   4.300  0.5696  0.1101  0.3212
  933MOL0     C23050   8.393  10.617   4.404  0.0272  0.2211 -1.3124
  933MOL0     C23051   8.329  10.600   4.531  0.6013  0.7423 -0.3902
  933MOL0     C23052   8.257  10.478   4.559 -0.8587  0.1784  0.1184
  933MOL0     C23053   8.191  10.461   4.688  0.3999 -0.3290 -0.4916
  933MOL0     O23054   8.187  10.579   4.766  0.6193  0.8698  0.0055
  933MOL0     C23055   8.137  10.588   4.898 -0.1203  0.5876  0.2370
  933MOL0     C23056   8.026  10.506   4.956 -0.0849 -0.9032  0.9841
  933MOL0     C23057   8.003  10.526   5.091 -0.0233  0.1823 -0.0880
  933MOL0     C23058   8.089  10.600   5.173  0.2853  1.2355  0.4324
  933MOL0     O23059   8.077  10.600   5.309  0.5426 -0.6983  0.8755
  933MOL0     C23060   8.168  10.502   5.371  0.0605 -0.7686  0.0742
  933MOL0     C23061   8.112  10.366   5.345  0.6947 -0.4069 -1.9117
  933MOL0     C23062   8.160  10.266   5.450 -0.4987 -0.1283  0.1183
  933MOL0     C23063   8.108  10.124   5.433  0.6675  0.0689 -0.3631
  933MOL0     C23064   8.142  10.022   5.542  0.1874  0.1539 -0.0122
  933MOL0     C23065   8.063   9.889   5.525  0.3054  0.6876  0.1419
  933MOL0     C23066   8.109   9.795   5.642 -0.6763 -0.3045 -0.4443
  933MOL0     C23067   8.089   9.644   5.615 -0.7989  0.5655 -1.5424
  933MOL0    Cl23068   7.929   9.581   5.628  0.0595  0.3771 -0.1688
  933MOL0     C23069   8.198  10.673   5.115 -0.4751  0.8492 -0.6297
  933MOL0     C23070   8.206  10.671   4.974 -0.5981  0.2259 -0.4654
  933MOL0     O23071   8.141  10.353   4.720 -0.1955  0.8904 -0.0670
  933MOL0     C23072   8.248  10.382   4.451  0.1455 -0.1465 -0.8812
  933MOL0     C23073   8.304  10.409   4.326  0.3660  1.1347  0.1224
  933MOL0     N23074   8.855  11.064   4.075  0.1650  0.1430  0.1822
  933MOL0     N23075   8.930  11.149   4.035 -0.2661  0.4456 -0.3086
  933MOL0     C23076   9.961  10.805   3.220  0.0383 -0.1340 -0.8565
  933MOL0     C23077   9.986  10.691   3.138  0.6512 -0.5542 -0.2252
  933MOL0     C23078   9.896  10.299   2.924  0.5824 -0.4771 -0.4312
  933MOL0     C23079  10.030  10.296   2.904 -0.8629 -0.6440  0.2538
  933MOL0     C23080  10.096  10.189   2.859  0.3477 -0.0439  0.2147
  933MOL0     C23081  10.023  10.070   2.831  0.4905 -0.3100 -0.1944
  933MOL0     O23082  10.076   9.950   2.790  0.0506  0.2340 -0.1786
  933MOL0     C23083  10.211   9.949   2.735 -0.0703  1.3558  0.7099
  933MOL0     C23084  10.202  10.016   2.603  0.1482  0.1101  0.4517
  933MOL0     C23085  10.073  10.010   2.518  0.3525 -0.2020 -0.8906
  933MOL0     C23086  10.041   9.868   2.457  0.3395 -0.7293  0.8293
  933MOL0     C23087   9.900   9.880   2.423  0.0393  0.3593  0.4852
  933MOL0     C23088   9.784   9.891   2.401  0.5561 -0.0861 -0.0045
  933MOL0     C23089   9.880  10.075   2.830  1.3598 -0.1325 -0.3978
  933MOL0     C23090   9.816  10.186   2.885  0.1343 -0.4769 -0.2562
  933MOL0     H23091   9.665  10.657   3.039  0.4233  2.1823 -1.3965
  933MOL0     H23092   9.624  10.822   3.186 -0.0369  1.2787 -2.3282
  933MOL0     H23093   9.654  10.929   3.380  1.9130 -0.5417  1.6744
  933MOL0     H23094   9.685  11.057   3.260 -2.1969 -1.3485 -0.2358
  933MOL0     H23095   9.757  11.213   3.454 -2.6201  0.7971 -1.2598
  933MOL0     H23096   9.792  11.074   3.547 -2.1640 -1.5905  0.8435
  933MOL0     H23097   9.525  11.030   3.563 -1.3680  0.8495  2.0640
  933MOL0     H23098   9.503  11.163   3.458 -0.7652  3.3251  1.4893
  933MOL0     H23099   9.681  11.223   3.677  0.3166 -0.9266 -0.5378
  933MOL0     H23100   9.550  11.327   3.613  0.1834 -1.2633 -2.3265
  933MOL0     H23101   9.531  11.252   3.867  3.0109 -0.6587 -1.3324
  933MOL0     H23102   9.510  11.105   3.815  4.0744  0.3339  0.5115
  933MOL0     H23103   9.315  11.180   3.656  0.3730  0.7635  0.2027
  933MOL0     H23104   9.304  11.317   3.766  0.8987 -0.6801 -0.2856
  933MOL0     H23105   9.255  11.026   3.828  0.4937 -0.0029  0.5470
  933MOL0     H23106   9.285  11.136   3.956  1.2400 -0.4985 -0.3503
  933MOL0     H23107   9.055  11.173   3.742  0.5675  1.6591 -0.7405
  933MOL0     H23108   9.098  11.280   3.876  0.1783  1.5847 -2.9185
  933MOL0     H23109   9.042  10.898   3.852  0.4064 -1.8182  1.5196
  933MOL0     H23110   8.851  10.752   4.107  2.1613  1.9016  0.2679
  933MOL0     H23111   8.818  10.759   3.928 -1.9554  0.7871 -0.5257
  933MOL0     H23112   8.620  10.882   3.926  0.7648  2.3735  1.6374
  933MOL0     H23113   8.619  10.890   4.105  1.6366  0.5578  0.8269
  933MOL0     H23114   8.468  10.723   4.002 -1.3124 -1.5818  0.3256
  933MOL0     H23115   8.602  10.627   3.962  1.1463  0.8435 -0.0972
  933MOL0     H23116   8.560  10.703   4.246  1.7224 -3.1794  2.6915
  933MOL0     H23117   8.662  10.576   4.186  1.7980  3.6587  0.6688
  933MOL0     H23118   8.455  10.706   4.397 -0.6363  0.6809 -1.4677
  933MOL0     H23119   8.338  10.672   4.612 -2.0145 -1.6449  2.2807
  933MOL0     H23120   7.971  10.442   4.887 -0.4000  0.3136  0.0744
  933MOL0     H23121   7.925  10.479   5.152 -0.4405 -1.3651 -1.7282
  933MOL0     H23122   8.182  10.533   5.475  3.4624 -1.7558  0.0290
  933MOL0     H23123   8.265  10.506   5.320 -0.1156 -1.2939 -0.3141
  933MOL0     H23124   8.127  10.333   5.241 -1.1090 -3.6739 -1.2469
  933MOL0     H23125   8.008  10.385   5.372  0.9249 -0.9830 -0.5612
  933MOL0     H23126   8.128  10.310   5.545 -2.6649  1.0259 -1.0635
  933MOL0     H23127   8.269  10.267   5.444 -0.4330  2.7261  0.4877
  933MOL0     H23128   7.999  10.128   5.419  0.6562 -3.4034 -2.4577
  933MOL0     H23129   8.141  10.085   5.336  0.4125 -0.6497 -0.1629
  933MOL0     H23130   8.109  10.053   5.641 -1.5555  0.7969 -0.7514
  933MOL0     H23131   8.250  10.009   5.555  0.1880  0.4362  0.2696
  933MOL0     H23132   8.095   9.837   5.435  1.6660  2.6792 -0.5848
  933MOL0     H23133   7.954   9.900   5.526  0.2876  0.6633  1.5075
  933MOL0     H23134   8.216   9.814   5.652 -0.3040 -1.8299 -1.3390
  933MOL0     H23135   8.070   9.825   5.740 -1.4251 -2.8330  0.0938
  933MOL0     H23136   8.151   9.596   5.691  2.9466  2.7241 -2.9714
  933MOL0     H23137   8.135   9.617   5.519 -2.0241  1.2984 -2.3662
  933MOL0     H23138   8.249  10.730   5.192  1.5004 -1.2373 -0.2953
  933MOL0     H23139   8.273  10.745   4.931  1.4436 -0.8769  0.6728
  933MOL0     H23140   8.181  10.298   4.465 -0.8063  0.9073  1.3652
  933MOL0     H23141   8.271  10.340   4.249 -1.8286  1.6431  0.5283
  933MOL0     H23142  10.046  10.858   3.263  1.6152 -2.4411 -0.9147
  933MOL0     H23143  10.082  10.645   3.114  0.7536 -1.4700  1.7271
  933MOL0     H23144  10.092  10.384   2.919 -3.3700  0.8501  2.6596
  933MOL0     H23145  10.204  10.190   2.848  0.4346  0.9046  0.9525
  933MOL0     H23146  10.234   9.842   2.725  0.7348  1.6825 -1.5173
  933MOL0     H23147  10.291   9.996   2.792  2.1130  3.5517 -3.6818
  933MOL0     H23148  10.233  10.121   2.602  1.1324  0.0006 -3.8973
  933MOL0     H23149  10.282   9.974   2.541 -0.4897 -1.0018  0.3547
  933MOL0     H23150  10.092  10.077   2.433 -2.8991 -0.8930 -2.3027
  933MOL0     H23151   9.991  10.060   2.570 -0.0035 -2.0721  0.4212
  933MOL0     H23152  10.098   9.861   2.364 -3.0287  2.8221 -1.8475
  933MOL0     H23153  10.063   9.784   2.523  1.7152 -0.2242  1.0429
  933MOL0     H23154   9.684   9.896   2.364  0.4351 -1.4324  0.0917
  933MOL0     H23155   9.819   9.990   2.801 -2.1867  2.2216 -0.3661
  933MOL0     H23156   9.710  10.199   2.901  0.4293 -1.3968  3.4666
  934MOL0     O23157   6.972   9.009   7.603 -0.3415  1.0608  0.0299
  934MOL0     C23158   6.946   9.068   7.706  0.1348  0.0227 -0.7202
  934MOL0     O23159   6.938   9.201   7.721 -0.5752  0.6542  0.4245
  934MOL0     C23160   6.979   9.274   7.613  0.8446  0.2181  0.4364
  934MOL0     C23161   6.898   9.287   7.498 -0.3108  0.5128  1.2283
  934MOL0     C23162   6.924   9.373   7.390  0.4453 -0.0904 -0.5023
  934MOL0     C23163   7.034   9.462   7.408  0.3825  0.1338  0.0246
  934MOL0     O23164   7.088   9.539   7.304  0.0807  0.3799 -0.6952
  934MOL0     C23165   7.013   9.663   7.300 -1.1620 -0.8687  0.4685
  934MOL0     C23166   7.046   9.738   7.168 -0.9482  0.3328  0.4926
  934MOL0     C23167   7.004   9.660   7.039 -0.3006  0.0993 -0.7683
  934MOL0     C23168   6.855   9.657   7.001  0.1745 -0.6910 -0.2024
  934MOL0     C23169   6.849   9.638   6.846  0.5239 -0.2745 -0.0512
  934MOL0     C23170   6.705   9.641   6.779 -0.0615  0.3022 -0.6532
  934MOL0     C23171   6.701   9.639   6.628  0.8680  0.9303 -0.7908
  934MOL0     C23172   6.567   9.627   6.570  0.8080  0.0424 -0.5351
  934MOL0     N23173   6.551   9.706   6.449  0.2740  0.1370  0.7555
  934MOL0     C23174   6.483   9.831   6.434  0.5552  0.8456  0.2953
  934MOL0     C23175   6.503   9.862   6.304 -0.2838  0.1838  0.1096
  934MOL0     C23176   6.439   9.990   6.247  0.1504  0.6350  1.1592
  934MOL0     C23177   6.466  10.015   6.090  1.2693 -0.1903 -0.5101
  934MOL0     C23178   6.615  10.035   6.062  0.2376 -0.5803 -0.0444
  934MOL0     C23179   6.626  10.029   5.910 -0.4724  0.5922 -0.5312
  934MOL0     O23180   6.552  10.142   5.867 -0.3280  0.5888  0.2890
  934MOL0     C23181   6.531  10.174   5.736 -1.7129 -0.3820  0.4944
  934MOL0     C23182   6.600  10.114   5.626 -0.3829  0.2465  0.7552
  934MOL0     C23183   6.586  10.169   5.494  0.5123  0.6394  0.0816
  934MOL0     C23184   6.500  10.286   5.472 -0.2681 -0.1059 -0.2574
  934MOL0     C23185   6.496  10.361   5.338  0.7807  0.5651  0.7450
  934MOL0     O23186   6.572  10.310   5.238  0.2680 -0.2429 -0.0026
  934MOL0     C23187   6.599  10.400   5.139  0.6086  0.0321  1.0712
  934MOL0     C23188   6.583  10.360   5.007 -0.4936  0.3782  0.3229
  934MOL0     C23189   6.621  10.437   4.892 -0.2460  0.3618  0.3879
  934MOL0     C23190   6.685  10.555   4.914 -0.4585 -0.7463 -0.4653
  934MOL0     O23191   6.719  10.642   4.821 -1.3249 -0.1669 -0.3822
  934MOL0     C23192   6.760  10.589   4.691  1.9852  1.3310 -1.4522
  934MOL0     C23193   6.796  10.704   4.593 -0.1174  0.4549  0.3593
  934MOL0     C23194   6.931  10.769   4.618  0.3740  0.4406 -0.3409
  934MOL0     C23195   6.993  10.818   4.484 -0.0099 -0.1530 -0.3755
  934MOL0     C23196   7.135  10.870   4.508  0.5410  1.0264  0.1294
  934MOL0     C23197   7.226  10.854   4.381  0.2022  1.2915  0.5676
  934MOL0     C23198   7.378  10.862   4.415 -1.1309 -0.3733  0.4283
  934MOL0     C23199   7.468  10.896   4.294  0.0848 -1.0429  0.6837
  934MOL0    Cl23200   7.482  10.756   4.175  0.1327 -0.3622  0.1465
  934MOL0     C23201   6.696  10.608   5.047 -0.8336  0.6624  1.1111
  934MOL0     C23202   6.644  10.534   5.157  1.4682 -0.2083  0.2490
  934MOL0     O23203   6.413  10.458   5.323  0.6368 -0.5081  0.4351
  934MOL0     C23204   6.424  10.329   5.575  0.4015  1.2207 -0.4768
  934MOL0     C23205   6.443  10.282   5.705 -0.3232  0.7204 -1.0400
  934MOL0     N23206   6.577   9.768   6.245 -0.7902  0.3712  0.7966
  934MOL0     N23207   6.611   9.675   6.333 -0.3612 -0.3769 -0.6733
  934MOL0     C23208   7.118   9.454   7.524  1.1490  0.5860 -0.6123
  934MOL0     C23209   7.094   9.354   7.621  0.6189 -0.1409 -0.4525
  934MOL0     C23210   6.908   8.987   7.829  0.6468  0.3626  0.6983
  934MOL0     C23211   6.807   9.043   7.914 -0.0928  0.4913  0.1071
  934MOL0     C23212   6.778   8.998   8.043  0.6955 -1.3449 -0.4895
  934MOL0     C23213   6.825   8.871   8.074 -0.0801  0.7540 -0.1464
  934MOL0     O23214   6.793   8.795   8.185 -0.2293  0.1131  0.3445
  934MOL0     C23215   6.699   8.824   8.287 -0.7896 -0.5323 -0.0605
  934MOL0     C23216   6.709   8.709   8.387  0.7276 -0.3194 -0.7464
  934MOL0     C23217   6.688   8.572   8.324  0.3968  0.4482 -0.8497
  934MOL0     C23218   6.767   8.470   8.409  0.6300 -0.3190  0.1433
  934MOL0     C23219   6.757   8.333   8.366 -0.0456  0.3310 -0.8086
  934MOL0     C23220   6.763   8.218   8.326 -0.6369 -0.0895  0.8261
  934MOL0     C23221   6.905   8.798   7.984 -0.1421  0.4386  0.1399
  934MOL0     C23222   6.949   8.857   7.865  0.4653  0.3402  0.0271
  934MOL0     H23223   6.799   9.242   7.491 -0.9123  1.7508  1.5473
  934MOL0     H23224   6.865   9.371   7.300  1.3406  0.7626 -1.1279
  934MOL0     H23225   7.048   9.731   7.379  0.7745 -2.0619  0.7007
  934MOL0     H23226   6.907   9.646   7.318 -1.1339 -1.0839  0.4361
  934MOL0     H23227   7.151   9.770   7.174 -1.3011  1.3014  2.2699
  934MOL0     H23228   6.993   9.834   7.168  0.9966  1.4950 -0.8765
  934MOL0     H23229   7.054   9.562   7.043  0.1700  0.3662 -0.0066
  934MOL0     H23230   7.055   9.717   6.960  0.5617  2.2201  1.2233
  934MOL0     H23231   6.792   9.581   7.048 -2.0162  2.4944  2.4027
  934MOL0     H23232   6.820   9.754   7.037 -1.2575 -1.3259  0.2058
  934MOL0     H23233   6.895   9.541   6.831  0.7472 -0.1855  0.0591
  934MOL0     H23234   6.899   9.724   6.801 -1.0439  0.6344 -0.1479
  934MOL0     H23235   6.651   9.731   6.811  1.3894  1.8791 -2.4105
  934MOL0     H23236   6.657   9.549   6.812  0.6288 -0.8995 -2.8223
  934MOL0     H23237   6.747   9.735   6.605  4.2433 -0.8649 -2.3377
  934MOL0     H23238   6.768   9.561   6.589 -0.2884 -0.1343 -0.7142
  934MOL0     H23239   6.486   9.670   6.631 -1.3140 -0.0670 -3.1160
  934MOL0     H23240   6.553   9.520   6.556  1.0467 -0.2401  1.0925
  934MOL0     H23241   6.429   9.892   6.505 -4.1370 -3.6343  1.1849
  934MOL0     H23242   6.491  10.067   6.304  3.3050  0.3138 -0.9934
  934MOL0     H23243   6.329   9.991   6.246 -0.0971 -0.4426 -4.3573
  934MOL0     H23244   6.399  10.096   6.059 -1.0248 -1.4675  0.8402
  934MOL0     H23245   6.430   9.934   6.027 -0.7801  2.1029 -2.4668
  934MOL0     H23246   6.658  10.122   6.111  1.1082 -0.8374 -0.3436
  934MOL0     H23247   6.670   9.947   6.097  1.6975  0.7221  1.0302
  934MOL0     H23248   6.586   9.935   5.871  2.4663 -0.2446 -1.8174
  934MOL0     H23249   6.732  10.047   5.889 -0.4165  1.5416  0.4980
  934MOL0     H23250   6.665  10.034   5.659 -1.4460  0.4140  3.5060
  934MOL0     H23251   6.642  10.132   5.409  0.3872 -0.6464  0.5311
  934MOL0     H23252   6.565  10.255   4.989  2.6844 -0.3931  0.9054
  934MOL0     H23253   6.607  10.386   4.798 -0.4008 -2.4837  1.8369
  934MOL0     H23254   6.685  10.536   4.631  0.2488  2.3095 -0.2692
  934MOL0     H23255   6.838  10.515   4.710 -0.3050 -0.6901  0.8070
  934MOL0     H23256   6.707  10.768   4.587  0.3584  1.0814 -0.3019
  934MOL0     H23257   6.793  10.664   4.491  2.6922  1.3537 -0.1813
  934MOL0     H23258   7.002  10.695   4.655  1.2202 -0.0953 -2.8232
  934MOL0     H23259   6.922  10.861   4.676  2.5198  0.6186 -0.2201
  934MOL0     H23260   6.986  10.739   4.408  0.8885  0.8737 -1.5530
  934MOL0     H23261   6.928  10.894   4.441  1.6512  0.6837 -1.5312
  934MOL0     H23262   7.179  10.813   4.590  1.6299 -1.3494 -1.9469
  934MOL0     H23263   7.142  10.978   4.526  1.6422  0.6774  2.0037
  934MOL0     H23264   7.198  10.922   4.300  0.9709  0.3863 -0.4886
  934MOL0     H23265   7.212  10.758   4.331  1.4822  1.1827  0.3663
  934MOL0     H23266   7.395  10.937   4.493 -2.7935  1.2305 -0.6407
  934MOL0     H23267   7.411  10.767   4.457 -0.5376  0.0487  0.9260
  934MOL0     H23268   7.567  10.927   4.329 -0.1469 -3.0316  3.4326
  934MOL0     H23269   7.420  10.970   4.229 -0.1509 -2.2711 -0.6118
  934MOL0     H23270   6.738  10.700   5.087 -0.2253 -0.0437  2.1616
  934MOL0     H23271   6.656  10.589   5.250  1.7423 -0.9784  0.6777
  934MOL0     H23272   6.341  10.397   5.559 -1.5318 -0.2034  2.5616
  934MOL0     H23273   6.380  10.314   5.787 -0.5252 -2.9465  0.4292
  934MOL0     H23274   7.198   9.527   7.523  1.3439  0.3861 -2.0372
  934MOL0     H23275   7.156   9.353   7.711 -1.1173 -0.2024  0.7797
  934MOL0     H23276   6.770   9.138   7.877  0.6748  0.8910  0.3499
  934MOL0     H23277   6.701   9.045   8.103  1.5594 -0.4190 -0.0538
  934MOL0     H23278   6.606   8.831   8.229  0.5114  0.8333 -2.0948
  934MOL0     H23279   6.710   8.923   8.331  0.1715 -0.7611  0.2321
  934MOL0     H23280   6.806   8.725   8.434 -0.7052  3.4147  1.4398
  934MOL0     H23281   6.639   8.722   8.470 -0.0457 -1.2664 -1.2250
  934MOL0     H23282   6.711   8.580   8.218 -0.5592 -1.5648 -1.2563
  934MOL0     H23283   6.582   8.547   8.335  1.1950 -2.3986  2.2610
  934MOL0     H23284   6.866   8.508   8.434 -0.4938  0.7050  3.6229
  934MOL0     H23285   6.705   8.479   8.500 -1.5581  2.7651 -1.4705
  934MOL0     H23286   6.749   8.117   8.291 -0.7058  1.2188 -3.5103
  934MOL0     H23287   6.934   8.694   8.002  0.9421  0.8389  0.8128
  934MOL0     H23288   7.006   8.795   7.797 -0.5746 -0.2497 -0.3274
  935MOL0     O23289   5.831   4.973   4.827 -0.7119  0.9378  0.4251
  935MOL0     C23290   5.717   4.968   4.777  0.4869  0.0228  0.2695
  935MOL0     O23291   5.594   5.023   4.829  0.6552  0.7846  0.5760
  935MOL0     C23292   5.588   5.046   4.970 -0.6600 -0.9229 -0.2022
  935MOL0     C23293   5.494   4.976   5.044  0.1063 -0.3544  0.2637
  935MOL0     C23294   5.495   4.978   5.184 -0.8486 -0.0077 -0.6199
  935MOL0     C23295   5.605   5.040   5.252  0.1565  0.6038 -0.1151
  935MOL0     O23296   5.618   5.049   5.384  0.7469  0.5070 -0.4918
  935MOL0     C23297   5.515   5.123   5.454  0.3344  0.0077  0.5435
  935MOL0     C23298   5.521   5.097   5.609 -0.6291  0.1328  0.1686
  935MOL0     C23299   5.515   4.949   5.649 -0.0020  0.6495 -0.0427
  935MOL0     C23300   5.378   4.879   5.622 -0.0168 -0.1836  0.1743
  935MOL0     C23301   5.374   4.729   5.642 -0.7542 -0.3866  0.5632
  935MOL0     C23302   5.230   4.689   5.633  0.0071  1.0484 -0.9384
  935MOL0     C23303   5.148   4.732   5.505  0.9845  0.6109  0.1020
  935MOL0     C23304   5.003   4.678   5.515 -0.8105 -0.5086  0.0956
  935MOL0     N23305   4.937   4.747   5.618  0.7027 -0.5285  0.3162
  935MOL0     C23306   4.894   4.707   5.747 -0.0434  0.1730 -0.0036
  935MOL0     C23307   4.859   4.814   5.817  0.0793 -0.8183  0.9528
  935MOL0     C23308   4.830   4.794   5.965  0.0551 -0.3701 -0.8617
  935MOL0     C23309   4.689   4.838   6.012 -0.4224 -0.3835 -0.6260
  935MOL0     C23310   4.583   4.760   5.935  0.7130  0.8349 -0.3342
  935MOL0     C23311   4.435   4.803   5.980  0.4909 -0.3058  0.4059
  935MOL0     O23312   4.431   4.772   6.118  0.1788 -0.2035  0.1795
  935MOL0     C23313   4.308   4.794   6.175 -0.1783 -0.9297 -0.2721
  935MOL0     C23314   4.302   4.770   6.310 -0.2878 -0.0469 -1.0459
  935MOL0     C23315   4.184   4.787   6.386 -0.1095  0.6103 -0.9937
  935MOL0     C23316   4.067   4.843   6.322  0.4209  1.1898 -0.1043
  935MOL0     C23317   3.957   4.874   6.401  1.0130 -1.1812  0.4443
  935MOL0     O23318   3.942   4.813   6.526 -0.6394  0.0975  0.1821
  935MOL0     C23319   3.827   4.832   6.607 -0.3272  0.5083 -0.1975
  935MOL0     C23320   3.853   4.845   6.739 -0.5480 -0.3976 -0.3712
  935MOL0     C23321   3.757   4.857   6.838 -0.7342 -0.5999 -0.2290
  935MOL0     C23322   3.623   4.858   6.793  0.0369 -0.5194  0.7741
  935MOL0     O23323   3.533   4.870   6.893 -0.8450 -0.1185 -0.1848
  935MOL0     C23324   3.393   4.880   6.873 -0.0650  0.5084  0.3341
  935MOL0     C23325   3.314   4.835   7.001  0.3011  0.4925 -0.1085
  935MOL0     C23326   3.345   4.931   7.120  0.0991 -0.1612  0.4043
  935MOL0     C23327   3.246   4.907   7.236  0.6407  0.0955  0.4330
  935MOL0     C23328   3.141   5.023   7.232  0.6223  0.1977  0.3355
  935MOL0     C23329   3.037   5.012   7.119  0.5944  0.8023 -0.8765
  935MOL0     C23330   2.927   5.110   7.155  0.6871  0.1772  0.2912
  935MOL0     C23331   2.833   5.110   7.027  0.0330  0.1996 -0.1258
  935MOL0    Cl23332   2.796   4.959   6.941 -0.3256 -0.3035  0.1421
  935MOL0     C23333   3.591   4.850   6.651 -0.5641  0.2005 -0.0522
  935MOL0     C23334   3.694   4.833   6.563  0.4122  0.9721  1.1916
  935MOL0     O23335   3.869   4.951   6.352 -0.4269  0.4526  0.0630
  935MOL0     C23336   4.071   4.872   6.187  0.1132 -0.1438  0.4678
  935MOL0     C23337   4.196   4.850   6.111  0.6069  0.5868  0.1697
  935MOL0     N23338   4.872   4.926   5.731 -0.8128  0.4342  0.3313
  935MOL0     N23339   4.905   4.878   5.619 -0.3864  0.0225  0.4904
  935MOL0     C23340   5.696   5.111   5.176 -0.5945  0.8714  0.4724
  935MOL0     C23341   5.684   5.128   5.037 -0.5586 -0.0799  0.5699
  935MOL0     C23342   5.712   4.892   4.645  0.1808 -0.4447  0.3838
  935MOL0     C23343   5.592   4.844   4.602  0.6487  0.5316  0.7516
  935MOL0     C23344   5.582   4.745   4.500  0.0603 -0.4881  0.5453
  935MOL0     C23345   5.701   4.712   4.424  0.8107 -0.9029 -1.1310
  935MOL0     O23346   5.704   4.628   4.322  1.1995 -0.9358 -0.3794
  935MOL0     C23347   5.583   4.575   4.263 -0.0191  0.2483  0.7216
  935MOL0     C23348   5.628   4.486   4.163  0.0809 -0.0704  0.3760
  935MOL0     C23349   5.709   4.360   4.223  0.4108 -0.4336  0.3408
  935MOL0     C23350   5.759   4.275   4.118  0.2863  0.2774 -0.6700
  935MOL0     C23351   5.657   4.180   4.074 -0.1995 -0.4907  0.2542
  935MOL0     C23352   5.573   4.107   4.037 -0.5348 -0.8655 -0.4059
  935MOL0     C23353   5.822   4.769   4.465 -0.1100 -0.9623 -0.2038
  935MOL0     C23354   5.828   4.864   4.567  0.0707 -0.4323 -1.5233
  935MOL0     H23355   5.412   4.924   4.996  1.1465  0.0981 -2.1592
  935MOL0     H23356   5.419   4.936   5.249 -2.3028 -0.5125 -2.5373
  935MOL0     H23357   5.414   5.102   5.419  0.1173  2.1023 -0.1913
  935MOL0     H23358   5.530   5.230   5.440  1.0517  0.3170  3.0515
  935MOL0     H23359   5.444   5.149   5.666 -1.6365 -2.0291  0.8928
  935MOL0     H23360   5.619   5.136   5.637  0.9278 -0.7406 -3.4087
  935MOL0     H23361   5.537   4.946   5.757 -0.6532 -1.6947  0.0871
  935MOL0     H23362   5.597   4.892   5.607  2.1410  1.4306  2.7317
  935MOL0     H23363   5.303   4.933   5.682  2.0192  0.6966  2.1094
  935MOL0     H23364   5.367   4.882   5.514  0.6136  0.7953  0.1245
  935MOL0     H23365   5.402   4.701   5.744  2.3981 -4.1511 -1.0714
  935MOL0     H23366   5.447   4.686   5.574  1.4005  1.0549  1.8565
  935MOL0     H23367   5.192   4.739   5.722  0.7724  3.0559 -1.6816
  935MOL0     H23368   5.228   4.581   5.649 -0.4829  1.1751 -0.1022
  935MOL0     H23369   5.158   4.840   5.492  2.8890  0.5006  0.3572
  935MOL0     H23370   5.200   4.692   5.417 -1.0249 -0.2138 -0.7723
  935MOL0     H23371   5.002   4.575   5.551 -2.2506 -0.5787 -0.0851
  935MOL0     H23372   4.941   4.674   5.425 -0.0647 -0.4521 -0.4321
  935MOL0     H23373   4.902   4.605   5.784 -0.9153 -0.9994 -2.7545
  935MOL0     H23374   4.912   4.835   6.024 -1.7795 -0.6135  2.0966
  935MOL0     H23375   4.845   4.686   5.977  3.3547  0.1371  0.4063
  935MOL0     H23376   4.688   4.947   6.003 -0.8471 -0.4334 -1.2282
  935MOL0     H23377   4.687   4.815   6.119  2.6854  0.7696 -0.2176
  935MOL0     H23378   4.601   4.761   5.827  2.3756 -3.5464 -0.2941
  935MOL0     H23379   4.589   4.653   5.959  3.1919  0.9392 -0.2801
  935MOL0     H23380   4.368   4.744   5.917 -0.6782  0.4960  0.8698
  935MOL0     H23381   4.414   4.909   5.960 -1.2130 -1.1987 -3.4527
  935MOL0     H23382   4.390   4.744   6.368 -0.2392 -1.3584 -1.6570
  935MOL0     H23383   4.188   4.781   6.494 -0.8162  1.7145 -0.8913
  935MOL0     H23384   3.956   4.850   6.771 -1.1577  2.3695  1.4404
  935MOL0     H23385   3.791   4.850   6.941 -3.7390  2.3638  1.1343
  935MOL0     H23386   3.364   4.812   6.793  0.0335  1.1853 -0.2863
  935MOL0     H23387   3.366   4.982   6.844 -2.5063 -0.2373 -0.2246
  935MOL0     H23388   3.346   4.734   7.026  0.5087 -0.3028 -3.1324
  935MOL0     H23389   3.207   4.833   6.978  0.1197 -3.0413  0.3995
  935MOL0     H23390   3.338   5.033   7.082  0.3882 -0.2760  0.0334
  935MOL0     H23391   3.446   4.907   7.157 -0.5764 -1.8319  1.2827
  935MOL0     H23392   3.202   4.808   7.216  2.1933 -0.2829 -1.4608
  935MOL0     H23393   3.300   4.912   7.331  2.0036  1.0576 -0.3517
  935MOL0     H23394   3.193   5.120   7.232 -2.1847  1.7973  0.7479
  935MOL0     H23395   3.094   5.024   7.331 -1.0001 -0.4248 -0.4025
  935MOL0     H23396   2.996   4.911   7.124 -1.4841  1.6394  0.3187
  935MOL0     H23397   3.073   5.028   7.016 -0.7161  1.4988 -1.2521
  935MOL0     H23398   2.880   5.069   7.244  1.3545  0.0884  0.6069
  935MOL0     H23399   2.970   5.207   7.182  1.9018 -0.1610 -0.3468
  935MOL0     H23400   2.888   5.178   6.961 -0.1915  3.0836  2.4030
  935MOL0     H23401   2.736   5.151   7.056 -0.0544 -0.7708  1.0149
  935MOL0     H23402   3.492   4.849   6.607 -1.3004 -0.9011  1.5444
  935MOL0     H23403   3.674   4.827   6.456 -0.4685  1.2389  1.3348
  935MOL0     H23404   3.986   4.920   6.140  1.1931 -0.0586 -1.4759
  935MOL0     H23405   4.194   4.879   6.006  1.0223  4.6144  1.0806
  935MOL0     H23406   5.769   5.156   5.242  2.9175 -2.9285 -0.3581
  935MOL0     H23407   5.759   5.188   4.987 -0.8132  1.1663  1.6369
  935MOL0     H23408   5.497   4.868   4.650  0.2526  1.8050 -0.5734
  935MOL0     H23409   5.487   4.702   4.471 -0.4058  0.3901  0.7526
  935MOL0     H23410   5.525   4.649   4.207  2.5481  0.4119 -1.9812
  935MOL0     H23411   5.515   4.525   4.333  0.8153 -1.0188  0.6755
  935MOL0     H23412   5.549   4.454   4.095  1.4339 -0.8499 -0.8931
  935MOL0     H23413   5.691   4.532   4.086  2.7519 -4.3233 -0.3315
  935MOL0     H23414   5.640   4.309   4.292  2.1116 -2.0729  0.9059
  935MOL0     H23415   5.790   4.393   4.289 -1.7054  2.0041  1.9518
  935MOL0     H23416   5.786   4.354   4.048 -1.1853  2.8306  1.4520
  935MOL0     H23417   5.845   4.217   4.151 -0.5383 -0.7702 -0.3001
  935MOL0     H23418   5.505   4.053   3.974 -0.5968  1.4615 -2.4616
  935MOL0     H23419   5.905   4.741   4.401 -0.5288 -0.3338 -1.0261
  935MOL0     H23420   5.926   4.891   4.605  0.7112 -3.0774 -1.0604
  936MOL0     O23421   4.926   6.539   1.803 -0.2226  0.0212 -0.2169
  936MOL0     C23422   4.926   6.426   1.851  0.8352  0.2171 -0.1677
  936MOL0     O23423   4.827   6.340   1.865  0.0998 -0.0753  0.7662
  936MOL0     C23424   4.716   6.346   1.781  0.2928  0.0761  0.1038
  936MOL0     C23425   4.591   6.302   1.828 -0.8756 -0.3731 -0.4742
  936MOL0     C23426   4.481   6.298   1.745  0.7521 -0.8143 -0.3046
  936MOL0     C23427   4.497   6.340   1.613 -0.4194  0.1739 -0.5297
  936MOL0     O23428   4.389   6.349   1.527  0.4728  0.5318 -0.1277
  936MOL0     C23429   4.355   6.478   1.481 -0.2934 -0.4090  0.7398
  936MOL0     C23430   4.210   6.490   1.429 -0.1720  0.4845 -0.5621
  936MOL0     C23431   4.175   6.370   1.334  0.0772  0.1424  0.1135
  936MOL0     C23432   4.243   6.397   1.198 -0.4324 -0.4498 -1.0469
  936MOL0     C23433   4.145   6.413   1.080  0.3466  0.0271 -0.2406
  936MOL0     C23434   4.049   6.289   1.053  1.2685  0.1991 -0.1625
  936MOL0     C23435   3.950   6.329   0.941  0.0638  0.4353 -1.1451
  936MOL0     C23436   3.810   6.270   0.979 -0.4682  0.2108 -0.1089
  936MOL0     N23437   3.724   6.349   1.075 -0.2711 -0.4069 -0.0685
  936MOL0     C23438   3.597   6.316   1.101  0.9639  0.0618  0.3127
  936MOL0     C23439   3.548   6.434   1.146  0.1327  0.2879 -0.7963
  936MOL0     C23440   3.406   6.458   1.173  0.3919  0.1158 -0.1170
  936MOL0     C23441   3.383   6.515   1.314 -0.5883  0.1341  0.0561
  936MOL0     C23442   3.230   6.497   1.359 -0.1246 -0.6627  0.7712
  936MOL0     C23443   3.213   6.545   1.499 -0.5153  0.3325 -1.0580
  936MOL0     O23444   3.077   6.565   1.542  0.6657 -0.1858 -0.3649
  936MOL0     C23445   3.047   6.601   1.674 -0.5260  0.5260 -0.4005
  936MOL0     C23446   2.914   6.612   1.709 -0.0572  0.3336 -0.2177
  936MOL0     C23447   2.873   6.640   1.845 -0.6826 -0.0054  1.0679
  936MOL0     C23448   2.969   6.651   1.945  2.1990 -0.4328 -0.1879
  936MOL0     C23449   2.924   6.669   2.087 -0.7645 -0.9101  0.1162
  936MOL0     O23450   2.801   6.685   2.121  0.1345  0.1360 -0.3443
  936MOL0     C23451   2.773   6.674   2.256 -0.3871  1.4455 -0.0068
  936MOL0     C23452   2.757   6.547   2.317  0.3560  0.6004  0.9505
  936MOL0     C23453   2.718   6.536   2.452 -0.1324  1.2030  0.4133
  936MOL0     C23454   2.693   6.647   2.533 -0.0338 -1.3038  0.0302
  936MOL0     O23455   2.671   6.654   2.669  0.2078 -0.0437 -0.4794
  936MOL0     C23456   2.549   6.585   2.707 -0.0542  0.4739 -0.0327
  936MOL0     C23457   2.550   6.563   2.847  0.5309  0.6986 -0.9596
  936MOL0     C23458   2.582   6.700   2.916 -0.7118  0.4624 -0.1589
  936MOL0     C23459   2.574   6.676   3.068  0.0009 -0.7695  0.5443
  936MOL0     C23460   2.543   6.808   3.136  0.1648 -1.1885 -0.3642
  936MOL0     C23461   2.488   6.787   3.277 -0.2632 -0.7922 -0.0707
  936MOL0     C23462   2.458   6.927   3.343  0.2680 -0.4284 -0.2462
  936MOL0     C23463   2.490   6.912   3.485 -0.5024  0.6114 -0.5361
  936MOL0    Cl23464   2.359   6.819   3.545  0.0405 -0.7189 -0.1893
  936MOL0     C23465   2.713   6.777   2.466 -1.3760  0.6661 -0.4201
  936MOL0     C23466   2.761   6.788   2.337 -0.2732 -0.8012  0.1465
  936MOL0     O23467   3.017   6.669   2.165  0.8207 -0.1900 -0.5022
  936MOL0     C23468   3.102   6.647   1.902  0.3287 -0.0463 -0.0587
  936MOL0     C23469   3.142   6.627   1.770 -0.0344 -0.0036  0.0617
  936MOL0     N23470   3.652   6.512   1.173  0.0569 -0.3927 -0.1944
  936MOL0     N23471   3.767   6.471   1.124  1.2012 -0.0115 -0.1379
  936MOL0     C23472   4.617   6.375   1.559  0.9219 -0.2057  0.0196
  936MOL0     C23473   4.730   6.379   1.644 -0.5156  0.1443  0.8610
  936MOL0     C23474   5.058   6.375   1.893  1.2394 -0.6209 -0.6257
  936MOL0     C23475   5.165   6.462   1.922 -0.0538  0.7476  0.2406
  936MOL0     C23476   5.291   6.413   1.941 -0.1839  0.3696 -0.0002
  936MOL0     C23477   5.308   6.270   1.929 -1.7335 -0.8414 -0.3956
  936MOL0     O23478   5.431   6.208   1.940  0.2917 -0.1151 -0.1182
  936MOL0     C23479   5.549   6.288   1.927 -1.4243 -0.5485  0.5146
  936MOL0     C23480   5.681   6.223   1.976 -0.2308  0.2309  0.5387
  936MOL0     C23481   5.739   6.127   1.872  0.9156  0.1530 -0.9194
  936MOL0     C23482   5.883   6.106   1.889 -0.8397 -0.5468 -0.4313
  936MOL0     C23483   5.934   6.071   2.020  0.6596  0.8483 -1.2849
  936MOL0     C23484   5.984   6.043   2.127  0.2766 -0.0551  0.6442
  936MOL0     C23485   5.209   6.189   1.911  0.2170  0.2382  0.6658
  936MOL0     C23486   5.076   6.241   1.903  1.1339 -0.2983  0.5956
  936MOL0     H23487   4.588   6.264   1.930 -0.3148 -3.5127 -1.5322
  936MOL0     H23488   4.380   6.268   1.769  0.5341 -1.8273 -2.2757
  936MOL0     H23489   4.424   6.510   1.402  0.8140 -3.8687  0.1233
  936MOL0     H23490   4.370   6.544   1.567  0.9778  2.3737 -1.4444
  936MOL0     H23491   4.196   6.585   1.377 -0.6758 -0.4874 -2.3208
  936MOL0     H23492   4.142   6.501   1.514  0.9129  1.6073  0.1774
  936MOL0     H23493   4.066   6.381   1.335  0.0492 -0.0606 -0.4095
  936MOL0     H23494   4.201   6.273   1.377 -1.4881 -0.8113 -0.9705
  936MOL0     H23495   4.305   6.487   1.205 -0.4041 -0.4569 -1.1892
  936MOL0     H23496   4.314   6.313   1.192 -2.9396 -3.6215  5.1068
  936MOL0     H23497   4.206   6.425   0.990  0.1806  0.7442 -0.2656
  936MOL0     H23498   4.089   6.505   1.101 -0.0173 -0.3422  0.4499
  936MOL0     H23499   3.986   6.269   1.140  0.3207 -1.3538 -1.1493
  936MOL0     H23500   4.101   6.194   1.033  0.2964 -0.9896  2.4863
  936MOL0     H23501   3.940   6.437   0.926 -0.5890  0.3736 -1.1646
  936MOL0     H23502   3.989   6.293   0.846  2.1574  0.7967 -0.4909
  936MOL0     H23503   3.814   6.167   1.016  2.5769 -0.0605 -0.9523
  936MOL0     H23504   3.753   6.274   0.886  0.7544  1.0735 -0.8500
  936MOL0     H23505   3.538   6.227   1.083  1.1047 -0.1546  0.9260
  936MOL0     H23506   3.351   6.365   1.161  1.0000 -0.4864  1.5153
  936MOL0     H23507   3.364   6.524   1.097  2.2811 -0.3091 -1.6119
  936MOL0     H23508   3.414   6.619   1.317  0.9852 -0.0777 -3.6324
  936MOL0     H23509   3.432   6.448   1.385 -0.0399  0.6030  0.1243
  936MOL0     H23510   3.163   6.552   1.292 -0.2446  1.3758  2.4504
  936MOL0     H23511   3.197   6.393   1.357 -0.8141 -0.4587  1.0418
  936MOL0     H23512   3.254   6.646   1.498 -0.6835  0.3979 -1.5523
  936MOL0     H23513   3.265   6.481   1.572 -1.9647 -0.1086 -0.3829
  936MOL0     H23514   2.832   6.599   1.639 -1.5124  0.2574  1.4339
  936MOL0     H23515   2.767   6.644   1.869 -0.3950 -0.0984  2.4670
  936MOL0     H23516   2.776   6.457   2.260 -4.4227  0.8684 -1.5576
  936MOL0     H23517   2.700   6.440   2.498 -1.9691  1.3292  0.0107
  936MOL0     H23518   2.529   6.492   2.654 -1.2683  0.3834  0.5585
  936MOL0     H23519   2.465   6.651   2.684  0.2379  1.1536  0.7841
  936MOL0     H23520   2.624   6.490   2.881 -0.6397 -0.2074 -0.2958
  936MOL0     H23521   2.453   6.534   2.887  1.4936 -0.3001  0.7817
  936MOL0     H23522   2.507   6.772   2.884 -2.9793 -0.3652  2.8020
  936MOL0     H23523   2.682   6.737   2.892 -0.1894  0.2514  1.5353
  936MOL0     H23524   2.488   6.609   3.077 -0.5201 -0.1098  0.5545
  936MOL0     H23525   2.671   6.639   3.103  0.2902 -0.0547  0.5107
  936MOL0     H23526   2.464   6.855   3.077  1.7290  0.0433 -1.5658
  936MOL0     H23527   2.629   6.875   3.140  0.8780 -2.1318  0.7440
  936MOL0     H23528   2.566   6.736   3.335  0.3067  1.3546  1.1836
  936MOL0     H23529   2.396   6.729   3.265 -2.7273  3.2463 -3.3258
  936MOL0     H23530   2.523   7.005   3.301 -0.8504 -0.1896 -1.5880
  936MOL0     H23531   2.352   6.952   3.344 -0.0093 -1.5147 -0.3473
  936MOL0     H23532   2.489   7.010   3.534 -4.3260 -0.1486  1.3308
  936MOL0     H23533   2.580   6.854   3.509 -1.8624 -0.4810  2.5329
  936MOL0     H23534   2.703   6.862   2.532 -1.8353  1.4029 -1.4041
  936MOL0     H23535   2.797   6.886   2.310 -2.1136 -0.4422 -1.2034
  936MOL0     H23536   3.184   6.662   1.972  0.0762 -2.6203  0.8708
  936MOL0     H23537   3.247   6.643   1.746 -0.1464 -0.5197 -0.8201
  936MOL0     H23538   4.630   6.385   1.452  0.4048 -1.7113 -0.2155
  936MOL0     H23539   4.829   6.403   1.605 -0.4777 -0.2667  0.7002
  936MOL0     H23540   5.148   6.569   1.912 -1.9506  0.5852  1.3386
  936MOL0     H23541   5.374   6.478   1.968 -0.8719  0.7886  1.1681
  936MOL0     H23542   5.551   6.382   1.983  1.4772 -0.3445  0.2272
  936MOL0     H23543   5.555   6.313   1.821  0.4879  1.8203  1.1022
  936MOL0     H23544   5.749   6.307   1.992  0.8413  0.5884 -4.2914
  936MOL0     H23545   5.657   6.169   2.068  1.2321  0.4061  1.0333
  936MOL0     H23546   5.734   6.166   1.770 -0.4018  1.9032 -0.2378
  936MOL0     H23547   5.679   6.036   1.881  2.3657 -0.6862  0.7073
  936MOL0     H23548   5.920   6.038   1.811  1.7033 -0.2215  0.3938
  936MOL0     H23549   5.932   6.202   1.871 -0.3157 -0.7704 -0.2242
  936MOL0     H23550   6.035   6.032   2.221 -0.8487  0.6246  1.3519
  936MOL0     H23551   5.225   6.082   1.914  0.6984  0.3052  0.5151
  936MOL0     H23552   4.991   6.173   1.890 -0.5814  2.0208 -1.1598
  937MOL0     O23553   7.568   3.794   6.278 -0.4843  0.2293 -0.1824
  937MOL0     C23554   7.560   3.908   6.235  0.6685  0.5965 -1.3989
  937MOL0     O23555   7.540   4.014   6.319  0.1998 -0.7472 -0.1705
  937MOL0     C23556   7.513   3.992   6.452 -0.4675  0.2696 -0.2038
  937MOL0     C23557   7.602   3.982   6.551  0.0008  0.9081 -0.7937
  937MOL0     C23558   7.560   3.953   6.682  0.4255  0.6216  0.0618
  937MOL0     C23559   7.434   3.967   6.723 -0.6110  0.9051  0.3184
  937MOL0     O23560   7.410   3.960   6.860  0.1899  0.0313 -0.0627
  937MOL0     C23561   7.280   3.921   6.902  0.1702 -0.0220 -0.9116
  937MOL0     C23562   7.225   4.038   6.987  0.1257  0.9142  0.6373
  937MOL0     C23563   7.112   3.981   7.080  0.5145  0.0893  1.0652
  937MOL0     C23564   7.174   3.918   7.202  0.3187 -0.5013  0.3115
  937MOL0     C23565   7.058   3.883   7.298 -0.1344 -0.0814 -0.1433
  937MOL0     C23566   7.119   3.829   7.427  0.1647  0.9149 -0.6002
  937MOL0     C23567   7.028   3.797   7.541  1.7059 -0.2115  0.2759
  937MOL0     C23568   6.929   3.695   7.507 -0.7935 -0.1149  0.3365
  937MOL0     N23569   6.863   3.644   7.623 -0.2962  0.4447 -0.0119
  937MOL0     C23570   6.917   3.555   7.710 -0.2172  0.9856  0.0582
  937MOL0     C23571   6.822   3.509   7.798  0.0146 -0.9119 -0.3966
  937MOL0     C23572   6.834   3.406   7.903  0.2096 -0.3470 -0.4683
  937MOL0     C23573   6.971   3.388   7.964  0.5655  0.0083 -1.3131
  937MOL0     C23574   6.998   3.266   8.070  0.9416  0.3689 -0.1659
  937MOL0     C23575   7.022   3.134   7.993  0.1345 -1.2986  0.1664
  937MOL0     O23576   6.897   3.102   7.931  0.2747 -0.7704  0.2039
  937MOL0     C23577   6.909   3.011   7.842 -0.0688  1.2481  0.4167
  937MOL0     C23578   6.943   2.879   7.880  0.4714 -0.4881 -0.1673
  937MOL0     C23579   6.963   2.789   7.771  0.4286  0.2823 -0.6035
  937MOL0     C23580   6.930   2.819   7.630  0.9084  0.4593 -0.7949
  937MOL0     C23581   6.941   2.714   7.516  0.2299 -0.5461 -0.1848
  937MOL0     O23582   6.974   2.760   7.391 -0.4501 -0.3799 -0.5297
  937MOL0     C23583   7.022   2.679   7.292 -0.3079 -0.5686  0.6967
  937MOL0     C23584   6.963   2.692   7.171  0.5688 -0.1900 -0.0695
  937MOL0     C23585   6.997   2.615   7.066 -0.2027 -0.0511 -0.8440
  937MOL0     C23586   7.100   2.517   7.083  0.6455 -1.2813  0.0961
  937MOL0     O23587   7.136   2.442   6.977 -0.6629  0.1179  0.7426
  937MOL0     C23588   7.284   2.403   6.977 -0.4002  0.4145 -0.7045
  937MOL0     C23589   7.343   2.417   6.837 -0.1399  1.1422  0.0517
  937MOL0     C23590   7.419   2.541   6.818 -0.3102 -0.8780  0.0869
  937MOL0     C23591   7.435   2.556   6.670 -0.0212 -0.0872  0.5045
  937MOL0     C23592   7.529   2.682   6.635 -0.5311 -0.1725 -0.6414
  937MOL0     C23593   7.564   2.692   6.490 -1.1112  0.6766  0.5481
  937MOL0     C23594   7.644   2.580   6.434  0.6622  0.0663  0.0792
  937MOL0     C23595   7.704   2.600   6.301  0.6598  0.1026  0.4350
  937MOL0    Cl23596   7.714   2.437   6.243  0.4442 -0.5076 -0.0944
  937MOL0     C23597   7.167   2.510   7.209  0.2469 -0.8997 -0.6841
  937MOL0     C23598   7.128   2.593   7.313  0.0431 -0.6765 -0.6190
  937MOL0     O23599   6.946   2.600   7.554  0.4294 -0.1164  0.6378
  937MOL0     C23600   6.887   2.951   7.610  0.9877  0.5483 -0.1073
  937MOL0     C23601   6.882   3.050   7.714 -0.8195  1.0962 -0.7204
  937MOL0     N23602   6.710   3.571   7.759  0.5597 -0.8455 -0.6568
  937MOL0     N23603   6.732   3.661   7.666 -0.0400  0.4739  0.0487
  937MOL0     C23604   7.337   3.994   6.621 -0.0990  1.0134  1.0357
  937MOL0     C23605   7.381   3.996   6.479  0.6831 -0.3734 -0.6805
  937MOL0     C23606   7.575   3.938   6.090  0.4997 -0.4160 -0.0393
  937MOL0     C23607   7.611   3.837   6.001 -0.6830 -0.3598 -0.1707
  937MOL0     C23608   7.603   3.857   5.863 -0.7025  0.0827 -0.2853
  937MOL0     C23609   7.552   3.985   5.806 -0.5168  0.4254  0.2790
  937MOL0     O23610   7.545   4.019   5.675  0.7183 -0.7135 -0.2507
  937MOL0     C23611   7.545   3.914   5.578 -0.2186 -0.2608 -0.1478
  937MOL0     C23612   7.404   3.914   5.500 -0.8146 -0.5609  1.4273
  937MOL0     C23613   7.301   3.828   5.559  0.2060 -0.6990  0.2319
  937MOL0     C23614   7.299   3.691   5.490  0.3463  0.1074 -0.0357
  937MOL0     C23615   7.419   3.613   5.472  0.0679 -1.3535 -0.0255
  937MOL0     C23616   7.523   3.545   5.453 -0.0965 -0.1469  0.2765
  937MOL0     C23617   7.534   4.093   5.900 -0.4640 -0.8179  0.6470
  937MOL0     C23618   7.535   4.066   6.039 -0.1192 -0.3595  0.1310
  937MOL0     H23619   7.709   3.992   6.532  0.2921  0.9415  0.7169
  937MOL0     H23620   7.634   3.936   6.759  0.9679  1.0273 -0.3621
  937MOL0     H23621   7.279   3.831   6.964  2.1149  0.4659 -0.1023
  937MOL0     H23622   7.205   3.910   6.824 -0.4194 -0.1632 -0.3330
  937MOL0     H23623   7.182   4.116   6.922 -1.4258 -0.2589  0.1859
  937MOL0     H23624   7.307   4.070   7.051  0.7388 -0.1717  0.4080
  937MOL0     H23625   7.051   3.906   7.029  1.9421  1.2611 -2.7884
  937MOL0     H23626   7.066   4.078   7.103  1.1304  1.6285 -3.1146
  937MOL0     H23627   7.231   3.827   7.183 -2.0887 -2.2138  0.7902
  937MOL0     H23628   7.232   3.999   7.249 -0.7441 -0.1253  1.0247
  937MOL0     H23629   6.991   3.809   7.252 -1.5026 -0.5230  2.3460
  937MOL0     H23630   6.990   3.965   7.325 -1.2782 -0.3924 -1.8966
  937MOL0     H23631   7.181   3.911   7.466  0.1579  0.4519  0.4236
  937MOL0     H23632   7.170   3.738   7.393 -2.8547 -0.4577 -1.8332
  937MOL0     H23633   7.089   3.754   7.621  4.9837 -0.2064 -2.0407
  937MOL0     H23634   6.975   3.889   7.569  0.4379  0.1093 -2.8187
  937MOL0     H23635   6.986   3.621   7.451 -1.0955  2.0299 -3.1659
  937MOL0     H23636   6.848   3.725   7.439 -1.6896 -3.0016  0.0242
  937MOL0     H23637   7.015   3.511   7.723 -0.7163 -0.4149 -0.6523
  937MOL0     H23638   6.804   3.311   7.859 -2.2125  0.7242 -1.2938
  937MOL0     H23639   6.748   3.422   7.969 -2.2119 -2.9897 -2.6996
  937MOL0     H23640   6.985   3.475   8.029  0.9298 -1.7632  1.1343
  937MOL0     H23641   7.060   3.382   7.901  1.1140  3.0372 -0.9661
  937MOL0     H23642   7.085   3.285   8.134  0.9281  1.1460 -0.3659
  937MOL0     H23643   6.921   3.255   8.147  0.7310  0.7574 -0.3150
  937MOL0     H23644   7.044   3.051   8.061 -1.0361 -0.6383  1.3878
  937MOL0     H23645   7.097   3.144   7.913 -0.5398  1.9097 -0.2324
  937MOL0     H23646   6.966   2.860   7.985 -0.0955  0.5558  0.1612
  937MOL0     H23647   6.982   2.687   7.802 -2.2303 -0.4010 -0.9539
  937MOL0     H23648   6.874   2.754   7.164 -0.6349 -1.6449  1.4536
  937MOL0     H23649   6.959   2.616   6.964  1.1058  1.7826 -1.3641
  937MOL0     H23650   7.285   2.299   7.012  1.3421  0.6819  0.1095
  937MOL0     H23651   7.343   2.470   7.039  0.1563  0.0384 -0.8252
  937MOL0     H23652   7.253   2.430   6.777  0.0551  1.1498 -0.2422
  937MOL0     H23653   7.409   2.334   6.809 -2.6614 -1.3260  1.0121
  937MOL0     H23654   7.517   2.529   6.863 -0.7766  0.3127  1.5128
  937MOL0     H23655   7.353   2.616   6.863  1.0091 -0.2423  1.0001
  937MOL0     H23656   7.477   2.462   6.635  1.1176  0.1493  1.1525
  937MOL0     H23657   7.334   2.573   6.633 -0.7006 -1.9561  1.3982
  937MOL0     H23658   7.624   2.684   6.689 -1.5858  1.4725  1.2950
  937MOL0     H23659   7.479   2.772   6.672 -0.1343 -0.5902  1.0244
  937MOL0     H23660   7.613   2.789   6.480 -0.5912  0.4208  0.5810
  937MOL0     H23661   7.469   2.696   6.436 -0.1350 -0.5905 -1.3883
  937MOL0     H23662   7.723   2.558   6.506  3.1672  2.9960 -1.5199
  937MOL0     H23663   7.566   2.504   6.422 -0.7607  1.7840 -2.6202
  937MOL0     H23664   7.804   2.640   6.319 -0.8891  3.2975  3.1147
  937MOL0     H23665   7.654   2.666   6.228  1.7456  1.1098  0.5656
  937MOL0     H23666   7.246   2.441   7.235  1.2925  0.3786 -0.3489
  937MOL0     H23667   7.175   2.586   7.411  0.6153 -1.0407 -0.9183
  937MOL0     H23668   6.865   2.977   7.507 -0.8588 -2.0022 -0.4613
  937MOL0     H23669   6.857   3.153   7.692  0.0953  1.8093  1.3209
  937MOL0     H23670   7.233   4.007   6.650 -0.7458  3.4301 -1.8167
  937MOL0     H23671   7.302   4.008   6.406 -0.4595  1.4856  0.7757
  937MOL0     H23672   7.653   3.748   6.047 -0.1281 -0.5008 -0.9308
  937MOL0     H23673   7.639   3.776   5.801  4.1659  0.0718  2.1110
  937MOL0     H23674   7.592   3.819   5.603  2.9428  0.5786 -2.3075
  937MOL0     H23675   7.617   3.958   5.508  1.1739 -1.2709  0.5936
  937MOL0     H23676   7.371   4.018   5.496 -0.9830 -0.5674  2.4325
  937MOL0     H23677   7.430   3.890   5.396  1.0406  2.6240  1.0266
  937MOL0     H23678   7.200   3.868   5.548  0.1661 -1.3657 -2.3758
  937MOL0     H23679   7.315   3.822   5.668 -0.8772 -1.9175  0.3364
  937MOL0     H23680   7.233   3.620   5.541 -2.1705  0.9993 -1.8279
  937MOL0     H23681   7.253   3.701   5.391 -0.0718 -0.0091  0.1462
  937MOL0     H23682   7.600   3.479   5.419 -1.6758 -0.6650 -2.6884
  937MOL0     H23683   7.494   4.182   5.853 -1.1138 -1.0708  0.7079
  937MOL0     H23684   7.491   4.149   6.095 -1.3082 -0.7818 -0.1445
  938MOL0     O23685   6.617   3.661   1.989 -0.2609  0.0503 -0.2208
  938MOL0     C23686   6.630   3.594   1.882 -0.1981 -0.4430 -0.9264
  938MOL0     O23687   6.738   3.590   1.803 -0.4915  0.5369  0.0602
  938MOL0     C23688   6.852   3.659   1.848 -0.8975  0.0173  0.5261
  938MOL0     C23689   6.884   3.786   1.796 -0.1129 -0.1382  0.5801
  938MOL0     C23690   7.000   3.851   1.828 -0.9426  0.7294 -0.4544
  938MOL0     C23691   7.091   3.789   1.903 -0.2834 -0.4585 -0.1059
  938MOL0     O23692   7.212   3.839   1.924 -0.0554 -0.1523  0.2821
  938MOL0     C23693   7.269   3.905   1.815  1.1429  0.2117  0.8210
  938MOL0     C23694   7.413   3.942   1.851 -0.0471  0.1262 -0.1540
  938MOL0     C23695   7.509   3.821   1.872 -0.3581 -0.3880  1.2458
  938MOL0     C23696   7.658   3.867   1.891  0.2298  1.2215  0.6297
  938MOL0     C23697   7.741   3.762   1.952 -0.0425 -0.1682 -0.5434
  938MOL0     C23698   7.895   3.794   1.936 -0.3318 -0.1832  0.2300
  938MOL0     C23699   7.963   3.667   1.963 -0.3706 -0.0345  0.2222
  938MOL0     C23700   8.106   3.681   1.906 -0.5649  0.3158 -0.3178
  938MOL0     N23701   8.212   3.708   1.996  0.1916 -0.0036 -0.4725
  938MOL0     C23702   8.191   3.796   2.100 -0.9208  0.4676  0.4027
  938MOL0     C23703   8.323   3.814   2.150  0.3051 -0.0956  0.7116
  938MOL0     C23704   8.367   3.885   2.269  1.1118  0.1936 -0.0289
  938MOL0     C23705   8.453   4.009   2.235 -0.1177  1.0489  1.0069
  938MOL0     C23706   8.596   3.987   2.283  0.1907  0.5375  0.4526
  938MOL0     C23707   8.709   3.988   2.180  0.1753  0.3176  0.4941
  938MOL0     O23708   8.830   3.979   2.256  0.0447  0.7693 -0.6034
  938MOL0     C23709   8.924   4.069   2.213  0.5516 -0.5213  0.5853
  938MOL0     C23710   8.961   4.083   2.078  0.8847 -0.6070 -0.2065
  938MOL0     C23711   9.048   4.182   2.038  0.1948 -0.3847  0.3543
  938MOL0     C23712   9.111   4.263   2.139 -0.2732  0.3778  0.6403
  938MOL0     C23713   9.212   4.358   2.092  0.4291 -0.3033 -0.3910
  938MOL0     O23714   9.232   4.370   1.962 -0.3542  1.0254  0.0029
  938MOL0     C23715   9.331   4.440   1.903 -0.4697 -0.6539 -0.3744
  938MOL0     C23716   9.465   4.461   1.946  0.3977  0.4853 -0.6744
  938MOL0     C23717   9.557   4.539   1.878  0.8280  0.1147 -0.3952
  938MOL0     C23718   9.520   4.598   1.756 -0.2177  0.1803  0.4815
  938MOL0     O23719   9.584   4.693   1.684  0.3450  0.2923  0.1314
  938MOL0     C23720   9.728   4.711   1.709 -0.1114 -0.0062 -0.1128
  938MOL0     C23721   9.744   4.838   1.803 -0.1540  0.5956  0.0009
  938MOL0     C23722   9.894   4.859   1.853  1.0162 -0.4437  0.0876
  938MOL0     C23723   9.996   4.815   1.755 -0.2602 -0.7886  0.2250
  938MOL0     C23724  10.143   4.862   1.782 -0.1813 -0.2389  0.4274
  938MOL0     C23725  10.238   4.856   1.658 -0.7527  0.3126  1.0428
  938MOL0     C23726  10.379   4.899   1.704  0.0366 -0.5893  0.1577
  938MOL0     C23727  10.486   4.931   1.592  0.2963 -0.2892 -0.8664
  938MOL0    Cl23728  10.449   5.076   1.492  0.3783  0.2888  0.1039
  938MOL0     C23729   9.389   4.576   1.712 -0.7264  0.4614  0.5525
  938MOL0     C23730   9.294   4.493   1.780  0.1630  0.3033 -1.1640
  938MOL0     O23731   9.277   4.418   2.176 -0.2776  0.4608 -0.3611
  938MOL0     C23732   9.074   4.256   2.272  0.4120 -0.8965  0.9069
  938MOL0     C23733   8.983   4.160   2.314 -0.7859 -0.3031 -0.8585
  938MOL0     N23734   8.411   3.733   2.079 -0.5793  0.1680  0.6552
  938MOL0     N23735   8.343   3.660   1.993 -0.1382 -0.4296 -0.2439
  938MOL0     C23736   7.064   3.670   1.968 -0.1048 -0.7429  0.0986
  938MOL0     C23737   6.943   3.603   1.938 -0.4543  0.4818  0.3980
  938MOL0     C23738   6.511   3.514   1.843  0.1223  0.3108 -0.6280
  938MOL0     C23739   6.522   3.422   1.745 -0.2088 -0.4617 -1.6032
  938MOL0     C23740   6.411   3.341   1.724 -0.0999  1.1502 -0.0668
  938MOL0     C23741   6.287   3.343   1.802  0.2182 -0.7364 -0.7125
  938MOL0     O23742   6.192   3.259   1.757 -0.3900  0.4329  0.7228
  938MOL0     C23743   6.057   3.280   1.791 -0.1524  0.2813  0.4290
  938MOL0     C23744   5.965   3.345   1.681 -0.2741 -0.0008  0.6207
  938MOL0     C23745   5.965   3.504   1.709  0.6327 -0.7081 -0.1704
  938MOL0     C23746   5.833   3.565   1.745 -0.2855 -0.1982  1.3363
  938MOL0     C23747   5.736   3.527   1.638  0.0913 -0.0507  0.3387
  938MOL0     C23748   5.655   3.489   1.558  0.3452 -0.8861 -0.0604
  938MOL0     C23749   6.276   3.448   1.896 -0.4246  0.1963 -0.1126
  938MOL0     C23750   6.396   3.520   1.923  0.6245 -0.5155 -0.0967
  938MOL0     H23751   6.812   3.840   1.736  1.7289  0.9145 -0.7842
  938MOL0     H23752   7.024   3.945   1.778  3.0856 -1.3675 -3.0496
  938MOL0     H23753   7.218   3.998   1.788 -1.3364 -1.6111 -1.2046
  938MOL0     H23754   7.261   3.833   1.733 -4.3429  0.0579  1.1445
  938MOL0     H23755   7.405   4.006   1.940 -0.3123  0.7029 -0.5897
  938MOL0     H23756   7.439   3.998   1.761 -0.1996 -0.1862 -0.3935
  938MOL0     H23757   7.502   3.753   1.786 -1.3079  0.9629  0.1994
  938MOL0     H23758   7.480   3.778   1.968 -0.8867 -1.5397  0.5781
  938MOL0     H23759   7.703   3.889   1.794 -1.3829  2.6011  0.1285
  938MOL0     H23760   7.670   3.957   1.952  2.1927  2.0983 -0.9391
  938MOL0     H23761   7.708   3.670   1.902  0.1277 -0.3880 -0.2597
  938MOL0     H23762   7.717   3.762   2.059 -0.9402 -2.5671 -0.6726
  938MOL0     H23763   7.924   3.880   1.997 -0.0882  0.2730 -0.5189
  938MOL0     H23764   7.916   3.814   1.831  2.5801 -6.1033 -0.6786
  938MOL0     H23765   7.962   3.643   2.070 -0.2980 -2.5794 -0.2981
  938MOL0     H23766   7.923   3.578   1.914 -0.0988 -0.2684  0.4199
  938MOL0     H23767   8.106   3.753   1.823 -0.9076  0.2226 -0.3986
  938MOL0     H23768   8.135   3.584   1.865 -1.3008 -1.7457  3.6208
  938MOL0     H23769   8.103   3.833   2.150 -0.8886 -0.5739  1.2707
  938MOL0     H23770   8.421   3.814   2.332 -2.1725 -1.3276  1.3342
  938MOL0     H23771   8.284   3.922   2.330  1.2241 -1.8683  1.4920
  938MOL0     H23772   8.406   4.089   2.293 -0.3640  0.7362  1.2467
  938MOL0     H23773   8.457   4.043   2.131  0.1100  0.1588  0.7156
  938MOL0     H23774   8.618   4.080   2.337  0.0202  1.0334 -0.3087
  938MOL0     H23775   8.606   3.902   2.350 -0.4350  1.6107  1.9544
  938MOL0     H23776   8.699   4.073   2.111 -1.8576 -0.6834 -0.5405
  938MOL0     H23777   8.710   3.898   2.118  2.5883  1.0981 -0.7280
  938MOL0     H23778   8.921   4.028   1.993 -1.1687  1.3481 -0.6155
  938MOL0     H23779   9.063   4.201   1.932  1.6515 -1.6830  0.2944
  938MOL0     H23780   9.491   4.433   2.047  0.7081 -0.2803 -0.9608
  938MOL0     H23781   9.659   4.567   1.900  1.8882 -0.5519 -3.8115
  938MOL0     H23782   9.778   4.738   1.616  1.6573 -0.7190  0.5942
  938MOL0     H23783   9.783   4.624   1.745  1.9158  1.1227 -0.3872
  938MOL0     H23784   9.670   4.822   1.882  2.1310  3.4659  3.0019
  938MOL0     H23785   9.719   4.923   1.739  1.6632  1.9404  0.9894
  938MOL0     H23786   9.910   4.802   1.945 -0.2684 -3.0635 -1.1693
  938MOL0     H23787   9.904   4.966   1.870  0.8117 -0.7490  2.4244
  938MOL0     H23788  10.005   4.706   1.756  1.2082 -0.6866  0.3841
  938MOL0     H23789   9.973   4.850   1.653 -3.0074 -3.4334 -0.2266
  938MOL0     H23790  10.183   4.808   1.868 -0.4775 -2.6273 -0.8370
  938MOL0     H23791  10.144   4.970   1.802  3.0808 -0.1434  0.1965
  938MOL0     H23792  10.199   4.917   1.576 -0.7640  0.5285  1.2075
  938MOL0     H23793  10.243   4.753   1.621  1.1839  1.0244 -0.8469
  938MOL0     H23794  10.374   4.982   1.775  0.4988 -0.6833  0.3018
  938MOL0     H23795  10.431   4.819   1.757  1.7582  2.1422  2.9023
  938MOL0     H23796  10.494   4.837   1.536 -1.3657 -1.2144  0.3577
  938MOL0     H23797  10.584   4.948   1.637  1.0581 -1.5864 -1.9477
  938MOL0     H23798   9.352   4.626   1.623 -0.0677  2.2862  1.2455
  938MOL0     H23799   9.192   4.478   1.745 -1.9583 -0.2846  4.3284
  938MOL0     H23800   9.112   4.333   2.339 -1.5644  1.1490 -0.1626
  938MOL0     H23801   8.958   4.139   2.418 -0.1724 -2.9845 -1.1845
  938MOL0     H23802   7.131   3.629   2.043 -0.9391 -0.8781  0.7862
  938MOL0     H23803   6.930   3.507   1.986 -0.6171  0.6931  0.7838
  938MOL0     H23804   6.614   3.412   1.689 -0.0932  1.4662 -1.8241
  938MOL0     H23805   6.427   3.265   1.648  0.2124  0.5790  0.5486
  938MOL0     H23806   6.045   3.325   1.890  1.1006  2.1344 -0.2083
  938MOL0     H23807   6.034   3.174   1.808  0.9185 -0.0186  0.1066
  938MOL0     H23808   5.992   3.312   1.580  0.3717 -1.3740  1.2102
  938MOL0     H23809   5.869   3.307   1.718 -0.6341 -0.8834 -1.1169
  938MOL0     H23810   6.003   3.546   1.616  0.8289 -1.0855 -0.2593
  938MOL0     H23811   6.028   3.509   1.799 -1.1657 -5.8706  1.7697
  938MOL0     H23812   5.809   3.541   1.849 -0.2930  0.0419  1.3901
  938MOL0     H23813   5.844   3.673   1.743 -0.5472 -0.1835  0.3848
  938MOL0     H23814   5.577   3.455   1.492  0.0065 -0.7779  0.2806
  938MOL0     H23815   6.185   3.468   1.950  0.7193  1.6364  1.3687
  938MOL0     H23816   6.393   3.604   1.992  2.1868  1.8672 -2.7356
  939MOL0     O23817   5.067   3.135   0.415  0.4289 -0.9758  0.8755
  939MOL0     C23818   5.042   3.232   0.342 -0.1047 -0.3057 -0.2874
  939MOL0     O23819   4.947   3.333   0.372 -0.1521 -0.3985 -0.1663
  939MOL0     C23820   4.880   3.346   0.488  0.9548  1.1008 -0.2925
  939MOL0     C23821   4.909   3.295   0.618 -0.0452 -0.6530 -0.7274
  939MOL0     C23822   4.817   3.295   0.725 -0.2130 -0.2174  0.4977
  939MOL0     C23823   4.698   3.368   0.715  0.1729 -0.6102 -0.2360
  939MOL0     O23824   4.600   3.349   0.814 -0.5774 -0.2433 -1.6475
  939MOL0     C23825   4.468   3.313   0.768  0.3499 -0.1340  0.3854
  939MOL0     C23826   4.402   3.226   0.875  0.3983  0.0448  0.1145
  939MOL0     C23827   4.256   3.186   0.837 -0.2666  0.3731 -0.2710
  939MOL0     C23828   4.258   3.073   0.725  0.5015  0.3616 -1.0422
  939MOL0     C23829   4.121   3.000   0.725  0.3211  0.1991 -0.4080
  939MOL0     C23830   4.007   3.080   0.677  0.3500  0.3921  0.9564
  939MOL0     C23831   3.881   2.995   0.670 -0.7532 -0.4939 -0.1340
  939MOL0     C23832   3.766   3.048   0.581 -0.1547  0.1988  0.0977
  939MOL0     N23833   3.637   2.986   0.604 -0.0318  0.5020 -0.5298
  939MOL0     C23834   3.609   2.877   0.683  0.4418  0.3444 -0.9142
  939MOL0     C23835   3.471   2.871   0.701  0.6389  0.3858 -0.0135
  939MOL0     C23836   3.399   2.774   0.793 -0.0804 -0.1047 -0.0789
  939MOL0     C23837   3.413   2.631   0.736 -0.4246 -0.1064 -0.2369
  939MOL0     C23838   3.298   2.605   0.634  0.3336  0.4901 -0.4971
  939MOL0     C23839   3.320   2.476   0.557  0.6814  0.1397  0.5680
  939MOL0     O23840   3.208   2.383   0.524 -0.3915 -0.2675 -0.3061
  939MOL0     C23841   3.251   2.271   0.453  1.4353 -0.5116  0.3727
  939MOL0     C23842   3.357   2.255   0.367 -0.8948 -0.8838 -1.1963
  939MOL0     C23843   3.371   2.140   0.291 -0.5052  0.4569 -0.3712
  939MOL0     C23844   3.283   2.031   0.297 -0.1447 -0.2620 -0.9045
  939MOL0     C23845   3.295   1.900   0.222 -0.7859 -0.4647  0.3246
  939MOL0     O23846   3.198   1.804   0.232  0.5427 -0.4173  0.3945
  939MOL0     C23847   3.223   1.690   0.169 -0.2674  0.3365  0.5754
  939MOL0     C23848   3.137   1.657   0.066  0.0542 -0.2212 -0.1484
  939MOL0     C23849   3.151   1.532   0.001 -0.1873  1.4144 -0.9598
  939MOL0     C23850   3.246   1.434   0.034  0.4928  0.1716 -0.5152
  939MOL0     O23851   3.236   1.306  -0.021 -0.5031  1.2316  0.6754
  939MOL0     C23852   3.336   1.201   0.021 -0.0346 -0.0945  0.4617
  939MOL0     C23853   3.320   1.066  -0.037 -1.0906  0.3415  0.3242
  939MOL0     C23854   3.176   1.001  -0.027 -0.1850 -0.4260  0.1466
  939MOL0     C23855   3.178   0.847  -0.041  0.3047  0.0920  0.6581
  939MOL0     C23856   3.028   0.798  -0.021  0.1611  0.3971 -0.0359
  939MOL0     C23857   3.035   0.652   0.015  0.9594  1.0145  1.3552
  939MOL0     C23858   2.901   0.571   0.017 -0.7469 -0.7359 -0.0639
  939MOL0     C23859   2.913   0.425   0.073  0.3727  1.1171 -0.2574
  939MOL0    Cl23860   2.750   0.352   0.079 -0.0359  0.2977  0.0647
  939MOL0     C23861   3.333   1.469   0.146  0.9367  0.4095  0.6080
  939MOL0     C23862   3.324   1.594   0.209  1.1590 -0.6778  0.0102
  939MOL0     O23863   3.395   1.891   0.147 -0.2753 -0.1693  0.5559
  939MOL0     C23864   3.175   2.050   0.385  0.3378 -0.2448  0.5397
  939MOL0     C23865   3.158   2.166   0.459 -0.3314  0.4048 -0.2746
  939MOL0     N23866   3.420   2.978   0.635  0.1050 -0.0250 -0.2029
  939MOL0     N23867   3.516   3.055   0.591  0.6283 -0.0937  0.5593
  939MOL0     C23868   4.666   3.426   0.593  0.0159 -0.2584 -0.4845
  939MOL0     C23869   4.756   3.417   0.484 -0.2775  0.6184  0.4019
  939MOL0     C23870   5.109   3.235   0.204  0.2430  0.7458 -0.4652
  939MOL0     C23871   5.091   3.344   0.124 -0.0847 -0.8674 -1.1553
  939MOL0     C23872   5.145   3.344  -0.005 -0.2074 -1.3768 -0.1158
  939MOL0     C23873   5.217   3.243  -0.061  0.1228 -0.2173  0.2819
  939MOL0     O23874   5.278   3.232  -0.186  0.0042 -0.2925  0.1992
  939MOL0     C23875   5.331   3.355  -0.249 -0.4477  0.1907 -0.8114
  939MOL0     C23876   5.477   3.396  -0.205  0.1229 -0.0441  0.4481
  939MOL0     C23877   5.499   3.464  -0.067  0.9641  0.6284 -0.0104
  939MOL0     C23878   5.569   3.376   0.041  0.3045  0.8454  1.0994
  939MOL0     C23879   5.685   3.308  -0.002  0.3225 -0.4600 -1.1702
  939MOL0     C23880   5.795   3.256  -0.025  0.6019 -0.4065  0.3950
  939MOL0     C23881   5.228   3.132   0.020  0.5012  0.1112 -0.3372
  939MOL0     C23882   5.174   3.122   0.151 -0.4513 -0.4441  0.3402
  939MOL0     H23883   5.002   3.241   0.629  0.2371 -0.6651 -2.7219
  939MOL0     H23884   4.851   3.249   0.817 -0.5086 -0.7441  0.3505
  939MOL0     H23885   4.469   3.253   0.676 -1.2702  3.2082 -2.0323
  939MOL0     H23886   4.409   3.406   0.764  1.4487  0.5839  0.6216
  939MOL0     H23887   4.399   3.282   0.968  2.4478 -3.9897  2.9251
  939MOL0     H23888   4.464   3.140   0.904 -0.3225  0.5840  3.7669
  939MOL0     H23889   4.201   3.266   0.788 -0.2966  0.2250 -0.4790
  939MOL0     H23890   4.209   3.141   0.925  0.3745 -0.8802 -0.5409
  939MOL0     H23891   4.283   3.119   0.629  0.5606  1.5950 -0.4503
  939MOL0     H23892   4.342   3.004   0.744 -1.3431 -1.3701  1.4565
  939MOL0     H23893   4.093   2.960   0.822 -0.7564  0.5800 -0.5477
  939MOL0     H23894   4.139   2.911   0.664 -0.8135 -0.4185  0.1286
  939MOL0     H23895   4.025   3.126   0.580 -0.9945  3.6157  2.0829
  939MOL0     H23896   4.000   3.169   0.742  1.8995  0.3019  1.2901
  939MOL0     H23897   3.916   2.895   0.641 -0.0689 -0.6302  1.1176
  939MOL0     H23898   3.841   2.980   0.770  1.4552 -0.3791  0.8184
  939MOL0     H23899   3.778   3.039   0.473  0.7116  0.8811  0.1283
  939MOL0     H23900   3.766   3.154   0.605 -0.5222  0.7494 -2.1645
  939MOL0     H23901   3.674   2.817   0.746  0.5903  0.5377 -0.8818
  939MOL0     H23902   3.291   2.792   0.801  0.0328  1.3338 -1.3206
  939MOL0     H23903   3.428   2.790   0.897  1.7608  0.4881 -0.6350
  939MOL0     H23904   3.404   2.564   0.822 -0.8009 -2.5735 -2.0905
  939MOL0     H23905   3.512   2.614   0.691 -1.5908 -0.4436 -2.8594
  939MOL0     H23906   3.204   2.606   0.690  1.8213 -2.2492  2.3961
  939MOL0     H23907   3.301   2.688   0.563  1.0840  0.0845 -0.9550
  939MOL0     H23908   3.387   2.412   0.616  2.0273  2.6702  1.9350
  939MOL0     H23909   3.375   2.498   0.465  1.9782 -0.9408  1.0497
  939MOL0     H23910   3.417   2.339   0.334 -0.6801 -0.5545  0.0100
  939MOL0     H23911   3.459   2.143   0.227 -1.6093  0.9385 -1.9465
  939MOL0     H23912   3.059   1.730   0.051  1.7997  2.1953  1.7330
  939MOL0     H23913   3.071   1.488  -0.058 -1.4854  2.5138 -0.0782
  939MOL0     H23914   3.335   1.186   0.129  3.8143  0.9474  0.8049
  939MOL0     H23915   3.437   1.233  -0.007 -0.4889 -0.6716 -2.0773
  939MOL0     H23916   3.390   0.994   0.008 -0.7953  0.2877 -0.2148
  939MOL0     H23917   3.344   1.084  -0.142 -2.7390  2.3094  0.2398
  939MOL0     H23918   3.106   1.043  -0.100 -1.0284  1.9376  2.1957
  939MOL0     H23919   3.127   1.027   0.067 -1.4045 -2.3137  0.0994
  939MOL0     H23920   3.201   0.821  -0.144 -2.5325  1.1410 -0.3398
  939MOL0     H23921   3.241   0.809   0.040  1.1193  0.2142  0.0933
  939MOL0     H23922   2.976   0.814  -0.116  0.9106 -1.3115 -0.7921
  939MOL0     H23923   2.969   0.850   0.055  1.5944 -0.5494  1.8106
  939MOL0     H23924   3.081   0.648   0.114  2.5178 -0.0204  0.6265
  939MOL0     H23925   3.105   0.600  -0.051 -0.0298 -2.1315  2.5893
  939MOL0     H23926   2.828   0.629   0.074 -0.6433  0.0992 -0.7687
  939MOL0     H23927   2.871   0.567  -0.088  1.5091  0.7020 -0.8372
  939MOL0     H23928   2.950   0.421   0.176 -3.0093 -3.1105  1.1041
  939MOL0     H23929   2.988   0.358   0.030 -0.8501  1.0306 -2.3803
  939MOL0     H23930   3.394   1.386   0.182 -1.2275 -2.1807 -1.2423
  939MOL0     H23931   3.383   1.620   0.297 -0.2308 -2.0689  1.4333
  939MOL0     H23932   3.096   1.976   0.397  0.0431  0.2575  1.8910
  939MOL0     H23933   3.064   2.183   0.508  0.6636  0.7093  1.6131
  939MOL0     H23934   4.570   3.474   0.580 -1.6344 -2.5260  2.3776
  939MOL0     H23935   4.718   3.449   0.388  0.1848 -2.0701 -0.7518
  939MOL0     H23936   5.026   3.427   0.149  0.3891 -0.8662  0.1619
  939MOL0     H23937   5.121   3.428  -0.069  0.3949 -2.5259 -1.9395
  939MOL0     H23938   5.257   3.435  -0.242 -2.0804 -0.9043 -3.8507
  939MOL0     H23939   5.330   3.342  -0.358 -4.3699 -3.8320 -0.5897
  939MOL0     H23940   5.534   3.302  -0.211  3.5538  1.8415  0.8763
  939MOL0     H23941   5.520   3.466  -0.276  0.7541 -0.9219 -0.0612
  939MOL0     H23942   5.397   3.495  -0.041 -0.7903  0.9782 -5.9344
  939MOL0     H23943   5.561   3.552  -0.087 -0.4038  1.1872 -2.2395
  939MOL0     H23944   5.609   3.446   0.116  2.5288 -0.2617  1.0353
  939MOL0     H23945   5.499   3.298   0.073  0.6465 -0.5032 -1.2285
  939MOL0     H23946   5.881   3.193  -0.038 -2.3227 -4.8203  0.3548
  939MOL0     H23947   5.285   3.054  -0.028 -1.6078 -1.5547 -0.2821
  939MOL0     H23948   5.187   3.026   0.200 -0.4127 -1.6466 -1.9039
  940MOL0     O23949   3.740   1.312   3.633 -0.1155  0.2609 -0.2023
  940MOL0     C23950   3.787   1.404   3.568  0.8059  0.2425 -0.0829
  940MOL0     O23951   3.905   1.465   3.579  0.7113 -0.9219 -0.0001
  940MOL0     C23952   3.994   1.401   3.662  1.3365  0.1088 -0.4754
  940MOL0     C23953   4.105   1.328   3.620 -0.2786  0.2086  0.5333
  940MOL0     C23954   4.190   1.285   3.715 -0.0945  0.2328  0.1741
  940MOL0     C23955   4.180   1.312   3.853  0.4424 -0.9252 -0.2615
  940MOL0     O23956   4.285   1.261   3.932 -0.2264  0.1940 -0.2684
  940MOL0     C23957   4.251   1.228   4.070  0.0887  0.3207  1.0493
  940MOL0     C23958   4.310   1.321   4.166 -0.5130  0.0867  1.0760
  940MOL0     C23959   4.461   1.364   4.152 -0.6249  0.6097  0.0769
  940MOL0     C23960   4.495   1.438   4.286  0.8626 -0.2440 -0.6101
  940MOL0     C23961   4.633   1.508   4.276  1.9054  0.6005 -0.4628
  940MOL0     C23962   4.683   1.559   4.410  0.5485 -0.5228 -1.4049
  940MOL0     C23963   4.702   1.439   4.508  0.4345  0.2094 -0.2107
  940MOL0     C23964   4.831   1.458   4.602 -0.0070  0.1642 -0.5204
  940MOL0     N23965   4.810   1.571   4.697 -0.2404  0.1657 -0.2248
  940MOL0     C23966   4.730   1.562   4.809 -0.1025  0.1768 -0.4254
  940MOL0     C23967   4.758   1.672   4.885  0.4938 -0.1201 -0.1698
  940MOL0     C23968   4.682   1.693   5.015  0.1904 -0.1240 -1.2653
  940MOL0     C23969   4.644   1.837   5.020 -0.5205 -0.2688 -0.6690
  940MOL0     C23970   4.523   1.876   4.940  0.2043  0.0258 -0.5490
  940MOL0     C23971   4.469   2.020   4.978  0.2264  0.0628 -0.3468
  940MOL0     O23972   4.415   2.010   5.113  0.2289 -0.3778 -0.0799
  940MOL0     C23973   4.427   2.123   5.194 -0.7148 -0.0048  0.3347
  940MOL0     C23974   4.379   2.253   5.159 -1.0182 -0.1851 -0.5616
  940MOL0     C23975   4.396   2.364   5.241  0.2359 -0.3698  0.5142
  940MOL0     C23976   4.435   2.338   5.377 -0.1190  0.2623 -0.7268
  940MOL0     C23977   4.442   2.449   5.478  0.4021 -0.3978  0.3532
  940MOL0     O23978   4.472   2.427   5.611  0.3394 -0.3647 -0.0485
  940MOL0     C23979   4.477   2.536   5.707  0.6259  1.6341 -0.0466
  940MOL0     C23980   4.498   2.671   5.684  0.1348  0.2406 -0.1309
  940MOL0     C23981   4.511   2.754   5.795 -0.1673 -0.0779 -0.8927
  940MOL0     C23982   4.499   2.714   5.932 -0.6372 -0.6227  0.4158
  940MOL0     O23983   4.499   2.809   6.034  0.2630  0.0644 -0.1131
  940MOL0     C23984   4.497   2.754   6.176 -0.5399 -0.2983 -0.0592
  940MOL0     C23985   4.504   2.876   6.268  0.3211  0.5021 -0.7704
  940MOL0     C23986   4.517   2.831   6.420 -0.0558  0.7026  0.4433
  940MOL0     C23987   4.529   2.944   6.511 -0.1186 -0.2498 -1.6751
  940MOL0     C23988   4.562   2.893   6.656  0.0062  0.8215  0.1660
  940MOL0     C23989   4.534   3.005   6.750  0.1819  0.1893 -0.0430
  940MOL0     C23990   4.569   2.964   6.893  1.1681  0.5099  0.4134
  940MOL0     C23991   4.629   3.080   6.980 -1.1122 -1.2978 -0.2951
  940MOL0    Cl23992   4.739   3.013   7.103 -0.1223 -0.1822  0.4720
  940MOL0     C23993   4.470   2.576   5.953  0.7088  0.1850  0.7491
  940MOL0     C23994   4.459   2.494   5.839  0.3462  0.5621 -0.1073
  940MOL0     O23995   4.399   2.562   5.449 -0.3355  0.5898  0.3886
  940MOL0     C23996   4.474   2.201   5.420  0.0824 -0.0376  0.6476
  940MOL0     C23997   4.469   2.101   5.320 -0.6706 -0.1290 -0.2651
  940MOL0     N23998   4.861   1.739   4.830 -1.2674 -1.2959 -0.2986
  940MOL0     N23999   4.888   1.683   4.717 -0.1384  0.5581  0.3774
  940MOL0     C24000   4.075   1.402   3.902  0.5065  0.7024 -0.1308
  940MOL0     C24001   3.987   1.435   3.798 -0.0353  0.5274 -0.5345
  940MOL0     C24002   3.682   1.464   3.475  0.2310  1.0591 -0.0563
  940MOL0     C24003   3.706   1.583   3.417 -1.6242 -0.5219  0.3845
  940MOL0     C24004   3.613   1.651   3.336 -0.7588  0.1578 -0.2095
  940MOL0     C24005   3.496   1.587   3.302  0.3091 -0.2320 -0.2991
  940MOL0     O24006   3.418   1.655   3.212  0.4797 -0.5200 -0.0122
  940MOL0     C24007   3.299   1.592   3.152 -0.9070 -0.1443 -0.5850
  940MOL0     C24008   3.178   1.613   3.230 -0.6841  0.3334 -0.0578
  940MOL0     C24009   3.111   1.749   3.203  0.0886 -0.8355 -0.2145
  940MOL0     C24010   3.015   1.785   3.311 -1.0354  1.0769 -0.9451
  940MOL0     C24011   2.946   1.895   3.255 -0.5613 -0.4829 -0.8563
  940MOL0     C24012   2.894   1.994   3.217  0.1194 -0.3621  0.0244
  940MOL0     C24013   3.471   1.458   3.360  0.2262 -0.2110  0.3013
  940MOL0     C24014   3.565   1.395   3.439 -0.0261  0.1208  0.4140
  940MOL0     H24015   4.115   1.291   3.518 -0.8016  2.2764 -0.3259
  940MOL0     H24016   4.272   1.227   3.672  0.1598  0.9774 -0.3696
  940MOL0     H24017   4.297   1.131   4.090 -0.3242 -0.3347 -0.9230
  940MOL0     H24018   4.144   1.215   4.088 -0.0575 -0.6464 -0.3025
  940MOL0     H24019   4.300   1.272   4.264 -0.5593 -1.6299  0.2413
  940MOL0     H24020   4.251   1.414   4.167  0.5131  0.7901 -0.1980
  940MOL0     H24021   4.486   1.427   4.066 -1.6614 -0.8911 -1.3812
  940MOL0     H24022   4.526   1.277   4.141 -0.7115  0.3917  1.1541
  940MOL0     H24023   4.413   1.503   4.317 -0.9692 -1.2132 -3.1209
  940MOL0     H24024   4.499   1.363   4.366  4.0257 -0.8123 -1.1729
  940MOL0     H24025   4.631   1.596   4.211 -0.1500  1.1227  0.2410
  940MOL0     H24026   4.710   1.437   4.242  4.5307  1.2024  3.5487
  940MOL0     H24027   4.627   1.644   4.450  1.9353  1.0568 -2.6369
  940MOL0     H24028   4.778   1.607   4.386 -1.0965  3.8971 -0.1088
  940MOL0     H24029   4.602   1.429   4.550 -1.0207 -2.3102 -3.8262
  940MOL0     H24030   4.733   1.357   4.444 -0.0718  0.3846 -0.6810
  940MOL0     H24031   4.914   1.485   4.535  0.6114 -1.2894 -0.3629
  940MOL0     H24032   4.854   1.363   4.650 -1.6101 -0.9940 -1.8942
  940MOL0     H24033   4.650   1.490   4.826  0.3595 -0.1326  0.5247
  940MOL0     H24034   4.744   1.666   5.100 -0.7201  0.2111 -0.4824
  940MOL0     H24035   4.591   1.632   5.021 -2.6672  3.8853  0.3577
  940MOL0     H24036   4.730   1.897   4.991  0.9347 -2.1120 -0.3933
  940MOL0     H24037   4.630   1.850   5.128  4.5217  1.7940 -0.0285
  940MOL0     H24038   4.533   1.877   4.831  1.0802 -0.9422 -0.4916
  940MOL0     H24039   4.445   1.802   4.959  0.1856  0.3992  0.9261
  940MOL0     H24040   4.388   2.043   4.908 -1.8548  2.3706  2.5765
  940MOL0     H24041   4.555   2.087   4.973 -0.0026  0.4974  1.0354
  940MOL0     H24042   4.337   2.267   5.061 -0.5906  3.2723 -0.3512
  940MOL0     H24043   4.364   2.462   5.206 -0.8288  0.8796  4.4808
  940MOL0     H24044   4.522   2.726   5.594  0.7829  1.9544  1.0395
  940MOL0     H24045   4.528   2.859   5.774 -0.8790  0.2673  0.1714
  940MOL0     H24046   4.573   2.676   6.191  1.9705  1.4941 -2.4468
  940MOL0     H24047   4.407   2.695   6.196 -0.1867 -1.7760 -2.4751
  940MOL0     H24048   4.417   2.940   6.250  0.5314  1.3218  0.8479
  940MOL0     H24049   4.599   2.928   6.252 -1.2457  4.0909  0.2995
  940MOL0     H24050   4.612   2.777   6.430  0.0175  1.0373  1.9095
  940MOL0     H24051   4.426   2.775   6.440 -0.4176  1.5633  1.3237
  940MOL0     H24052   4.614   3.004   6.476  0.2848  0.2467  0.0539
  940MOL0     H24053   4.439   3.006   6.514  1.1551  1.6797 -1.6365
  940MOL0     H24054   4.666   2.860   6.664 -0.0531  1.0295  2.3659
  940MOL0     H24055   4.497   2.815   6.697 -0.3942  2.2006  2.3450
  940MOL0     H24056   4.427   3.028   6.752 -0.1348 -1.0597 -1.1037
  940MOL0     H24057   4.594   3.088   6.713  0.2571  0.4189  0.5863
  940MOL0     H24058   4.481   2.916   6.937  1.7424 -0.6234  0.3695
  940MOL0     H24059   4.650   2.890   6.893  1.1652  0.5069  0.4311
  940MOL0     H24060   4.542   3.131   7.020  0.9801  3.1871 -0.8105
  940MOL0     H24061   4.692   3.145   6.919  1.1347 -0.6947  2.4553
  940MOL0     H24062   4.464   2.527   6.050 -1.8985  0.1142  0.6038
  940MOL0     H24063   4.439   2.390   5.862  0.0630  1.0739  2.2106
  940MOL0     H24064   4.516   2.199   5.521 -0.9464  0.6115  1.1006
  940MOL0     H24065   4.512   2.006   5.352 -1.7506  0.0326  1.7987
  940MOL0     H24066   4.057   1.432   4.005  0.2300  2.7992 -0.7463
  940MOL0     H24067   3.899   1.495   3.822  1.9746  2.9762  1.2389
  940MOL0     H24068   3.796   1.639   3.438 -3.0581  2.6873 -1.2726
  940MOL0     H24069   3.646   1.750   3.307 -0.0309  0.1840  0.6683
  940MOL0     H24070   3.320   1.485   3.145  2.0286  0.3978 -1.3697
  940MOL0     H24071   3.284   1.631   3.051  1.7462 -4.7566 -3.1135
  940MOL0     H24072   3.104   1.542   3.190 -2.8953  3.1907 -1.4338
  940MOL0     H24073   3.188   1.597   3.337  2.4911 -1.3963 -0.4948
  940MOL0     H24074   3.068   1.739   3.103  0.0058 -0.6680 -0.1951
  940MOL0     H24075   3.184   1.828   3.184  0.3980 -1.4030 -1.5657
  940MOL0     H24076   2.943   1.703   3.322 -0.4549  0.4105 -1.9450
  940MOL0     H24077   3.062   1.810   3.406 -1.4207 -0.8520 -0.2037
  940MOL0     H24078   2.841   2.084   3.196 -3.2859 -1.4147  2.9366
  940MOL0     H24079   3.378   1.404   3.345  0.3230  0.2058 -2.2273
  940MOL0     H24080   3.543   1.300   3.487  0.9491 -1.5441 -2.1842
  941MOL0     O24081   7.592   7.349   4.749  0.5506  0.1297  0.3233
  941MOL0     C24082   7.526   7.394   4.654 -0.4301  0.0781 -0.0357
  941MOL0     O24083   7.456   7.316   4.568  0.7460 -0.3452 -0.6986
  941MOL0     C24084   7.392   7.201   4.610  0.0439  0.1069 -0.3798
  941MOL0     C24085   7.285   7.164   4.529  0.0908 -0.0014  0.3661
  941MOL0     C24086   7.203   7.058   4.557 -0.6606  0.2055 -0.7558
  941MOL0     C24087   7.243   6.971   4.660  0.0441  0.1829 -0.3175
  941MOL0     O24088   7.176   6.851   4.682 -0.4028 -0.4292  0.4290
  941MOL0     C24089   7.029   6.872   4.685 -1.0315  0.7695 -0.0107
  941MOL0     C24090   6.975   6.749   4.767  0.1535 -0.3743  0.0955
  941MOL0     C24091   7.012   6.617   4.704  0.0814  0.2097 -0.0492
  941MOL0     C24092   6.925   6.508   4.746 -1.1212 -0.4155  0.1951
  941MOL0     C24093   6.941   6.375   4.685  0.3880 -0.2910  0.5808
  941MOL0     C24094   6.841   6.273   4.745  0.0535 -0.4978  0.4445
  941MOL0     C24095   6.804   6.155   4.654  0.2492 -0.4162 -0.3279
  941MOL0     C24096   6.912   6.078   4.573 -0.0887 -0.5834  0.1308
  941MOL0     N24097   6.855   6.005   4.460 -0.3058  0.5525  0.3512
  941MOL0     C24098   6.846   5.867   4.459  0.4435 -0.5025  0.3011
  941MOL0     C24099   6.789   5.836   4.338 -0.0441 -0.7035 -0.5337
  941MOL0     C24100   6.740   5.701   4.288 -0.6776  0.1597 -0.2082
  941MOL0     C24101   6.596   5.683   4.332  0.5827  0.5519 -1.3934
  941MOL0     C24102   6.526   5.553   4.280 -0.1238  0.3831  0.0902
  941MOL0     C24103   6.380   5.587   4.308 -0.2159  0.1240  0.0629
  941MOL0     O24104   6.360   5.580   4.442 -0.2777 -0.2101  0.3478
  941MOL0     C24105   6.233   5.615   4.490 -1.6097 -0.8364 -0.8516
  941MOL0     C24106   6.114   5.644   4.413 -0.2374  0.0317  0.1379
  941MOL0     C24107   5.998   5.688   4.480 -1.0222  0.1116  0.2270
  941MOL0     C24108   5.999   5.703   4.623  1.0347 -0.0799 -0.2835
  941MOL0     C24109   5.870   5.731   4.689  0.1151 -0.0475 -0.0940
  941MOL0     O24110   5.763   5.765   4.611  0.5766 -0.4374 -0.3702
  941MOL0     C24111   5.646   5.807   4.678  1.3091 -0.0529  0.0383
  941MOL0     C24112   5.592   5.932   4.640 -0.1890  0.4734 -0.0450
  941MOL0     C24113   5.492   5.994   4.706 -0.1440  0.0390 -0.1181
  941MOL0     C24114   5.408   5.923   4.797  0.0443  1.3803  0.2489
  941MOL0     O24115   5.298   5.967   4.867  0.2355  0.6972  1.1427
  941MOL0     C24116   5.264   6.100   4.828  0.5176  0.0652  0.6649
  941MOL0     C24117   5.137   6.141   4.896  0.2821 -0.2637  0.6785
  941MOL0     C24118   5.073   6.260   4.814  1.0210 -0.1472  0.2684
  941MOL0     C24119   4.953   6.329   4.878 -0.0901 -0.0592  1.0431
  941MOL0     C24120   4.918   6.466   4.814 -0.0587  0.1085 -0.4965
  941MOL0     C24121   4.774   6.528   4.851 -0.0924  0.0260  0.1790
  941MOL0     C24122   4.750   6.546   5.006  0.6482  1.0529  1.4490
  941MOL0     C24123   4.864   6.627   5.066 -0.1268  0.1261  0.4513
  941MOL0    Cl24124   4.835   6.661   5.244  0.5610 -0.1179 -0.4514
  941MOL0     C24125   5.448   5.796   4.829 -1.0772  0.7160 -0.8128
  941MOL0     C24126   5.570   5.736   4.778  0.6613  0.0511 -1.3085
  941MOL0     O24127   5.872   5.716   4.810  0.0254  0.7047  0.0970
  941MOL0     C24128   6.116   5.682   4.698  0.6888  0.5524 -0.3290
  941MOL0     C24129   6.228   5.636   4.633  0.1107  0.1011 -0.2208
  941MOL0     N24130   6.776   5.957   4.272 -0.4395 -0.3655 -0.5459
  941MOL0     N24131   6.806   6.059   4.350  0.2878 -0.3143 -0.0366
  941MOL0     C24132   7.339   7.013   4.753  0.6015  0.5660 -0.9113
  941MOL0     C24133   7.420   7.127   4.725 -0.6698 -0.6500 -0.7923
  941MOL0     C24134   7.557   7.529   4.614 -0.1372 -0.1884  0.0130
  941MOL0     C24135   7.512   7.583   4.491 -0.0663 -0.7854  0.5718
  941MOL0     C24136   7.547   7.714   4.451  0.8956  0.4183 -0.3451
  941MOL0     C24137   7.619   7.793   4.537 -0.2809  0.1014  0.0242
  941MOL0     O24138   7.662   7.917   4.487 -0.6617 -0.2439  0.2972
  941MOL0     C24139   7.751   8.010   4.557  0.8911  0.8412 -0.7812
  941MOL0     C24140   7.754   8.144   4.486 -0.3199  0.2579  0.2658
  941MOL0     C24141   7.827   8.248   4.562  0.2449 -0.5745 -0.4063
  941MOL0     C24142   7.727   8.349   4.612 -0.4897  0.2165 -0.2368
  941MOL0     C24143   7.659   8.425   4.501  0.3008 -0.7741 -0.8332
  941MOL0     C24144   7.626   8.506   4.417 -0.8273 -0.1409 -0.7775
  941MOL0     C24145   7.667   7.734   4.659 -0.3283  0.6053  0.5157
  941MOL0     C24146   7.635   7.608   4.697  0.0311  0.3342  0.5953
  941MOL0     H24147   7.257   7.217   4.439 -0.5357  1.3674  1.3354
  941MOL0     H24148   7.124   7.037   4.485  1.1495  1.2874 -3.2047
  941MOL0     H24149   6.988   6.870   4.584  3.0326 -0.4576 -1.8714
  941MOL0     H24150   7.013   6.962   4.745  2.7444  1.4366  0.2253
  941MOL0     H24151   6.866   6.755   4.772 -0.0089 -1.2738 -1.6140
  941MOL0     H24152   7.020   6.750   4.867  2.9544  0.9188 -1.0622
  941MOL0     H24153   7.119   6.596   4.717  0.5905  0.6631 -2.8767
  941MOL0     H24154   7.000   6.634   4.597  2.1918  0.0397 -0.3620
  941MOL0     H24155   6.930   6.507   4.855  1.1446  1.6026  0.2151
  941MOL0     H24156   6.820   6.536   4.737 -0.8722  0.4788 -0.0325
  941MOL0     H24157   7.048   6.355   4.690  0.5038  0.3352  0.6734
  941MOL0     H24158   6.931   6.396   4.578 -0.7300  1.4115  0.9715
  941MOL0     H24159   6.740   6.304   4.775 -0.5233 -1.2569 -0.6365
  941MOL0     H24160   6.881   6.234   4.838 -1.8604  0.6789  1.8430
  941MOL0     H24161   6.739   6.089   4.713  1.6188 -0.6972  0.9232
  941MOL0     H24162   6.738   6.188   4.573  0.5844 -1.1474 -0.9109
  941MOL0     H24163   6.945   6.002   4.645 -0.8536  0.0838  1.2037
  941MOL0     H24164   6.995   6.135   4.531  1.7223 -3.2658 -0.2437
  941MOL0     H24165   6.877   5.801   4.539 -0.0914  0.5678  1.4218
  941MOL0     H24166   6.807   5.625   4.329 -2.8298 -1.4051  0.5472
  941MOL0     H24167   6.750   5.688   4.180 -1.3167 -0.9939 -0.1364
  941MOL0     H24168   6.557   5.768   4.276  4.5573  2.2695 -1.9126
  941MOL0     H24169   6.586   5.702   4.440  0.3014  1.0766 -1.5087
  941MOL0     H24170   6.532   5.543   4.171  2.0476  0.7679  0.1169
  941MOL0     H24171   6.556   5.464   4.336  0.9326  1.2150  0.8955
  941MOL0     H24172   6.316   5.512   4.261  0.0496 -0.2022  0.2138
  941MOL0     H24173   6.357   5.689   4.275 -0.8596  0.0262  0.1981
  941MOL0     H24174   6.109   5.633   4.305  0.3643  1.9806 -0.1345
  941MOL0     H24175   5.907   5.706   4.422 -1.9696  0.8192  1.8760
  941MOL0     H24176   5.643   5.992   4.565 -0.3786 -2.5927 -2.8843
  941MOL0     H24177   5.473   6.099   4.688  1.0026  0.6977  2.2004
  941MOL0     H24178   5.256   6.103   4.719  4.2442 -0.4994  0.2502
  941MOL0     H24179   5.335   6.174   4.867  0.7855  0.0110  0.2848
  941MOL0     H24180   5.159   6.171   4.999  0.5679  0.5801  0.3801
  941MOL0     H24181   5.063   6.061   4.894  0.6615 -0.6120 -0.3945
  941MOL0     H24182   5.031   6.231   4.718  0.6802  1.4277 -0.0829
  941MOL0     H24183   5.149   6.338   4.800 -0.7659  1.6737  0.2797
  941MOL0     H24184   4.873   6.255   4.865  0.4676 -0.3765 -0.8817
  941MOL0     H24185   4.973   6.347   4.984  2.5365 -0.1235  0.6268
  941MOL0     H24186   4.929   6.440   4.708  1.9183 -1.8143  0.1135
  941MOL0     H24187   4.991   6.547   4.823  1.3941 -0.9471 -2.1348
  941MOL0     H24188   4.701   6.460   4.806  1.4727 -0.9343 -1.0724
  941MOL0     H24189   4.768   6.626   4.802 -1.1007  0.1952  0.6327
  941MOL0     H24190   4.656   6.600   5.020  0.1562  0.7185 -0.3311
  941MOL0     H24191   4.750   6.450   5.059  0.2771 -1.0736 -2.0541
  941MOL0     H24192   4.880   6.726   5.021 -1.9550  0.7908  1.1655
  941MOL0     H24193   4.960   6.577   5.058  0.2306  0.5390  1.8185
  941MOL0     H24194   5.420   5.743   4.920  3.0959 -0.3137  0.0980
  941MOL0     H24195   5.611   5.644   4.819  2.2100  0.5654 -1.6307
  941MOL0     H24196   6.105   5.694   4.806  1.6277 -1.3906  0.0257
  941MOL0     H24197   6.316   5.613   4.693 -0.2220 -2.5234 -0.6335
  941MOL0     H24198   7.361   6.948   4.837 -1.0529  1.9160  0.6351
  941MOL0     H24199   7.498   7.157   4.795 -1.7944  3.6494 -1.1084
  941MOL0     H24200   7.463   7.523   4.415  0.1373 -2.8238  1.9417
  941MOL0     H24201   7.516   7.760   4.358  1.0037 -1.6493 -1.4547
  941MOL0     H24202   7.851   7.966   4.557 -0.5188 -2.7576 -1.8505
  941MOL0     H24203   7.711   8.024   4.658  2.4508  1.7831 -0.2767
  941MOL0     H24204   7.809   8.130   4.392  3.0005  1.4218  1.8819
  941MOL0     H24205   7.653   8.176   4.458  0.3636 -0.1032 -2.9720
  941MOL0     H24206   7.899   8.298   4.498  0.4814 -1.3843 -0.7915
  941MOL0     H24207   7.902   8.218   4.636  0.8354  2.6133  0.4278
  941MOL0     H24208   7.651   8.313   4.682 -0.7220  2.4530  0.7417
  941MOL0     H24209   7.791   8.418   4.667  0.2469 -1.4561  1.1011
  941MOL0     H24210   7.592   8.584   4.352  0.8559  0.1602 -1.3631
  941MOL0     H24211   7.730   7.798   4.720  1.0783 -2.6510  2.7961
  941MOL0     H24212   7.680   7.576   4.790  0.1966 -0.0458  0.3909
  942MOL0     O24213   1.124   1.778   3.285 -0.0275  0.5092  0.3701
  942MOL0     C24214   1.202   1.723   3.205  0.0636  0.0566 -1.0728
  942MOL0     O24215   1.177   1.693   3.071 -0.1757 -0.4871 -0.1585
  942MOL0     C24216   1.086   1.770   3.001 -0.3624 -0.5637 -1.2217
  942MOL0     C24217   1.031   1.723   2.888 -1.3075 -0.0301  0.6620
  942MOL0     C24218   0.943   1.801   2.813 -0.1756  0.7943 -0.4020
  942MOL0     C24219   0.915   1.925   2.846  0.0780 -0.6100 -0.2749
  942MOL0     O24220   0.834   2.002   2.770  0.2157 -0.6854  0.2763
  942MOL0     C24221   0.694   2.005   2.802 -0.0555  0.5720 -1.6503
  942MOL0     C24222   0.627   2.138   2.757  0.6749  0.5494  0.4532
  942MOL0     C24223   0.676   2.190   2.620  0.4939 -0.4657 -0.5788
  942MOL0     C24224   0.617   2.330   2.579 -0.3094 -0.0221  0.4136
  942MOL0     C24225   0.629   2.358   2.431  0.0141 -0.9500  0.2866
  942MOL0     C24226   0.531   2.471   2.383  0.1350 -0.1872 -0.4307
  942MOL0     C24227   0.562   2.511   2.240 -0.3427 -0.0522  0.3000
  942MOL0     C24228   0.457   2.610   2.192 -0.2036  0.2891  0.2699
  942MOL0     N24229   0.480   2.742   2.259  0.1545 -0.6795  0.1274
  942MOL0     C24230   0.583   2.816   2.238  0.2038 -0.5386  0.5435
  942MOL0     C24231   0.556   2.933   2.302 -0.8332 -0.1488 -0.3803
  942MOL0     C24232   0.644   3.049   2.320  0.2033 -0.4808  0.0212
  942MOL0     C24233   0.716   3.108   2.198  0.0267  0.5582  0.1406
  942MOL0     C24234   0.830   3.192   2.242  1.2336 -0.2309  0.3628
  942MOL0     C24235   0.915   3.240   2.121  0.5401  0.0282 -0.2575
  942MOL0     O24236   0.984   3.133   2.050 -0.2111  0.3226  0.1940
  942MOL0     C24237   1.084   3.058   2.099  1.1073  0.9159  0.6253
  942MOL0     C24238   1.116   2.953   2.015 -0.8110  0.1092  0.3593
  942MOL0     C24239   1.222   2.864   2.042 -0.9202 -0.3059  0.7836
  942MOL0     C24240   1.287   2.886   2.172 -0.0018  0.0349  0.2692
  942MOL0     C24241   1.390   2.792   2.219 -0.0002  0.0694 -0.1897
  942MOL0     O24242   1.390   2.779   2.352 -0.1341 -0.2344 -0.5628
  942MOL0     C24243   1.461   2.693   2.423 -0.3147  0.6263  0.0081
  942MOL0     C24244   1.504   2.571   2.364 -0.2655 -0.1544  0.3256
  942MOL0     C24245   1.576   2.482   2.448 -0.1927 -0.1212  0.3228
  942MOL0     C24246   1.594   2.519   2.580  1.1163  0.1010  0.3704
  942MOL0     O24247   1.642   2.423   2.657 -0.3966  0.0310  0.2154
  942MOL0     C24248   1.581   2.406   2.782  1.0558  0.0665 -0.1710
  942MOL0     C24249   1.678   2.418   2.901  0.7041  0.2268  0.5574
  942MOL0     C24250   1.622   2.442   3.045 -0.2817  0.0655  0.1606
  942MOL0     C24251   1.720   2.486   3.150 -0.2516 -0.2570  0.0115
  942MOL0     C24252   1.647   2.523   3.282  0.2622  0.1458 -1.1784
  942MOL0     C24253   1.711   2.655   3.346 -0.4838  0.6123  0.2817
  942MOL0     C24254   1.661   2.716   3.477  0.6105 -0.1922  0.3547
  942MOL0     C24255   1.714   2.648   3.593  0.1642  0.1758 -0.2339
  942MOL0    Cl24256   1.634   2.703   3.751  0.0700 -0.0375  0.1694
  942MOL0     C24257   1.570   2.644   2.635  0.2464  0.3073  1.3452
  942MOL0     C24258   1.488   2.725   2.559 -0.2425 -1.3285  1.4037
  942MOL0     O24259   1.479   2.757   2.139 -0.6195 -0.1681 -0.7697
  942MOL0     C24260   1.248   2.990   2.256 -0.2133 -0.2867 -1.4336
  942MOL0     C24261   1.150   3.081   2.221 -0.2315 -0.1598 -0.5397
  942MOL0     N24262   0.429   2.921   2.366  1.0647  0.6523 -0.4354
  942MOL0     N24263   0.388   2.801   2.340  0.2543 -0.6435 -0.8368
  942MOL0     C24264   0.978   1.984   2.952 -0.5142 -0.9217 -0.9064
  942MOL0     C24265   1.061   1.905   3.039  0.9324 -0.3221  1.1594
  942MOL0     C24266   1.334   1.693   3.250 -0.0838 -1.7672  0.0064
  942MOL0     C24267   1.380   1.714   3.384  0.3137 -0.5477 -0.3746
  942MOL0     C24268   1.509   1.704   3.423  0.1234  0.6745  0.0789
  942MOL0     C24269   1.601   1.644   3.335  0.0100 -0.8112  0.5215
  942MOL0     O24270   1.731   1.639   3.385  0.1512 -0.0925  0.2667
  942MOL0     C24271   1.835   1.587   3.299  0.1230  0.0771 -0.4017
  942MOL0     C24272   1.954   1.555   3.390 -0.3811  1.3269  0.3578
  942MOL0     C24273   1.921   1.447   3.499  0.8067  0.8454  0.2178
  942MOL0     C24274   1.911   1.303   3.459  0.2764 -0.3381  1.0298
  942MOL0     C24275   1.945   1.206   3.565 -0.3905 -0.2534 -0.2134
  942MOL0     C24276   1.935   1.118   3.647  1.0860 -0.0775  0.1662
  942MOL0     C24277   1.559   1.607   3.208 -1.1922 -1.0266 -0.8191
  942MOL0     C24278   1.428   1.633   3.167  0.3469 -0.0758  0.5229
  942MOL0     H24279   1.053   1.634   2.829 -1.9693  1.0849 -1.3473
  942MOL0     H24280   0.933   1.754   2.715  3.2584 -1.5195  0.1845
  942MOL0     H24281   0.682   1.992   2.909  2.5969 -1.5463 -1.5077
  942MOL0     H24282   0.638   1.932   2.743 -2.0325  1.6728 -1.2434
  942MOL0     H24283   0.658   2.209   2.834 -0.7311  3.8512 -1.8221
  942MOL0     H24284   0.519   2.130   2.748  0.7029 -0.8251  1.0388
  942MOL0     H24285   0.662   2.112   2.545 -1.0631  0.0035 -0.7986
  942MOL0     H24286   0.785   2.204   2.623  0.6330 -0.9346 -2.4048
  942MOL0     H24287   0.510   2.340   2.603  0.1171  1.4512  1.9038
  942MOL0     H24288   0.674   2.407   2.631  0.4453  0.6076 -1.2985
  942MOL0     H24289   0.617   2.266   2.374 -1.5849 -0.8197  0.3846
  942MOL0     H24290   0.726   2.402   2.405  0.1073 -0.2679  1.6709
  942MOL0     H24291   0.546   2.553   2.454 -3.7821  0.7534 -0.4870
  942MOL0     H24292   0.435   2.419   2.387  1.0090 -1.8022  1.9947
  942MOL0     H24293   0.660   2.557   2.222 -1.0285  1.4838  0.2628
  942MOL0     H24294   0.549   2.419   2.182  0.2657  0.9916 -1.5986
  942MOL0     H24295   0.352   2.586   2.210 -0.4987 -0.2333 -1.8738
  942MOL0     H24296   0.473   2.607   2.083 -1.8616  0.1306  0.0010
  942MOL0     H24297   0.666   2.799   2.170  0.0542  2.1438 -0.4237
  942MOL0     H24298   0.717   3.018   2.396 -0.4897 -5.0991 -0.9228
  942MOL0     H24299   0.593   3.127   2.378  0.0130 -0.1970 -0.5244
  942MOL0     H24300   0.646   3.171   2.141  0.4601  1.6220  0.7550
  942MOL0     H24301   0.753   3.021   2.144  0.2907 -0.4751  1.9234
  942MOL0     H24302   0.789   3.284   2.285 -0.2373 -0.9379  0.5349
  942MOL0     H24303   0.902   3.138   2.304  2.1144  0.4509 -0.0445
  942MOL0     H24304   0.989   3.317   2.147 -0.9485  1.7221 -0.8873
  942MOL0     H24305   0.855   3.285   2.042 -0.8758 -2.2163 -0.5629
  942MOL0     H24306   1.069   2.938   1.918  0.8831  0.2915 -0.5386
  942MOL0     H24307   1.268   2.799   1.969 -0.8507  0.6491 -0.0495
  942MOL0     H24308   1.491   2.531   2.264  0.3378 -3.1551  1.3346
  942MOL0     H24309   1.616   2.396   2.397  3.7412  0.3949  2.1307
  942MOL0     H24310   1.532   2.308   2.781 -1.8447  1.3305  1.9143
  942MOL0     H24311   1.494   2.472   2.791 -0.9507 -2.4673  0.1464
  942MOL0     H24312   1.748   2.499   2.877  1.1158 -1.0520 -3.4057
  942MOL0     H24313   1.725   2.319   2.901 -2.0958 -1.2259  2.4456
  942MOL0     H24314   1.570   2.352   3.081 -0.2204 -0.0943 -0.1523
  942MOL0     H24315   1.544   2.515   3.022 -0.9957 -1.8818 -4.9344
  942MOL0     H24316   1.799   2.412   3.170  0.3789  0.6902  1.1559
  942MOL0     H24317   1.766   2.580   3.117  2.4944 -1.1231  1.0682
  942MOL0     H24318   1.662   2.450   3.361  0.7532 -1.8747 -3.0551
  942MOL0     H24319   1.539   2.534   3.265 -0.5282 -0.7349  2.3564
  942MOL0     H24320   1.694   2.728   3.266 -4.1054 -2.0892 -1.7077
  942MOL0     H24321   1.819   2.643   3.360  0.0519  1.4916 -2.4295
  942MOL0     H24322   1.696   2.819   3.494  2.0156 -1.1270  4.4349
  942MOL0     H24323   1.552   2.706   3.482  0.8370 -2.8907  1.8122
  942MOL0     H24324   1.818   2.679   3.608 -0.3880  2.6588 -1.0687
  942MOL0     H24325   1.707   2.540   3.581 -1.0536  0.2954 -0.6968
  942MOL0     H24326   1.602   2.667   2.736 -1.6283 -2.3451  2.6540
  942MOL0     H24327   1.457   2.824   2.592  3.5458  0.6335 -0.3288
  942MOL0     H24328   1.301   3.014   2.348 -0.8075 -1.8018 -0.6467
  942MOL0     H24329   1.123   3.172   2.275 -0.2142 -0.6371  0.2950
  942MOL0     H24330   0.973   2.091   2.969  0.1950 -0.8073 -1.3814
  942MOL0     H24331   1.107   1.952   3.125  0.8073 -3.0224  2.7967
  942MOL0     H24332   1.323   1.755   3.467  1.4582 -1.7231  1.0669
  942MOL0     H24333   1.549   1.744   3.515 -0.1330  0.7182  0.1737
  942MOL0     H24334   1.864   1.662   3.224 -0.2996  0.8186  0.1670
  942MOL0     H24335   1.798   1.499   3.246 -0.7058  0.8343 -1.1189
  942MOL0     H24336   2.034   1.515   3.328 -0.9633 -0.2303  0.5606
  942MOL0     H24337   1.991   1.649   3.434  0.3625  1.3158 -0.2224
  942MOL0     H24338   1.829   1.475   3.550  0.4425 -1.8267  1.1780
  942MOL0     H24339   2.010   1.448   3.563  1.1979 -1.2285 -0.2298
  942MOL0     H24340   1.809   1.281   3.426  1.3934 -5.0636  0.0864
  942MOL0     H24341   1.985   1.289   3.381 -0.8399 -2.2074  0.2449
  942MOL0     H24342   1.927   1.041   3.721  1.0845  1.7194  2.1263
  942MOL0     H24343   1.628   1.580   3.128 -1.0291  1.3266 -1.5300
  942MOL0     H24344   1.391   1.615   3.067  1.8860  0.1643 -0.1088
  943MOL0     O24345   0.957   1.136   5.263 -0.1961 -0.9582 -0.2160
  943MOL0     C24346   0.938   1.206   5.162 -1.0193  0.2225  1.0673
  943MOL0     O24347   0.997   1.184   5.036  0.6701  0.0388  0.4832
  943MOL0     C24348   1.086   1.089   5.003  0.2678 -0.4603  0.7384
  943MOL0     C24349   1.086   1.053   4.860 -0.7620  0.6156 -0.5504
  943MOL0     C24350   1.175   0.963   4.812 -1.0227  1.4296 -0.1893
  943MOL0     C24351   1.274   0.904   4.900 -0.0593  0.1855 -0.8988
  943MOL0     O24352   1.342   0.787   4.863 -0.3482 -0.3502 -0.1482
  943MOL0     C24353   1.414   0.807   4.743 -0.1335  0.0906  1.1500
  943MOL0     C24354   1.556   0.728   4.752  0.0325  0.5757 -0.0191
  943MOL0     C24355   1.650   0.758   4.632  0.1122  1.1979  0.5928
  943MOL0     C24356   1.604   0.716   4.484  0.0195 -0.1244 -0.9507
  943MOL0     C24357   1.705   0.755   4.383 -0.0724 -0.1339  0.3572
  943MOL0     C24358   1.842   0.688   4.393  0.8325  0.3740  0.3517
  943MOL0     C24359   1.850   0.535   4.375 -0.7473  0.2079  0.6643
  943MOL0     C24360   1.853   0.451   4.504 -0.0050 -1.0417 -0.3752
  943MOL0     N24361   1.851   0.312   4.464  0.5901 -0.0106 -0.7907
  943MOL0     C24362   1.747   0.245   4.399  0.6766 -0.1967 -0.0563
  943MOL0     C24363   1.796   0.127   4.350 -0.1579  0.7371 -0.3695
  943MOL0     C24364   1.725   0.032   4.252 -0.0794 -1.1349 -0.0815
  943MOL0     C24365   1.759  -0.111   4.297 -0.2282 -0.0844  0.5699
  943MOL0     C24366   1.690  -0.213   4.201 -0.6604 -1.5068 -0.8671
  943MOL0     C24367   1.747  -0.356   4.241  0.0138 -0.5940  0.6210
  943MOL0     O24368   1.681  -0.451   4.165 -0.1122  1.1070 -0.1474
  943MOL0     C24369   1.755  -0.575   4.161  0.2275  0.3469 -0.2426
  943MOL0     C24370   1.863  -0.582   4.079  0.6216 -0.0890 -0.6687
  943MOL0     C24371   1.937  -0.694   4.086  0.3690  0.0706  0.3168
  943MOL0     C24372   1.879  -0.810   4.139 -0.9169  0.6653 -0.2816
  943MOL0     C24373   1.941  -0.939   4.108 -0.2013 -0.0642  0.2385
  943MOL0     O24374   1.860  -1.048   4.116 -0.2451  0.3795  1.3573
  943MOL0     C24375   1.923  -1.165   4.103  0.7689  0.2039 -0.1515
  943MOL0     C24376   1.902  -1.257   3.998  0.3335 -1.0204 -0.2850
  943MOL0     C24377   1.987  -1.365   3.981 -0.1586  0.2017  0.8607
  943MOL0     C24378   2.077  -1.404   4.082  0.4675 -0.4154  0.4347
  943MOL0     O24379   2.172  -1.504   4.061 -0.5585  0.3231 -0.3229
  943MOL0     C24380   2.215  -1.530   3.930  0.2750  0.1565  0.2029
  943MOL0     C24381   2.302  -1.653   3.927 -0.5679 -0.8194  0.9100
  943MOL0     C24382   2.348  -1.692   3.786 -0.1180  0.1065 -0.7819
  943MOL0     C24383   2.390  -1.843   3.792  1.1206 -0.2452 -0.8224
  943MOL0     C24384   2.275  -1.935   3.770  0.5025  0.0022 -0.0179
  943MOL0     C24385   2.223  -1.950   3.622 -0.3309  1.1171 -0.2548
  943MOL0     C24386   2.313  -2.029   3.525  0.1500  0.2283  0.1489
  943MOL0     C24387   2.240  -2.107   3.414  0.5610  0.1593 -0.6841
  943MOL0    Cl24388   2.152  -2.013   3.291  0.7040 -0.4902  0.2117
  943MOL0     C24389   2.088  -1.327   4.192  0.0868 -0.7586 -0.1628
  943MOL0     C24390   2.009  -1.212   4.204 -1.4755  0.5956 -0.5632
  943MOL0     O24391   2.064  -0.938   4.095 -0.0787 -0.0418  0.1836
  943MOL0     C24392   1.759  -0.804   4.195  0.4430  0.5889 -0.2841
  943MOL0     C24393   1.698  -0.688   4.213  1.5849  0.8459  0.3728
  943MOL0     N24394   1.926   0.139   4.376 -0.0698 -0.5157  0.2622
  943MOL0     N24395   1.968   0.248   4.440  1.1319  0.0219 -0.3108
  943MOL0     C24396   1.271   0.940   5.039  1.0832 -0.3166 -0.3306
  943MOL0     C24397   1.178   1.028   5.088 -0.8058 -0.7002  0.4611
  943MOL0     C24398   0.845   1.310   5.181  0.0008 -0.6568  1.2522
  943MOL0     C24399   0.835   1.427   5.091  0.5518  0.4697  0.0698
  943MOL0     C24400   0.742   1.525   5.113  0.6454 -0.5092 -0.0822
  943MOL0     C24401   0.652   1.525   5.229 -1.0664 -0.3687 -0.0231
  943MOL0     O24402   0.565   1.628   5.251 -0.3199 -0.0198 -0.2557
  943MOL0     C24403   0.437   1.599   5.309 -0.4104 -1.1308  0.0512
  943MOL0     C24404   0.333   1.617   5.209  0.2070  0.6827 -0.1421
  943MOL0     C24405   0.291   1.756   5.195  0.7049 -0.2351 -0.2984
  943MOL0     C24406   0.184   1.793   5.305 -0.5604 -1.3238 -0.3583
  943MOL0     C24407   0.168   1.936   5.321 -1.0754 -0.0563  0.1025
  943MOL0     C24408   0.151   2.049   5.354 -0.4224 -1.0299 -0.4429
  943MOL0     C24409   0.661   1.410   5.307  0.2901 -0.0799 -0.5822
  943MOL0     C24410   0.753   1.308   5.285 -0.4059 -0.4013 -0.2856
  943MOL0     H24411   1.018   1.105   4.793 -0.6988  4.4901  2.0428
  943MOL0     H24412   1.157   0.940   4.707  0.5229  3.3044 -0.9395
  943MOL0     H24413   1.427   0.915   4.727  0.7401  0.2454  2.6802
  943MOL0     H24414   1.352   0.772   4.661 -0.0744 -1.9069  1.9045
  943MOL0     H24415   1.525   0.623   4.751 -0.6934  0.7771 -1.3093
  943MOL0     H24416   1.614   0.748   4.843  1.0925  2.8659 -1.1075
  943MOL0     H24417   1.742   0.703   4.655  0.9006 -0.4933 -5.0918
  943MOL0     H24418   1.671   0.865   4.630  3.2877  0.6856  1.1163
  943MOL0     H24419   1.590   0.608   4.470  1.1569 -0.8637  2.4823
  943MOL0     H24420   1.519   0.779   4.458  0.6115 -0.8221 -5.3750
  943MOL0     H24421   1.709   0.864   4.375  0.0591 -0.2116 -0.7215
  943MOL0     H24422   1.664   0.722   4.287  0.9962 -0.7926  0.1043
  943MOL0     H24423   1.897   0.712   4.485  0.7460  0.1289  0.4693
  943MOL0     H24424   1.894   0.719   4.302 -1.1727  1.7136 -0.3836
  943MOL0     H24425   1.772   0.506   4.304  1.6584 -0.4162 -1.9222
  943MOL0     H24426   1.944   0.512   4.325 -0.4341  1.5066  0.6210
  943MOL0     H24427   1.764   0.484   4.559 -0.2166  0.4511 -1.5474
  943MOL0     H24428   1.947   0.465   4.557 -0.6416 -2.7918  1.3303
  943MOL0     H24429   1.645   0.282   4.393  0.1340 -1.2513  1.9215
  943MOL0     H24430   1.769   0.048   4.153  0.6996  0.9586  0.5693
  943MOL0     H24431   1.615   0.040   4.251  0.0076  0.7392 -2.2301
  943MOL0     H24432   1.736  -0.147   4.398  0.4599  0.2178  0.8481
  943MOL0     H24433   1.868  -0.117   4.288  0.1362  2.9548  1.4799
  943MOL0     H24434   1.582  -0.215   4.216 -0.6747 -1.6434 -0.9844
  943MOL0     H24435   1.721  -0.179   4.101 -0.5803  4.4015  0.7699
  943MOL0     H24436   1.729  -0.372   4.348  1.6319 -0.5367  0.9195
  943MOL0     H24437   1.856  -0.352   4.231  0.1449  1.5137  2.1814
  943MOL0     H24438   1.893  -0.490   4.030  1.4302  0.8175  1.4201
  943MOL0     H24439   2.036  -0.695   4.041  0.3136 -0.5290  0.2041
  943MOL0     H24440   1.824  -1.233   3.926  0.0985  1.4861  0.6926
  943MOL0     H24441   1.970  -1.440   3.904 -1.2263 -2.7512  3.7540
  943MOL0     H24442   2.266  -1.437   3.903 -0.8338 -0.2506 -3.9819
  943MOL0     H24443   2.132  -1.548   3.861  0.8700 -1.1550 -0.1884
  943MOL0     H24444   2.242  -1.737   3.963 -2.0979 -1.5979 -2.9312
  943MOL0     H24445   2.388  -1.638   3.993 -2.1789 -3.2352  3.8158
  943MOL0     H24446   2.436  -1.631   3.767 -0.0392  0.7611  1.3626
  943MOL0     H24447   2.262  -1.681   3.719 -2.2031  0.2692  1.7499
  943MOL0     H24448   2.458  -1.867   3.710  0.6860  3.9010 -2.6258
  943MOL0     H24449   2.450  -1.870   3.880  2.7789 -0.2036 -1.9137
  943MOL0     H24450   2.192  -1.899   3.831  0.7889 -1.5458  1.3749
  943MOL0     H24451   2.308  -2.031   3.811 -2.0072 -2.7837 -3.8053
  943MOL0     H24452   2.199  -1.853   3.577 -0.3683  2.4943  2.5202
  943MOL0     H24453   2.126  -2.001   3.625 -0.2272  0.9845  0.9843
  943MOL0     H24454   2.383  -1.954   3.485 -2.8051  2.1785 -1.7885
  943MOL0     H24455   2.364  -2.104   3.586 -0.8138 -1.1282 -0.6741
  943MOL0     H24456   2.172  -2.172   3.471 -0.2589  1.2030 -0.4505
  943MOL0     H24457   2.304  -2.181   3.366 -3.3266 -3.6910 -0.5590
  943MOL0     H24458   2.154  -1.361   4.272 -2.8443 -1.3313  2.1650
  943MOL0     H24459   2.036  -1.147   4.287 -0.4604 -2.9212  2.1206
  943MOL0     H24460   1.720  -0.897   4.237  1.4863  0.1033 -0.3648
  943MOL0     H24461   1.609  -0.670   4.273  0.5717  1.6653 -1.2969
  943MOL0     H24462   1.340   0.882   5.100  2.3323  0.4761 -0.9439
  943MOL0     H24463   1.180   1.066   5.189  0.0590  1.2249 -0.2337
  943MOL0     H24464   0.894   1.443   5.001  0.4240  0.3592 -0.0328
  943MOL0     H24465   0.734   1.583   5.021  2.6561 -2.9827 -1.9598
  943MOL0     H24466   0.432   1.676   5.387  0.6826 -1.3880  0.3922
  943MOL0     H24467   0.432   1.510   5.374  1.4514  0.1379  2.0937
  943MOL0     H24468   0.353   1.566   5.114  1.1229 -2.2547  1.5222
  943MOL0     H24469   0.255   1.561   5.261 -0.1437  2.3807  1.2498
  943MOL0     H24470   0.230   1.762   5.104 -0.0893  1.4476  0.2871
  943MOL0     H24471   0.364   1.838   5.189 -0.1967  0.5498 -0.9996
  943MOL0     H24472   0.091   1.739   5.288 -2.6738  1.4012  1.6414
  943MOL0     H24473   0.220   1.764   5.404  0.2599  2.1588  0.5032
  943MOL0     H24474   0.160   2.147   5.398 -0.0399 -0.1955 -2.2966
  943MOL0     H24475   0.608   1.375   5.394 -2.7154  3.4690 -0.7220
  943MOL0     H24476   0.756   1.229   5.360  1.6759  1.8073  2.1179
  944MOL0     O24477   8.514  11.091   5.139 -0.2299  0.1601  0.2201
  944MOL0     C24478   8.583  11.045   5.045 -1.2991  0.8260 -0.6661
  944MOL0     O24479   8.606  11.105   4.922  0.0944  0.2317  0.7609
  944MOL0     C24480   8.559  11.243   4.911 -0.5636  0.4843 -0.2301
  944MOL0     C24481   8.594  11.343   5.003  0.3603 -0.0898 -0.6233
  944MOL0     C24482   8.548  11.475   4.980 -0.7444  0.7646  0.2383
  944MOL0     C24483   8.478  11.510   4.867 -0.4192  0.0239 -0.8803
  944MOL0     O24484   8.413  11.628   4.852 -0.0898  0.2374 -0.4452
  944MOL0     C24485   8.430  11.728   4.959  0.0698  0.0494 -0.2864
  944MOL0     C24486   8.312  11.818   4.925 -0.7749  0.1401  0.0153
  944MOL0     C24487   8.305  11.924   5.045  0.3278  0.9389  0.8268
  944MOL0     C24488   8.189  12.019   5.021  0.7719 -0.4795  0.6563
  944MOL0     C24489   8.212  12.145   5.105 -0.1942  0.2818  0.6483
  944MOL0     C24490   8.098  12.243   5.077 -0.4501 -0.8031  0.4425
  944MOL0     C24491   7.982  12.229   5.165  0.3731  0.4039 -0.5305
  944MOL0     C24492   7.858  12.306   5.117 -0.3415  0.0499 -0.0285
  944MOL0     N24493   7.792  12.227   5.012  0.6718 -0.5564 -0.1648
  944MOL0     C24494   7.740  12.101   5.044  0.3871  1.0615 -0.9604
  944MOL0     C24495   7.707  12.057   4.920 -0.9628 -0.3525  0.4861
  944MOL0     C24496   7.648  11.922   4.886  0.0353  0.3637  0.5556
  944MOL0     C24497   7.751  11.816   4.946  1.0065  0.3042  0.7704
  944MOL0     C24498   7.703  11.668   4.957 -0.4379  0.3116  0.7501
  944MOL0     C24499   7.602  11.652   5.068  0.5904 -1.0039 -0.4472
  944MOL0     O24500   7.633  11.523   5.114  0.1638  0.4563  0.6947
  944MOL0     C24501   7.607  11.410   5.033 -0.1693  0.6225 -0.5070
  944MOL0     C24502   7.675  11.296   5.064 -1.5178  0.4544  0.3058
  944MOL0     C24503   7.650  11.179   4.993  0.1284  0.2431 -0.1600
  944MOL0     C24504   7.552  11.177   4.894  0.2426  0.9789  0.2448
  944MOL0     C24505   7.530  11.044   4.815  0.2087  0.1192  0.3411
  944MOL0     O24506   7.637  10.965   4.823 -0.0776  0.4801 -0.9855
  944MOL0     C24507   7.658  10.864   4.734 -1.1539  0.3477  0.0336
  944MOL0     C24508   7.602  10.741   4.751 -0.1820 -0.4345 -0.7476
  944MOL0     C24509   7.632  10.646   4.659 -0.9560  0.2331  0.2403
  944MOL0     C24510   7.705  10.682   4.543 -0.4503  0.5393  0.0586
  944MOL0     O24511   7.746  10.589   4.450 -0.1594 -0.4172  0.1753
  944MOL0     C24512   7.657  10.485   4.411  0.1245 -0.3574  0.3676
  944MOL0     C24513   7.705  10.458   4.268  0.3166  0.8391  0.0756
  944MOL0     C24514   7.825  10.357   4.283  0.4141 -0.4956 -0.5997
  944MOL0     C24515   7.890  10.352   4.150  0.6555 -0.0281  0.2142
  944MOL0     C24516   7.990  10.233   4.147  0.1461 -0.0445 -0.3017
  944MOL0     C24517   8.083  10.229   4.025  1.0204  0.1648 -0.6965
  944MOL0     C24518   8.155  10.081   4.012 -0.2341 -0.9520  1.2911
  944MOL0     C24519   8.137  10.025   3.867  0.0520  0.5057 -0.9635
  944MOL0    Cl24520   8.049   9.866   3.886 -0.1283 -0.0960 -0.3480
  944MOL0     C24521   7.767  10.806   4.532 -0.9413 -0.6322 -0.4261
  944MOL0     C24522   7.743  10.906   4.628 -0.7658 -0.1180 -0.4101
  944MOL0     O24523   7.446  11.031   4.728  0.3583 -0.3651 -0.6359
  944MOL0     C24524   7.485  11.289   4.875 -0.5486  0.5854  0.3150
  944MOL0     C24525   7.515  11.410   4.931  0.3531 -0.2661  0.1210
  944MOL0     N24526   7.754  12.156   4.822  0.0968  1.1925  0.0322
  944MOL0     N24527   7.795  12.257   4.886 -0.1351 -0.3179 -0.1330
  944MOL0     C24528   8.453  11.407   4.775  0.7710  0.1156 -0.9497
  944MOL0     C24529   8.487  11.277   4.799 -0.6941 -0.3924 -0.2994
  944MOL0     C24530   8.628  10.908   5.058  0.8509 -0.1208 -0.1485
  944MOL0     C24531   8.725  10.859   4.967  0.1638 -1.4616  0.3109
  944MOL0     C24532   8.787  10.740   4.980 -0.1706 -0.2203 -0.2668
  944MOL0     C24533   8.755  10.660   5.090 -0.4651 -0.0274 -0.1762
  944MOL0     O24534   8.813  10.543   5.124  0.0470  1.1492 -0.4488
  944MOL0     C24535   8.936  10.503   5.066  0.6151 -0.9611  0.0273
  944MOL0     C24536   9.001  10.386   5.137  0.2601 -0.0381 -0.0229
  944MOL0     C24537   9.129  10.337   5.077 -0.6692  0.1520 -0.4448
  944MOL0     C24538   9.181  10.192   5.113  0.1789 -0.0892 -0.2629
  944MOL0     C24539   9.311  10.178   5.051 -0.0719  0.7076  0.7749
  944MOL0     C24540   9.411  10.157   4.991 -0.5962  0.6646 -0.4891
  944MOL0     C24541   8.654  10.701   5.176  0.2191 -0.6160 -0.5596
  944MOL0     C24542   8.582  10.818   5.158  1.3540  0.2850  0.2555
  944MOL0     H24543   8.655  11.316   5.088 -0.0620  3.7579  1.0908
  944MOL0     H24544   8.561  11.550   5.057 -1.1052  1.1279 -0.0519
  944MOL0     H24545   8.523  11.781   4.934  0.2419 -0.1070  0.0238
  944MOL0     H24546   8.432  11.695   5.063 -2.0472  1.4371  0.2628
  944MOL0     H24547   8.215  11.767   4.920 -0.9070  0.2640  1.1364
  944MOL0     H24548   8.322  11.869   4.829 -1.7811  2.3716  1.0193
  944MOL0     H24549   8.402  11.975   5.049 -1.0026  3.5647  1.8972
  944MOL0     H24550   8.286  11.871   5.139 -0.2454 -0.6181 -0.1343
  944MOL0     H24551   8.171  12.046   4.917 -1.1912 -3.5373  0.1009
  944MOL0     H24552   8.095  11.978   5.057 -0.5247  1.1985 -0.6744
  944MOL0     H24553   8.310  12.186   5.078 -0.2504  1.2909  1.8964
  944MOL0     H24554   8.204  12.117   5.210 -0.1360 -3.5547 -0.2288
  944MOL0     H24555   8.066  12.240   4.972 -0.3389  0.7155  0.3498
  944MOL0     H24556   8.139  12.343   5.092  1.5600 -1.5074 -0.0825
  944MOL0     H24557   7.951  12.124   5.170  1.4301 -0.1589 -3.6997
  944MOL0     H24558   8.010  12.255   5.267 -1.4551  1.5030 -0.2565
  944MOL0     H24559   7.887  12.402   5.073 -1.5165  0.1311 -0.6640
  944MOL0     H24560   7.792  12.328   5.202  1.9084  0.5906  1.6659
  944MOL0     H24561   7.724  12.056   5.141  0.6071  1.2138 -0.8538
  944MOL0     H24562   7.634  11.917   4.778 -1.4638  0.3469  0.7324
  944MOL0     H24563   7.549  11.911   4.930 -0.9019 -1.1669 -1.7255
  944MOL0     H24564   7.771  11.847   5.050  2.7219  3.3767 -0.3461
  944MOL0     H24565   7.847  11.821   4.895  1.1303  2.0582  1.1008
  944MOL0     H24566   7.657  11.633   4.864  3.3593 -1.3729 -0.7158
  944MOL0     H24567   7.794  11.609   4.973 -1.3051 -1.8284 -1.5362
  944MOL0     H24568   7.498  11.663   5.036  1.0461  0.4080 -1.5677
  944MOL0     H24569   7.615  11.723   5.151  1.6141 -0.2485 -1.2186
  944MOL0     H24570   7.761  11.294   5.130  0.6678 -0.0775 -2.3974
  944MOL0     H24571   7.706  11.087   5.005 -0.8750 -0.8064 -2.6769
  944MOL0     H24572   7.541  10.718   4.838 -0.2977  0.0274 -0.7045
  944MOL0     H24573   7.587  10.549   4.676 -1.9183  0.3274 -1.5064
  944MOL0     H24574   7.557  10.528   4.406  0.7200  1.0615  0.0325
  944MOL0     H24575   7.671  10.400   4.478  2.7995 -1.4630 -1.3976
  944MOL0     H24576   7.730  10.549   4.212  3.2845 -0.6523 -1.2394
  944MOL0     H24577   7.625  10.409   4.212  1.7504 -0.2180 -1.1122
  944MOL0     H24578   7.790  10.260   4.318 -0.0794 -0.3870 -0.7906
  944MOL0     H24579   7.898  10.396   4.354 -1.1115  2.8500 -0.6803
  944MOL0     H24580   7.814  10.329   4.075 -1.9448  0.7931  2.4407
  944MOL0     H24581   7.936  10.448   4.128 -2.3746  1.3746 -0.5584
  944MOL0     H24582   7.915  10.154   4.141 -1.3639  1.0616  2.2944
  944MOL0     H24583   8.051  10.223   4.237 -0.8326  1.3298  0.5631
  944MOL0     H24584   8.155  10.310   4.040  2.9963 -1.9381  2.1064
  944MOL0     H24585   8.023  10.257   3.938  1.9924  0.5666 -1.2559
  944MOL0     H24586   8.256  10.100   4.049  0.9492  0.3510 -2.1863
  944MOL0     H24587   8.105  10.014   4.082 -3.9543 -1.4063 -1.4985
  944MOL0     H24588   8.240  10.007   3.837 -0.1650  1.8287 -2.6446
  944MOL0     H24589   8.078  10.088   3.800 -0.5155  0.6012 -0.3876
  944MOL0     H24590   7.814  10.821   4.435  1.5726  0.8819  0.8967
  944MOL0     H24591   7.787  11.005   4.623 -0.4205 -0.3363 -2.2861
  944MOL0     H24592   7.408  11.298   4.799 -1.1587  1.5724  1.0281
  944MOL0     H24593   7.463  11.499   4.896  3.8928  1.8661 -0.2811
  944MOL0     H24594   8.389  11.427   4.690  1.7638 -2.8294 -2.5040
  944MOL0     H24595   8.457  11.189   4.743  0.6865 -2.7417  2.4102
  944MOL0     H24596   8.764  10.925   4.890 -1.6826 -1.0662 -0.3549
  944MOL0     H24597   8.869  10.714   4.914 -0.2597  0.8802 -0.8269
  944MOL0     H24598   9.010  10.583   5.065 -0.9227  0.5280 -1.2548
  944MOL0     H24599   8.909  10.479   4.963 -0.7654 -0.4341  0.2376
  944MOL0     H24600   9.020  10.439   5.231  1.1485  4.6346 -2.5480
  944MOL0     H24601   8.927  10.306   5.149 -0.9233  1.0255  0.0596
  944MOL0     H24602   9.203  10.404   5.123 -2.4330  0.8043  1.6112
  944MOL0     H24603   9.128  10.352   4.969  0.9539 -1.0729 -0.6722
  944MOL0     H24604   9.203  10.182   5.220  0.1370  0.6976 -0.1740
  944MOL0     H24605   9.112  10.120   5.067  0.5617 -1.1672  0.7921
  944MOL0     H24606   9.501  10.122   4.945  1.0549  1.7821  1.6840
  944MOL0     H24607   8.630  10.637   5.260 -1.9405 -2.1999 -2.2780
  944MOL0     H24608   8.506  10.855   5.227 -0.4210 -1.0555 -0.8723
  945MOL0     O24609   9.046   1.932   2.902  0.5872  0.2694 -0.2436
  945MOL0     C24610   9.117   2.027   2.933 -0.1045  0.1290  0.5574
  945MOL0     O24611   9.133   2.071   3.066  0.4006 -0.0925 -0.1858
  945MOL0     C24612   9.038   2.057   3.161 -0.6813  0.4850 -0.3251
  945MOL0     C24613   9.080   2.076   3.292 -0.8464  0.4491  0.2415
  945MOL0     C24614   8.991   2.066   3.397  0.0829 -0.7010  0.6120
  945MOL0     C24615   8.855   2.021   3.372  0.1745 -0.9302  0.2389
  945MOL0     O24616   8.779   1.994   3.485 -0.2613  0.0756  0.5014
  945MOL0     C24617   8.834   1.926   3.598 -0.5130 -0.1705  0.7859
  945MOL0     C24618   8.723   1.885   3.699 -0.3348 -0.3966  0.2985
  945MOL0     C24619   8.767   1.815   3.825 -0.1999 -1.2076  0.0129
  945MOL0     C24620   8.659   1.769   3.914  0.7446 -0.6195  0.0875
  945MOL0     C24621   8.708   1.653   3.994  0.0826  0.4559  0.2614
  945MOL0     C24622   8.604   1.596   4.081  0.4614 -0.5874  0.2022
  945MOL0     C24623   8.555   1.692   4.189  0.5156  0.5613 -0.1573
  945MOL0     C24624   8.650   1.775   4.280 -0.2080  0.0926  0.2218
  945MOL0     N24625   8.707   1.684   4.386 -0.1161  0.1897  0.3189
  945MOL0     C24626   8.652   1.688   4.515 -0.4612  0.3599 -0.2526
  945MOL0     C24627   8.735   1.613   4.580  0.1613 -0.6550  0.9048
  945MOL0     C24628   8.729   1.570   4.715  0.5001  0.7956 -0.3756
  945MOL0     C24629   8.605   1.479   4.742  0.8058 -1.0517 -0.0649
  945MOL0     C24630   8.603   1.353   4.654  0.0378 -0.7022 -0.0747
  945MOL0     C24631   8.722   1.259   4.658  0.3920 -0.0292 -0.6989
  945MOL0     O24632   8.678   1.140   4.588 -0.0858 -0.4762  0.4900
  945MOL0     C24633   8.687   1.143   4.453 -0.0132 -0.5451 -0.0397
  945MOL0     C24634   8.623   1.041   4.392 -0.5412 -0.9315  0.0016
  945MOL0     C24635   8.624   1.024   4.250  0.3768 -1.4973  0.1211
  945MOL0     C24636   8.686   1.128   4.172 -0.2252 -0.4274  0.1673
  945MOL0     C24637   8.656   1.133   4.025  0.3069  0.0103 -0.0382
  945MOL0     O24638   8.546   1.062   3.979 -0.3212  0.1736 -0.0495
  945MOL0     C24639   8.496   1.060   3.848 -1.1983  0.0033 -0.5209
  945MOL0     C24640   8.365   1.012   3.846  0.6962  0.5946  0.4437
  945MOL0     C24641   8.289   1.007   3.725 -0.1487  0.2391 -0.1304
  945MOL0     C24642   8.348   1.063   3.611 -0.5774  0.0066  0.0604
  945MOL0     O24643   8.290   1.107   3.496  0.0600  0.7366  0.6292
  945MOL0     C24644   8.144   1.098   3.472  0.0386 -0.0977  0.4416
  945MOL0     C24645   8.044   1.213   3.486 -0.6277  0.7110 -0.2426
  945MOL0     C24646   7.901   1.180   3.458  0.1865 -0.6427 -0.2936
  945MOL0     C24647   7.877   1.150   3.305  0.0053 -0.6667 -0.6756
  945MOL0     C24648   7.740   1.135   3.250  0.5080  0.2760  0.0315
  945MOL0     C24649   7.660   1.253   3.202  0.2380  0.3871 -0.0440
  945MOL0     C24650   7.708   1.323   3.082 -0.0519 -0.2561  0.2747
  945MOL0     C24651   7.611   1.430   3.040  0.1135  0.0633  0.2253
  945MOL0    Cl24652   7.702   1.526   2.917 -0.0103  0.1590 -0.2390
  945MOL0     C24653   8.488   1.095   3.611  0.5063 -0.5811 -0.0247
  945MOL0     C24654   8.561   1.091   3.732 -1.2469 -0.4480  0.0119
  945MOL0     O24655   8.733   1.200   3.957  0.1360  0.4753  0.0665
  945MOL0     C24656   8.758   1.231   4.238 -0.4703  0.1937  0.3678
  945MOL0     C24657   8.761   1.236   4.374 -0.4522  0.4619  0.3959
  945MOL0     N24658   8.834   1.556   4.490  0.5470 -0.0418 -0.9767
  945MOL0     N24659   8.811   1.600   4.371  0.3617  0.0153  0.1851
  945MOL0     C24660   8.798   2.027   3.240 -0.3000 -0.3629  0.3203
  945MOL0     C24661   8.890   2.051   3.136  0.6773  0.5794  0.4583
  945MOL0     C24662   9.198   2.107   2.834 -0.0570 -0.3987 -0.2907
  945MOL0     C24663   9.302   2.193   2.873  0.7790  0.8848 -0.6315
  945MOL0     C24664   9.370   2.277   2.784 -0.8718 -0.1060  0.1221
  945MOL0     C24665   9.337   2.273   2.653 -0.3392 -0.3499  0.4096
  945MOL0     O24666   9.405   2.360   2.563  0.2064 -0.5193 -0.0927
  945MOL0     C24667   9.371   2.361   2.420 -0.4684 -0.8081  0.5931
  945MOL0     C24668   9.436   2.241   2.351 -0.0013 -0.0427 -0.7319
  945MOL0     C24669   9.469   2.268   2.198  0.4647 -0.0120  0.7055
  945MOL0     C24670   9.480   2.141   2.107  0.2951 -0.7547  0.1560
  945MOL0     C24671   9.358   2.089   2.041 -0.0042 -0.6221 -0.8601
  945MOL0     C24672   9.267   2.051   1.968 -0.4151 -0.0349 -0.1022
  945MOL0     C24673   9.236   2.186   2.610  0.4818  0.2442  0.3430
  945MOL0     C24674   9.170   2.108   2.703  0.3160 -0.2318  0.1585
  945MOL0     H24675   9.184   2.080   3.321  0.4231 -0.1848 -3.6102
  945MOL0     H24676   9.034   2.087   3.494  1.4958  1.5626 -0.4075
  945MOL0     H24677   8.900   1.997   3.647  0.0174  0.0836 -0.2604
  945MOL0     H24678   8.896   1.847   3.555 -0.8033  0.6564 -1.2624
  945MOL0     H24679   8.661   1.820   3.636 -0.2353 -0.1886 -0.0199
  945MOL0     H24680   8.675   1.977   3.734  4.3684  2.5401 -0.0500
  945MOL0     H24681   8.831   1.881   3.884 -0.4412 -0.4246 -0.5797
  945MOL0     H24682   8.823   1.726   3.796  1.5017  0.1611 -1.0901
  945MOL0     H24683   8.636   1.845   3.989  0.9428 -0.4709 -0.0017
  945MOL0     H24684   8.565   1.744   3.863  0.4878  0.3799  0.0514
  945MOL0     H24685   8.800   1.672   4.050  0.0966 -2.4320  1.3922
  945MOL0     H24686   8.729   1.570   3.926 -2.6255 -2.6013  2.8025
  945MOL0     H24687   8.655   1.511   4.127 -0.3908 -1.1100  0.1987
  945MOL0     H24688   8.516   1.553   4.032 -2.1066  2.6675  1.6126
  945MOL0     H24689   8.478   1.759   4.150 -2.1761 -1.9546  0.5086
  945MOL0     H24690   8.506   1.624   4.259 -1.2540 -0.1211 -1.9418
  945MOL0     H24691   8.605   1.866   4.319  1.3599  2.7122 -3.5469
  945MOL0     H24692   8.725   1.814   4.210 -1.2269 -1.0206 -1.5562
  945MOL0     H24693   8.565   1.739   4.555 -0.5574  3.2516 -3.7250
  945MOL0     H24694   8.724   1.659   4.778  1.2626  0.1378  0.6436
  945MOL0     H24695   8.827   1.529   4.739  0.2341 -0.2689 -1.0306
  945MOL0     H24696   8.513   1.527   4.709 -0.8841 -4.6790 -1.0631
  945MOL0     H24697   8.596   1.457   4.849 -3.1908  2.4855  0.5576
  945MOL0     H24698   8.517   1.291   4.680  1.6426 -3.2581 -0.4722
  945MOL0     H24699   8.595   1.388   4.551  0.7113 -0.4312 -0.0389
  945MOL0     H24700   8.732   1.234   4.764  0.1847 -1.2134 -0.9524
  945MOL0     H24701   8.812   1.301   4.612 -1.9948  0.7174 -5.3190
  945MOL0     H24702   8.574   0.958   4.441  0.2609 -1.0078  0.6962
  945MOL0     H24703   8.569   0.935   4.220 -0.0906 -0.6781 -1.5308
  945MOL0     H24704   8.312   0.982   3.935  0.6916 -0.3076  0.1496
  945MOL0     H24705   8.182   0.992   3.723 -0.4445  2.2125 -1.7971
  945MOL0     H24706   8.108   1.025   3.545  1.1534  0.5644  1.7147
  945MOL0     H24707   8.133   1.057   3.372  3.2310  0.3669 -0.2077
  945MOL0     H24708   8.062   1.302   3.426 -1.6064  0.7702 -0.4652
  945MOL0     H24709   8.054   1.248   3.589 -1.6792  3.1852 -0.9155
  945MOL0     H24710   7.833   1.262   3.483  1.0668 -0.3557  1.3141
  945MOL0     H24711   7.871   1.102   3.529  1.2983  0.0711  0.9986
  945MOL0     H24712   7.926   1.226   3.243 -0.1889 -1.8745 -2.3864
  945MOL0     H24713   7.916   1.049   3.292 -1.6340 -1.4760  0.3582
  945MOL0     H24714   7.687   1.071   3.321 -0.1981 -2.6948 -2.9066
  945MOL0     H24715   7.764   1.067   3.167  0.4031 -2.4710  2.1230
  945MOL0     H24716   7.648   1.326   3.283  0.9388 -2.0654  2.4168
  945MOL0     H24717   7.563   1.208   3.183  0.9590 -3.1908  3.4742
  945MOL0     H24718   7.800   1.376   3.109 -0.5513  1.1699 -0.7354
  945MOL0     H24719   7.734   1.249   3.006  0.1684  2.3178 -2.2985
  945MOL0     H24720   7.598   1.481   3.136 -0.8262  1.2349 -0.4947
  945MOL0     H24721   7.513   1.399   3.002  0.0872  2.1291 -1.6087
  945MOL0     H24722   8.535   1.143   3.526 -1.4882  0.6720 -0.4964
  945MOL0     H24723   8.661   1.132   3.745 -1.9333  0.6755  2.2439
  945MOL0     H24724   8.797   1.315   4.181 -0.2842 -1.3970 -2.0093
  945MOL0     H24725   8.817   1.316   4.420  0.2097 -0.2496  0.8499
  945MOL0     H24726   8.699   1.994   3.209 -0.4583 -3.0183  3.1195
  945MOL0     H24727   8.849   2.048   3.036 -2.9379  3.6727  1.6545
  945MOL0     H24728   9.330   2.204   2.977  2.2513  0.7089 -0.9997
  945MOL0     H24729   9.453   2.339   2.814  0.1653 -2.2468  2.0547
  945MOL0     H24730   9.415   2.453   2.380  0.3545 -0.5201  2.0982
  945MOL0     H24731   9.262   2.352   2.407 -0.3371  0.5384 -1.9932
  945MOL0     H24732   9.533   2.216   2.395 -1.0777 -3.8831 -0.1607
  945MOL0     H24733   9.361   2.161   2.360 -3.0379  2.4197 -2.3735
  945MOL0     H24734   9.558   2.333   2.193 -0.6177  1.6885  2.3761
  945MOL0     H24735   9.383   2.327   2.168 -0.0800 -0.7586  0.7740
  945MOL0     H24736   9.545   2.182   2.029  0.8267  3.1751  2.4013
  945MOL0     H24737   9.522   2.056   2.160 -2.6525 -3.4501 -1.4903
  945MOL0     H24738   9.178   2.017   1.919 -1.2750 -0.3203  1.6034
  945MOL0     H24739   9.188   2.183   2.512 -1.3549 -2.3415  1.1972
  945MOL0     H24740   9.083   2.046   2.683  0.7230 -1.2733  1.5051
  946MOL0     O24741   6.351   1.509   9.768  0.6090 -0.5009  0.4390
  946MOL0     C24742   6.252   1.549   9.703  0.2667 -0.0613  0.2806
  946MOL0     O24743   6.125   1.531   9.746  0.6435 -0.4509 -0.3330
  946MOL0     C24744   6.082   1.442   9.844  0.8139 -1.6691 -0.3463
  946MOL0     C24745   5.950   1.446   9.890 -0.5553  0.5576 -0.4481
  946MOL0     C24746   5.892   1.346   9.970  0.3114  0.2160  0.9555
  946MOL0     C24747   5.986   1.241  10.024  0.8659  0.2856 -1.0790
  946MOL0     O24748   5.959   1.143  10.113 -0.0521  0.5016 -0.2047
  946MOL0     C24749   5.832   1.158  10.179 -0.2167 -0.3785  0.4388
  946MOL0     C24750   5.856   1.061  10.293  1.3501 -0.2651  0.3842
  946MOL0     C24751   5.742   1.000  10.368  0.8027  0.0169 -0.1334
  946MOL0     C24752   5.624   1.099  10.397 -0.3767 -0.5895  0.8044
  946MOL0     C24753   5.524   1.051  10.507  0.3374  0.1895  0.5577
  946MOL0     C24754   5.385   1.016  10.440 -0.0449 -0.0053  0.4082
  946MOL0     C24755   5.285   0.940  10.532 -0.8788 -0.5060 -0.2575
  946MOL0     C24756   5.280   0.969  10.679 -0.3760 -0.1864  0.2857
  946MOL0     N24757   5.209   0.875  10.764 -0.1411 -0.0257 -0.1171
  946MOL0     C24758   5.084   0.833  10.738  0.7743 -0.8619  0.5694
  946MOL0     C24759   5.054   0.736  10.834 -0.5438 -0.0552 -0.0679
  946MOL0     C24760   4.918   0.661  10.853 -0.9662  0.2998 -0.7614
  946MOL0     C24761   4.809   0.712  10.770  0.2481 -1.2005  0.9490
  946MOL0     C24762   4.670   0.666  10.797 -0.3597 -0.5771 -0.6206
  946MOL0     C24763   4.613   0.702  10.939 -0.3055 -0.5686  0.7430
  946MOL0     O24764   4.650   0.596  11.023 -0.1310 -0.6109 -0.4546
  946MOL0     C24765   4.562   0.566  11.123 -1.1901 -0.5406 -0.1843
  946MOL0     C24766   4.563   0.439  11.169  0.8490  0.6904  1.6426
  946MOL0     C24767   4.465   0.399  11.261 -0.0525 -0.4291  0.0217
  946MOL0     C24768   4.376   0.498  11.317 -0.1422  0.0965  0.1698
  946MOL0     C24769   4.272   0.448  11.414  0.6611  0.1922 -0.8993
  946MOL0     O24770   4.255   0.319  11.442  0.6741  0.0870  0.0518
  946MOL0     C24771   4.143   0.276  11.520  0.5435 -0.2108  0.2822
  946MOL0     C24772   4.017   0.345  11.542  0.4779 -0.0901  0.1029
  946MOL0     C24773   3.914   0.277  11.615 -0.5848 -0.2902 -0.4900
  946MOL0     C24774   3.928   0.148  11.665  0.5481  0.7434  0.5313
  946MOL0     O24775   3.822   0.077  11.728 -0.5151  0.1460 -0.3934
  946MOL0     C24776   3.704   0.139  11.781 -0.0763 -0.1110  0.5300
  946MOL0     C24777   3.647   0.057  11.900 -0.0209 -0.0575  0.2831
  946MOL0     C24778   3.588  -0.072  11.854 -0.3067  0.2312  0.2782
  946MOL0     C24779   3.510  -0.148  11.953  0.4568 -0.9263 -0.4816
  946MOL0     C24780   3.467  -0.288  11.895  0.5276  0.1514  0.0177
  946MOL0     C24781   3.390  -0.369  11.997 -1.0645 -0.2709 -0.4314
  946MOL0     C24782   3.369  -0.513  11.947 -0.0350 -0.3119 -0.4249
  946MOL0     C24783   3.500  -0.592  11.965 -0.6783  0.8873  0.1601
  946MOL0    Cl24784   3.460  -0.764  11.910 -0.1281  0.3494  0.0188
  946MOL0     C24785   4.050   0.083  11.639  1.2384 -0.8887 -0.0912
  946MOL0     C24786   4.157   0.155  11.580  0.7141  0.5126 -0.3674
  946MOL0     O24787   4.203   0.540  11.460  0.1296  0.6021  0.1912
  946MOL0     C24788   4.389   0.631  11.289 -0.3652 -0.5240  0.8710
  946MOL0     C24789   4.486   0.663  11.189 -0.0971 -0.2155 -0.5806
  946MOL0     N24790   5.167   0.714  10.902 -0.2531  0.8720 -0.2200
  946MOL0     N24791   5.259   0.789  10.854  0.0513 -0.4347  0.4015
  946MOL0     C24792   6.113   1.239   9.990 -0.5548  0.1884  0.9495
  946MOL0     C24793   6.163   1.339   9.894 -0.6483  0.5495  0.2262
  946MOL0     C24794   6.280   1.640   9.585 -0.8215  0.7524  0.3271
  946MOL0     C24795   6.401   1.639   9.513  0.5100 -0.7709 -1.0153
  946MOL0     C24796   6.425   1.740   9.415 -0.6070 -0.8377 -0.1231
  946MOL0     C24797   6.322   1.819   9.358 -0.3215 -1.8174  1.9199
  946MOL0     O24798   6.329   1.899   9.242 -0.2469 -0.1287 -0.1392
  946MOL0     C24799   6.461   1.952   9.200 -0.1678 -0.5713 -0.4571
  946MOL0     C24800   6.486   1.867   9.079  0.1766  0.2305 -0.2506
  946MOL0     C24801   6.561   1.941   8.976  0.2272 -0.0549  0.2079
  946MOL0     C24802   6.710   1.902   8.990 -0.5604  0.2183 -0.3854
  946MOL0     C24803   6.794   1.971   8.889 -0.8193  0.6716  0.2328
  946MOL0     C24804   6.861   2.011   8.794 -0.1866  0.0276  0.8230
  946MOL0     C24805   6.200   1.799   9.408 -0.8261  0.4938  0.7072
  946MOL0     C24806   6.181   1.720   9.526 -0.3135  0.0131 -0.0176
  946MOL0     H24807   5.882   1.526   9.862  0.8567  1.2636 -2.0054
  946MOL0     H24808   5.788   1.356   9.999 -0.8351 -2.8651 -1.5415
  946MOL0     H24809   5.764   1.125  10.100 -1.4531  0.2256  1.2214
  946MOL0     H24810   5.817   1.256  10.224  2.3780  0.4324 -0.2596
  946MOL0     H24811   5.924   1.107  10.365  1.2038 -0.4054  0.6142
  946MOL0     H24812   5.910   0.978  10.248  1.6200  0.2281 -0.2051
  946MOL0     H24813   5.770   0.955  10.464  0.6382 -2.2212 -1.0632
  946MOL0     H24814   5.705   0.919  10.305 -1.5257  1.1339 -0.2868
  946MOL0     H24815   5.667   1.197  10.418  1.5720 -1.1038 -0.4713
  946MOL0     H24816   5.572   1.127  10.305 -0.2874 -1.5264  0.4579
  946MOL0     H24817   5.503   1.127  10.583 -0.6994  1.6020 -1.0667
  946MOL0     H24818   5.559   0.959  10.554 -1.6761 -1.1741 -0.5078
  946MOL0     H24819   5.391   0.956  10.349 -2.0380 -2.9220  2.0501
  946MOL0     H24820   5.341   1.113  10.415 -0.9128 -1.0405 -2.3411
  946MOL0     H24821   5.193   0.960  10.475 -0.3893 -0.1507 -0.9466
  946MOL0     H24822   5.313   0.835  10.533  1.9595  0.1746  1.3515
  946MOL0     H24823   5.238   1.070  10.679  2.4808  1.1016  0.5396
  946MOL0     H24824   5.373   1.002  10.727 -0.6138  3.4436 -1.3851
  946MOL0     H24825   5.012   0.871  10.667 -1.6838 -2.3245  2.1269
  946MOL0     H24826   4.874   0.663  10.954 -0.8448  0.7572 -0.7153
  946MOL0     H24827   4.928   0.556  10.823  3.0945 -0.3968  2.1621
  946MOL0     H24828   4.834   0.682  10.668  2.9512  0.6456  0.9560
  946MOL0     H24829   4.823   0.820  10.771 -1.3366 -0.9278  3.2552
  946MOL0     H24830   4.600   0.721  10.733 -1.0239  1.1655  1.4653
  946MOL0     H24831   4.659   0.558  10.782 -2.8616 -0.4232 -0.3871
  946MOL0     H24832   4.507   0.718  10.921 -0.1395 -1.6075 -1.3873
  946MOL0     H24833   4.664   0.797  10.963 -0.5590 -0.3651  0.4866
  946MOL0     H24834   4.620   0.365  11.115 -0.8734  0.5858 -0.1605
  946MOL0     H24835   4.450   0.295  11.289  0.7222  0.0088  2.2078
  946MOL0     H24836   3.993   0.435  11.487 -0.5819 -2.0511 -2.8790
  946MOL0     H24837   3.821   0.333  11.614  0.5087  1.5904 -1.0151
  946MOL0     H24838   3.632   0.157  11.701 -2.5878  2.9557  3.2253
  946MOL0     H24839   3.720   0.245  11.800  1.8282 -0.2496 -0.0086
  946MOL0     H24840   3.577   0.124  11.952  0.4259 -0.3842  1.3202
  946MOL0     H24841   3.731   0.042  11.968 -0.2980  1.4047  0.9963
  946MOL0     H24842   3.665  -0.141  11.817  2.1167  2.1874  1.3977
  946MOL0     H24843   3.509  -0.055  11.780 -2.0824  1.4591  2.3098
  946MOL0     H24844   3.567  -0.162  12.045 -0.6260 -1.2860  0.1547
  946MOL0     H24845   3.425  -0.084  11.979  1.7168  2.0105 -2.9548
  946MOL0     H24846   3.562  -0.336  11.868  0.9667 -0.3014  2.1668
  946MOL0     H24847   3.406  -0.271  11.805 -1.9666  1.8432  1.9036
  946MOL0     H24848   3.300  -0.314  12.026 -0.1867  0.5363  0.9046
  946MOL0     H24849   3.452  -0.363  12.087 -0.5403  0.4737 -0.8257
  946MOL0     H24850   3.296  -0.571  12.004  4.6515 -2.5451  4.0807
  946MOL0     H24851   3.351  -0.521  11.839  0.8571 -0.3926 -0.5748
  946MOL0     H24852   3.533  -0.577  12.068 -3.4497 -0.5534  1.3514
  946MOL0     H24853   3.571  -0.551  11.891 -3.6667  0.7785 -3.0278
  946MOL0     H24854   4.066  -0.021  11.664  2.8690 -0.6788 -0.1052
  946MOL0     H24855   4.252   0.105  11.562  0.0483 -1.2285  0.8056
  946MOL0     H24856   4.334   0.710  11.339  1.6988 -0.1642  2.7451
  946MOL0     H24857   4.501   0.766  11.157  0.3311 -0.6620 -1.9114
  946MOL0     H24858   6.193   1.175  10.027  0.8655  2.3940  1.9625
  946MOL0     H24859   6.269   1.332   9.871 -0.8540 -0.1756 -0.5495
  946MOL0     H24860   6.488   1.586   9.548  0.9188 -0.0994 -1.0012
  946MOL0     H24861   6.520   1.744   9.362 -0.7431  1.9562 -0.3069
  946MOL0     H24862   6.530   1.954   9.285 -1.1075  3.2230  0.3834
  946MOL0     H24863   6.440   2.055   9.170 -4.6406 -1.5926 -1.5200
  946MOL0     H24864   6.536   1.777   9.114  0.3499  0.7289  0.8288
  946MOL0     H24865   6.389   1.840   9.038 -1.5735  0.2370  3.4874
  946MOL0     H24866   6.548   2.048   8.996  1.8682  0.4284 -1.0580
  946MOL0     H24867   6.521   1.913   8.878  3.0294  1.9329 -1.6639
  946MOL0     H24868   6.748   1.934   9.088  1.9441 -5.5727  0.9311
  946MOL0     H24869   6.726   1.794   8.994  6.6623  0.8288  0.7634
  946MOL0     H24870   6.909   2.035   8.701 -1.8982 -0.7947 -0.3128
  946MOL0     H24871   6.126   1.859   9.356 -2.6616 -1.5374  0.8470
  946MOL0     H24872   6.083   1.704   9.569 -0.9484  1.7546 -0.7231
  947MOL0     O24873   6.309   2.624   6.189  1.3635  0.4610  0.4912
  947MOL0     C24874   6.415   2.583   6.232 -0.8542 -0.4098  0.5204
  947MOL0     O24875   6.460   2.605   6.349 -0.2337  0.4209 -0.3608
  947MOL0     C24876   6.377   2.668   6.445  0.7654  0.1708  0.2374
  947MOL0     C24877   6.248   2.625   6.470  0.9656 -0.1869  0.6273
  947MOL0     C24878   6.170   2.701   6.560  0.4473  0.5533 -1.1872
  947MOL0     C24879   6.217   2.815   6.623  0.4925  0.5096 -0.4838
  947MOL0     O24880   6.120   2.873   6.712  0.8760  0.1322 -0.8365
  947MOL0     C24881   6.162   2.941   6.822 -0.3001 -0.8098  0.6150
  947MOL0     C24882   6.037   2.961   6.918  0.2734 -0.0065  0.0412
  947MOL0     C24883   5.981   2.812   6.944 -0.0649  0.8611  0.1175
  947MOL0     C24884   6.057   2.762   7.066 -0.2781 -0.5471  1.0317
  947MOL0     C24885   6.017   2.618   7.104 -0.0037 -0.2934 -0.3712
  947MOL0     C24886   5.877   2.605   7.156 -0.3431  0.2414 -0.5217
  947MOL0     C24887   5.853   2.454   7.195  0.5739  0.1420  0.2951
  947MOL0     C24888   5.946   2.391   7.291 -0.4637 -0.6854 -0.3516
  947MOL0     N24889   5.962   2.463   7.423 -0.9080 -0.2822 -0.2074
  947MOL0     C24890   5.922   2.404   7.542 -0.4146 -0.2147  0.2897
  947MOL0     C24891   5.988   2.476   7.633 -1.2280  0.2176 -0.0699
  947MOL0     C24892   6.004   2.421   7.776  0.2306 -0.2429  0.2139
  947MOL0     C24893   5.918   2.494   7.880  0.4019 -0.1067  0.5715
  947MOL0     C24894   5.914   2.646   7.880 -0.6647  0.3871  0.0441
  947MOL0     C24895   5.830   2.699   7.993  0.6731 -0.1054  0.2789
  947MOL0     O24896   5.694   2.646   7.969 -0.8547  1.0837  0.4713
  947MOL0     C24897   5.596   2.741   7.964 -0.6882 -0.4214 -0.4761
  947MOL0     C24898   5.586   2.858   8.047 -1.0871 -0.3876 -1.2533
  947MOL0     C24899   5.481   2.949   8.031  0.2285  0.8371  1.2101
  947MOL0     C24900   5.363   2.910   7.955  0.0211  0.1371 -0.2004
  947MOL0     C24901   5.242   2.994   7.957  1.0987 -0.0132 -0.2588
  947MOL0     O24902   5.125   2.941   7.893  0.0373 -0.6380 -0.2198
  947MOL0     C24903   5.014   3.014   7.894  0.0103  0.3835  0.2339
  947MOL0     C24904   4.948   3.039   8.013  0.6439  0.2651 -0.5605
  947MOL0     C24905   4.827   3.118   8.020  0.4019  0.7644 -0.3220
  947MOL0     C24906   4.778   3.170   7.898  1.1367  0.7120 -0.8665
  947MOL0     O24907   4.675   3.256   7.905 -0.0869  0.2322  0.2844
  947MOL0     C24908   4.584   3.270   7.793  0.0417  1.1862  0.5700
  947MOL0     C24909   4.439   3.303   7.853 -0.0964  0.1258  0.5433
  947MOL0     C24910   4.421   3.456   7.861 -0.2005 -0.6401 -0.4489
  947MOL0     C24911   4.502   3.526   7.977  0.0194 -1.0942  0.4023
  947MOL0     C24912   4.445   3.662   8.029  0.6708 -0.0895 -0.6781
  947MOL0     C24913   4.322   3.651   8.128 -0.4753 -0.6106  0.4857
  947MOL0     C24914   4.267   3.802   8.151 -0.0783  0.0029  0.1753
  947MOL0     C24915   4.363   3.895   8.228 -0.4136 -0.3381  0.0134
  947MOL0    Cl24916   4.461   3.816   8.365 -0.6258 -0.3663 -0.3113
  947MOL0     C24917   4.843   3.142   7.773  0.3582  0.0051 -0.0901
  947MOL0     C24918   4.961   3.064   7.774  0.7602 -0.3936 -0.3637
  947MOL0     O24919   5.246   3.103   8.011  0.4959 -0.4867 -0.3572
  947MOL0     C24920   5.374   2.795   7.881  0.0731  0.0251  0.4580
  947MOL0     C24921   5.479   2.714   7.885 -0.3679 -0.0384 -0.2622
  947MOL0     N24922   6.043   2.585   7.570  0.0649 -0.2140 -1.2069
  947MOL0     N24923   6.031   2.578   7.444 -0.5723  0.6524  0.3625
  947MOL0     C24924   6.349   2.851   6.606 -0.0148  0.1685  0.7523
  947MOL0     C24925   6.423   2.777   6.514  0.1338 -0.2559 -0.5593
  947MOL0     C24926   6.496   2.496   6.142 -0.2619  0.2366 -0.0785
  947MOL0     C24927   6.490   2.510   6.005  0.6364 -0.2696  0.2845
  947MOL0     C24928   6.552   2.426   5.917  0.1692  0.4667  0.2387
  947MOL0     C24929   6.618   2.313   5.962 -0.1387 -0.8050 -0.2690
  947MOL0     O24930   6.674   2.222   5.877  0.7128 -1.1855  0.3350
  947MOL0     C24931   6.600   2.102   5.873 -0.3194 -0.0422  1.6242
  947MOL0     C24932   6.634   2.004   5.763  0.1157  0.9440  0.0035
  947MOL0     C24933   6.620   2.064   5.627  0.0443  0.0388 -0.7125
  947MOL0     C24934   6.620   1.955   5.515 -0.6297 -0.2889  0.2961
  947MOL0     C24935   6.619   2.017   5.381 -0.2033  0.0260  0.1152
  947MOL0     C24936   6.611   2.071   5.270  0.6362 -0.2922  0.6292
  947MOL0     C24937   6.626   2.300   6.103  0.0625 -0.3954  0.3186
  947MOL0     C24938   6.572   2.391   6.188  0.2026 -0.4347  0.3332
  947MOL0     H24939   6.214   2.528   6.434  2.5641 -1.1354  1.5506
  947MOL0     H24940   6.076   2.651   6.576  0.9884 -0.3282 -0.6652
  947MOL0     H24941   6.213   3.035   6.798  3.4068 -1.6429  4.2063
  947MOL0     H24942   6.233   2.879   6.877  1.8843 -2.6176 -3.7140
  947MOL0     H24943   5.962   3.017   6.862  0.9860  0.9132 -0.0197
  947MOL0     H24944   6.060   3.013   7.011  0.6671 -1.4689  0.7944
  947MOL0     H24945   6.006   2.746   6.861 -1.1479 -1.3670  1.4630
  947MOL0     H24946   5.872   2.811   6.957 -0.0920  2.1072  0.1468
  947MOL0     H24947   6.162   2.756   7.035 -1.3436 -0.5114 -3.2234
  947MOL0     H24948   6.039   2.834   7.146  0.0695  1.6149 -0.7512
  947MOL0     H24949   6.096   2.583   7.172  0.3910  0.9584 -0.1652
  947MOL0     H24950   6.024   2.541   7.026  1.2173  1.6248 -2.2445
  947MOL0     H24951   5.810   2.625   7.072 -0.2201 -2.4095 -1.3466
  947MOL0     H24952   5.865   2.666   7.246 -2.0255  0.6845 -0.9992
  947MOL0     H24953   5.751   2.449   7.232  0.3402 -0.1433 -0.3802
  947MOL0     H24954   5.854   2.394   7.103  1.0504  2.8879 -1.6319
  947MOL0     H24955   6.049   2.375   7.256  0.7297  0.3471  2.3476
  947MOL0     H24956   5.910   2.289   7.305  1.2374 -1.2948 -0.0984
  947MOL0     H24957   5.874   2.308   7.559 -0.1491 -0.1882  1.2631
  947MOL0     H24958   6.105   2.434   7.815  0.4208  0.5609 -0.5033
  947MOL0     H24959   5.992   2.313   7.768  2.7301 -0.5334 -6.5246
  947MOL0     H24960   5.942   2.461   7.982 -3.8991 -3.6009  0.7625
  947MOL0     H24961   5.822   2.445   7.862  0.1154 -0.5871  3.0485
  947MOL0     H24962   6.017   2.682   7.893 -0.7196  0.0791  1.5403
  947MOL0     H24963   5.873   2.669   7.781  0.6556  0.3671 -0.5307
  947MOL0     H24964   5.831   2.807   7.976  2.4554 -0.2338 -0.6184
  947MOL0     H24965   5.875   2.672   8.088  2.6335 -2.1012 -1.1143
  947MOL0     H24966   5.670   2.870   8.114 -2.0042 -3.3692  0.6643
  947MOL0     H24967   5.477   3.042   8.086 -0.9811  0.8981  1.0384
  947MOL0     H24968   4.986   3.002   8.108 -1.2870  1.0681  0.5890
  947MOL0     H24969   4.782   3.150   8.113 -0.1433  1.6393 -0.8728
  947MOL0     H24970   4.572   3.187   7.723  0.6042  0.3326  1.4550
  947MOL0     H24971   4.623   3.351   7.731  3.2787 -1.1546 -0.8041
  947MOL0     H24972   4.415   3.252   7.946  1.9026  0.3382  1.2298
  947MOL0     H24973   4.372   3.258   7.780  3.3134 -0.7524 -2.3579
  947MOL0     H24974   4.316   3.466   7.889  0.2905  0.8980  1.0301
  947MOL0     H24975   4.450   3.502   7.765  0.0504  1.8965  0.7545
  947MOL0     H24976   4.503   3.467   8.070  0.0449 -2.8368 -0.6561
  947MOL0     H24977   4.601   3.547   7.937 -0.3786  0.1207  0.0003
  947MOL0     H24978   4.427   3.739   7.953  0.4321  2.4921  1.8546
  947MOL0     H24979   4.523   3.704   8.091 -1.7887  2.7377  0.7378
  947MOL0     H24980   4.351   3.616   8.227  1.1639 -1.8622 -0.3850
  947MOL0     H24981   4.245   3.592   8.075 -4.7163  2.5469  2.5323
  947MOL0     H24982   4.262   3.859   8.058  0.3042  1.3509  0.9486
  947MOL0     H24983   4.165   3.799   8.189  0.0442  0.1310  0.5229
  947MOL0     H24984   4.312   3.989   8.250 -0.8451 -0.5969  0.1256
  947MOL0     H24985   4.443   3.911   8.154 -0.2317  1.7365  0.5905
  947MOL0     H24986   4.815   3.179   7.675 -1.1329 -0.7008  0.0467
  947MOL0     H24987   5.016   3.025   7.689 -1.0680  0.0933 -1.8407
  947MOL0     H24988   5.294   2.775   7.810 -0.8512 -1.4051  1.8506
  947MOL0     H24989   5.475   2.621   7.829  0.4573  1.7719 -3.6381
  947MOL0     H24990   6.386   2.931   6.669  2.5283 -0.7692  0.5648
  947MOL0     H24991   6.528   2.800   6.501  0.1526 -0.8911 -1.6221
  947MOL0     H24992   6.426   2.584   5.958  1.0185 -0.3447 -0.3616
  947MOL0     H24993   6.546   2.452   5.812 -0.2326  0.2504  0.2029
  947MOL0     H24994   6.499   2.124   5.835  1.2132  0.4808 -2.7052
  947MOL0     H24995   6.605   2.045   5.966  0.9202  0.8398  2.1162
  947MOL0     H24996   6.734   1.963   5.772  0.4327  1.8374  0.7046
  947MOL0     H24997   6.569   1.916   5.769  1.3054  0.0375 -0.0784
  947MOL0     H24998   6.695   2.140   5.604 -0.1110  0.1653 -0.8044
  947MOL0     H24999   6.524   2.116   5.623 -1.0348 -1.5503  1.8306
  947MOL0     H25000   6.709   1.891   5.511 -0.3657  0.0751  0.3475
  947MOL0     H25001   6.529   1.895   5.526 -3.3404  3.6960  1.5364
  947MOL0     H25002   6.616   2.103   5.168  1.3820  3.6224  1.7533
  947MOL0     H25003   6.684   2.213   6.131 -2.8916 -2.0156  1.9592
  947MOL0     H25004   6.568   2.372   6.295  0.3067 -1.5494  0.1473
  948MOL0     O25005   2.042   1.122  11.125 -0.5228  1.0710 -1.0813
  948MOL0     C25006   2.168   1.112  11.135 -0.1280 -0.4494  0.3419
  948MOL0     O25007   2.236   1.016  11.207  0.0327 -0.2834 -0.3461
  948MOL0     C25008   2.178   0.918  11.273 -0.0922  0.0557  0.1390
  948MOL0     C25009   2.068   0.939  11.357 -0.9003  0.1882  0.1066
  948MOL0     C25010   2.001   0.827  11.403  0.0862  0.0694 -0.4722
  948MOL0     C25011   2.037   0.694  11.361 -0.0288  0.5544  0.3284
  948MOL0     O25012   1.966   0.578  11.390 -0.3454  0.0310 -0.2864
  948MOL0     C25013   1.939   0.495  11.276 -0.0524 -0.2051 -0.3291
  948MOL0     C25014   1.878   0.380  11.339  0.0736  0.2119  0.4233
  948MOL0     C25015   1.728   0.396  11.378  0.4516 -0.1806 -0.2993
  948MOL0     C25016   1.676   0.275  11.463  0.7198  0.6491 -0.2457
  948MOL0     C25017   1.629   0.158  11.373 -0.0542 -0.5244 -0.6534
  948MOL0     C25018   1.508   0.087  11.430  1.0079  0.2229  0.1512
  948MOL0     C25019   1.535   0.035  11.572 -0.3411 -0.5521 -0.8262
  948MOL0     C25020   1.648  -0.060  11.579 -1.0849 -0.0212  0.0907
  948MOL0     N25021   1.672  -0.114  11.714  0.2422 -0.5084 -0.6018
  948MOL0     C25022   1.721  -0.049  11.820 -0.8628 -0.3743  0.1276
  948MOL0     C25023   1.729  -0.139  11.927  0.4057 -0.7025 -0.0241
  948MOL0     C25024   1.791  -0.113  12.067  0.1619  0.1479 -0.4890
  948MOL0     C25025   1.831  -0.239  12.139 -0.0812  0.2418 -0.8484
  948MOL0     C25026   1.713  -0.330  12.183  0.2748 -0.4946  0.0261
  948MOL0     C25027   1.613  -0.268  12.276 -0.8084  0.5457  1.3994
  948MOL0     O25028   1.683  -0.188  12.382 -0.1174  0.9145 -0.6522
  948MOL0     C25029   1.650  -0.055  12.371  0.5120 -0.1143 -0.2297
  948MOL0     C25030   1.517  -0.005  12.367 -0.1412 -0.0744  1.3085
  948MOL0     C25031   1.489   0.132  12.359  0.2341 -1.4526  0.9781
  948MOL0     C25032   1.590   0.233  12.356  0.0939 -0.8506  0.2142
  948MOL0     C25033   1.563   0.381  12.347  0.4465  0.3012 -0.3524
  948MOL0     O25034   1.426   0.410  12.368  0.3016 -0.4547 -0.0641
  948MOL0     C25035   1.382   0.540  12.382 -0.2481 -0.6668  0.2121
  948MOL0     C25036   1.311   0.565  12.499  0.3324  0.2861 -1.1535
  948MOL0     C25037   1.246   0.687  12.524  0.3512  0.0286  0.2578
  948MOL0     C25038   1.253   0.792  12.433  0.8436  1.5163  1.6807
  948MOL0     O25039   1.191   0.912  12.463  0.3531 -0.8207 -0.4553
  948MOL0     C25040   1.137   0.983  12.353  0.1714  1.1265 -0.4960
  948MOL0     C25041   1.038   0.910  12.258 -1.3032  0.3056 -0.1711
  948MOL0     C25042   0.995   1.010  12.149 -0.5847 -0.2618  0.3644
  948MOL0     C25043   0.869   0.943  12.089 -0.0883 -0.4715 -0.0066
  948MOL0     C25044   0.797   1.014  11.977 -0.4364 -0.2162 -0.8888
  948MOL0     C25045   0.885   1.025  11.858 -0.0972  0.0817  0.3177
  948MOL0     C25046   0.921   0.896  11.780 -0.1805  0.6642  0.4586
  948MOL0     C25047   1.066   0.898  11.722  0.2676  0.3008 -0.7563
  948MOL0    Cl25048   1.088   1.058  11.642 -0.4378 -0.3981 -0.0014
  948MOL0     C25049   1.323   0.756  12.309 -0.4665 -0.2457 -0.4075
  948MOL0     C25050   1.386   0.636  12.283 -0.2766 -0.5789 -0.4348
  948MOL0     O25051   1.653   0.458  12.317  0.4901 -0.0390 -0.1288
  948MOL0     C25052   1.722   0.184  12.361  0.5098  1.0222 -0.4684
  948MOL0     C25053   1.745   0.040  12.384  0.1359 -0.7463 -0.8696
  948MOL0     N25054   1.665  -0.264  11.880 -1.0741 -0.3846  1.0667
  948MOL0     N25055   1.632  -0.239  11.756 -0.2998 -0.1610 -0.6257
  948MOL0     C25056   2.145   0.677  11.261 -0.9862  0.5671 -0.7073
  948MOL0     C25057   2.209   0.789  11.223 -0.1116 -0.0683  0.8351
  948MOL0     C25058   2.247   1.207  11.043  0.4480  0.6324 -0.4594
  948MOL0     C25059   2.383   1.169  11.027 -0.9560 -0.8225  1.1613
  948MOL0     C25060   2.463   1.254  10.948  0.4112  0.3110 -0.5357
  948MOL0     C25061   2.405   1.346  10.865 -0.2038 -0.1748  0.8698
  948MOL0     O25062   2.499   1.406  10.787  0.2824 -0.6699 -0.5408
  948MOL0     C25063   2.455   1.507  10.688  0.6111  0.3941 -0.0500
  948MOL0     C25064   2.550   1.510  10.574 -0.1283  0.4789 -0.0330
  948MOL0     C25065   2.699   1.522  10.616 -1.0725 -0.1454 -0.7809
  948MOL0     C25066   2.800   1.555  10.506 -0.0683  0.3411  0.4311
  948MOL0     C25067   2.930   1.586  10.570 -0.2624 -0.3447 -0.1415
  948MOL0     C25068   3.040   1.577  10.624  0.1110 -0.7612  0.1775
  948MOL0     C25069   2.279   1.390  10.888 -0.1783  0.1166  0.1413
  948MOL0     C25070   2.196   1.322  10.978  0.2502 -0.5218 -0.5071
  948MOL0     H25071   2.051   1.041  11.390  2.2504  0.8827 -0.1124
  948MOL0     H25072   1.915   0.838  11.468  2.4730 -2.1697  3.3842
  948MOL0     H25073   2.031   0.448  11.242 -0.5969  0.1167 -2.3977
  948MOL0     H25074   1.883   0.539  11.192 -0.3755 -0.8033 -0.4290
  948MOL0     H25075   1.925   0.350  11.432 -1.1121 -1.1639  0.6139
  948MOL0     H25076   1.899   0.294  11.274 -1.1340  1.0213 -1.1110
  948MOL0     H25077   1.668   0.425  11.291  0.5235 -1.0076 -0.6379
  948MOL0     H25078   1.725   0.481  11.447 -2.3840  1.0245 -1.7645
  948MOL0     H25079   1.746   0.235  11.537  0.1377 -0.6283 -0.3708
  948MOL0     H25080   1.592   0.322  11.516  0.3255 -0.0243 -0.2731
  948MOL0     H25081   1.722   0.101  11.366  1.8989  2.3419  0.1665
  948MOL0     H25082   1.598   0.192  11.274 -0.8168 -0.9169 -0.5587
  948MOL0     H25083   1.490   0.009  11.354 -1.0286 -1.5519  2.3252
  948MOL0     H25084   1.422   0.154  11.434  0.4698 -0.3999 -0.6781
  948MOL0     H25085   1.556   0.109  11.650 -2.8859 -2.6347  2.0796
  948MOL0     H25086   1.438  -0.004  11.604 -0.1616 -0.1572  0.2300
  948MOL0     H25087   1.740  -0.006  11.555 -0.0047 -0.8840  2.0011
  948MOL0     H25088   1.647  -0.144  11.509  1.7044 -0.2140  0.1482
  948MOL0     H25089   1.752   0.055  11.822 -2.7171  0.2413 -0.7229
  948MOL0     H25090   1.725  -0.044  12.120 -0.5857 -1.3704  0.6267
  948MOL0     H25091   1.886  -0.063  12.049  0.4722  0.1976  1.1599
  948MOL0     H25092   1.892  -0.224  12.229  0.7812 -1.4179 -1.1368
  948MOL0     H25093   1.907  -0.284  12.076  2.4988  2.1438  0.7181
  948MOL0     H25094   1.671  -0.362  12.087  1.3781  2.4013 -1.5625
  948MOL0     H25095   1.764  -0.417  12.225 -0.7194 -0.5034  1.2751
  948MOL0     H25096   1.553  -0.355  12.306 -0.4317 -1.2753 -2.5723
  948MOL0     H25097   1.547  -0.212  12.210  2.5135  1.4861 -1.4065
  948MOL0     H25098   1.440  -0.082  12.368 -0.3231  0.0776  0.1146
  948MOL0     H25099   1.389   0.166  12.332  1.0620 -1.0563 -2.0471
  948MOL0     H25100   1.306   0.491  12.579  2.2296  2.7660  1.4627
  948MOL0     H25101   1.183   0.701  12.611 -1.2305  0.4115 -0.8981
  948MOL0     H25102   1.212   1.033  12.292 -0.0633 -1.2830 -2.9594
  948MOL0     H25103   1.079   1.056  12.410 -1.1995  1.2626 -2.0139
  948MOL0     H25104   0.954   0.876  12.319  0.1080  0.6779  2.0913
  948MOL0     H25105   1.076   0.818  12.212 -2.0848 -0.2985  0.3640
  948MOL0     H25106   1.079   1.018  12.079 -1.4716 -0.1302 -0.7110
  948MOL0     H25107   0.979   1.103  12.204  4.5352  0.8082  0.5904
  948MOL0     H25108   0.900   0.844  12.053  0.8701 -0.8470  1.7222
  948MOL0     H25109   0.786   0.927  12.158 -2.2575 -0.7613 -2.5412
  948MOL0     H25110   0.775   1.114  12.014 -0.8383 -0.3758 -0.6889
  948MOL0     H25111   0.704   0.966  11.945 -1.7042  1.7908 -0.3796
  948MOL0     H25112   0.972   1.079  11.897 -3.8319  4.1695  4.2893
  948MOL0     H25113   0.816   1.085  11.798 -0.6068 -2.0948 -1.3484
  948MOL0     H25114   0.889   0.803  11.829 -2.0412  1.5432  1.0345
  948MOL0     H25115   0.845   0.907  11.702 -1.1632  0.5785  1.3702
  948MOL0     H25116   1.085   0.816  11.652  0.1353 -1.0089  0.6864
  948MOL0     H25117   1.139   0.879  11.802 -0.0981  2.7176  0.2330
  948MOL0     H25118   1.329   0.828  12.228 -1.5573  2.5327  1.8176
  948MOL0     H25119   1.439   0.618  12.190  1.8298  2.6213  0.0049
  948MOL0     H25120   1.806   0.253  12.365  0.7591  0.9305 -2.6567
  948MOL0     H25121   1.843   0.004  12.413  1.4163  2.4242 -0.9181
  948MOL0     H25122   2.179   0.576  11.241 -0.8897 -0.2065  2.7149
  948MOL0     H25123   2.276   0.784  11.138 -1.0722 -1.9576  0.1415
  948MOL0     H25124   2.429   1.085  11.078 -0.7462 -0.3582  1.7515
  948MOL0     H25125   2.567   1.225  10.935  0.2274 -0.3126 -0.6089
  948MOL0     H25126   2.439   1.605  10.735  0.1000 -0.0968  0.8327
  948MOL0     H25127   2.357   1.476  10.652  0.2707 -0.8968  1.8359
  948MOL0     H25128   2.524   1.422  10.515 -1.3742  0.3834  0.6279
  948MOL0     H25129   2.525   1.597  10.512  0.6878  0.4093 -0.4650
  948MOL0     H25130   2.741   1.447  10.684 -2.6604  3.0259  4.2373
  948MOL0     H25131   2.701   1.610  10.682 -1.4360  0.3182 -1.3824
  948MOL0     H25132   2.823   1.472  10.439 -0.9817  0.3022  0.1551
  948MOL0     H25133   2.769   1.636  10.438 -1.3592 -1.7889 -1.6647
  948MOL0     H25134   3.128   1.560  10.683 -0.1487  0.5928  0.9990
  948MOL0     H25135   2.249   1.479  10.832  0.2143 -1.0235 -1.9885
  948MOL0     H25136   2.093   1.355  10.989 -0.4279 -2.1794 -1.4919
  949MOL0     O25137   7.456   8.901   6.542  0.1131 -0.4403  1.0813
  949MOL0     C25138   7.460   8.907   6.666  0.0595 -1.0662  0.4694
  949MOL0     O25139   7.370   8.862   6.755 -0.5579  0.4891 -0.0772
  949MOL0     C25140   7.250   8.805   6.720 -0.0899 -0.7741 -0.2743
  949MOL0     C25141   7.173   8.872   6.619 -0.5207  1.2851  0.2204
  949MOL0     C25142   7.054   8.813   6.574 -0.5657  0.2753  0.0598
  949MOL0     C25143   7.005   8.692   6.628  0.1239  0.6573  0.4931
  949MOL0     O25144   6.883   8.630   6.599  0.0532 -0.1056 -0.3779
  949MOL0     C25145   6.827   8.634   6.468 -0.4613 -0.9262  0.4657
  949MOL0     C25146   6.909   8.563   6.369  0.3655  0.4091  0.2047
  949MOL0     C25147   6.890   8.597   6.224 -0.5527  0.1397 -0.0796
  949MOL0     C25148   6.745   8.575   6.185 -0.3388  0.1359  0.3556
  949MOL0     C25149   6.738   8.598   6.027  0.9452  0.4818  0.4605
  949MOL0     C25150   6.831   8.504   5.942  0.0151  0.7790  0.0948
  949MOL0     C25151   6.810   8.353   5.987  0.0477  1.3848  0.4774
  949MOL0     C25152   6.914   8.259   5.909 -0.0958 -0.1827  0.3416
  949MOL0     N25153   7.053   8.311   5.922 -0.0470 -0.1200  0.1984
  949MOL0     C25154   7.120   8.319   6.038  0.3467  0.1093 -0.1122
  949MOL0     C25155   7.247   8.345   6.012 -0.8874  0.5163 -0.0319
  949MOL0     C25156   7.355   8.373   6.103 -0.0046  1.2178  0.1053
  949MOL0     C25157   7.365   8.517   6.157 -0.9584 -0.9135 -0.4305
  949MOL0     C25158   7.267   8.548   6.273 -0.0239 -0.5579 -0.8859
  949MOL0     C25159   7.319   8.502   6.415 -0.0697  0.3517 -0.3195
  949MOL0     O25160   7.456   8.544   6.444  0.8928 -0.2736  0.3789
  949MOL0     C25161   7.505   8.541   6.574 -0.1716 -0.6787  0.5055
  949MOL0     C25162   7.434   8.493   6.680  0.0587  0.0362 -0.5174
  949MOL0     C25163   7.485   8.488   6.810  0.3416 -0.9540  0.1137
  949MOL0     C25164   7.607   8.549   6.844  0.1151 -0.1419 -0.1822
  949MOL0     C25165   7.645   8.569   6.983 -0.9519 -0.3142  0.2311
  949MOL0     O25166   7.722   8.678   7.014 -0.0255  1.5291 -0.5702
  949MOL0     C25167   7.743   8.723   7.143 -1.0788 -0.5442  0.2038
  949MOL0     C25168   7.838   8.826   7.171 -0.3572 -0.8785  0.7161
  949MOL0     C25169   7.842   8.879   7.297  0.0299 -0.4212  0.0350
  949MOL0     C25170   7.773   8.820   7.405  0.9470  0.0544 -0.5073
  949MOL0     O25171   7.760   8.875   7.529  0.7684  0.2464 -0.2998
  949MOL0     C25172   7.861   8.978   7.573  0.4212 -0.0488  0.1460
  949MOL0     C25173   7.819   9.031   7.714  0.3830  0.7493 -0.0803
  949MOL0     C25174   7.929   9.111   7.774  0.0585  1.0004  1.2046
  949MOL0     C25175   7.904   9.150   7.918 -0.5000 -0.0341  0.6991
  949MOL0     C25176   8.022   9.177   8.003  0.5737 -0.5731 -0.7659
  949MOL0     C25177   7.976   9.197   8.149 -0.8171  0.0093 -1.4288
  949MOL0     C25178   8.014   9.333   8.219  1.5324  0.7657 -0.0239
  949MOL0     C25179   7.987   9.320   8.369 -1.2625  0.0904 -0.1032
  949MOL0    Cl25180   7.818   9.297   8.412 -0.0070 -0.2631  0.9504
  949MOL0     C25181   7.691   8.710   7.382  0.1758 -0.0439  0.6724
  949MOL0     C25182   7.671   8.672   7.254 -0.5578 -0.1284 -0.3006
  949MOL0     O25183   7.617   8.480   7.055  0.3383 -0.0598  0.5387
  949MOL0     C25184   7.681   8.612   6.736  0.4231 -0.0465 -1.0054
  949MOL0     C25185   7.628   8.607   6.603 -0.3087  0.4356 -0.4211
  949MOL0     N25186   7.254   8.372   5.873  0.4175 -0.8175 -0.1018
  949MOL0     N25187   7.141   8.351   5.820  0.2209  0.2598  0.0082
  949MOL0     C25188   7.076   8.642   6.735  0.7134 -0.2169 -0.0609
  949MOL0     C25189   7.192   8.694   6.776 -0.0808 -0.2643  0.2795
  949MOL0     C25190   7.573   8.973   6.730  0.5182  0.2063  0.5296
  949MOL0     C25191   7.691   8.999   6.654  1.1186  0.9043  0.1127
  949MOL0     C25192   7.800   9.053   6.717 -0.7318 -0.4941 -0.5309
  949MOL0     C25193   7.808   9.085   6.853 -0.4740 -0.9434  0.4058
  949MOL0     O25194   7.916   9.162   6.896 -0.5969  0.0460  0.0193
  949MOL0     C25195   7.917   9.200   7.037 -0.6848 -0.1735  0.5903
  949MOL0     C25196   8.059   9.215   7.088 -0.0878 -0.8323 -0.3053
  949MOL0     C25197   8.134   9.329   7.029  0.4982  0.2451  0.2695
  949MOL0     C25198   8.278   9.352   7.093  0.6862  0.7342 -0.4069
  949MOL0     C25199   8.357   9.452   7.034 -0.0886 -0.2654  0.0963
  949MOL0     C25200   8.406   9.557   6.996  1.0051 -0.0986  0.0680
  949MOL0     C25201   7.691   9.060   6.925  0.1757  0.4005  0.3341
  949MOL0     C25202   7.575   8.997   6.871  0.5451  0.3564  0.3885
  949MOL0     H25203   7.202   8.969   6.580 -1.4174  1.8481  0.9265
  949MOL0     H25204   6.998   8.862   6.495 -0.5315  1.2103  0.6025
  949MOL0     H25205   6.837   8.736   6.429  3.9930 -1.8089 -1.4122
  949MOL0     H25206   6.721   8.610   6.468 -0.3149 -1.7087  2.2256
  949MOL0     H25207   6.883   8.457   6.378 -3.7192  0.8762 -3.0262
  949MOL0     H25208   7.014   8.577   6.398  0.3983  1.3405 -0.3270
  949MOL0     H25209   6.966   8.534   6.176 -0.0220  0.5051  0.2626
  949MOL0     H25210   6.897   8.706   6.217  1.6821  0.0995  0.6012
  949MOL0     H25211   6.711   8.474   6.209  0.1548 -0.0127  0.4462
  949MOL0     H25212   6.671   8.642   6.229  0.4314 -0.7470  3.1950
  949MOL0     H25213   6.768   8.699   5.998 -1.2161  0.4851 -2.0584
  949MOL0     H25214   6.636   8.586   5.991  1.7393 -1.7002 -1.2736
  949MOL0     H25215   6.935   8.531   5.956  0.3645 -1.2634  1.9930
  949MOL0     H25216   6.803   8.515   5.837 -1.4761  0.4362  0.4306
  949MOL0     H25217   6.822   8.346   6.096 -3.0234  1.0875  0.8813
  949MOL0     H25218   6.714   8.313   5.955  1.2229 -0.7207 -0.6953
  949MOL0     H25219   6.892   8.240   5.803  1.7627 -1.8575  0.1984
  949MOL0     H25220   6.909   8.163   5.961 -1.1137  0.2733  1.1122
  949MOL0     H25221   7.092   8.308   6.142  2.8355  0.6104  0.6797
  949MOL0     H25222   7.440   8.338   6.044 -0.8297 -2.9412  1.0697
  949MOL0     H25223   7.356   8.313   6.195  1.0716  1.3378  0.1827
  949MOL0     H25224   7.332   8.580   6.074 -1.5846 -2.7637 -1.6332
  949MOL0     H25225   7.461   8.563   6.183 -2.4988  2.8516 -0.6748
  949MOL0     H25226   7.264   8.658   6.279  1.3221 -0.5679  1.9187
  949MOL0     H25227   7.165   8.512   6.257  0.9850 -3.0406 -2.1911
  949MOL0     H25228   7.306   8.394   6.419  1.1439  0.1336 -1.5096
  949MOL0     H25229   7.246   8.533   6.490  1.7251  3.2649  0.3861
  949MOL0     H25230   7.338   8.446   6.664 -0.2714  0.5218 -0.0096
  949MOL0     H25231   7.430   8.434   6.886  0.2592  0.8994  1.4430
  949MOL0     H25232   7.900   8.861   7.089  0.4127  0.4796  1.8428
  949MOL0     H25233   7.916   8.956   7.314 -0.7844  0.2139  0.7954
  949MOL0     H25234   7.861   9.063   7.504 -3.4544 -0.1338 -0.2044
  949MOL0     H25235   7.963   8.940   7.582  0.2990 -0.5651 -0.5949
  949MOL0     H25236   7.807   8.937   7.769  0.8806  1.8313  2.0034
  949MOL0     H25237   7.719   9.074   7.719 -0.9146 -2.1441  0.9490
  949MOL0     H25238   7.948   9.196   7.708 -2.9416  1.3089  0.5755
  949MOL0     H25239   8.022   9.053   7.768 -0.7556 -0.2542 -0.4771
  949MOL0     H25240   7.845   9.241   7.904  1.3657  1.1406  0.1600
  949MOL0     H25241   7.838   9.081   7.971 -0.3693  0.5845  1.6829
  949MOL0     H25242   8.078   9.267   7.977  1.0701 -0.3319  1.0219
  949MOL0     H25243   8.074   9.082   8.000 -3.0861 -3.2015  4.1420
  949MOL0     H25244   8.030   9.122   8.208 -3.7544  1.0564  3.1346
  949MOL0     H25245   7.875   9.163   8.175 -0.0484 -0.4227  1.3719
  949MOL0     H25246   8.122   9.345   8.219  1.4460  1.8653 -1.8655
  949MOL0     H25247   7.963   9.425   8.189  0.2503  0.5334  1.2683
  949MOL0     H25248   8.033   9.409   8.412 -1.9257 -0.2375  1.3507
  949MOL0     H25249   8.038   9.229   8.403 -1.2322  0.3690  0.6214
  949MOL0     H25250   7.634   8.663   7.462 -1.0689  2.5781  1.4418
  949MOL0     H25251   7.599   8.591   7.246 -1.4151  0.7748 -4.3648
  949MOL0     H25252   7.775   8.664   6.752  0.1211  0.0911  0.4576
  949MOL0     H25253   7.686   8.662   6.530  1.4651 -0.3012  0.3744
  949MOL0     H25254   7.045   8.552   6.788  2.3437 -0.5176  0.4338
  949MOL0     H25255   7.248   8.632   6.846  0.0906  0.8421  1.1423
  949MOL0     H25256   7.692   8.972   6.549 -0.5953  1.8001 -0.1732
  949MOL0     H25257   7.891   9.072   6.661 -0.3222  0.8633  0.5281
  949MOL0     H25258   7.875   9.115   7.093  2.5068 -4.0504 -2.3329
  949MOL0     H25259   7.859   9.288   7.068  0.4044  0.7685  0.0053
  949MOL0     H25260   8.044   9.231   7.196  0.2996 -3.1718  0.1482
  949MOL0     H25261   8.116   9.123   7.073  0.0117 -0.8895  0.3966
  949MOL0     H25262   8.076   9.419   7.051 -0.9794 -1.3756  3.8383
  949MOL0     H25263   8.144   9.318   6.921 -0.1159 -0.3154  0.2621
  949MOL0     H25264   8.263   9.375   7.199  2.8095 -1.0544  0.3543
  949MOL0     H25265   8.327   9.254   7.084 -1.6674 -0.3200 -4.5944
  949MOL0     H25266   8.446   9.652   6.965  0.0599  0.3952  0.3245
  949MOL0     H25267   7.690   9.076   7.033 -0.1103 -0.7545  0.5234
  949MOL0     H25268   7.501   8.956   6.940  2.4840 -0.5337  2.0383
  950MOL0     O25269   5.366  10.772   4.134 -0.4920 -0.3739  1.2583
  950MOL0     C25270   5.251  10.731   4.130 -0.5581  0.7341  0.2818
  950MOL0     O25271   5.195  10.642   4.213  0.2061  0.1113  0.0796
  950MOL0     C25272   5.273  10.606   4.320 -0.0603  0.1238 -0.1161
  950MOL0     C25273   5.294  10.685   4.435 -0.6752  0.0561  0.6462
  950MOL0     C25274   5.366  10.631   4.540 -0.1207  0.0131 -0.2739
  950MOL0     C25275   5.413  10.496   4.535 -0.2188 -0.8281 -0.0898
  950MOL0     O25276   5.467  10.433   4.647  0.3327  0.0667  1.0189
  950MOL0     C25277   5.366  10.359   4.712  0.2379 -0.6025 -0.0307
  950MOL0     C25278   5.296  10.447   4.834 -0.8634  1.1098  0.4101
  950MOL0     C25279   5.228  10.355   4.924  0.7110  0.2639  0.1071
  950MOL0     C25280   5.320  10.269   5.016  0.6981 -0.4690  0.7218
  950MOL0     C25281   5.241  10.151   5.055  0.5415 -0.3290  0.6875
  950MOL0     C25282   5.288  10.113   5.192  0.1432 -0.7507 -0.1533
  950MOL0     C25283   5.211   9.974   5.241  0.8354 -0.2127  0.0089
  950MOL0     C25284   5.267   9.940   5.382 -1.1094  0.9246  0.2994
  950MOL0     N25285   5.232  10.055   5.468  0.0332 -0.6181 -0.0046
  950MOL0     C25286   5.111  10.062   5.537  0.3443  0.1678 -0.8995
  950MOL0     C25287   5.127  10.174   5.612  0.8315  0.5099 -0.5448
  950MOL0     C25288   5.029  10.251   5.700 -0.6890 -0.5474 -0.6861
  950MOL0     C25289   5.009  10.163   5.824 -0.0830  0.0443 -0.7218
  950MOL0     C25290   4.925  10.231   5.934  0.7653 -0.8610 -0.4044
  950MOL0     C25291   4.865  10.138   6.044 -1.2463  0.4938  0.4982
  950MOL0     O25292   4.967  10.089   6.134 -0.0628 -0.5225 -0.4382
  950MOL0     C25293   4.932  10.009   6.236  0.9356  0.0145 -0.4341
  950MOL0     C25294   5.036   9.952   6.317  0.4816 -0.0083 -0.2964
  950MOL0     C25295   5.008   9.877   6.429  0.7456 -0.4272 -0.0756
  950MOL0     C25296   4.882   9.844   6.462 -0.3867 -0.6769 -0.4733
  950MOL0     C25297   4.844   9.765   6.578 -0.4098  0.1688 -0.1943
  950MOL0     O25298   4.714   9.733   6.580  0.1255 -0.2724  1.3358
  950MOL0     C25299   4.646   9.649   6.653  0.0850  0.4462 -0.2736
  950MOL0     C25300   4.625   9.658   6.794  0.9435  0.4461 -0.5804
  950MOL0     C25301   4.552   9.565   6.866 -0.8192  0.5034  0.2439
  950MOL0     C25302   4.542   9.442   6.808 -0.1415  0.6348 -1.1724
  950MOL0     O25303   4.493   9.333   6.884  0.1837 -0.0757 -0.1653
  950MOL0     C25304   4.554   9.206   6.865  0.8710  0.7395 -0.1426
  950MOL0     C25305   4.508   9.098   6.960  0.4397  0.7787  0.0453
  950MOL0     C25306   4.359   9.097   7.012  0.1658 -0.7785  0.2166
  950MOL0     C25307   4.330   8.972   7.092 -0.2628  0.1420  0.0906
  950MOL0     C25308   4.171   8.958   7.105  0.1939  0.6522  0.3626
  950MOL0     C25309   4.121   8.847   7.211 -0.2674 -0.3667  0.1396
  950MOL0     C25310   4.136   8.710   7.156  0.3454 -0.3215 -0.7635
  950MOL0     C25311   4.065   8.614   7.256 -0.0037  0.8783 -0.0930
  950MOL0    Cl25312   3.904   8.578   7.197 -0.2481  0.5453  0.2950
  950MOL0     C25313   4.569   9.421   6.669 -0.0011  0.1123  0.0824
  950MOL0     C25314   4.615   9.528   6.595 -0.2209  0.1692  0.2028
  950MOL0     O25315   4.923   9.707   6.649  0.1087 -0.3410  0.1460
  950MOL0     C25316   4.778   9.917   6.403 -0.6344  0.0717 -0.7251
  950MOL0     C25317   4.802   9.991   6.287 -0.1099  0.6641  0.0107
  950MOL0     N25318   5.259  10.217   5.608  0.2909  0.7792  0.4682
  950MOL0     N25319   5.323  10.143   5.521  0.0097  0.7124 -0.0743
  950MOL0     C25320   5.398  10.429   4.414  0.3965 -0.1296 -0.2226
  950MOL0     C25321   5.335  10.484   4.306  0.1296  0.1457  0.4407
  950MOL0     C25322   5.183  10.748   3.991 -0.6300  0.3756 -1.2511
  950MOL0     C25323   5.226  10.826   3.891  0.8300 -0.6540  0.6747
  950MOL0     C25324   5.143  10.832   3.772 -0.1679 -0.2803  0.1839
  950MOL0     C25325   5.031  10.754   3.746 -0.2497  0.0314  0.4194
  950MOL0     O25326   4.976  10.753   3.617 -0.4758 -0.0713 -0.3822
  950MOL0     C25327   4.899  10.643   3.572  0.3041  1.0740 -0.2274
  950MOL0     C25328   4.949  10.504   3.590  0.2950 -0.0845  0.3659
  950MOL0     C25329   5.093  10.483   3.526 -0.7507  0.5706 -0.0116
  950MOL0     C25330   5.101  10.447   3.380 -0.2388  0.0480 -0.7177
  950MOL0     C25331   5.241  10.451   3.338  0.5077 -1.0003  0.3665
  950MOL0     C25332   5.360  10.459   3.326 -1.2925 -0.2034 -0.0326
  950MOL0     C25333   4.995  10.674   3.854 -0.6921  0.2520  0.1934
  950MOL0     C25334   5.066  10.684   3.968  0.1682  0.7778  0.4357
  950MOL0     H25335   5.263  10.789   4.432 -0.1847  0.2012 -1.0549
  950MOL0     H25336   5.379  10.686   4.633 -3.1234 -1.1486  0.9801
  950MOL0     H25337   5.405  10.269   4.759 -1.6473 -0.1321  2.6679
  950MOL0     H25338   5.300  10.315   4.636  3.3263 -1.8914 -2.1780
  950MOL0     H25339   5.219  10.512   4.791 -1.4630 -0.6369 -1.3198
  950MOL0     H25340   5.368  10.511   4.885 -2.5670  2.5358  1.1247
  950MOL0     H25341   5.169  10.302   4.849 -3.1501  3.9082  0.1862
  950MOL0     H25342   5.152  10.405   4.986  0.5779 -2.4416  2.3060
  950MOL0     H25343   5.404  10.226   4.961 -0.3025  0.1172 -1.3569
  950MOL0     H25344   5.361  10.321   5.104  0.7274 -4.8344  3.5954
  950MOL0     H25345   5.259  10.070   4.984  0.9957 -0.7256  1.2455
  950MOL0     H25346   5.134  10.170   5.070  0.8758  0.7740  1.9155
  950MOL0     H25347   5.262  10.203   5.249 -4.3293 -1.5963 -0.4538
  950MOL0     H25348   5.396  10.100   5.200  0.0864 -0.1705  2.9004
  950MOL0     H25349   5.103   9.988   5.242  0.7496  0.0602 -2.9000
  950MOL0     H25350   5.239   9.894   5.172  3.5664  3.7925 -4.1505
  950MOL0     H25351   5.375   9.924   5.378 -0.4401  4.6481  0.2815
  950MOL0     H25352   5.219   9.847   5.415  0.3277 -0.2023 -0.6415
  950MOL0     H25353   5.027   9.996   5.516  0.5797 -0.0842 -1.0607
  950MOL0     H25354   4.936  10.282   5.652 -1.2334  0.8811  1.1533
  950MOL0     H25355   5.089  10.336   5.734 -0.1056 -0.9199 -0.7692
  950MOL0     H25356   5.104  10.140   5.873  1.0880  1.3298 -2.2905
  950MOL0     H25357   4.978  10.068   5.780  1.1508  0.1096 -1.8004
  950MOL0     H25358   4.976  10.313   5.984 -0.8254 -0.3415  0.4525
  950MOL0     H25359   4.854  10.292   5.879 -0.0709 -1.6866 -0.2731
  950MOL0     H25360   4.817  10.050   6.000 -3.1976  3.2580 -3.5839
  950MOL0     H25361   4.795  10.203   6.099 -0.2606  0.5565  1.7302
  950MOL0     H25362   5.138   9.970   6.284 -0.1048  1.2747 -1.5214
  950MOL0     H25363   5.083   9.827   6.489  0.3041 -2.5167 -1.1792
  950MOL0     H25364   4.662   9.747   6.845 -1.3796  0.9384  0.3642
  950MOL0     H25365   4.520   9.587   6.968  0.9161  2.9344  0.3697
  950MOL0     H25366   4.662   9.218   6.858  1.5571 -2.5104  2.4614
  950MOL0     H25367   4.510   9.176   6.769 -1.7838  2.3939  0.4360
  950MOL0     H25368   4.576   9.094   7.045 -0.1451  0.6585  0.5121
  950MOL0     H25369   4.522   9.009   6.898  0.0561  0.9790 -0.3366
  950MOL0     H25370   4.297   9.119   6.925 -1.2672  0.3252  1.4472
  950MOL0     H25371   4.343   9.183   7.078 -0.1188  0.6490 -1.6456
  950MOL0     H25372   4.362   8.877   7.048 -0.6514 -0.5459  1.2550
  950MOL0     H25373   4.376   8.984   7.191 -1.4370 -1.8598  0.9520
  950MOL0     H25374   4.116   8.953   7.011 -0.6290  0.8327  0.8326
  950MOL0     H25375   4.148   9.058   7.142 -0.5953  0.5635  0.1238
  950MOL0     H25376   4.017   8.866   7.237 -1.3744 -1.2473 -3.2027
  950MOL0     H25377   4.190   8.847   7.296  0.5204 -2.1565 -0.4393
  950MOL0     H25378   4.087   8.707   7.058  0.0869  4.3194 -0.9947
  950MOL0     H25379   4.244   8.691   7.152  0.8129  1.5921  0.9342
  950MOL0     H25380   4.044   8.674   7.345 -1.9540 -0.9376  0.7643
  950MOL0     H25381   4.122   8.529   7.293 -5.0848 -2.4977  1.0127
  950MOL0     H25382   4.546   9.325   6.624  1.0776  0.4003 -1.1304
  950MOL0     H25383   4.630   9.515   6.488  1.0562 -1.3704  0.5194
  950MOL0     H25384   4.675   9.936   6.431 -0.5779 -0.6594  0.0305
  950MOL0     H25385   4.722  10.049   6.243 -0.6541  1.4517  1.9498
  950MOL0     H25386   5.450  10.333   4.415  1.1407  0.2293 -1.7298
  950MOL0     H25387   5.339  10.425   4.215  0.1066  0.3375  0.3162
  950MOL0     H25388   5.317  10.885   3.898  0.8358 -0.7569  1.6796
  950MOL0     H25389   5.177  10.891   3.688 -2.0262 -1.7629 -1.7185
  950MOL0     H25390   4.874  10.649   3.466 -0.3646  2.3030 -0.0200
  950MOL0     H25391   4.809  10.644   3.634  1.7087 -0.5665  1.9870
  950MOL0     H25392   4.956  10.468   3.693  0.9830  0.3044  0.4618
  950MOL0     H25393   4.877  10.437   3.541  1.4581 -1.2445  0.1676
  950MOL0     H25394   5.144  10.415   3.595  0.0627  3.1122  2.0593
  950MOL0     H25395   5.138  10.582   3.540 -3.7368  1.6838  3.0650
  950MOL0     H25396   5.062  10.348   3.357 -1.5365  0.7550 -1.7178
  950MOL0     H25397   5.045  10.519   3.319  0.2224  0.1011 -1.0840
  950MOL0     H25398   5.464  10.464   3.301 -0.1054 -2.6932  3.6380
  950MOL0     H25399   4.908  10.612   3.835 -1.0146  0.5868  0.5618
  950MOL0     H25400   5.019  10.633   4.051  0.2820 -0.0839 -0.0206
  951MOL0     O25401  10.493   3.879   3.564  0.3115  0.3675  0.2824
  951MOL0     C25402  10.368   3.859   3.561 -0.7932  0.0298 -0.1028
  951MOL0     O25403  10.292   3.865   3.443 -1.3590  0.3034  0.0921
  951MOL0     C25404  10.353   3.868   3.317  0.1363  0.2267  0.2165
  951MOL0     C25405  10.466   3.945   3.289  0.5326  0.2079  0.0789
  951MOL0     C25406  10.547   3.925   3.180 -0.5360 -0.0240 -0.4420
  951MOL0     C25407  10.491   3.848   3.075  1.0238  0.0181  0.2240
  951MOL0     O25408  10.561   3.817   2.966  0.1052 -0.4161  0.8598
  951MOL0     C25409  10.649   3.922   2.907  0.2027 -0.1181  0.0860
  951MOL0     C25410  10.560   4.035   2.832 -1.1198  0.0814 -0.0679
  951MOL0     C25411  10.439   3.987   2.746 -0.3690  0.9286 -0.2293
  951MOL0     C25412  10.351   4.097   2.683 -0.9729  0.7871  0.0347
  951MOL0     C25413  10.425   4.196   2.601  1.2111 -0.2437  0.1436
  951MOL0     C25414  10.514   4.130   2.503  0.1009  0.3437  0.4315
  951MOL0     C25415  10.560   4.203   2.384 -0.3280 -0.4421 -0.0443
  951MOL0     C25416  10.653   4.322   2.412  0.1083 -0.2550 -0.3078
  951MOL0     N25417  10.690   4.388   2.288  0.2637 -0.1073  0.7884
  951MOL0     C25418  10.784   4.487   2.282 -0.0491  0.7114  0.6498
  951MOL0     C25419  10.774   4.536   2.155  0.0481 -0.1466 -0.5453
  951MOL0     C25420  10.857   4.647   2.097  0.1923 -1.3205  0.1379
  951MOL0     C25421  10.906   4.610   1.958 -0.5011  0.5908  0.0507
  951MOL0     C25422  10.944   4.727   1.872 -0.8727  0.0629  0.5475
  951MOL0     C25423  11.030   4.698   1.754 -0.2627  0.1296 -0.0897
  951MOL0     O25424  10.957   4.607   1.674 -0.6838  0.5451 -0.4605
  951MOL0     C25425  11.022   4.488   1.630 -0.0362 -0.1180 -1.2840
  951MOL0     C25426  10.995   4.447   1.497 -0.2678 -0.2361 -0.4866
  951MOL0     C25427  11.047   4.326   1.448 -0.4916  0.5689  1.0388
  951MOL0     C25428  11.134   4.249   1.534  0.2582  0.8280  0.7912
  951MOL0     C25429  11.185   4.126   1.476 -0.5778  0.2302  1.4777
  951MOL0     O25430  11.281   4.056   1.549  0.4705 -0.2451  0.0557
  951MOL0     C25431  11.311   3.926   1.505  0.4454 -0.2208  0.8818
  951MOL0     C25432  11.210   3.829   1.486  0.2365 -0.1649  0.3408
  951MOL0     C25433  11.254   3.700   1.460  0.1961 -0.6805  0.0904
  951MOL0     C25434  11.386   3.675   1.421 -0.2265  0.5825  0.7486
  951MOL0     O25435  11.418   3.553   1.365  0.3338 -0.3380  1.0093
  951MOL0     C25436  11.371   3.523   1.227  0.5345  0.1904  0.5197
  951MOL0     C25437  11.418   3.382   1.199 -0.7728  0.4101 -0.1213
  951MOL0     C25438  11.355   3.350   1.059 -0.5247 -0.2057  0.8030
  951MOL0     C25439  11.396   3.208   1.021  0.4625 -0.6140 -0.1660
  951MOL0     C25440  11.368   3.196   0.865  0.6820 -0.3844  0.2703
  951MOL0     C25441  11.393   3.054   0.816 -0.0281 -0.7887  0.4368
  951MOL0     C25442  11.352   3.024   0.675  0.0255 -0.5772 -0.5785
  951MOL0     C25443  11.391   2.882   0.635 -0.1446  0.5256 -0.9102
  951MOL0    Cl25444  11.362   2.867   0.457  0.0243 -0.2736 -0.2492
  951MOL0     C25445  11.485   3.778   1.419  0.2272 -0.5213  1.1564
  951MOL0     C25446  11.445   3.900   1.473  0.7051 -1.7258  0.6341
  951MOL0     O25447  11.142   4.095   1.363 -0.2784 -0.7140  0.4755
  951MOL0     C25448  11.169   4.293   1.668  0.2721 -0.1823  0.7593
  951MOL0     C25449  11.110   4.408   1.711  0.6599 -0.1653  0.5979
  951MOL0     N25450  10.667   4.471   2.096 -0.1486  0.0444 -0.0896
  951MOL0     N25451  10.621   4.382   2.171  0.7186  0.6103  0.2588
  951MOL0     C25452  10.367   3.780   3.098 -0.3807 -0.5467  0.4863
  951MOL0     C25453  10.301   3.789   3.221 -1.5514 -0.5283  0.9845
  951MOL0     C25454  10.299   3.849   3.689 -0.6826 -0.2736  0.1683
  951MOL0     C25455  10.349   3.882   3.817 -0.0673  0.3729 -0.3500
  951MOL0     C25456  10.261   3.896   3.923 -0.2010  0.1781  0.1230
  951MOL0     C25457  10.135   3.839   3.917 -0.0046 -0.3227  0.5280
  951MOL0     O25458  10.059   3.862   4.032  0.1946  0.0216 -0.0389
  951MOL0     C25459   9.918   3.856   4.020  0.6773  0.2058  0.1038
  951MOL0     C25460   9.840   3.882   4.150 -0.7752  0.0630 -0.0636
  951MOL0     C25461   9.832   4.032   4.193  0.4583 -0.1759 -0.8872
  951MOL0     C25462   9.763   4.057   4.333 -0.2684  0.1841  0.5929
  951MOL0     C25463   9.625   4.008   4.329  0.7216  1.0168 -0.8673
  951MOL0     C25464   9.507   3.993   4.334  0.2309 -0.3849 -0.1076
  951MOL0     C25465  10.087   3.773   3.800  0.7373 -0.3391 -0.7717
  951MOL0     C25466  10.165   3.794   3.690 -0.5455  0.5817 -0.0718
  951MOL0     H25467  10.503   4.011   3.367  0.6785 -0.5832  0.7041
  951MOL0     H25468  10.648   3.966   3.180 -1.1787  1.6953  0.6183
  951MOL0     H25469  10.714   3.864   2.842  3.7388  2.8226  0.7138
  951MOL0     H25470  10.717   3.976   2.974  1.5863  0.9003 -2.0573
  951MOL0     H25471  10.617   4.113   2.780 -2.9238 -1.7683 -5.4731
  951MOL0     H25472  10.527   4.094   2.918 -0.3200 -2.3988  2.0814
  951MOL0     H25473  10.381   3.929   2.819  2.9399 -1.2252  0.8918
  951MOL0     H25474  10.463   3.919   2.665 -2.1780 -0.4056  0.2726
  951MOL0     H25475  10.279   4.034   2.630  0.0236 -1.7224  1.4694
  951MOL0     H25476  10.288   4.156   2.750  1.2133  2.6608  0.5636
  951MOL0     H25477  10.478   4.267   2.666 -1.5528  0.0793  2.2300
  951MOL0     H25478  10.351   4.254   2.545 -2.8044 -1.6147  3.5311
  951MOL0     H25479  10.458   4.050   2.455  0.9520 -1.1038  1.7620
  951MOL0     H25480  10.605   4.094   2.553 -0.6783 -0.0798  1.5930
  951MOL0     H25481  10.593   4.126   2.313 -1.2482  1.1780 -2.3579
  951MOL0     H25482  10.468   4.235   2.334  0.3478 -2.5491 -2.8879
  951MOL0     H25483  10.743   4.278   2.456  0.4724 -1.1190 -1.8441
  951MOL0     H25484  10.602   4.379   2.491  1.3698  0.0081  0.3339
  951MOL0     H25485  10.862   4.505   2.355  1.1879 -1.8149  0.0964
  951MOL0     H25486  10.936   4.684   2.163 -0.9449  0.1962  0.7402
  951MOL0     H25487  10.786   4.731   2.098  0.4835 -0.9655  3.3219
  951MOL0     H25488  10.827   4.554   1.907  1.3070 -0.3232 -1.9070
  951MOL0     H25489  10.989   4.539   1.970 -1.6356 -0.7509  0.2211
  951MOL0     H25490  10.852   4.768   1.830  0.4237  4.3538  1.4073
  951MOL0     H25491  10.983   4.807   1.936  2.6049 -2.4493  1.9013
  951MOL0     H25492  11.135   4.675   1.775  0.0593 -0.9071 -2.4702
  951MOL0     H25493  11.027   4.796   1.705 -0.6662 -0.0351 -0.4010
  951MOL0     H25494  10.916   4.488   1.435 -0.0050  0.4093 -0.4080
  951MOL0     H25495  11.023   4.280   1.353  0.6095 -1.8545  1.8337
  951MOL0     H25496  11.105   3.852   1.505  0.9371  3.2678  0.8051
  951MOL0     H25497  11.192   3.612   1.444  2.3982 -2.6725  1.7025
  951MOL0     H25498  11.406   3.600   1.158 -3.2278  1.5988 -0.1064
  951MOL0     H25499  11.261   3.522   1.225  0.5395 -1.8681 -1.1513
  951MOL0     H25500  11.398   3.309   1.278  4.1754  0.0982  1.1989
  951MOL0     H25501  11.527   3.381   1.194 -0.8066  0.3674 -0.8817
  951MOL0     H25502  11.391   3.424   0.988  0.6604 -0.0231  1.5760
  951MOL0     H25503  11.247   3.369   1.053 -0.1014  2.1011 -4.0239
  951MOL0     H25504  11.501   3.181   1.033  1.5604  3.6097  1.4960
  951MOL0     H25505  11.332   3.142   1.079 -1.5728  2.0588  0.7943
  951MOL0     H25506  11.435   3.264   0.810  3.5858 -1.5452  2.1725
  951MOL0     H25507  11.262   3.214   0.845  1.0356 -1.3178 -3.0779
  951MOL0     H25508  11.345   2.991   0.891 -1.3884  0.1756  0.4244
  951MOL0     H25509  11.497   3.035   0.842 -0.1819 -2.9684 -0.3637
  951MOL0     H25510  11.246   3.045   0.664 -0.4429 -0.8569  2.5459
  951MOL0     H25511  11.404   3.090   0.604  0.9356  0.6175  1.1171
  951MOL0     H25512  11.342   2.796   0.682 -0.0104  1.1188  0.3705
  951MOL0     H25513  11.498   2.865   0.651 -0.8333 -1.1212  3.7282
  951MOL0     H25514  11.585   3.767   1.379 -0.6849 -0.6780 -1.2226
  951MOL0     H25515  11.500   3.992   1.492  0.0055 -1.3875  1.0574
  951MOL0     H25516  11.230   4.253   1.747  0.4816  2.1514  1.8622
  951MOL0     H25517  11.128   4.446   1.811 -1.6760  1.2022  0.5748
  951MOL0     H25518  10.316   3.722   3.022 -3.5826  1.2777  1.0553
  951MOL0     H25519  10.219   3.728   3.257 -1.1859 -0.8793  1.2298
  951MOL0     H25520  10.457   3.891   3.816  0.0122 -0.0168 -2.8526
  951MOL0     H25521  10.294   3.952   4.009 -0.9738 -0.0175  0.5554
  951MOL0     H25522   9.881   3.761   3.981  0.4942  0.4708 -0.3854
  951MOL0     H25523   9.885   3.931   3.947  1.0302  0.0118 -0.2581
  951MOL0     H25524   9.735   3.853   4.140 -0.4030 -2.3378  2.0372
  951MOL0     H25525   9.891   3.828   4.229 -0.1320  2.1013  0.9591
  951MOL0     H25526   9.784   4.089   4.113 -1.9960 -1.0033 -0.0909
  951MOL0     H25527   9.933   4.071   4.211 -0.1335  0.1066  2.6218
  951MOL0     H25528   9.818   4.009   4.415  1.9600  2.2806  0.4442
  951MOL0     H25529   9.764   4.164   4.356  0.7651  0.1322  0.8704
  951MOL0     H25530   9.402   4.001   4.356  0.5520  2.0041  0.8461
  951MOL0     H25531   9.991   3.726   3.783 -0.8141  2.4857 -0.3650
  951MOL0     H25532  10.126   3.764   3.594  0.1291 -4.3887  0.9528
  952MOL0     O25533   6.437  10.382  10.046 -0.6134 -0.0874 -0.3994
  952MOL0     C25534   6.393  10.440   9.945 -0.0035  0.1727  0.5663
  952MOL0     O25535   6.324  10.370   9.841 -0.6691 -0.7824 -0.0135
  952MOL0     C25536   6.304  10.236   9.856 -0.2202  0.2452  0.1270
  952MOL0     C25537   6.395  10.134   9.888  0.1297 -0.1640  0.4073
  952MOL0     C25538   6.349  10.007   9.880  0.2178  0.8577  1.0965
  952MOL0     C25539   6.228   9.960   9.831  0.0726 -0.2703 -1.0111
  952MOL0     O25540   6.200   9.835   9.809  0.2232 -1.0410 -0.6167
  952MOL0     C25541   6.073   9.771   9.779 -0.4823 -1.1268  0.1697
  952MOL0     C25542   6.087   9.617   9.791  0.3012 -0.9295 -0.0282
  952MOL0     C25543   5.940   9.552   9.787  0.3175 -0.2701  0.9012
  952MOL0     C25544   5.943   9.400   9.791 -0.1216  0.3399  0.1357
  952MOL0     C25545   5.801   9.344   9.783  0.0968 -0.4261  0.2418
  952MOL0     C25546   5.802   9.195   9.806 -0.1931 -0.0902  0.0845
  952MOL0     C25547   5.662   9.120   9.793 -0.4066  0.0460 -0.1095
  952MOL0     C25548   5.559   9.177   9.898  0.8265  0.6369  0.1107
  952MOL0     N25549   5.422   9.107   9.867 -0.2706 -0.4519 -0.3273
  952MOL0     C25550   5.303   9.168   9.839 -0.8049  0.2224  0.1394
  952MOL0     C25551   5.225   9.064   9.786  0.0855  0.4873  0.5124
  952MOL0     C25552   5.082   9.091   9.742 -0.9928 -0.1443 -0.4343
  952MOL0     C25553   4.976   9.032   9.841  1.0593 -0.1109  0.3000
  952MOL0     C25554   4.831   9.075   9.815 -0.0056 -0.3673  0.1056
  952MOL0     C25555   4.725   8.982   9.856 -0.0510  0.0068  0.7479
  952MOL0     O25556   4.592   9.025   9.829  0.6328 -0.1885  1.3174
  952MOL0     C25557   4.481   8.952   9.876  0.2374 -0.4035 -0.4399
  952MOL0     C25558   4.489   8.830   9.942 -0.3121  0.6936 -0.0445
  952MOL0     C25559   4.373   8.760   9.971 -0.4100 -0.4421  0.3584
  952MOL0     C25560   4.252   8.809   9.936  0.2209 -0.4785  0.2925
  952MOL0     C25561   4.135   8.737   9.983 -0.2908 -0.1209 -0.5766
  952MOL0     O25562   4.016   8.802   9.992 -0.3108 -1.3317  0.4565
  952MOL0     C25563   3.908   8.749  10.053 -0.4865 -0.1509 -0.7443
  952MOL0     C25564   3.918   8.746  10.193  0.5650  0.0734  1.0500
  952MOL0     C25565   3.815   8.682  10.263  0.2578 -1.0371  0.7205
  952MOL0     C25566   3.705   8.622  10.198 -0.0892  0.4476 -0.6319
  952MOL0     O25567   3.597   8.577  10.266 -0.5016 -0.4511 -0.4345
  952MOL0     C25568   3.603   8.574  10.411  0.6095  0.6323  0.1863
  952MOL0     C25569   3.689   8.460  10.458  0.3194  0.8185  0.2494
  952MOL0     C25570   3.734   8.461  10.598 -0.2360 -0.2647 -0.6446
  952MOL0     C25571   3.840   8.359  10.632 -0.2285 -0.4284  0.5866
  952MOL0     C25572   3.902   8.376  10.771 -0.3837 -0.6343 -0.0383
  952MOL0     C25573   3.820   8.342  10.899  0.1749 -0.6343  0.0818
  952MOL0     C25574   3.896   8.378  11.026  0.5398 -0.8276 -1.4012
  952MOL0     C25575   3.822   8.329  11.152  0.3625 -0.1736 -1.4232
  952MOL0    Cl25576   3.643   8.354  11.147 -0.2926  0.1835  0.4583
  952MOL0     C25577   3.711   8.621  10.058 -0.7376 -0.0119 -0.6983
  952MOL0     C25578   3.808   8.694   9.986 -0.8214  0.1430  0.0363
  952MOL0     O25579   4.158   8.617  10.006 -0.4823 -0.0396 -0.4229
  952MOL0     C25580   4.234   8.927   9.872 -0.2635  0.0869 -0.7027
  952MOL0     C25581   4.346   9.003   9.850  0.8103 -0.1786 -0.1012
  952MOL0     N25582   5.294   8.944   9.786 -0.1655 -0.2650  0.3975
  952MOL0     N25583   5.412   8.971   9.837 -0.2146 -0.0311 -0.1425
  952MOL0     C25584   6.132  10.059   9.810  0.3895 -0.4798  0.3301
  952MOL0     C25585   6.171  10.199   9.818  0.9722 -0.7777  0.5548
  952MOL0     C25586   6.418  10.589   9.927 -0.3257 -0.8851 -0.3260
  952MOL0     C25587   6.374  10.657   9.812  0.4100 -0.9216  0.5525
  952MOL0     C25588   6.398  10.799   9.797 -0.3710 -0.2252 -0.4805
  952MOL0     C25589   6.471  10.866   9.892 -0.7876  0.0988 -0.1367
  952MOL0     O25590   6.485  11.011   9.881 -0.0409 -0.5564  1.1355
  952MOL0     C25591   6.408  11.078   9.986  0.2623  0.5069  0.0022
  952MOL0     C25592   6.484  11.189  10.052  0.8991 -0.9130  1.5476
  952MOL0     C25593   6.615  11.148  10.118  0.1657  0.3298 -0.0836
  952MOL0     C25594   6.687  11.253  10.214  0.9904  0.2264  0.0657
  952MOL0     C25595   6.699  11.381  10.154 -0.1723 -0.1646 -0.4874
  952MOL0     C25596   6.715  11.489  10.091 -0.2596 -0.1413 -0.6987
  952MOL0     C25597   6.500  10.791  10.009 -0.3056  0.8548 -0.7471
  952MOL0     C25598   6.479  10.656  10.027 -0.1170  0.1315  0.1325
  952MOL0     H25599   6.500  10.155   9.907  0.8264 -1.7943 -1.3119
  952MOL0     H25600   6.427   9.932   9.877 -0.3976  0.2192 -0.0123
  952MOL0     H25601   6.042   9.800   9.679  1.6428 -0.0809 -0.2388
  952MOL0     H25602   6.005   9.812   9.855 -0.7682  0.2369 -0.7867
  952MOL0     H25603   6.113   9.585   9.893 -1.9443 -4.1451 -0.3207
  952MOL0     H25604   6.159   9.579   9.718 -1.2141  0.8595 -2.6458
  952MOL0     H25605   5.898   9.575   9.689  1.6933 -0.9302  0.1496
  952MOL0     H25606   5.867   9.579   9.865 -2.1880 -2.2983 -0.6032
  952MOL0     H25607   6.003   9.363   9.707 -0.2753 -0.9132  0.5637
  952MOL0     H25608   5.989   9.385   9.890 -2.2940  2.6409  1.6164
  952MOL0     H25609   5.771   9.363   9.679 -1.4194 -0.2973  0.6717
  952MOL0     H25610   5.715   9.382   9.839 -0.9445 -0.1062 -1.4767
  952MOL0     H25611   5.835   9.182   9.909 -0.6569  2.4313  0.6258
  952MOL0     H25612   5.874   9.145   9.740 -0.6683  1.0785 -1.3942
  952MOL0     H25613   5.630   9.128   9.688  1.8878  0.4710 -0.8513
  952MOL0     H25614   5.676   9.014   9.813 -0.2567  0.5843  3.2524
  952MOL0     H25615   5.550   9.283   9.873 -1.7595 -0.0480 -2.4622
  952MOL0     H25616   5.590   9.155  10.000 -2.0761 -4.8020  0.1929
  952MOL0     H25617   5.276   9.271   9.861 -1.2942 -0.3486  2.4421
  952MOL0     H25618   5.063   9.071   9.637 -0.0674  1.2800 -0.9071
  952MOL0     H25619   5.057   9.197   9.752  0.8726  0.3633 -0.8092
  952MOL0     H25620   5.003   9.053   9.945 -2.9636  1.9263  1.1442
  952MOL0     H25621   4.977   8.925   9.821  0.5923 -0.2311  0.9023
  952MOL0     H25622   4.813   9.171   9.864 -1.9313 -1.4669  1.6772
  952MOL0     H25623   4.812   9.083   9.707 -0.6421 -0.3984  0.2096
  952MOL0     H25624   4.730   8.980   9.966 -2.6695  3.7463  1.1198
  952MOL0     H25625   4.748   8.882   9.818 -1.2251 -0.8058  2.0936
  952MOL0     H25626   4.586   8.792   9.973 -0.4548 -0.0776 -0.4962
  952MOL0     H25627   4.392   8.660  10.010  0.1149 -1.0005 -1.2471
  952MOL0     H25628   3.999   8.802  10.239 -1.2049  2.9932  0.9330
  952MOL0     H25629   3.812   8.700  10.370 -0.8972 -1.3949  0.7529
  952MOL0     H25630   3.503   8.548  10.446  1.7263 -1.7772  1.8463
  952MOL0     H25631   3.623   8.673  10.454 -1.4315  0.5504  1.4353
  952MOL0     H25632   3.776   8.450  10.392  1.1067 -3.0584  1.6288
  952MOL0     H25633   3.633   8.367  10.447  0.7335  0.7045 -1.1358
  952MOL0     H25634   3.645   8.449  10.660  0.4899 -1.3804  0.2489
  952MOL0     H25635   3.766   8.565  10.605 -0.2957 -0.1005 -2.4697
  952MOL0     H25636   3.792   8.261  10.630  0.8488 -1.0109  1.9622
  952MOL0     H25637   3.919   8.359  10.556 -1.2154 -1.1881 -0.4818
  952MOL0     H25638   3.933   8.479  10.788  2.4103 -1.4131  0.1615
  952MOL0     H25639   3.982   8.301  10.769  0.8114  0.6091 -0.4544
  952MOL0     H25640   3.811   8.234  10.906  2.1427 -0.8112  0.5002
  952MOL0     H25641   3.724   8.395  10.906 -0.2227 -1.3344 -0.0237
  952MOL0     H25642   3.997   8.336  11.015  0.3040 -1.7305 -0.2705
  952MOL0     H25643   3.899   8.486  11.045  1.6430 -1.3571  1.9986
  952MOL0     H25644   3.857   8.393  11.233 -0.3918 -2.3615  0.7486
  952MOL0     H25645   3.834   8.223  11.174 -0.9167 -0.3212 -1.3278
  952MOL0     H25646   3.642   8.551  10.012 -0.5467 -1.2524  0.7915
  952MOL0     H25647   3.820   8.698   9.878  0.1806 -0.3727  0.1152
  952MOL0     H25648   4.134   8.957   9.842 -0.4651  0.6932  0.5231
  952MOL0     H25649   4.336   9.093   9.790  1.9318  0.9182  1.2772
  952MOL0     H25650   6.028  10.046   9.779  0.7324 -2.8511 -0.0094
  952MOL0     H25651   6.104  10.282   9.804  0.8156 -0.4488  2.8731
  952MOL0     H25652   6.334  10.604   9.727  0.9128 -0.0755 -0.2227
  952MOL0     H25653   6.357  10.858   9.716 -1.6254  2.7152  2.0876
  952MOL0     H25654   6.367  11.020  10.069  0.1193  4.3367  2.9303
  952MOL0     H25655   6.319  11.118   9.937 -0.8390 -2.2543 -0.4253
  952MOL0     H25656   6.499  11.254   9.966 -3.6190 -0.8758  0.5228
  952MOL0     H25657   6.424  11.229  10.135  2.7033  1.1308  1.9460
  952MOL0     H25658   6.692  11.132  10.042  0.4975 -2.2698  0.6916
  952MOL0     H25659   6.593  11.055  10.171 -2.0756  0.5442 -0.5395
  952MOL0     H25660   6.635  11.264  10.310  4.4969  1.1628  2.0151
  952MOL0     H25661   6.790  11.223  10.234  1.4966  0.8976 -1.3816
  952MOL0     H25662   6.722  11.578  10.031 -2.9266 -0.3503 -1.4796
  952MOL0     H25663   6.549  10.840  10.094  0.6827  0.1101 -0.8724
  952MOL0     H25664   6.515  10.608  10.118 -0.0380 -1.7405 -0.8438
  953MOL0     O25665   6.218   8.539   6.153  0.9558 -0.8786 -0.1836
  953MOL0     C25666   6.203   8.484   6.044 -0.7207  0.3645 -0.5298
  953MOL0     O25667   6.205   8.346   6.018  0.0119 -0.8213  0.0312
  953MOL0     C25668   6.249   8.253   6.115 -0.2605 -1.4514 -0.5093
  953MOL0     C25669   6.377   8.291   6.177  0.0952  0.2155 -0.1827
  953MOL0     C25670   6.450   8.200   6.259  0.7812 -1.8220  1.2631
  953MOL0     C25671   6.384   8.089   6.306 -0.0321  0.6037 -0.5847
  953MOL0     O25672   6.448   8.004   6.402 -0.2158  0.1314  0.5759
  953MOL0     C25673   6.363   7.985   6.518  0.6625  0.0725 -0.4309
  953MOL0     C25674   6.308   7.844   6.537 -0.4856  0.1913  0.3678
  953MOL0     C25675   6.273   7.820   6.684  0.2498  0.1362  0.5211
  953MOL0     C25676   6.236   7.678   6.733 -0.3823 -0.1061  0.0021
  953MOL0     C25677   6.083   7.657   6.758 -0.1023  0.1269  0.4931
  953MOL0     C25678   5.998   7.681   6.637 -0.6678 -0.7252 -0.1284
  953MOL0     C25679   6.012   7.578   6.529 -0.2317  0.3039  0.4158
  953MOL0     C25680   5.911   7.600   6.404 -0.8647 -0.0760  0.5830
  953MOL0     N25681   5.940   7.706   6.315 -0.2147 -0.0813 -0.3663
  953MOL0     C25682   6.060   7.709   6.240  0.4742 -0.4755  0.1692
  953MOL0     C25683   6.027   7.781   6.126  0.8046 -0.4786  0.7345
  953MOL0     C25684   6.106   7.813   5.999  0.0888  0.6337 -0.6794
  953MOL0     C25685   6.010   7.786   5.874 -0.2015 -0.1162  0.7663
  953MOL0     C25686   6.060   7.863   5.754 -0.1075  0.4286  0.4196
  953MOL0     C25687   6.199   7.808   5.704 -0.1682  0.1877  0.6165
  953MOL0     O25688   6.230   7.889   5.588 -0.6305 -0.0347 -0.3786
  953MOL0     C25689   6.319   7.988   5.587  0.1288 -0.1580  0.5445
  953MOL0     C25690   6.360   8.050   5.708 -0.3996  0.4617  0.0266
  953MOL0     C25691   6.448   8.159   5.693 -0.4318 -0.4096  0.7512
  953MOL0     C25692   6.489   8.212   5.566 -0.8814  0.7627 -1.1145
  953MOL0     C25693   6.557   8.340   5.572 -0.1231 -0.8714  0.3192
  953MOL0     O25694   6.545   8.424   5.465 -0.3045 -0.7516  0.7116
  953MOL0     C25695   6.601   8.545   5.457 -0.9605 -0.5571 -0.2491
  953MOL0     C25696   6.703   8.583   5.371 -0.4248 -1.0712  0.3259
  953MOL0     C25697   6.756   8.716   5.380  0.0535 -0.1094 -0.1991
  953MOL0     C25698   6.687   8.809   5.456 -0.2793 -0.6688  0.4315
  953MOL0     O25699   6.712   8.943   5.477  0.4160  1.0098  0.4007
  953MOL0     C25700   6.831   8.992   5.410 -0.1261 -0.0474  0.1577
  953MOL0     C25701   6.847   9.139   5.435 -0.6717 -0.0147  0.2283
  953MOL0     C25702   6.842   9.173   5.586  0.8563  0.0704 -0.5184
  953MOL0     C25703   6.878   9.318   5.618  0.7558  2.0895  0.5572
  953MOL0     C25704   6.783   9.373   5.721  0.1950  0.4655  0.4560
  953MOL0     C25705   6.836   9.494   5.793 -0.0146 -0.4085 -0.4164
  953MOL0     C25706   6.838   9.487   5.948 -0.6518  0.2362  0.9825
  953MOL0     C25707   6.855   9.618   6.025 -0.3915 -0.6185 -0.2994
  953MOL0    Cl25708   7.021   9.697   5.993  0.1043  0.1253 -0.0469
  953MOL0     C25709   6.579   8.767   5.529 -0.1284  0.1044  0.5357
  953MOL0     C25710   6.540   8.640   5.541 -1.1579  1.7190 -0.2743
  953MOL0     O25711   6.616   8.365   5.678  0.5009  0.8219  0.2941
  953MOL0     C25712   6.446   8.147   5.448 -0.2379  0.2251 -0.9555
  953MOL0     C25713   6.367   8.035   5.460  0.5737 -0.2583  0.3108
  953MOL0     N25714   5.895   7.830   6.138  0.3593  0.7877  0.1106
  953MOL0     N25715   5.844   7.788   6.249 -0.8987  0.3017 -0.1461
  953MOL0     C25716   6.261   8.053   6.246 -0.2936 -1.2396  0.4121
  953MOL0     C25717   6.192   8.131   6.151 -0.0325  0.4326 -0.4017
  953MOL0     C25718   6.181   8.567   5.927  0.0866 -0.7025  1.0362
  953MOL0     C25719   6.228   8.524   5.802  0.2704  0.8239 -0.3716
  953MOL0     C25720   6.189   8.595   5.695 -0.1814  0.5112  0.2759
  953MOL0     C25721   6.123   8.719   5.707 -0.0098  0.0450  0.1406
  953MOL0     O25722   6.085   8.786   5.600  0.3339 -1.0327  0.1996
  953MOL0     C25723   6.198   8.812   5.503 -0.4050 -0.5396 -0.1173
  953MOL0     C25724   6.201   8.968   5.494 -0.1991  0.2163  0.8008
  953MOL0     C25725   6.232   9.050   5.621 -0.4579 -1.3262 -0.3783
  953MOL0     C25726   6.241   9.199   5.589 -0.0333 -0.1671 -0.6511
  953MOL0     C25727   6.370   9.211   5.534  0.1994  0.0601 -0.2287
  953MOL0     C25728   6.481   9.244   5.497 -0.5941 -0.2557  0.5749
  953MOL0     C25729   6.081   8.756   5.831  0.4943 -0.8667  0.9042
  953MOL0     C25730   6.106   8.684   5.941  0.3270  0.5231  0.4509
  953MOL0     H25731   6.413   8.390   6.150 -2.5692  1.9028  1.8768
  953MOL0     H25732   6.554   8.216   6.286  1.1550 -4.6623  1.8682
  953MOL0     H25733   6.289   8.065   6.529 -0.9332 -1.1869 -1.4659
  953MOL0     H25734   6.431   8.003   6.602 -1.5153  2.5803  0.9461
  953MOL0     H25735   6.391   7.776   6.515 -1.4584 -1.3385  1.2781
  953MOL0     H25736   6.219   7.831   6.475 -0.9762  1.9847  0.6457
  953MOL0     H25737   6.189   7.885   6.706 -0.1973 -0.4904  0.6954
  953MOL0     H25738   6.361   7.853   6.740  0.7544  0.0539 -0.2006
  953MOL0     H25739   6.288   7.606   6.670  1.0812  0.3889  0.5946
  953MOL0     H25740   6.280   7.665   6.833 -1.7159  0.0372  0.6348
  953MOL0     H25741   6.043   7.727   6.831 -0.0395  1.8326 -1.0289
  953MOL0     H25742   6.056   7.559   6.799 -2.5125 -0.4898 -2.2253
  953MOL0     H25743   6.000   7.783   6.596 -2.0148  0.7144  3.0035
  953MOL0     H25744   5.893   7.677   6.664 -1.4474  1.6106 -2.3638
  953MOL0     H25745   6.115   7.578   6.493 -0.7885 -2.2927 -1.3869
  953MOL0     H25746   5.996   7.481   6.576  0.3413 -0.4952 -1.0042
  953MOL0     H25747   5.809   7.614   6.440 -2.0933  4.0584 -3.5139
  953MOL0     H25748   5.913   7.512   6.339 -1.1817  0.2438  0.1305
  953MOL0     H25749   6.151   7.653   6.256 -0.3574 -2.0705 -0.4154
  953MOL0     H25750   6.189   7.744   5.981  0.3710  1.1436 -1.4228
  953MOL0     H25751   6.151   7.913   5.997 -0.9163  1.1716  1.1756
  953MOL0     H25752   5.907   7.819   5.892 -0.3248 -1.0911  2.0023
  953MOL0     H25753   6.015   7.679   5.849 -1.0069  0.4425 -2.0566
  953MOL0     H25754   5.984   7.858   5.676 -2.0398  3.1390  1.9601
  953MOL0     H25755   6.066   7.969   5.780  1.3887  0.6604 -0.7298
  953MOL0     H25756   6.171   7.706   5.674 -1.7261  0.6205  0.5182
  953MOL0     H25757   6.284   7.797   5.772 -1.1297  1.7472  2.1652
  953MOL0     H25758   6.317   8.021   5.803  0.4397  1.7152  0.8133
  953MOL0     H25759   6.478   8.202   5.788  0.3660  1.0112 -0.1148
  953MOL0     H25760   6.745   8.520   5.294  1.8051  1.8379 -1.0492
  953MOL0     H25761   6.842   8.731   5.316 -0.2892  2.6583 -0.1231
  953MOL0     H25762   6.818   8.989   5.301 -0.4391 -0.3983  0.2032
  953MOL0     H25763   6.923   8.937   5.430  0.9332  1.5081 -0.2573
  953MOL0     H25764   6.773   9.195   5.379  1.1785  0.7167 -1.6229
  953MOL0     H25765   6.940   9.166   5.384 -0.0947 -4.5306 -1.6293
  953MOL0     H25766   6.914   9.110   5.641  1.4453 -1.0247 -2.4339
  953MOL0     H25767   6.738   9.157   5.615  1.4072  0.9117  2.2614
  953MOL0     H25768   6.984   9.321   5.644  1.6202 -0.5172 -2.1090
  953MOL0     H25769   6.866   9.385   5.533 -4.7596  1.5970  0.5602
  953MOL0     H25770   6.765   9.295   5.795 -1.1606  1.1102  0.8346
  953MOL0     H25771   6.689   9.392   5.668  0.6430  3.7852  0.6450
  953MOL0     H25772   6.782   9.581   5.754  3.5863  1.4210 -1.7925
  953MOL0     H25773   6.939   9.515   5.765  0.7862 -0.9155  1.8964
  953MOL0     H25774   6.745   9.437   5.975 -1.7998  1.1081 -1.1006
  953MOL0     H25775   6.924   9.427   5.979 -0.6134  0.2353  0.8735
  953MOL0     H25776   6.847   9.596   6.132  2.5101 -2.5214 -0.3375
  953MOL0     H25777   6.777   9.687   5.991  2.4879  2.6485 -0.9290
  953MOL0     H25778   6.520   8.836   5.589  0.1060 -1.3851  2.5804
  953MOL0     H25779   6.466   8.602   5.611 -0.6180 -1.7569 -1.3806
  953MOL0     H25780   6.471   8.182   5.348  2.5852 -1.8439 -1.1067
  953MOL0     H25781   6.333   8.000   5.363 -1.6091 -0.4872  1.0795
  953MOL0     H25782   6.215   7.960   6.277  1.7714 -1.3651  3.6266
  953MOL0     H25783   6.098   8.107   6.103 -0.6390  2.4545 -0.3249
  953MOL0     H25784   6.281   8.429   5.796  1.0501  1.0945  1.5390
  953MOL0     H25785   6.209   8.559   5.594 -0.7860 -0.8514  0.6130
  953MOL0     H25786   6.182   8.760   5.408  0.0521  1.0484 -1.1073
  953MOL0     H25787   6.293   8.777   5.544 -1.7791 -0.2522  3.7187
  953MOL0     H25788   6.266   8.998   5.411  2.2385 -2.4932  1.5790
  953MOL0     H25789   6.103   8.995   5.451  0.2838 -0.3466 -0.7268
  953MOL0     H25790   6.325   9.021   5.670 -1.0252  0.5659  2.0553
  953MOL0     H25791   6.141   9.038   5.680 -0.2537  2.8247  1.1463
  953MOL0     H25792   6.161   9.223   5.518 -0.4760 -0.4513 -0.2480
  953MOL0     H25793   6.232   9.262   5.678  1.4979 -1.0056  0.1419
  953MOL0     H25794   6.582   9.269   5.469 -0.5777 -0.8679  0.0756
  953MOL0     H25795   6.024   8.849   5.836  1.6061 -0.2162  2.4623
  953MOL0     H25796   6.079   8.736   6.032 -2.7486 -0.7578  0.3661
  954MOL0     O25797   1.574  10.845   6.641  0.2698 -0.0176 -0.4533
  954MOL0     C25798   1.527  10.960   6.654 -0.0805  0.2548  0.8647
  954MOL0     O25799   1.405  10.986   6.705 -0.1590  0.1749 -0.1304
  954MOL0     C25800   1.312  10.890   6.705  0.2177  0.4781  0.5680
  954MOL0     C25801   1.235  10.884   6.582 -0.5217 -0.8052  0.4416
  954MOL0     C25802   1.134  10.786   6.574 -0.5162 -1.1448  0.2909
  954MOL0     C25803   1.112  10.700   6.672  0.0957  0.7952 -0.1595
  954MOL0     O25804   1.021  10.603   6.664  0.4695 -0.1999  0.0301
  954MOL0     C25805   1.029  10.512   6.553 -0.5539  0.2609 -0.3993
  954MOL0     C25806   0.886  10.471   6.503 -1.2668 -0.4100  0.0692
  954MOL0     C25807   0.817  10.390   6.607  0.0674  0.0163 -0.3006
  954MOL0     C25808   0.689  10.325   6.552 -1.3029  0.3142 -0.2253
  954MOL0     C25809   0.609  10.249   6.661 -1.4934  0.3923  0.4435
  954MOL0     C25810   0.602  10.094   6.623 -0.1307  0.0330 -0.6024
  954MOL0     C25811   0.505  10.022   6.723  0.2955 -0.2169  0.2544
  954MOL0     C25812   0.364  10.096   6.727 -0.2975 -0.8256 -0.2680
  954MOL0     N25813   0.265  10.004   6.775 -0.0921  0.5742 -0.5404
  954MOL0     C25814   0.254   9.930   6.890 -0.0631  1.1002  0.0775
  954MOL0     C25815   0.157   9.829   6.871  0.0698 -1.0473 -0.8893
  954MOL0     C25816   0.106   9.749   6.975  0.4855 -0.7003  0.7217
  954MOL0     C25817  -0.015   9.677   6.936  1.3028  0.0341 -0.9381
  954MOL0     C25818  -0.088   9.637   7.063  0.5937  0.5143  0.8307
  954MOL0     C25819  -0.202   9.538   7.029  0.1388  0.3978  0.9027
  954MOL0     O25820  -0.228   9.456   7.143 -0.9433  0.0363  0.7471
  954MOL0     C25821  -0.275   9.504   7.258 -0.0808 -1.3771 -0.6506
  954MOL0     C25822  -0.374   9.598   7.279 -0.2103  0.2491  0.2402
  954MOL0     C25823  -0.413   9.629   7.412  0.3214 -1.1712 -0.0126
  954MOL0     C25824  -0.360   9.565   7.521  0.1054 -0.4955  0.1520
  954MOL0     C25825  -0.401   9.597   7.662  0.1235 -0.2359 -0.9917
  954MOL0     O25826  -0.516   9.671   7.681 -1.2755  1.1885 -0.7533
  954MOL0     C25827  -0.556   9.695   7.807  0.0686  0.0321  0.0409
  954MOL0     C25828  -0.560   9.832   7.852  0.3772 -0.6222  0.1036
  954MOL0     C25829  -0.605   9.860   7.980  0.9112 -0.4554  0.3071
  954MOL0     C25830  -0.656   9.757   8.055  0.0586 -1.1030 -0.6027
  954MOL0     O25831  -0.689   9.780   8.185  0.0206 -0.4768 -0.3602
  954MOL0     C25832  -0.807   9.851   8.213  0.7303 -0.1511  0.0895
  954MOL0     C25833  -0.923   9.793   8.135  0.7540 -0.2517 -0.0611
  954MOL0     C25834  -1.039   9.889   8.162  0.4245 -0.3222  0.0487
  954MOL0     C25835  -1.126   9.834   8.281  1.0197 -0.2349  1.1696
  954MOL0     C25836  -1.275   9.913   8.267  0.1490  0.5992  0.4387
  954MOL0     C25837  -1.382   9.876   8.377  0.2746  0.8499 -0.1988
  954MOL0     C25838  -1.342   9.938   8.517  0.3672  0.2375  0.0686
  954MOL0     C25839  -1.453   9.956   8.624 -0.2693  0.0305 -0.2851
  954MOL0    Cl25840  -1.505   9.793   8.697  0.2344 -0.1764  0.0561
  954MOL0     C25841  -0.655   9.626   8.005 -0.5316 -0.9105 -0.0866
  954MOL0     C25842  -0.605   9.590   7.884  0.7331 -0.5445 -0.9646
  954MOL0     O25843  -0.323   9.568   7.751  0.2397  0.4943  0.0220
  954MOL0     C25844  -0.251   9.476   7.493  0.8301 -0.6843 -0.2393
  954MOL0     C25845  -0.214   9.452   7.365 -0.2051  0.6725  0.9246
  954MOL0     N25846   0.112   9.847   6.737 -1.0741 -0.3816 -0.3007
  954MOL0     N25847   0.180   9.946   6.687 -0.1463  0.6715 -0.0407
  954MOL0     C25848   1.183  10.709   6.796  0.5396 -0.3631  0.5031
  954MOL0     C25849   1.292  10.797   6.807 -0.1481  0.0815 -0.6754
  954MOL0     C25850   1.603  11.076   6.609 -0.2211 -0.0607 -0.7026
  954MOL0     C25851   1.571  11.205   6.652  0.9192  0.1706 -0.3871
  954MOL0     C25852   1.650  11.324   6.618  0.9333  0.5262  0.8772
  954MOL0     C25853   1.754  11.319   6.527 -0.2889  1.1095  0.0109
  954MOL0     O25854   1.834  11.422   6.491 -0.4849 -0.6151 -0.4587
  954MOL0     C25855   1.823  11.547   6.559  0.1313 -0.2813  0.0420
  954MOL0     C25856   1.879  11.663   6.468  0.5255  1.1068  0.1614
  954MOL0     C25857   1.793  11.678   6.333  0.5114 -0.9346  0.1128
  954MOL0     C25858   1.852  11.799   6.260 -0.3485 -0.0904 -0.2331
  954MOL0     C25859   1.825  11.923   6.328  0.9564  0.1222 -0.2219
  954MOL0     C25860   1.806  12.038   6.372 -0.0186  1.4664 -0.3320
  954MOL0     C25861   1.772  11.192   6.468 -0.2976 -0.3388 -0.3822
  954MOL0     C25862   1.712  11.072   6.514  0.3404 -0.4752 -0.7924
  954MOL0     H25863   1.250  10.965   6.511 -1.8176  0.0735  1.1359
  954MOL0     H25864   1.070  10.785   6.486 -1.0801  0.9136  0.6254
  954MOL0     H25865   1.083  10.427   6.599  1.3558  1.5012 -0.2305
  954MOL0     H25866   1.092  10.550   6.473 -0.2016  3.6076  1.2987
  954MOL0     H25867   0.887  10.408   6.413 -1.8048 -1.7658  0.9681
  954MOL0     H25868   0.821  10.557   6.484 -0.7761  0.3640  1.7551
  954MOL0     H25869   0.793  10.441   6.700 -2.7353 -4.8974  2.0522
  954MOL0     H25870   0.895  10.318   6.631 -1.5899 -2.2631 -1.3571
  954MOL0     H25871   0.619  10.409   6.542 -1.7394  0.2132  1.6286
  954MOL0     H25872   0.708  10.265   6.463 -3.1027 -1.1729  0.3407
  954MOL0     H25873   0.508  10.289   6.676 -2.7886 -2.1203 -0.9455
  954MOL0     H25874   0.659  10.256   6.758 -1.6898  0.8619  0.5129
  954MOL0     H25875   0.701  10.048   6.614 -2.0542 -4.2285 -6.3359
  954MOL0     H25876   0.568  10.076   6.521 -0.5320  0.9276 -0.6373
  954MOL0     H25877   0.486   9.920   6.688 -2.5169 -0.5092  2.2966
  954MOL0     H25878   0.549  10.011   6.822  1.4622 -2.5849 -0.4457
  954MOL0     H25879   0.337  10.146   6.634  2.3566  3.1040  0.8145
  954MOL0     H25880   0.381  10.169   6.807  0.4223 -0.3172 -0.8725
  954MOL0     H25881   0.296   9.949   6.988 -1.6546  1.6786  0.6630
  954MOL0     H25882   0.070   9.818   7.051  0.2981  1.6700 -1.4198
  954MOL0     H25883   0.189   9.686   7.010 -0.7642 -3.1267 -0.3695
  954MOL0     H25884   0.008   9.585   6.881 -1.3413 -0.6932 -0.9594
  954MOL0     H25885  -0.079   9.733   6.867 -0.2102 -1.4101 -0.7988
  954MOL0     H25886  -0.019   9.574   7.120  0.1675 -1.3950 -0.6541
  954MOL0     H25887  -0.140   9.718   7.115  2.2199  1.6835  0.7023
  954MOL0     H25888  -0.181   9.467   6.949 -1.0048 -0.4741  1.3584
  954MOL0     H25889  -0.286   9.602   7.001  1.6926  2.3670  0.4504
  954MOL0     H25890  -0.428   9.632   7.191 -0.5430  0.3652  0.4885
  954MOL0     H25891  -0.495   9.696   7.437  0.4280 -1.4641  1.1864
  954MOL0     H25892  -0.502   9.894   7.785  0.6995 -1.6310 -0.5903
  954MOL0     H25893  -0.596   9.965   8.006  2.1171 -0.3878 -0.2685
  954MOL0     H25894  -0.779   9.954   8.188 -1.7088  1.3929  3.0612
  954MOL0     H25895  -0.829   9.847   8.320 -3.5163 -2.9025 -0.6205
  954MOL0     H25896  -0.944   9.692   8.171 -2.6570  0.2065 -0.5144
  954MOL0     H25897  -0.901   9.789   8.028  1.1969  1.0619 -0.0354
  954MOL0     H25898  -1.098   9.885   8.070 -0.4041  1.4754  0.4521
  954MOL0     H25899  -1.004   9.990   8.184 -3.1270  0.9442  0.5275
  954MOL0     H25900  -1.142   9.729   8.255  1.4026  0.2044 -1.0397
  954MOL0     H25901  -1.084   9.841   8.382 -0.9270 -0.8732  2.0750
  954MOL0     H25902  -1.316   9.892   8.167  0.1692 -1.8616  0.8811
  954MOL0     H25903  -1.257  10.020   8.281  0.5332  0.4119  1.3959
  954MOL0     H25904  -1.387   9.768   8.396  0.9697  0.9302  0.5135
  954MOL0     H25905  -1.480   9.914   8.347 -1.2833 -2.4846  0.2388
  954MOL0     H25906  -1.277   9.865   8.566  1.3446 -0.7033 -2.4851
  954MOL0     H25907  -1.303  10.039   8.504 -0.3668  0.5681  0.3849
  954MOL0     H25908  -1.535  10.001   8.568  1.9777  0.9316 -3.1024
  954MOL0     H25909  -1.416  10.021   8.704 -1.7805 -1.5091  1.7714
  954MOL0     H25910  -0.695   9.556   8.078 -0.1271 -0.7592  0.2811
  954MOL0     H25911  -0.604   9.486   7.853  2.2995 -0.5633 -0.9311
  954MOL0     H25912  -0.211   9.409   7.568 -3.5514 -2.8787  0.3992
  954MOL0     H25913  -0.133   9.379   7.365 -0.0009  0.8717 -0.4127
  954MOL0     H25914   1.165  10.632   6.870 -2.9247  0.1735  0.3789
  954MOL0     H25915   1.366  10.784   6.885 -1.4658 -2.7808  0.2228
  954MOL0     H25916   1.493  11.232   6.723  2.8006  0.7297  1.5714
  954MOL0     H25917   1.636  11.413   6.679 -1.3232  1.3428 -0.7123
  954MOL0     H25918   1.871  11.556   6.657 -0.3747  0.4186  0.2309
  954MOL0     H25919   1.720  11.567   6.591  0.5716 -0.3287  1.5678
  954MOL0     H25920   1.892  11.758   6.522  2.3060  0.3810  1.0747
  954MOL0     H25921   1.979  11.628   6.444  0.4756  2.1139 -1.7357
  954MOL0     H25922   1.686  11.694   6.322  0.6005 -0.9964 -0.9047
  954MOL0     H25923   1.812  11.591   6.269  0.5260 -0.2514 -0.8390
  954MOL0     H25924   1.960  11.783   6.245 -0.0365 -0.2631  1.9519
  954MOL0     H25925   1.791  11.812   6.170 -2.5281 -0.5353  1.1162
  954MOL0     H25926   1.808  12.139   6.406  1.8069  1.3698 -0.0529
  954MOL0     H25927   1.847  11.186   6.390  1.3128 -0.0375  1.0942
  954MOL0     H25928   1.745  10.980   6.467  1.3428 -0.9141  0.6938
  955MOL0     O25929  10.125   3.565   7.589  0.5845  0.9033 -0.1474
  955MOL0     C25930  10.038   3.494   7.636  0.6932  1.3531 -0.1661
  955MOL0     O25931   9.901   3.502   7.603 -0.6429 -0.5199 -0.2382
  955MOL0     C25932   9.853   3.623   7.551 -0.4346  0.2854 -0.0059
  955MOL0     C25933   9.926   3.689   7.449 -0.0195  0.4177 -0.1471
  955MOL0     C25934   9.881   3.818   7.426  1.0929  1.2723  0.0142
  955MOL0     C25935   9.756   3.870   7.468 -0.2767 -0.7458  0.5902
  955MOL0     O25936   9.741   4.007   7.445  0.1726 -0.1440 -0.7848
  955MOL0     C25937   9.615   4.041   7.378 -0.0011 -0.7042  0.3615
  955MOL0     C25938   9.585   4.188   7.404 -1.4890  0.2843  0.1349
  955MOL0     C25939   9.466   4.257   7.356 -0.7295 -0.2108 -0.1090
  955MOL0     C25940   9.482   4.402   7.403 -0.1417 -0.1200  0.5092
  955MOL0     C25941   9.372   4.493   7.347  1.3639 -0.8479  0.2469
  955MOL0     C25942   9.222   4.444   7.382 -0.9048 -0.0688  0.2470
  955MOL0     C25943   9.154   4.370   7.269  0.4842  0.0592  0.9047
  955MOL0     C25944   9.023   4.323   7.316  0.9510  0.0821  0.7315
  955MOL0     N25945   8.973   4.233   7.220  0.0713  0.0484  0.0802
  955MOL0     C25946   8.974   4.091   7.229 -0.2806 -0.4049 -0.0004
  955MOL0     C25947   8.927   4.046   7.114 -0.4516  0.8745  0.4495
  955MOL0     C25948   8.888   3.907   7.064  0.4863  1.0216 -0.3015
  955MOL0     C25949   8.984   3.867   6.949  0.0429 -0.0929  0.8336
  955MOL0     C25950   8.999   3.711   6.953  0.7470  0.6715  0.9969
  955MOL0     C25951   9.042   3.661   6.808  0.4322  1.1709  0.2894
  955MOL0     O25952   9.107   3.531   6.828 -0.1826 -0.7732 -0.9435
  955MOL0     C25953   9.171   3.470   6.718 -0.2350 -1.2522 -0.2602
  955MOL0     C25954   9.148   3.520   6.585  0.9503 -0.2446 -0.1482
  955MOL0     C25955   9.199   3.462   6.474 -1.1558  0.2773  0.3073
  955MOL0     C25956   9.290   3.353   6.492  0.4937 -0.5242 -0.2566
  955MOL0     C25957   9.333   3.294   6.373 -0.4337 -1.3013  0.6671
  955MOL0     O25958   9.335   3.371   6.259  0.4547 -0.1670  0.5491
  955MOL0     C25959   9.379   3.330   6.133 -0.1994  0.2140 -0.4506
  955MOL0     C25960   9.378   3.196   6.093 -0.1343 -0.0001 -0.6760
  955MOL0     C25961   9.405   3.166   5.963 -0.1788 -0.1515  0.5778
  955MOL0     C25962   9.457   3.266   5.874  0.7989  0.4646  0.3546
  955MOL0     O25963   9.491   3.235   5.749 -0.1377  0.5106  0.4429
  955MOL0     C25964   9.581   3.123   5.736 -0.0679 -0.0828 -0.0792
  955MOL0     C25965   9.517   3.002   5.662 -0.1790 -0.2386 -0.1900
  955MOL0     C25966   9.630   2.900   5.618 -0.7153  0.3667  0.2556
  955MOL0     C25967   9.566   2.787   5.532 -0.2344  0.5809 -0.1846
  955MOL0     C25968   9.653   2.666   5.481  0.1349  0.4249  0.6420
  955MOL0     C25969   9.787   2.654   5.541 -1.1169  0.7898  1.4032
  955MOL0     C25970   9.860   2.525   5.525  0.1535  0.3752 -0.3250
  955MOL0     C25971   9.850   2.473   5.378 -0.3469 -0.8643  0.2455
  955MOL0    Cl25972   9.711   2.357   5.361 -0.1771 -0.1889  0.0178
  955MOL0     C25973   9.457   3.398   5.913  0.3352 -0.0737  0.2078
  955MOL0     C25974   9.415   3.433   6.039  0.1466 -0.1796  0.2439
  955MOL0     O25975   9.363   3.181   6.377 -0.3804  0.3535  0.3531
  955MOL0     C25976   9.310   3.299   6.622  0.2780 -0.0419 -0.3521
  955MOL0     C25977   9.249   3.353   6.738 -1.3494 -0.2678  0.7592
  955MOL0     N25978   8.913   4.147   7.021  0.4043  0.1184  0.7668
  955MOL0     N25979   8.931   4.264   7.086 -0.5265  0.6944  0.2356
  955MOL0     C25980   9.681   3.792   7.554  0.1405 -0.0733 -0.2763
  955MOL0     C25981   9.726   3.669   7.591  0.7067  0.4081 -0.9379
  955MOL0     C25982  10.078   3.395   7.739 -0.0182  0.9298  0.2152
  955MOL0     C25983  10.218   3.386   7.768 -0.0045  0.4897  0.4028
  955MOL0     C25984  10.262   3.314   7.877  1.4526  0.9640 -0.4554
  955MOL0     C25985  10.169   3.270   7.976 -0.3183 -0.4495 -0.9609
  955MOL0     O25986  10.208   3.217   8.101 -0.2242  0.2244 -0.2037
  955MOL0     C25987  10.348   3.202   8.130  0.0628 -0.2222  0.1560
  955MOL0     C25988  10.361   3.177   8.284 -0.2758 -0.3573  0.2077
  955MOL0     C25989  10.368   3.039   8.330  0.2722  0.9590  0.3002
  955MOL0     C25990  10.500   2.970   8.327 -0.6937  0.0946 -0.0025
  955MOL0     C25991  10.482   2.851   8.411  0.0251 -0.5124 -0.4357
  955MOL0     C25992  10.442   2.755   8.479  0.7201 -0.1008  0.7775
  955MOL0     C25993  10.036   3.267   7.937  0.3287  1.3144 -0.3135
  955MOL0     C25994   9.994   3.331   7.822  0.1638  0.4066  0.1551
  955MOL0     H25995  10.022   3.650   7.417 -0.0936  1.1924 -1.3729
  955MOL0     H25996   9.931   3.876   7.348  1.8101 -1.2690 -1.5323
  955MOL0     H25997   9.536   3.972   7.412  0.1915 -1.0313  0.1497
  955MOL0     H25998   9.617   4.028   7.270  0.4554 -0.5724  0.3558
  955MOL0     H25999   9.675   4.244   7.377 -2.5475  0.8703 -2.4444
  955MOL0     H26000   9.576   4.201   7.513  1.4954 -1.1340  0.6575
  955MOL0     H26001   9.375   4.206   7.390 -3.2266  1.6259 -3.4321
  955MOL0     H26002   9.464   4.254   7.246  2.0769 -0.9032 -0.2193
  955MOL0     H26003   9.491   4.413   7.511  1.9654  0.3905  0.3370
  955MOL0     H26004   9.577   4.434   7.359 -1.1646 -0.4811 -2.1297
  955MOL0     H26005   9.365   4.487   7.238 -1.4847 -4.4594  0.4445
  955MOL0     H26006   9.395   4.599   7.366 -0.6004 -1.0087  5.1711
  955MOL0     H26007   9.159   4.530   7.407 -1.7005 -0.4000 -0.5629
  955MOL0     H26008   9.215   4.381   7.471 -0.4744 -0.3344  0.0977
  955MOL0     H26009   9.135   4.449   7.196  0.8479  0.6199  1.4090
  955MOL0     H26010   9.215   4.293   7.221  1.0713  0.9885  0.1320
  955MOL0     H26011   8.964   4.415   7.310  0.9328 -0.0174 -1.7583
  955MOL0     H26012   9.034   4.284   7.417 -1.3580 -2.3020  0.1616
  955MOL0     H26013   9.004   4.029   7.313 -0.7963  0.0385  0.5188
  955MOL0     H26014   8.784   3.912   7.031 -0.2978  2.4179  2.2069
  955MOL0     H26015   8.882   3.839   7.149 -3.2052 -1.4009 -2.2050
  955MOL0     H26016   9.077   3.924   6.945  1.5581 -2.4577 -2.0320
  955MOL0     H26017   8.932   3.884   6.854 -0.7009 -1.0998  1.0461
  955MOL0     H26018   9.066   3.676   7.033  0.5637  0.9080  1.2580
  955MOL0     H26019   8.901   3.662   6.957 -0.1197  1.8960 -2.3173
  955MOL0     H26020   9.104   3.735   6.756 -1.6195  3.6218  1.0937
  955MOL0     H26021   8.952   3.648   6.747 -0.8779  0.9871  2.1842
  955MOL0     H26022   9.064   3.584   6.563  0.0520 -1.6551 -0.9746
  955MOL0     H26023   9.164   3.494   6.376 -2.8252  0.6521  1.0081
  955MOL0     H26024   9.349   3.110   6.151  0.3448 -0.3898 -1.0051
  955MOL0     H26025   9.393   3.062   5.934 -0.2907  0.2260 -0.8197
  955MOL0     H26026   9.611   3.089   5.836 -1.9357 -1.6985 -0.0073
  955MOL0     H26027   9.666   3.154   5.675 -0.8635  0.9914 -0.6771
  955MOL0     H26028   9.462   3.034   5.573 -4.1031  1.8076  2.6428
  955MOL0     H26029   9.446   2.943   5.720 -1.9582  2.1006  0.1819
  955MOL0     H26030   9.687   2.867   5.706 -0.0750 -1.4494 -0.7814
  955MOL0     H26031   9.694   2.954   5.548  0.8828 -0.7227  0.8070
  955MOL0     H26032   9.495   2.741   5.601  2.8458  0.6203  3.3438
  955MOL0     H26033   9.516   2.831   5.445 -1.8051  0.9790  0.8811
  955MOL0     H26034   9.662   2.672   5.372 -1.3137  1.9688  0.5639
  955MOL0     H26035   9.597   2.574   5.503 -0.6849  1.0246  1.1033
  955MOL0     H26036   9.793   2.664   5.650  2.1110  2.3897  1.2117
  955MOL0     H26037   9.857   2.727   5.498  0.0859 -0.6375  0.8775
  955MOL0     H26038   9.966   2.543   5.546  0.0583  0.1409  0.3787
  955MOL0     H26039   9.819   2.448   5.591 -3.7520 -1.0775 -4.0455
  955MOL0     H26040   9.937   2.416   5.344 -1.4744 -0.7557 -3.2724
  955MOL0     H26041   9.832   2.557   5.310  1.2336  0.1685  1.0620
  955MOL0     H26042   9.491   3.462   5.832 -1.0868 -0.2643 -0.5918
  955MOL0     H26043   9.410   3.540   6.061 -0.9916  0.3226 -2.1613
  955MOL0     H26044   9.363   3.205   6.626  0.0343 -0.1627  2.8964
  955MOL0     H26045   9.267   3.306   6.834 -1.8642  1.7945  1.9110
  955MOL0     H26046   9.594   3.829   7.607 -0.0562 -0.7732 -0.1114
  955MOL0     H26047   9.655   3.634   7.665 -0.4655  2.2590 -1.1263
  955MOL0     H26048  10.286   3.452   7.715 -0.8071  1.2076  0.2393
  955MOL0     H26049  10.367   3.313   7.906  1.4684  1.5975 -0.4774
  955MOL0     H26050  10.398   3.295   8.100 -1.1083  0.7527  1.1209
  955MOL0     H26051  10.382   3.120   8.066 -2.0530 -0.0687 -1.2896
  955MOL0     H26052  10.459   3.210   8.321  1.4272 -3.7382 -0.8431
  955MOL0     H26053  10.283   3.230   8.338 -2.1859 -1.9470 -0.8681
  955MOL0     H26054  10.295   2.982   8.271  1.7587  1.8908 -2.6159
  955MOL0     H26055  10.329   3.037   8.433  1.6842 -1.3777  0.8473
  955MOL0     H26056  10.527   2.940   8.225  1.3579  0.0774  0.5097
  955MOL0     H26057  10.580   3.038   8.357 -0.3602  0.3576 -1.4039
  955MOL0     H26058  10.406   2.672   8.536 -1.8196  1.5016  1.6601
  955MOL0     H26059   9.971   3.211   8.003 -0.3926  2.2561 -0.2054
  955MOL0     H26060   9.895   3.328   7.777  1.2518 -0.1719 -2.3969
  956MOL0     O26061   2.894   7.525   7.635  0.1980 -0.0904  0.3773
  956MOL0     C26062   2.935   7.448   7.551  0.5513  0.8980  0.2578
  956MOL0     O26063   2.876   7.404   7.427  0.4182 -0.4887  0.4926
  956MOL0     C26064   2.814   7.515   7.374  0.4996  0.4745 -0.2093
  956MOL0     C26065   2.893   7.613   7.303  0.1958  0.0953  0.2327
  956MOL0     C26066   2.830   7.733   7.258  0.4237  0.4999 -0.2239
  956MOL0     C26067   2.697   7.746   7.289  0.1638 -0.5567 -0.1950
  956MOL0     O26068   2.651   7.869   7.248  0.6552 -0.4103  0.1215
  956MOL0     C26069   2.507   7.902   7.251  0.4207  1.1712  1.5691
  956MOL0     C26070   2.473   7.978   7.385  0.6326  0.1285  1.4438
  956MOL0     C26071   2.465   7.885   7.502  0.0121  0.4221  0.0186
  956MOL0     C26072   2.455   7.975   7.626  0.5192 -0.2285 -0.8705
  956MOL0     C26073   2.369   7.896   7.727 -0.8430 -0.8453 -0.3357
  956MOL0     C26074   2.325   7.976   7.845 -0.1769  0.7300  1.3483
  956MOL0     C26075   2.218   7.907   7.930 -0.6378 -0.1609 -0.1982
  956MOL0     C26076   2.158   8.011   8.027 -0.6027  0.3103 -0.0896
  956MOL0     N26077   2.072   7.945   8.125 -0.3435  0.0588 -0.2391
  956MOL0     C26078   2.108   7.915   8.260 -0.2171  0.0415 -0.4844
  956MOL0     C26079   1.990   7.853   8.303 -0.2369 -0.7428  0.7014
  956MOL0     C26080   1.983   7.786   8.438  0.2582 -0.2392  0.0898
  956MOL0     C26081   2.068   7.665   8.475  0.2573  0.4697 -0.7088
  956MOL0     C26082   2.014   7.541   8.388  0.3613 -0.1914 -0.2209
  956MOL0     C26083   2.095   7.415   8.408  0.3727 -0.1204 -0.0058
  956MOL0     O26084   2.233   7.441   8.373  0.3206 -0.5284  1.0198
  956MOL0     C26085   2.318   7.353   8.435 -0.3641  0.7763 -0.1770
  956MOL0     C26086   2.329   7.225   8.387  0.3006  0.6528 -0.5855
  956MOL0     C26087   2.445   7.154   8.426 -0.9073  0.1379  0.2441
  956MOL0     C26088   2.544   7.212   8.508 -0.0376 -0.1026 -0.6018
  956MOL0     C26089   2.668   7.133   8.512  0.2288 -1.1613  0.2405
  956MOL0     O26090   2.667   7.004   8.474 -0.6847 -0.1090  0.8863
  956MOL0     C26091   2.769   6.930   8.436 -0.1761  0.8928 -0.9531
  956MOL0     C26092   2.908   6.942   8.481 -0.1323  0.6389  0.0282
  956MOL0     C26093   3.007   6.859   8.426  0.2706  0.1259  0.5464
  956MOL0     C26094   2.983   6.775   8.325  0.3587  0.2460  0.0906
  956MOL0     O26095   3.086   6.697   8.278 -0.3208  0.5648  0.3906
  956MOL0     C26096   3.050   6.562   8.228  0.5244 -0.6691  0.1926
  956MOL0     C26097   3.158   6.468   8.281 -0.2771 -1.1961  0.1221
  956MOL0     C26098   3.280   6.454   8.186  0.8806 -0.8278  0.1828
  956MOL0     C26099   3.404   6.391   8.254 -0.7209 -0.7257  0.5900
  956MOL0     C26100   3.379   6.240   8.251  0.6377 -0.1650 -0.1985
  956MOL0     C26101   3.517   6.177   8.279  0.3689 -0.3550 -0.2301
  956MOL0     C26102   3.512   6.020   8.260  0.0518 -0.7376  1.0037
  956MOL0     C26103   3.632   5.975   8.174 -0.1521 -0.2075 -0.7164
  956MOL0    Cl26104   3.783   6.037   8.268 -0.0609  0.1730 -0.4689
  956MOL0     C26105   2.853   6.763   8.268  0.8215 -0.3310 -0.4063
  956MOL0     C26106   2.746   6.843   8.323 -0.0764  0.4792 -0.7302
  956MOL0     O26107   2.765   7.202   8.544  0.4811  0.3468  0.5096
  956MOL0     C26108   2.528   7.331   8.566 -0.1316 -0.3001 -0.1138
  956MOL0     C26109   2.407   7.409   8.532  0.1154 -0.5684  0.2618
  956MOL0     N26110   1.891   7.857   8.206  0.1707 -0.0751 -0.2688
  956MOL0     N26111   1.943   7.911   8.106 -0.0728  0.5022  0.4421
  956MOL0     C26112   2.620   7.643   7.340 -0.7528  0.0217  0.0546
  956MOL0     C26113   2.678   7.531   7.396  0.2970  0.1864  0.8317
  956MOL0     C26114   3.065   7.378   7.584  0.5251 -0.0400 -0.6928
  956MOL0     C26115   3.105   7.263   7.510 -0.3546 -0.6138  0.7616
  956MOL0     C26116   3.225   7.203   7.530  1.1676  0.0952  0.7964
  956MOL0     C26117   3.303   7.242   7.638  0.2348 -0.1173 -0.4009
  956MOL0     O26118   3.428   7.201   7.660 -0.9208  0.3279 -0.0725
  956MOL0     C26119   3.444   7.065   7.635  0.0113  0.9764  0.1274
  956MOL0     C26120   3.572   7.027   7.717  0.5542  0.0660  0.1366
  956MOL0     C26121   3.618   6.887   7.694  0.2259 -0.6728  0.0683
  956MOL0     C26122   3.741   6.884   7.593  0.2106 -0.0204  0.1983
  956MOL0     C26123   3.779   6.753   7.550  0.4563 -0.2029 -0.6981
  956MOL0     C26124   3.805   6.631   7.539  0.5644 -0.0478  0.3417
  956MOL0     C26125   3.261   7.344   7.718  0.0789  0.6273  0.8585
  956MOL0     C26126   3.145   7.410   7.699  0.7009 -0.2234  0.0775
  956MOL0     H26127   2.993   7.588   7.269 -0.9744 -3.2441 -1.1793
  956MOL0     H26128   2.881   7.815   7.207 -0.9107  1.7641  0.3856
  956MOL0     H26129   2.451   7.811   7.230 -0.0680  1.7515  0.1736
  956MOL0     H26130   2.489   7.952   7.155 -2.2726 -3.1251 -0.4731
  956MOL0     H26131   2.378   8.031   7.374 -1.3038 -3.5807 -2.3582
  956MOL0     H26132   2.541   8.063   7.395 -1.6067  2.2823 -0.2230
  956MOL0     H26133   2.562   7.835   7.516  0.9769  1.0731 -3.4517
  956MOL0     H26134   2.380   7.819   7.483 -0.7382  2.0422 -2.8579
  956MOL0     H26135   2.551   7.990   7.675 -0.8680 -1.8913  2.7183
  956MOL0     H26136   2.420   8.074   7.596 -1.1552 -0.1523  1.1073
  956MOL0     H26137   2.434   7.810   7.751  0.3982  0.5692  1.6595
  956MOL0     H26138   2.279   7.844   7.693 -0.7239 -4.8344  4.2746
  956MOL0     H26139   2.294   8.069   7.797 -1.4767 -1.0371 -1.4814
  956MOL0     H26140   2.420   8.000   7.894  1.8130 -0.3646 -1.6446
  956MOL0     H26141   2.142   7.870   7.861  0.3416 -2.5918 -0.0916
  956MOL0     H26142   2.268   7.823   7.980  0.1983  0.4286 -0.0303
  956MOL0     H26143   2.094   8.078   7.969 -3.0196 -0.0196  1.9991
  956MOL0     H26144   2.239   8.065   8.076  0.2366 -0.9528 -0.0645
  956MOL0     H26145   2.201   7.936   8.311 -1.8312  0.7321  2.4161
  956MOL0     H26146   1.882   7.761   8.471  0.8395  0.8840  3.0677
  956MOL0     H26147   2.012   7.865   8.508 -1.2374  0.7338 -0.3466
  956MOL0     H26148   2.064   7.631   8.579 -0.5704 -2.2597 -1.5385
  956MOL0     H26149   2.173   7.694   8.468  0.8870 -1.5726 -0.5374
  956MOL0     H26150   1.911   7.525   8.422 -0.0595 -0.6943 -1.6562
  956MOL0     H26151   2.015   7.574   8.283 -2.3583  0.9573  0.0271
  956MOL0     H26152   2.056   7.328   8.353  0.3286 -0.2753  0.2671
  956MOL0     H26153   2.083   7.381   8.511 -2.0737 -4.0321 -1.3524
  956MOL0     H26154   2.255   7.195   8.314  1.8135 -0.1799 -1.8264
  956MOL0     H26155   2.453   7.059   8.374  0.5782  1.9469 -3.1824
  956MOL0     H26156   2.924   7.000   8.572 -1.6294 -0.2344  0.9043
  956MOL0     H26157   3.107   6.861   8.467  0.4302  1.7329  0.1565
  956MOL0     H26158   3.041   6.559   8.119  3.8930  1.2414 -0.3048
  956MOL0     H26159   2.963   6.529   8.285  0.3028 -1.2426 -0.4719
  956MOL0     H26160   3.109   6.372   8.297 -1.6496 -0.3865  0.9560
  956MOL0     H26161   3.182   6.496   8.384 -2.4867 -2.2893  0.9984
  956MOL0     H26162   3.302   6.551   8.141  4.6552 -1.1524  1.0264
  956MOL0     H26163   3.244   6.396   8.101  0.8115  0.8394 -0.9694
  956MOL0     H26164   3.483   6.432   8.190 -0.4180 -2.7293 -0.3935
  956MOL0     H26165   3.409   6.427   8.357 -4.3474  1.5040  0.1719
  956MOL0     H26166   3.338   6.215   8.152  0.4244  0.6428 -0.3214
  956MOL0     H26167   3.307   6.215   8.329 -2.5780  2.2753 -2.0974
  956MOL0     H26168   3.549   6.212   8.377  0.4100  3.0990 -1.3577
  956MOL0     H26169   3.593   6.214   8.210  0.5373 -2.4574 -1.2620
  956MOL0     H26170   3.525   5.978   8.360  1.3310 -3.2831 -0.1296
  956MOL0     H26171   3.417   5.988   8.216  0.1711 -0.7139  0.7303
  956MOL0     H26172   3.640   6.027   8.078 -0.9001  0.0586 -0.6410
  956MOL0     H26173   3.636   5.866   8.161 -1.7819 -0.1060 -2.7199
  956MOL0     H26174   2.842   6.708   8.175  3.5568  0.4533 -1.2842
  956MOL0     H26175   2.647   6.852   8.280  0.3746 -0.6377 -2.0883
  956MOL0     H26176   2.599   7.384   8.628 -1.2269  0.7456  0.2895
  956MOL0     H26177   2.384   7.507   8.572 -0.0715  0.6233 -2.5455
  956MOL0     H26178   2.513   7.654   7.334 -0.8084 -1.1191 -4.4397
  956MOL0     H26179   2.614   7.459   7.446  1.5449 -1.6096 -0.0239
  956MOL0     H26180   3.042   7.218   7.433  1.8629 -2.1772 -0.2579
  956MOL0     H26181   3.266   7.130   7.462  1.7764  0.2685  0.9728
  956MOL0     H26182   3.453   7.065   7.526 -1.9250 -0.7609 -0.1038
  956MOL0     H26183   3.353   7.006   7.652 -1.6123  1.4934 -5.0649
  956MOL0     H26184   3.641   7.107   7.689  1.7976 -0.9906  0.0816
  956MOL0     H26185   3.552   7.055   7.821 -0.4372  2.9622 -0.7307
  956MOL0     H26186   3.532   6.827   7.661 -1.1340  1.1565  0.1359
  956MOL0     H26187   3.648   6.845   7.791  0.6187 -0.7718 -0.0959
  956MOL0     H26188   3.719   6.942   7.502  0.7625 -2.7290 -1.7763
  956MOL0     H26189   3.826   6.942   7.632 -0.4775 -0.2942  2.2265
  956MOL0     H26190   3.812   6.524   7.537  2.2920 -0.0012  1.6178
  956MOL0     H26191   3.324   7.367   7.803  0.5825  2.1500  0.0984
  956MOL0     H26192   3.102   7.487   7.763  1.6496  0.1453  0.2932
  957MOL0     O26193   2.684   8.617   1.780  0.4242 -0.8405 -0.2354
  957MOL0     C26194   2.688   8.739   1.761  0.3482  0.5704 -0.2916
  957MOL0     O26195   2.737   8.830   1.844 -0.0947 -0.4454  0.3472
  957MOL0     C26196   2.807   8.779   1.958 -0.6706  0.6317 -0.1062
  957MOL0     C26197   2.757   8.810   2.079  2.1128  0.4444  0.0992
  957MOL0     C26198   2.814   8.773   2.197  0.0187  0.8641  0.0021
  957MOL0     C26199   2.924   8.682   2.198 -1.0179 -1.0168 -0.9519
  957MOL0     O26200   2.995   8.650   2.303  0.4026  0.3163 -0.3250
  957MOL0     C26201   2.941   8.587   2.421  0.6258  1.3151 -0.0353
  957MOL0     C26202   2.942   8.430   2.416 -0.0822 -0.5908  0.6541
  957MOL0     C26203   2.948   8.373   2.563 -0.3674  0.7152 -0.0384
  957MOL0     C26204   2.916   8.224   2.575  1.4217  0.1896  0.2464
  957MOL0     C26205   2.945   8.165   2.711  0.1062  0.6911  0.9053
  957MOL0     C26206   2.857   8.224   2.827 -0.2848 -0.0355  0.3177
  957MOL0     C26207   2.870   8.153   2.965 -0.3274 -0.2062 -0.8446
  957MOL0     C26208   2.753   8.188   3.061  0.0184 -0.2571  0.4069
  957MOL0     N26209   2.618   8.154   3.009 -0.1291  0.9313 -0.6312
  957MOL0     C26210   2.523   8.246   3.003 -0.5165 -0.2434 -0.4185
  957MOL0     C26211   2.410   8.175   2.961  0.1803 -0.4217 -0.1588
  957MOL0     C26212   2.265   8.217   2.937  0.5429  0.3008  0.0353
  957MOL0     C26213   2.228   8.310   2.817 -1.1063  0.1179 -1.1853
  957MOL0     C26214   2.263   8.452   2.865  0.0247 -0.3180 -0.6835
  957MOL0     C26215   2.225   8.547   2.755 -1.2950 -0.2816  0.2309
  957MOL0     O26216   2.281   8.683   2.771  0.3910 -0.5350 -1.0904
  957MOL0     C26217   2.294   8.775   2.670 -0.5743 -1.2214 -0.0240
  957MOL0     C26218   2.328   8.908   2.716  0.6829  0.1976 -0.0354
  957MOL0     C26219   2.345   9.008   2.626 -1.6460 -0.9126  0.4194
  957MOL0     C26220   2.333   8.977   2.494 -0.2843 -0.6667 -0.0118
  957MOL0     C26221   2.369   9.082   2.385 -0.0773  0.0250 -0.7406
  957MOL0     O26222   2.380   9.205   2.432  0.1645  1.0431  0.1157
  957MOL0     C26223   2.410   9.311   2.353  0.7710 -0.9071 -0.1094
  957MOL0     C26224   2.448   9.431   2.411  0.6117 -0.0359 -1.1005
  957MOL0     C26225   2.475   9.543   2.332  0.3824 -0.1703  0.1047
  957MOL0     C26226   2.479   9.539   2.195 -0.5900  0.1318 -0.9252
  957MOL0     O26227   2.511   9.642   2.114 -0.0747 -1.2734 -0.2233
  957MOL0     C26228   2.582   9.751   2.175  0.0439  0.1692  0.9414
  957MOL0     C26229   2.608   9.862   2.062  0.1509 -0.0725  0.3844
  957MOL0     C26230   2.758   9.913   2.070 -0.4116 -0.2372  1.2220
  957MOL0     C26231   2.859   9.795   2.019 -0.1071 -0.0476 -0.7270
  957MOL0     C26232   2.910   9.835   1.875  1.7052  1.0849 -0.0280
  957MOL0     C26233   3.009   9.722   1.833 -1.1389  0.8413 -0.4912
  957MOL0     C26234   3.089   9.759   1.705  0.0289 -0.1885  0.2757
  957MOL0     C26235   3.132   9.648   1.617 -0.3488 -0.3764  0.1720
  957MOL0    Cl26236   3.206   9.696   1.458  0.3731  0.3750  0.0834
  957MOL0     C26237   2.442   9.419   2.135 -0.0706 -0.5279 -0.0762
  957MOL0     C26238   2.387   9.315   2.212 -0.0346  0.1901  0.8379
  957MOL0     O26239   2.387   9.040   2.271  0.1400  0.2327  0.4932
  957MOL0     C26240   2.280   8.852   2.441 -0.1934  0.1859 -0.3603
  957MOL0     C26241   2.258   8.747   2.539 -0.3055 -0.8270  0.6809
  957MOL0     N26242   2.445   8.038   2.944  0.2239 -0.4255 -0.2552
  957MOL0     N26243   2.576   8.034   2.956  0.2522  0.2339 -0.7549
  957MOL0     C26244   2.975   8.638   2.080  0.7001 -0.3071 -0.3337
  957MOL0     C26245   2.915   8.688   1.961 -0.1371 -1.1452  0.3265
  957MOL0     C26246   2.668   8.785   1.622 -0.8864 -1.4292 -0.8447
  957MOL0     C26247   2.636   8.697   1.520 -0.6639  1.1440  0.0759
  957MOL0     C26248   2.611   8.726   1.391 -0.4193  0.3310  0.2569
  957MOL0     C26249   2.605   8.855   1.354 -0.4172  0.5153  0.1828
  957MOL0     O26250   2.573   8.893   1.226 -0.3781 -0.7131  0.2618
  957MOL0     C26251   2.545   8.791   1.129 -0.6942  0.0037  0.9420
  957MOL0     C26252   2.551   8.851   0.996  0.5116 -0.0841 -0.2402
  957MOL0     C26253   2.428   8.823   0.889 -0.3292 -0.8449  0.3242
  957MOL0     C26254   2.308   8.918   0.905  0.3094 -0.1450  0.7742
  957MOL0     C26255   2.257   8.907   1.034 -0.1121 -0.8297 -0.2988
  957MOL0     C26256   2.218   8.909   1.145  0.2481  0.1149  0.0354
  957MOL0     C26257   2.624   8.952   1.452 -0.9490  0.1505 -0.0780
  957MOL0     C26258   2.662   8.923   1.588 -0.6254 -0.3533  0.6889
  957MOL0     H26259   2.668   8.870   2.065  1.2454 -0.6821  0.6597
  957MOL0     H26260   2.779   8.811   2.292  0.5713  0.2395  0.4668
  957MOL0     H26261   2.841   8.626   2.437  0.6472  0.7973  1.5867
  957MOL0     H26262   3.004   8.621   2.505  2.5646  0.0506 -0.8999
  957MOL0     H26263   3.036   8.393   2.375 -0.0828  1.7418 -1.7209
  957MOL0     H26264   2.854   8.391   2.363  0.5578 -0.3522 -0.6155
  957MOL0     H26265   2.871   8.416   2.628 -0.0737 -0.3322  1.0410
  957MOL0     H26266   3.042   8.394   2.616 -2.0321 -2.0828  4.6542
  957MOL0     H26267   2.810   8.218   2.548  0.7569  0.0382  2.6093
  957MOL0     H26268   2.960   8.172   2.489 -0.0833  1.6688 -1.4895
  957MOL0     H26269   3.051   8.171   2.738 -0.1807 -1.8761  3.0915
  957MOL0     H26270   2.932   8.057   2.704  0.6580  0.6224  0.8858
  957MOL0     H26271   2.752   8.235   2.797  0.2145  2.0710 -0.8510
  957MOL0     H26272   2.886   8.329   2.838 -1.1824  0.1357  1.2703
  957MOL0     H26273   2.861   8.046   2.947  1.7772 -0.3978 -0.9667
  957MOL0     H26274   2.962   8.170   3.021 -1.3818 -1.5499  1.4240
  957MOL0     H26275   2.757   8.290   3.100  0.4295  1.0571 -2.7581
  957MOL0     H26276   2.757   8.125   3.150  1.8661  2.5458  2.4521
  957MOL0     H26277   2.529   8.350   3.032 -3.7399 -0.3090  0.9605
  957MOL0     H26278   2.218   8.262   3.025  0.1028 -0.0904  0.0073
  957MOL0     H26279   2.193   8.134   2.928  1.5640 -0.5920 -0.1020
  957MOL0     H26280   2.120   8.298   2.806 -0.8629 -3.8371 -0.5992
  957MOL0     H26281   2.278   8.273   2.727 -1.1151 -0.6480 -0.8816
  957MOL0     H26282   2.215   8.471   2.962 -1.5956 -0.2833 -1.4543
  957MOL0     H26283   2.371   8.464   2.864 -0.1435  1.6078 -2.7327
  957MOL0     H26284   2.116   8.556   2.752 -1.3407 -0.1488  1.4978
  957MOL0     H26285   2.277   8.515   2.665  2.5599  0.2203  2.0560
  957MOL0     H26286   2.333   8.923   2.824  0.8537  0.6103 -0.1025
  957MOL0     H26287   2.385   9.103   2.661 -0.9440 -1.0908  0.1350
  957MOL0     H26288   2.455   9.441   2.519 -3.3977  0.2787 -0.7154
  957MOL0     H26289   2.508   9.634   2.380  0.8010  1.4468 -2.9633
  957MOL0     H26290   2.677   9.724   2.220 -0.2346  0.7786  1.9323
  957MOL0     H26291   2.529   9.798   2.259 -0.6995 -0.4509  0.8315
  957MOL0     H26292   2.542   9.944   2.091 -1.3124 -1.6486  1.6636
  957MOL0     H26293   2.578   9.821   1.965 -4.2191  0.8028  1.1541
  957MOL0     H26294   2.785   9.960   2.165  1.5060  4.4404 -1.3224
  957MOL0     H26295   2.762  10.002   2.006 -0.4548 -1.3605 -0.4153
  957MOL0     H26296   2.939   9.782   2.091 -0.6607 -2.8396 -0.4926
  957MOL0     H26297   2.806   9.700   2.016  2.3480 -1.5726  1.0585
  957MOL0     H26298   2.972   9.926   1.876  3.2062  0.0909  0.9948
  957MOL0     H26299   2.835   9.838   1.795  2.4709  2.8048 -0.7516
  957MOL0     H26300   2.954   9.627   1.830 -1.7829  0.8613  3.8625
  957MOL0     H26301   3.093   9.706   1.901  0.5265 -0.1018 -2.6790
  957MOL0     H26302   3.021   9.813   1.638  0.7117 -2.1724 -2.1469
  957MOL0     H26303   3.173   9.818   1.744  0.9207 -1.3840  0.2182
  957MOL0     H26304   3.042   9.589   1.601 -0.5844  0.0083  0.0522
  957MOL0     H26305   3.198   9.581   1.673 -0.8636 -1.5953 -0.6494
  957MOL0     H26306   2.429   9.403   2.029 -1.3130 -2.5444  0.3219
  957MOL0     H26307   2.342   9.240   2.147 -2.3633  1.4468  0.8872
  957MOL0     H26308   2.267   8.830   2.335  0.5667 -3.9054  0.2154
  957MOL0     H26309   2.203   8.660   2.506  1.4887 -1.1627 -1.6565
  957MOL0     H26310   3.054   8.563   2.080  3.1962  2.0411  2.4440
  957MOL0     H26311   2.977   8.671   1.873 -0.2788 -0.4828  0.0973
  957MOL0     H26312   2.636   8.595   1.558  2.7303  0.4957 -1.3516
  957MOL0     H26313   2.591   8.644   1.322 -0.0473  2.4726 -2.5595
  957MOL0     H26314   2.449   8.740   1.138  1.3331 -4.6171 -0.5815
  957MOL0     H26315   2.618   8.710   1.135 -0.1603  0.0997 -2.2990
  957MOL0     H26316   2.559   8.960   1.006 -1.1412  0.0628 -0.1718
  957MOL0     H26317   2.645   8.813   0.954  0.3046 -0.6370 -0.2094
  957MOL0     H26318   2.396   8.719   0.881 -0.5613 -0.6979 -0.7446
  957MOL0     H26319   2.470   8.844   0.790  1.8907 -0.4854  1.2888
  957MOL0     H26320   2.334   9.022   0.886 -2.0112  0.6270  1.4658
  957MOL0     H26321   2.230   8.890   0.833  1.4991 -0.4495 -0.4304
  957MOL0     H26322   2.184   8.905   1.246 -1.2824  2.6400 -0.2984
  957MOL0     H26323   2.612   9.053   1.414 -0.4796  0.1829 -0.1444
  957MOL0     H26324   2.672   9.003   1.660  2.4409 -1.2963  1.4819
  958MOL0     O26325   8.313   7.847   7.047 -0.3314  0.4359 -0.1672
  958MOL0     C26326   8.212   7.801   7.105 -0.5413 -0.2997 -0.5409
  958MOL0     O26327   8.192   7.806   7.236  0.5624 -0.4318 -0.2171
  958MOL0     C26328   8.288   7.848   7.330 -0.3516 -0.3424 -0.1250
  958MOL0     C26329   8.322   7.984   7.317 -0.4804 -0.2708  0.4026
  958MOL0     C26330   8.435   8.022   7.393 -0.1288  0.3672  0.4108
  958MOL0     C26331   8.500   7.937   7.484  0.5767  0.0201  0.1426
  958MOL0     O26332   8.613   7.975   7.542 -0.1702  0.1253 -0.1379
  958MOL0     C26333   8.641   7.913   7.673  0.4076 -0.2092  0.0812
  958MOL0     C26334   8.750   7.987   7.749  1.6132 -0.1533  1.3326
  958MOL0     C26335   8.884   7.979   7.681 -0.4053 -0.2465 -0.3686
  958MOL0     C26336   9.008   8.031   7.755  0.3149 -0.1660  0.0922
  958MOL0     C26337   9.144   8.006   7.666 -0.0320 -0.3972 -0.2774
  958MOL0     C26338   9.274   8.021   7.750 -0.1065  1.0884  0.3975
  958MOL0     C26339   9.388   8.007   7.651  0.5761 -1.3015 -0.1017
  958MOL0     C26340   9.525   8.034   7.723  0.7423  0.0490 -0.3522
  958MOL0     N26341   9.551   7.953   7.837 -0.3715 -0.0187 -0.8315
  958MOL0     C26342   9.509   7.987   7.959  0.5100 -0.3794  0.2334
  958MOL0     C26343   9.544   7.884   8.043 -1.2330 -0.1910 -0.1007
  958MOL0     C26344   9.504   7.865   8.183 -0.8277  0.7658  1.0823
  958MOL0     C26345   9.360   7.857   8.191  0.4925 -0.1735 -0.2151
  958MOL0     C26346   9.281   7.772   8.076 -0.2993  0.9997 -0.7671
  958MOL0     C26347   9.132   7.794   8.084 -0.4489  0.2145  0.7909
  958MOL0     O26348   9.066   7.706   7.992  0.0672  0.1316  0.2090
  958MOL0     C26349   8.928   7.706   7.986  0.3881  1.0389  0.4881
  958MOL0     C26350   8.843   7.781   8.062 -1.1190 -1.0101  0.4116
  958MOL0     C26351   8.700   7.778   8.060 -0.1001  0.9267  0.1498
  958MOL0     C26352   8.635   7.678   7.971 -0.7154 -0.1734 -0.2039
  958MOL0     C26353   8.494   7.657   7.975  0.8506  0.3361  0.6126
  958MOL0     O26354   8.426   7.722   8.082  0.2873  0.2723 -0.0477
  958MOL0     C26355   8.291   7.701   8.081  0.4117  0.7813 -0.5381
  958MOL0     C26356   8.233   7.572   8.099 -0.8118 -0.4300  0.8925
  958MOL0     C26357   8.101   7.545   8.068 -1.1904 -0.1743 -0.5733
  958MOL0     C26358   8.012   7.645   8.054  0.9008 -0.0360 -1.6623
  958MOL0     O26359   7.882   7.604   8.072 -1.2580 -0.0544  0.4376
  958MOL0     C26360   7.784   7.694   8.025 -0.6417  0.2835  0.9167
  958MOL0     C26361   7.644   7.639   8.025 -0.1560 -0.1158 -0.8775
  958MOL0     C26362   7.604   7.599   8.168  0.6853  0.7396 -0.1165
  958MOL0     C26363   7.454   7.549   8.182 -0.1232 -0.4826 -0.1816
  958MOL0     C26364   7.404   7.542   8.326 -0.5681 -0.2131 -0.2564
  958MOL0     C26365   7.256   7.492   8.345  0.3151 -0.2143  0.7292
  958MOL0     C26366   7.239   7.346   8.347 -0.0023  0.5947 -0.5569
  958MOL0     C26367   7.100   7.307   8.309 -0.8195 -1.1648  0.3214
  958MOL0    Cl26368   7.064   7.345   8.141  0.2144  0.5090  0.0387
  958MOL0     C26369   8.053   7.777   8.042  0.4680  0.0890  0.9948
  958MOL0     C26370   8.191   7.801   8.054  0.2157 -0.0637 -0.1393
  958MOL0     O26371   8.442   7.579   7.886 -0.6332  0.5679 -0.2619
  958MOL0     C26372   8.723   7.596   7.894 -0.0700  0.3222  0.5049
  958MOL0     C26373   8.862   7.602   7.904  0.2861 -0.7332  0.1336
  958MOL0     N26374   9.618   7.797   7.968  0.2934 -0.4704 -0.0837
  958MOL0     N26375   9.623   7.840   7.849 -0.8677 -0.4170 -0.7679
  958MOL0     C26376   8.453   7.803   7.497 -0.2374  0.0702 -1.0543
  958MOL0     C26377   8.347   7.755   7.416 -1.4555  0.1319 -0.6689
  958MOL0     C26378   8.109   7.722   7.019 -0.6290 -0.5641 -0.9808
  958MOL0     C26379   8.128   7.723   6.878  0.6630 -0.8408 -0.5117
  958MOL0     C26380   8.041   7.626   6.813 -0.9686 -0.7372 -0.0442
  958MOL0     C26381   7.957   7.537   6.876 -1.2274  0.1615  0.3802
  958MOL0     O26382   7.879   7.438   6.823 -0.5682 -0.8573  0.3397
  958MOL0     C26383   7.867   7.430   6.682 -0.0001  0.1649 -0.0319
  958MOL0     C26384   7.756   7.523   6.649 -0.0665  0.2682 -0.6915
  958MOL0     C26385   7.678   7.477   6.521  0.3803  0.5468 -0.4359
  958MOL0     C26386   7.588   7.591   6.484  0.4975  0.5528  0.3731
  958MOL0     C26387   7.539   7.578   6.342 -0.4428 -1.1469 -0.6839
  958MOL0     C26388   7.511   7.589   6.229  0.3281 -0.3755 -0.5456
  958MOL0     C26389   7.950   7.549   7.013  0.0311  0.0931  0.0612
  958MOL0     C26390   8.016   7.638   7.083 -0.9728  0.0535  0.1422
  958MOL0     H26391   8.284   8.042   7.233 -1.7423 -0.9947  0.4598
  958MOL0     H26392   8.481   8.118   7.377 -0.4806  0.7498  1.5812
  958MOL0     H26393   8.675   7.809   7.671  2.5199  0.2998  2.9532
  958MOL0     H26394   8.540   7.917   7.716 -0.8822  1.3462 -2.8364
  958MOL0     H26395   8.756   7.934   7.844 -3.4180 -1.3218  1.2842
  958MOL0     H26396   8.712   8.090   7.751 -0.7590 -0.9805  1.2145
  958MOL0     H26397   8.878   8.044   7.593  0.8722  0.1741 -0.1605
  958MOL0     H26398   8.899   7.875   7.651  0.7063  0.6654 -3.3670
  958MOL0     H26399   9.001   8.137   7.784 -1.5776 -1.0136  3.2430
  958MOL0     H26400   9.004   7.985   7.854 -1.3113 -1.6098 -0.6053
  958MOL0     H26401   9.138   8.075   7.581 -4.1776  1.2512  1.1228
  958MOL0     H26402   9.149   7.905   7.622  0.7317 -0.4995  0.0262
  958MOL0     H26403   9.271   7.928   7.807 -2.4684  1.4446  0.9389
  958MOL0     H26404   9.279   8.115   7.807  0.4205  2.0068 -1.1024
  958MOL0     H26405   9.405   7.909   7.606  1.7752 -1.2935  0.2850
  958MOL0     H26406   9.377   8.070   7.563  4.2833  0.0160  0.2139
  958MOL0     H26407   9.530   8.140   7.747  4.0692 -0.6779  3.0763
  958MOL0     H26408   9.610   8.015   7.658 -0.7504  1.0456 -2.7178
  958MOL0     H26409   9.448   8.075   7.975  1.3095  0.6302 -1.9212
  958MOL0     H26410   9.554   7.928   8.257  3.7204 -0.6126 -0.4795
  958MOL0     H26411   9.536   7.762   8.204 -1.4254  0.3272 -0.1036
  958MOL0     H26412   9.323   7.960   8.194 -1.6065 -0.8677 -0.4157
  958MOL0     H26413   9.330   7.813   8.287  2.3408  2.2859  1.6481
  958MOL0     H26414   9.313   7.802   7.975  0.2283 -0.2414 -0.9843
  958MOL0     H26415   9.299   7.666   8.093  1.5232  1.4769  0.5249
  958MOL0     H26416   9.107   7.897   8.059 -0.0350 -0.5091 -3.2496
  958MOL0     H26417   9.106   7.779   8.190  2.3045 -1.5972  1.3128
  958MOL0     H26418   8.884   7.864   8.117  1.9284 -1.3249 -1.1266
  958MOL0     H26419   8.641   7.837   8.129  1.6521  1.0779  1.5849
  958MOL0     H26420   8.303   7.490   8.112  0.6249  0.2642 -1.7612
  958MOL0     H26421   8.064   7.443   8.068 -2.3098  0.1582  1.9358
  958MOL0     H26422   7.814   7.712   7.921 -3.3825  3.0759  0.4673
  958MOL0     H26423   7.789   7.790   8.077  2.8799 -1.1301  3.6274
  958MOL0     H26424   7.628   7.550   7.963 -0.3836  0.2998 -1.4324
  958MOL0     H26425   7.572   7.711   7.983 -0.9258 -1.2752 -1.5936
  958MOL0     H26426   7.621   7.681   8.239  2.1601 -0.6858  1.2492
  958MOL0     H26427   7.665   7.511   8.189 -1.5523 -0.6174  0.9992
  958MOL0     H26428   7.387   7.625   8.140 -1.4502  0.0651  2.6855
  958MOL0     H26429   7.454   7.457   8.122  0.6019  0.1744 -1.2230
  958MOL0     H26430   7.410   7.638   8.378 -0.2398 -1.1297  1.4943
  958MOL0     H26431   7.463   7.471   8.385  1.6654 -0.0519 -2.1627
  958MOL0     H26432   7.198   7.540   8.265  2.1962 -2.7171 -2.3774
  958MOL0     H26433   7.227   7.513   8.448  2.0044 -2.1342  1.6754
  958MOL0     H26434   7.302   7.294   8.274  0.0300  1.2879 -1.0341
  958MOL0     H26435   7.267   7.309   8.446 -2.4960 -1.6223 -0.5758
  958MOL0     H26436   7.026   7.358   8.372 -0.9198 -1.0849  0.1389
  958MOL0     H26437   7.082   7.200   8.323 -1.4007 -0.9999  0.8908
  958MOL0     H26438   7.983   7.860   8.034 -0.2185 -0.6984 -3.4912
  958MOL0     H26439   8.226   7.904   8.045  0.6762 -0.3110 -1.3968
  958MOL0     H26440   8.688   7.518   7.828  3.0800  0.8671 -2.0900
  958MOL0     H26441   8.927   7.549   7.835 -1.4051 -3.0708  0.2155
  958MOL0     H26442   8.497   7.731   7.565  0.3430  0.1105 -1.3832
  958MOL0     H26443   8.316   7.655   7.445 -0.3664 -0.9713 -3.0920
  958MOL0     H26444   8.190   7.797   6.828 -0.2344  2.4224  2.7443
  958MOL0     H26445   8.058   7.622   6.706 -1.8062 -1.4740 -0.1711
  958MOL0     H26446   7.840   7.325   6.662  1.7968 -0.5143  0.9068
  958MOL0     H26447   7.964   7.447   6.635  0.8079  1.0356  1.8799
  958MOL0     H26448   7.682   7.512   6.729  2.2509  1.1552  1.7303
  958MOL0     H26449   7.777   7.629   6.630 -2.1761  0.9195  0.3108
  958MOL0     H26450   7.616   7.390   6.543  0.2757  1.1277  1.8010
  958MOL0     H26451   7.733   7.443   6.433 -1.4884  2.3745 -2.4473
  958MOL0     H26452   7.492   7.584   6.535  0.6230  0.0033  0.5359
  958MOL0     H26453   7.637   7.688   6.499  0.4758  1.0647 -2.3124
  958MOL0     H26454   7.503   7.610   6.124  0.1754  1.2956 -0.2316
  958MOL0     H26455   7.875   7.488   7.063 -0.7427  0.4220 -0.6537
  958MOL0     H26456   8.007   7.642   7.191  1.2488 -0.2051  0.3734
  959MOL0     O26457   0.736   6.039   7.462 -0.2604 -0.8260 -0.1777
  959MOL0     C26458   0.761   6.086   7.351 -0.6463  1.1271 -0.7403
  959MOL0     O26459   0.674   6.115   7.250 -0.7659 -0.9376  1.2542
  959MOL0     C26460   0.541   6.129   7.259  0.4012 -0.4408 -0.3334
  959MOL0     C26461   0.464   6.138   7.378 -0.4796 -0.7724  0.5033
  959MOL0     C26462   0.335   6.185   7.361  0.5596  0.2833 -0.6560
  959MOL0     C26463   0.268   6.208   7.238  0.1196 -0.8071  0.9905
  959MOL0     O26464   0.134   6.244   7.228  0.1263 -0.2328 -0.1583
  959MOL0     C26465   0.058   6.223   7.110 -1.0671 -0.5664  0.0195
  959MOL0     C26466   0.056   6.066   7.086 -0.2821 -1.3170 -1.0817
  959MOL0     C26467  -0.048   5.996   7.180  0.5365 -0.6145 -0.0193
  959MOL0     C26468  -0.056   5.846   7.119  0.1833 -0.7429 -0.9221
  959MOL0     C26469  -0.159   5.838   7.008  0.2218  0.3436 -0.5284
  959MOL0     C26470  -0.177   5.693   6.973 -0.1745  0.4089  0.8544
  959MOL0     C26471  -0.289   5.688   6.869 -0.1689 -0.0415 -0.8541
  959MOL0     C26472  -0.340   5.544   6.873  0.5981  0.1615 -0.4415
  959MOL0     N26473  -0.437   5.525   6.985 -0.3199 -0.3036  0.0278
  959MOL0     C26474  -0.546   5.603   7.015 -0.4836  0.1364 -0.1688
  959MOL0     C26475  -0.601   5.543   7.121  0.5167 -0.3463  0.2398
  959MOL0     C26476  -0.707   5.592   7.209 -0.0655  0.8453  0.7478
  959MOL0     C26477  -0.648   5.716   7.289 -1.0449 -0.1292  0.3706
  959MOL0     C26478  -0.498   5.696   7.334 -0.7529  0.7898 -0.3220
  959MOL0     C26479  -0.430   5.810   7.413 -0.9550  1.2367  0.5196
  959MOL0     O26480  -0.446   5.930   7.337  0.4524  0.4039  0.8948
  959MOL0     C26481  -0.367   6.039   7.364  0.4390  0.0386 -0.8330
  959MOL0     C26482  -0.261   6.043   7.449  0.3631  0.4046  0.7983
  959MOL0     C26483  -0.187   6.158   7.472  0.7064 -0.1423  0.6466
  959MOL0     C26484  -0.235   6.275   7.425 -0.0225  0.3813 -0.7875
  959MOL0     C26485  -0.160   6.404   7.451  0.4081  1.4024 -0.5069
  959MOL0     O26486  -0.044   6.405   7.525 -0.8676  0.7964 -0.6034
  959MOL0     C26487   0.045   6.510   7.531  0.4587  0.2835  0.6443
  959MOL0     C26488   0.168   6.499   7.480 -0.5633  0.1947  0.2227
  959MOL0     C26489   0.266   6.603   7.497 -0.4258  0.6957 -0.1061
  959MOL0     C26490   0.229   6.712   7.576  0.1432 -1.0395 -0.4045
  959MOL0     O26491   0.339   6.782   7.610  0.2545 -0.8322  0.1435
  959MOL0     C26492   0.328   6.913   7.675 -0.6480  0.5216  0.0853
  959MOL0     C26493   0.327   6.918   7.823 -0.5617  0.1830  0.5511
  959MOL0     C26494   0.462   6.875   7.883  0.5121  0.1422 -0.9475
  959MOL0     C26495   0.456   6.898   8.040  0.0494  0.0701  0.7912
  959MOL0     C26496   0.594   6.885   8.104 -0.6143  0.0308  0.7379
  959MOL0     C26497   0.566   6.864   8.247  0.0288  0.1451  0.0999
  959MOL0     C26498   0.678   6.834   8.335  0.5902 -0.2907 -0.7969
  959MOL0     C26499   0.760   6.953   8.364 -0.4830  0.2368 -0.1927
  959MOL0    Cl26500   0.666   7.076   8.458  0.0076  0.1448 -0.2722
  959MOL0     C26501   0.095   6.732   7.618 -0.4559  0.0854 -0.3920
  959MOL0     C26502   0.010   6.622   7.597  0.8396 -0.0508  0.1869
  959MOL0     O26503  -0.200   6.497   7.386 -0.2351 -0.1700  0.3084
  959MOL0     C26504  -0.346   6.272   7.335 -0.3309  0.1662 -0.6414
  959MOL0     C26505  -0.419   6.156   7.317 -1.4422  0.3614 -0.9697
  959MOL0     N26506  -0.542   5.422   7.136  0.1174 -0.0305 -0.2907
  959MOL0     N26507  -0.443   5.408   7.060  0.7387 -0.5158  0.0883
  959MOL0     C26508   0.344   6.185   7.125 -0.8385 -0.0867 -0.3410
  959MOL0     C26509   0.481   6.149   7.142  1.0825  0.9385  1.5076
  959MOL0     C26510   0.906   6.109   7.328  0.0146  0.2483 -0.5540
  959MOL0     C26511   0.950   6.200   7.227 -0.5308 -0.6953  0.6031
  959MOL0     C26512   1.092   6.212   7.186 -0.6768  0.0159 -0.7844
  959MOL0     C26513   1.188   6.132   7.256 -0.6363 -0.9892 -0.4267
  959MOL0     O26514   1.321   6.144   7.246 -0.2652 -0.2382  0.4779
  959MOL0     C26515   1.377   6.265   7.210  0.7671 -0.2143 -0.3898
  959MOL0     C26516   1.527   6.252   7.203 -0.9360  0.0938  0.2023
  959MOL0     C26517   1.574   6.134   7.123  0.6579  0.7266 -0.1672
  959MOL0     C26518   1.576   6.149   6.978 -0.3291 -0.4540  0.5449
  959MOL0     C26519   1.439   6.113   6.917  0.1332  0.0006 -0.5093
  959MOL0     C26520   1.325   6.083   6.885  0.3168  0.0014  0.5741
  959MOL0     C26521   1.144   6.056   7.360 -0.1568  0.8137  0.3611
  959MOL0     C26522   1.007   6.040   7.401  0.5642 -0.9000  0.8135
  959MOL0     H26523   0.511   6.114   7.472  0.1683  1.2840  0.7602
  959MOL0     H26524   0.293   6.216   7.456  0.1794  1.9062 -1.3203
  959MOL0     H26525   0.099   6.287   7.030  1.5214  0.8078  2.2817
  959MOL0     H26526  -0.045   6.259   7.118  0.1274  2.8492  2.1616
  959MOL0     H26527   0.153   6.018   7.099  0.3539  0.0308 -0.6687
  959MOL0     H26528   0.025   6.062   6.981 -2.5807  0.2799 -0.5548
  959MOL0     H26529  -0.149   6.036   7.167  1.2631  0.8648 -1.4173
  959MOL0     H26530  -0.021   6.004   7.285  2.3757  0.9440 -0.5459
  959MOL0     H26531   0.042   5.810   7.085 -0.0229 -1.8803 -0.3763
  959MOL0     H26532  -0.081   5.780   7.203  0.3448  1.5047  0.9851
  959MOL0     H26533  -0.122   5.889   6.919 -1.0323  1.6006 -0.3521
  959MOL0     H26534  -0.257   5.881   7.028  0.2219 -0.6735  2.0835
  959MOL0     H26535  -0.185   5.632   7.063  1.2290 -1.0568  0.0337
  959MOL0     H26536  -0.089   5.645   6.929 -0.5790 -2.8765  3.2520
  959MOL0     H26537  -0.370   5.760   6.884 -1.8844 -1.3740 -2.9272
  959MOL0     H26538  -0.258   5.720   6.769 -0.1464 -1.8241 -1.4650
  959MOL0     H26539  -0.249   5.487   6.891  0.6589  0.0054 -1.2032
  959MOL0     H26540  -0.391   5.511   6.781  3.6959 -1.4267 -1.7219
  959MOL0     H26541  -0.565   5.705   6.982 -2.1242 -0.3672 -0.9081
  959MOL0     H26542  -0.731   5.514   7.281 -1.2753  2.6357  2.3933
  959MOL0     H26543  -0.797   5.622   7.154 -0.6405  1.2510  1.8829
  959MOL0     H26544  -0.715   5.747   7.370  0.5510  0.4437  1.5307
  959MOL0     H26545  -0.639   5.803   7.224 -2.3916 -0.9209 -0.9273
  959MOL0     H26546  -0.496   5.604   7.394 -0.0144  0.1199 -1.3533
  959MOL0     H26547  -0.435   5.679   7.247  0.8712 -0.3205  1.0162
  959MOL0     H26548  -0.326   5.779   7.429 -1.1961  1.5537  3.1330
  959MOL0     H26549  -0.459   5.821   7.518  3.3271 -1.0099  2.1966
  959MOL0     H26550  -0.229   5.957   7.507  0.3778  1.9001  3.1446
  959MOL0     H26551  -0.098   6.158   7.534  0.3491 -0.6997  1.1710
  959MOL0     H26552   0.202   6.410   7.429  2.8323  2.3744 -1.6851
  959MOL0     H26553   0.358   6.607   7.440  0.1560  1.5869  0.8589
  959MOL0     H26554   0.240   6.964   7.634  0.8895  2.6228 -0.8252
  959MOL0     H26555   0.401   6.976   7.622 -3.0875  1.8477 -1.9338
  959MOL0     H26556   0.255   6.842   7.854 -0.6708 -0.8509 -2.0050
  959MOL0     H26557   0.284   7.013   7.858 -1.0152  0.4861 -0.7587
  959MOL0     H26558   0.536   6.940   7.837 -2.3499  4.1985 -0.3338
  959MOL0     H26559   0.498   6.771   7.879  1.8625  0.5180  0.3442
  959MOL0     H26560   0.419   6.998   8.064  0.4216  1.1262 -2.4633
  959MOL0     H26561   0.383   6.825   8.076 -0.3628 -2.4483 -4.1514
  959MOL0     H26562   0.654   6.975   8.092 -1.3814  0.8166  2.4801
  959MOL0     H26563   0.652   6.802   8.063 -1.0663  1.5563 -3.5241
  959MOL0     H26564   0.487   6.788   8.245 -2.7504  2.7113  2.4110
  959MOL0     H26565   0.514   6.951   8.289  1.3212  0.7735  0.4693
  959MOL0     H26566   0.626   6.802   8.426 -1.7087  0.9604 -1.5974
  959MOL0     H26567   0.744   6.758   8.292 -1.6465 -1.2779 -2.7303
  959MOL0     H26568   0.791   6.992   8.267  1.8350 -2.5804 -0.7194
  959MOL0     H26569   0.853   6.928   8.416  0.1602  3.9697  0.7192
  959MOL0     H26570   0.077   6.817   7.682  0.0219 -1.6138  2.1429
  959MOL0     H26571  -0.088   6.628   7.643 -0.0564  0.3800 -1.6844
  959MOL0     H26572  -0.380   6.369   7.301 -2.3812 -0.4508 -0.4902
  959MOL0     H26573  -0.515   6.172   7.269 -2.4402  0.0882  0.8382
  959MOL0     H26574   0.309   6.193   7.023  0.6864  2.0295 -0.7503
  959MOL0     H26575   0.538   6.139   7.050  1.2906  1.3288  1.5940
  959MOL0     H26576   0.874   6.257   7.174 -0.8244 -1.4546  0.1882
  959MOL0     H26577   1.115   6.286   7.111  0.8919 -0.9840 -1.3260
  959MOL0     H26578   1.333   6.340   7.276 -3.4567 -1.9451 -0.9126
  959MOL0     H26579   1.349   6.302   7.111 -1.7858 -2.4117 -0.5881
  959MOL0     H26580   1.579   6.343   7.171 -0.3225  0.5966  2.4222
  959MOL0     H26581   1.566   6.225   7.302  0.5021  0.2020 -0.3100
  959MOL0     H26582   1.522   6.043   7.153  1.8269  0.2754  0.5642
  959MOL0     H26583   1.669   6.102   7.168 -1.6001 -0.5003  4.2571
  959MOL0     H26584   1.600   6.251   6.947 -0.7830 -1.1045 -2.2472
  959MOL0     H26585   1.661   6.091   6.941  0.0933 -0.5272  1.5895
  959MOL0     H26586   1.222   6.073   6.856 -0.1848  4.2224  0.2095
  959MOL0     H26587   1.224   5.997   7.402 -1.0213  0.0784  1.0024
  959MOL0     H26588   0.983   5.965   7.477 -0.1869  0.1539  1.6367
  960MOL0     O26589   4.759   5.224   1.620 -0.0966  0.4999 -0.1700
  960MOL0     C26590   4.748   5.291   1.513 -1.0389 -0.1691 -0.6681
  960MOL0     O26591   4.657   5.390   1.488  0.0951  0.1162  0.2947
  960MOL0     C26592   4.584   5.438   1.594 -0.3244 -0.4479 -0.3358
  960MOL0     C26593   4.617   5.442   1.732 -1.5651  0.1897  0.4305
  960MOL0     C26594   4.526   5.496   1.826  0.5293  0.4465 -0.4659
  960MOL0     C26595   4.402   5.545   1.790  0.6782  0.1712 -0.9083
  960MOL0     O26596   4.316   5.601   1.886  0.1168  0.0496  0.3911
  960MOL0     C26597   4.319   5.527   2.011 -0.2416 -0.4859  0.3777
  960MOL0     C26598   4.219   5.408   2.011  0.7464 -0.0707 -0.4046
  960MOL0     C26599   4.201   5.337   2.152  0.3801 -0.3056  0.5737
  960MOL0     C26600   4.318   5.235   2.166  0.3019  0.4499  0.1294
  960MOL0     C26601   4.305   5.133   2.290 -0.9226  0.3336  0.2515
  960MOL0     C26602   4.229   5.187   2.414 -0.5679  0.6582  1.3463
  960MOL0     C26603   4.223   5.078   2.511 -0.0659 -0.0385  0.5396
  960MOL0     C26604   4.162   4.951   2.470 -0.2663  0.8088 -0.0867
  960MOL0     N26605   4.103   4.875   2.587 -0.4613  0.6085 -0.1955
  960MOL0     C26606   4.079   4.922   2.714  0.4966  1.0642 -0.0890
  960MOL0     C26607   3.996   4.834   2.770 -0.2805  0.1177 -0.7358
  960MOL0     C26608   3.956   4.855   2.913 -0.0466  0.2484  0.7840
  960MOL0     C26609   4.079   4.840   3.008  1.0043  1.1670 -0.5553
  960MOL0     C26610   4.051   4.760   3.140 -0.4645 -0.4395  0.7647
  960MOL0     C26611   4.082   4.607   3.132 -1.0692 -0.7427 -0.1071
  960MOL0     O26612   4.018   4.527   3.033  1.3549 -0.0320 -0.2607
  960MOL0     C26613   4.007   4.387   3.045  0.4035  0.6524  0.2252
  960MOL0     C26614   4.002   4.308   3.162 -0.2579 -0.3185 -0.3069
  960MOL0     C26615   4.015   4.166   3.164 -0.1187  0.9696  0.3623
  960MOL0     C26616   4.016   4.102   3.040 -0.2141 -0.0925  0.6501
  960MOL0     C26617   4.020   3.947   3.040 -0.3583 -0.6965 -0.3699
  960MOL0     O26618   4.021   3.885   3.167  0.3459 -0.1038  0.0488
  960MOL0     C26619   4.041   3.753   3.197 -0.6366  0.6650  0.1438
  960MOL0     C26620   4.084   3.649   3.106 -1.0517 -0.1284 -0.4072
  960MOL0     C26621   4.114   3.519   3.151  0.1344  0.3245  0.0868
  960MOL0     C26622   4.113   3.490   3.288 -0.9696  1.0323 -0.2586
  960MOL0     O26623   4.139   3.360   3.320  0.7121  0.3614  0.1193
  960MOL0     C26624   4.156   3.332   3.460 -0.4928  0.0047  0.1304
  960MOL0     C26625   4.142   3.181   3.494 -0.0904 -0.1179  0.4167
  960MOL0     C26626   4.016   3.104   3.473 -0.7936  0.3114  0.1057
  960MOL0     C26627   4.029   2.978   3.562 -0.5681 -0.1668 -0.1858
  960MOL0     C26628   3.898   2.903   3.589  0.3976  0.1602 -0.6984
  960MOL0     C26629   3.927   2.810   3.702 -0.4257 -0.3927  0.1681
  960MOL0     C26630   3.806   2.734   3.767  0.1602 -0.1817  0.7015
  960MOL0     C26631   3.834   2.657   3.897  0.0106 -0.6269  0.4019
  960MOL0    Cl26632   3.923   2.752   4.020 -0.4519  0.3368  0.1798
  960MOL0     C26633   4.085   3.595   3.379 -0.8886  0.2602 -0.3393
  960MOL0     C26634   4.049   3.717   3.330  0.8032 -0.3640 -0.0710
  960MOL0     O26635   4.034   3.899   2.929  0.2067 -0.2523 -0.1750
  960MOL0     C26636   3.998   4.174   2.921 -0.5565  0.3394 -0.9803
  960MOL0     C26637   3.999   4.310   2.920  0.0099 -0.3713  0.9054
  960MOL0     N26638   3.974   4.737   2.676 -0.5232  0.4050 -0.9479
  960MOL0     N26639   4.043   4.757   2.567 -0.2689 -0.6758 -0.4378
  960MOL0     C26640   4.371   5.539   1.654  0.2122 -0.1520 -0.1939
  960MOL0     C26641   4.459   5.490   1.553  0.1476 -0.1392 -0.6509
  960MOL0     C26642   4.814   5.244   1.390 -0.5977  0.1985  0.8028
  960MOL0     C26643   4.934   5.159   1.402  0.2859 -0.7000 -0.0291
  960MOL0     C26644   5.001   5.112   1.291  0.1103  0.9460  0.2640
  960MOL0     C26645   4.939   5.128   1.163  0.2859 -0.9384 -0.4907
  960MOL0     O26646   4.990   5.083   1.043  0.6041  0.1904  0.7184
  960MOL0     C26647   5.105   4.997   1.048 -0.1664 -0.2991 -0.3277
  960MOL0     C26648   5.143   4.938   0.916  0.2654  0.4299  0.9595
  960MOL0     C26649   5.280   4.863   0.915  0.1086  0.4709  0.5868
  960MOL0     C26650   5.305   4.776   0.786  0.2542  0.2046  0.3813
  960MOL0     C26651   5.357   4.639   0.818  0.1169 -0.4987  0.2057
  960MOL0     C26652   5.413   4.536   0.836  0.9396  1.3335  0.0826
  960MOL0     C26653   4.824   5.212   1.160 -0.6720 -0.6378  0.6218
  960MOL0     C26654   4.758   5.272   1.265 -0.3116  0.0281  0.0071
  960MOL0     H26655   4.714   5.415   1.772 -0.0976  3.0983 -0.7995
  960MOL0     H26656   4.560   5.500   1.929  0.4073  1.5559 -0.4581
  960MOL0     H26657   4.290   5.600   2.088  1.6364  0.5139  0.1945
  960MOL0     H26658   4.415   5.497   2.054 -1.8087 -2.6571  2.6156
  960MOL0     H26659   4.244   5.333   1.936 -0.2107 -0.0804 -0.7380
  960MOL0     H26660   4.131   5.457   1.967 -0.4689  1.3207  3.1910
  960MOL0     H26661   4.116   5.269   2.156  0.3423 -0.2342  3.8769
  960MOL0     H26662   4.197   5.402   2.240  0.7190 -1.7574  1.6895
  960MOL0     H26663   4.326   5.182   2.071 -1.5070  1.1498 -0.4677
  960MOL0     H26664   4.414   5.286   2.175  0.6851 -0.5880  3.1874
  960MOL0     H26665   4.402   5.107   2.332 -0.6804  1.3325  0.3483
  960MOL0     H26666   4.269   5.038   2.249 -1.8467 -0.1165  1.9952
  960MOL0     H26667   4.131   5.224   2.382 -1.9178 -1.8619  2.2834
  960MOL0     H26668   4.287   5.272   2.452  1.1185  0.0197  0.2759
  960MOL0     H26669   4.315   5.056   2.566  3.9176  0.9492 -4.8935
  960MOL0     H26670   4.155   5.130   2.580  0.8840 -1.5768  2.7500
  960MOL0     H26671   4.225   4.886   2.409 -1.7530 -2.6230  1.7449
  960MOL0     H26672   4.089   4.985   2.396  1.4515  1.4615 -1.5446
  960MOL0     H26673   4.122   5.012   2.756  0.8740  1.7674 -1.8639
  960MOL0     H26674   3.875   4.795   2.956 -0.6006  1.1433  1.0191
  960MOL0     H26675   3.910   4.954   2.907 -1.2012 -0.3443 -0.6270
  960MOL0     H26676   4.120   4.940   3.022  1.8760  0.9755 -1.5509
  960MOL0     H26677   4.155   4.781   2.956 -1.7591  1.0835 -5.1590
  960MOL0     H26678   4.110   4.804   3.220 -0.8866 -0.6586  1.2026
  960MOL0     H26679   3.946   4.767   3.169 -0.1408  1.9336  1.5228
  960MOL0     H26680   4.057   4.562   3.228 -0.2130  1.6259  1.3216
  960MOL0     H26681   4.190   4.588   3.130 -1.0495 -0.5699 -1.3105
  960MOL0     H26682   3.994   4.347   3.263  1.6050 -1.7728  0.4470
  960MOL0     H26683   4.013   4.108   3.256 -0.1786  0.0479 -0.2043
  960MOL0     H26684   4.090   3.675   3.001  3.2397  2.3281  0.1925
  960MOL0     H26685   4.123   3.442   3.075 -0.2797 -0.1233  0.4865
  960MOL0     H26686   4.069   3.373   3.513 -0.5409 -0.6777  0.5912
  960MOL0     H26687   4.248   3.369   3.505 -0.9427 -1.3901  2.3723
  960MOL0     H26688   4.168   3.178   3.601 -0.6213 -1.7797  0.5217
  960MOL0     H26689   4.222   3.127   3.443  0.5500 -1.2630  2.5169
  960MOL0     H26690   4.005   3.074   3.368  1.6184 -1.1358  0.1760
  960MOL0     H26691   3.930   3.167   3.496  2.3234  4.6249  1.3204
  960MOL0     H26692   4.101   2.903   3.530 -0.6520  0.4123 -1.7881
  960MOL0     H26693   4.069   3.007   3.660 -0.4272 -2.3695  0.4601
  960MOL0     H26694   3.857   2.846   3.506 -0.7392 -1.3576  0.8210
  960MOL0     H26695   3.828   2.984   3.610  0.8659 -0.0016  1.8636
  960MOL0     H26696   3.976   2.872   3.777  0.3467  0.8247 -1.2925
  960MOL0     H26697   4.005   2.735   3.685  0.3518  0.1280  1.3184
  960MOL0     H26698   3.745   2.822   3.791  1.4674  2.1041 -3.2604
  960MOL0     H26699   3.764   2.672   3.688 -0.4769  0.2434  0.7000
  960MOL0     H26700   3.890   2.568   3.865  0.2239 -0.7384  1.0735
  960MOL0     H26701   3.736   2.624   3.934 -0.8223  0.8383 -0.3920
  960MOL0     H26702   4.068   3.573   3.483 -1.3413 -1.5086 -0.7502
  960MOL0     H26703   4.024   3.783   3.412 -1.3684 -0.4937 -0.5792
  960MOL0     H26704   3.984   4.118   2.829 -1.3186 -1.0553 -0.0475
  960MOL0     H26705   3.990   4.361   2.824 -3.2104 -2.9011 -0.3179
  960MOL0     H26706   4.289   5.591   1.606 -0.6669 -2.2661 -1.0765
  960MOL0     H26707   4.453   5.491   1.445  3.6066 -0.3668 -0.9299
  960MOL0     H26708   4.976   5.140   1.500 -0.4586  0.0826  0.4549
  960MOL0     H26709   5.089   5.050   1.297 -1.5084 -1.4603  0.4464
  960MOL0     H26710   5.074   4.921   1.122 -0.6553  0.1457 -0.0666
  960MOL0     H26711   5.196   5.041   1.089  0.9967 -3.4100  0.7992
  960MOL0     H26712   5.064   4.871   0.882  2.2718 -1.2373 -0.7456
  960MOL0     H26713   5.154   5.022   0.847 -4.5727  1.5908  1.2827
  960MOL0     H26714   5.281   4.797   1.002 -0.5246 -0.2175  0.0862
  960MOL0     H26715   5.355   4.942   0.927 -0.2203  0.5010  2.9759
  960MOL0     H26716   5.218   4.761   0.722 -0.6227 -0.5802  1.7063
  960MOL0     H26717   5.378   4.837   0.732 -0.0500  0.4378  0.2323
  960MOL0     H26718   5.480   4.459   0.870  1.8384  3.0646  2.5485
  960MOL0     H26719   4.779   5.242   1.066  1.3679  0.6709 -0.0062
  960MOL0     H26720   4.669   5.331   1.247 -0.6135 -0.2035  0.6895
  961MOL0     O26721   5.545   0.146  10.861  0.8010  0.3660 -0.7238
  961MOL0     C26722   5.426   0.135  10.904  0.1888 -0.2957  0.5122
  961MOL0     O26723   5.383   0.069  11.019  0.2681 -0.0009  0.3041
  961MOL0     C26724   5.463   0.003  11.109 -0.2683  0.7319  0.0693
  961MOL0     C26725   5.582   0.063  11.167 -0.5897  0.8913  1.1467
  961MOL0     C26726   5.646   0.001  11.270 -0.4940 -0.5172  0.1365
  961MOL0     C26727   5.611  -0.124  11.313 -1.2405 -0.1357  1.5490
  961MOL0     O26728   5.695  -0.167  11.415 -0.3665 -0.3469  0.4470
  961MOL0     C26729   5.703  -0.303  11.467  1.0047 -0.6401  0.1771
  961MOL0     C26730   5.684  -0.304  11.617 -0.7815 -0.0464  0.8327
  961MOL0     C26731   5.674  -0.445  11.677 -0.1301  0.3428 -0.0796
  961MOL0     C26732   5.599  -0.434  11.811  0.1204  0.4307  0.1707
  961MOL0     C26733   5.644  -0.553  11.894  0.9432 -0.0784  1.2585
  961MOL0     C26734   5.566  -0.550  12.033 -0.5849 -0.2743  0.2901
  961MOL0     C26735   5.619  -0.657  12.124 -0.2729 -0.2907  0.4283
  961MOL0     C26736   5.524  -0.773  12.138 -0.1937  0.5422  0.1338
  961MOL0     N26737   5.590  -0.885  12.218  0.1362 -0.1565  0.1775
  961MOL0     C26738   5.583  -0.882  12.353 -0.2690  0.4121 -0.4753
  961MOL0     C26739   5.625  -1.004  12.392  0.6679 -0.4516 -0.4252
  961MOL0     C26740   5.652  -1.043  12.539 -0.3812 -0.0199  0.3068
  961MOL0     C26741   5.755  -0.952  12.599  0.3579  0.2767  0.8763
  961MOL0     C26742   5.885  -0.907  12.516  0.2410 -0.4833  0.1780
  961MOL0     C26743   5.965  -1.025  12.460  0.2795  0.2734 -0.2188
  961MOL0     O26744   6.087  -0.981  12.396  0.6040  0.4950 -0.4913
  961MOL0     C26745   6.093  -0.954  12.261  0.2135 -1.0661 -0.4803
  961MOL0     C26746   6.222  -0.930  12.197 -0.5684 -0.8339 -0.6458
  961MOL0     C26747   6.229  -0.890  12.066 -0.1362  0.1643 -1.2143
  961MOL0     C26748   6.116  -0.867  11.990  0.6165 -0.1890  0.0481
  961MOL0     C26749   6.123  -0.818  11.853  0.4504  0.2973  0.0078
  961MOL0     O26750   6.008  -0.796  11.783 -0.0640 -0.2943 -0.3668
  961MOL0     C26751   5.988  -0.722  11.663 -0.3297  0.1381  0.3016
  961MOL0     C26752   6.071  -0.610  11.627  0.8262 -0.5223 -0.1115
  961MOL0     C26753   6.051  -0.552  11.498 -0.2806  0.3545  0.1268
  961MOL0     C26754   5.950  -0.602  11.410 -0.7731  0.1265  0.2599
  961MOL0     O26755   5.910  -0.535  11.300 -0.6935 -0.3871  0.8548
  961MOL0     C26756   6.008  -0.467  11.209  0.4693  0.9074  0.2476
  961MOL0     C26757   5.936  -0.477  11.074  0.2037 -0.1947  0.0756
  961MOL0     C26758   6.032  -0.441  10.958  0.1249  0.2754  0.3376
  961MOL0     C26759   6.073  -0.296  10.956 -0.1087  1.3138  0.5281
  961MOL0     C26760   6.132  -0.252  10.819 -1.1120 -0.1971 -0.0113
  961MOL0     C26761   6.266  -0.329  10.795  0.5189  0.0503  0.9682
  961MOL0     C26762   6.306  -0.269  10.657 -0.4157 -0.8305 -0.5263
  961MOL0     C26763   6.408  -0.363  10.611 -0.0476  0.0635  0.3721
  961MOL0    Cl26764   6.545  -0.357  10.730  0.0728  0.1254  0.5355
  961MOL0     C26765   5.861  -0.702  11.454 -1.1797 -0.7230  0.1160
  961MOL0     C26766   5.884  -0.762  11.574  0.1317 -0.0324 -0.1824
  961MOL0     O26767   6.237  -0.786  11.810 -0.5075  0.4345 -0.6149
  961MOL0     C26768   5.991  -0.893  12.048  0.2005 -0.1543  0.3903
  961MOL0     C26769   5.981  -0.933  12.186 -0.1575 -0.0111 -0.0325
  961MOL0     N26770   5.641  -1.085  12.279 -0.3351 -0.7891  0.8091
  961MOL0     N26771   5.631  -1.003  12.178 -0.2763  0.5860 -0.0244
  961MOL0     C26772   5.505  -0.194  11.251  0.0314 -0.2605 -0.2414
  961MOL0     C26773   5.427  -0.123  11.153 -0.2505 -0.4250  0.2898
  961MOL0     C26774   5.320   0.186  10.820 -0.3549  0.5036  0.2972
  961MOL0     C26775   5.184   0.180  10.846  0.6462  0.5805 -0.7587
  961MOL0     C26776   5.093   0.242  10.760  0.3825  0.4941  0.2787
  961MOL0     C26777   5.124   0.262  10.630  0.7505  0.0506  0.1417
  961MOL0     O26778   5.026   0.307  10.537 -0.4228  0.2640 -1.0656
  961MOL0     C26779   4.984   0.200  10.448  0.5583  0.0492 -0.4584
  961MOL0     C26780   4.850   0.145  10.493  0.3148 -0.0469 -0.2157
  961MOL0     C26781   4.740   0.241  10.516  0.4182 -0.3187 -0.4697
  961MOL0     C26782   4.681   0.283  10.385 -1.0822 -0.5300 -0.8579
  961MOL0     C26783   4.588   0.186  10.335 -0.5996 -0.4457  0.1754
  961MOL0     C26784   4.537   0.092  10.279 -0.0375  0.1682 -0.3002
  961MOL0     C26785   5.260   0.261  10.589  0.3411  0.2552 -0.3668
  961MOL0     C26786   5.357   0.216  10.684  0.5653 -0.4016 -0.2174
  961MOL0     H26787   5.609   0.162  11.134  0.1412 -0.1107 -1.5077
  961MOL0     H26788   5.729   0.054  11.314 -0.1880 -0.0012 -1.0231
  961MOL0     H26789   5.799  -0.349  11.442  0.8662 -0.1734 -1.2906
  961MOL0     H26790   5.627  -0.366  11.421  1.3377  0.1321 -1.4863
  961MOL0     H26791   5.587  -0.255  11.627 -0.3838  1.4310 -1.6255
  961MOL0     H26792   5.769  -0.265  11.674  0.1298 -1.9158  0.8136
  961MOL0     H26793   5.774  -0.488  11.681 -0.4722 -0.3727  1.2668
  961MOL0     H26794   5.624  -0.519  11.614  0.5356  0.4908 -0.7960
  961MOL0     H26795   5.616  -0.339  11.862  2.6061  0.6246 -0.8384
  961MOL0     H26796   5.493  -0.441  11.787  0.3604 -0.3449 -0.7294
  961MOL0     H26797   5.750  -0.535  11.917  1.4869 -1.9291  0.3860
  961MOL0     H26798   5.627  -0.650  11.847 -3.1881  1.0644 -0.0307
  961MOL0     H26799   5.464  -0.562  11.995 -0.7807  4.5355 -1.4011
  961MOL0     H26800   5.573  -0.454  12.085 -1.9123 -1.2720  2.4179
  961MOL0     H26801   5.717  -0.683  12.082  0.6851  4.6535 -0.9897
  961MOL0     H26802   5.635  -0.605  12.219 -0.8061  1.3594 -0.3542
  961MOL0     H26803   5.497  -0.819  12.042  1.1876  0.1581 -0.0851
  961MOL0     H26804   5.430  -0.744  12.187 -0.9611 -1.1585 -0.2509
  961MOL0     H26805   5.541  -0.809  12.422  1.1755  0.2192  0.6572
  961MOL0     H26806   5.665  -1.150  12.552 -1.3426 -0.1153  0.5507
  961MOL0     H26807   5.561  -1.027  12.597 -0.4663  2.2655 -0.3521
  961MOL0     H26808   5.770  -0.997  12.698 -3.3755  3.1347  3.0046
  961MOL0     H26809   5.694  -0.864  12.618  0.7079  0.9522 -0.9655
  961MOL0     H26810   5.844  -0.861  12.426 -0.2785  0.1271  0.7191
  961MOL0     H26811   5.943  -0.840  12.580  1.2293  0.3654 -1.5377
  961MOL0     H26812   5.922  -1.084  12.380 -0.1079 -0.2369  0.3587
  961MOL0     H26813   5.984  -1.086  12.549 -0.0495 -1.0422 -1.0334
  961MOL0     H26814   6.315  -0.937  12.253 -0.3122 -4.4892 -1.3096
  961MOL0     H26815   6.329  -0.890  12.024 -0.4577  0.4797 -1.9928
  961MOL0     H26816   6.147  -0.566  11.692 -2.2350  2.0805  2.0105
  961MOL0     H26817   6.118  -0.469  11.475  0.6596 -0.7182 -1.1202
  961MOL0     H26818   6.099  -0.527  11.197 -2.2902 -3.7503  0.2313
  961MOL0     H26819   6.026  -0.364  11.242 -2.3729  0.9928  1.8626
  961MOL0     H26820   5.852  -0.407  11.073  3.3642  3.9580 -0.4900
  961MOL0     H26821   5.900  -0.578  11.055  1.7730 -1.4509  3.0237
  961MOL0     H26822   5.980  -0.472  10.867 -0.4703 -3.4285  1.7353
  961MOL0     H26823   6.116  -0.509  10.971 -0.4516 -0.0530  2.9400
  961MOL0     H26824   5.981  -0.242  10.981 -1.2273  0.3115 -1.1874
  961MOL0     H26825   6.139  -0.274  11.040  0.8589  0.4663  0.0072
  961MOL0     H26826   6.149  -0.144  10.810 -1.7426  0.1350  2.0424
  961MOL0     H26827   6.055  -0.272  10.744 -0.3642  2.5501 -1.6635
  961MOL0     H26828   6.254  -0.437  10.791 -0.9348  0.1278  2.2562
  961MOL0     H26829   6.337  -0.314  10.877  3.1349 -0.2280 -1.1287
  961MOL0     H26830   6.227  -0.264  10.582  0.6808  1.0892 -1.6467
  961MOL0     H26831   6.338  -0.165  10.670 -2.9945 -0.1759  1.4145
  961MOL0     H26832   6.446  -0.312  10.522  2.0906  1.3458  1.9161
  961MOL0     H26833   6.364  -0.462  10.598  0.9822 -0.1552 -1.9316
  961MOL0     H26834   5.768  -0.719  11.401 -0.2796  0.2223 -1.8554
  961MOL0     H26835   5.805  -0.825  11.614 -0.0278 -0.4745 -1.1649
  961MOL0     H26836   5.900  -0.870  11.994 -0.4471 -1.3519  0.9404
  961MOL0     H26837   5.882  -0.933  12.228  0.1402  0.3729  0.6814
  961MOL0     H26838   5.486  -0.295  11.284 -0.1975  0.2297  1.1787
  961MOL0     H26839   5.344  -0.171  11.103 -1.6459  2.0484  0.0682
  961MOL0     H26840   5.145   0.150  10.943 -0.8215  2.3008 -0.7679
  961MOL0     H26841   4.987   0.231  10.782  0.8478  0.6514  2.8066
  961MOL0     H26842   5.059   0.120  10.446  0.4542 -0.1266  1.4936
  961MOL0     H26843   4.969   0.237  10.346 -2.4191  0.3496 -0.0131
  961MOL0     H26844   4.835   0.086  10.403  2.5884 -1.5306  0.2905
  961MOL0     H26845   4.862   0.078  10.579  1.5440 -2.0344 -1.8468
  961MOL0     H26846   4.769   0.334  10.566 -0.9684 -0.6742  1.0872
  961MOL0     H26847   4.665   0.199  10.584  3.5124 -1.8854  2.2716
  961MOL0     H26848   4.623   0.371  10.416  3.0925  2.4257 -0.6098
  961MOL0     H26849   4.750   0.322  10.310 -2.7930  1.6359 -1.4017
  961MOL0     H26850   4.480   0.016  10.229 -1.6938  1.2204 -0.0643
  961MOL0     H26851   5.292   0.297  10.491  2.2830  1.3954  0.6309
  961MOL0     H26852   5.457   0.244  10.653  1.0333 -0.8522  0.8570
  962MOL0     O26853   5.754   8.906  10.914 -0.6845 -0.6406 -0.1431
  962MOL0     C26854   5.811   8.820  10.973  1.2215  0.6604 -0.3748
  962MOL0     O26855   5.796   8.678  10.951 -0.1647 -0.0261  0.5060
  962MOL0     C26856   5.710   8.624  10.860  1.4254  0.0149 -0.5600
  962MOL0     C26857   5.590   8.686  10.807  0.3106 -0.3996 -0.4640
  962MOL0     C26858   5.507   8.618  10.723  0.1191 -0.1669 -0.5935
  962MOL0     C26859   5.543   8.494  10.672  1.0488 -0.7653  1.0743
  962MOL0     O26860   5.459   8.432  10.579  0.6900 -0.2924 -0.4201
  962MOL0     C26861   5.513   8.333  10.494 -0.2109  0.2212  0.0270
  962MOL0     C26862   5.408   8.311  10.390  0.2059 -0.6711 -0.1228
  962MOL0     C26863   5.277   8.256  10.428  0.5744 -0.2345 -0.6680
  962MOL0     C26864   5.190   8.201  10.313  0.5413 -0.4867 -0.5299
  962MOL0     C26865   5.174   8.299  10.204  0.6317  0.2903  0.6414
  962MOL0     C26866   5.051   8.276  10.129 -0.1792 -0.2526 -0.2318
  962MOL0     C26867   4.913   8.297  10.183  0.6079  0.1736  0.1449
  962MOL0     C26868   4.898   8.436  10.253  0.8106  0.3793 -0.7950
  962MOL0     N26869   4.761   8.454  10.307 -0.3501  0.1407  0.7823
  962MOL0     C26870   4.647   8.492  10.241 -0.5812 -0.3827 -0.0409
  962MOL0     C26871   4.541   8.486  10.331  0.3398  0.5135 -0.1060
  962MOL0     C26872   4.402   8.536  10.292  0.6892 -0.1767 -0.2219
  962MOL0     C26873   4.306   8.539  10.413  0.3565  0.6171 -0.3486
  962MOL0     C26874   4.174   8.613  10.400 -0.2516 -0.5060  0.4485
  962MOL0     C26875   4.103   8.606  10.542 -0.7481 -0.4509  0.2303
  962MOL0     O26876   4.178   8.672  10.647  0.1333 -0.3035  0.3419
  962MOL0     C26877   4.164   8.629  10.776 -0.1121  0.7369 -0.3962
  962MOL0     C26878   4.224   8.512  10.820  0.2120 -0.3138 -0.6899
  962MOL0     C26879   4.228   8.477  10.959 -0.2623 -0.2528 -0.9976
  962MOL0     C26880   4.162   8.554  11.057  0.0609 -0.4424  0.1655
  962MOL0     C26881   4.171   8.527  11.202 -0.6851 -0.4863 -0.1922
  962MOL0     O26882   4.080   8.582  11.290 -0.3677 -0.1069 -0.4462
  962MOL0     C26883   4.076   8.538  11.428  0.4330 -0.1278  1.0092
  962MOL0     C26884   4.134   8.417  11.475  0.8509 -0.2062  0.2004
  962MOL0     C26885   4.135   8.403  11.620  0.5821  0.9456  0.9541
  962MOL0     C26886   4.071   8.483  11.706 -0.3467  0.4610 -0.0020
  962MOL0     O26887   4.082   8.441  11.842  0.1356  0.0461  0.3743
  962MOL0     C26888   4.069   8.537  11.939  0.3324  0.1158  0.1800
  962MOL0     C26889   4.097   8.488  12.078 -0.5031  0.0060 -0.2918
  962MOL0     C26890   4.018   8.570  12.184 -0.5809  0.2302 -0.4266
  962MOL0     C26891   4.047   8.555  12.339  0.1974 -0.3829  0.0055
  962MOL0     C26892   4.061   8.413  12.384 -0.2118 -0.8180  0.3378
  962MOL0     C26893   3.923   8.338  12.365 -0.6631 -0.3543  0.3318
  962MOL0     C26894   3.930   8.236  12.258 -0.1547  0.1907  0.4253
  962MOL0     C26895   3.840   8.107  12.295 -0.2651 -0.5181 -0.2560
  962MOL0    Cl26896   3.660   8.146  12.300 -0.3240 -0.0833  0.4450
  962MOL0     C26897   4.006   8.595  11.660  0.3381  0.0365  0.8342
  962MOL0     C26898   4.020   8.634  11.523  0.2728 -0.0555  0.3666
  962MOL0     O26899   4.255   8.450  11.234 -0.0077 -0.8079  0.4352
  962MOL0     C26900   4.102   8.671  11.006  0.6168 -0.4070  0.2996
  962MOL0     C26901   4.095   8.708  10.869 -0.1472 -0.5273  0.7235
  962MOL0     N26902   4.592   8.436  10.451  0.4765 -0.5136  0.2037
  962MOL0     N26903   4.720   8.419  10.432 -0.0894 -0.5358  0.3404
  962MOL0     C26904   5.661   8.433  10.723  0.0596 -1.1284 -0.1250
  962MOL0     C26905   5.744   8.498  10.817  0.6661  0.7827 -0.2591
  962MOL0     C26906   5.915   8.859  11.068 -0.1386 -0.4271 -0.4766
  962MOL0     C26907   5.934   8.784  11.192 -0.1213  0.1480  0.5876
  962MOL0     C26908   6.017   8.837  11.294  0.6545 -0.8709  0.2073
  962MOL0     C26909   6.088   8.957  11.274 -0.0133 -0.1180  0.1531
  962MOL0     O26910   6.185   9.018  11.360  0.1345 -0.3354  0.6296
  962MOL0     C26911   6.255   8.941  11.463  0.3482  0.5915 -0.6043
  962MOL0     C26912   6.217   8.988  11.599 -0.1782  0.1794 -0.5381
  962MOL0     C26913   6.314   8.942  11.714 -0.0452 -0.2507  0.4754
  962MOL0     C26914   6.272   8.965  11.857 -0.1807 -0.1084  0.0472
  962MOL0     C26915   6.157   8.884  11.893 -0.3326  0.5985  0.5651
  962MOL0     C26916   6.065   8.809  11.933 -1.5243 -0.8277  0.0136
  962MOL0     C26917   6.075   9.023  11.147  0.2532  0.6055 -0.7063
  962MOL0     C26918   5.988   8.978  11.057 -0.0435  0.3727 -0.0210
  962MOL0     H26919   5.568   8.783  10.850  1.2419 -1.0163  1.5420
  962MOL0     H26920   5.420   8.669  10.682  2.6897  1.2311 -4.9498
  962MOL0     H26921   5.519   8.244  10.558 -0.2599  2.2323  3.0690
  962MOL0     H26922   5.610   8.360  10.451  0.4686  0.8965  1.8512
  962MOL0     H26923   5.447   8.231  10.326 -3.3745 -1.3466 -1.6613
  962MOL0     H26924   5.413   8.401  10.328  2.7108 -1.3991 -1.1436
  962MOL0     H26925   5.235   8.341  10.484  0.6200 -0.1785 -0.7192
  962MOL0     H26926   5.290   8.172  10.497  1.2547 -0.1379 -0.6777
  962MOL0     H26927   5.240   8.112  10.274 -0.9382 -1.4833 -0.2520
  962MOL0     H26928   5.091   8.168  10.345 -0.3305  1.4461 -1.1140
  962MOL0     H26929   5.259   8.275  10.139 -1.3943 -0.5210 -1.8551
  962MOL0     H26930   5.179   8.400  10.248 -0.0529  0.5124  0.2224
  962MOL0     H26931   5.068   8.175  10.090  1.4698  0.2061 -0.7884
  962MOL0     H26932   5.067   8.344  10.045  2.7443 -1.3104 -0.6717
  962MOL0     H26933   4.841   8.291  10.100 -0.5124  4.9753  0.4876
  962MOL0     H26934   4.893   8.213  10.250 -0.9178  1.2267  1.0554
  962MOL0     H26935   4.909   8.510  10.174 -1.8399 -1.8559 -3.5152
  962MOL0     H26936   4.976   8.453  10.328 -0.6892 -0.2949  1.0065
  962MOL0     H26937   4.624   8.532  10.142  4.0656 -1.1437 -1.6767
  962MOL0     H26938   4.362   8.467  10.216 -2.3433 -3.7720  4.1147
  962MOL0     H26939   4.422   8.635  10.251 -1.8464  0.3287 -0.3993
  962MOL0     H26940   4.349   8.568  10.510  2.1618  1.6253 -1.3939
  962MOL0     H26941   4.289   8.432  10.431 -1.8561  1.1332  1.0772
  962MOL0     H26942   4.212   8.714  10.381 -2.4707  0.1183 -1.2036
  962MOL0     H26943   4.104   8.584  10.321  0.4276 -0.2621 -0.2571
  962MOL0     H26944   4.093   8.499  10.561 -0.4851 -0.2520  1.6475
  962MOL0     H26945   3.999   8.642  10.539  0.0294  1.9134 -0.2587
  962MOL0     H26946   4.278   8.447  10.753  1.3533 -0.2840  0.1755
  962MOL0     H26947   4.271   8.382  10.986 -1.6428 -2.2495 -4.9755
  962MOL0     H26948   4.178   8.348  11.404  2.7278  0.9416  0.1872
  962MOL0     H26949   4.186   8.320  11.670 -1.3088 -1.0597 -0.2585
  962MOL0     H26950   3.964   8.568  11.939 -0.6912 -2.9330 -0.0756
  962MOL0     H26951   4.116   8.632  11.913 -3.7538  1.0989 -5.4686
  962MOL0     H26952   4.202   8.516  12.090 -0.3907  0.7678 -2.5406
  962MOL0     H26953   4.081   8.381  12.087 -2.4946  0.4320  2.9058
  962MOL0     H26954   3.914   8.537  12.178 -0.8491  0.9171  0.2731
  962MOL0     H26955   4.038   8.673  12.152 -0.3305  0.1726 -0.4521
  962MOL0     H26956   4.139   8.602  12.376 -1.3496  0.5546  3.0274
  962MOL0     H26957   3.961   8.597  12.392  0.9143 -0.3635  1.2014
  962MOL0     H26958   4.098   8.408  12.487  0.8945  1.5072  0.1267
  962MOL0     H26959   4.141   8.374  12.322  0.2438  2.4961 -1.3520
  962MOL0     H26960   3.833   8.400  12.358 -0.1638  0.4745  1.0877
  962MOL0     H26961   3.908   8.283  12.458 -1.6715 -2.1365 -0.8335
  962MOL0     H26962   3.911   8.276  12.158 -2.6110  1.0523  1.1755
  962MOL0     H26963   4.034   8.202  12.246 -0.3343  0.0554 -0.8788
  962MOL0     H26964   3.875   8.055  12.385  1.0931 -2.6736 -1.9126
  962MOL0     H26965   3.864   8.031  12.221 -1.8524 -0.7920 -0.5268
  962MOL0     H26966   3.967   8.653  11.743  4.8266  0.2355  3.1001
  962MOL0     H26967   3.993   8.736  11.498  0.0536 -0.0485  0.6270
  962MOL0     H26968   4.064   8.742  11.079 -0.9080  1.5426 -2.1852
  962MOL0     H26969   4.051   8.800  10.832 -1.2042 -0.6165  1.6896
  962MOL0     H26970   5.685   8.335  10.682 -1.0671 -0.4208 -2.6811
  962MOL0     H26971   5.841   8.457  10.845  0.8553  0.2070 -1.7120
  962MOL0     H26972   5.874   8.695  11.207  1.4507 -0.6331  2.7272
  962MOL0     H26973   6.027   8.790  11.391 -1.4075  1.8788  1.8929
  962MOL0     H26974   6.356   8.970  11.432  1.0239  0.0194  0.9901
  962MOL0     H26975   6.226   8.836  11.454 -2.2043  1.0436  1.2385
  962MOL0     H26976   6.201   9.096  11.612 -0.7169  0.0577 -0.1757
  962MOL0     H26977   6.123   8.933  11.608 -1.0720  1.6705 -0.3862
  962MOL0     H26978   6.406   8.991  11.679  0.7561 -1.8885  0.1737
  962MOL0     H26979   6.338   8.835  11.705  0.0304 -0.7573  4.6695
  962MOL0     H26980   6.356   8.934  11.920  1.0417 -1.3068 -2.0865
  962MOL0     H26981   6.263   9.071  11.881 -1.2718  0.0507 -0.9494
  962MOL0     H26982   5.989   8.751  11.981  0.3269 -1.5454  2.2700
  962MOL0     H26983   6.143   9.104  11.121 -1.0626  2.5239  1.5066
  962MOL0     H26984   5.976   9.043  10.972  0.1320  1.5518  0.8280
  963MOL0     O26985   1.319   9.551  11.325  0.2555 -0.6362 -0.1094
  963MOL0     C26986   1.360   9.534  11.212 -0.2993  0.2056  0.4864
  963MOL0     O26987   1.417   9.410  11.160  0.0146 -0.2800 -0.5733
  963MOL0     C26988   1.427   9.297  11.247  0.1933  0.5525 -1.2955
  963MOL0     C26989   1.459   9.315  11.384 -0.3248 -0.1987  0.6236
  963MOL0     C26990   1.463   9.204  11.469 -0.1684  0.5225  0.6301
  963MOL0     C26991   1.411   9.086  11.433  0.0957  2.2046  0.1944
  963MOL0     O26992   1.368   8.997  11.533 -0.1962  0.3898 -0.2909
  963MOL0     C26993   1.226   8.966  11.532  0.2187  0.3596 -0.5512
  963MOL0     C26994   1.180   8.954  11.678  0.3441  0.0428  0.6231
  963MOL0     C26995   1.029   8.952  11.694 -0.5848  0.3935 -0.4546
  963MOL0     C26996   0.984   8.922  11.838 -0.2309 -0.0688 -0.4181
  963MOL0     C26997   0.832   8.946  11.848 -0.7546 -0.0499 -0.4017
  963MOL0     C26998   0.788   9.088  11.858  0.2479  0.5154  0.2628
  963MOL0     C26999   0.651   9.112  11.802 -0.3182 -0.4117  0.3115
  963MOL0     C27000   0.533   9.035  11.864 -0.6625 -0.1673  0.2993
  963MOL0     N27001   0.408   9.090  11.818  0.4581  0.0248  0.1254
  963MOL0     C27002   0.322   9.050  11.718  0.6715  0.1434  0.4741
  963MOL0     C27003   0.209   9.125  11.727  0.4046 -0.3754 -0.5556
  963MOL0     C27004   0.092   9.089  11.640  0.0672 -0.1191 -0.9265
  963MOL0     C27005  -0.001   8.989  11.698  0.1314  0.0699 -0.2701
  963MOL0     C27006   0.064   8.850  11.699 -0.1206 -0.4481 -0.7104
  963MOL0     C27007  -0.015   8.756  11.795  0.5522 -0.1763 -0.5949
  963MOL0     O27008   0.032   8.621  11.776 -0.3166 -1.0302 -0.2549
  963MOL0     C27009   0.054   8.539  11.886  0.2412 -0.2591  0.3677
  963MOL0     C27010  -0.041   8.532  11.991  0.5716 -1.0647 -0.5899
  963MOL0     C27011  -0.029   8.449  12.095 -0.6887 -0.6436 -0.0604
  963MOL0     C27012   0.081   8.355  12.095 -1.1239 -0.0081  0.0973
  963MOL0     C27013   0.105   8.262  12.206  0.4387  0.7516 -0.1915
  963MOL0     O27014   0.224   8.189  12.201 -0.0902 -0.3259  0.0622
  963MOL0     C27015   0.267   8.100  12.295 -0.0071 -0.1472  0.5036
  963MOL0     C27016   0.404   8.093  12.305 -0.3809  0.7361  0.4629
  963MOL0     C27017   0.456   7.988  12.383  0.3352  0.1030  0.5979
  963MOL0     C27018   0.377   7.900  12.454 -0.2492  0.1335  0.2212
  963MOL0     O27019   0.414   7.796  12.532 -0.6792  0.0753  0.0963
  963MOL0     C27020   0.537   7.732  12.495  1.4017  0.0095  0.0395
  963MOL0     C27021   0.544   7.609  12.578 -0.3997  0.5725  0.1540
  963MOL0     C27022   0.691   7.547  12.580  0.4499 -0.9407  0.3790
  963MOL0     C27023   0.700   7.428  12.659  0.0161 -0.1203  0.3172
  963MOL0     C27024   0.849   7.383  12.670 -0.6824  0.1081  0.0469
  963MOL0     C27025   0.871   7.241  12.731  0.8489 -0.1439  0.7716
  963MOL0     C27026   0.884   7.268  12.883 -0.5478 -0.1507  0.0001
  963MOL0     C27027   0.866   7.143  12.984  0.3403  0.3020 -0.6807
  963MOL0    Cl27028   0.949   6.995  12.917  0.2610 -0.0769  0.1038
  963MOL0     C27029   0.247   7.925  12.463  0.5044  0.1875 -0.2331
  963MOL0     C27030   0.188   8.018  12.376 -0.6221 -0.5021 -0.7530
  963MOL0     O27031   0.014   8.248  12.291 -0.1599 -0.0638 -0.0806
  963MOL0     C27032   0.178   8.363  11.994 -0.1892 -0.5522  1.2879
  963MOL0     C27033   0.170   8.456  11.892  0.6015 -1.0362  0.5955
  963MOL0     N27034   0.238   9.215  11.829  0.5098 -1.1254 -0.8454
  963MOL0     N27035   0.355   9.193  11.878  0.2471  0.5795  0.7966
  963MOL0     C27036   1.371   9.061  11.300  0.6533 -0.1286 -0.6718
  963MOL0     C27037   1.392   9.167  11.205 -0.4873  0.5878  0.1393
  963MOL0     C27038   1.352   9.640  11.116  0.0602  0.2679 -0.6235
  963MOL0     C27039   1.354   9.615  10.976  0.3793 -0.0748 -0.0077
  963MOL0     C27040   1.327   9.719  10.883 -0.2338  0.1478  0.7876
  963MOL0     C27041   1.327   9.858  10.921  0.6463  0.1128 -0.6037
  963MOL0     O27042   1.312   9.970  10.846 -0.2510 -0.1680 -0.1030
  963MOL0     C27043   1.388   9.989  10.720 -0.8799 -0.7251 -0.2746
  963MOL0     C27044   1.296   9.976  10.605 -0.2989 -0.7642 -0.9553
  963MOL0     C27045   1.376  10.002  10.483  0.6949  0.3602 -0.4701
  963MOL0     C27046   1.470   9.881  10.452  0.2550  0.2857 -0.3128
  963MOL0     C27047   1.555   9.913  10.325  0.4583  0.2461 -0.9074
  963MOL0     C27048   1.623   9.921  10.224  0.4011 -0.6962 -0.6671
  963MOL0     C27049   1.330   9.876  11.063 -0.3876  0.5359 -1.0278
  963MOL0     C27050   1.334   9.776  11.159 -0.3848  0.3138 -0.4294
  963MOL0     H27051   1.495   9.412  11.417  3.2120 -0.7213 -1.1891
  963MOL0     H27052   1.462   9.222  11.576  0.1981  1.1086  0.5380
  963MOL0     H27053   1.199   8.875  11.477  0.4116 -0.5712  0.8604
  963MOL0     H27054   1.167   9.051  11.496  0.9280  2.1171  2.1981
  963MOL0     H27055   1.218   9.036  11.739 -0.6342  1.1801 -0.2621
  963MOL0     H27056   1.213   8.855  11.712  1.0949 -0.3836 -1.1753
  963MOL0     H27057   0.985   8.876  11.630  0.5633  1.8962 -3.1786
  963MOL0     H27058   0.998   9.055  11.675  1.2047  1.0148 -0.1926
  963MOL0     H27059   1.016   8.821  11.863 -2.4172 -1.5404 -3.0898
  963MOL0     H27060   1.029   8.990  11.911 -4.6262  2.3579  0.3642
  963MOL0     H27061   0.796   8.901  11.940 -1.1653 -0.9532 -0.9858
  963MOL0     H27062   0.779   8.897  11.766 -0.0520 -2.0280  0.2856
  963MOL0     H27063   0.860   9.151  11.806 -0.7195  1.3528 -0.0923
  963MOL0     H27064   0.808   9.123  11.960 -2.7013  2.9543  0.1594
  963MOL0     H27065   0.624   9.218  11.802  2.3895  0.3488  0.5379
  963MOL0     H27066   0.657   9.075  11.699 -1.5056 -0.4670  0.2423
  963MOL0     H27067   0.546   9.056  11.971  1.9116 -0.4254  0.0997
  963MOL0     H27068   0.546   8.928  11.845  1.2096 -0.9483  4.6712
  963MOL0     H27069   0.335   8.966  11.651  2.6334  1.4853 -0.9841
  963MOL0     H27070   0.139   9.071  11.542  1.3742  1.7013 -0.6932
  963MOL0     H27071   0.044   9.185  11.617  0.3202 -0.2123 -1.9327
  963MOL0     H27072  -0.084   8.984  11.628 -0.5755  0.3213  0.5343
  963MOL0     H27073  -0.056   9.012  11.790 -2.3969 -1.9592 -1.1530
  963MOL0     H27074   0.056   8.805  11.600  1.3358 -2.7440  0.1524
  963MOL0     H27075   0.167   8.850  11.734 -0.6074  2.3532  1.0494
  963MOL0     H27076  -0.123   8.762  11.775  1.0167 -0.2398 -3.6314
  963MOL0     H27077   0.000   8.790  11.898 -1.5578 -1.1736  0.1132
  963MOL0     H27078  -0.116   8.610  12.004  3.0050  1.1080  2.0946
  963MOL0     H27079  -0.104   8.456  12.172  2.9635 -0.1523  3.8307
  963MOL0     H27080   0.464   8.154  12.239  1.5918 -2.4149 -0.8605
  963MOL0     H27081   0.564   7.979  12.391  0.6437  0.0638 -2.3980
  963MOL0     H27082   0.627   7.792  12.512  2.6006 -1.5538 -0.5584
  963MOL0     H27083   0.523   7.704  12.390 -1.5391  0.4611  0.2132
  963MOL0     H27084   0.473   7.532  12.546  1.3533 -0.4693 -1.4008
  963MOL0     H27085   0.521   7.635  12.682  1.5847 -3.6781  1.9092
  963MOL0     H27086   0.752   7.627  12.621 -0.4952 -1.1049  2.1946
  963MOL0     H27087   0.712   7.529  12.474 -0.4755  2.1067 -0.4141
  963MOL0     H27088   0.663   7.455  12.758 -0.7660  1.6334 -0.4157
  963MOL0     H27089   0.638   7.349  12.614 -0.9681 -0.3731  2.0141
  963MOL0     H27090   0.916   7.454  12.719  1.2236 -2.0611  0.7864
  963MOL0     H27091   0.885   7.377  12.567  0.8466 -1.6423  0.6313
  963MOL0     H27092   0.957   7.199  12.678  0.8312  0.9755 -0.2030
  963MOL0     H27093   0.779   7.184  12.712 -0.6053  1.3449  2.8942
  963MOL0     H27094   0.987   7.296  12.909 -0.1792 -2.8897  1.9093
  963MOL0     H27095   0.815   7.342  12.924  0.9897 -0.2624  3.0885
  963MOL0     H27096   0.760   7.129  13.003  0.7438 -0.5262  1.2680
  963MOL0     H27097   0.911   7.156  13.083  2.3907 -0.5426 -1.4347
  963MOL0     H27098   0.181   7.858  12.518  1.7051  1.7132  3.3327
  963MOL0     H27099   0.081   8.034  12.371 -0.6519  0.9125  2.3043
  963MOL0     H27100   0.269   8.305  12.002 -0.8605 -1.7109  0.8248
  963MOL0     H27101   0.240   8.473  11.811 -0.5377  0.0487 -0.1849
  963MOL0     H27102   1.331   8.970  11.257  0.5145 -0.6160  0.4501
  963MOL0     H27103   1.396   9.134  11.102 -0.4260 -1.9479  0.8894
  963MOL0     H27104   1.365   9.512  10.944  1.6837 -0.2871  1.0163
  963MOL0     H27105   1.311   9.687  10.781  2.6796 -1.7115  0.7764
  963MOL0     H27106   1.474   9.921  10.713 -1.0967 -1.1627  1.0162
  963MOL0     H27107   1.427  10.091  10.717 -1.5324 -0.3911  1.3611
  963MOL0     H27108   1.254   9.874  10.608 -0.4060 -0.8907 -3.8853
  963MOL0     H27109   1.216  10.049  10.620  0.4934 -0.3029  1.3895
  963MOL0     H27110   1.431  10.097  10.480 -0.1079  0.8619 -3.7009
  963MOL0     H27111   1.305  10.018  10.401 -0.3854  3.5868  0.9636
  963MOL0     H27112   1.553   9.868  10.523 -1.4437  1.8680  2.0957
  963MOL0     H27113   1.412   9.791  10.430  0.7915 -0.2102  0.2412
  963MOL0     H27114   1.665   9.935  10.127  0.9202  1.9216 -0.1184
  963MOL0     H27115   1.336   9.976  11.105 -0.1763  0.3927 -0.7166
  963MOL0     H27116   1.334   9.809  11.262 -1.7430  2.0628 -0.9401
  964MOL0     O27117   1.801   4.841   9.858 -0.9934 -0.1996  0.3310
  964MOL0     C27118   1.680   4.836   9.844  0.0058  0.8006 -0.7806
  964MOL0     O27119   1.615   4.836   9.724  0.3883 -0.0267 -0.2714
  964MOL0     C27120   1.681   4.823   9.602 -0.9327  0.7561 -0.1040
  964MOL0     C27121   1.621   4.894   9.497 -0.3612  0.4159  0.5340
  964MOL0     C27122   1.675   4.897   9.367  0.0714 -0.2026  0.1164
  964MOL0     C27123   1.802   4.841   9.344 -0.6007 -0.2660  0.1350
  964MOL0     O27124   1.851   4.864   9.222  0.5179 -0.6725  0.1529
  964MOL0     C27125   1.970   4.799   9.181  0.8269 -0.4588 -0.9347
  964MOL0     C27126   2.031   4.870   9.060 -0.0028 -0.1681  0.5992
  964MOL0     C27127   2.119   4.993   9.069 -0.3066 -0.4067 -0.4382
  964MOL0     C27128   2.073   5.105   9.169  0.4032  0.9731 -0.3039
  964MOL0     C27129   2.158   5.229   9.177 -0.2707  0.8741 -0.7166
  964MOL0     C27130   2.125   5.316   9.303 -0.4962 -0.8425 -1.0475
  964MOL0     C27131   1.983   5.371   9.287 -0.0865 -0.7045 -0.8428
  964MOL0     C27132   1.930   5.448   9.417  0.1727 -0.1487 -0.4920
  964MOL0     N27133   1.914   5.374   9.541  0.0147 -0.0148  0.7645
  964MOL0     C27134   1.911   5.238   9.556 -0.0755  0.4805  0.1707
  964MOL0     C27135   1.920   5.224   9.685  0.1332 -0.5517 -0.2532
  964MOL0     C27136   1.911   5.097   9.752 -0.7455 -0.9901  0.0591
  964MOL0     C27137   2.042   5.017   9.746  1.3397 -0.1360 -0.5306
  964MOL0     C27138   2.128   5.027   9.620 -0.2116 -0.4715 -0.9832
  964MOL0     C27139   2.255   4.942   9.649 -0.4073  0.3087 -0.8536
  964MOL0     O27140   2.359   4.992   9.567 -0.4280 -0.2143 -0.7095
  964MOL0     C27141   2.390   4.946   9.444  0.1699 -0.5540  0.7285
  964MOL0     C27142   2.314   4.854   9.366 -0.5292  1.3894 -0.1972
  964MOL0     C27143   2.360   4.809   9.244 -0.5764 -0.2221 -0.3010
  964MOL0     C27144   2.481   4.860   9.196 -0.6096  0.4191  0.1049
  964MOL0     C27145   2.526   4.817   9.063 -0.3716  0.3510  0.1424
  964MOL0     O27146   2.661   4.842   9.021 -0.0628  0.3228 -0.2126
  964MOL0     C27147   2.699   4.814   8.889  0.4727  0.1872 -0.8811
  964MOL0     C27148   2.683   4.689   8.837 -0.3407 -0.0022 -0.7032
  964MOL0     C27149   2.701   4.665   8.702  0.2971 -0.0595 -0.3389
  964MOL0     C27150   2.748   4.764   8.620  0.8456  0.3234  1.0707
  964MOL0     O27151   2.781   4.754   8.483 -0.1991  0.5229 -0.7906
  964MOL0     C27152   2.748   4.634   8.413  0.5466  0.0709  0.5438
  964MOL0     C27153   2.603   4.626   8.379  0.2587 -0.1627 -1.0062
  964MOL0     C27154   2.577   4.513   8.285  0.5129  0.9509 -0.3791
  964MOL0     C27155   2.633   4.538   8.147  0.2766  0.1851 -0.0243
  964MOL0     C27156   2.585   4.433   8.040  0.3623  0.0259  1.0987
  964MOL0     C27157   2.637   4.450   7.901 -0.0366  0.2295  0.2981
  964MOL0     C27158   2.531   4.413   7.803 -0.2451 -0.2821  0.0480
  964MOL0     C27159   2.587   4.458   7.671 -1.4072  0.6365 -0.1605
  964MOL0    Cl27160   2.721   4.357   7.619  0.5188  0.4322 -0.9439
  964MOL0     C27161   2.767   4.892   8.670  0.2604 -0.4740 -0.2273
  964MOL0     C27162   2.731   4.914   8.799 -0.1870 -1.0853 -0.1787
  964MOL0     O27163   2.440   4.780   8.986 -0.5135  0.4138 -0.5865
  964MOL0     C27164   2.548   4.956   9.265 -0.9595  0.6219 -0.1192
  964MOL0     C27165   2.511   5.002   9.388  0.5109 -0.8094  0.2028
  964MOL0     N27166   1.927   5.350   9.752  0.3596  0.3044 -0.1677
  964MOL0     N27167   1.917   5.430   9.665 -0.1948  0.1066  0.4071
  964MOL0     C27168   1.861   4.766   9.450  0.2663  0.2327  1.1655
  964MOL0     C27169   1.809   4.753   9.575  0.2069 -0.1663 -0.6720
  964MOL0     C27170   1.608   4.828   9.971  0.4977 -1.2766 -0.3745
  964MOL0     C27171   1.467   4.838   9.964 -0.2325  0.4286 -0.2877
  964MOL0     C27172   1.392   4.799  10.078 -0.5303  0.4366 -0.3411
  964MOL0     C27173   1.456   4.783  10.201  0.8197 -0.1310  0.9950
  964MOL0     O27174   1.381   4.741  10.314  0.0172 -0.5964  0.1372
  964MOL0     C27175   1.441   4.645  10.400 -0.7048  0.7205 -0.5727
  964MOL0     C27176   1.307   4.579  10.464  0.0100 -0.3309  0.3877
  964MOL0     C27177   1.356   4.479  10.567  0.2433 -0.0249 -0.5189
  964MOL0     C27178   1.370   4.335  10.504  0.6125 -0.7855  0.2288
  964MOL0     C27179   1.416   4.246  10.610 -0.4852  0.6486 -0.3088
  964MOL0     C27180   1.458   4.176  10.698 -0.3269 -0.3531 -0.5327
  964MOL0     C27181   1.598   4.791  10.204  0.0370 -0.6163 -0.7002
  964MOL0     C27182   1.671   4.806  10.087 -0.8496 -0.4476 -1.4415
  964MOL0     H27183   1.522   4.939   9.501 -1.9249 -2.8113  1.2453
  964MOL0     H27184   1.622   4.945   9.285  0.0095  0.4063  0.5109
  964MOL0     H27185   1.936   4.695   9.169 -0.4023 -0.7177  3.1942
  964MOL0     H27186   2.055   4.802   9.250  1.3708 -1.5310 -1.5340
  964MOL0     H27187   1.945   4.881   8.994 -1.0252 -0.0763  1.8887
  964MOL0     H27188   2.097   4.797   9.012  3.6073  2.7216  0.6768
  964MOL0     H27189   2.132   5.036   8.969  3.3916  1.3624  0.6460
  964MOL0     H27190   2.219   4.958   9.093 -0.9037 -2.2009 -0.4287
  964MOL0     H27191   1.974   5.137   9.135 -0.2583 -0.0883  0.5866
  964MOL0     H27192   2.070   5.060   9.268  0.2931  2.4925  0.4219
  964MOL0     H27193   2.133   5.285   9.087 -0.2238  1.4290 -0.3903
  964MOL0     H27194   2.258   5.183   9.181 -0.6781 -0.0003  2.7790
  964MOL0     H27195   2.193   5.402   9.309 -3.3085  1.5239 -0.7121
  964MOL0     H27196   2.134   5.251   9.391 -2.0233 -0.4039 -0.5372
  964MOL0     H27197   1.976   5.435   9.199 -0.6985  0.3651 -0.0343
  964MOL0     H27198   1.911   5.290   9.266  0.6517 -1.4958 -0.3823
  964MOL0     H27199   1.831   5.486   9.388 -0.0151  1.5308  2.0562
  964MOL0     H27200   1.990   5.536   9.441  1.0873 -1.6896  3.9465
  964MOL0     H27201   1.910   5.156   9.485 -0.1133 -0.6166  1.3945
  964MOL0     H27202   1.832   5.048   9.693 -1.3289  0.8451 -0.7745
  964MOL0     H27203   1.889   5.126   9.855 -4.0950  1.8427 -1.2252
  964MOL0     H27204   2.016   4.911   9.757 -3.5134  0.9829  1.5303
  964MOL0     H27205   2.096   5.042   9.838 -2.4618 -0.2589  1.9470
  964MOL0     H27206   2.075   4.992   9.531 -0.9434  0.5325 -0.9610
  964MOL0     H27207   2.160   5.131   9.608 -0.0691 -0.1918  1.3227
  964MOL0     H27208   2.241   4.834   9.643  2.3303 -0.2572  0.9486
  964MOL0     H27209   2.295   4.965   9.748  3.9327 -0.3945 -2.2396
  964MOL0     H27210   2.228   4.799   9.405  0.0344  2.4210  2.7414
  964MOL0     H27211   2.297   4.742   9.187 -0.3050  0.0763 -0.9529
  964MOL0     H27212   2.653   4.606   8.900 -2.5293 -0.8314 -2.6826
  964MOL0     H27213   2.663   4.566   8.676 -0.5506  1.1144 -4.2397
  964MOL0     H27214   2.766   4.542   8.470 -0.7347 -0.1267  0.6788
  964MOL0     H27215   2.816   4.627   8.327  0.3076 -1.7358  0.4476
  964MOL0     H27216   2.559   4.717   8.339 -0.2988 -0.2189 -0.5471
  964MOL0     H27217   2.551   4.602   8.472  2.3119 -1.2845 -0.0839
  964MOL0     H27218   2.470   4.494   8.273  0.7980 -2.7883  1.4966
  964MOL0     H27219   2.609   4.420   8.333  1.8568  1.3453 -0.4733
  964MOL0     H27220   2.612   4.642   8.118  3.5349  0.2937 -2.6945
  964MOL0     H27221   2.742   4.530   8.151  0.2865  0.3798  0.1351
  964MOL0     H27222   2.477   4.447   8.034  0.7607  4.0596  0.5316
  964MOL0     H27223   2.621   4.333   8.068  1.9049 -1.0259 -3.6904
  964MOL0     H27224   2.731   4.396   7.886 -1.4238 -2.5369  0.9681
  964MOL0     H27225   2.655   4.558   7.890  1.6940  0.0117  0.7110
  964MOL0     H27226   2.515   4.305   7.809  1.1452 -0.5540 -0.7859
  964MOL0     H27227   2.434   4.460   7.826  0.1782 -0.4577  2.3790
  964MOL0     H27228   2.604   4.566   7.665 -0.5675  0.4618 -1.1472
  964MOL0     H27229   2.515   4.434   7.592 -1.6486 -0.2889  0.3300
  964MOL0     H27230   2.807   4.975   8.613 -0.5260 -0.1460 -0.3129
  964MOL0     H27231   2.752   5.009   8.846  1.9827 -0.6949 -1.7932
  964MOL0     H27232   2.636   4.997   9.217 -0.0463 -3.0494 -1.9319
  964MOL0     H27233   2.568   5.067   9.453  0.5085 -0.2042 -0.3879
  964MOL0     H27234   1.949   4.704   9.433 -0.4638 -0.6671  0.5132
  964MOL0     H27235   1.863   4.694   9.649 -0.9363  1.1417  1.2889
  964MOL0     H27236   1.414   4.845   9.870 -0.7732 -2.3814 -0.2755
  964MOL0     H27237   1.284   4.795  10.076 -0.5469 -2.9754  0.8319
  964MOL0     H27238   1.498   4.697  10.477  1.8982 -2.1597 -0.3511
  964MOL0     H27239   1.500   4.571  10.344  1.0546  2.6018 -1.3240
  964MOL0     H27240   1.242   4.663  10.490  2.0915  1.4140  0.2068
  964MOL0     H27241   1.263   4.515  10.387  3.0777 -1.7556 -0.3244
  964MOL0     H27242   1.290   4.483  10.655  2.7194  3.8920  1.4598
  964MOL0     H27243   1.455   4.508  10.603  1.2462 -0.2023 -2.9357
  964MOL0     H27244   1.272   4.301  10.469  1.8489 -1.7706 -2.5789
  964MOL0     H27245   1.435   4.332  10.416  1.5515 -0.2008  0.8873
  964MOL0     H27246   1.488   4.094  10.759  2.3928  2.5688  2.4320
  964MOL0     H27247   1.653   4.765  10.294 -2.2941 -1.4024  0.5873
  964MOL0     H27248   1.779   4.804  10.084 -0.5296 -0.6789  3.0596
  965MOL0     O27249   7.510   6.263   7.324 -0.1186  0.0364 -0.2497
  965MOL0     C27250   7.525   6.321   7.223 -0.0168 -0.0359  0.0373
  965MOL0     O27251   7.630   6.299   7.135  0.8227  0.2767 -0.0420
  965MOL0     C27252   7.711   6.188   7.162  0.1639  0.3679  0.2274
  965MOL0     C27253   7.726   6.085   7.067 -0.3841 -0.0132  0.1268
  965MOL0     C27254   7.834   5.994   7.068  0.1846 -0.4644  0.7724
  965MOL0     C27255   7.919   5.988   7.179 -0.7807 -0.3206 -0.0265
  965MOL0     O27256   8.012   5.893   7.203  0.1468  0.1139 -0.2626
  965MOL0     C27257   8.043   5.804   7.094  0.6925  1.0216 -0.5260
  965MOL0     C27258   8.151   5.713   7.163  0.0677 -0.2983  0.2004
  965MOL0     C27259   8.092   5.637   7.280 -1.0874  1.0051  0.2215
  965MOL0     C27260   8.215   5.568   7.347 -0.2368  0.3402 -0.2280
  965MOL0     C27261   8.175   5.475   7.466  0.0699 -0.6717  0.2308
  965MOL0     C27262   8.287   5.389   7.533  0.0036 -0.4858 -1.6182
  965MOL0     C27263   8.354   5.298   7.430  0.1200 -0.1801  0.3440
  965MOL0     C27264   8.265   5.197   7.363  0.1444  0.4818  0.7495
  965MOL0     N27265   8.334   5.127   7.248  0.3190 -0.2325 -0.0143
  965MOL0     C27266   8.337   5.179   7.121  0.2504  0.3921 -0.2322
  965MOL0     C27267   8.367   5.072   7.044  1.2050 -0.2704 -0.1865
  965MOL0     C27268   8.371   5.076   6.901 -0.0092 -0.9960 -0.6692
  965MOL0     C27269   8.509   5.073   6.853 -0.0994 -0.0859  0.5058
  965MOL0     C27270   8.542   4.922   6.826  0.5474 -0.1116  0.7312
  965MOL0     C27271   8.668   4.895   6.759 -0.1836 -0.3882  0.0119
  965MOL0     O27272   8.784   4.959   6.820  0.0379  1.0117 -0.4161
  965MOL0     C27273   8.905   4.921   6.768  0.1848  0.7315  0.5576
  965MOL0     C27274   9.016   4.981   6.832 -0.1985  0.2966  0.6748
  965MOL0     C27275   9.139   4.962   6.796 -0.1846 -0.3728 -0.0637
  965MOL0     C27276   9.173   4.860   6.703  0.2886  1.7031 -0.6338
  965MOL0     C27277   9.306   4.819   6.675 -0.0709 -0.1427  0.1125
  965MOL0     O27278   9.318   4.703   6.590  0.5964 -0.5066  0.0276
  965MOL0     C27279   9.443   4.653   6.556  0.1523 -0.9560 -0.6545
  965MOL0     C27280   9.471   4.615   6.422  0.7213  0.0829 -0.1238
  965MOL0     C27281   9.597   4.581   6.395 -0.1371  0.5400 -0.6479
  965MOL0     C27282   9.703   4.584   6.494 -1.1321 -0.2774  0.8986
  965MOL0     O27283   9.832   4.561   6.449  0.0840  0.2410  0.2489
  965MOL0     C27284   9.940   4.599   6.536  0.1846  0.9223  0.0394
  965MOL0     C27285  10.065   4.588   6.449 -0.0702  0.2134  0.4804
  965MOL0     C27286  10.176   4.681   6.494 -0.9371 -0.1244 -0.1486
  965MOL0     C27287  10.222   4.669   6.642 -0.7556 -1.3196  0.3436
  965MOL0     C27288  10.362   4.730   6.663  0.4260  0.4429  0.0838
  965MOL0     C27289  10.422   4.690   6.800 -0.2298  1.0331  0.8195
  965MOL0     C27290  10.338   4.759   6.911  0.5661  0.4511 -0.3277
  965MOL0     C27291  10.418   4.811   7.029  0.7046  0.0651  0.4592
  965MOL0    Cl27292  10.533   4.943   6.970  0.1731 -0.1953  0.3718
  965MOL0     C27293   9.669   4.613   6.634  0.1348 -0.3066  0.8540
  965MOL0     C27294   9.539   4.655   6.659 -0.4104  0.3712  0.3543
  965MOL0     O27295   9.400   4.875   6.740 -0.0284  0.1027  0.5808
  965MOL0     C27296   9.059   4.800   6.633  0.2646 -0.1597 -0.8373
  965MOL0     C27297   8.926   4.837   6.663  0.2527 -0.0998 -0.0088
  965MOL0     N27298   8.404   4.969   7.128 -0.1485  1.1155 -0.4060
  965MOL0     N27299   8.386   5.000   7.251 -0.5938  0.1867 -0.1953
  965MOL0     C27300   7.900   6.089   7.278  0.0178 -0.0978  0.2179
  965MOL0     C27301   7.803   6.187   7.272  0.0170  0.1643 -0.0370
  965MOL0     C27302   7.416   6.403   7.165 -0.0243 -0.1083  0.2809
  965MOL0     C27303   7.296   6.432   7.235 -0.3288  0.8151  0.5371
  965MOL0     C27304   7.190   6.501   7.167 -0.0591  0.0539 -1.0951
  965MOL0     C27305   7.212   6.538   7.036 -0.4944  0.2165 -0.2244
  965MOL0     O27306   7.116   6.615   6.980  0.2740  0.7665  0.1347
  965MOL0     C27307   7.160   6.751   6.953 -0.1958 -0.4713 -0.3344
  965MOL0     C27308   7.069   6.828   6.850  0.1503 -0.0990 -0.3745
  965MOL0     C27309   7.090   6.763   6.719 -0.3090 -0.2675 -0.0319
  965MOL0     C27310   6.976   6.777   6.624 -0.0498  0.3942  0.3909
  965MOL0     C27311   6.945   6.923   6.598  0.7256 -0.7717  0.5278
  965MOL0     C27312   6.937   7.043   6.583  0.0074 -0.5462  0.4929
  965MOL0     C27313   7.329   6.514   6.974 -0.2334  0.9597 -0.7128
  965MOL0     C27314   7.422   6.434   7.031  0.0212 -1.2061  0.4211
  965MOL0     H27315   7.669   6.089   6.975 -1.4529 -2.3674  0.6124
  965MOL0     H27316   7.840   5.919   6.991 -2.8655 -1.6842  1.5893
  965MOL0     H27317   8.098   5.846   7.009 -1.0793  0.8922 -1.7936
  965MOL0     H27318   7.961   5.733   7.077  0.9921  0.1010  1.5959
  965MOL0     H27319   8.230   5.774   7.210 -1.7314  2.6034 -0.2742
  965MOL0     H27320   8.195   5.648   7.087  2.1167  1.2008  0.0143
  965MOL0     H27321   8.022   5.561   7.245  1.1931  0.3459 -3.5548
  965MOL0     H27322   8.047   5.703   7.355 -1.3427  0.0292  0.9430
  965MOL0     H27323   8.269   5.507   7.273  3.1004  2.3995  0.3090
  965MOL0     H27324   8.303   5.625   7.378  0.4581 -1.3510  1.0977
  965MOL0     H27325   8.087   5.419   7.435 -0.3887 -2.2564  3.8995
  965MOL0     H27326   8.137   5.540   7.545  0.1605  1.9699 -1.7345
  965MOL0     H27327   8.244   5.341   7.621 -1.7866 -1.2445 -2.8240
  965MOL0     H27328   8.367   5.456   7.562 -0.9263 -0.4450  1.1159
  965MOL0     H27329   8.398   5.366   7.356 -0.0969 -0.6498 -0.2246
  965MOL0     H27330   8.443   5.252   7.474 -1.0170 -1.4177  1.4091
  965MOL0     H27331   8.189   5.251   7.306  0.9719  1.3244  0.4050
  965MOL0     H27332   8.226   5.130   7.439 -1.6417  0.0882 -0.4479
  965MOL0     H27333   8.312   5.279   7.086 -1.0014 -0.4810 -1.9594
  965MOL0     H27334   8.323   5.170   6.874 -0.8621 -0.7936  1.3650
  965MOL0     H27335   8.303   5.003   6.855  2.4997 -3.1065 -1.2444
  965MOL0     H27336   8.570   5.114   6.934  0.4758  1.0307 -0.4702
  965MOL0     H27337   8.511   5.140   6.767  0.2136 -1.5545 -0.6727
  965MOL0     H27338   8.549   4.862   6.918 -1.0932 -0.9326  0.3608
  965MOL0     H27339   8.457   4.877   6.775 -0.3999 -0.0872  2.2098
  965MOL0     H27340   8.665   4.937   6.658  4.1176  1.0986  0.2733
  965MOL0     H27341   8.693   4.790   6.778  0.3390 -0.6287 -1.8687
  965MOL0     H27342   9.006   5.056   6.910 -0.1991  1.0405 -0.0201
  965MOL0     H27343   9.216   5.010   6.855 -2.1774  2.7356  0.2445
  965MOL0     H27344   9.405   4.611   6.336  2.5657  0.0600 -1.5866
  965MOL0     H27345   9.617   4.555   6.292  0.5484  2.3414 -1.0195
  965MOL0     H27346   9.947   4.526   6.617  1.6028  0.4900 -0.4425
  965MOL0     H27347   9.913   4.698   6.572 -2.3833 -0.5349  2.4671
  965MOL0     H27348  10.044   4.627   6.348 -0.7971  0.4666  0.7205
  965MOL0     H27349  10.098   4.486   6.425 -0.4551 -0.0649  1.1127
  965MOL0     H27350  10.151   4.786   6.477  1.3813  0.3480 -1.0007
  965MOL0     H27351  10.266   4.661   6.436  0.4300  0.0804  1.8243
  965MOL0     H27352  10.152   4.720   6.708 -1.3341  0.7284 -1.7104
  965MOL0     H27353  10.238   4.564   6.670  2.0988 -0.9233  0.5340
  965MOL0     H27354  10.341   4.838   6.655 -3.1217  0.2061  3.1372
  965MOL0     H27355  10.438   4.714   6.587  0.4386 -3.9603  0.8029
  965MOL0     H27356  10.523   4.731   6.793 -1.2553  3.5384 -2.6562
  965MOL0     H27357  10.422   4.583   6.823 -0.3062  1.0263  0.7884
  965MOL0     H27358  10.290   4.851   6.874  0.5338  1.5793  2.3017
  965MOL0     H27359  10.260   4.688   6.940 -0.0515  0.8899 -0.8699
  965MOL0     H27360  10.465   4.728   7.082 -4.5120 -3.2850  0.5691
  965MOL0     H27361  10.345   4.853   7.099 -2.3682 -0.7817 -2.0059
  965MOL0     H27362   9.743   4.618   6.714 -0.1746  4.1197  1.1196
  965MOL0     H27363   9.528   4.691   6.760 -2.8280 -0.1752  0.3321
  965MOL0     H27364   9.083   4.731   6.553  1.5935  1.3479 -1.7969
  965MOL0     H27365   8.842   4.789   6.612  1.1383 -1.2716 -0.4357
  965MOL0     H27366   7.976   6.093   7.355  3.0392  0.2683 -2.5615
  965MOL0     H27367   7.781   6.255   7.354 -1.0221  0.0705 -0.2254
  965MOL0     H27368   7.300   6.399   7.338  0.1259 -0.1296  0.2361
  965MOL0     H27369   7.099   6.534   7.215 -0.3279 -2.4066  0.2352
  965MOL0     H27370   7.258   6.768   6.907 -0.8113 -0.1735 -1.5734
  965MOL0     H27371   7.167   6.788   7.056 -1.3858 -0.0289 -0.3957
  965MOL0     H27372   6.964   6.816   6.881 -0.6766  0.7270 -2.6282
  965MOL0     H27373   7.086   6.936   6.843 -2.0069  0.5456  2.4221
  965MOL0     H27374   7.109   6.655   6.726 -0.6865 -0.3293  0.0801
  965MOL0     H27375   7.182   6.809   6.682  0.2023  0.0857  1.5956
  965MOL0     H27376   6.996   6.724   6.530 -2.4740 -2.3386  1.2606
  965MOL0     H27377   6.895   6.712   6.660  1.1588 -3.2222 -2.7174
  965MOL0     H27378   6.898   7.143   6.580  1.3773 -0.0203 -0.9764
  965MOL0     H27379   7.348   6.556   6.876  0.8165 -0.1099 -0.9775
  965MOL0     H27380   7.496   6.403   6.958 -0.7117  0.8076 -1.2902
  966MOL0     O27381   7.654   4.027   3.086 -0.2507 -0.5170  0.3306
  966MOL0     C27382   7.650   4.148   3.112  0.2099 -0.9628 -1.3632
  966MOL0     O27383   7.762   4.220   3.166 -0.7311  0.5565 -0.2545
  966MOL0     C27384   7.879   4.154   3.184 -0.2249  0.1972  0.0932
  966MOL0     C27385   7.912   4.132   3.322  0.8591 -1.0612 -0.5678
  966MOL0     C27386   8.026   4.066   3.356  0.3599  0.5053 -0.4065
  966MOL0     C27387   8.111   4.019   3.253  1.1656  0.6819 -0.0940
  966MOL0     O27388   8.234   3.972   3.274 -0.2404  0.1546 -0.4283
  966MOL0     C27389   8.251   3.855   3.364  0.2399 -0.4396  0.1682
  966MOL0     C27390   8.398   3.806   3.366  0.8183 -0.2378 -0.6455
  966MOL0     C27391   8.488   3.806   3.237  0.4574  0.3328  0.3994
  966MOL0     C27392   8.630   3.741   3.250  0.4031  0.2149 -1.0052
  966MOL0     C27393   8.711   3.780   3.118  0.3908  0.4795 -0.3067
  966MOL0     C27394   8.843   3.700   3.112  0.3085 -0.2617 -0.0854
  966MOL0     C27395   8.818   3.543   3.108 -0.0285  0.1130  0.0744
  966MOL0     C27396   8.940   3.446   3.105  0.5033 -0.1233 -0.3608
  966MOL0     N27397   9.006   3.434   3.251  0.9861 -0.3684  0.4068
  966MOL0     C27398   8.943   3.404   3.374  0.1639 -1.6181 -0.1300
  966MOL0     C27399   9.040   3.387   3.459 -1.1196  0.0208  0.0135
  966MOL0     C27400   9.035   3.323   3.596 -1.0547  0.2465  0.2196
  966MOL0     C27401   8.973   3.426   3.693 -0.8902  0.0390 -0.2399
  966MOL0     C27402   9.076   3.539   3.709  0.4698 -0.6362 -0.7049
  966MOL0     C27403   9.046   3.620   3.827 -0.2859 -0.1338  0.2995
  966MOL0     O27404   9.165   3.705   3.858  0.1331 -0.2827  0.3761
  966MOL0     C27405   9.146   3.785   3.968 -0.7737  0.3803  0.2911
  966MOL0     C27406   9.060   3.762   4.071 -0.4688 -0.4738  0.0638
  966MOL0     C27407   9.036   3.857   4.168 -0.1792 -0.5403  0.0032
  966MOL0     C27408   9.109   3.978   4.176 -0.1753 -0.4303  0.3382
  966MOL0     C27409   9.088   4.085   4.272  0.1128  0.7664 -0.2335
  966MOL0     O27410   9.179   4.184   4.277  0.2453 -0.0188  0.3681
  966MOL0     C27411   9.174   4.272   4.385 -0.1638 -0.6793  0.7723
  966MOL0     C27412   9.099   4.388   4.384 -0.7139  0.0039  0.6661
  966MOL0     C27413   9.102   4.468   4.505 -0.3271 -0.2721  0.4127
  966MOL0     C27414   9.181   4.448   4.614  0.0645 -0.3843  0.0922
  966MOL0     O27415   9.165   4.532   4.724  0.5000  0.5948 -0.2462
  966MOL0     C27416   9.043   4.515   4.805 -0.2945  0.3692 -0.4071
  966MOL0     C27417   9.086   4.532   4.954 -1.3633  0.1651 -0.2425
  966MOL0     C27418   8.999   4.630   5.037 -0.2111 -0.9730 -0.3802
  966MOL0     C27419   9.075   4.654   5.164 -0.2197  0.2481 -0.6033
  966MOL0     C27420   9.010   4.741   5.273 -0.8130  1.0889  0.9251
  966MOL0     C27421   9.103   4.749   5.398  0.2557  0.4634 -1.5890
  966MOL0     C27422   9.038   4.672   5.517  0.0468  0.7798  0.6849
  966MOL0     C27423   9.139   4.632   5.634  0.5258 -0.7955 -0.3853
  966MOL0    Cl27424   9.226   4.478   5.616 -0.2650  0.3190 -0.3689
  966MOL0     C27425   9.263   4.332   4.613  1.1531  0.0713  0.1286
  966MOL0     C27426   9.258   4.244   4.495  0.3791  0.0131 -0.7442
  966MOL0     O27427   8.998   4.065   4.345 -0.1847 -0.0109 -1.3824
  966MOL0     C27428   9.224   3.985   4.085  0.0477  0.2761 -0.1599
  966MOL0     C27429   9.230   3.896   3.976  0.2589  1.0040  0.5927
  966MOL0     N27430   9.166   3.433   3.397  0.5475  0.6507 -0.0890
  966MOL0     N27431   9.133   3.477   3.273 -0.0531 -0.2603 -0.0499
  966MOL0     C27432   8.078   4.041   3.119  0.6213  0.4258 -0.4577
  966MOL0     C27433   7.962   4.113   3.081 -0.4796  0.1069 -0.4232
  966MOL0     C27434   7.524   4.218   3.090  0.0517 -0.3460 -1.1074
  966MOL0     C27435   7.413   4.155   3.028 -0.3639 -0.1412 -0.0604
  966MOL0     C27436   7.294   4.229   3.001  0.3282  0.1053 -0.4297
  966MOL0     C27437   7.283   4.356   3.062 -0.1565 -0.1484 -1.0729
  966MOL0     O27438   7.163   4.416   3.034  0.0115 -0.7591  0.1648
  966MOL0     C27439   7.088   4.436   3.146 -0.1120 -0.3445  0.2217
  966MOL0     C27440   7.013   4.300   3.185 -0.4443  0.5919 -0.8766
  966MOL0     C27441   6.942   4.322   3.323 -0.5587  0.9670  0.0162
  966MOL0     C27442   6.802   4.249   3.331 -0.1277  1.3498  0.4700
  966MOL0     C27443   6.744   4.274   3.463  1.1131  0.1977 -0.6027
  966MOL0     C27444   6.701   4.314   3.563  0.5326 -0.3320 -0.5204
  966MOL0     C27445   7.387   4.410   3.143 -1.1257  0.0476 -0.1317
  966MOL0     C27446   7.508   4.340   3.148  0.0457  0.2724  0.1491
  966MOL0     H27447   7.832   4.164   3.388  2.2977  1.0053  0.2750
  966MOL0     H27448   8.059   4.046   3.457 -0.3612 -1.0681 -0.4488
  966MOL0     H27449   8.180   3.782   3.325 -1.5373  1.4910 -0.3827
  966MOL0     H27450   8.212   3.887   3.461 -0.0984 -2.6333  0.8196
  966MOL0     H27451   8.408   3.704   3.403 -1.2064 -0.2415 -0.0099
  966MOL0     H27452   8.450   3.871   3.438  0.8288  2.3262 -2.8032
  966MOL0     H27453   8.508   3.909   3.205  1.7603 -0.2644 -0.7903
  966MOL0     H27454   8.430   3.760   3.157 -0.8917  1.4776  0.6714
  966MOL0     H27455   8.692   3.783   3.331  0.1233  1.3966 -1.3775
  966MOL0     H27456   8.615   3.635   3.271 -0.3557 -0.0050 -2.5208
  966MOL0     H27457   8.733   3.887   3.114 -0.1711  0.6460  0.6412
  966MOL0     H27458   8.646   3.750   3.035  2.1761  3.3607 -2.9392
  966MOL0     H27459   8.893   3.719   3.208 -0.1810 -0.9527  0.3150
  966MOL0     H27460   8.906   3.735   3.030  0.4007  0.7946  0.4163
  966MOL0     H27461   8.754   3.508   3.190 -1.2240  0.0293 -0.8660
  966MOL0     H27462   8.755   3.529   3.019  1.3602 -1.1913 -0.7617
  966MOL0     H27463   9.008   3.477   3.025 -0.7766 -2.3711 -2.4398
  966MOL0     H27464   8.913   3.343   3.081  0.0576 -0.1271  0.1567
  966MOL0     H27465   8.838   3.380   3.385 -0.4688  0.9233 -0.0147
  966MOL0     H27466   9.133   3.288   3.628 -0.9192  2.4273  2.4420
  966MOL0     H27467   8.986   3.225   3.597  0.9307 -0.8502 -1.2530
  966MOL0     H27468   8.955   3.379   3.790  0.3309  1.6558  0.8199
  966MOL0     H27469   8.879   3.477   3.666 -0.3081  1.4419  0.2997
  966MOL0     H27470   9.178   3.501   3.722  0.2091 -1.8573 -1.9508
  966MOL0     H27471   9.065   3.604   3.622  0.9044  0.7400  0.2285
  966MOL0     H27472   9.023   3.540   3.898 -0.8450  0.2197  0.5183
  966MOL0     H27473   8.955   3.679   3.819 -1.1808 -1.0899  2.4921
  966MOL0     H27474   8.999   3.672   4.071 -1.0105 -0.2286  3.1560
  966MOL0     H27475   8.948   3.835   4.227  0.3067  0.2304  1.0239
  966MOL0     H27476   9.048   4.417   4.293  0.0151  1.6078  0.7208
  966MOL0     H27477   9.040   4.554   4.485 -1.9805 -1.9732 -2.4352
  966MOL0     H27478   8.996   4.418   4.787 -0.2836  0.7483 -2.8738
  966MOL0     H27479   8.966   4.592   4.791  0.0184  0.3101 -3.1101
  966MOL0     H27480   9.190   4.565   4.966 -1.6838  0.5678  1.9927
  966MOL0     H27481   9.079   4.434   5.002 -0.8841  0.9351  1.4934
  966MOL0     H27482   8.904   4.585   5.066 -0.6267 -1.1133 -1.8849
  966MOL0     H27483   8.971   4.724   4.990  0.7782  1.7740  3.9668
  966MOL0     H27484   9.113   4.559   5.202  0.6580 -0.0970 -2.2657
  966MOL0     H27485   9.168   4.706   5.141 -0.0482 -1.2299 -3.7976
  966MOL0     H27486   8.908   4.702   5.286 -0.3918 -0.4744 -0.1332
  966MOL0     H27487   9.018   4.843   5.235  0.0137  1.0887  1.0914
  966MOL0     H27488   9.136   4.850   5.425 -0.2556  0.1317  0.5186
  966MOL0     H27489   9.192   4.692   5.369  0.9617  1.6505 -1.8533
  966MOL0     H27490   8.963   4.731   5.571  0.2529 -0.8368  2.8661
  966MOL0     H27491   8.999   4.578   5.475  2.3177  1.0465 -2.3571
  966MOL0     H27492   9.077   4.639   5.724  1.3509  2.8207  0.0505
  966MOL0     H27493   9.220   4.706   5.630  1.7979 -2.2098 -2.4029
  966MOL0     H27494   9.333   4.313   4.694  0.0317  2.7127  1.8415
  966MOL0     H27495   9.299   4.144   4.500 -2.1530 -1.0889 -0.0555
  966MOL0     H27496   9.289   4.072   4.086  2.5535 -1.4832 -1.6790
  966MOL0     H27497   9.299   3.907   3.893 -1.8945  1.0699 -1.2826
  966MOL0     H27498   8.140   3.990   3.046  1.7458  1.1182 -0.0153
  966MOL0     H27499   7.928   4.146   2.983 -4.1365 -0.4403  0.5146
  966MOL0     H27500   7.439   4.059   2.984  3.7950  0.4896  0.5639
  966MOL0     H27501   7.220   4.194   2.929 -0.2246  1.9390 -0.8054
  966MOL0     H27502   7.008   4.506   3.121 -1.5605 -1.0707  2.4351
  966MOL0     H27503   7.138   4.472   3.237 -1.0313 -2.2969  1.5844
  966MOL0     H27504   6.947   4.284   3.099 -2.2640  1.3133  0.3337
  966MOL0     H27505   7.085   4.220   3.207 -2.4621 -0.9129  0.6147
  966MOL0     H27506   6.936   4.429   3.344 -4.3213  0.8752  0.1937
  966MOL0     H27507   7.000   4.275   3.402  0.4716 -0.9585 -1.7903
  966MOL0     H27508   6.741   4.296   3.254 -0.7684  0.1892  0.2495
  966MOL0     H27509   6.822   4.142   3.320  3.3761  2.1513 -3.2886
  966MOL0     H27510   6.682   4.339   3.666 -1.5978  1.0775 -1.1729
  966MOL0     H27511   7.386   4.511   3.183 -0.4298  0.8453 -2.0218
  966MOL0     H27512   7.586   4.399   3.196 -1.0883  1.2207  0.9151
  967MOL0     O27513   9.335   1.699  10.696  1.1332 -0.4386 -0.8219
  967MOL0     C27514   9.397   1.662  10.797  0.1261 -0.1250 -0.3846
  967MOL0     O27515   9.483   1.744  10.871 -0.1416 -0.7154  0.2975
  967MOL0     C27516   9.478   1.882  10.856  0.8115  0.5198 -0.2084
  967MOL0     C27517   9.585   1.949  10.907 -0.1748  0.7964  0.4862
  967MOL0     C27518   9.596   2.087  10.924  0.7996  0.1321 -0.0738
  967MOL0     C27519   9.481   2.162  10.882 -0.0427 -0.2887 -0.4869
  967MOL0     O27520   9.459   2.289  10.925 -0.8153 -0.0724 -0.5564
  967MOL0     C27521   9.548   2.387  10.896 -0.0321  0.7322 -0.4940
  967MOL0     C27522   9.492   2.517  10.954 -0.7982  0.2404  0.1806
  967MOL0     C27523   9.354   2.554  10.917  1.0506 -0.0492 -0.2961
  967MOL0     C27524   9.327   2.550  10.770 -0.7782  0.4734 -0.0204
  967MOL0     C27525   9.178   2.574  10.734  0.1730  0.4687  0.1451
  967MOL0     C27526   9.151   2.724  10.716 -0.1621  0.4632 -1.2282
  967MOL0     C27527   9.006   2.735  10.656  1.1824  0.7149 -0.0447
  967MOL0     C27528   8.945   2.877  10.627  0.6404  0.0908  0.2051
  967MOL0     N27529   9.013   2.954  10.521  0.1403  0.2284  0.6186
  967MOL0     C27530   9.002   2.919  10.390 -0.5504  0.3734 -0.3210
  967MOL0     C27531   9.106   2.974  10.323  0.0698  0.0175 -0.0210
  967MOL0     C27532   9.146   2.944  10.178 -0.1933 -0.1873  0.0252
  967MOL0     C27533   9.295   2.890  10.171  0.2087  0.3276  0.2647
  967MOL0     C27534   9.321   2.842  10.029  0.0223 -0.8792 -0.8245
  967MOL0     C27535   9.470   2.810  10.009  0.4457  0.8750  0.6154
  967MOL0     O27536   9.568   2.905  10.044  0.0399  0.1664 -0.9516
  967MOL0     C27537   9.593   3.000   9.958 -0.5190 -0.5610 -0.0626
  967MOL0     C27538   9.503   3.098   9.926 -0.4425  0.0040 -0.1472
  967MOL0     C27539   9.531   3.191   9.824 -0.2342 -0.9213  1.1799
  967MOL0     C27540   9.651   3.198   9.753  1.0014 -0.5594 -0.7177
  967MOL0     C27541   9.669   3.310   9.665  0.2527 -0.2090  0.4488
  967MOL0     O27542   9.555   3.385   9.615 -0.9258 -0.3754 -0.1112
  967MOL0     C27543   9.573   3.487   9.526  0.1797 -0.5765  0.0118
  967MOL0     C27544   9.664   3.592   9.537  0.1221  0.2046  0.3998
  967MOL0     C27545   9.664   3.699   9.445 -0.0984  0.0134 -0.2755
  967MOL0     C27546   9.578   3.693   9.337 -0.5986 -0.9146  0.8059
  967MOL0     O27547   9.584   3.790   9.241 -0.1213  0.1363  1.0105
  967MOL0     C27548   9.491   3.801   9.138 -0.1986 -0.4656  0.7132
  967MOL0     C27549   9.538   3.925   9.064  0.5002  0.2752 -0.1135
  967MOL0     C27550   9.687   3.929   9.002  0.0130  0.0208  0.0589
  967MOL0     C27551   9.728   3.798   8.931  1.1142  0.3774 -0.8398
  967MOL0     C27552   9.867   3.817   8.878  0.6815  0.7166 -0.9698
  967MOL0     C27553   9.979   3.858   8.972 -0.6097  0.0861  0.2596
  967MOL0     C27554  10.114   3.860   8.908  0.4955  0.4989  0.5180
  967MOL0     C27555  10.166   3.993   8.852 -0.3398  0.4499  0.3903
  967MOL0    Cl27556  10.205   4.118   8.994 -0.1431 -0.2564  0.2939
  967MOL0     C27557   9.490   3.594   9.329  0.6336 -0.1783 -0.7224
  967MOL0     C27558   9.488   3.486   9.420 -0.9100  0.2834  0.0887
  967MOL0     O27559   9.782   3.321   9.615 -0.3483 -0.2366  0.5465
  967MOL0     C27560   9.745   3.106   9.790  0.1610  0.0035  0.1114
  967MOL0     C27561   9.717   3.012   9.891 -0.0254 -0.5179 -1.3536
  967MOL0     N27562   9.174   3.054  10.419 -0.1605 -0.4315 -0.0771
  967MOL0     N27563   9.119   3.038  10.539  0.0601 -0.7104  1.1116
  967MOL0     C27564   9.370   2.100  10.830 -0.2934  0.2998 -0.6692
  967MOL0     C27565   9.361   1.961  10.827  0.2582  0.6117 -0.8008
  967MOL0     C27566   9.351   1.526  10.848 -0.4538 -0.0142 -0.7931
  967MOL0     C27567   9.235   1.459  10.812 -0.0243 -1.2129  0.1460
  967MOL0     C27568   9.215   1.341  10.879 -0.1406 -0.8393  0.3731
  967MOL0     C27569   9.283   1.292  10.992 -0.4626 -0.1194  0.3357
  967MOL0     O27570   9.237   1.175  11.050  0.3469  0.4022  0.0661
  967MOL0     C27571   9.314   1.119  11.154 -0.0791  0.4652  0.5270
  967MOL0     C27572   9.235   1.009  11.216 -0.6317  0.6337 -0.3393
  967MOL0     C27573   9.299   0.968  11.348  0.0737  0.3955  0.1263
  967MOL0     C27574   9.282   1.057  11.458  0.0185 -0.2071 -0.4818
  967MOL0     C27575   9.383   1.029  11.565  0.3334  0.6794  0.5711
  967MOL0     C27576   9.475   0.993  11.638 -0.5990  0.4247 -0.2335
  967MOL0     C27577   9.397   1.366  11.031 -0.7413 -0.0091  0.2786
  967MOL0     C27578   9.438   1.477  10.945 -0.0518  0.7849 -0.0850
  967MOL0     H27579   9.675   1.888  10.914 -0.6802 -1.4545 -6.0055
  967MOL0     H27580   9.683   2.131  10.972  1.2457 -1.7511  0.9420
  967MOL0     H27581   9.563   2.386  10.788 -2.4953 -0.1275 -0.8915
  967MOL0     H27582   9.647   2.362  10.933 -1.4332 -2.0722  1.7523
  967MOL0     H27583   9.563   2.583  10.903  1.7361 -2.1018  0.4497
  967MOL0     H27584   9.509   2.510  11.061 -0.3593 -1.5021  0.0306
  967MOL0     H27585   9.332   2.655  10.952  1.3190 -0.5453  1.4142
  967MOL0     H27586   9.298   2.474  10.966 -0.2934  1.0938  0.0954
  967MOL0     H27587   9.399   2.616  10.720  1.6424 -0.3759  2.1852
  967MOL0     H27588   9.343   2.448  10.734 -1.0920 -0.1513  1.5651
  967MOL0     H27589   9.122   2.531  10.818 -0.3200 -0.3162 -0.5581
  967MOL0     H27590   9.145   2.508  10.652 -1.5366 -0.3114  1.3881
  967MOL0     H27591   9.220   2.765  10.642  1.3011 -1.4094 -0.9832
  967MOL0     H27592   9.158   2.779  10.811 -0.5432  0.6398 -1.3029
  967MOL0     H27593   8.997   2.660  10.576 -0.3589 -0.2071  0.9343
  967MOL0     H27594   8.934   2.689  10.725  0.4779 -3.5387 -3.1623
  967MOL0     H27595   8.937   2.945  10.712  1.2040  2.4677 -1.5298
  967MOL0     H27596   8.844   2.867  10.585 -1.1794  1.5139  3.7868
  967MOL0     H27597   8.934   2.845  10.349  1.3203 -1.5132 -0.1869
  967MOL0     H27598   9.140   3.033  10.114  1.3940 -0.7122 -0.9112
  967MOL0     H27599   9.077   2.866  10.144 -1.1023  1.0672 -1.1356
  967MOL0     H27600   9.304   2.800  10.233  1.6482 -1.9583 -2.9694
  967MOL0     H27601   9.360   2.970  10.207 -1.1925  1.0109  1.3879
  967MOL0     H27602   9.256   2.761   9.996 -0.9556 -0.2487 -0.4731
  967MOL0     H27603   9.282   2.928   9.973 -3.7197 -1.4340  0.6759
  967MOL0     H27604   9.478   2.800   9.901 -0.8869  5.2637 -0.0864
  967MOL0     H27605   9.485   2.716  10.062  2.6281 -1.7846 -4.0739
  967MOL0     H27606   9.411   3.104   9.983  1.0775  0.4718  2.4272
  967MOL0     H27607   9.453   3.263   9.803  0.5925 -0.1863  0.5385
  967MOL0     H27608   9.725   3.577   9.625  3.7102 -0.8735 -2.0533
  967MOL0     H27609   9.745   3.770   9.436  0.7942 -1.1830 -2.6818
  967MOL0     H27610   9.386   3.819   9.162 -0.7960 -0.9356 -1.3046
  967MOL0     H27611   9.495   3.718   9.066  1.2357  2.5175 -3.0091
  967MOL0     H27612   9.543   4.021   9.116  4.0537  1.8099 -2.8007
  967MOL0     H27613   9.466   3.930   8.982  3.2566 -3.0611 -3.1147
  967MOL0     H27614   9.753   3.945   9.088  0.1100 -0.1321  0.0120
  967MOL0     H27615   9.694   4.017   8.937  0.7774 -0.4288 -0.4901
  967MOL0     H27616   9.730   3.714   9.002  3.0092  0.2609 -0.9972
  967MOL0     H27617   9.662   3.775   8.847  1.4228 -3.5328 -0.2131
  967MOL0     H27618   9.851   3.903   8.812 -5.2486  0.6728 -0.0430
  967MOL0     H27619   9.888   3.729   8.816  0.6684  0.4474 -0.5930
  967MOL0     H27620   9.969   3.805   9.067 -1.9505  0.1083  0.1603
  967MOL0     H27621   9.951   3.962   8.990 -1.7089  0.6962 -3.7815
  967MOL0     H27622  10.196   3.828   8.973  0.4641 -1.5955 -0.3876
  967MOL0     H27623  10.124   3.795   8.821  0.4040  1.2447 -0.0577
  967MOL0     H27624  10.099   4.026   8.771 -1.2714 -1.9963  0.0983
  967MOL0     H27625  10.258   3.970   8.799 -1.1380 -1.4592 -0.2398
  967MOL0     H27626   9.418   3.596   9.248  2.8807  1.2661 -2.8711
  967MOL0     H27627   9.413   3.410   9.406  0.1678 -1.1075  1.4989
  967MOL0     H27628   9.842   3.111   9.742  0.1043  2.7945  0.1215
  967MOL0     H27629   9.804   2.955   9.924 -1.4687 -0.6611  2.8106
  967MOL0     H27630   9.289   2.169  10.810 -0.9145  0.5128  2.2121
  967MOL0     H27631   9.268   1.910  10.805  0.6910  0.5498 -2.5781
  967MOL0     H27632   9.180   1.511  10.735  2.1814 -0.0342 -0.7251
  967MOL0     H27633   9.137   1.278  10.837 -1.0999  1.3974 -1.4276
  967MOL0     H27634   9.341   1.198  11.225 -0.2231  0.0682  1.0254
  967MOL0     H27635   9.408   1.077  11.117  0.7079  2.8229 -0.3501
  967MOL0     H27636   9.136   1.047  11.243 -1.1979 -0.2123 -1.1701
  967MOL0     H27637   9.212   0.930  11.144 -2.5729  1.5550 -0.8055
  967MOL0     H27638   9.406   0.967  11.330  0.3594  1.5568  1.5265
  967MOL0     H27639   9.273   0.864  11.372  0.7703 -0.0467 -0.9832
  967MOL0     H27640   9.283   1.165  11.445  0.8229  0.1123  1.8253
  967MOL0     H27641   9.185   1.021  11.496  1.5160 -4.8815 -0.3707
  967MOL0     H27642   9.557   0.970  11.703 -0.8846  0.2146  0.0497
  967MOL0     H27643   9.473   1.326  11.098  0.2203 -0.4956 -1.0608
  967MOL0     H27644   9.536   1.523  10.953  0.4368 -0.4403  1.5349
  968MOL0     O27645   3.414   2.202   1.813  0.0045 -0.1856 -0.5285
  968MOL0     C27646   3.339   2.133   1.890  0.3434 -1.2878 -0.1708
  968MOL0     O27647   3.359   2.013   1.926 -0.1354  0.0377 -0.2832
  968MOL0     C27648   3.478   1.957   1.880  0.3128 -1.2478  0.2626
  968MOL0     C27649   3.481   1.880   1.761 -0.8763 -0.4717 -0.0641
  968MOL0     C27650   3.597   1.819   1.712 -0.2873  0.2268 -0.3321
  968MOL0     C27651   3.714   1.825   1.792  0.7879  0.6588 -0.6821
  968MOL0     O27652   3.820   1.751   1.738  0.1360  0.1875  0.0139
  968MOL0     C27653   3.906   1.828   1.656  0.4688  1.5118  0.1075
  968MOL0     C27654   3.982   1.743   1.554  0.1407  0.2841 -0.9857
  968MOL0     C27655   4.122   1.801   1.511  0.7145 -0.5341  0.5864
  968MOL0     C27656   4.113   1.932   1.446  0.3673 -0.9998  0.9340
  968MOL0     C27657   4.250   1.964   1.383  0.0071  0.6001  0.3630
  968MOL0     C27658   4.226   2.093   1.313 -0.3498 -0.7023 -0.2610
  968MOL0     C27659   4.358   2.149   1.234  1.0326 -0.1750  0.4413
  968MOL0     C27660   4.309   2.244   1.128  0.1250 -0.2460  0.1526
  968MOL0     N27661   4.404   2.265   1.017 -0.1708  0.4104  0.5845
  968MOL0     C27662   4.464   2.179   0.932 -0.6429 -0.7590 -0.1178
  968MOL0     C27663   4.542   2.262   0.848  0.5442  0.7380 -0.3176
  968MOL0     C27664   4.621   2.205   0.729  0.9148  0.6643 -0.5385
  968MOL0     C27665   4.731   2.294   0.672  0.3983 -0.0963  0.1630
  968MOL0     C27666   4.860   2.298   0.755  0.2353 -0.0965  0.5390
  968MOL0     C27667   4.951   2.408   0.715  0.3600 -0.6075  0.5618
  968MOL0     O27668   5.047   2.375   0.611 -0.0727 -0.5539 -0.0634
  968MOL0     C27669   5.160   2.303   0.634 -0.5425 -0.2800 -0.7661
  968MOL0     C27670   5.204   2.261   0.761  0.3724  0.0161  1.3351
  968MOL0     C27671   5.307   2.169   0.773 -0.8148 -0.0625  0.3002
  968MOL0     C27672   5.372   2.124   0.659 -1.0142  0.2355 -0.9515
  968MOL0     C27673   5.475   2.016   0.680 -0.2512 -0.1523 -1.3991
  968MOL0     O27674   5.536   1.974   0.564 -0.5163 -0.4832  0.3364
  968MOL0     C27675   5.649   1.892   0.569  0.5364  0.1995 -0.0971
  968MOL0     C27676   5.664   1.794   0.467 -0.1199  0.7173  1.4387
  968MOL0     C27677   5.764   1.695   0.462 -0.5251 -0.3933 -0.5112
  968MOL0     C27678   5.863   1.705   0.559 -1.1826  0.8126  0.2356
  968MOL0     O27679   5.967   1.622   0.557 -0.1767  0.2937 -0.4080
  968MOL0     C27680   6.031   1.620   0.430 -0.7392 -0.9160 -0.5400
  968MOL0     C27681   6.171   1.635   0.470  0.4657 -0.9616 -0.1051
  968MOL0     C27682   6.230   1.504   0.522  0.4900  0.3739  0.5790
  968MOL0     C27683   6.372   1.506   0.585  0.0388 -0.5545 -0.5554
  968MOL0     C27684   6.388   1.399   0.692 -1.5364 -0.7234  0.2273
  968MOL0     C27685   6.525   1.377   0.739  0.4427  0.6166  0.1224
  968MOL0     C27686   6.529   1.228   0.798 -0.4095  0.0349  0.3595
  968MOL0     C27687   6.652   1.207   0.884 -0.1999 -0.1490 -1.2219
  968MOL0    Cl27688   6.811   1.241   0.799 -0.1676  0.6228 -0.2630
  968MOL0     C27689   5.852   1.783   0.671 -0.1842 -0.0711 -0.2931
  968MOL0     C27690   5.750   1.876   0.676  1.2473 -1.2264  0.5869
  968MOL0     O27691   5.497   1.972   0.800  0.1379 -0.0016  0.7118
  968MOL0     C27692   5.341   2.178   0.534 -0.6688 -0.2432 -0.8009
  968MOL0     C27693   5.235   2.267   0.523  1.3099  0.0243  0.2270
  968MOL0     N27694   4.531   2.392   0.884  0.7695 -0.2617 -0.7320
  968MOL0     N27695   4.453   2.390   0.990 -0.4074  0.7441  0.7740
  968MOL0     C27696   3.717   1.898   1.913  0.2966 -0.9438 -0.1093
  968MOL0     C27697   3.591   1.956   1.963 -1.4926  0.1278 -0.2569
  968MOL0     C27698   3.230   2.221   1.951 -0.4877 -0.5173 -1.6006
  968MOL0     C27699   3.140   2.155   2.033 -0.1821  1.0083  1.2258
  968MOL0     C27700   3.038   2.231   2.095 -0.6944 -0.3761 -0.1187
  968MOL0     C27701   3.030   2.371   2.073 -0.1196  0.1119 -0.3416
  968MOL0     O27702   2.944   2.449   2.136  0.1254  0.3959 -0.1674
  968MOL0     C27703   3.010   2.499   2.262 -0.8674 -0.0104 -0.0806
  968MOL0     C27704   2.917   2.591   2.331 -0.0082  0.0367 -0.1535
  968MOL0     C27705   2.801   2.522   2.411 -0.0170 -0.3628  0.5298
  968MOL0     C27706   2.702   2.465   2.306 -0.3686 -1.3169 -0.5505
  968MOL0     C27707   2.578   2.429   2.378 -0.7097  0.4082  0.0063
  968MOL0     C27708   2.492   2.378   2.442  0.3794 -0.3785  0.5466
  968MOL0     C27709   3.118   2.430   1.993 -0.0665 -0.5412 -0.4837
  968MOL0     C27710   3.209   2.355   1.923  0.3130  1.1832 -0.6128
  968MOL0     H27711   3.396   1.871   1.693 -1.3507  0.2098  0.4196
  968MOL0     H27712   3.602   1.776   1.613  0.5935  1.0252 -0.6498
  968MOL0     H27713   3.971   1.895   1.714  3.8480 -0.7025 -0.8155
  968MOL0     H27714   3.847   1.893   1.592  2.0059 -0.1347 -3.2217
  968MOL0     H27715   3.918   1.731   1.466  0.2112  0.3413 -1.0453
  968MOL0     H27716   4.007   1.647   1.600  3.0796  1.6098  0.4725
  968MOL0     H27717   4.165   1.733   1.437 -0.9552 -1.8952  0.8138
  968MOL0     H27718   4.190   1.785   1.596  0.0012 -0.3697  1.1975
  968MOL0     H27719   4.046   1.923   1.360 -0.3766  1.5895  1.1678
  968MOL0     H27720   4.077   2.002   1.522 -0.3191 -1.5047  1.0871
  968MOL0     H27721   4.282   1.879   1.321  0.4404  1.2337 -0.2927
  968MOL0     H27722   4.325   1.985   1.460  1.8644  1.6622 -1.6490
  968MOL0     H27723   4.209   2.166   1.393  2.1673 -0.8272  0.4674
  968MOL0     H27724   4.138   2.094   1.248 -1.2637  0.9856  0.8970
  968MOL0     H27725   4.418   2.205   1.305 -0.7960 -0.3074  2.1871
  968MOL0     H27726   4.415   2.062   1.199 -0.2334 -1.1278  0.6533
  968MOL0     H27727   4.292   2.341   1.174  1.2310  0.4500 -0.8719
  968MOL0     H27728   4.217   2.221   1.072  0.8684 -2.4683 -0.2534
  968MOL0     H27729   4.466   2.070   0.932  1.7827 -0.8004 -1.8196
  968MOL0     H27730   4.548   2.187   0.649  2.1540  0.0207 -1.5507
  968MOL0     H27731   4.654   2.102   0.750 -2.2266 -1.1786 -3.5594
  968MOL0     H27732   4.691   2.394   0.653 -1.5448 -0.6540  1.0243
  968MOL0     H27733   4.759   2.246   0.578  0.3098 -0.0814  0.1287
  968MOL0     H27734   4.830   2.320   0.857 -2.6242 -1.5632  0.1339
  968MOL0     H27735   4.901   2.196   0.755 -1.6650 -0.9052  1.3410
  968MOL0     H27736   5.004   2.443   0.804  0.9977 -0.8972  0.3059
  968MOL0     H27737   4.891   2.491   0.676  0.9595 -1.6620 -2.9898
  968MOL0     H27738   5.155   2.311   0.844 -2.4206  2.6994 -1.6546
  968MOL0     H27739   5.327   2.134   0.874  0.9818  2.8211  1.0660
  968MOL0     H27740   5.602   1.790   0.378 -1.2917  1.6375  2.1722
  968MOL0     H27741   5.768   1.632   0.373  1.1425  0.0096 -0.7581
  968MOL0     H27742   6.012   1.704   0.362  1.1043 -1.2828 -1.5860
  968MOL0     H27743   6.016   1.525   0.377 -0.8577  0.1506 -2.5280
  968MOL0     H27744   6.168   1.722   0.535 -4.0771  0.8179 -2.2371
  968MOL0     H27745   6.226   1.667   0.380  0.1228  1.4822  0.4754
  968MOL0     H27746   6.237   1.433   0.438 -1.5552 -1.9847  2.2459
  968MOL0     H27747   6.162   1.453   0.591  0.7247 -0.0367  0.5125
  968MOL0     H27748   6.449   1.485   0.510  2.1222  1.5528  0.8617
  968MOL0     H27749   6.382   1.605   0.631 -2.8951  0.3103 -1.5215
  968MOL0     H27750   6.344   1.309   0.647  1.4672 -1.3266 -1.8494
  968MOL0     H27751   6.339   1.435   0.783  1.8782  0.9905  1.5654
  968MOL0     H27752   6.532   1.445   0.825 -1.7140  1.5989 -0.4049
  968MOL0     H27753   6.607   1.387   0.667  0.4432 -1.8576 -0.2975
  968MOL0     H27754   6.444   1.217   0.866  0.0818  2.1131  1.3622
  968MOL0     H27755   6.512   1.152   0.720  0.7017 -0.9000  0.9938
  968MOL0     H27756   6.662   1.104   0.918  3.0874 -0.0360 -1.5170
  968MOL0     H27757   6.645   1.264   0.977 -3.3650 -2.1324 -0.0787
  968MOL0     H27758   5.932   1.787   0.745  0.3809  1.7055 -0.9575
  968MOL0     H27759   5.756   1.932   0.769 -0.4048 -0.3714  0.2256
  968MOL0     H27760   5.399   2.140   0.451  2.2202 -2.5597  2.0532
  968MOL0     H27761   5.189   2.298   0.430 -3.6014 -4.7446  0.5077
  968MOL0     H27762   3.812   1.898   1.967  0.6170 -0.0088 -0.6390
  968MOL0     H27763   3.592   1.972   2.070  2.3524 -1.8967  0.2152
  968MOL0     H27764   3.138   2.047   2.038 -0.4356  1.0568  3.6299
  968MOL0     H27765   2.961   2.184   2.155  2.0775 -0.6602  3.5386
  968MOL0     H27766   3.096   2.552   2.220 -1.0443 -0.8026 -1.5275
  968MOL0     H27767   3.044   2.414   2.321 -0.3369  0.3701  0.1691
  968MOL0     H27768   2.966   2.644   2.414  0.2238  0.0058 -0.2701
  968MOL0     H27769   2.876   2.656   2.254  0.6810  2.3071  1.3089
  968MOL0     H27770   2.761   2.604   2.471  1.5454  2.1861 -1.6786
  968MOL0     H27771   2.820   2.432   2.469 -1.6420 -0.3855  1.0894
  968MOL0     H27772   2.673   2.538   2.230 -0.5663  0.2919  1.0009
  968MOL0     H27773   2.737   2.380   2.247  1.1877  1.7789 -4.6375
  968MOL0     H27774   2.398   2.337   2.476 -0.6562  0.7390 -0.8776
  968MOL0     H27775   3.119   2.538   1.985 -2.4511 -0.5903 -3.8338
  968MOL0     H27776   3.293   2.389   1.862  2.9251 -2.9518  0.2612
  969MOL0     O27777   6.765   2.204   0.387 -1.1147 -0.1036  0.3667
  969MOL0     C27778   6.812   2.099   0.430  0.3103 -0.6724 -1.1042
  969MOL0     O27779   6.749   2.022   0.519  0.4661  0.5144 -0.0732
  969MOL0     C27780   6.617   2.045   0.556  0.2869 -0.1269 -0.0978
  969MOL0     C27781   6.525   2.109   0.466  0.4704  0.4703  0.2845
  969MOL0     C27782   6.404   2.145   0.499  0.4219  0.8964  0.3904
  969MOL0     C27783   6.361   2.131   0.638 -0.1562 -0.0689  0.3143
  969MOL0     O27784   6.244   2.167   0.689  0.6662 -0.2504 -0.1058
  969MOL0     C27785   6.136   2.140   0.596 -0.6650  0.9373 -0.1513
  969MOL0     C27786   6.008   2.111   0.668 -0.3099 -0.2687  0.4810
  969MOL0     C27787   5.976   2.226   0.753  0.9170 -0.0444  0.8838
  969MOL0     C27788   5.822   2.262   0.760 -0.2625  0.0732 -0.0322
  969MOL0     C27789   5.806   2.313   0.909 -0.2826  0.4875 -0.0499
  969MOL0     C27790   5.669   2.362   0.940 -0.4538 -0.0125  0.5378
  969MOL0     C27791   5.650   2.511   0.903  0.3524  0.1951 -0.4107
  969MOL0     C27792   5.715   2.608   1.001 -0.9850  0.5037 -1.2698
  969MOL0     N27793   5.693   2.750   0.989  0.0952  0.0875 -0.3735
  969MOL0     C27794   5.643   2.805   0.876  0.5221 -0.7233 -0.3717
  969MOL0     C27795   5.636   2.942   0.905  0.1233  0.3373 -0.1357
  969MOL0     C27796   5.602   3.051   0.805 -0.4801  0.5666  0.2640
  969MOL0     C27797   5.519   3.155   0.874  0.2731 -0.4124  0.4695
  969MOL0     C27798   5.480   3.268   0.779 -0.1492  0.8416  0.6809
  969MOL0     C27799   5.344   3.245   0.712  1.1276 -0.1883  0.1427
  969MOL0     O27800   5.242   3.221   0.804  0.4161  0.4422 -1.1286
  969MOL0     C27801   5.180   3.323   0.877  0.0188  0.6785 -0.5632
  969MOL0     C27802   5.215   3.457   0.863 -0.2532 -0.3247 -0.9559
  969MOL0     C27803   5.168   3.556   0.948  0.2435 -0.1498 -0.6919
  969MOL0     C27804   5.084   3.515   1.056  0.0126  0.3570 -0.8257
  969MOL0     C27805   5.053   3.618   1.168  0.0349  0.3579  0.0467
  969MOL0     O27806   5.074   3.750   1.143 -0.1076 -0.1883 -0.6106
  969MOL0     C27807   5.031   3.850   1.230  0.1492  0.4304 -0.9991
  969MOL0     C27808   4.907   3.860   1.299 -0.2396  0.1376 -0.3051
  969MOL0     C27809   4.870   3.975   1.359 -0.5685  0.5354 -0.1656
  969MOL0     C27810   4.949   4.084   1.360  0.2677  0.1329  0.4327
  969MOL0     O27811   4.891   4.201   1.416 -0.1895 -0.3526  0.1437
  969MOL0     C27812   4.907   4.197   1.555  0.3359  0.2781 -0.9324
  969MOL0     C27813   4.830   4.325   1.607 -0.2647  0.1945 -0.3450
  969MOL0     C27814   4.733   4.291   1.712 -0.3193  1.0228  0.4160
  969MOL0     C27815   4.628   4.398   1.709  0.1860 -0.6251 -0.5463
  969MOL0     C27816   4.528   4.390   1.825  0.4005  0.0251 -0.3595
  969MOL0     C27817   4.383   4.377   1.758  0.4997 -0.7754  0.2313
  969MOL0     C27818   4.340   4.503   1.693  0.4820 -0.5314  0.7209
  969MOL0     C27819   4.206   4.487   1.630  0.3737 -1.4067  0.8056
  969MOL0    Cl27820   4.078   4.556   1.712  0.3766  0.5763 -0.3728
  969MOL0     C27821   5.068   4.078   1.293 -0.4076  0.1715  0.7606
  969MOL0     C27822   5.115   3.962   1.225  0.4620 -1.1823  0.4946
  969MOL0     O27823   5.030   3.566   1.275 -0.6124 -0.6191  0.4103
  969MOL0     C27824   5.042   3.376   1.069 -0.3334 -0.4525  0.0789
  969MOL0     C27825   5.087   3.285   0.974 -0.9529  0.1461  0.0354
  969MOL0     N27826   5.672   2.961   1.042  0.4813 -0.6299 -0.1671
  969MOL0     N27827   5.706   2.844   1.091 -0.6597 -0.8175  0.5093
  969MOL0     C27828   6.454   2.081   0.730  0.8076 -0.1785 -0.5996
  969MOL0     C27829   6.575   2.030   0.686 -0.0314 -0.1031 -0.3030
  969MOL0     C27830   6.934   2.057   0.369  0.1998  0.7699  0.6658
  969MOL0     C27831   7.012   2.122   0.276  0.2709 -0.1620  0.7431
  969MOL0     C27832   7.131   2.061   0.229  0.0055 -0.6853 -0.7964
  969MOL0     C27833   7.176   1.947   0.282 -0.7409  0.6899  0.7841
  969MOL0     O27834   7.286   1.881   0.230 -0.2372 -0.6186  0.1667
  969MOL0     C27835   7.406   1.952   0.193  0.3542 -0.4771  0.0510
  969MOL0     C27836   7.461   2.045   0.302  0.4475  0.1827  0.0153
  969MOL0     C27837   7.557   1.961   0.397  0.1572 -0.0422 -0.1433
  969MOL0     C27838   7.484   1.856   0.490 -0.3222  0.3840  0.2556
  969MOL0     C27839   7.595   1.779   0.546 -0.2382  0.8709 -0.7627
  969MOL0     C27840   7.678   1.692   0.566 -0.1411 -0.0262 -0.6271
  969MOL0     C27841   7.099   1.883   0.374 -0.0755 -0.6269 -0.2290
  969MOL0     C27842   6.979   1.931   0.421  0.2593  0.0871 -0.1125
  969MOL0     H27843   6.546   2.114   0.360  0.9502 -3.0182  0.1053
  969MOL0     H27844   6.341   2.184   0.420 -1.7541  1.6295  2.3603
  969MOL0     H27845   6.165   2.053   0.535 -3.6375 -1.5323  1.6219
  969MOL0     H27846   6.134   2.232   0.537 -0.3391  2.7492  2.5294
  969MOL0     H27847   6.014   2.016   0.723 -2.2362 -3.5805 -4.2712
  969MOL0     H27848   5.940   2.092   0.584 -0.2760  4.9513 -1.0410
  969MOL0     H27849   6.025   2.317   0.717 -2.9905  1.2811 -1.8243
  969MOL0     H27850   6.014   2.192   0.849  2.2219 -0.0078  0.3943
  969MOL0     H27851   5.783   2.333   0.687  0.7193  0.6044 -0.0579
  969MOL0     H27852   5.758   2.174   0.747  1.0748 -0.9690  0.2136
  969MOL0     H27853   5.880   2.392   0.923  1.2666 -0.9508  0.2166
  969MOL0     H27854   5.839   2.226   0.966 -1.3401 -2.2015 -3.2028
  969MOL0     H27855   5.654   2.335   1.045  4.0063 -1.6127  0.9862
  969MOL0     H27856   5.599   2.309   0.875 -0.8254 -0.8724  1.5985
  969MOL0     H27857   5.678   2.523   0.798 -0.5812 -1.8690 -0.9453
  969MOL0     H27858   5.548   2.546   0.920  0.0994 -1.5077  2.0023
  969MOL0     H27859   5.821   2.598   0.978 -0.7542 -1.2497  0.3503
  969MOL0     H27860   5.696   2.574   1.103  2.4465 -0.5265 -0.8335
  969MOL0     H27861   5.626   2.765   0.777 -1.0507 -0.8421 -0.0862
  969MOL0     H27862   5.546   3.019   0.717 -0.7621  0.2464  0.5538
  969MOL0     H27863   5.696   3.098   0.774 -0.7635  0.6348 -0.4963
  969MOL0     H27864   5.580   3.211   0.945  2.0114  0.5298 -1.6514
  969MOL0     H27865   5.432   3.122   0.931 -1.5797 -0.2769 -2.1108
  969MOL0     H27866   5.480   3.367   0.826  0.3676  3.3262 -3.9370
  969MOL0     H27867   5.560   3.269   0.705 -3.5244 -0.3801 -3.3738
  969MOL0     H27868   5.364   3.150   0.661 -4.2214 -1.7020  0.2565
  969MOL0     H27869   5.302   3.321   0.646  1.1481 -1.1943 -1.0664
  969MOL0     H27870   5.287   3.498   0.793 -1.5946 -1.3382 -3.0341
  969MOL0     H27871   5.196   3.659   0.929  1.1241 -0.3200 -0.3739
  969MOL0     H27872   4.848   3.770   1.283 -0.3956  0.7543 -4.2145
  969MOL0     H27873   4.774   4.000   1.404 -0.1112  1.5135  0.2846
  969MOL0     H27874   5.013   4.208   1.580  0.9102 -1.8347 -2.1890
  969MOL0     H27875   4.862   4.106   1.594  0.7341  0.4423 -0.0604
  969MOL0     H27876   4.785   4.382   1.525 -2.4887 -2.0294 -0.7990
  969MOL0     H27877   4.906   4.395   1.643  0.2896 -0.7273  0.2920
  969MOL0     H27878   4.782   4.270   1.808  1.3503 -0.3891 -0.6852
  969MOL0     H27879   4.680   4.200   1.681  0.2111  1.0077 -0.4763
  969MOL0     H27880   4.673   4.497   1.701  0.8371 -0.9397 -0.8145
  969MOL0     H27881   4.583   4.387   1.610 -1.0011  2.1293 -0.3938
  969MOL0     H27882   4.549   4.474   1.892  0.0947 -0.0646 -0.1516
  969MOL0     H27883   4.544   4.295   1.877  0.3859  0.6186  0.7658
  969MOL0     H27884   4.302   4.350   1.826 -0.5326 -2.0265 -1.4083
  969MOL0     H27885   4.397   4.294   1.688 -0.3396  1.9768 -3.4729
  969MOL0     H27886   4.340   4.577   1.773  0.3550 -1.4676  1.6173
  969MOL0     H27887   4.414   4.537   1.621 -0.0953  0.6645  0.6710
  969MOL0     H27888   4.199   4.382   1.603  0.2355 -1.7323  2.0605
  969MOL0     H27889   4.217   4.536   1.533 -0.0620 -1.6538  0.6328
  969MOL0     H27890   5.112   4.176   1.300 -1.5165  0.9642 -2.0252
  969MOL0     H27891   5.212   3.962   1.176 -0.3235 -2.7746 -1.1411
  969MOL0     H27892   4.969   3.368   1.149  1.6054  2.8237  2.4491
  969MOL0     H27893   5.046   3.185   0.966  1.2081 -0.7253 -0.9389
  969MOL0     H27894   6.421   2.069   0.833 -0.0120 -1.5468 -0.9875
  969MOL0     H27895   6.641   2.002   0.768 -1.1134  0.6181  0.8590
  969MOL0     H27896   6.961   2.216   0.255  1.9517  0.6932  0.2771
  969MOL0     H27897   7.196   2.115   0.161  1.9749 -2.2284 -0.2232
  969MOL0     H27898   7.365   2.005   0.107  2.1120  1.2579  0.2119
  969MOL0     H27899   7.487   1.893   0.149  0.7502  0.1757 -0.1074
  969MOL0     H27900   7.513   2.118   0.240 -1.4980  1.8349  0.2105
  969MOL0     H27901   7.382   2.106   0.346 -1.2585 -1.1253 -1.0626
  969MOL0     H27902   7.621   2.023   0.460 -1.7951  1.0200  0.9073
  969MOL0     H27903   7.619   1.906   0.326  0.2800  1.4108 -1.2101
  969MOL0     H27904   7.420   1.892   0.572  2.1847 -1.5708  3.3268
  969MOL0     H27905   7.428   1.787   0.428 -0.1740  2.0510 -1.8746
  969MOL0     H27906   7.760   1.627   0.586 -1.1046 -1.5981 -1.5615
  969MOL0     H27907   7.133   1.793   0.424  0.9471  0.2398  0.6693
  969MOL0     H27908   6.917   1.879   0.494  0.2347  0.4613  0.1348
  970MOL0     O27909   6.510  10.760   8.003 -0.5867 -0.0170 -0.7435
  970MOL0     C27910   6.543  10.809   8.111  0.7132 -0.8576  0.3704
  970MOL0     O27911   6.670  10.852   8.141 -0.0291  0.5897 -0.2023
  970MOL0     C27912   6.774  10.872   8.049 -0.8461 -0.1981 -0.5450
  970MOL0     C27913   6.751  10.926   7.925 -0.3336 -0.1192 -0.4648
  970MOL0     C27914   6.851  10.978   7.840  0.1712  0.0445 -0.2022
  970MOL0     C27915   6.976  10.981   7.894 -0.0666  0.2062 -0.7750
  970MOL0     O27916   7.069  11.036   7.805  0.6223 -0.2802 -0.0610
  970MOL0     C27917   7.205  11.023   7.824  0.7006  1.4691 -0.0666
  970MOL0     C27918   7.278  11.144   7.877  0.1447 -0.3562 -0.2804
  970MOL0     C27919   7.383  11.105   7.976 -0.7502  0.4147 -0.5386
  970MOL0     C27920   7.450  11.226   8.034  0.1947 -0.0033 -1.3856
  970MOL0     C27921   7.363  11.325   8.128  0.4611 -0.2168 -1.0708
  970MOL0     C27922   7.349  11.476   8.055 -0.0357  1.0651  0.1630
  970MOL0     C27923   7.460  11.559   8.081 -0.4355 -0.1142  0.4509
  970MOL0     C27924   7.438  11.701   8.026  0.2108  0.6083  0.0750
  970MOL0     N27925   7.453  11.716   7.887 -0.2104 -0.1673 -0.3688
  970MOL0     C27926   7.474  11.838   7.821 -0.7080 -0.6960 -0.3363
  970MOL0     C27927   7.547  11.815   7.711 -0.1883  0.1340  1.3837
  970MOL0     C27928   7.602  11.917   7.620  0.2116 -0.9594  1.1474
  970MOL0     C27929   7.546  12.056   7.632 -0.1842 -0.1556  1.0630
  970MOL0     C27930   7.589  12.151   7.518 -0.5636 -0.6368 -0.2041
  970MOL0     C27931   7.506  12.283   7.510 -0.6224 -0.3033 -0.0083
  970MOL0     O27932   7.586  12.378   7.437  0.5804  0.3988  0.0765
  970MOL0     C27933   7.518  12.492   7.388  0.1308 -0.6418 -0.9072
  970MOL0     C27934   7.455  12.577   7.471 -0.0809 -0.3446  0.6606
  970MOL0     C27935   7.363  12.674   7.430  0.7272  0.8131 -0.7985
  970MOL0     C27936   7.324  12.686   7.300  0.4691 -0.1699 -0.0903
  970MOL0     C27937   7.220  12.776   7.250  1.1230  0.7903  0.2583
  970MOL0     O27938   7.184  12.885   7.326  0.0002  0.6228 -1.0963
  970MOL0     C27939   7.078  12.961   7.281 -0.0583  0.6857  0.4258
  970MOL0     C27940   7.109  13.098   7.245  0.4971 -0.4863  0.5515
  970MOL0     C27941   7.004  13.178   7.213 -0.7205 -0.5418  0.7691
  970MOL0     C27942   6.869  13.131   7.231  0.2925  0.5029 -0.0845
  970MOL0     O27943   6.772  13.219   7.189  0.4347  0.0034 -0.1930
  970MOL0     C27944   6.629  13.173   7.199  0.6620 -0.3020  0.4898
  970MOL0     C27945   6.533  13.297   7.171  0.1036 -0.3838  0.4138
  970MOL0     C27946   6.545  13.367   7.029 -0.6857  0.0836 -0.5130
  970MOL0     C27947   6.486  13.276   6.912 -0.7689  0.0179 -0.0114
  970MOL0     C27948   6.335  13.259   6.915  0.8929  1.0459 -0.2367
  970MOL0     C27949   6.272  13.202   6.777 -0.4878  0.5114 -0.1545
  970MOL0     C27950   6.134  13.262   6.780  0.0561  0.1821 -0.3764
  970MOL0     C27951   6.042  13.180   6.694  0.7769  0.7710 -0.5712
  970MOL0    Cl27952   6.055  13.223   6.522  0.0450 -0.5133 -0.3478
  970MOL0     C27953   6.843  12.999   7.273 -0.7137  0.4709 -0.6191
  970MOL0     C27954   6.945  12.920   7.304 -0.4129 -0.5175  0.7174
  970MOL0     O27955   7.156  12.734   7.149  0.6152  0.0388  0.1679
  970MOL0     C27956   7.392  12.598   7.208  0.5335 -0.3638  0.6990
  970MOL0     C27957   7.478  12.502   7.257 -0.0937  0.8208 -0.1478
  970MOL0     N27958   7.566  11.686   7.703 -0.0524  0.0788 -0.7088
  970MOL0     N27959   7.510  11.624   7.804 -0.0155 -0.8000  0.0832
  970MOL0     C27960   7.007  10.921   8.021  0.7689 -0.1448  0.4400
  970MOL0     C27961   6.910  10.874   8.099  0.5828  0.7209 -1.0573
  970MOL0     C27962   6.449  10.785   8.225  0.5874 -0.5899 -0.8003
  970MOL0     C27963   6.321  10.844   8.229 -0.4220 -0.2975 -0.3004
  970MOL0     C27964   6.248  10.838   8.346 -1.2919  0.3044  1.4379
  970MOL0     C27965   6.299  10.771   8.459 -0.7722  0.3905 -0.7213
  970MOL0     O27966   6.239  10.791   8.582  0.3851  0.2382  0.3053
  970MOL0     C27967   6.123  10.707   8.588  0.9071 -0.2279 -0.9605
  970MOL0     C27968   6.096  10.691   8.739  0.5693 -0.9081  0.4325
  970MOL0     C27969   5.982  10.589   8.766 -0.8527 -0.7437 -0.3120
  970MOL0     C27970   5.961  10.587   8.913 -0.8988 -0.8790 -0.8538
  970MOL0     C27971   6.042  10.489   8.981 -0.1908  0.1977 -0.6373
  970MOL0     C27972   6.115  10.409   9.026 -0.9527  0.4114 -0.6963
  970MOL0     C27973   6.429  10.728   8.460 -0.1916  0.7830  0.2958
  970MOL0     C27974   6.508  10.729   8.345  0.0200  0.2781  0.5022
  970MOL0     H27975   6.647  10.916   7.893 -1.4951 -3.1162  3.3790
  970MOL0     H27976   6.826  11.020   7.743 -1.1942 -0.4887 -0.1122
  970MOL0     H27977   7.250  11.003   7.726 -0.1894  1.8308 -0.5627
  970MOL0     H27978   7.232  10.930   7.874  0.3481  0.3585 -1.8178
  970MOL0     H27979   7.211  11.208   7.935  1.3398 -2.2280  3.4678
  970MOL0     H27980   7.334  11.198   7.800  2.7703 -0.4283  1.4506
  970MOL0     H27981   7.458  11.041   7.928  0.1908 -1.9925  3.6220
  970MOL0     H27982   7.338  11.051   8.059  0.0814 -4.5001 -2.9311
  970MOL0     H27983   7.520  11.173   8.100 -1.9491  0.6687  1.6517
  970MOL0     H27984   7.497  11.283   7.954  1.9574 -2.5378 -2.2978
  970MOL0     H27985   7.411  11.337   8.226 -2.1384 -0.1648  0.2659
  970MOL0     H27986   7.266  11.285   8.158  2.8728 -4.8225  1.6454
  970MOL0     H27987   7.256  11.513   8.099  1.0365 -0.1983  3.9019
  970MOL0     H27988   7.330  11.467   7.947  3.7119 -0.6763 -0.5323
  970MOL0     H27989   7.496  11.560   8.184  2.2937  3.9974 -0.2938
  970MOL0     H27990   7.544  11.509   8.031 -1.2626 -3.4661  2.1599
  970MOL0     H27991   7.526  11.762   8.048  2.3255 -1.1480 -2.8626
  970MOL0     H27992   7.350  11.749   8.070 -0.4706  0.8783 -1.5009
  970MOL0     H27993   7.442  11.934   7.859  0.8753 -0.7969  1.4724
  970MOL0     H27994   7.581  11.880   7.519 -0.9486 -0.3523  1.1466
  970MOL0     H27995   7.711  11.912   7.624  0.3215  0.1190  0.0155
  970MOL0     H27996   7.589  12.088   7.727  3.5894 -0.5552 -0.3708
  970MOL0     H27997   7.436  12.055   7.630 -0.2745  2.3687  1.2655
  970MOL0     H27998   7.695  12.175   7.533 -1.3122  3.0779  0.1995
  970MOL0     H27999   7.578  12.098   7.423  0.1463 -0.0352 -0.6339
  970MOL0     H28000   7.478  12.312   7.611 -0.4025 -4.9968  1.6504
  970MOL0     H28001   7.410  12.254   7.466 -1.3090 -0.0339  1.2709
  970MOL0     H28002   7.481  12.573   7.577 -0.6617 -3.0052  0.7872
  970MOL0     H28003   7.316  12.736   7.505 -0.7480 -2.7497  1.4402
  970MOL0     H28004   7.212  13.129   7.238 -0.3370  3.3023  2.3665
  970MOL0     H28005   7.012  13.270   7.157  0.6669 -0.8060  0.5073
  970MOL0     H28006   6.611  13.130   7.297 -2.4963 -1.0951 -0.3062
  970MOL0     H28007   6.599  13.093   7.130 -2.7295  0.5784  0.7522
  970MOL0     H28008   6.558  13.370   7.247  0.3977 -1.2067  1.1226
  970MOL0     H28009   6.432  13.262   7.194 -0.3596  1.3322  1.1000
  970MOL0     H28010   6.646  13.380   6.988 -1.4296 -1.8581 -3.2636
  970MOL0     H28011   6.498  13.466   7.031  0.6385  0.7344 -0.5294
  970MOL0     H28012   6.509  13.317   6.813  0.6121 -0.8096 -0.0559
  970MOL0     H28013   6.546  13.186   6.928  2.3013  1.8685 -0.1287
  970MOL0     H28014   6.288  13.358   6.922  0.3732  0.7597  0.4462
  970MOL0     H28015   6.303  13.203   7.004  0.4967  2.4979  0.5626
  970MOL0     H28016   6.288  13.094   6.777  0.0331  0.5783  0.3928
  970MOL0     H28017   6.325  13.250   6.695  1.1119 -1.1159 -0.1276
  970MOL0     H28018   6.106  13.263   6.886  1.6285  2.1761  0.0801
  970MOL0     H28019   6.141  13.366   6.745  1.8353  0.6603  1.1754
  970MOL0     H28020   5.941  13.208   6.724  0.5928 -0.5691  0.1163
  970MOL0     H28021   6.054  13.072   6.707 -0.4755  0.6194 -0.5218
  970MOL0     H28022   6.751  12.951   7.302 -0.5577 -0.0160 -0.9195
  970MOL0     H28023   6.941  12.823   7.353  0.7712 -0.9586 -0.0258
  970MOL0     H28024   7.383  12.602   7.100 -0.5417  3.7111  0.7660
  970MOL0     H28025   7.506  12.415   7.198 -1.5596 -0.2466  0.6542
  970MOL0     H28026   7.112  10.910   8.044  2.5271 -0.6378 -5.9368
  970MOL0     H28027   6.928  10.835   8.199  2.9350  2.1365 -0.8593
  970MOL0     H28028   6.265  10.873   8.142 -2.1035 -1.5208  0.3191
  970MOL0     H28029   6.149  10.882   8.347 -1.0822  1.0951 -1.4992
  970MOL0     H28030   6.133  10.613   8.532 -2.4742  1.3104 -4.7075
  970MOL0     H28031   6.039  10.754   8.536  0.0988 -0.7256 -0.1223
  970MOL0     H28032   6.189  10.664   8.791  1.0237  0.6774  0.4972
  970MOL0     H28033   6.076  10.788   8.784 -0.2028 -0.4048 -0.9330
  970MOL0     H28034   6.000  10.487   8.730  0.6810  0.1449 -2.2483
  970MOL0     H28035   5.892  10.628   8.717  0.0872  0.5270 -1.0957
  970MOL0     H28036   5.960  10.680   8.969  2.0824 -1.6711  0.7174
  970MOL0     H28037   5.861  10.545   8.927 -0.2832 -2.2769 -0.3903
  970MOL0     H28038   6.182  10.346   9.081 -2.4427 -0.4976  0.1416
  970MOL0     H28039   6.465  10.672   8.546  0.5177  0.5486 -0.1431
  970MOL0     H28040   6.607  10.686   8.357 -0.2012 -0.3128  0.2338
  971MOL0     O28041   5.317   6.547   6.427  1.3029 -0.1624  0.5167
  971MOL0     C28042   5.216   6.545   6.358  0.2652 -0.5517 -0.4065
  971MOL0     O28043   5.089   6.501   6.396 -0.5189  0.0943 -0.0137
  971MOL0     C28044   5.077   6.454   6.524  0.4952 -0.7483  0.8214
  971MOL0     C28045   4.990   6.520   6.613 -0.2919  0.5374  0.1438
  971MOL0     C28046   4.979   6.469   6.743  0.0358  0.3511 -0.7825
  971MOL0     C28047   5.050   6.353   6.783 -0.0027  0.6789  0.2289
  971MOL0     O28048   5.021   6.302   6.907  0.0978  0.4250 -0.1066
  971MOL0     C28049   4.970   6.166   6.912  0.3479 -0.0727  0.9628
  971MOL0     C28050   4.822   6.168   6.864  0.9549  0.0415  1.5024
  971MOL0     C28051   4.781   6.020   6.848 -0.8671 -0.5995 -0.1462
  971MOL0     C28052   4.633   6.001   6.840  1.2893  0.0745  0.2037
  971MOL0     C28053   4.588   5.864   6.790 -0.2271  0.0434  0.6452
  971MOL0     C28054   4.439   5.839   6.831 -0.3885 -0.3861 -0.5186
  971MOL0     C28055   4.370   5.731   6.753 -0.3727  0.1205  0.2682
  971MOL0     C28056   4.431   5.595   6.789  0.7011 -0.0308  0.4584
  971MOL0     N28057   4.329   5.494   6.758  0.8964 -0.1980 -0.4233
  971MOL0     C28058   4.200   5.494   6.809  0.3659  0.1067  0.9302
  971MOL0     C28059   4.148   5.385   6.746 -0.4203  0.1647  0.2888
  971MOL0     C28060   4.024   5.319   6.791  0.8651  0.2249  1.0177
  971MOL0     C28061   3.901   5.347   6.709 -0.2156  0.5248 -0.1858
  971MOL0     C28062   3.868   5.498   6.702 -0.0719 -0.5190  0.5851
  971MOL0     C28063   3.855   5.570   6.832 -0.5222  0.0989 -0.0046
  971MOL0     O28064   3.791   5.481   6.925 -0.0627 -1.2530 -0.0841
  971MOL0     C28065   3.655   5.449   6.903 -0.4489  0.2157  0.2734
  971MOL0     C28066   3.603   5.340   6.968 -0.3353 -0.1224 -0.1589
  971MOL0     C28067   3.467   5.314   6.979 -0.8818 -0.0701  0.1392
  971MOL0     C28068   3.375   5.393   6.919  0.7513  0.1766  0.3575
  971MOL0     C28069   3.228   5.378   6.926 -0.3439 -0.1787  0.6691
  971MOL0     O28070   3.151   5.452   6.843 -0.3909  0.7713  0.4765
  971MOL0     C28071   3.015   5.451   6.853 -0.4833  0.9265 -0.4635
  971MOL0     C28072   2.950   5.437   6.735 -0.3160  0.4702  0.4091
  971MOL0     C28073   2.813   5.456   6.723 -0.2371 -1.2050  0.7361
  971MOL0     C28074   2.736   5.492   6.835 -0.4201 -1.3419  0.0531
  971MOL0     O28075   2.599   5.532   6.822 -0.1841  0.0184  0.6350
  971MOL0     C28076   2.552   5.598   6.702  0.5519  0.2014  0.8382
  971MOL0     C28077   2.398   5.569   6.680 -0.9279 -0.6817  0.1668
  971MOL0     C28078   2.310   5.664   6.757 -0.2218 -0.7050 -0.3412
  971MOL0     C28079   2.336   5.647   6.907 -0.5286 -0.6415  0.3874
  971MOL0     C28080   2.205   5.666   6.975  1.0605 -0.2273 -1.2613
  971MOL0     C28081   2.226   5.646   7.131  0.2640  0.9071 -0.2580
  971MOL0     C28082   2.118   5.721   7.222  0.0872  0.1588 -0.0281
  971MOL0     C28083   2.142   5.700   7.366 -0.3018 -0.5141 -0.3234
  971MOL0    Cl28084   2.308   5.751   7.419  0.2234 -0.9277  0.1188
  971MOL0     C28085   2.804   5.502   6.962  0.2732 -0.0474  1.1328
  971MOL0     C28086   2.947   5.488   6.964  0.2110 -1.0114  0.6139
  971MOL0     O28087   3.185   5.311   7.021  0.1104 -0.2595 -0.2221
  971MOL0     C28088   3.419   5.496   6.843 -0.8937 -0.6699  0.8538
  971MOL0     C28089   3.553   5.535   6.849  0.0935  0.1000 -0.1270
  971MOL0     N28090   4.243   5.327   6.667 -0.3001 -0.0390  0.3333
  971MOL0     N28091   4.353   5.390   6.676  0.1612  1.1558  0.3346
  971MOL0     C28092   5.132   6.287   6.691 -0.0228 -0.4067 -0.0861
  971MOL0     C28093   5.146   6.341   6.560 -0.4089 -0.4171 -0.7980
  971MOL0     C28094   5.237   6.584   6.213 -0.3849 -0.0917 -0.4003
  971MOL0     C28095   5.141   6.542   6.120 -0.5793 -0.0524 -0.8509
  971MOL0     C28096   5.146   6.585   5.983  0.2387  0.2846 -0.4621
  971MOL0     C28097   5.263   6.651   5.947  0.0682 -0.2867  0.3555
  971MOL0     O28098   5.282   6.693   5.818 -0.4563  0.1765  0.1037
  971MOL0     C28099   5.181   6.670   5.715  0.3201  0.4368  1.6490
  971MOL0     C28100   5.243   6.691   5.575  0.2849  0.2851  0.6437
  971MOL0     C28101   5.282   6.837   5.542  0.4379 -0.5650 -0.5234
  971MOL0     C28102   5.329   6.875   5.395 -0.4623  0.1626  0.4945
  971MOL0     C28103   5.444   6.792   5.356 -0.6363  0.4962 -1.0581
  971MOL0     C28104   5.528   6.722   5.304  0.5138  0.5066 -0.5839
  971MOL0     C28105   5.367   6.682   6.037 -0.3979  0.4641  0.8709
  971MOL0     C28106   5.347   6.665   6.172 -0.2478  0.5424  0.6608
  971MOL0     H28107   4.936   6.607   6.576 -0.8480 -0.5392 -1.6586
  971MOL0     H28108   4.926   6.537   6.809  1.7992 -0.3005  1.4434
  971MOL0     H28109   4.969   6.128   7.014  3.6542 -2.6590  0.2261
  971MOL0     H28110   5.041   6.094   6.869  2.4594  0.8280  2.7308
  971MOL0     H28111   4.821   6.209   6.763 -1.9408 -0.0999  1.4131
  971MOL0     H28112   4.765   6.228   6.934  1.7582  1.7586  0.7471
  971MOL0     H28113   4.810   5.946   6.923 -1.6289 -1.8157 -1.0183
  971MOL0     H28114   4.823   5.988   6.752  1.6717  2.4035 -0.1990
  971MOL0     H28115   4.583   6.017   6.936 -0.4033  1.5829 -0.8533
  971MOL0     H28116   4.599   6.078   6.769  3.9437  1.6481  0.4887
  971MOL0     H28117   4.651   5.791   6.842  1.3524  2.1290  1.8027
  971MOL0     H28118   4.613   5.848   6.684 -2.2806  1.4011 -0.0946
  971MOL0     H28119   4.383   5.932   6.815  2.3662  1.5406  0.2923
  971MOL0     H28120   4.445   5.815   6.937  2.5252  3.0490  0.2681
  971MOL0     H28121   4.266   5.733   6.786 -0.4714 -3.1636  0.5148
  971MOL0     H28122   4.365   5.749   6.645 -1.3650 -2.1965 -0.1513
  971MOL0     H28123   4.460   5.581   6.894  1.4298  0.7297  0.3771
  971MOL0     H28124   4.514   5.576   6.720  0.3900  1.1936 -0.2889
  971MOL0     H28125   4.160   5.560   6.886  0.1220  0.9539  0.1035
  971MOL0     H28126   4.006   5.358   6.892 -0.1092 -0.6135  1.1808
  971MOL0     H28127   4.037   5.211   6.790  0.7625  0.2118  0.0621
  971MOL0     H28128   3.817   5.303   6.763 -2.0772  0.8110 -2.6526
  971MOL0     H28129   3.908   5.296   6.612  2.1935  1.2213 -0.4434
  971MOL0     H28130   3.932   5.556   6.636 -0.6342 -1.6604 -1.0455
  971MOL0     H28131   3.770   5.508   6.654  1.1934  1.8303 -1.7574
  971MOL0     H28132   3.807   5.668   6.821  0.9228  0.8334 -0.0399
  971MOL0     H28133   3.958   5.586   6.865  0.3989 -0.6700 -2.3069
  971MOL0     H28134   3.680   5.285   7.023  0.5253  1.6832  0.5287
  971MOL0     H28135   3.436   5.250   7.062 -0.9524  1.0203  0.9778
  971MOL0     H28136   3.006   5.404   6.648  1.0946 -1.4131  1.9386
  971MOL0     H28137   2.775   5.430   6.624  0.8201 -1.8042  0.4675
  971MOL0     H28138   2.610   5.590   6.609 -0.6399  1.2122 -0.0407
  971MOL0     H28139   2.564   5.705   6.721 -2.0010  1.1423 -1.9498
  971MOL0     H28140   2.374   5.467   6.710  1.0326 -0.9750  0.8735
  971MOL0     H28141   2.382   5.587   6.573  1.5028 -0.0937 -0.1761
  971MOL0     H28142   2.202   5.658   6.737  0.0253 -1.7383 -1.5182
  971MOL0     H28143   2.329   5.769   6.734 -1.7495 -0.3595 -0.1941
  971MOL0     H28144   2.382   5.550   6.925  1.5003 -0.6867 -3.8781
  971MOL0     H28145   2.402   5.726   6.945  0.4581 -1.0942 -0.3420
  971MOL0     H28146   2.125   5.606   6.932  0.3082 -1.0634  1.1330
  971MOL0     H28147   2.179   5.771   6.961  2.1032 -0.1060 -2.4790
  971MOL0     H28148   2.330   5.665   7.158  1.1878 -2.5983 -0.9780
  971MOL0     H28149   2.210   5.545   7.169  2.9348  1.1464  1.8462
  971MOL0     H28150   2.123   5.827   7.199 -1.0608 -0.4811 -4.0838
  971MOL0     H28151   2.017   5.685   7.198  0.0592  0.8329 -0.9957
  971MOL0     H28152   2.136   5.595   7.396  3.2086 -0.4531  1.1698
  971MOL0     H28153   2.059   5.739   7.425  0.1271 -0.6488  0.3901
  971MOL0     H28154   2.752   5.535   7.052  2.0225  3.0806  1.1247
  971MOL0     H28155   3.009   5.510   7.050 -0.3477  1.8622  0.3947
  971MOL0     H28156   3.350   5.563   6.793 -0.7989 -0.3467  1.1554
  971MOL0     H28157   3.575   5.638   6.820 -1.8372  0.7087  0.3846
  971MOL0     H28158   5.196   6.208   6.730  0.7208 -0.6551 -1.7292
  971MOL0     H28159   5.221   6.294   6.498  2.0113  2.9431 -0.6737
  971MOL0     H28160   5.055   6.483   6.151  0.3097 -1.2579 -0.5918
  971MOL0     H28161   5.060   6.576   5.918 -0.1083  0.5903 -0.0478
  971MOL0     H28162   5.108   6.749   5.734 -1.7944 -0.6126 -1.3826
  971MOL0     H28163   5.131   6.573   5.718  0.6119  0.1954 -0.4127
  971MOL0     H28164   5.327   6.623   5.560 -1.6474 -1.6978 -2.2484
  971MOL0     H28165   5.173   6.658   5.498 -0.0825  1.4258  0.4712
  971MOL0     H28166   5.379   6.851   5.592  2.7113 -0.0723 -4.6628
  971MOL0     H28167   5.208   6.903   5.587 -0.4535 -1.3254 -0.8347
  971MOL0     H28168   5.249   6.860   5.322  0.7815  1.4251 -1.2324
  971MOL0     H28169   5.360   6.980   5.404  0.9416 -0.1856  0.0262
  971MOL0     H28170   5.608   6.671   5.256  1.9788  0.7130  1.5088
  971MOL0     H28171   5.464   6.722   6.010 -0.5622  0.5411  0.3937
  971MOL0     H28172   5.431   6.708   6.226  2.6438 -2.6029 -0.9412
  972MOL0     O28173   7.824   2.902   6.144  0.0272  0.1045  0.0260
  972MOL0     C28174   7.811   2.944   6.030  0.3669  0.0125  0.1971
  972MOL0     O28175   7.826   3.077   5.994 -0.0737  0.0789 -0.6477
  972MOL0     C28176   7.834   3.157   6.105 -0.0273 -0.2989 -0.2229
  972MOL0     C28177   7.936   3.156   6.199 -0.5690 -0.1143 -0.6123
  972MOL0     C28178   7.933   3.259   6.298  0.4559  0.1386  0.3090
  972MOL0     C28179   7.844   3.371   6.294  0.2902  0.3405 -1.4650
  972MOL0     O28180   7.860   3.467   6.391  0.5208 -0.2793 -0.1670
  972MOL0     C28181   7.818   3.605   6.379  0.3405 -0.0801 -0.5231
  972MOL0     C28182   7.833   3.680   6.512  0.2652 -0.2948 -0.3681
  972MOL0     C28183   7.983   3.698   6.564 -0.8838 -0.1270  0.9629
  972MOL0     C28184   8.063   3.773   6.457  0.2613 -1.0542 -1.0633
  972MOL0     C28185   8.211   3.801   6.500 -0.2238  0.4738  0.3165
  972MOL0     C28186   8.288   3.668   6.518 -0.3561 -0.2073  0.3819
  972MOL0     C28187   8.300   3.609   6.375 -0.2385 -0.9866 -0.2102
  972MOL0     C28188   8.419   3.528   6.357 -0.1525  0.1139 -0.8562
  972MOL0     N28189   8.422   3.457   6.230 -0.3429 -0.0045 -0.9314
  972MOL0     C28190   8.399   3.326   6.207  1.1850  0.2561  0.1365
  972MOL0     C28191   8.411   3.317   6.074 -0.1613 -0.2384  0.1399
  972MOL0     C28192   8.371   3.193   6.010 -0.6961  0.0476  0.9712
  972MOL0     C28193   8.481   3.084   6.028 -0.1457  1.1454 -0.2046
  972MOL0     C28194   8.443   2.954   5.966 -0.1380  0.8375 -0.0428
  972MOL0     C28195   8.555   2.849   5.940 -0.3167 -0.9508 -0.4804
  972MOL0     O28196   8.505   2.717   5.957  0.4186 -0.8330 -0.0001
  972MOL0     C28197   8.596   2.614   5.931 -0.0420  0.1445 -0.2196
  972MOL0     C28198   8.735   2.625   5.915  0.3889 -0.5273  0.4236
  972MOL0     C28199   8.822   2.513   5.928  0.5545 -0.1656  0.4792
  972MOL0     C28200   8.759   2.375   5.932 -0.9538  0.4136  0.4545
  972MOL0     C28201   8.852   2.258   5.923 -0.1265  0.1826  0.0077
  972MOL0     O28202   8.976   2.281   5.882 -0.0782 -0.6709 -0.5437
  972MOL0     C28203   9.069   2.185   5.861  0.3485 -0.2971 -0.4901
  972MOL0     C28204   9.051   2.062   5.803 -0.1065 -0.0264  0.2270
  972MOL0     C28205   9.155   1.961   5.783  0.0711  0.3475 -0.4267
  972MOL0     C28206   9.281   2.003   5.830 -0.1247  0.9679  0.1192
  972MOL0     O28207   9.386   1.910   5.830  0.1391  0.5931 -1.0154
  972MOL0     C28208   9.341   1.783   5.887 -0.6704  0.1643 -0.0009
  972MOL0     C28209   9.455   1.698   5.946 -0.5306  0.5719 -0.0540
  972MOL0     C28210   9.419   1.548   5.951  0.8213 -0.0052 -0.6283
  972MOL0     C28211   9.312   1.512   6.066  0.2068  0.4951  0.0223
  972MOL0     C28212   9.245   1.378   6.042 -1.1344  0.6372 -0.1396
  972MOL0     C28213   9.354   1.264   6.069  0.5281 -0.4356  0.5444
  972MOL0     C28214   9.286   1.134   6.029  0.3637 -0.0569 -0.3660
  972MOL0     C28215   9.386   1.018   6.019 -0.0968 -0.5691 -0.3163
  972MOL0    Cl28216   9.472   1.034   5.865 -0.0802 -0.0196  0.4900
  972MOL0     C28217   9.307   2.135   5.878 -0.5361 -0.6148 -0.2777
  972MOL0     C28218   9.197   2.214   5.905 -0.1469 -0.0532  0.3336
  972MOL0     O28219   8.806   2.152   5.959 -0.2892  0.4978 -0.3245
  972MOL0     C28220   8.619   2.366   5.932  0.1837  1.0995 -0.3142
  972MOL0     C28221   8.544   2.482   5.933 -0.3848 -0.5560 -0.0551
  972MOL0     N28222   8.449   3.429   6.010 -0.5926  0.0989  0.0029
  972MOL0     N28223   8.453   3.511   6.105  0.1962 -1.3475 -0.4679
  972MOL0     C28224   7.737   3.354   6.209 -0.4478  0.0574  0.1887
  972MOL0     C28225   7.738   3.257   6.108  0.4600 -0.4846  0.3891
  972MOL0     C28226   7.771   2.842   5.926 -0.9718  0.6012 -0.5943
  972MOL0     C28227   7.806   2.702   5.956  0.2281 -0.6708  0.5911
  972MOL0     C28228   7.786   2.602   5.855  0.7966  0.6132  0.0146
  972MOL0     C28229   7.732   2.640   5.727 -0.2091  0.0222  0.5740
  972MOL0     O28230   7.716   2.552   5.620 -0.0936 -0.2199  0.2698
  972MOL0     C28231   7.620   2.454   5.637 -0.7116  0.4298  0.2951
  972MOL0     C28232   7.679   2.323   5.656 -0.8908  0.8332 -0.4585
  972MOL0     C28233   7.576   2.227   5.721  0.4375  1.0514 -0.3889
  972MOL0     C28234   7.446   2.214   5.639 -0.8459 -0.6984  0.6884
  972MOL0     C28235   7.466   2.168   5.506  0.2106 -0.3562  0.9592
  972MOL0     C28236   7.469   2.113   5.398  0.7990  0.0456  0.6200
  972MOL0     C28237   7.699   2.771   5.705 -0.0230  0.1032  0.1060
  972MOL0     C28238   7.715   2.871   5.801 -0.1781  0.8110  0.0410
  972MOL0     H28239   8.019   3.088   6.211 -1.8013 -1.5124  0.3563
  972MOL0     H28240   8.007   3.248   6.376 -0.7781 -0.1066  1.4887
  972MOL0     H28241   7.714   3.612   6.345  0.6357 -1.8625 -1.9843
  972MOL0     H28242   7.876   3.652   6.300  1.7106  1.8413  1.4945
  972MOL0     H28243   7.763   3.649   6.591 -0.0103  0.7191 -0.2022
  972MOL0     H28244   7.800   3.778   6.477 -1.6918 -0.9596 -0.5338
  972MOL0     H28245   8.027   3.600   6.585 -2.6206 -1.0324  0.5730
  972MOL0     H28246   7.985   3.755   6.657  0.7600  1.1180  0.2081
  972MOL0     H28247   8.077   3.723   6.361  3.0377  2.8408 -2.9498
  972MOL0     H28248   8.000   3.858   6.428 -2.5143 -1.8516  1.9937
  972MOL0     H28249   8.231   3.879   6.574  2.8540  2.4015 -2.3189
  972MOL0     H28250   8.257   3.850   6.414 -2.0884 -1.5667 -1.9968
  972MOL0     H28251   8.236   3.599   6.585 -2.7198 -0.5725 -1.6742
  972MOL0     H28252   8.387   3.686   6.559  0.7106 -4.3252  0.0805
  972MOL0     H28253   8.203   3.565   6.348 -0.3158  0.7549 -3.1802
  972MOL0     H28254   8.313   3.690   6.303  0.1680  0.9098  1.9003
  972MOL0     H28255   8.444   3.459   6.438  2.3680  2.2531  0.3393
  972MOL0     H28256   8.504   3.595   6.344  0.7335 -0.4654  1.4828
  972MOL0     H28257   8.380   3.238   6.267  0.9636  0.3338  0.1802
  972MOL0     H28258   8.353   3.215   5.905  1.4242  2.7522  1.0493
  972MOL0     H28259   8.275   3.166   6.055 -1.7303  2.5728  0.4541
  972MOL0     H28260   8.474   3.090   6.138  1.6881  0.2920 -0.0111
  972MOL0     H28261   8.564   3.141   5.986 -1.7895  3.2615 -0.7466
  972MOL0     H28262   8.362   2.907   6.022 -0.5095  2.0022  0.4157
  972MOL0     H28263   8.392   2.975   5.872  1.6949  0.8515 -1.0810
  972MOL0     H28264   8.622   2.869   6.024 -0.6506 -1.5098 -0.0729
  972MOL0     H28265   8.607   2.863   5.844  0.2163 -4.3526 -0.8199
  972MOL0     H28266   8.768   2.726   5.892  1.5003 -0.6747  1.2481
  972MOL0     H28267   8.928   2.530   5.919  0.8735 -2.7532 -4.7017
  972MOL0     H28268   8.952   2.034   5.769  1.1923 -2.7300 -1.6982
  972MOL0     H28269   9.130   1.865   5.740  1.0960 -2.1143  3.9524
  972MOL0     H28270   9.287   1.731   5.807 -0.1280 -2.6509  1.3358
  972MOL0     H28271   9.265   1.800   5.965 -0.7713 -1.4040  0.2729
  972MOL0     H28272   9.482   1.740   6.043  1.0410  0.5956 -0.4846
  972MOL0     H28273   9.541   1.711   5.880 -1.6855  2.1047 -1.3231
  972MOL0     H28274   9.510   1.497   5.983  1.4400  0.9900 -0.7502
  972MOL0     H28275   9.397   1.510   5.851  0.9778 -0.9633 -0.3028
  972MOL0     H28276   9.346   1.522   6.170  3.4326 -1.3198 -0.7369
  972MOL0     H28277   9.230   1.583   6.053  0.7899  1.0119 -0.9456
  972MOL0     H28278   9.204   1.387   5.941 -0.6563 -0.5299 -0.4521
  972MOL0     H28279   9.158   1.350   6.103 -0.0148 -1.9837  0.3597
  972MOL0     H28280   9.384   1.261   6.174 -1.6946 -4.4317  1.2653
  972MOL0     H28281   9.444   1.287   6.011  0.4524  2.3416  1.3882
  972MOL0     H28282   9.223   1.108   6.115 -1.3963 -0.0722 -1.6094
  972MOL0     H28283   9.225   1.155   5.941 -0.7818  2.3585  0.9031
  972MOL0     H28284   9.349   0.915   6.028  1.7905 -1.4791 -2.1829
  972MOL0     H28285   9.450   1.028   6.107  0.0443 -1.4971 -0.3067
  972MOL0     H28286   9.405   2.171   5.907 -0.3594 -1.5580  0.3558
  972MOL0     H28287   9.216   2.306   5.960  1.8504 -0.5210  0.4901
  972MOL0     H28288   8.573   2.268   5.939  1.4064  0.6245  2.5190
  972MOL0     H28289   8.436   2.485   5.944 -0.3494 -1.8547  0.7725
  972MOL0     H28290   7.657   3.426   6.221  0.2120  0.6045  1.4210
  972MOL0     H28291   7.651   3.252   6.043  0.7181  2.9588 -0.4014
  972MOL0     H28292   7.843   2.677   6.055  2.3119  1.2711  0.4006
  972MOL0     H28293   7.803   2.499   5.887 -3.4212  0.0425  0.9343
  972MOL0     H28294   7.563   2.449   5.544  2.3403 -1.8974 -1.6159
  972MOL0     H28295   7.554   2.467   5.724 -0.7546  1.7132  0.0828
  972MOL0     H28296   7.728   2.275   5.571  2.0612  1.0093  0.9921
  972MOL0     H28297   7.765   2.330   5.724 -0.1948  1.7881 -1.3839
  972MOL0     H28298   7.552   2.263   5.822  1.0611 -0.4862  0.3398
  972MOL0     H28299   7.628   2.135   5.746 -0.1885  0.1585 -2.2194
  972MOL0     H28300   7.366   2.156   5.686 -4.3735  0.3875 -3.3186
  972MOL0     H28301   7.393   2.310   5.634  0.2310 -0.0491  1.2763
  972MOL0     H28302   7.466   2.058   5.306 -1.4086 -1.7822  1.6906
  972MOL0     H28303   7.667   2.806   5.608  0.9377 -0.1529 -0.3153
  972MOL0     H28304   7.687   2.969   5.765 -4.4224 -1.2689 -3.1629
  973MOL0     O28305   5.111   2.307   6.375 -0.0865  0.0203  0.6915
  973MOL0     C28306   5.159   2.371   6.459  0.4911  0.2823 -0.0102
  973MOL0     O28307   5.156   2.330   6.591 -0.1744  0.2643  0.1189
  973MOL0     C28308   5.092   2.221   6.637 -0.2949 -0.5148 -0.0922
  973MOL0     C28309   4.966   2.198   6.587 -0.1990 -1.4471 -0.3522
  973MOL0     C28310   4.892   2.081   6.621 -0.8706 -0.5982  0.8238
  973MOL0     C28311   4.938   1.997   6.722 -0.6440 -1.0094 -0.2244
  973MOL0     O28312   4.868   1.891   6.775 -0.3085 -0.2109 -0.0123
  973MOL0     C28313   4.736   1.858   6.716 -0.9882 -0.0740  0.6465
  973MOL0     C28314   4.673   1.770   6.815 -0.0699 -0.0594 -0.2632
  973MOL0     C28315   4.688   1.812   6.963  0.7535 -0.3254  0.8382
  973MOL0     C28316   4.572   1.781   7.058  0.3266 -0.0773  1.0634
  973MOL0     C28317   4.595   1.807   7.205 -0.1360 -0.0695  0.5163
  973MOL0     C28318   4.477   1.792   7.299 -0.3528  0.0992 -1.4360
  973MOL0     C28319   4.508   1.776   7.448 -0.1077  0.2384  0.0463
  973MOL0     C28320   4.396   1.804   7.546  0.0925  0.2783 -0.4276
  973MOL0     N28321   4.450   1.816   7.682 -0.1618  0.5273 -1.1501
  973MOL0     C28322   4.484   1.710   7.758 -0.0813 -0.5910  0.2724
  973MOL0     C28323   4.475   1.745   7.887 -0.0462 -0.3508 -0.4412
  973MOL0     C28324   4.483   1.663   8.010  0.7167  0.5623  0.3523
  973MOL0     C28325   4.588   1.558   8.006 -0.2309 -0.1222  0.1624
  973MOL0     C28326   4.737   1.622   8.015 -0.1312  0.7359 -0.0383
  973MOL0     C28327   4.794   1.607   8.145 -0.5691 -0.1177  0.3109
  973MOL0     O28328   4.939   1.627   8.145 -0.6199  0.6741  0.6976
  973MOL0     C28329   5.015   1.597   8.254  0.8987  0.0912  0.6001
  973MOL0     C28330   4.966   1.531   8.369 -0.3506  0.1079  0.1177
  973MOL0     C28331   5.046   1.519   8.480  0.1690 -0.8106  0.3480
  973MOL0     C28332   5.187   1.544   8.476 -0.2283  0.3629 -0.2346
  973MOL0     C28333   5.276   1.517   8.593 -0.2488 -0.2058  0.2927
  973MOL0     O28334   5.409   1.519   8.576  0.4170  0.1671  0.3545
  973MOL0     C28335   5.482   1.472   8.687  0.6160 -0.2365  0.1634
  973MOL0     C28336   5.469   1.332   8.707 -0.6253  0.6860 -0.2876
  973MOL0     C28337   5.556   1.278   8.806 -0.3589 -0.2506 -0.1729
  973MOL0     C28338   5.632   1.356   8.890 -0.4160 -0.2318  1.3420
  973MOL0     O28339   5.709   1.290   8.975  0.5202 -0.0723  0.4284
  973MOL0     C28340   5.833   1.219   8.921 -0.2713 -0.6811 -0.5844
  973MOL0     C28341   5.882   1.117   9.015  0.2519 -0.1347  0.3672
  973MOL0     C28342   5.778   1.002   9.021 -0.1478 -0.3033  0.4168
  973MOL0     C28343   5.824   0.882   9.105  0.9336 -0.0804  0.2907
  973MOL0     C28344   5.880   0.913   9.242  0.4475 -0.8095  0.4912
  973MOL0     C28345   5.919   0.787   9.307  1.1577  0.7641  0.0680
  973MOL0     C28346   5.939   0.815   9.445  0.5400  0.1976 -0.4342
  973MOL0     C28347   5.997   0.699   9.533  0.6263 -0.1574  0.2901
  973MOL0    Cl28348   6.158   0.677   9.462  0.3657  0.3501  0.2456
  973MOL0     C28349   5.644   1.495   8.865 -0.9087  0.2283  0.0099
  973MOL0     C28350   5.568   1.554   8.762 -0.2116  0.7155 -0.3568
  973MOL0     O28351   5.213   1.487   8.692  0.0102  0.1182 -1.1386
  973MOL0     C28352   5.235   1.597   8.370 -0.1906  0.2654  0.3597
  973MOL0     C28353   5.152   1.629   8.257  0.9237  0.0118  0.0157
  973MOL0     N28354   4.427   1.878   7.888  0.1290  1.0403 -0.7788
  973MOL0     N28355   4.408   1.918   7.767  0.9264 -0.0776 -1.4387
  973MOL0     C28356   5.063   2.026   6.772 -0.0980 -0.7456  0.2101
  973MOL0     C28357   5.143   2.138   6.730  0.5984 -0.0286 -0.4116
  973MOL0     C28358   5.224   2.505   6.439 -0.1783  0.1423  0.5483
  973MOL0     C28359   5.227   2.570   6.311 -0.3249 -0.4180 -0.1534
  973MOL0     C28360   5.268   2.705   6.301 -0.6082 -0.3390  0.1872
  973MOL0     C28361   5.300   2.783   6.416  0.3151 -0.5748 -0.1250
  973MOL0     O28362   5.319   2.917   6.395  0.3893 -0.2010 -0.0915
  973MOL0     C28363   5.367   3.008   6.493  0.1815  0.3294  0.1689
  973MOL0     C28364   5.259   3.078   6.568  0.4559  0.1156 -0.0990
  973MOL0     C28365   5.302   3.176   6.671  0.5268 -0.2277 -1.8113
  973MOL0     C28366   5.331   3.310   6.597 -0.6882 -0.6752  0.0845
  973MOL0     C28367   5.370   3.412   6.701  0.8847  0.2579 -0.1704
  973MOL0     C28368   5.398   3.475   6.798  0.0485  0.3398  0.5354
  973MOL0     C28369   5.287   2.709   6.539  0.0913 -0.5518  0.7523
  973MOL0     C28370   5.258   2.576   6.554  0.3242  0.2066  0.1061
  973MOL0     H28371   4.921   2.270   6.518 -0.4849 -0.3667  0.9165
  973MOL0     H28372   4.798   2.067   6.568 -1.6327  2.1055  1.3210
  973MOL0     H28373   4.738   1.812   6.617 -0.0090  0.9815  0.1646
  973MOL0     H28374   4.673   1.947   6.706 -0.8185 -0.1646 -6.2774
  973MOL0     H28375   4.703   1.665   6.804 -0.6348 -0.2079 -0.4120
  973MOL0     H28376   4.565   1.768   6.797 -0.1724  0.6323  0.2498
  973MOL0     H28377   4.702   1.920   6.975 -1.5491  0.2681 -1.2139
  973MOL0     H28378   4.779   1.760   6.997  1.2307  0.8667  1.4611
  973MOL0     H28379   4.474   1.821   7.031 -1.3026 -3.9631  0.6902
  973MOL0     H28380   4.549   1.675   7.050 -1.2674  0.3246 -0.3946
  973MOL0     H28381   4.636   1.907   7.220 -0.1448 -0.1568  1.1589
  973MOL0     H28382   4.674   1.739   7.239 -0.0801 -0.5961 -0.6264
  973MOL0     H28383   4.423   1.699   7.276 -0.0900 -0.8219  1.3656
  973MOL0     H28384   4.409   1.878   7.300 -0.8159 -0.2703 -0.6212
  973MOL0     H28385   4.540   1.673   7.464  0.6570  0.1383 -1.7893
  973MOL0     H28386   4.589   1.847   7.471  1.2259 -0.4150 -2.2827
  973MOL0     H28387   4.316   1.730   7.544 -2.0388  2.4588  0.0883
  973MOL0     H28388   4.343   1.898   7.530 -1.5559 -0.8454 -1.9990
  973MOL0     H28389   4.520   1.615   7.720  0.1151 -0.0756 -0.8750
  973MOL0     H28390   4.389   1.606   8.018  1.0595  0.0092  0.5118
  973MOL0     H28391   4.474   1.726   8.098 -1.0779 -1.7197  1.9424
  973MOL0     H28392   4.584   1.503   7.911 -0.7579  3.7020 -2.2676
  973MOL0     H28393   4.567   1.487   8.086  0.5078 -2.2993 -1.4675
  973MOL0     H28394   4.792   1.567   7.938 -0.6275 -0.3533  0.3674
  973MOL0     H28395   4.733   1.726   7.979 -1.0400  0.9266  0.5707
  973MOL0     H28396   4.769   1.507   8.182 -0.4997 -0.3525 -0.2739
  973MOL0     H28397   4.739   1.673   8.213  0.7689 -0.1977  1.5353
  973MOL0     H28398   4.871   1.478   8.370 -0.4754  0.2393  2.8950
  973MOL0     H28399   5.005   1.482   8.573 -0.5912  2.4811  1.4788
  973MOL0     H28400   5.410   1.270   8.641  1.3223 -0.3176 -1.1659
  973MOL0     H28401   5.567   1.170   8.812  2.0732 -0.1127 -1.1997
  973MOL0     H28402   5.915   1.289   8.905 -1.5763  1.3419  1.0241
  973MOL0     H28403   5.805   1.175   8.825  0.6583 -0.9439 -0.7429
  973MOL0     H28404   5.875   1.159   9.116  1.3609 -0.3841  0.5598
  973MOL0     H28405   5.975   1.076   8.974 -1.9381 -1.7375 -3.5874
  973MOL0     H28406   5.748   0.975   8.919 -1.9131  0.9418  0.5574
  973MOL0     H28407   5.699   1.049   9.079  0.6001  1.9896 -0.3083
  973MOL0     H28408   5.736   0.818   9.101  1.1863 -0.4689  0.7999
  973MOL0     H28409   5.896   0.832   9.039  1.1434  1.4117 -0.6583
  973MOL0     H28410   5.797   0.961   9.295 -0.2078  2.3503 -2.9960
  973MOL0     H28411   5.965   0.982   9.247 -0.4620  0.5654 -1.7244
  973MOL0     H28412   6.007   0.749   9.255  0.7909 -1.0315  0.6769
  973MOL0     H28413   5.838   0.714   9.296  2.1677 -0.5592  0.9780
  973MOL0     H28414   5.992   0.907   9.467 -0.6100  0.8725 -0.3961
  973MOL0     H28415   5.836   0.831   9.480  0.1489 -0.6482 -1.1474
  973MOL0     H28416   5.930   0.612   9.532 -0.0740  0.2905 -2.5649
  973MOL0     H28417   5.997   0.737   9.636 -3.2805  0.6790  0.1430
  973MOL0     H28418   5.696   1.560   8.936 -1.5878 -0.3872  1.1105
  973MOL0     H28419   5.555   1.659   8.740 -2.0851  0.5865 -0.0924
  973MOL0     H28420   5.340   1.621   8.366 -0.2729  0.4278 -2.0554
  973MOL0     H28421   5.199   1.686   8.177  0.6293  0.5098  0.1921
  973MOL0     H28422   5.107   1.967   6.852  1.3193  4.0704  3.4122
  973MOL0     H28423   5.245   2.156   6.763  0.1628  0.5515  0.6687
  973MOL0     H28424   5.190   2.510   6.229  0.3557  1.1147 -1.6561
  973MOL0     H28425   5.268   2.763   6.209 -2.2336  2.0832  1.5798
  973MOL0     H28426   5.431   3.076   6.435 -0.1978 -0.7211 -1.5394
  973MOL0     H28427   5.436   2.960   6.563  0.3497 -0.1605 -0.3302
  973MOL0     H28428   5.191   3.140   6.508 -2.7763  0.9953  4.0092
  973MOL0     H28429   5.190   3.003   6.607  0.6390 -1.8839 -3.2339
  973MOL0     H28430   5.389   3.130   6.719 -0.6951 -1.2246 -0.4694
  973MOL0     H28431   5.221   3.179   6.745  1.2229 -2.8917 -0.8268
  973MOL0     H28432   5.413   3.314   6.525 -0.3858  2.7243  0.4513
  973MOL0     H28433   5.239   3.332   6.541 -1.4918 -2.3261  0.6949
  973MOL0     H28434   5.408   3.528   6.891  0.2546  0.2956  0.5401
  973MOL0     H28435   5.305   2.767   6.628 -2.9718  1.5417  0.1711
  973MOL0     H28436   5.241   2.536   6.653  0.4060  1.6587  0.7377
  974MOL0     O28437   6.235   2.261   1.270 -0.6827 -0.3487 -0.1790
  974MOL0     C28438   6.145   2.345   1.278  0.9918  0.4188  1.1235
  974MOL0     O28439   6.129   2.456   1.192  0.3945 -0.7403  1.0581
  974MOL0     C28440   6.232   2.497   1.118  0.2372 -0.1159  0.2220
  974MOL0     C28441   6.330   2.588   1.164 -0.0357 -0.3250  1.4638
  974MOL0     C28442   6.445   2.608   1.089  0.4061 -0.7219  0.4456
  974MOL0     C28443   6.467   2.545   0.969  0.0666 -0.6313 -0.3094
  974MOL0     O28444   6.590   2.541   0.896  0.0364 -0.9051 -0.2025
  974MOL0     C28445   6.634   2.409   0.842  0.3267  0.7188 -0.7705
  974MOL0     C28446   6.779   2.422   0.833 -0.7454 -0.2624  0.1420
  974MOL0     C28447   6.852   2.301   0.762  0.1319 -0.1597 -0.2273
  974MOL0     C28448   6.996   2.298   0.800  0.2389 -0.2995 -0.2578
  974MOL0     C28449   7.000   2.241   0.943 -1.3465  0.6027  0.6951
  974MOL0     C28450   7.147   2.185   0.967  0.4773 -0.0424 -0.7175
  974MOL0     C28451   7.161   2.092   1.099  0.1983 -1.7611 -0.3007
  974MOL0     C28452   7.263   2.147   1.197  0.6865  0.2869 -0.8582
  974MOL0     N28453   7.207   2.266   1.270  0.1026 -0.0213  0.1480
  974MOL0     C28454   7.181   2.268   1.398  0.6665 -0.2467 -0.6207
  974MOL0     C28455   7.153   2.400   1.431  0.2501  0.2968  0.6049
  974MOL0     C28456   7.146   2.465   1.571 -0.0474 -0.6732 -0.0370
  974MOL0     C28457   7.018   2.469   1.641  0.9480 -1.3303 -0.1940
  974MOL0     C28458   6.909   2.561   1.581  0.7087 -0.6835  0.4908
  974MOL0     C28459   6.767   2.532   1.618 -0.1053 -0.4756  0.3476
  974MOL0     O28460   6.730   2.396   1.590  0.3940 -0.1095  0.7657
  974MOL0     C28461   6.738   2.344   1.463  1.8651  0.5293  1.2398
  974MOL0     C28462   6.635   2.374   1.362 -0.1585 -0.1054 -0.6312
  974MOL0     C28463   6.619   2.303   1.244 -0.3972 -0.1921  0.1583
  974MOL0     C28464   6.706   2.200   1.215 -0.3107 -0.4631 -0.3263
  974MOL0     C28465   6.674   2.102   1.112  0.3000  0.7285  0.3537
  974MOL0     O28466   6.759   1.993   1.109  0.9981 -0.2736 -0.8865
  974MOL0     C28467   6.758   1.900   1.007  0.7574  0.1508 -0.1654
  974MOL0     C28468   6.874   1.875   0.942 -0.3546  0.0006 -0.0668
  974MOL0     C28469   6.888   1.776   0.846  0.1326  0.7725 -0.4135
  974MOL0     C28470   6.784   1.706   0.805 -0.6676 -0.0625  0.3849
  974MOL0     O28471   6.795   1.603   0.712 -0.5412  0.8707 -0.2031
  974MOL0     C28472   6.914   1.602   0.629 -0.7353  0.3060 -0.4894
  974MOL0     C28473   6.902   1.505   0.520  0.3591 -0.0525 -0.8037
  974MOL0     C28474   7.032   1.482   0.443 -0.7532  0.4726  0.1728
  974MOL0     C28475   7.096   1.351   0.499 -1.0040  0.5292  0.0867
  974MOL0     C28476   7.216   1.314   0.402 -0.5240 -0.3542 -0.8661
  974MOL0     C28477   7.295   1.186   0.438  1.1359  0.2877  0.1702
  974MOL0     C28478   7.418   1.147   0.355  1.2585  0.1942  0.4234
  974MOL0     C28479   7.538   1.238   0.372  0.3519  0.0549  0.0579
  974MOL0    Cl28480   7.557   1.312   0.538 -0.0725 -0.2358 -0.7757
  974MOL0     C28481   6.663   1.728   0.871  0.3370  0.0847  0.2434
  974MOL0     C28482   6.650   1.820   0.981 -0.1338 -0.0080 -0.2436
  974MOL0     O28483   6.576   2.123   1.033  0.2778  0.2468 -0.5864
  974MOL0     C28484   6.818   2.183   1.310  0.6504 -0.0312  0.7982
  974MOL0     C28485   6.831   2.252   1.423  1.0779  0.4764 -0.1374
  974MOL0     N28486   7.137   2.464   1.315  0.4836 -0.1112  1.0757
  974MOL0     N28487   7.173   2.387   1.220 -0.5292 -0.3193 -0.8400
  974MOL0     C28488   6.364   2.451   0.930 -0.5271 -0.3246  0.2047
  974MOL0     C28489   6.249   2.427   0.999  0.4684 -0.5209 -0.4531
  974MOL0     C28490   6.045   2.334   1.386  0.6499  0.4069  0.9720
  974MOL0     C28491   6.075   2.253   1.501  0.3197 -0.4480 -0.6148
  974MOL0     C28492   5.977   2.257   1.604 -0.2267 -0.6318 -0.1072
  974MOL0     C28493   5.849   2.327   1.594 -0.5119 -0.8250  0.0812
  974MOL0     O28494   5.748   2.344   1.684  0.2688 -0.0380 -0.6168
  974MOL0     C28495   5.775   2.313   1.826  0.0952  0.5965  0.5638
  974MOL0     C28496   5.849   2.426   1.895 -0.8647 -1.3983  0.0959
  974MOL0     C28497   5.806   2.567   1.838 -0.4243 -0.1611 -0.6276
  974MOL0     C28498   5.879   2.678   1.911  0.1401  0.5942 -1.1588
  974MOL0     C28499   5.797   2.790   1.929 -0.3383  0.1302 -0.0974
  974MOL0     C28500   5.716   2.878   1.942  0.6345 -0.8242 -0.0081
  974MOL0     C28501   5.829   2.396   1.482  0.4543  0.3839  0.4448
  974MOL0     C28502   5.927   2.412   1.385  0.3267 -1.0737  0.4227
  974MOL0     H28503   6.322   2.624   1.267  1.6032 -2.1182  2.2790
  974MOL0     H28504   6.534   2.656   1.129 -0.2297  0.3607  0.5881
  974MOL0     H28505   6.581   2.394   0.747  0.7430 -3.0602 -0.5591
  974MOL0     H28506   6.612   2.329   0.913 -0.1661  1.4578 -0.0696
  974MOL0     H28507   6.816   2.428   0.936 -1.7256 -0.2413  0.5041
  974MOL0     H28508   6.808   2.504   0.766 -2.0045 -0.9056 -1.2457
  974MOL0     H28509   6.857   2.315   0.654  2.0702 -2.7406 -0.5478
  974MOL0     H28510   6.795   2.209   0.773 -1.9206  1.2515  1.8719
  974MOL0     H28511   7.041   2.232   0.726  1.1276 -2.4952  2.0830
  974MOL0     H28512   7.036   2.400   0.797  0.7925 -0.4669  0.9060
  974MOL0     H28513   6.926   2.164   0.966  0.9337 -2.2098 -0.7690
  974MOL0     H28514   6.990   2.316   1.022  0.3019  4.2816 -2.2501
  974MOL0     H28515   7.201   2.279   0.977 -3.4889  2.3171  1.4700
  974MOL0     H28516   7.183   2.129   0.880 -1.2383  1.2699 -2.3798
  974MOL0     H28517   7.064   2.097   1.151 -0.1839  0.5604 -1.0975
  974MOL0     H28518   7.192   1.991   1.074  0.2494 -1.6823 -0.5540
  974MOL0     H28519   7.360   2.171   1.152  0.6758 -1.4725 -1.9221
  974MOL0     H28520   7.275   2.069   1.272  1.4074 -0.2274 -1.4905
  974MOL0     H28521   7.216   2.197   1.473  0.4738  3.2469  3.0981
  974MOL0     H28522   7.182   2.568   1.568  0.6571 -0.9110  0.0002
  974MOL0     H28523   7.223   2.419   1.635 -0.4193  1.0972  1.7934
  974MOL0     H28524   7.042   2.498   1.743  2.9028  0.4470 -1.0836
  974MOL0     H28525   6.988   2.365   1.657  2.5194 -1.5937  1.3928
  974MOL0     H28526   6.940   2.663   1.604 -1.7170  0.2249  0.0210
  974MOL0     H28527   6.907   2.566   1.472  1.2610  0.5319  0.5152
  974MOL0     H28528   6.701   2.598   1.561  3.3307  2.2980 -0.7723
  974MOL0     H28529   6.755   2.565   1.721  1.0357  0.4894  0.1879
  974MOL0     H28530   6.568   2.453   1.396  0.3786 -0.1072  0.4883
  974MOL0     H28531   6.533   2.319   1.179  0.3391 -0.3006 -0.8600
  974MOL0     H28532   6.949   1.947   0.973 -0.4890 -1.3971  4.0477
  974MOL0     H28533   6.987   1.756   0.806  0.1481  0.7131 -0.3459
  974MOL0     H28534   7.004   1.578   0.687 -0.2894  2.9875  0.0699
  974MOL0     H28535   6.923   1.700   0.581 -2.1851  0.3979 -0.6025
  974MOL0     H28536   6.828   1.549   0.454 -1.9556 -0.0157  1.6550
  974MOL0     H28537   6.855   1.409   0.544  0.7347 -1.0183 -3.6086
  974MOL0     H28538   7.096   1.571   0.438  1.5217 -1.1489 -1.0070
  974MOL0     H28539   6.998   1.466   0.341 -0.8303  1.7693 -0.0218
  974MOL0     H28540   7.147   1.384   0.590  1.3572  1.8691 -1.6175
  974MOL0     H28541   7.032   1.263   0.513  0.2810 -0.3704  0.5163
  974MOL0     H28542   7.286   1.398   0.403 -1.5568  0.6156 -3.2421
  974MOL0     H28543   7.183   1.301   0.299 -0.4233 -0.6691 -0.8602
  974MOL0     H28544   7.224   1.115   0.395 -0.5558  1.7783  0.3531
  974MOL0     H28545   7.305   1.169   0.546 -1.3473 -1.9306  0.1748
  974MOL0     H28546   7.436   1.042   0.380 -3.9673 -0.8469  0.9140
  974MOL0     H28547   7.405   1.162   0.248  5.5209  1.6768 -0.1030
  974MOL0     H28548   7.514   1.323   0.307  0.5555  1.0528  1.2439
  974MOL0     H28549   7.632   1.194   0.339 -0.3799 -1.2592 -0.3066
  974MOL0     H28550   6.588   1.661   0.830 -0.5361  0.1896  1.6069
  974MOL0     H28551   6.559   1.815   1.041 -0.3347 -1.9420 -0.6165
  974MOL0     H28552   6.888   2.101   1.295 -0.0194 -0.4179 -0.2896
  974MOL0     H28553   6.903   2.216   1.495 -1.6416 -2.2873  1.4789
  974MOL0     H28554   6.370   2.390   0.840  0.3608 -0.0220  0.0454
  974MOL0     H28555   6.174   2.352   0.973  0.9401 -0.8970 -0.7506
  974MOL0     H28556   6.168   2.199   1.514 -0.0629 -1.1598 -0.7653
  974MOL0     H28557   6.009   2.214   1.699  3.0734  2.4637  0.3676
  974MOL0     H28558   5.821   2.214   1.836 -3.0191 -0.9512  0.7687
  974MOL0     H28559   5.676   2.296   1.870 -1.2279 -2.9022 -3.0889
  974MOL0     H28560   5.839   2.423   2.004  2.4741 -1.9905  0.4869
  974MOL0     H28561   5.956   2.410   1.876 -0.8253 -1.0466  0.0160
  974MOL0     H28562   5.701   2.574   1.865  0.3675  0.5108  2.7565
  974MOL0     H28563   5.834   2.580   1.733 -0.4878  2.9970 -0.3693
  974MOL0     H28564   5.928   2.656   2.006  1.4566  2.9666 -1.1957
  974MOL0     H28565   5.961   2.718   1.849 -1.1021  0.0980 -3.2435
  974MOL0     H28566   5.655   2.966   1.940  3.1023  1.0517  1.8669
  974MOL0     H28567   5.734   2.447   1.471  0.0315 -1.0045 -4.3375
  974MOL0     H28568   5.879   2.455   1.298 -1.1883  1.1878  2.2418
  975MOL0     O28569   4.918   6.816   8.573  0.1645 -0.1074 -0.6427
  975MOL0     C28570   4.910   6.700   8.524  0.9626  0.4324 -0.3421
  975MOL0     O28571   4.801   6.619   8.550  0.1270 -0.6403  0.2632
  975MOL0     C28572   4.676   6.658   8.563  0.5626  0.2841 -0.8438
  975MOL0     C28573   4.607   6.757   8.500 -0.2635  0.2856  0.2357
  975MOL0     C28574   4.467   6.769   8.499  0.0246 -0.6441  0.1662
  975MOL0     C28575   4.393   6.669   8.564 -0.5250 -0.4363 -0.2274
  975MOL0     O28576   4.252   6.661   8.566 -0.4918  0.1626 -0.0060
  975MOL0     C28577   4.180   6.784   8.551  0.2871 -0.4011 -0.3455
  975MOL0     C28578   4.138   6.802   8.404 -0.1662  0.5410  0.0041
  975MOL0     C28579   4.025   6.905   8.400  0.5225 -0.0880 -0.1720
  975MOL0     C28580   4.056   7.045   8.453  0.2662 -0.1234  0.0387
  975MOL0     C28581   4.139   7.145   8.379 -0.9095  0.3150  1.4241
  975MOL0     C28582   4.071   7.190   8.253 -0.9043  0.6117 -0.6877
  975MOL0     C28583   4.163   7.282   8.172  0.4546 -0.3019 -0.0641
  975MOL0     C28584   4.134   7.259   8.024 -0.1318 -0.6828  0.9955
  975MOL0     N28585   4.176   7.365   7.933 -0.5180 -0.5905  0.1898
  975MOL0     C28586   4.297   7.389   7.870  0.0669  0.3431 -0.2218
  975MOL0     C28587   4.292   7.512   7.815  0.6194  0.5678 -0.2632
  975MOL0     C28588   4.389   7.587   7.733 -0.2402  0.8156  1.0680
  975MOL0     C28589   4.360   7.578   7.582 -0.7373  1.0296 -0.2580
  975MOL0     C28590   4.279   7.685   7.514  0.6649 -0.2293  0.3864
  975MOL0     C28591   4.269   7.670   7.361  0.2046  0.3599  0.4306
  975MOL0     O28592   4.391   7.703   7.301 -0.4177 -0.3834 -0.5789
  975MOL0     C28593   4.396   7.736   7.174  0.4862  0.0785 -0.0687
  975MOL0     C28594   4.283   7.754   7.086  0.5383 -0.1535 -0.4472
  975MOL0     C28595   4.297   7.795   6.956 -0.0357 -0.1388 -0.2129
  975MOL0     C28596   4.424   7.845   6.912 -0.0818 -0.7805 -0.0431
  975MOL0     C28597   4.427   7.911   6.778  0.4718 -0.2291 -0.5394
  975MOL0     O28598   4.540   7.891   6.721 -0.1554  0.6349 -0.2190
  975MOL0     C28599   4.566   7.938   6.593  0.1337  0.3128  0.7705
  975MOL0     C28600   4.677   8.011   6.574 -0.5700  0.3208 -0.6369
  975MOL0     C28601   4.714   8.053   6.444  0.0403 -0.0332  0.6814
  975MOL0     C28602   4.639   8.018   6.333  0.0517 -0.7096 -0.2734
  975MOL0     O28603   4.692   8.061   6.213  0.0156 -0.4318  0.6424
  975MOL0     C28604   4.629   8.016   6.090 -0.1661  1.1144 -0.3353
  975MOL0     C28605   4.716   8.054   5.973 -0.2576  0.1433 -0.6542
  975MOL0     C28606   4.852   7.975   5.966 -0.8081 -0.4672 -0.7943
  975MOL0     C28607   4.935   7.982   5.833 -0.4862 -0.3950 -0.6501
  975MOL0     C28608   5.039   8.099   5.848  0.6753 -0.0783 -0.3007
  975MOL0     C28609   5.165   8.069   5.940 -0.0496  0.5643 -0.7540
  975MOL0     C28610   5.263   8.190   5.932 -0.2678  0.0288  1.0818
  975MOL0     C28611   5.380   8.169   6.033  0.4309 -0.0785  0.4975
  975MOL0    Cl28612   5.467   8.020   5.999  0.1048 -0.0335  0.1030
  975MOL0     C28613   4.525   7.951   6.358 -0.1302 -1.5945  0.7010
  975MOL0     C28614   4.489   7.900   6.481  0.7571  0.4152 -0.1564
  975MOL0     O28615   4.328   7.968   6.726 -0.3129 -0.9095  0.3008
  975MOL0     C28616   4.536   7.813   6.992  1.1834  0.2388  1.6856
  975MOL0     C28617   4.519   7.759   7.115 -0.3099 -0.7009  0.6766
  975MOL0     N28618   4.163   7.561   7.839 -0.1178  0.2940 -0.0395
  975MOL0     N28619   4.106   7.477   7.917  0.3209 -0.7006 -0.7402
  975MOL0     C28620   4.466   6.576   8.634  0.3085 -0.4886 -0.2587
  975MOL0     C28621   4.601   6.568   8.641  0.4411 -0.7247 -0.2202
  975MOL0     C28622   5.016   6.654   8.437 -1.0047 -0.6744 -0.0784
  975MOL0     C28623   5.107   6.736   8.367  0.2723 -0.5990  0.6568
  975MOL0     C28624   5.195   6.677   8.276 -0.2502 -0.2765 -0.0124
  975MOL0     C28625   5.192   6.539   8.237  0.3990  0.2155  0.0065
  975MOL0     O28626   5.286   6.513   8.137  0.5066 -0.1240 -0.5149
  975MOL0     C28627   5.238   6.404   8.052 -0.2815  0.0969 -0.2059
  975MOL0     C28628   5.320   6.408   7.914  0.4243 -0.1154  0.1867
  975MOL0     C28629   5.287   6.544   7.829 -0.2976  0.7556  0.5114
  975MOL0     C28630   5.281   6.519   7.678 -0.5614 -1.1477  0.2541
  975MOL0     C28631   5.246   6.646   7.616  0.2864  1.3099  0.9204
  975MOL0     C28632   5.201   6.750   7.563  0.4546 -0.0519  0.6792
  975MOL0     C28633   5.098   6.455   8.310 -1.1277 -0.1030  0.0284
  975MOL0     C28634   5.014   6.516   8.401 -0.2558  0.2906  0.0860
  975MOL0     H28635   4.652   6.823   8.427 -0.5289 -0.0470 -0.2322
  975MOL0     H28636   4.436   6.862   8.452  0.1941 -2.4082 -3.8822
  975MOL0     H28637   4.233   6.870   8.593 -1.3740  0.4007  0.2134
  975MOL0     H28638   4.090   6.796   8.613  1.2204  0.6898  0.8634
  975MOL0     H28639   4.100   6.704   8.373 -0.6800  0.5379  0.6274
  975MOL0     H28640   4.216   6.833   8.334  1.4474 -1.6037  0.7569
  975MOL0     H28641   3.948   6.869   8.469  0.4720 -0.3096 -0.3433
  975MOL0     H28642   3.976   6.899   8.302 -1.1345  0.7329  0.5814
  975MOL0     H28643   3.958   7.091   8.469  0.8365  0.8580  0.8139
  975MOL0     H28644   4.099   7.034   8.552 -1.2382  1.6320  0.9695
  975MOL0     H28645   4.234   7.098   8.355 -1.6500 -1.5987  2.0444
  975MOL0     H28646   4.161   7.226   8.451  1.6123 -0.6052  1.7857
  975MOL0     H28647   3.981   7.246   8.279 -1.4195 -0.4735 -0.0816
  975MOL0     H28648   4.042   7.104   8.192 -0.2045  0.9251 -1.4773
  975MOL0     H28649   4.134   7.384   8.198  0.4829 -0.3632  0.2022
  975MOL0     H28650   4.269   7.274   8.197  0.4116  0.7377  0.5004
  975MOL0     H28651   4.026   7.253   8.010  0.2395 -1.4923 -2.6501
  975MOL0     H28652   4.185   7.169   7.988  0.9820 -0.5295  2.1226
  975MOL0     H28653   4.384   7.325   7.865  0.5187  0.7642  1.5785
  975MOL0     H28654   4.490   7.547   7.751 -0.3506 -0.3920 -0.7763
  975MOL0     H28655   4.400   7.690   7.767  1.5508 -0.0869  3.5294
  975MOL0     H28656   4.321   7.476   7.571 -0.1808  0.1656  3.9582
  975MOL0     H28657   4.453   7.581   7.525 -0.6113  2.2160 -0.0250
  975MOL0     H28658   4.183   7.650   7.551  1.2493 -4.0306 -1.2673
  975MOL0     H28659   4.314   7.783   7.548  0.6385 -0.1489  0.1806
  975MOL0     H28660   4.192   7.739   7.326 -2.6047 -2.6588  0.3157
  975MOL0     H28661   4.229   7.572   7.336 -0.8019  0.8245  0.1947
  975MOL0     H28662   4.185   7.714   7.112  0.7199 -0.3080  0.0190
  975MOL0     H28663   4.208   7.785   6.894 -2.2934  2.1864  2.3374
  975MOL0     H28664   4.742   8.026   6.660 -0.7323 -2.0461 -0.0309
  975MOL0     H28665   4.800   8.117   6.425 -0.1093 -0.0462 -0.0658
  975MOL0     H28666   4.524   8.046   6.086  0.0393  2.0178  0.6111
  975MOL0     H28667   4.624   7.907   6.076 -1.5802  0.8652  1.6772
  975MOL0     H28668   4.731   8.162   5.982 -3.4007  0.6963 -0.9664
  975MOL0     H28669   4.653   8.029   5.887 -1.4888  0.1811  0.1954
  975MOL0     H28670   4.837   7.868   5.983  2.0191 -1.0494 -1.4104
  975MOL0     H28671   4.912   8.003   6.053 -1.3907 -1.2789 -0.1264
  975MOL0     H28672   5.000   7.898   5.806  2.8923  1.8708 -0.2240
  975MOL0     H28673   4.878   8.016   5.746 -0.0410 -0.2944 -0.9060
  975MOL0     H28674   4.993   8.193   5.881  0.5039  0.5663 -2.2663
  975MOL0     H28675   5.078   8.105   5.746 -0.0615 -4.1048 -0.9998
  975MOL0     H28676   5.215   7.977   5.907  2.3863 -0.0776  3.9137
  975MOL0     H28677   5.127   8.051   6.040 -2.4233  2.0485 -1.3139
  975MOL0     H28678   5.302   8.190   5.830 -1.8818  1.2947  0.4100
  975MOL0     H28679   5.210   8.286   5.934 -1.7001 -0.5887 -1.6222
  975MOL0     H28680   5.341   8.168   6.135  0.1609 -0.7870  0.3908
  975MOL0     H28681   5.453   8.251   6.034 -0.2546  0.5499  1.3663
  975MOL0     H28682   4.460   7.947   6.271  1.1307 -1.4341 -0.2750
  975MOL0     H28683   4.422   7.815   6.495  1.2382 -0.0853 -0.8251
  975MOL0     H28684   4.640   7.830   6.963  0.5958  1.3376  0.1224
  975MOL0     H28685   4.608   7.750   7.178 -1.8414  3.3025  3.8285
  975MOL0     H28686   4.405   6.509   8.693 -3.4354  0.5348 -2.6241
  975MOL0     H28687   4.639   6.488   8.703 -0.4724 -0.1172  1.1944
  975MOL0     H28688   5.110   6.843   8.382  0.3105 -0.5364  0.2368
  975MOL0     H28689   5.266   6.749   8.236  0.0106 -0.1855  0.5976
  975MOL0     H28690   5.133   6.414   8.023  0.0741 -0.8282 -1.9542
  975MOL0     H28691   5.243   6.307   8.103 -0.7966  1.4102  2.5334
  975MOL0     H28692   5.426   6.403   7.941  0.2570 -1.6048  0.6697
  975MOL0     H28693   5.288   6.328   7.847  0.1676 -2.6418  3.0967
  975MOL0     H28694   5.362   6.616   7.862  0.9277 -0.2406  0.0141
  975MOL0     H28695   5.192   6.583   7.867 -0.0166  1.6305  0.3398
  975MOL0     H28696   5.386   6.502   7.654 -0.5267 -2.5249  1.2337
  975MOL0     H28697   5.208   6.439   7.664 -1.3978 -0.5623  1.1539
  975MOL0     H28698   5.177   6.845   7.520  1.4722 -1.4849 -3.5196
  975MOL0     H28699   5.088   6.348   8.290 -1.0678 -0.2999  1.0249
  975MOL0     H28700   4.947   6.461   8.466  0.0852 -0.4387 -0.1741
  976MOL0     O28701   1.616   2.250   5.830 -0.2486 -0.1631  0.3932
  976MOL0     C28702   1.691   2.153   5.828  0.7653 -0.2015  0.1590
  976MOL0     O28703   1.722   2.077   5.928 -0.7890  0.8827  0.5501
  976MOL0     C28704   1.649   2.097   6.042 -0.6751  0.1774  0.8541
  976MOL0     C28705   1.541   2.025   6.083  0.2959 -0.0622  1.2598
  976MOL0     C28706   1.504   2.035   6.222  1.0314 -0.0010  1.0341
  976MOL0     C28707   1.565   2.114   6.309 -0.6379  0.0069 -0.4960
  976MOL0     O28708   1.501   2.116   6.434 -1.1391 -0.4229  0.1636
  976MOL0     C28709   1.571   2.136   6.556 -0.6801 -0.4354  0.6887
  976MOL0     C28710   1.472   2.156   6.671 -0.1218  0.1325 -0.8408
  976MOL0     C28711   1.438   2.308   6.686 -0.6709 -0.5384 -0.8789
  976MOL0     C28712   1.334   2.373   6.592 -0.2369 -1.0852  0.3937
  976MOL0     C28713   1.306   2.534   6.614  0.0273  0.7014 -0.8026
  976MOL0     C28714   1.178   2.585   6.543 -0.3482 -0.1183 -0.4508
  976MOL0     C28715   1.133   2.702   6.620  0.1173 -0.0152  0.0393
  976MOL0     C28716   1.008   2.768   6.563 -1.4007  0.8770  0.3080
  976MOL0     N28717   0.895   2.735   6.646 -0.1444 -0.2226  0.4823
  976MOL0     C28718   0.837   2.616   6.662 -1.1458  0.3193  0.2717
  976MOL0     C28719   0.713   2.639   6.716  0.7192  0.0863 -0.2484
  976MOL0     C28720   0.613   2.532   6.758  0.2759 -0.6773 -0.3033
  976MOL0     C28721   0.523   2.565   6.885  0.1621 -0.4551  0.8202
  976MOL0     C28722   0.409   2.456   6.889 -0.1579  0.3758 -0.0800
  976MOL0     C28723   0.303   2.482   6.778 -0.1047 -0.0137 -0.0008
  976MOL0     O28724   0.180   2.432   6.838 -0.6396 -0.1193  0.2887
  976MOL0     C28725   0.096   2.364   6.750  0.6625 -0.3947 -0.6496
  976MOL0     C28726   0.094   2.361   6.610  0.0108 -0.0366 -0.0574
  976MOL0     C28727   0.006   2.283   6.532 -0.4014  0.3007 -0.8261
  976MOL0     C28728  -0.078   2.193   6.600  0.3234 -0.6796 -0.2644
  976MOL0     C28729  -0.167   2.095   6.520  0.6825  0.0245 -0.1970
  976MOL0     O28730  -0.284   2.050   6.581  0.1494 -0.6720  0.2276
  976MOL0     C28731  -0.335   1.928   6.556 -1.4049  0.6686  0.9669
  976MOL0     C28732  -0.419   1.921   6.454  1.0672 -0.8087 -0.1402
  976MOL0     C28733  -0.487   1.805   6.422  0.3495  0.1900  0.4226
  976MOL0     C28734  -0.485   1.695   6.511 -0.4774 -0.0436 -0.1789
  976MOL0     O28735  -0.556   1.584   6.494 -0.1751  0.3130  0.4991
  976MOL0     C28736  -0.678   1.583   6.422 -0.2186 -0.3274  0.0035
  976MOL0     C28737  -0.701   1.437   6.389  0.5110 -0.3770 -0.0541
  976MOL0     C28738  -0.835   1.424   6.312  0.2317 -0.6475 -0.0670
  976MOL0     C28739  -0.881   1.283   6.305  0.1605  0.3807 -0.1631
  976MOL0     C28740  -1.008   1.260   6.237  0.7614  0.2303 -0.4121
  976MOL0     C28741  -1.044   1.108   6.204 -0.0878 -0.6208  0.6119
  976MOL0     C28742  -0.987   1.070   6.065  0.5801 -0.6253 -0.4902
  976MOL0     C28743  -1.082   1.092   5.944  0.6211 -0.8694  0.3031
  976MOL0    Cl28744  -1.141   1.263   5.915  0.0898  0.2338  0.2976
  976MOL0     C28745  -0.406   1.709   6.634 -0.0030 -0.6504 -0.0279
  976MOL0     C28746  -0.325   1.826   6.647  0.2677  1.0418  0.3276
  976MOL0     O28747  -0.116   2.042   6.413 -0.5453 -0.0249 -0.2179
  976MOL0     C28748  -0.085   2.201   6.736 -0.1634 -1.1149 -0.5355
  976MOL0     C28749  -0.000   2.283   6.813 -0.5560 -0.9073  0.4262
  976MOL0     N28750   0.692   2.779   6.716  0.1512  0.4073  0.0652
  976MOL0     N28751   0.811   2.830   6.681  0.2171  0.5430  0.1872
  976MOL0     C28752   1.683   2.185   6.279 -0.0435  0.9544  0.3931
  976MOL0     C28753   1.715   2.182   6.141 -0.1002  0.0809 -0.1844
  976MOL0     C28754   1.764   2.127   5.702  0.5956 -0.0008 -0.2141
  976MOL0     C28755   1.818   1.995   5.673 -0.3018 -0.0304 -0.7297
  976MOL0     C28756   1.912   1.983   5.564 -0.0433  0.5606  0.1618
  976MOL0     C28757   1.927   2.082   5.472 -0.2089  0.8877  0.2741
  976MOL0     O28758   2.026   2.069   5.378 -0.6923 -0.4664  0.1730
  976MOL0     C28759   2.024   2.153   5.258 -0.5746 -0.2774 -0.3262
  976MOL0     C28760   2.152   2.140   5.183 -0.4717 -0.0602  0.0919
  976MOL0     C28761   2.155   1.994   5.128 -0.2599 -0.0943 -0.2719
  976MOL0     C28762   2.282   1.942   5.073  0.3649  1.0554  0.2298
  976MOL0     C28763   2.360   2.049   4.988  0.6302  0.1476 -1.1888
  976MOL0     C28764   2.413   2.142   4.928  0.2167 -0.7155  1.2016
  976MOL0     C28765   1.849   2.201   5.486  0.6894 -0.4112  0.0373
  976MOL0     C28766   1.781   2.224   5.600 -0.4587 -0.4933  0.2875
  976MOL0     H28767   1.476   1.967   6.017  0.7057  0.2413  0.5762
  976MOL0     H28768   1.412   1.982   6.248  2.3476 -3.4946 -0.7652
  976MOL0     H28769   1.637   2.223   6.566 -0.8034 -0.2778  0.1340
  976MOL0     H28770   1.637   2.050   6.576 -0.6342 -0.2803  1.2310
  976MOL0     H28771   1.522   2.122   6.762  3.9668 -1.2357 -3.3551
  976MOL0     H28772   1.381   2.095   6.676 -1.1885  1.7567  2.1117
  976MOL0     H28773   1.533   2.362   6.676 -0.4444 -0.8796 -0.5776
  976MOL0     H28774   1.408   2.338   6.787  2.9757  2.2055 -0.4022
  976MOL0     H28775   1.355   2.363   6.485 -2.7326  0.3033 -0.3025
  976MOL0     H28776   1.242   2.315   6.596 -0.7745 -0.3264 -0.5350
  976MOL0     H28777   1.379   2.599   6.565  0.7754  0.7709  0.3915
  976MOL0     H28778   1.321   2.560   6.719 -1.4341 -0.7719 -0.1802
  976MOL0     H28779   1.106   2.504   6.560  1.8962 -1.6726  2.6566
  976MOL0     H28780   1.214   2.600   6.441  2.6228  0.7124  0.5979
  976MOL0     H28781   1.114   2.683   6.726 -1.6201 -0.5278 -0.3343
  976MOL0     H28782   1.208   2.781   6.617  0.2436  0.0140  2.4148
  976MOL0     H28783   0.987   2.737   6.460 -3.6693  1.6686  0.4696
  976MOL0     H28784   1.009   2.877   6.574 -0.1141  1.2991 -2.8798
  976MOL0     H28785   0.886   2.519   6.656 -1.5202  0.0985  0.6995
  976MOL0     H28786   0.666   2.436   6.766 -0.7992 -1.2981 -0.4727
  976MOL0     H28787   0.543   2.519   6.675 -0.2617  0.0443  0.0330
  976MOL0     H28788   0.470   2.660   6.887  0.3154 -0.2408 -1.8022
  976MOL0     H28789   0.594   2.540   6.965  3.0824 -3.8131 -2.4086
  976MOL0     H28790   0.464   2.361   6.882  0.7162  0.8260  0.4897
  976MOL0     H28791   0.357   2.471   6.984 -3.6874  2.5019 -2.1027
  976MOL0     H28792   0.330   2.422   6.691 -1.1542 -1.6304  0.7293
  976MOL0     H28793   0.285   2.587   6.753  0.2464  0.6808  2.3987
  976MOL0     H28794   0.149   2.444   6.566  0.3341 -0.1089  0.2071
  976MOL0     H28795   0.029   2.293   6.426  2.1533  0.2063 -0.3523
  976MOL0     H28796  -0.441   2.014   6.401 -1.1476 -0.3130  1.4942
  976MOL0     H28797  -0.527   1.789   6.322  1.6473  2.7214 -0.6022
  976MOL0     H28798  -0.667   1.628   6.323 -2.2284  0.5504  0.1237
  976MOL0     H28799  -0.752   1.638   6.480 -0.3216 -0.5028  0.0393
  976MOL0     H28800  -0.717   1.381   6.482 -0.6261  3.2547  2.1324
  976MOL0     H28801  -0.612   1.409   6.331  1.1306 -0.1971  0.7881
  976MOL0     H28802  -0.810   1.466   6.215  0.2802  0.8616  0.5718
  976MOL0     H28803  -0.922   1.482   6.344 -1.1389 -1.8988 -1.3546
  976MOL0     H28804  -0.802   1.225   6.256  0.2879  0.1042  0.3527
  976MOL0     H28805  -0.885   1.243   6.407  0.3818 -0.8965 -0.6363
  976MOL0     H28806  -1.011   1.313   6.142 -2.0069  1.5017  0.2655
  976MOL0     H28807  -1.091   1.290   6.302  0.6600  0.0994 -0.4792
  976MOL0     H28808  -1.150   1.086   6.194  0.1556 -0.8846 -3.5819
  976MOL0     H28809  -0.991   1.054   6.283 -0.6996 -0.7251  0.9502
  976MOL0     H28810  -0.895   1.126   6.048 -0.0184  0.5226 -0.0123
  976MOL0     H28811  -0.961   0.964   6.076  0.1890 -0.5779  1.1741
  976MOL0     H28812  -1.177   1.037   5.952 -2.3144  3.8128  2.0323
  976MOL0     H28813  -1.018   1.064   5.861 -1.5219 -1.1650 -1.3452
  976MOL0     H28814  -0.411   1.633   6.711 -1.0013 -1.1981 -0.5990
  976MOL0     H28815  -0.252   1.835   6.727  0.2480  1.7545  0.2730
  976MOL0     H28816  -0.160   2.155   6.800  0.1778 -0.7340  0.1460
  976MOL0     H28817  -0.003   2.282   6.921  1.0033  2.3630  0.6108
  976MOL0     H28818   1.738   2.258   6.339  0.6353  2.9343 -2.4063
  976MOL0     H28819   1.794   2.245   6.101  0.7620 -0.1553  1.0866
  976MOL0     H28820   1.802   1.914   5.744  2.5647  1.2851  1.6007
  976MOL0     H28821   1.972   1.895   5.547 -1.1412 -0.7205  2.5020
  976MOL0     H28822   2.032   2.259   5.283  3.3629 -0.4841 -0.1495
  976MOL0     H28823   1.934   2.127   5.202 -0.6817  0.9715 -0.7579
  976MOL0     H28824   2.162   2.211   5.101  1.8126  0.5744  0.8464
  976MOL0     H28825   2.236   2.160   5.251 -0.0311  2.8271 -1.1555
  976MOL0     H28826   2.078   1.992   5.050 -0.8570  3.6431  0.0446
  976MOL0     H28827   2.126   1.916   5.199 -1.4771 -2.1488 -2.8681
  976MOL0     H28828   2.352   1.897   5.144 -1.1987  1.6430  2.2568
  976MOL0     H28829   2.261   1.856   5.010  0.4329  2.2307 -1.4645
  976MOL0     H28830   2.462   2.205   4.857 -0.8956  1.7734  2.5094
  976MOL0     H28831   1.867   2.288   5.424  0.6429 -0.7040 -0.3930
  976MOL0     H28832   1.736   2.321   5.619 -0.8055 -0.1410 -1.9721
  977MOL0     O28833   9.090  11.419  11.242  0.2973  0.4635 -0.8019
  977MOL0     C28834   9.079  11.357  11.349 -0.4765 -0.4825  0.1788
  977MOL0     O28835   9.035  11.232  11.366  0.1470 -0.3920  0.3394
  977MOL0     C28836   9.044  11.147  11.259 -0.2666 -0.4319  0.2063
  977MOL0     C28837   8.937  11.078  11.201  0.6058  0.1338 -0.8047
  977MOL0     C28838   8.961  10.990  11.085  0.3211 -0.9233  0.1847
  977MOL0     C28839   9.084  10.992  11.016  0.1299  0.6431 -0.2917
  977MOL0     O28840   9.088  10.914  10.901 -0.3656  0.6179  0.0426
  977MOL0     C28841   9.220  10.869  10.862  0.3427  0.6368  0.3671
  977MOL0     C28842   9.203  10.781  10.733 -0.2008  0.5081  0.8680
  977MOL0     C28843   9.347  10.737  10.688 -0.4794 -0.2304 -0.3265
  977MOL0     C28844   9.318  10.629  10.582  0.4279  0.3685 -0.4479
  977MOL0     C28845   9.444  10.581  10.505 -0.1005 -0.4109 -0.0388
  977MOL0     C28846   9.387  10.484  10.403  0.6287 -0.7556 -0.0376
  977MOL0     C28847   9.495  10.417  10.319 -1.0002  0.3466  0.2651
  977MOL0     C28848   9.431  10.327  10.214  0.3900 -0.5566  0.8281
  977MOL0     N28849   9.526  10.256  10.131 -0.2869  0.0843  0.3053
  977MOL0     C28850   9.516  10.119  10.123 -0.1233 -0.9373  0.4555
  977MOL0     C28851   9.611  10.084  10.034  0.7995 -1.1515 -0.1202
  977MOL0     C28852   9.653   9.949   9.983 -0.3718 -0.0448  0.0713
  977MOL0     C28853   9.810   9.924   9.996  0.0105 -1.3181 -0.0068
  977MOL0     C28854   9.835   9.785   9.937 -0.4869  0.0937  0.2109
  977MOL0     C28855   9.973   9.739   9.988  0.3784  0.7258  0.5035
  977MOL0     O28856   9.983   9.598   9.961  0.1820  0.1607 -0.7814
  977MOL0     C28857  10.079   9.521  10.028  0.2273  0.9780 -0.6019
  977MOL0     C28858  10.151   9.566  10.144 -0.6857  0.2969  0.3872
  977MOL0     C28859  10.250   9.475  10.207 -0.7802 -0.6982 -0.1690
  977MOL0     C28860  10.272   9.351  10.158 -0.4911  0.5974 -0.3586
  977MOL0     C28861  10.380   9.264  10.213  0.4363 -0.1028 -0.1006
  977MOL0     O28862  10.447   9.311  10.329  0.2031 -0.1157  0.2710
  977MOL0     C28863  10.536   9.241  10.410  1.3115 -0.3452  0.5619
  977MOL0     C28864  10.557   9.098  10.413  0.3778  0.5846  0.1729
  977MOL0     C28865  10.649   9.033  10.499  0.5040  0.5356  0.5969
  977MOL0     C28866  10.717   9.124  10.592 -0.6165  0.3550  0.2800
  977MOL0     O28867  10.810   9.072  10.685  0.9563 -1.1001  0.2286
  977MOL0     C28868  10.748   9.023  10.805 -0.3266  0.6370 -0.3357
  977MOL0     C28869  10.851   9.024  10.910  0.2055  0.7380 -0.1241
  977MOL0     C28870  10.810   8.976  11.045  0.4165 -0.4119  0.5933
  977MOL0     C28871  10.923   8.927  11.122 -0.9467 -0.5510  0.0915
  977MOL0     C28872  10.880   8.858  11.252  0.1750  0.4156 -0.0131
  977MOL0     C28873  10.815   8.946  11.354 -0.5318 -0.8496 -0.2602
  977MOL0     C28874  10.752   8.864  11.464  0.5046 -0.1914 -0.4027
  977MOL0     C28875  10.715   8.961  11.571  0.8149  1.0504  0.6170
  977MOL0    Cl28876  10.609   8.886  11.697  0.3034 -0.2169 -0.0546
  977MOL0     C28877  10.687   9.263  10.597  0.4599  1.0239  1.2517
  977MOL0     C28878  10.603   9.321  10.501 -0.7748 -0.2903  0.2948
  977MOL0     O28879  10.392   9.159  10.155 -0.8982  0.6341  0.4721
  977MOL0     C28880  10.204   9.312  10.044 -0.0653 -0.0804  0.5617
  977MOL0     C28881  10.121   9.403   9.976  0.5844  1.4906  0.0899
  977MOL0     N28882   9.676  10.201   9.991 -0.2809 -0.0233  0.1288
  977MOL0     N28883   9.620  10.307  10.045  0.0257 -0.0163 -0.3904
  977MOL0     C28884   9.186  11.057  11.078 -0.6071  0.8495 -0.8672
  977MOL0     C28885   9.166  11.126  11.199  0.5490 -0.0659  0.0616
  977MOL0     C28886   9.105  11.435  11.472 -0.3549 -0.4238 -0.2318
  977MOL0     C28887   9.123  11.574  11.457 -1.7267  1.2940  0.2837
  977MOL0     C28888   9.147  11.658  11.571  0.4225  0.8231 -0.6581
  977MOL0     C28889   9.133  11.603  11.697 -0.3398  0.4597  0.4491
  977MOL0     O28890   9.148  11.690  11.804  0.5703 -0.6857 -0.6325
  977MOL0     C28891   9.104  11.649  11.936  0.0726 -0.0260  0.6748
  977MOL0     C28892   8.952  11.610  11.953  0.0683  0.2412  1.0204
  977MOL0     C28893   8.882  11.624  12.097  0.3696 -0.2952 -0.0871
  977MOL0     C28894   8.855  11.756  12.156  1.4147 -0.3138 -0.7676
  977MOL0     C28895   8.762  11.842  12.074 -0.1694 -0.7361 -0.0727
  977MOL0     C28896   8.694  11.924  12.014 -0.9400  0.1431  1.4015
  977MOL0     C28897   9.115  11.465  11.709 -0.7828  0.3023  0.5284
  977MOL0     C28898   9.098  11.380  11.602  0.6949  0.7771  0.4808
  977MOL0     H28899   8.844  11.085  11.256  1.5400  0.8771  0.7340
  977MOL0     H28900   8.875  10.930  11.057 -0.1118 -0.2070 -0.0428
  977MOL0     H28901   9.257  10.799  10.937 -2.1132 -1.5394 -0.2841
  977MOL0     H28902   9.283  10.957  10.851 -0.1061  0.6715 -3.5823
  977MOL0     H28903   9.144  10.834  10.658  0.9535  0.8713  0.1906
  977MOL0     H28904   9.152  10.693  10.773  0.4478 -0.3242 -0.1148
  977MOL0     H28905   9.408  10.701  10.770  0.8430 -0.9446 -1.5754
  977MOL0     H28906   9.395  10.832  10.661 -2.6644  2.5494  4.2364
  977MOL0     H28907   9.272  10.544  10.634 -0.5046  0.6457 -0.7962
  977MOL0     H28908   9.244  10.675  10.516  2.1088  1.0366 -1.9448
  977MOL0     H28909   9.518  10.531  10.568 -0.5726  1.6917  2.3702
  977MOL0     H28910   9.495  10.665  10.457 -1.0387  1.4486  2.0026
  977MOL0     H28911   9.317  10.539  10.339  3.0997  1.8273 -0.7194
  977MOL0     H28912   9.330  10.408  10.456  1.8722  1.1357  4.4326
  977MOL0     H28913   9.560  10.491  10.271  0.0739 -1.0320 -0.4885
  977MOL0     H28914   9.553  10.360  10.392 -1.5394 -0.6555 -0.0737
  977MOL0     H28915   9.375  10.386  10.141  1.5055 -1.4031 -0.7783
  977MOL0     H28916   9.360  10.259  10.260  0.1024  0.3438  1.7628
  977MOL0     H28917   9.449  10.061  10.186 -1.4629 -1.7719 -1.6045
  977MOL0     H28918   9.634   9.936   9.876 -0.3101 -1.6684  0.2377
  977MOL0     H28919   9.595   9.864  10.018  1.0047 -0.6741  0.9110
  977MOL0     H28920   9.842   9.917  10.100  0.7412 -1.3849 -0.2313
  977MOL0     H28921   9.859  10.009   9.948 -1.2443 -0.9442 -0.6959
  977MOL0     H28922   9.767   9.707   9.973  2.1756 -1.0665  3.1984
  977MOL0     H28923   9.830   9.778   9.828  1.6693  4.1012 -0.3556
  977MOL0     H28924   9.992   9.762  10.094  0.0476  3.0845  0.1056
  977MOL0     H28925  10.057   9.782   9.933  2.8666 -1.4204  2.3398
  977MOL0     H28926  10.127   9.666  10.179 -0.0320  0.4176  0.5007
  977MOL0     H28927  10.304   9.496  10.299  1.2681 -4.0036 -0.4490
  977MOL0     H28928  10.501   9.041  10.339 -2.1466  2.8308  0.1972
  977MOL0     H28929  10.664   8.927  10.485 -0.8199  0.6993 -3.3543
  977MOL0     H28930  10.713   8.922  10.779 -0.3184  0.8463 -1.1911
  977MOL0     H28931  10.653   9.074  10.827 -1.1590 -0.8778 -0.2212
  977MOL0     H28932  10.885   9.127  10.927  0.5809  0.3482  1.7649
  977MOL0     H28933  10.934   8.963  10.871  0.5641  1.8287 -1.1158
  977MOL0     H28934  10.749   8.888  11.026  0.4018 -1.1829  3.7013
  977MOL0     H28935  10.740   9.043  11.097 -3.1293 -1.3704 -2.5258
  977MOL0     H28936  10.987   8.857  11.067 -3.3985 -0.8467 -2.5790
  977MOL0     H28937  10.992   9.009  11.144  0.9686 -1.4739 -2.0712
  977MOL0     H28938  10.977   8.835  11.297  0.9021  1.5537 -0.9327
  977MOL0     H28939  10.820   8.770  11.227 -0.4841  1.5579 -2.8497
  977MOL0     H28940  10.738   9.007  11.306  0.8593  2.0828  1.0287
  977MOL0     H28941  10.886   9.017  11.396 -1.1750  0.2653 -1.0103
  977MOL0     H28942  10.660   8.815  11.431  0.1043 -1.9600  2.8163
  977MOL0     H28943  10.821   8.787  11.500 -2.8583 -4.3249 -1.8892
  977MOL0     H28944  10.649   9.034  11.523 -1.9439 -0.3599  2.0777
  977MOL0     H28945  10.809   9.004  11.608  1.3267 -1.5650  2.7017
  977MOL0     H28946  10.749   9.312  10.671  0.5209 -0.5656  2.2876
  977MOL0     H28947  10.605   9.429  10.488 -1.8964 -0.5179 -2.4985
  977MOL0     H28948  10.226   9.211  10.010 -2.3301 -0.7927  1.0747
  977MOL0     H28949  10.069   9.393   9.882 -0.2829  0.3582  0.6593
  977MOL0     H28950   9.285  11.069  11.034 -0.5935  1.9566 -0.5641
  977MOL0     H28951   9.255  11.180  11.226 -0.1124  2.9017 -3.0721
  977MOL0     H28952   9.110  11.620  11.359  0.0677  2.2689  0.4619
  977MOL0     H28953   9.154  11.765  11.560  2.2984  0.6762 -1.3411
  977MOL0     H28954   9.116  11.742  11.992  2.2241  0.6372 -0.7756
  977MOL0     H28955   9.167  11.573  11.981 -0.4418  0.5164  2.4112
  977MOL0     H28956   8.899  11.673  11.882  0.2828  0.3646  0.9693
  977MOL0     H28957   8.930  11.506  11.925 -1.7628  0.2489  2.2412
  977MOL0     H28958   8.963  11.578  12.156 -1.4517 -1.1959  1.8335
  977MOL0     H28959   8.803  11.551  12.116  1.4185 -1.6633 -0.8119
  977MOL0     H28960   8.811  11.739  12.255  0.8098 -0.8808 -1.1241
  977MOL0     H28961   8.945  11.814  12.176  0.6260  0.6728  0.0655
  977MOL0     H28962   8.645  12.004  11.962  0.7603 -0.6372 -1.6179
  977MOL0     H28963   9.101  11.421  11.807 -0.5359  1.0297  0.8994
  977MOL0     H28964   9.064  11.279  11.623  0.1948  1.1644  1.6351
  978MOL0     O28965   3.600   6.159   2.088  0.1446 -0.7474 -0.9905
  978MOL0     C28966   3.534   6.072   2.144  0.2418 -0.0051 -0.0170
  978MOL0     O28967   3.511   5.953   2.089 -0.7355  0.5949  0.1372
  978MOL0     C28968   3.557   5.913   1.969  0.6452 -0.8513 -0.5976
  978MOL0     C28969   3.659   5.959   1.882  0.2433 -0.7386  0.0390
  978MOL0     C28970   3.712   5.892   1.772 -0.3929 -0.8353  0.9485
  978MOL0     C28971   3.666   5.775   1.729 -0.8747 -0.3265  0.0989
  978MOL0     O28972   3.717   5.693   1.632 -0.4017 -0.1794 -0.9732
  978MOL0     C28973   3.860   5.678   1.622 -0.0006 -0.4731 -0.6063
  978MOL0     C28974   3.911   5.562   1.711 -0.4539 -0.6548  0.6998
  978MOL0     C28975   3.900   5.427   1.625  0.8453 -0.1191 -0.3580
  978MOL0     C28976   3.964   5.318   1.689 -0.7077 -0.3412 -0.2338
  978MOL0     C28977   3.959   5.182   1.616 -0.6303 -1.1571 -0.3667
  978MOL0     C28978   4.043   5.086   1.705  0.4880  0.6681  0.3580
  978MOL0     C28979   4.102   4.982   1.623  0.2643  0.5911  0.2077
  978MOL0     C28980   4.154   4.862   1.697  0.1137  0.7523  0.0486
  978MOL0     N28981   4.282   4.879   1.774 -0.2115 -0.3961 -0.5020
  978MOL0     C28982   4.387   4.913   1.707  0.0151 -0.6118  0.9156
  978MOL0     C28983   4.491   4.886   1.791  0.0024 -0.9596 -0.3515
  978MOL0     C28984   4.637   4.909   1.779  0.2435  0.4449 -0.5086
  978MOL0     C28985   4.683   4.804   1.673 -0.2821 -0.8046  0.0406
  978MOL0     C28986   4.815   4.748   1.713 -0.2491 -0.4031 -0.5504
  978MOL0     C28987   4.910   4.697   1.603 -0.5343 -0.2853 -0.3562
  978MOL0     O28988   5.013   4.616   1.680  0.4634 -0.1117  0.1041
  978MOL0     C28989   5.106   4.553   1.603  0.7104  0.1259 -0.6441
  978MOL0     C28990   5.146   4.588   1.474 -0.6697  0.0381 -0.8215
  978MOL0     C28991   5.239   4.511   1.402 -0.1277 -0.3485 -0.5895
  978MOL0     C28992   5.296   4.397   1.462 -0.0435  0.6668  0.8937
  978MOL0     C28993   5.395   4.319   1.386  0.1986 -0.0794  0.0753
  978MOL0     O28994   5.478   4.372   1.284 -0.1442 -0.3448  0.3445
  978MOL0     C28995   5.524   4.298   1.185  0.8020 -1.3465 -0.4786
  978MOL0     C28996   5.653   4.333   1.137  0.3445 -0.6865  1.1064
  978MOL0     C28997   5.712   4.269   1.031  0.3085  0.3390 -0.0448
  978MOL0     C28998   5.654   4.157   0.979 -0.1689  0.3188 -0.4095
  978MOL0     O28999   5.719   4.074   0.889 -0.6420 -1.0072 -0.6970
  978MOL0     C29000   5.773   4.166   0.783 -0.5694  0.1212  1.4101
  978MOL0     C29001   5.831   4.097   0.657  0.2333 -0.0608  0.6611
  978MOL0     C29002   5.732   4.061   0.559  0.6108  0.3808  0.5759
  978MOL0     C29003   5.792   3.999   0.430 -0.2146 -0.1259  0.5818
  978MOL0     C29004   5.900   4.079   0.354  0.6945 -0.4471  0.5491
  978MOL0     C29005   5.927   4.019   0.214  0.2208 -1.2689 -0.2241
  978MOL0     C29006   6.043   4.092   0.145  0.1146  0.1996 -0.4746
  978MOL0     C29007   6.097   3.999   0.027 -0.5075  0.2425  0.0410
  978MOL0    Cl29008   5.961   3.955  -0.073 -0.2735 -0.1509 -0.0774
  978MOL0     C29009   5.531   4.125   1.026 -0.1317  0.2881 -0.2918
  978MOL0     C29010   5.468   4.192   1.128  0.1902  0.1804 -0.1098
  978MOL0     O29011   5.386   4.198   1.409  0.1975 -0.2137 -0.6010
  978MOL0     C29012   5.259   4.362   1.596  0.8554 -0.0966 -0.5485
  978MOL0     C29013   5.164   4.438   1.664 -0.2006  0.1671 -1.0088
  978MOL0     N29014   4.434   4.830   1.903  0.4214 -0.1967 -0.6309
  978MOL0     N29015   4.307   4.809   1.886  0.5070 -0.0966 -0.3732
  978MOL0     C29016   3.560   5.724   1.814  0.3056  0.0013  0.2575
  978MOL0     C29017   3.510   5.792   1.929  0.2217  0.7968  1.4681
  978MOL0     C29018   3.501   6.089   2.288  0.3016 -0.1754 -0.1338
  978MOL0     C29019   3.517   6.213   2.358 -1.0130  0.1167  0.6763
  978MOL0     C29020   3.472   6.229   2.485 -0.3689  0.9957  0.2696
  978MOL0     C29021   3.406   6.122   2.545  0.4180  1.0517  0.1045
  978MOL0     O29022   3.343   6.126   2.663  0.5202 -0.4689  0.0787
  978MOL0     C29023   3.328   6.255   2.733 -0.2123 -0.0922  0.7336
  978MOL0     C29024   3.432   6.279   2.841 -0.5341  0.2648  0.1646
  978MOL0     C29025   3.442   6.168   2.941 -0.3282  0.1500 -0.7952
  978MOL0     C29026   3.353   6.196   3.061 -0.8253 -0.4017  0.0143
  978MOL0     C29027   3.409   6.297   3.150  1.2320  0.8734 -0.7277
  978MOL0     C29028   3.440   6.370   3.235 -0.9400  0.4539  0.6112
  978MOL0     C29029   3.404   5.996   2.484  0.0838 -0.2971 -0.5902
  978MOL0     C29030   3.444   5.976   2.362 -0.3361  0.7073 -0.5543
  978MOL0     H29031   3.718   6.047   1.906  1.9117 -0.8572 -2.9788
  978MOL0     H29032   3.784   5.947   1.712 -2.6051  0.4265 -0.6999
  978MOL0     H29033   3.906   5.769   1.661 -1.6795  0.2784 -0.3038
  978MOL0     H29034   3.885   5.660   1.517  0.1410 -3.4862 -0.1488
  978MOL0     H29035   3.843   5.567   1.796 -1.4869  2.9571 -0.1674
  978MOL0     H29036   4.013   5.596   1.731  0.2696 -0.3994 -2.7039
  978MOL0     H29037   3.971   5.443   1.544  1.6433 -1.4754  0.0494
  978MOL0     H29038   3.796   5.412   1.594  0.2713 -0.8411  1.7294
  978MOL0     H29039   4.069   5.341   1.707 -1.2338  0.2626  2.5429
  978MOL0     H29040   3.922   5.303   1.789  2.7324 -2.5404  1.0618
  978MOL0     H29041   3.996   5.173   1.514  1.6271 -3.7203  0.5623
  978MOL0     H29042   3.855   5.146   1.620 -1.2550  0.6091  1.5193
  978MOL0     H29043   3.968   5.047   1.774 -2.4432  4.1305 -0.5452
  978MOL0     H29044   4.113   5.147   1.762 -2.6162  1.4180  3.7844
  978MOL0     H29045   4.018   4.945   1.563 -0.0029 -1.4791  1.7463
  978MOL0     H29046   4.176   5.038   1.566  1.1199  0.0231  0.7375
  978MOL0     H29047   4.180   4.786   1.623 -1.3767 -1.4760  1.6839
  978MOL0     H29048   4.080   4.838   1.775 -0.1527  0.1455 -0.3837
  978MOL0     H29049   4.388   4.950   1.605 -0.8590  1.2507  1.5417
  978MOL0     H29050   4.687   4.895   1.875  2.6090  1.0560 -1.5975
  978MOL0     H29051   4.668   5.007   1.744  3.6135  0.5110  2.1303
  978MOL0     H29052   4.691   4.854   1.576  1.2500 -0.6628  0.2299
  978MOL0     H29053   4.608   4.726   1.655 -0.9879  0.2224 -1.8342
  978MOL0     H29054   4.869   4.812   1.784  0.8084  0.5354 -2.1132
  978MOL0     H29055   4.794   4.656   1.767  0.7070  0.4948  1.4638
  978MOL0     H29056   4.952   4.771   1.534  1.7658 -1.4790 -0.3138
  978MOL0     H29057   4.846   4.635   1.540  0.1199 -1.9434  0.5616
  978MOL0     H29058   5.113   4.680   1.426  1.7278  2.0778  1.1302
  978MOL0     H29059   5.272   4.558   1.310  1.8129  0.7026  0.5821
  978MOL0     H29060   5.695   4.421   1.185 -0.6941  0.0799  0.6629
  978MOL0     H29061   5.820   4.279   1.019  0.4373  1.3278  1.7437
  978MOL0     H29062   5.867   4.203   0.824 -1.1104 -0.7707  3.6106
  978MOL0     H29063   5.698   4.238   0.749  0.1467  0.2804  0.1085
  978MOL0     H29064   5.885   4.011   0.698 -3.1234 -1.4363  2.6408
  978MOL0     H29065   5.898   4.155   0.593  0.2167 -2.0730 -1.3494
  978MOL0     H29066   5.671   4.145   0.524 -0.3722 -0.5268  0.1008
  978MOL0     H29067   5.670   3.984   0.606  3.1256 -2.0125  0.2230
  978MOL0     H29068   5.849   3.909   0.455 -1.0068 -0.3414  1.6597
  978MOL0     H29069   5.716   3.983   0.353  1.3439 -0.9273 -0.8586
  978MOL0     H29070   5.992   4.082   0.414  1.4121  2.7256 -0.5350
  978MOL0     H29071   5.876   4.185   0.350 -0.8985 -0.7500  1.1442
  978MOL0     H29072   5.830   4.034   0.165  1.4542  1.5727 -2.0298
  978MOL0     H29073   5.951   3.913   0.229  0.6608 -0.9916  1.1022
  978MOL0     H29074   6.008   4.181   0.093 -1.0169 -0.8559 -1.5835
  978MOL0     H29075   6.125   4.110   0.216  0.0511 -2.2553  0.3073
  978MOL0     H29076   6.155   3.916   0.069 -1.9787 -1.3252 -0.9229
  978MOL0     H29077   6.164   4.058  -0.036 -1.3777 -0.0611 -1.1998
  978MOL0     H29078   5.479   4.032   1.004  2.7711 -1.8037  1.0545
  978MOL0     H29079   5.377   4.156   1.175  1.4270 -0.2633  2.0711
  978MOL0     H29080   5.312   4.278   1.639  1.2058 -0.2458 -1.2651
  978MOL0     H29081   5.126   4.429   1.765 -0.4590  1.3891 -0.9862
  978MOL0     H29082   3.536   5.621   1.788  0.2732 -0.4292  1.8783
  978MOL0     H29083   3.451   5.738   2.001 -1.4458  2.9050  1.7782
  978MOL0     H29084   3.552   6.305   2.312  0.3458 -1.7682 -2.3718
  978MOL0     H29085   3.478   6.331   2.523 -1.3380  0.3099  2.3918
  978MOL0     H29086   3.231   6.271   2.781 -0.0375  2.9732  0.2660
  978MOL0     H29087   3.321   6.343   2.669 -2.1567  1.2177  2.5840
  978MOL0     H29088   3.528   6.292   2.790 -2.0992  0.3108 -3.0103
  978MOL0     H29089   3.401   6.372   2.890  0.8778  1.3887 -1.0006
  978MOL0     H29090   3.546   6.145   2.967  0.1071 -0.5369 -2.9177
  978MOL0     H29091   3.423   6.072   2.891 -1.3028  0.1553 -0.4563
  978MOL0     H29092   3.255   6.222   3.020  0.2945 -2.0883 -4.2246
  978MOL0     H29093   3.347   6.107   3.125  2.2423  0.2372  1.3639
  978MOL0     H29094   3.480   6.448   3.296 -0.2589  2.1166 -1.8319
  978MOL0     H29095   3.352   5.913   2.531  1.0511  1.0738  3.2996
  978MOL0     H29096   3.419   5.880   2.317 -0.2116  0.2021  0.4345
  979MOL0     O29097   4.460   8.165   5.696 -0.1025  0.1970  0.8748
  979MOL0     C29098   4.431   8.107   5.588 -0.3097 -0.9869 -0.4724
  979MOL0     O29099   4.304   8.063   5.551 -0.8573  0.2614  0.2323
  979MOL0     C29100   4.195   8.091   5.629  0.9772  0.4769 -0.7481
  979MOL0     C29101   4.144   8.222   5.656 -0.7434 -0.3906 -0.1942
  979MOL0     C29102   4.038   8.242   5.743  0.6080 -0.7611 -0.1228
  979MOL0     C29103   3.971   8.136   5.793  0.5056  0.3016 -0.4647
  979MOL0     O29104   3.848   8.143   5.848  0.3481 -0.7163  0.0289
  979MOL0     C29105   3.785   8.274   5.867 -0.5391  0.5310 -0.7303
  979MOL0     C29106   3.645   8.252   5.906 -0.0943  0.4627  0.1140
  979MOL0     C29107   3.564   8.149   5.816  0.2796 -0.1802 -0.1452
  979MOL0     C29108   3.417   8.189   5.808 -0.4559  0.2255  0.0239
  979MOL0     C29109   3.353   8.096   5.702 -0.0824  0.8638  0.6383
  979MOL0     C29110   3.194   8.092   5.707 -0.6550 -0.9837  0.2565
  979MOL0     C29111   3.142   7.968   5.632  0.3318 -0.1630  0.0352
  979MOL0     C29112   3.000   7.995   5.586  0.1247  0.2436  0.1653
  979MOL0     N29113   2.894   7.981   5.686  0.3965  0.2607  0.1474
  979MOL0     C29114   2.838   7.861   5.731  0.1638 -0.4024 -0.5403
  979MOL0     C29115   2.737   7.894   5.817 -0.2195  0.0789  0.1760
  979MOL0     C29116   2.655   7.790   5.879  0.2010  0.4663 -0.8822
  979MOL0     C29117   2.539   7.847   5.969 -0.1416  0.2020 -0.2298
  979MOL0     C29118   2.419   7.885   5.876  0.3637  0.0482  0.6534
  979MOL0     C29119   2.291   7.931   5.959 -0.2372 -0.2864 -0.7184
  979MOL0     O29120   2.229   7.818   6.019 -0.1389 -0.1421 -0.3497
  979MOL0     C29121   2.143   7.835   6.118  0.7703  0.1855 -0.2698
  979MOL0     C29122   2.068   7.728   6.159  0.1920  0.1105 -0.0635
  979MOL0     C29123   1.954   7.739   6.238  0.4617  0.6764 -0.6478
  979MOL0     C29124   1.929   7.857   6.305 -0.1756 -0.8018 -0.0145
  979MOL0     C29125   1.823   7.862   6.412 -0.0111  0.3152 -0.0918
  979MOL0     O29126   1.821   7.964   6.492 -0.2869  0.1970 -0.4620
  979MOL0     C29127   1.733   7.982   6.598 -0.2594 -0.7669  0.1235
  979MOL0     C29128   1.723   8.118   6.632 -0.0461  0.0393  1.0566
  979MOL0     C29129   1.640   8.156   6.739 -0.1595  0.1652  0.5120
  979MOL0     C29130   1.563   8.059   6.813 -0.3877 -1.0496  0.1741
  979MOL0     O29131   1.488   8.110   6.912 -0.3333 -0.2610 -1.0038
  979MOL0     C29132   1.351   8.089   6.892  0.3999 -0.4557  0.4102
  979MOL0     C29133   1.290   8.008   6.998 -0.8696 -0.2082 -0.3793
  979MOL0     C29134   1.232   8.092   7.113 -0.4714 -0.4483 -0.7951
  979MOL0     C29135   1.336   8.182   7.189  0.4616  0.4708 -0.1832
  979MOL0     C29136   1.267   8.267   7.298  0.4772 -0.1007 -0.3586
  979MOL0     C29137   1.236   8.189   7.415  0.2089  0.4449  0.1347
  979MOL0     C29138   1.134   8.258   7.514  0.2447 -0.2170 -0.3844
  979MOL0     C29139   1.163   8.394   7.563  0.0549 -1.0638  0.2691
  979MOL0    Cl29140   1.324   8.388   7.654 -0.1047 -0.0604 -0.5320
  979MOL0     C29141   1.568   7.925   6.771 -0.5110  0.1406  0.4158
  979MOL0     C29142   1.665   7.891   6.674  0.7046  0.8280  0.2692
  979MOL0     O29143   1.762   7.757   6.424  1.3243 -0.1687  0.8006
  979MOL0     C29144   2.016   7.967   6.285 -0.6704  0.5692  0.3277
  979MOL0     C29145   2.121   7.954   6.184  0.3104  0.2301 -0.8016
  979MOL0     N29146   2.722   8.041   5.819  0.1678  0.4222 -0.6160
  979MOL0     N29147   2.817   8.083   5.742 -0.7813  0.2307 -0.2209
  979MOL0     C29148   4.024   8.007   5.772  0.0435  0.4500 -0.6649
  979MOL0     C29149   4.132   7.981   5.691  0.0619  0.8234  0.5681
  979MOL0     C29150   4.537   8.113   5.495 -0.4525 -1.3840  0.6642
  979MOL0     C29151   4.522   8.052   5.363 -0.3916 -0.8779 -0.2778
  979MOL0     C29152   4.630   8.034   5.283  0.0491  1.0782  0.1962
  979MOL0     C29153   4.758   8.058   5.330 -0.3973  0.4280 -0.1029
  979MOL0     O29154   4.863   8.035   5.251 -0.0819  0.5327 -0.6734
  979MOL0     C29155   4.907   7.900   5.245  0.4476 -0.4354  0.3329
  979MOL0     C29156   4.982   7.856   5.123 -0.5828  0.4087  0.4348
  979MOL0     C29157   5.117   7.923   5.104  0.8037  0.5032  0.2425
  979MOL0     C29158   5.236   7.816   5.083 -0.7030 -1.1423 -0.6321
  979MOL0     C29159   5.354   7.865   5.164  0.7321 -0.3414  0.0275
  979MOL0     C29160   5.465   7.889   5.213 -0.1721  0.3894 -0.3622
  979MOL0     C29161   4.780   8.122   5.454 -0.2031  0.5303 -0.3849
  979MOL0     C29162   4.670   8.146   5.538  0.3997  0.3304  0.2307
  979MOL0     H29163   4.221   8.293   5.626 -0.2049  0.1903  2.2856
  979MOL0     H29164   4.012   8.346   5.765 -1.1228 -0.8772 -1.4075
  979MOL0     H29165   3.794   8.326   5.771  2.7024 -0.8064 -1.2824
  979MOL0     H29166   3.847   8.334   5.934  1.6056  0.6958 -2.7166
  979MOL0     H29167   3.598   8.351   5.906  0.6663  0.8516  1.6379
  979MOL0     H29168   3.633   8.221   6.010 -1.0661  0.2614 -0.0494
  979MOL0     H29169   3.574   8.058   5.876 -1.3365 -0.2275  0.0853
  979MOL0     H29170   3.606   8.126   5.717 -0.1680 -2.3944  0.1197
  979MOL0     H29171   3.374   8.181   5.909 -1.6333  1.2933 -0.3613
  979MOL0     H29172   3.408   8.296   5.787  2.0401  0.9880  2.2769
  979MOL0     H29173   3.395   7.995   5.707 -0.9935  0.3995 -0.7573
  979MOL0     H29174   3.376   8.136   5.603  0.2044  0.9675  0.7463
  979MOL0     H29175   3.150   8.189   5.681  1.9847  0.5548  1.1259
  979MOL0     H29176   3.158   8.078   5.809 -3.2643  2.2436 -0.0297
  979MOL0     H29177   3.209   7.946   5.548  0.9121 -1.3190  0.7732
  979MOL0     H29178   3.139   7.883   5.700 -0.8511  0.0361  0.2528
  979MOL0     H29179   2.992   7.914   5.512  2.1863  1.6953 -1.7959
  979MOL0     H29180   3.000   8.089   5.530  4.1694 -0.8017 -2.0050
  979MOL0     H29181   2.865   7.758   5.711  2.7776 -1.0473  4.6129
  979MOL0     H29182   2.722   7.720   5.930  3.8416  2.8364 -2.0076
  979MOL0     H29183   2.605   7.728   5.804  0.2488 -0.9796  0.2306
  979MOL0     H29184   2.570   7.941   6.016  1.5094  0.5005 -1.8232
  979MOL0     H29185   2.514   7.768   6.040  2.3274 -0.4857 -0.0380
  979MOL0     H29186   2.439   7.970   5.810 -1.8684  0.1834  0.0873
  979MOL0     H29187   2.393   7.806   5.806  0.1009  0.6395  0.0794
  979MOL0     H29188   2.221   7.989   5.898  1.3667  2.8098  0.1936
  979MOL0     H29189   2.329   8.002   6.033  1.5500 -0.5828 -1.3031
  979MOL0     H29190   2.079   7.628   6.117 -1.2980 -0.2648  0.3574
  979MOL0     H29191   1.889   7.652   6.248 -2.1774  2.6967  1.3147
  979MOL0     H29192   1.783   8.189   6.577  1.3831 -1.5587  0.4465
  979MOL0     H29193   1.636   8.257   6.778  1.7385  0.2001  0.6847
  979MOL0     H29194   1.321   8.046   6.796  0.9337  1.8397 -0.8639
  979MOL0     H29195   1.319   8.194   6.890  1.6226 -0.0636  0.7806
  979MOL0     H29196   1.366   7.943   7.042 -0.5794 -1.9118 -3.1416
  979MOL0     H29197   1.209   7.944   6.962  0.4842 -2.4640  0.3742
  979MOL0     H29198   1.188   8.014   7.176 -3.5621  1.9784  0.2952
  979MOL0     H29199   1.149   8.154   7.076 -1.6293  0.4903  2.9537
  979MOL0     H29200   1.407   8.112   7.233 -0.9459  0.0988  1.5986
  979MOL0     H29201   1.379   8.230   7.101  1.8779 -1.8002 -0.8186
  979MOL0     H29202   1.175   8.318   7.267  0.4006 -0.0718 -0.0802
  979MOL0     H29203   1.334   8.350   7.325  1.1533 -0.4515 -0.9083
  979MOL0     H29204   1.335   8.168   7.458 -0.1601 -0.4466  0.5725
  979MOL0     H29205   1.192   8.091   7.394 -0.3781  0.7921 -0.2770
  979MOL0     H29206   1.037   8.271   7.465  0.3493 -0.3287 -0.6186
  979MOL0     H29207   1.120   8.192   7.601 -0.8622  1.2203  0.5810
  979MOL0     H29208   1.089   8.445   7.626 -0.1360  3.2596 -2.9542
  979MOL0     H29209   1.170   8.462   7.477  0.0935  1.5180  2.2091
  979MOL0     H29210   1.505   7.850   6.817 -2.5813  3.2535  3.1044
  979MOL0     H29211   1.674   7.783   6.666  1.0629  0.8649  0.1579
  979MOL0     H29212   2.015   8.057   6.346 -2.5466  0.4429  0.5363
  979MOL0     H29213   2.178   8.040   6.151 -0.7572  1.2671 -0.0204
  979MOL0     H29214   3.964   7.920   5.799  1.0482  0.0634  0.3914
  979MOL0     H29215   4.162   7.880   5.667 -0.3868  0.5861  1.0007
  979MOL0     H29216   4.422   8.023   5.333 -0.4636  0.4376 -1.4153
  979MOL0     H29217   4.626   7.986   5.186 -0.5212  4.1128 -1.3746
  979MOL0     H29218   4.820   7.833   5.253  0.1381  0.0126  0.7760
  979MOL0     H29219   4.963   7.876   5.336  1.7900 -2.3505 -0.9368
  979MOL0     H29220   4.994   7.748   5.133  2.5612  0.8089  2.6572
  979MOL0     H29221   4.927   7.865   5.029 -2.2912  0.9260  1.4528
  979MOL0     H29222   5.132   7.984   5.193 -1.3433  0.1706  0.9010
  979MOL0     H29223   5.113   7.993   5.020  0.0423 -0.1647 -0.3028
  979MOL0     H29224   5.198   7.718   5.110 -1.2318 -1.3117 -1.9495
  979MOL0     H29225   5.260   7.814   4.976 -0.7855 -2.8725 -0.6423
  979MOL0     H29226   5.559   7.906   5.261 -1.2407  1.4878  1.4558
  979MOL0     H29227   4.878   8.164   5.473 -0.1698  0.0885  0.4665
  979MOL0     H29228   4.693   8.189   5.635  1.9204 -0.2803  0.1628
  980MOL0     O29229   0.579   9.051   6.305  0.5689  0.3708  0.1946
  980MOL0     C29230   0.578   9.076   6.422  0.1205 -1.3792 -0.2188
  980MOL0     O29231   0.473   9.068   6.507 -0.2357  0.7328 -0.3324
  980MOL0     C29232   0.349   9.020   6.466  0.9408  1.1419  0.3841
  980MOL0     C29233   0.240   9.053   6.542  0.6227 -0.0690  0.0111
  980MOL0     C29234   0.117   9.019   6.489 -0.1702 -0.5738 -0.6760
  980MOL0     C29235   0.105   8.934   6.376 -0.3331 -0.8936 -0.0748
  980MOL0     O29236  -0.018   8.913   6.326  0.4160  0.2853  0.4260
  980MOL0     C29237  -0.097   9.028   6.267 -0.0829 -0.7634  0.5375
  980MOL0     C29238  -0.032   9.091   6.152  0.7554  0.2020  0.3974
  980MOL0     C29239   0.028   9.227   6.194  0.0775  0.9804 -0.0936
  980MOL0     C29240   0.115   9.297   6.080 -0.4686 -0.8034 -0.2740
  980MOL0     C29241   0.178   9.419   6.125  0.4715 -0.5933 -1.9059
  980MOL0     C29242   0.287   9.471   6.027  0.6577 -0.1572 -0.3337
  980MOL0     C29243   0.419   9.399   6.052 -0.8076 -0.3397 -0.3969
  980MOL0     C29244   0.500   9.345   5.927  0.6817  0.2055 -0.6016
  980MOL0     N29245   0.486   9.193   5.893 -0.5394  0.2811  0.9319
  980MOL0     C29246   0.484   9.098   5.987 -0.0325  0.0214  0.9619
  980MOL0     C29247   0.409   8.999   5.925 -0.9984  0.8637 -1.0250
  980MOL0     C29248   0.391   8.860   5.982 -0.0030  0.1172 -0.0417
  980MOL0     C29249   0.481   8.765   5.903 -1.5630  0.5620  0.5095
  980MOL0     C29250   0.452   8.617   5.932 -0.2836  0.7937 -0.3831
  980MOL0     C29251   0.575   8.537   5.896  0.8347  0.1167  0.1624
  980MOL0     O29252   0.546   8.391   5.899  0.4316  0.4356  0.3179
  980MOL0     C29253   0.576   8.314   5.786  0.4190  0.1660 -0.2774
  980MOL0     C29254   0.505   8.350   5.671  0.0358  0.5400 -1.2441
  980MOL0     C29255   0.537   8.283   5.554 -0.1973 -1.2199 -0.0664
  980MOL0     C29256   0.635   8.183   5.546 -1.1102  0.5125 -0.1433
  980MOL0     C29257   0.693   8.134   5.418  0.9890 -0.7933 -0.2524
  980MOL0     O29258   0.792   8.040   5.419  0.0674 -0.0881 -0.0223
  980MOL0     C29259   0.829   7.981   5.300 -0.3531  0.3842 -0.2896
  980MOL0     C29260   0.947   8.028   5.237  1.0236  0.2603 -0.3400
  980MOL0     C29261   0.982   7.978   5.116  1.2362  0.1327  0.3170
  980MOL0     C29262   0.913   7.872   5.055 -0.0438 -0.5945 -0.1956
  980MOL0     O29263   0.942   7.826   4.930  0.3286  0.0685 -0.0860
  980MOL0     C29264   1.022   7.887   4.832 -0.7682  0.8903  0.1124
  980MOL0     C29265   1.163   7.818   4.823  0.3221  0.1292 -0.9140
  980MOL0     C29266   1.151   7.672   4.772 -0.2504 -0.3677  0.1170
  980MOL0     C29267   1.095   7.647   4.632 -0.1011 -0.5076 -0.5031
  980MOL0     C29268   1.119   7.507   4.579  0.7193 -0.5577 -0.0265
  980MOL0     C29269   1.026   7.485   4.461  0.8820  0.3183  0.3732
  980MOL0     C29270   1.088   7.395   4.355  0.1889  0.1822 -0.7164
  980MOL0     C29271   1.070   7.466   4.224 -0.1895  0.5234 -0.0437
  980MOL0    Cl29272   1.171   7.623   4.209  0.3054 -0.6772 -0.5528
  980MOL0     C29273   0.801   7.814   5.129  0.4617 -0.0786 -0.0929
  980MOL0     C29274   0.755   7.870   5.251 -0.7950  0.4877  1.0037
  980MOL0     O29275   0.634   8.174   5.315  0.3148 -0.6251 -0.6391
  980MOL0     C29276   0.692   8.133   5.664 -1.3463 -0.0339  0.4291
  980MOL0     C29277   0.668   8.203   5.781  0.7624  0.9349 -0.6117
  980MOL0     N29278   0.379   9.038   5.794  1.0652 -0.3233  0.5194
  980MOL0     N29279   0.416   9.156   5.777  0.6279 -0.0877  0.1960
  980MOL0     C29280   0.213   8.886   6.318  0.2507  0.2897 -0.0040
  980MOL0     C29281   0.340   8.920   6.358  0.0013 -0.6646 -0.3089
  980MOL0     C29282   0.694   9.153   6.474  0.7931  0.1601 -0.4333
  980MOL0     C29283   0.708   9.172   6.615 -0.3727  0.0790 -0.0448
  980MOL0     C29284   0.816   9.248   6.668  0.3560  1.2279 -0.1260
  980MOL0     C29285   0.924   9.294   6.594  0.4084 -0.0872 -0.2922
  980MOL0     O29286   1.044   9.353   6.640  0.0641  0.3160  0.4076
  980MOL0     C29287   1.054   9.377   6.783 -1.2992 -0.0723  0.3713
  980MOL0     C29288   1.144   9.265   6.851  0.5663 -0.6670 -0.0531
  980MOL0     C29289   1.172   9.137   6.773 -0.5869  0.4331 -0.1966
  980MOL0     C29290   1.077   9.019   6.805  0.0135  0.5622  0.1097
  980MOL0     C29291   1.102   8.968   6.945 -0.3998  0.1276  0.9368
  980MOL0     C29292   1.145   8.912   7.043  0.4155  0.8946  1.0397
  980MOL0     C29293   0.906   9.271   6.455 -0.5422 -0.5017  0.4969
  980MOL0     C29294   0.792   9.208   6.395 -0.1592 -0.3437 -0.1689
  980MOL0     H29295   0.252   9.124   6.623  1.9711  0.3090 -0.4991
  980MOL0     H29296   0.028   9.061   6.536 -1.1663 -1.7828 -1.4186
  980MOL0     H29297  -0.101   9.097   6.351  3.5330  0.8528 -0.4360
  980MOL0     H29298  -0.194   8.989   6.234 -0.1207 -2.1292  2.1081
  980MOL0     H29299  -0.103   9.098   6.069  1.3611 -0.7589 -0.2175
  980MOL0     H29300   0.049   9.028   6.114  0.2602 -0.3233  0.2018
  980MOL0     H29301   0.083   9.220   6.288  0.9098 -2.1378 -0.6975
  980MOL0     H29302  -0.052   9.300   6.210 -0.4945  0.5036 -0.7352
  980MOL0     H29303   0.192   9.228   6.044 -0.5622 -2.1763  1.9467
  980MOL0     H29304   0.050   9.319   5.995 -1.3684  3.6276  1.3500
  980MOL0     H29305   0.212   9.409   6.229  0.2227 -1.5445 -1.9085
  980MOL0     H29306   0.105   9.500   6.131 -1.0536 -2.0206  0.1570
  980MOL0     H29307   0.284   9.580   6.016  1.9252 -0.1398 -0.6830
  980MOL0     H29308   0.252   9.443   5.927 -1.9478 -3.3011  1.2903
  980MOL0     H29309   0.486   9.462   6.111  0.7813  0.8807 -3.2870
  980MOL0     H29310   0.394   9.312   6.114 -4.9061  0.4163 -0.6880
  980MOL0     H29311   0.606   9.373   5.934  0.0361  2.4691  3.6473
  980MOL0     H29312   0.468   9.405   5.842  0.9231  0.1988 -0.6986
  980MOL0     H29313   0.530   9.110   6.084  1.7835  1.3252  0.0149
  980MOL0     H29314   0.288   8.831   5.956 -0.1552 -0.5840  1.2426
  980MOL0     H29315   0.410   8.849   6.089  0.0766 -3.0142 -0.2742
  980MOL0     H29316   0.585   8.797   5.918 -0.2312 -3.1703  0.5118
  980MOL0     H29317   0.467   8.790   5.798 -0.8063  1.5058  0.6138
  980MOL0     H29318   0.431   8.610   6.039  2.6345  0.8404  0.2814
  980MOL0     H29319   0.370   8.576   5.872  0.4327 -0.6570 -0.4330
  980MOL0     H29320   0.651   8.574   5.965  3.2305  1.2590 -2.8625
  980MOL0     H29321   0.612   8.574   5.800 -0.7657  4.6227  1.0095
  980MOL0     H29322   0.430   8.427   5.675  0.0263  0.4588  0.9608
  980MOL0     H29323   0.485   8.310   5.463  1.7739 -2.3587 -1.6041
  980MOL0     H29324   1.010   8.112   5.264  1.4419 -0.1322 -0.0878
  980MOL0     H29325   1.070   8.028   5.077  3.3213 -2.3125  1.5983
  980MOL0     H29326   1.036   7.994   4.843  0.8689  0.8137 -0.9278
  980MOL0     H29327   0.985   7.875   4.730  0.7365  1.8165 -0.5708
  980MOL0     H29328   1.228   7.828   4.910  0.0593  0.3608 -0.7435
  980MOL0     H29329   1.209   7.876   4.743  3.2609 -1.5143 -0.5720
  980MOL0     H29330   1.090   7.616   4.843 -3.1863 -0.4463 -2.2425
  980MOL0     H29331   1.242   7.613   4.780 -1.2421 -2.6300 -3.1514
  980MOL0     H29332   0.988   7.663   4.643  0.4071  2.6388  1.1227
  980MOL0     H29333   1.123   7.732   4.568 -1.3940  1.7941  1.8027
  980MOL0     H29334   1.103   7.430   4.656 -2.2291 -2.4833 -2.3447
  980MOL0     H29335   1.223   7.503   4.546  0.7044  0.4078 -0.2246
  980MOL0     H29336   0.987   7.583   4.432 -1.5651 -0.6718  0.0764
  980MOL0     H29337   0.933   7.435   4.492  1.9913 -2.1478 -0.0118
  980MOL0     H29338   1.193   7.377   4.381  0.0944 -1.3597 -1.3498
  980MOL0     H29339   1.031   7.302   4.350  0.3496 -0.0397  1.1288
  980MOL0     H29340   0.964   7.481   4.204 -0.4357 -0.4815  0.4248
  980MOL0     H29341   1.112   7.390   4.157 -0.3750 -1.7387  2.2288
  980MOL0     H29342   0.743   7.735   5.082  0.4215 -0.3428  0.3964
  980MOL0     H29343   0.658   7.841   5.292 -1.1971  2.4890  1.5651
  980MOL0     H29344   0.763   8.051   5.665 -3.0556 -1.9725  6.6952
  980MOL0     H29345   0.722   8.191   5.874 -0.5354 -0.4223  0.0037
  980MOL0     H29346   0.187   8.837   6.224  0.2573 -1.9261  1.0882
  980MOL0     H29347   0.426   8.867   6.320 -1.3731 -1.1039 -3.0293
  980MOL0     H29348   0.635   9.124   6.680 -1.1089 -0.0013 -0.9250
  980MOL0     H29349   0.795   9.248   6.775  0.0818  0.1463 -0.1601
  980MOL0     H29350   0.955   9.395   6.825 -0.3096  2.2580  1.9195
  980MOL0     H29351   1.105   9.474   6.790  1.7614 -1.5019 -0.1593
  980MOL0     H29352   1.236   9.313   6.887  0.0883 -0.1157  0.4413
  980MOL0     H29353   1.097   9.236   6.946  1.7564 -0.3933  0.6471
  980MOL0     H29354   1.276   9.112   6.792 -1.3466 -3.5434 -0.4004
  980MOL0     H29355   1.179   9.153   6.665  3.0249 -1.0343 -0.2987
  980MOL0     H29356   0.973   9.051   6.797 -0.2122 -0.3744 -0.9020
  980MOL0     H29357   1.091   8.936   6.736  1.8917  2.2572 -1.7078
  980MOL0     H29358   1.180   8.850   7.123  3.2581 -1.5397 -1.8259
  980MOL0     H29359   0.994   9.284   6.393 -1.1412  0.7621 -0.1262
  980MOL0     H29360   0.786   9.199   6.287 -0.4440 -0.5839 -0.1338
  981MOL0     O29361   5.809   6.830   0.886  0.4006 -0.0147 -0.2957
  981MOL0     C29362   5.796   6.956   0.884  0.1964 -0.0229 -0.2421
  981MOL0     O29363   5.783   7.031   0.775 -0.7539 -0.0859  0.9094
  981MOL0     C29364   5.758   6.975   0.648  1.4594  0.5321 -1.2428
  981MOL0     C29365   5.656   6.883   0.635 -0.3922  0.0367 -0.1672
  981MOL0     C29366   5.627   6.843   0.503  0.4092  0.3776  0.9089
  981MOL0     C29367   5.677   6.906   0.396  0.0315 -0.2927  0.9070
  981MOL0     O29368   5.630   6.877   0.265  0.5386 -0.2951  0.1496
  981MOL0     C29369   5.617   6.987   0.169 -0.6554  0.4313 -0.6839
  981MOL0     C29370   5.471   6.989   0.125  0.4552 -0.0484  0.5551
  981MOL0     C29371   5.414   7.129   0.083  0.7376  0.1641  1.1427
  981MOL0     C29372   5.281   7.124   0.001  0.3064  0.0836  0.6760
  981MOL0     C29373   5.232   7.269  -0.024  0.8035 -0.0598 -0.1931
  981MOL0     C29374   5.158   7.332   0.094 -0.7403  0.1451  0.2160
  981MOL0     C29375   5.059   7.441   0.047 -0.4494  0.2334 -0.4595
  981MOL0     C29376   5.130   7.567  -0.011  0.4291 -0.0673 -0.1809
  981MOL0     N29377   5.248   7.609   0.070  0.3689 -0.9672 -0.3834
  981MOL0     C29378   5.246   7.704   0.170  0.1458 -0.1870  0.5452
  981MOL0     C29379   5.376   7.713   0.205 -0.6509  0.0280  0.0712
  981MOL0     C29380   5.430   7.801   0.311  0.4859  0.5358  1.0070
  981MOL0     C29381   5.496   7.709   0.413  0.2590  0.0658 -0.1194
  981MOL0     C29382   5.534   7.784   0.538 -0.3785 -0.7706  0.0777
  981MOL0     C29383   5.634   7.713   0.635  0.1732  0.1678 -0.4869
  981MOL0     O29384   5.760   7.678   0.570 -0.2150 -1.0054  0.7350
  981MOL0     C29385   5.838   7.579   0.625  0.9802 -0.3243  0.9799
  981MOL0     C29386   5.857   7.563   0.759 -0.0162 -0.5787 -0.4612
  981MOL0     C29387   5.922   7.460   0.813  0.5967  0.3916 -0.7035
  981MOL0     C29388   5.984   7.370   0.723  1.2325 -0.5930  0.0623
  981MOL0     C29389   6.053   7.252   0.780 -1.3308  0.5283 -0.0160
  981MOL0     O29390   6.046   7.237   0.907 -0.1919  0.3650 -0.3420
  981MOL0     C29391   6.098   7.141   0.987 -0.5830 -0.6820  0.7923
  981MOL0     C29392   6.145   7.158   1.123 -0.0100  0.7775  0.4383
  981MOL0     C29393   6.203   7.048   1.186 -0.0488 -1.2803  0.0521
  981MOL0     C29394   6.217   6.921   1.129  0.0953 -0.0054  0.4405
  981MOL0     O29395   6.252   6.798   1.192  0.1251 -0.5601 -0.2436
  981MOL0     C29396   6.319   6.808   1.313 -0.3704  1.0376 -0.9119
  981MOL0     C29397   6.307   6.665   1.374 -0.6197  0.7066  0.4942
  981MOL0     C29398   6.164   6.597   1.363 -0.6104  0.1912 -0.2724
  981MOL0     C29399   6.046   6.688   1.415  0.8787 -0.0997 -0.9092
  981MOL0     C29400   5.899   6.636   1.388  0.5936 -0.2141 -0.1632
  981MOL0     C29401   5.870   6.533   1.497  0.0882 -0.0885 -0.6727
  981MOL0     C29402   5.716   6.499   1.502 -0.0944 -0.2078 -0.2860
  981MOL0     C29403   5.683   6.417   1.629 -0.1640 -0.5784  0.5129
  981MOL0    Cl29404   5.728   6.513   1.785  0.9299 -0.0759  0.3420
  981MOL0     C29405   6.171   6.902   0.997  0.7200  0.3113 -0.4481
  981MOL0     C29406   6.108   7.014   0.934 -0.4660  1.1027  0.5701
  981MOL0     O29407   6.109   7.176   0.698  0.2365 -0.0949  0.8393
  981MOL0     C29408   5.970   7.387   0.583 -0.0764 -0.4923 -0.0362
  981MOL0     C29409   5.905   7.497   0.535  0.8579 -0.7148 -0.5201
  981MOL0     N29410   5.448   7.640   0.115 -0.1745  0.3832 -0.0786
  981MOL0     N29411   5.373   7.570   0.038  0.6408  0.3216  0.5571
  981MOL0     C29412   5.773   7.013   0.418 -0.1167  0.5976  0.3625
  981MOL0     C29413   5.816   7.042   0.546  1.0012  0.6215  1.1026
  981MOL0     C29414   5.794   7.024   1.021  0.4079  0.0640  0.9858
  981MOL0     C29415   5.777   7.163   1.027  0.4520  0.3466 -0.5437
  981MOL0     C29416   5.769   7.226   1.155 -0.3508 -0.5533 -0.2296
  981MOL0     C29417   5.789   7.153   1.275  0.3895  0.2695  0.4271
  981MOL0     O29418   5.773   7.206   1.404 -0.4914 -0.4392 -0.1755
  981MOL0     C29419   5.697   7.333   1.417  0.6277  0.4712 -0.5027
  981MOL0     C29420   5.604   7.329   1.539  0.3090 -1.2469  0.6625
  981MOL0     C29421   5.670   7.307   1.675  0.0091  0.4665  0.1886
  981MOL0     C29422   5.618   7.366   1.792  0.0375 -0.6244 -0.3278
  981MOL0     C29423   5.679   7.347   1.917 -1.0745 -0.6185 -0.2991
  981MOL0     C29424   5.740   7.343   2.020  0.3183 -0.6533  0.0524
  981MOL0     C29425   5.819   7.021   1.262 -0.1474  0.6021 -0.0976
  981MOL0     C29426   5.822   6.961   1.141  0.6193  1.7574  0.7205
  981MOL0     H29427   5.604   6.831   0.716 -1.4550  1.9462  0.4479
  981MOL0     H29428   5.561   6.757   0.494  1.3701 -0.3277  0.3706
  981MOL0     H29429   5.678   6.964   0.081 -2.1121  2.7519 -2.4204
  981MOL0     H29430   5.645   7.083   0.214  2.3280 -2.2805  4.0791
  981MOL0     H29431   5.414   6.956   0.212 -0.1476 -0.0917  0.1501
  981MOL0     H29432   5.453   6.906   0.056 -4.5864  1.4636 -0.3614
  981MOL0     H29433   5.491   7.182   0.026  0.1759 -1.3552 -1.1637
  981MOL0     H29434   5.385   7.186   0.172  0.4915  0.8960  0.6049
  981MOL0     H29435   5.300   7.069  -0.091 -0.5558  1.1091 -0.1333
  981MOL0     H29436   5.211   7.059   0.054  0.0913 -0.2006  0.0479
  981MOL0     H29437   5.158   7.269  -0.105  1.5475 -3.7408 -1.0659
  981MOL0     H29438   5.313   7.332  -0.061  2.2123 -1.8364 -0.3027
  981MOL0     H29439   5.238   7.374   0.156  0.5325  0.9107 -1.8548
  981MOL0     H29440   5.124   7.250   0.158  0.6000  0.2978  1.1790
  981MOL0     H29441   4.985   7.409  -0.027 -0.5796  1.6537 -0.9741
  981MOL0     H29442   4.993   7.456   0.133 -0.3036 -1.4963 -0.0099
  981MOL0     H29443   5.050   7.641  -0.017  1.9849  1.5261 -2.5880
  981MOL0     H29444   5.164   7.549  -0.113  0.9769 -0.2003  0.0209
  981MOL0     H29445   5.157   7.740   0.220 -2.9642 -1.2287 -3.6528
  981MOL0     H29446   5.341   7.860   0.334  1.3147  2.5672 -0.6458
  981MOL0     H29447   5.493   7.869   0.254 -0.9595 -0.2968 -1.7861
  981MOL0     H29448   5.586   7.664   0.370 -1.2123 -3.4093  0.1094
  981MOL0     H29449   5.431   7.629   0.448 -0.3462  0.3424 -0.5851
  981MOL0     H29450   5.589   7.875   0.515  0.4061 -0.1088  3.9771
  981MOL0     H29451   5.446   7.813   0.595 -0.1185  1.3806 -0.5524
  981MOL0     H29452   5.590   7.619   0.670 -0.5633 -0.9367 -3.9444
  981MOL0     H29453   5.653   7.773   0.724  1.9817  1.0673 -1.4377
  981MOL0     H29454   5.830   7.642   0.828 -1.3290 -0.2187 -1.3379
  981MOL0     H29455   5.929   7.448   0.921 -2.6705 -3.0810 -0.6665
  981MOL0     H29456   6.127   7.255   1.169 -1.3018 -0.1096  1.9217
  981MOL0     H29457   6.237   7.066   1.288 -0.3521  0.1394 -0.0803
  981MOL0     H29458   6.264   6.872   1.382 -0.4066 -0.0878  0.1348
  981MOL0     H29459   6.423   6.840   1.301  0.7563 -1.9108 -0.0892
  981MOL0     H29460   6.342   6.664   1.478 -0.4248 -0.2075  0.4249
  981MOL0     H29461   6.372   6.598   1.319 -2.3841 -0.2740 -0.4687
  981MOL0     H29462   6.178   6.505   1.422 -0.2072  0.1452 -0.4351
  981MOL0     H29463   6.135   6.566   1.263 -1.9057 -1.8673  0.6634
  981MOL0     H29464   6.056   6.711   1.522 -1.9746  1.0295 -0.8029
  981MOL0     H29465   6.032   6.790   1.380 -0.8416 -0.4824 -1.4414
  981MOL0     H29466   5.885   6.596   1.287 -0.2208  0.3037 -0.2636
  981MOL0     H29467   5.845   6.731   1.397  1.5348  0.3685 -0.4540
  981MOL0     H29468   5.903   6.562   1.597  2.4749 -3.5167 -0.2823
  981MOL0     H29469   5.938   6.448   1.485 -1.8941 -2.4163  2.8656
  981MOL0     H29470   5.660   6.593   1.508  1.9441  0.9793  0.9317
  981MOL0     H29471   5.693   6.440   1.412  6.3492 -2.4768 -0.9289
  981MOL0     H29472   5.743   6.327   1.618 -0.5000 -0.5460 -2.7858
  981MOL0     H29473   5.575   6.399   1.623 -0.0718 -2.0479  2.4455
  981MOL0     H29474   6.186   6.800   0.963 -2.9775 -0.1479 -1.1610
  981MOL0     H29475   6.081   6.999   0.831  1.0716  0.1795  0.2597
  981MOL0     H29476   6.018   7.318   0.516  1.5589 -0.4089  1.0065
  981MOL0     H29477   5.902   7.506   0.427 -0.4502  1.2006 -0.3831
  981MOL0     H29478   5.816   7.071   0.337  3.3474  0.4923  1.9395
  981MOL0     H29479   5.882   7.127   0.552  2.3516 -0.0778 -1.8467
  981MOL0     H29480   5.765   7.205   0.928 -1.3501 -1.6109 -1.2345
  981MOL0     H29481   5.742   7.331   1.148 -0.0414 -0.5472 -1.7057
  981MOL0     H29482   5.636   7.346   1.327  0.0602 -0.5189 -0.2746
  981MOL0     H29483   5.763   7.419   1.425 -0.1414  0.9127  3.8080
  981MOL0     H29484   5.553   7.426   1.545 -1.1206 -1.7360 -2.0296
  981MOL0     H29485   5.535   7.247   1.517 -0.0040 -1.0984  1.0791
  981MOL0     H29486   5.777   7.328   1.678  0.3953 -1.3481  2.6054
  981MOL0     H29487   5.665   7.198   1.686  0.4768  0.3454 -0.7159
  981MOL0     H29488   5.618   7.474   1.774  0.7851 -0.0118  2.6809
  981MOL0     H29489   5.520   7.318   1.788 -0.9881  1.4419 -3.4440
  981MOL0     H29490   5.808   7.364   2.100 -0.8985 -0.1221  0.9771
  981MOL0     H29491   5.848   6.963   1.349 -0.5323  0.3264 -0.1499
  981MOL0     H29492   5.845   6.854   1.142 -1.8641  1.1114 -1.4167
  982MOL0     O29493   0.661   7.902   7.675 -0.0692  0.8530  0.6661
  982MOL0     C29494   0.715   7.807   7.717  1.0356  0.8285 -0.0776
  982MOL0     O29495   0.679   7.746   7.840 -0.0463  0.2022  0.6007
  982MOL0     C29496   0.540   7.730   7.858  0.7737 -0.3751 -0.3478
  982MOL0     C29497   0.486   7.716   7.989 -0.0050 -0.0214 -0.2873
  982MOL0     C29498   0.348   7.698   8.012 -0.4616  0.0304  1.5706
  982MOL0     C29499   0.261   7.677   7.900  0.2274  0.1584 -0.9977
  982MOL0     O29500   0.128   7.660   7.931  0.4873 -0.4469 -0.0509
  982MOL0     C29501   0.060   7.790   7.912  0.1184  0.3635 -0.0696
  982MOL0     C29502  -0.088   7.767   7.941 -0.2585 -0.8739  0.3479
  982MOL0     C29503  -0.162   7.650   7.885 -0.0980 -0.0190 -0.3287
  982MOL0     C29504  -0.298   7.633   7.951  0.7806 -0.6580 -1.1493
  982MOL0     C29505  -0.282   7.598   8.106 -0.6419  0.6700 -0.9332
  982MOL0     C29506  -0.294   7.447   8.126 -0.2123  0.2483 -1.0443
  982MOL0     C29507  -0.279   7.405   8.274 -0.3933 -0.4633  0.3409
  982MOL0     C29508  -0.277   7.252   8.295  1.0014 -0.1192 -0.3194
  982MOL0     N29509  -0.414   7.202   8.275  0.6663 -0.0227  0.8211
  982MOL0     C29510  -0.469   7.140   8.158  0.0646  0.4218  0.1449
  982MOL0     C29511  -0.578   7.077   8.200 -0.3519 -0.5800 -0.4063
  982MOL0     C29512  -0.657   7.000   8.105 -0.7933  0.2832  0.8886
  982MOL0     C29513  -0.807   7.003   8.113  0.2093  0.9300 -0.1067
  982MOL0     C29514  -0.872   7.122   8.045 -0.6183 -0.0569  0.1119
  982MOL0     C29515  -1.024   7.121   8.042  0.9087  0.1958 -0.5382
  982MOL0     O29516  -1.075   7.017   7.959 -0.0883 -0.2330 -0.1336
  982MOL0     C29517  -1.204   7.025   7.919 -0.5385  0.3540 -0.5382
  982MOL0     C29518  -1.289   7.141   7.933  0.1678  0.8405  0.4501
  982MOL0     C29519  -1.421   7.131   7.907  0.8002 -0.8216  0.7414
  982MOL0     C29520  -1.482   7.020   7.850 -0.7128 -0.4582  0.0408
  982MOL0     C29521  -1.626   7.010   7.835  0.3563  0.2943 -0.0671
  982MOL0     O29522  -1.691   7.063   7.934  0.3360 -0.0431  0.1130
  982MOL0     C29523  -1.819   7.105   7.915 -0.6549 -0.1356 -1.1671
  982MOL0     C29524  -1.852   7.191   7.805  0.7204 -0.4599 -0.4078
  982MOL0     C29525  -1.979   7.221   7.776  0.9845 -0.1062  0.2686
  982MOL0     C29526  -2.084   7.184   7.860 -0.2737 -0.3187 -0.7653
  982MOL0     O29527  -2.205   7.231   7.823 -0.4377  0.6698 -0.2534
  982MOL0     C29528  -2.325   7.202   7.881 -0.5967  1.0439  0.1389
  982MOL0     C29529  -2.375   7.055   7.874  0.4337 -0.1198 -0.0880
  982MOL0     C29530  -2.388   6.990   7.747  1.4445  0.3914  1.3475
  982MOL0     C29531  -2.537   7.023   7.690 -0.6059  0.2771  0.9803
  982MOL0     C29532  -2.554   6.963   7.550  0.5187 -0.1743 -0.0604
  982MOL0     C29533  -2.686   6.996   7.481 -1.2081 -0.7526 -0.4343
  982MOL0     C29534  -2.706   7.150   7.457 -1.1853  0.3751 -1.3217
  982MOL0     C29535  -2.801   7.217   7.555  0.1494  0.4567  0.3107
  982MOL0    Cl29536  -2.800   7.389   7.539  0.1531 -0.5717 -0.5420
  982MOL0     C29537  -2.059   7.113   7.981 -0.7884 -0.0100  0.1995
  982MOL0     C29538  -1.924   7.074   8.001  0.3351 -0.2912  0.1539
  982MOL0     O29539  -1.670   6.951   7.740  1.2123  0.4187  0.4223
  982MOL0     C29540  -1.398   6.911   7.817  0.4394 -0.2631  0.1564
  982MOL0     C29541  -1.268   6.913   7.871  0.4601  0.4787  0.5756
  982MOL0     N29542  -0.603   7.115   8.330  0.1341  0.3901  0.6049
  982MOL0     N29543  -0.494   7.172   8.382  0.0257  0.1425  0.4995
  982MOL0     C29544   0.312   7.680   7.778  0.3552  1.1690 -0.0273
  982MOL0     C29545   0.451   7.711   7.751 -0.7545 -0.0929  0.3877
  982MOL0     C29546   0.834   7.749   7.642  0.5230 -0.4773 -0.0396
  982MOL0     C29547   0.902   7.639   7.694  0.4172 -0.1451 -0.1875
  982MOL0     C29548   1.020   7.584   7.626  0.7665  0.8728  0.0446
  982MOL0     C29549   1.076   7.650   7.514  0.0156  0.1450 -0.8535
  982MOL0     O29550   1.188   7.609   7.450 -0.5098  0.8612 -0.4484
  982MOL0     C29551   1.270   7.703   7.381 -0.4279  1.0429 -0.1814
  982MOL0     C29552   1.386   7.743   7.477 -0.6617 -0.0979 -0.6166
  982MOL0     C29553   1.347   7.853   7.578 -0.3160 -0.0295 -0.6233
  982MOL0     C29554   1.467   7.937   7.630 -0.0542  0.4790  0.7172
  982MOL0     C29555   1.518   7.865   7.741 -0.1588 -0.3676  0.3122
  982MOL0     C29556   1.570   7.814   7.834  1.1004 -0.0967  0.2380
  982MOL0     C29557   1.005   7.759   7.472 -0.6563 -0.2670  0.4709
  982MOL0     C29558   0.879   7.798   7.521  0.1965 -1.1816 -0.1778
  982MOL0     H29559   0.546   7.755   8.071  0.1823 -1.5491  0.3389
  982MOL0     H29560   0.295   7.699   8.107 -0.7013  0.6408  1.4303
  982MOL0     H29561   0.062   7.808   7.804 -1.4586 -1.3655 -0.4320
  982MOL0     H29562   0.102   7.874   7.968 -1.3232 -1.2409  3.7119
  982MOL0     H29563  -0.137   7.854   7.898 -1.0911 -1.8633 -0.7843
  982MOL0     H29564  -0.101   7.774   8.049  1.3926  1.4534  0.4763
  982MOL0     H29565  -0.097   7.563   7.897  1.3717  0.8554 -1.5893
  982MOL0     H29566  -0.169   7.666   7.777  2.9497  1.1182 -0.4526
  982MOL0     H29567  -0.356   7.724   7.932  0.5772 -0.4701  0.2788
  982MOL0     H29568  -0.359   7.551   7.912  1.7680 -1.9159 -0.1444
  982MOL0     H29569  -0.344   7.656   8.174 -0.5264  1.2877 -1.3426
  982MOL0     H29570  -0.183   7.623   8.145 -0.1789  0.8488 -2.1521
  982MOL0     H29571  -0.212   7.397   8.072  0.9471  1.8411 -0.8289
  982MOL0     H29572  -0.391   7.412   8.091  0.7762  0.0884 -3.9701
  982MOL0     H29573  -0.186   7.442   8.320 -0.4991  0.4160 -0.1367
  982MOL0     H29574  -0.362   7.450   8.329  0.2519  2.6208 -0.9841
  982MOL0     H29575  -0.236   7.225   8.393  2.7710  1.5302 -0.5500
  982MOL0     H29576  -0.214   7.208   8.216  0.6848  2.5212 -2.1848
  982MOL0     H29577  -0.418   7.119   8.065  1.2762  1.9464  0.4058
  982MOL0     H29578  -0.626   6.896   8.120 -0.5053  0.0956 -0.7659
  982MOL0     H29579  -0.627   7.021   8.002 -0.9926 -2.8747  0.0821
  982MOL0     H29580  -0.835   7.013   8.218  0.2309  1.8269 -0.1747
  982MOL0     H29581  -0.850   6.911   8.073 -2.0689  1.3926  1.1212
  982MOL0     H29582  -0.835   7.218   8.083 -2.2665  0.9910 -0.8374
  982MOL0     H29583  -0.847   7.118   7.939  0.7702  4.0348  0.0910
  982MOL0     H29584  -1.065   7.215   8.002 -1.9351  0.4782  2.5591
  982MOL0     H29585  -1.056   7.103   8.145  3.3147  0.7582  0.3775
  982MOL0     H29586  -1.251   7.235   7.972  1.2700 -0.1097  1.7505
  982MOL0     H29587  -1.484   7.218   7.919  0.1280 -0.8121 -2.1580
  982MOL0     H29588  -1.771   7.231   7.744  0.3440  1.1881  0.1443
  982MOL0     H29589  -2.032   7.274   7.698 -4.6129 -2.6025  1.8506
  982MOL0     H29590  -2.403   7.267   7.839 -1.9183 -0.1208  0.7078
  982MOL0     H29591  -2.322   7.225   7.988  0.7683  0.4288  0.2412
  982MOL0     H29592  -2.477   7.055   7.914  0.2567  3.3002 -0.2486
  982MOL0     H29593  -2.307   6.987   7.926 -0.6969 -0.7154  0.6550
  982MOL0     H29594  -2.368   6.883   7.747  0.2285  0.1452  1.8432
  982MOL0     H29595  -2.317   7.035   7.677 -0.4621  1.0363 -0.2741
  982MOL0     H29596  -2.616   6.987   7.756  0.5605  1.1694  2.9744
  982MOL0     H29597  -2.546   7.131   7.675  1.6141  0.7551  2.5345
  982MOL0     H29598  -2.537   6.855   7.555  0.1029 -0.3843 -2.2516
  982MOL0     H29599  -2.475   7.001   7.485 -2.5664  2.2285 -2.7288
  982MOL0     H29600  -2.765   6.956   7.546 -1.6784 -1.1996 -1.2475
  982MOL0     H29601  -2.682   6.946   7.383 -1.9472 -2.2667  0.2787
  982MOL0     H29602  -2.607   7.196   7.448 -0.7566 -0.5247 -1.3038
  982MOL0     H29603  -2.755   7.158   7.360 -1.9725  0.5034 -0.9227
  982MOL0     H29604  -2.794   7.198   7.663  1.6122  5.3303  1.3291
  982MOL0     H29605  -2.897   7.179   7.519  0.1289  1.8674 -1.1920
  982MOL0     H29606  -2.132   7.077   8.053  0.6426 -0.7848  1.3323
  982MOL0     H29607  -1.895   7.019   8.090  2.3346  3.2648  1.9285
  982MOL0     H29608  -1.448   6.824   7.774 -1.5994  1.1460 -0.4587
  982MOL0     H29609  -1.215   6.818   7.864 -1.4695 -0.5365 -1.4431
  982MOL0     H29610   0.247   7.655   7.694  0.7921  1.3464 -0.4249
  982MOL0     H29611   0.475   7.738   7.649 -3.3878 -3.3880 -1.2954
  982MOL0     H29612   0.850   7.588   7.776 -0.8080 -0.2817 -1.0164
  982MOL0     H29613   1.070   7.494   7.660 -2.2380 -0.6933  0.6775
  982MOL0     H29614   1.227   7.788   7.327  0.7651  1.4289 -0.5611
  982MOL0     H29615   1.324   7.642   7.307 -1.0944  1.0948 -0.7219
  982MOL0     H29616   1.403   7.657   7.542 -0.0760 -0.5971 -1.4099
  982MOL0     H29617   1.477   7.769   7.422  0.4755 -1.2413  0.6481
  982MOL0     H29618   1.297   7.795   7.657  0.8539 -0.4200 -0.1424
  982MOL0     H29619   1.267   7.917   7.540 -1.5067 -0.8099  0.4677
  982MOL0     H29620   1.536   7.939   7.545 -0.6751 -0.2295  0.1808
  982MOL0     H29621   1.412   8.031   7.645 -1.3843 -0.4755  2.1179
  982MOL0     H29622   1.621   7.781   7.922 -1.3140  1.2235  2.2596
  982MOL0     H29623   1.028   7.813   7.380  2.7774  4.2820  3.5402
  982MOL0     H29624   0.834   7.885   7.475  0.8001 -0.9955 -0.4274
  983MOL0     O29625   8.221   0.590   0.660  0.0858 -0.1232 -0.6887
  983MOL0     C29626   8.143   0.670   0.605  0.2780  0.5961 -0.2349
  983MOL0     O29627   8.181   0.797   0.555 -0.0092 -1.0684  0.0330
  983MOL0     C29628   8.306   0.846   0.582 -0.7863  0.2765 -0.4173
  983MOL0     C29629   8.422   0.833   0.503  0.4780 -0.1213  0.1936
  983MOL0     C29630   8.542   0.895   0.535  0.1399 -0.1317 -0.4595
  983MOL0     C29631   8.553   0.962   0.658  1.1142 -0.1231  0.1884
  983MOL0     O29632   8.654   1.036   0.717 -0.5833 -0.2899  0.2823
  983MOL0     C29633   8.789   1.044   0.656  0.4896  1.0263  0.2043
  983MOL0     C29634   8.809   1.126   0.524  0.3343 -1.0106  0.2681
  983MOL0     C29635   8.887   1.268   0.548  0.1529  1.3291 -0.0941
  983MOL0     C29636   8.826   1.357   0.659  0.0435 -1.2391 -1.0206
  983MOL0     C29637   8.918   1.468   0.703  0.6986  0.2325 -0.2094
  983MOL0     C29638   8.910   1.571   0.594 -0.4449 -0.3694 -0.5881
  983MOL0     C29639   8.999   1.692   0.624  0.5742  0.3521  0.5018
  983MOL0     C29640   8.931   1.800   0.720 -0.1455  0.2693  0.2086
  983MOL0     N29641   8.805   1.851   0.668  0.3019  0.4257 -0.0907
  983MOL0     C29642   8.788   1.909   0.534  0.6835  0.8608 -0.4825
  983MOL0     C29643   8.655   1.940   0.521  0.2589 -0.3659 -0.2493
  983MOL0     C29644   8.580   1.989   0.407 -0.4048 -1.1333 -0.0401
  983MOL0     C29645   8.460   1.903   0.356  0.2493  0.4588  0.0565
  983MOL0     C29646   8.318   1.960   0.394  0.1402  0.5844 -0.2879
  983MOL0     C29647   8.205   1.860   0.366  0.7730 -0.3328 -0.8057
  983MOL0     O29648   8.187   1.853   0.224  0.0754  0.3173 -0.2426
  983MOL0     C29649   8.072   1.799   0.170 -0.1548 -1.1118 -0.1346
  983MOL0     C29650   8.053   1.837   0.037  0.6117 -0.1432  0.5171
  983MOL0     C29651   7.963   1.772  -0.046  0.5688 -0.5519 -0.0990
  983MOL0     C29652   7.870   1.675   0.008 -0.5204  0.6054 -0.4134
  983MOL0     C29653   7.775   1.610  -0.077  0.8770  0.1187 -1.1465
  983MOL0     O29654   7.658   1.557  -0.014 -0.8309 -0.2459  1.1478
  983MOL0     C29655   7.554   1.501  -0.081 -0.8188  0.4206 -0.2940
  983MOL0     C29656   7.523   1.512  -0.216 -0.2394 -0.2186 -0.1515
  983MOL0     C29657   7.402   1.461  -0.267  1.0338 -0.4159  0.0465
  983MOL0     C29658   7.312   1.394  -0.183  0.4247 -0.3334 -0.0234
  983MOL0     O29659   7.192   1.354  -0.226  0.2366 -0.5606 -0.3358
  983MOL0     C29660   7.145   1.357  -0.359 -0.7632 -0.0584  0.4562
  983MOL0     C29661   7.071   1.488  -0.383  0.2542 -0.1612  0.0606
  983MOL0     C29662   6.988   1.556  -0.268  0.7162 -0.6557 -0.6709
  983MOL0     C29663   6.882   1.466  -0.200 -0.2207 -0.7828  0.2325
  983MOL0     C29664   6.747   1.541  -0.166 -0.3488 -0.6102 -0.3538
  983MOL0     C29665   6.768   1.672  -0.083  0.3752  0.0139 -0.1624
  983MOL0     C29666   6.857   1.645   0.041 -0.0906  0.3826  0.6241
  983MOL0     C29667   6.845   1.763   0.135  0.7053  0.2041 -0.1627
  983MOL0    Cl29668   6.699   1.754   0.239  0.0041  0.0256  0.1601
  983MOL0     C29669   7.340   1.386  -0.048 -0.1386  0.0948 -0.6166
  983MOL0     C29670   7.457   1.431  -0.001 -0.4511  0.8611 -0.1651
  983MOL0     O29671   7.798   1.613  -0.200  0.5058  0.3743  0.0396
  983MOL0     C29672   7.874   1.644   0.154  0.1706 -0.4684  0.7893
  983MOL0     C29673   7.980   1.710   0.228 -0.5341 -0.3224  0.6826
  983MOL0     N29674   8.596   1.900   0.643  0.4237 -0.8761 -0.3636
  983MOL0     N29675   8.683   1.862   0.731  0.0859  0.9728 -0.2339
  983MOL0     C29676   8.443   0.960   0.747 -0.1873  0.9166  0.0502
  983MOL0     C29677   8.325   0.903   0.708  0.1226  0.3321 -0.0961
  983MOL0     C29678   8.013   0.617   0.559  0.1533 -1.3205 -0.5158
  983MOL0     C29679   7.920   0.708   0.503  0.2583  0.2939  0.9068
  983MOL0     C29680   7.795   0.653   0.449  0.2739  0.5697 -1.1152
  983MOL0     C29681   7.775   0.519   0.443  0.1562  0.3110 -0.5125
  983MOL0     O29682   7.659   0.465   0.392  0.5802  0.5430  0.0146
  983MOL0     C29683   7.661   0.416   0.259 -0.4793  0.9652 -0.3811
  983MOL0     C29684   7.518   0.431   0.200  0.3715  0.0766 -0.0681
  983MOL0     C29685   7.509   0.453   0.047 -0.7320 -0.3119  0.4849
  983MOL0     C29686   7.360   0.490   0.004  0.0958  1.0442 -0.1404
  983MOL0     C29687   7.300   0.613   0.053  0.1895 -0.2128  0.4097
  983MOL0     C29688   7.239   0.707   0.096  0.0445 -0.0981  0.0942
  983MOL0     C29689   7.864   0.428   0.497 -0.2172 -0.4661 -0.0656
  983MOL0     C29690   7.989   0.479   0.546 -1.4126 -0.3926  0.0959
  983MOL0     H29691   8.423   0.759   0.423 -1.0789 -1.3578  1.2411
  983MOL0     H29692   8.623   0.876   0.465  0.0939  1.6731 -1.0703
  983MOL0     H29693   8.805   0.942   0.620 -0.5495  0.7388  0.5026
  983MOL0     H29694   8.859   1.058   0.739 -1.5713 -1.5089  2.5703
  983MOL0     H29695   8.712   1.148   0.479  0.9307 -0.6966 -0.9062
  983MOL0     H29696   8.865   1.069   0.449  0.1323 -0.1498 -0.5602
  983MOL0     H29697   8.903   1.311   0.449 -0.4517 -0.8670 -1.2082
  983MOL0     H29698   8.987   1.242   0.583  0.2917  0.7932 -0.8677
  983MOL0     H29699   8.725   1.398   0.644  0.0974 -0.2871  0.8812
  983MOL0     H29700   8.815   1.285   0.740  0.3837  0.0355  0.1834
  983MOL0     H29701   9.020   1.436   0.729  1.1684  3.7857  3.3552
  983MOL0     H29702   8.879   1.510   0.796  1.7441  0.1790  0.2640
  983MOL0     H29703   8.809   1.612   0.583 -0.3980  1.2981  3.4099
  983MOL0     H29704   8.940   1.525   0.499 -0.8450  0.7111 -1.2538
  983MOL0     H29705   9.090   1.652   0.669  0.8523 -0.3122 -0.5972
  983MOL0     H29706   9.018   1.752   0.534 -7.2210  1.4071 -1.1833
  983MOL0     H29707   8.999   1.882   0.742 -1.3967  2.4300 -3.1339
  983MOL0     H29708   8.917   1.753   0.818  0.8807  0.5702  0.5096
  983MOL0     H29709   8.861   1.906   0.454 -1.2082 -0.2035 -2.2577
  983MOL0     H29710   8.654   1.995   0.327  2.3425  0.3843  2.4030
  983MOL0     H29711   8.549   2.092   0.425 -0.3272 -1.0104 -0.6030
  983MOL0     H29712   8.473   1.801   0.392 -0.9880  0.7297  1.3748
  983MOL0     H29713   8.462   1.914   0.247 -0.3961 -1.5202 -0.1808
  983MOL0     H29714   8.340   1.991   0.496  4.9720 -0.6229 -0.7449
  983MOL0     H29715   8.305   2.057   0.344 -0.9946 -0.7890 -2.8176
  983MOL0     H29716   8.113   1.899   0.410  1.5469 -0.6291  1.1947
  983MOL0     H29717   8.229   1.762   0.410  0.7488 -0.5693 -1.3094
  983MOL0     H29718   8.131   1.894  -0.013  1.1843 -2.3447 -1.2332
  983MOL0     H29719   7.971   1.778  -0.154 -0.4255 -1.0622 -0.2122
  983MOL0     H29720   7.585   1.575  -0.279  1.0588  2.0630  3.1122
  983MOL0     H29721   7.373   1.466  -0.372 -0.1712  0.2529  0.3879
  983MOL0     H29722   7.063   1.287  -0.380 -0.2019  0.2637 -3.4430
  983MOL0     H29723   7.226   1.331  -0.428 -0.9783  1.7039 -0.5164
  983MOL0     H29724   7.009   1.467  -0.470  0.5855 -1.8883  0.1979
  983MOL0     H29725   7.136   1.561  -0.432 -2.4565  0.0073 -3.6920
  983MOL0     H29726   6.925   1.638  -0.304 -3.2836 -2.3119  1.8191
  983MOL0     H29727   7.058   1.588  -0.191 -2.0682  2.6183  0.7517
  983MOL0     H29728   6.866   1.391  -0.278 -4.0822 -0.7447  0.7927
  983MOL0     H29729   6.937   1.436  -0.111  1.9380 -0.5633 -0.9349
  983MOL0     H29730   6.682   1.479  -0.104 -0.8256 -0.4815 -0.7240
  983MOL0     H29731   6.695   1.559  -0.260 -0.2072  3.5625  0.2129
  983MOL0     H29732   6.674   1.712  -0.043  0.4144 -0.0355 -0.0200
  983MOL0     H29733   6.808   1.744  -0.155 -1.6531  0.1554 -1.2311
  983MOL0     H29734   6.839   1.554   0.100  1.4340  0.6938  1.6466
  983MOL0     H29735   6.957   1.632  -0.002 -0.3006 -2.5064  0.8332
  983MOL0     H29736   6.842   1.853   0.073  0.7208  1.1201  1.1139
  983MOL0     H29737   6.932   1.761   0.202  1.0205 -2.2395 -0.5532
  983MOL0     H29738   7.269   1.353   0.027  0.7023  0.8618  0.5514
  983MOL0     H29739   7.482   1.423   0.105  4.2258 -0.1610 -1.1056
  983MOL0     H29740   7.803   1.582   0.209 -1.5632 -0.9997 -1.8377
  983MOL0     H29741   7.995   1.681   0.331  0.8672 -2.6504 -0.0973
  983MOL0     H29742   8.453   1.006   0.845  2.9418 -0.1361  0.3345
  983MOL0     H29743   8.239   0.899   0.774 -1.4236 -1.0485 -2.0813
  983MOL0     H29744   7.935   0.815   0.499 -1.1605  0.4873 -1.3594
  983MOL0     H29745   7.716   0.719   0.416 -0.7882 -0.2934 -0.3779
  983MOL0     H29746   7.680   0.309   0.252 -1.4753  0.7954 -0.6658
  983MOL0     H29747   7.739   0.465   0.200 -2.1468  4.4380  0.0311
  983MOL0     H29748   7.464   0.342   0.234  1.3404 -1.0148 -1.3166
  983MOL0     H29749   7.475   0.518   0.251  0.8946  0.3608 -0.1075
  983MOL0     H29750   7.557   0.373  -0.010  1.1306 -0.6630  2.4038
  983MOL0     H29751   7.576   0.536   0.022  1.8026 -2.2299  0.4968
  983MOL0     H29752   7.373   0.492  -0.104  1.2302 -3.3346 -0.2468
  983MOL0     H29753   7.286   0.414   0.028  0.0825  1.1203  0.0650
  983MOL0     H29754   7.199   0.803   0.125 -1.5263 -0.3748 -0.9831
  983MOL0     H29755   7.862   0.320   0.490  1.9658 -0.6036  0.8799
  983MOL0     H29756   8.060   0.404   0.581 -1.4734 -0.3774  0.2564
  984MOL0     O29757   9.835  10.344   4.071 -0.4442  0.0294 -0.0261
  984MOL0     C29758   9.868  10.240   4.019 -0.6994  0.5196  0.2399
  984MOL0     O29759   9.964  10.230   3.925 -0.0110  0.2301  0.1860
  984MOL0     C29760  10.071  10.319   3.933  0.5786  0.4902 -0.4434
  984MOL0     C29761  10.125  10.371   3.825 -0.6258 -0.5842 -0.1930
  984MOL0     C29762  10.230  10.465   3.825 -0.6495 -0.2715 -0.1793
  984MOL0     C29763  10.297  10.483   3.947  0.1903 -0.6443  0.0578
  984MOL0     O29764  10.413  10.557   3.957 -0.1691 -0.3398 -0.2243
  984MOL0     C29765  10.458  10.653   3.864  1.3547 -0.8413 -1.1376
  984MOL0     C29766  10.587  10.727   3.912 -0.2129  0.7197 -0.3165
  984MOL0     C29767  10.539  10.840   4.008 -0.6800 -0.2645  0.6848
  984MOL0     C29768  10.671  10.894   4.077  0.9204  0.1057 -0.2873
  984MOL0     C29769  10.629  11.007   4.180 -0.6129  0.2621 -0.2579
  984MOL0     C29770  10.752  11.051   4.265  0.1245  1.0294  0.8969
  984MOL0     C29771  10.705  11.106   4.397 -0.0132  0.3594  0.4613
  984MOL0     C29772  10.806  11.174   4.484 -0.4040  0.2433  0.0376
  984MOL0     N29773  10.839  11.312   4.457 -0.4256 -0.0077 -0.1183
  984MOL0     C29774  10.796  11.421   4.521  0.5233  0.0882 -0.5961
  984MOL0     C29775  10.829  11.529   4.443 -0.8591  0.4394  1.1152
  984MOL0     C29776  10.807  11.680   4.463  0.5852  0.2224 -0.4672
  984MOL0     C29777  10.856  11.724   4.603 -0.4946  0.3024 -0.3715
  984MOL0     C29778  10.824  11.870   4.630  0.7276 -0.3658 -0.1658
  984MOL0     C29779  10.905  11.928   4.745 -0.1055 -0.5849 -0.3231
  984MOL0     O29780  10.850  12.051   4.771  1.4551  0.0722  0.4058
  984MOL0     C29781  10.929  12.164   4.794  0.0578 -0.4789  0.1946
  984MOL0     C29782  10.873  12.263   4.876  0.2169  0.2117 -0.6672
  984MOL0     C29783  10.950  12.367   4.921 -1.4469  0.3227 -0.3144
  984MOL0     C29784  11.072  12.393   4.863  0.5383  0.3792  0.0840
  984MOL0     C29785  11.139  12.515   4.899  0.5158 -0.1110  0.1825
  984MOL0     O29786  11.066  12.611   4.959 -1.0761  0.1537  0.7537
  984MOL0     C29787  11.125  12.735   4.968  0.4539 -0.4291  0.7888
  984MOL0     C29788  11.065  12.851   4.913 -0.1023 -1.2846  0.7086
  984MOL0     C29789  11.103  12.983   4.935  0.0034  0.9186  1.2591
  984MOL0     C29790  11.214  13.003   5.019  0.2205 -0.7777 -0.1812
  984MOL0     O29791  11.262  13.133   5.064  0.1921  0.2366  0.2788
  984MOL0     C29792  11.162  13.223   5.123 -0.0256 -0.1967  0.6298
  984MOL0     C29793  11.233  13.350   5.169  0.1723 -0.3329  0.1008
  984MOL0     C29794  11.290  13.407   5.041  0.0035 -0.1210  0.2883
  984MOL0     C29795  11.363  13.542   5.080  0.4204  0.1551 -0.2170
  984MOL0     C29796  11.418  13.629   4.964 -0.6238 -0.4564 -0.5678
  984MOL0     C29797  11.517  13.550   4.873 -0.0217 -0.9648 -0.2883
  984MOL0     C29798  11.526  13.617   4.742 -0.5694  0.1061  1.1384
  984MOL0     C29799  11.606  13.743   4.739 -1.0696  0.1361 -0.0410
  984MOL0    Cl29800  11.630  13.791   4.567 -0.2082  0.4656 -0.7186
  984MOL0     C29801  11.284  12.891   5.069 -1.1420 -0.4372 -0.0048
  984MOL0     C29802  11.248  12.761   5.043  0.2242  0.2038  0.0788
  984MOL0     O29803  11.255  12.522   4.855 -0.3085  0.3203 -0.0191
  984MOL0     C29804  11.129  12.291   4.775  0.0075  0.0231 -1.0899
  984MOL0     C29805  11.053  12.180   4.740  0.0292 -0.2334 -0.0365
  984MOL0     N29806  10.926  11.480   4.349  0.7302 -0.5172 -1.0882
  984MOL0     N29807  10.923  11.353   4.353  0.2433 -0.0645 -0.2733
  984MOL0     C29808  10.240  10.424   4.064  0.5081 -0.6083  0.0855
  984MOL0     C29809  10.126  10.343   4.061  0.3802 -0.9966  0.2283
  984MOL0     C29810   9.796  10.125   4.065  0.1501 -1.0780  0.7232
  984MOL0     C29811   9.767  10.006   3.995  0.3816  0.2242  0.0325
  984MOL0     C29812   9.711   9.891   4.064 -0.3463  0.3746  0.0748
  984MOL0     C29813   9.687   9.900   4.201  0.8174 -0.0885 -0.5560
  984MOL0     O29814   9.634   9.808   4.280 -0.3560  0.3039  0.3157
  984MOL0     C29815   9.602   9.679   4.230  0.2514  0.1746  0.6634
  984MOL0     C29816   9.448   9.676   4.187 -0.8817 -0.2544  0.3712
  984MOL0     C29817   9.392   9.534   4.175  0.4386 -1.3945 -0.4105
  984MOL0     C29818   9.404   9.453   4.301 -0.5024 -0.3276 -0.3516
  984MOL0     C29819   9.297   9.351   4.330  0.3648 -1.0283  0.5990
  984MOL0     C29820   9.216   9.263   4.362  0.6503  0.0174 -0.2466
  984MOL0     C29821   9.718  10.016   4.271 -0.4443  1.0554 -0.1675
  984MOL0     C29822   9.772  10.124   4.204 -0.0160 -0.4980  0.3700
  984MOL0     H29823  10.079  10.363   3.727 -1.7254  3.1700 -0.1373
  984MOL0     H29824  10.248  10.539   3.747  0.2712  3.0546  2.9383
  984MOL0     H29825  10.383  10.731   3.849 -0.2099 -1.8230  0.9804
  984MOL0     H29826  10.472  10.601   3.769 -3.4024 -2.8864 -1.0376
  984MOL0     H29827  10.635  10.777   3.827  1.1314 -1.7871 -1.1381
  984MOL0     H29828  10.652  10.655   3.961 -0.6537 -0.7597 -1.8097
  984MOL0     H29829  10.474  10.800   4.086 -1.9863 -0.1613 -0.3163
  984MOL0     H29830  10.493  10.921   3.951  2.8183 -0.0414 -2.1867
  984MOL0     H29831  10.721  10.809   4.124 -1.8846  0.0022  2.8996
  984MOL0     H29832  10.733  10.935   3.997  0.4996  0.1636 -0.5929
  984MOL0     H29833  10.555  10.986   4.258  0.3596  3.8256  1.8661
  984MOL0     H29834  10.584  11.089   4.122 -0.2649  0.1946 -0.6271
  984MOL0     H29835  10.810  11.126   4.209  0.8465  0.3608  0.7342
  984MOL0     H29836  10.823  10.972   4.291  2.6209  3.1072  0.8505
  984MOL0     H29837  10.631  11.180   4.366 -2.0557 -1.5102  0.6186
  984MOL0     H29838  10.653  11.029   4.455 -2.4859  0.9768 -0.8038
  984MOL0     H29839  10.899  11.117   4.480 -0.7347 -0.2951  0.0244
  984MOL0     H29840  10.774  11.163   4.588 -1.3764 -1.5565 -0.4187
  984MOL0     H29841  10.744  11.420   4.617  3.3356  0.3839  1.0279
  984MOL0     H29842  10.702  11.710   4.467  0.8492  1.0333  2.6425
  984MOL0     H29843  10.857  11.736   4.383  1.4913  1.4004  0.8792
  984MOL0     H29844  10.965  11.717   4.598 -0.3877  0.7818 -6.2437
  984MOL0     H29845  10.808  11.657   4.675  2.0361  1.0368  2.1600
  984MOL0     H29846  10.843  11.940   4.548  1.7235  1.2675  1.3925
  984MOL0     H29847  10.716  11.866   4.649  0.6080 -0.7425 -0.8883
  984MOL0     H29848  11.011  11.926   4.719 -0.0934  1.6119 -0.6280
  984MOL0     H29849  10.885  11.863   4.830  1.4078 -0.1562  0.4027
  984MOL0     H29850  10.771  12.245   4.909 -0.2583  0.8960 -1.7131
  984MOL0     H29851  10.905  12.434   4.994 -1.8799 -1.1077  0.7689
  984MOL0     H29852  10.970  12.836   4.864  0.0678 -3.5362  0.9980
  984MOL0     H29853  11.034  13.064   4.910 -0.3368  0.3774  0.3918
  984MOL0     H29854  11.122  13.157   5.200 -0.7687 -1.7043 -0.9853
  984MOL0     H29855  11.088  13.248   5.046  2.7073 -2.0641 -2.8886
  984MOL0     H29856  11.314  13.328   5.238  0.4627 -0.3220 -0.2344
  984MOL0     H29857  11.168  13.415   5.228 -2.5785 -1.2369 -1.7345
  984MOL0     H29858  11.208  13.428   4.972  0.1330 -3.5807 -1.1142
  984MOL0     H29859  11.364  13.334   5.007 -0.7500 -0.2538 -1.1629
  984MOL0     H29860  11.294  13.604   5.138  0.9443  0.8357 -0.3092
  984MOL0     H29861  11.451  13.532   5.145 -1.4214  1.5607  2.7273
  984MOL0     H29862  11.479  13.703   5.016  0.8173 -1.2273 -1.1053
  984MOL0     H29863  11.338  13.682   4.912 -1.1935 -0.5482  0.2003
  984MOL0     H29864  11.470  13.452   4.861 -0.4381 -0.8214  0.1124
  984MOL0     H29865  11.610  13.534   4.928  0.1646 -3.8666 -1.3213
  984MOL0     H29866  11.566  13.555   4.661 -3.2555  0.3045 -0.4556
  984MOL0     H29867  11.425  13.637   4.705  0.0646  0.1464 -0.6463
  984MOL0     H29868  11.704  13.715   4.780 -1.5809 -2.7185 -0.5535
  984MOL0     H29869  11.560  13.821   4.799 -1.2673  1.4347 -1.7967
  984MOL0     H29870  11.365  12.919   5.137 -1.6348 -1.3358  0.9846
  984MOL0     H29871  11.312  12.680   5.077  0.8368  1.0694  1.0181
  984MOL0     H29872  11.234  12.298   4.746 -0.3438 -2.9812 -3.7008
  984MOL0     H29873  11.090  12.104   4.672  1.8323 -0.0851  0.7029
  984MOL0     H29874  10.281  10.444   4.162  2.2108 -0.1182 -0.6882
  984MOL0     H29875  10.085  10.296   4.150  0.2981 -0.9366  0.2224
  984MOL0     H29876   9.796   9.998   3.890  0.0196  0.9722 -0.1329
  984MOL0     H29877   9.685   9.804   4.005  1.5598 -0.2993  0.1528
  984MOL0     H29878   9.615   9.606   4.310 -1.7719  0.7554  1.5840
  984MOL0     H29879   9.666   9.657   4.143 -0.8340 -1.5210  0.2245
  984MOL0     H29880   9.380   9.724   4.257 -1.1164 -0.4436  0.2754
  984MOL0     H29881   9.435   9.739   4.098  0.3498  0.3556  0.6035
  984MOL0     H29882   9.436   9.486   4.087  1.6512  1.7987 -1.7274
  984MOL0     H29883   9.285   9.555   4.165  0.5503 -1.2360 -1.3466
  984MOL0     H29884   9.499   9.399   4.307  0.1060  0.7699  0.1309
  984MOL0     H29885   9.405   9.521   4.386  0.5700 -0.9196  0.1399
  984MOL0     H29886   9.129   9.202   4.376 -2.2168  3.7740 -0.0011
  984MOL0     H29887   9.682  10.021   4.373 -1.6491  0.6842 -0.5574
  984MOL0     H29888   9.782  10.215   4.262 -2.3367 -1.4630  2.4793
  985MOL0     O29889   4.121   2.536   6.924  0.9523 -0.6756  0.5208
  985MOL0     C29890   4.131   2.650   6.887  0.3066 -0.0922 -0.3785
  985MOL0     O29891   4.153   2.694   6.754  0.0259 -0.5097 -0.1923
  985MOL0     C29892   4.132   2.610   6.649  1.2015 -0.0101 -0.0597
  985MOL0     C29893   4.051   2.486   6.639  0.0470 -0.4556  0.1313
  985MOL0     C29894   4.031   2.427   6.510  0.5192 -0.4061  0.1023
  985MOL0     C29895   4.089   2.480   6.396 -0.6388 -0.3928  0.3103
  985MOL0     O29896   4.069   2.418   6.277 -0.3749  0.2787  0.2387
  985MOL0     C29897   4.117   2.481   6.162  0.0953 -0.7147  0.2877
  985MOL0     C29898   4.040   2.400   6.053  0.1680 -0.1437  0.8635
  985MOL0     C29899   3.894   2.433   6.041 -0.2527  0.5380 -1.3028
  985MOL0     C29900   3.826   2.366   5.919 -0.1708 -0.1735  0.5899
  985MOL0     C29901   3.865   2.214   5.893  0.3209  0.0359  0.0661
  985MOL0     C29902   3.830   2.117   6.007 -1.2487 -0.2174 -0.1565
  985MOL0     C29903   3.705   2.164   6.082  0.5515 -0.2689 -0.7687
  985MOL0     C29904   3.647   2.051   6.162  0.5698  1.3788 -1.0731
  985MOL0     N29905   3.739   1.986   6.249 -0.9062 -0.1750 -0.1379
  985MOL0     C29906   3.820   2.057   6.334  0.5986 -0.3824 -0.5366
  985MOL0     C29907   3.880   1.970   6.406  0.1310  0.0491 -0.3699
  985MOL0     C29908   3.975   2.000   6.523  0.6453  0.5045  0.5669
  985MOL0     C29909   3.887   2.031   6.650 -0.4080  0.1198 -0.1484
  985MOL0     C29910   3.989   2.040   6.771 -0.5057  0.4246 -0.4038
  985MOL0     C29911   3.917   2.070   6.907 -0.0433  0.9748  0.6988
  985MOL0     O29912   3.866   2.198   6.890 -0.0197 -0.3120 -0.0426
  985MOL0     C29913   3.834   2.261   7.008  0.2165  0.1167  0.0829
  985MOL0     C29914   3.843   2.399   7.006 -0.1234 -0.4920 -0.5334
  985MOL0     C29915   3.814   2.476   7.125  0.0273 -0.1505 -0.7778
  985MOL0     C29916   3.796   2.412   7.248 -0.2551 -0.2584 -0.7061
  985MOL0     C29917   3.785   2.493   7.368 -0.1858 -0.0451  0.1366
  985MOL0     O29918   3.782   2.626   7.348 -0.2297  0.2961 -0.2979
  985MOL0     C29919   3.812   2.716   7.446  0.3128 -0.0874  1.3926
  985MOL0     C29920   3.754   2.841   7.436  0.3004 -0.6745  0.8160
  985MOL0     C29921   3.780   2.935   7.531 -0.5607  0.0561 -0.5478
  985MOL0     C29922   3.867   2.915   7.636 -0.1168 -0.1966  0.0994
  985MOL0     O29923   3.871   3.022   7.720 -0.9563  0.4691  0.6467
  985MOL0     C29924   3.947   3.018   7.840 -0.1984  0.3552 -0.0431
  985MOL0     C29925   3.915   3.150   7.916 -0.2348  0.1540  0.3525
  985MOL0     C29926   3.990   3.160   8.051  0.0998 -0.4552 -0.0490
  985MOL0     C29927   3.988   3.293   8.126 -0.3444  0.0512 -0.2408
  985MOL0     C29928   4.026   3.302   8.275 -0.3457  0.5291  0.2510
  985MOL0     C29929   4.001   3.438   8.328 -0.3750  0.2875 -0.4690
  985MOL0     C29930   4.044   3.454   8.477  1.0915  0.3995 -0.5370
  985MOL0     C29931   4.201   3.480   8.485 -0.5338  0.6496 -0.8271
  985MOL0    Cl29932   4.250   3.518   8.656  0.0544 -0.4839  0.5222
  985MOL0     C29933   3.922   2.793   7.649 -0.1124 -0.4195  0.1008
  985MOL0     C29934   3.900   2.694   7.555 -0.3935  0.5697 -0.5885
  985MOL0     O29935   3.773   2.437   7.476  0.4454  0.1134  0.5742
  985MOL0     C29936   3.782   2.270   7.250  0.7347 -0.3824 -1.1800
  985MOL0     C29937   3.804   2.200   7.128 -0.5232  0.0419 -0.3919
  985MOL0     N29938   3.825   1.845   6.385 -0.2496  0.4468  0.6354
  985MOL0     N29939   3.743   1.854   6.289  1.3404 -0.3623  0.4342
  985MOL0     C29940   4.167   2.601   6.412 -0.6953  0.0316 -0.4268
  985MOL0     C29941   4.179   2.663   6.535 -0.0718 -0.2392  1.2242
  985MOL0     C29942   4.151   2.747   7.006 -0.4051  0.2337  0.4083
  985MOL0     C29943   4.096   2.717   7.128  0.7874 -0.2801  0.7821
  985MOL0     C29944   4.112   2.808   7.228  0.2562 -0.0872 -0.0324
  985MOL0     C29945   4.185   2.925   7.215  0.3220 -0.3372  0.3113
  985MOL0     O29946   4.233   2.999   7.318 -0.4820  0.0544  0.3590
  985MOL0     C29947   4.128   3.055   7.389 -0.3937 -0.6732 -0.4326
  985MOL0     C29948   4.172   3.206   7.407  0.5765  0.2793 -0.7582
  985MOL0     C29949   4.311   3.224   7.443 -1.2990  0.8569 -0.3663
  985MOL0     C29950   4.340   3.377   7.483 -0.2923  0.0870 -0.7471
  985MOL0     C29951   4.322   3.482   7.388  0.5096 -0.9389 -0.5846
  985MOL0     C29952   4.278   3.558   7.307  0.0094 -0.6056 -0.3200
  985MOL0     C29953   4.226   2.964   7.090  0.0067  1.0053 -1.1502
  985MOL0     C29954   4.207   2.878   6.985  0.0290  0.0637 -0.6992
  985MOL0     H29955   4.018   2.420   6.719  1.7184 -1.4934  0.0332
  985MOL0     H29956   3.975   2.338   6.483  1.8595 -1.5317  0.9092
  985MOL0     H29957   4.224   2.461   6.156  0.2512  0.3129 -0.7060
  985MOL0     H29958   4.097   2.589   6.165  3.4452 -0.0099  0.5095
  985MOL0     H29959   4.070   2.296   6.047  1.7161  0.1729  2.4303
  985MOL0     H29960   4.086   2.438   5.961  3.1100 -3.0570  0.9815
  985MOL0     H29961   3.875   2.540   6.028  0.7892  1.1857  1.7319
  985MOL0     H29962   3.837   2.414   6.132 -2.0829  0.9937 -2.2931
  985MOL0     H29963   3.717   2.375   5.923 -0.3789 -1.4767 -1.0352
  985MOL0     H29964   3.848   2.419   5.826  0.9817  0.0529  0.9721
  985MOL0     H29965   3.968   2.191   5.865  0.0759 -1.6375  0.4472
  985MOL0     H29966   3.795   2.187   5.813  0.9495 -0.8062 -0.2116
  985MOL0     H29967   3.916   2.134   6.073 -0.7039  3.4885 -1.6165
  985MOL0     H29968   3.817   2.013   5.975 -1.4268 -0.2629  0.0597
  985MOL0     H29969   3.729   2.250   6.145 -0.7640  1.3803 -2.4228
  985MOL0     H29970   3.625   2.192   6.014  0.8078 -2.0497 -1.8800
  985MOL0     H29971   3.613   1.976   6.091  0.3047  0.6969 -0.2329
  985MOL0     H29972   3.562   2.092   6.218 -0.7481 -0.8353 -1.3498
  985MOL0     H29973   3.839   2.164   6.329 -1.9644  0.0772 -2.7166
  985MOL0     H29974   4.030   2.091   6.497 -2.7886  2.4607 -0.3936
  985MOL0     H29975   4.047   1.918   6.536  1.0808  0.9303  0.8583
  985MOL0     H29976   3.815   1.949   6.667 -1.6777  1.7715  3.3728
  985MOL0     H29977   3.825   2.119   6.630 -1.8877 -0.3359  2.0591
  985MOL0     H29978   4.051   1.950   6.780 -0.5318  0.5146  0.7991
  985MOL0     H29979   4.063   2.120   6.762 -0.2403  0.4087  1.2286
  985MOL0     H29980   3.998   2.057   6.980  1.4129 -0.8055 -1.1223
  985MOL0     H29981   3.842   1.994   6.931  1.2838 -1.5980 -2.4499
  985MOL0     H29982   3.866   2.446   6.911 -0.5177 -2.1569 -1.4841
  985MOL0     H29983   3.827   2.583   7.113  3.7291 -0.5626 -1.4686
  985MOL0     H29984   3.688   2.854   7.350 -1.5512  2.9650  2.5412
  985MOL0     H29985   3.741   3.035   7.514 -0.5365 -0.0818 -1.4461
  985MOL0     H29986   4.052   3.019   7.806  1.1708  1.2932  3.7903
  985MOL0     H29987   3.917   2.938   7.908  1.0086  2.3381  3.0038
  985MOL0     H29988   3.807   3.165   7.928  0.0814  2.8863  0.5473
  985MOL0     H29989   3.966   3.214   7.843 -1.4303 -1.8492 -2.4219
  985MOL0     H29990   4.094   3.125   8.047  1.2995  2.6200  1.2903
  985MOL0     H29991   3.931   3.095   8.116  0.2485 -0.3336  0.2101
  985MOL0     H29992   4.064   3.347   8.068 -2.5957  0.7916 -2.6958
  985MOL0     H29993   3.887   3.333   8.127 -1.8939 -3.4163  2.5286
  985MOL0     H29994   4.126   3.259   8.283 -1.6014 -2.9764 -0.9264
  985MOL0     H29995   3.958   3.236   8.331 -0.3896 -0.6713 -1.1597
  985MOL0     H29996   3.898   3.469   8.309 -1.3369  1.3832  4.9445
  985MOL0     H29997   4.053   3.519   8.276  1.0536  0.6547  1.4207
  985MOL0     H29998   3.984   3.533   8.525 -2.1507 -1.2902 -1.5074
  985MOL0     H29999   4.012   3.367   8.535 -0.6440  1.0246 -0.4814
  985MOL0     H30000   4.238   3.556   8.416  2.0424  0.6514  0.4424
  985MOL0     H30001   4.255   3.390   8.454  1.5879  1.8324 -0.7316
  985MOL0     H30002   3.973   2.784   7.745  1.4443 -0.1655 -0.6632
  985MOL0     H30003   3.941   2.594   7.568 -3.0256 -0.4577  0.5333
  985MOL0     H30004   3.789   2.213   7.343  3.6406  3.1400  1.0143
  985MOL0     H30005   3.797   2.092   7.141 -1.5933  0.1457 -0.0498
  985MOL0     H30006   4.216   2.655   6.331 -0.4657  0.0278 -0.2905
  985MOL0     H30007   4.242   2.751   6.535  1.3740 -0.8690 -4.5623
  985MOL0     H30008   4.018   2.642   7.142 -2.3031  3.0976  3.4397
  985MOL0     H30009   4.068   2.792   7.326 -2.2856 -0.9512 -1.2229
  985MOL0     H30010   4.126   2.995   7.481 -0.7048 -2.8947 -1.8094
  985MOL0     H30011   4.030   3.051   7.340 -0.3782 -0.4945 -0.4774
  985MOL0     H30012   4.156   3.253   7.309 -0.6590  2.4114  0.3864
  985MOL0     H30013   4.110   3.252   7.484  1.7201 -0.7789  0.8667
  985MOL0     H30014   4.390   3.191   7.375 -2.9858 -2.7962 -0.7903
  985MOL0     H30015   4.324   3.171   7.537 -3.3095 -1.3279 -1.2046
  985MOL0     H30016   4.292   3.402   7.577 -0.4959 -3.6695  0.3015
  985MOL0     H30017   4.448   3.380   7.500 -0.6773 -0.2506  2.1759
  985MOL0     H30018   4.234   3.625   7.237  0.7422  1.0323  0.7216
  985MOL0     H30019   4.288   3.053   7.082  0.7280  0.5221 -1.1119
  985MOL0     H30020   4.250   2.893   6.887  0.7315  0.2417 -0.3733
  986MOL0     O30021  11.442   0.686   5.988  0.2754 -0.2207  0.4050
  986MOL0     C30022  11.328   0.659   6.018 -0.2831 -0.1543  0.0600
  986MOL0     O30023  11.242   0.594   5.932  1.0687 -0.9334 -0.0727
  986MOL0     C30024  11.288   0.539   5.812  0.0527 -1.2624 -1.1095
  986MOL0     C30025  11.273   0.399   5.791 -0.6565 -0.9908  0.1690
  986MOL0     C30026  11.295   0.358   5.661  0.1650  0.4120  0.3346
  986MOL0     C30027  11.363   0.431   5.564  0.8499  0.5141  0.0600
  986MOL0     O30028  11.409   0.378   5.449 -0.2316  0.5408 -0.0219
  986MOL0     C30029  11.469   0.242   5.459 -0.4889 -0.2824  0.2380
  986MOL0     C30030  11.469   0.166   5.335  0.3376  0.0986  0.5637
  986MOL0     C30031  11.596   0.176   5.263  0.2841  0.0084 -0.4397
  986MOL0     C30032  11.594   0.076   5.152  0.7087 -0.1705 -0.7796
  986MOL0     C30033  11.721   0.092   5.054  0.4155 -0.2362  0.1465
  986MOL0     C30034  11.763  -0.038   4.973 -0.8004  0.5996 -0.5278
  986MOL0     C30035  11.818  -0.136   5.073 -0.4400 -0.0154  0.4160
  986MOL0     C30036  11.974  -0.121   5.073 -0.2595  0.2242  0.1604
  986MOL0     N30037  12.027  -0.003   5.153 -0.6189  0.1894  0.9458
  986MOL0     C30038  12.075  -0.010   5.279  0.5036  0.7639  0.0163
  986MOL0     C30039  12.126   0.113   5.307  0.3069 -0.3273  0.0181
  986MOL0     C30040  12.194   0.168   5.432  0.0939 -0.8572  0.6038
  986MOL0     C30041  12.173   0.323   5.463 -0.6008  0.1732 -0.7708
  986MOL0     C30042  12.033   0.367   5.476 -0.2214  0.2436 -0.2192
  986MOL0     C30043  11.960   0.284   5.593  0.6819 -0.0341  0.5777
  986MOL0     O30044  12.028   0.293   5.714 -0.6276  0.2264  0.0098
  986MOL0     C30045  12.011   0.194   5.812  0.5010  0.4213 -0.1136
  986MOL0     C30046  11.934   0.073   5.813 -0.3466 -0.4531  0.2979
  986MOL0     C30047  11.962  -0.008   5.918 -0.4071 -0.1550 -0.3832
  986MOL0     C30048  12.023   0.030   6.035  0.1623 -0.3554 -0.2175
  986MOL0     C30049  12.029  -0.061   6.150  0.2241  0.4095 -0.5439
  986MOL0     O30050  11.914  -0.140   6.155 -0.1608  0.4917 -0.3060
  986MOL0     C30051  11.907  -0.237   6.251  0.3995 -0.4238  0.1773
  986MOL0     C30052  12.014  -0.316   6.286  0.8377 -0.6162 -0.1202
  986MOL0     C30053  12.007  -0.410   6.388  0.3713 -0.0148 -0.1240
  986MOL0     C30054  11.889  -0.443   6.453  0.2128 -0.3489 -0.3475
  986MOL0     O30055  11.863  -0.536   6.550  0.1861 -0.2204 -0.6315
  986MOL0     C30056  11.969  -0.628   6.585 -0.3931 -0.6059  0.5691
  986MOL0     C30057  12.062  -0.580   6.698 -0.2919  0.9522 -1.1162
  986MOL0     C30058  12.189  -0.514   6.654 -0.2816 -1.3397  0.3989
  986MOL0     C30059  12.287  -0.491   6.772 -0.2618  0.7870  0.2213
  986MOL0     C30060  12.243  -0.387   6.869 -0.1213 -0.1469  0.3884
  986MOL0     C30061  12.351  -0.336   6.964  0.6739  0.0031 -0.8308
  986MOL0     C30062  12.287  -0.246   7.073  0.2961 -1.1507 -0.5505
  986MOL0     C30063  12.350  -0.240   7.208  0.8393 -0.4742 -0.6494
  986MOL0    Cl30064  12.315  -0.392   7.294  0.0911 -0.2466 -0.1588
  986MOL0     C30065  11.773  -0.379   6.403  0.5467  0.6150 -0.0642
  986MOL0     C30066  11.784  -0.274   6.311  0.4679 -0.4284  0.1552
  986MOL0     O30067  12.118  -0.048   6.237 -0.1376 -0.0756 -0.8087
  986MOL0     C30068  12.055   0.159   6.050 -0.3405  0.7912 -0.2616
  986MOL0     C30069  12.043   0.241   5.940 -0.7717 -0.5675 -0.3553
  986MOL0     N30070  12.123   0.197   5.187  0.1366 -0.0510 -0.3830
  986MOL0     N30071  12.066   0.123   5.096 -0.3356  0.1803  0.1325
  986MOL0     C30072  11.385   0.564   5.591  0.1751 -0.2748  0.4992
  986MOL0     C30073  11.348   0.626   5.712 -0.3507 -0.0863  0.0860
  986MOL0     C30074  11.274   0.714   6.152 -0.2660  0.0055  0.6023
  986MOL0     C30075  11.172   0.643   6.218  0.0519 -0.4760 -0.9306
  986MOL0     C30076  11.131   0.674   6.353 -1.1374  0.4597  0.6783
  986MOL0     C30077  11.199   0.786   6.418  0.3647  0.4724 -0.8844
  986MOL0     O30078  11.185   0.820   6.551 -0.5145 -0.7791  0.3721
  986MOL0     C30079  11.114   0.724   6.630  0.3423  0.1703 -0.5465
  986MOL0     C30080  11.147   0.740   6.786 -1.0567  0.2410  0.3558
  986MOL0     C30081  11.117   0.887   6.816 -0.2934  0.0525 -0.5881
  986MOL0     C30082  11.126   0.902   6.964  1.0918  1.6295  0.6264
  986MOL0     C30083  11.074   1.026   7.018  0.0373  0.4041  0.3055
  986MOL0     C30084  11.028   1.131   7.068 -0.8209  0.7849 -0.8347
  986MOL0     C30085  11.299   0.856   6.352  1.0768 -0.5362  0.3209
  986MOL0     C30086  11.336   0.817   6.223 -0.5332  0.0180 -0.4818
  986MOL0     H30087  11.229   0.333   5.866  2.4809 -0.1342  2.9911
  986MOL0     H30088  11.282   0.254   5.635  2.4701  0.1864 -0.1844
  986MOL0     H30089  11.401   0.181   5.519 -1.6556 -2.5216 -3.0537
  986MOL0     H30090  11.566   0.248   5.509  0.0577  0.6933 -0.8745
  986MOL0     H30091  11.388   0.196   5.268 -0.1723 -1.9942  0.1487
  986MOL0     H30092  11.463   0.061   5.366 -1.3943 -0.5397 -1.7034
  986MOL0     H30093  11.680   0.151   5.329 -0.2933  1.1546  0.7562
  986MOL0     H30094  11.620   0.276   5.228  0.5902  0.2468  0.4242
  986MOL0     H30095  11.592  -0.023   5.199  4.7873  0.1369  0.4390
  986MOL0     H30096  11.495   0.086   5.107  0.4188 -0.2365 -0.1681
  986MOL0     H30097  11.802   0.140   5.111 -0.1476 -0.6599  1.3315
  986MOL0     H30098  11.690   0.151   4.967  1.2921  0.0159 -0.0043
  986MOL0     H30099  11.835  -0.017   4.894  0.2413  1.9163  0.7161
  986MOL0     H30100  11.666  -0.066   4.931 -0.4877  1.3195 -1.7618
  986MOL0     H30101  11.780  -0.114   5.173  1.2912  1.5658  0.7906
  986MOL0     H30102  11.794  -0.238   5.042  1.2582  0.1721 -1.7454
  986MOL0     H30103  12.015  -0.126   4.972 -3.2253 -4.2249 -1.0798
  986MOL0     H30104  12.012  -0.204   5.132  1.7472  0.0422 -1.3253
  986MOL0     H30105  12.081  -0.107   5.325  0.2308 -0.6801 -2.7682
  986MOL0     H30106  12.298   0.135   5.442  0.6232  0.7189  0.5901
  986MOL0     H30107  12.140   0.113   5.509 -1.1525 -1.2046 -0.4822
  986MOL0     H30108  12.223   0.380   5.385  0.7792  1.9708  1.3139
  986MOL0     H30109  12.218   0.358   5.556 -3.7565  0.6578  0.7285
  986MOL0     H30110  12.034   0.469   5.517 -0.9028 -0.6830  2.2894
  986MOL0     H30111  11.984   0.364   5.378  1.0336 -1.1230 -0.8415
  986MOL0     H30112  11.936   0.181   5.567 -1.7713  0.1823  1.7165
  986MOL0     H30113  11.860   0.328   5.601  0.6292 -0.3127  1.5490
  986MOL0     H30114  11.866   0.052   5.730  1.4803  1.2799 -1.7992
  986MOL0     H30115  11.929  -0.111   5.908  1.0440 -0.5723 -1.0836
  986MOL0     H30116  12.112  -0.295   6.245  0.7628 -0.6003 -0.2903
  986MOL0     H30117  12.104  -0.454   6.406  0.4933 -0.7431 -2.3099
  986MOL0     H30118  12.030  -0.634   6.494 -2.4460 -0.6380 -0.8647
  986MOL0     H30119  11.929  -0.728   6.601 -1.0691 -0.5371 -0.5656
  986MOL0     H30120  12.094  -0.671   6.749  1.6719  1.8199 -0.7092
  986MOL0     H30121  12.000  -0.521   6.766 -0.0185  0.7341 -0.6723
  986MOL0     H30122  12.159  -0.419   6.608 -3.5504 -1.7633  1.3859
  986MOL0     H30123  12.240  -0.573   6.578  1.4944 -0.4152  0.8129
  986MOL0     H30124  12.297  -0.581   6.835  3.6894  1.4924  0.8989
  986MOL0     H30125  12.388  -0.476   6.732 -0.9808  2.6421 -1.0397
  986MOL0     H30126  12.150  -0.418   6.918 -2.1461  0.2480 -2.8618
  986MOL0     H30127  12.198  -0.305   6.812  1.9136 -1.6572 -3.7982
  986MOL0     H30128  12.414  -0.269   6.905  0.2613  0.0224 -1.2632
  986MOL0     H30129  12.404  -0.419   7.011  0.1469  0.4270  0.5565
  986MOL0     H30130  12.274  -0.151   7.021 -4.7344 -1.8145 -1.0066
  986MOL0     H30131  12.182  -0.271   7.093 -0.1690 -0.0946 -1.5919
  986MOL0     H30132  12.312  -0.152   7.261 -1.1641  0.1372 -2.9386
  986MOL0     H30133  12.457  -0.237   7.187  0.3719  1.4441 -3.2806
  986MOL0     H30134  11.669  -0.394   6.432  0.5056  0.8099 -0.1053
  986MOL0     H30135  11.699  -0.223   6.267 -0.2511 -0.9976  0.8394
  986MOL0     H30136  12.096   0.195   6.143  1.0807 -2.9533  0.7608
  986MOL0     H30137  12.079   0.344   5.944  0.7162 -1.0604 -0.4128
  986MOL0     H30138  11.431   0.619   5.510  1.4784 -0.9759  0.7492
  986MOL0     H30139  11.358   0.731   5.738 -2.2004  0.4911 -1.3007
  986MOL0     H30140  11.125   0.552   6.181 -0.7745 -0.1792 -0.6356
  986MOL0     H30141  11.045   0.626   6.398 -2.2658  2.3798  0.6794
  986MOL0     H30142  11.146   0.624   6.600  1.1002  0.4637 -0.7414
  986MOL0     H30143  11.005   0.736   6.622 -0.0400 -0.0411  2.9641
  986MOL0     H30144  11.097   0.663   6.844 -1.1895 -0.2804 -0.4257
  986MOL0     H30145  11.256   0.730   6.792 -0.6204  0.3268 -3.9516
  986MOL0     H30146  11.021   0.914   6.772  0.3225  1.3843 -1.1640
  986MOL0     H30147  11.194   0.952   6.774  2.1631 -1.7537  0.8350
  986MOL0     H30148  11.071   0.820   7.010  2.9951  1.2283  2.3480
  986MOL0     H30149  11.231   0.891   6.995  0.9173 -1.3163  0.4291
  986MOL0     H30150  10.995   1.220   7.117  1.7689  0.3386  2.0271
  986MOL0     H30151  11.349   0.932   6.411  0.4182 -1.1120  1.6634
  986MOL0     H30152  11.419   0.862   6.169  2.4726 -1.8263  2.2899
  987MOL0     O30153   1.289   9.422   3.202 -0.3158 -0.3237 -0.0679
  987MOL0     C30154   1.302   9.381   3.322  0.0036  0.2202 -0.1523
  987MOL0     O30155   1.357   9.454   3.428  0.2218  1.0028 -0.0714
  987MOL0     C30156   1.382   9.590   3.420  1.1761  0.5169  0.0269
  987MOL0     C30157   1.399   9.676   3.311  0.0024  0.8102  1.3080
  987MOL0     C30158   1.430   9.810   3.331  0.0406 -0.7564  0.8648
  987MOL0     C30159   1.446   9.865   3.461  0.1352 -0.0799  0.9283
  987MOL0     O30160   1.473  10.002   3.487  0.5225  1.1228 -0.1811
  987MOL0     C30161   1.486  10.100   3.375 -0.1886  0.0161 -0.3708
  987MOL0     C30162   1.542  10.242   3.411  0.4379 -0.0897 -0.4132
  987MOL0     C30163   1.686  10.236   3.463 -0.7245 -0.0388  0.7266
  987MOL0     C30164   1.726  10.369   3.527  0.6219 -0.2684  1.2657
  987MOL0     C30165   1.853  10.366   3.607  1.1193 -0.7960 -0.3199
  987MOL0     C30166   1.973  10.296   3.546 -0.2254  0.1565  0.2826
  987MOL0     C30167   2.095  10.337   3.634 -0.6066  0.1858 -0.2517
  987MOL0     C30168   2.223  10.293   3.553  0.3319  0.2219  0.7508
  987MOL0     N30169   2.244  10.148   3.545 -0.3756  0.1193  0.0163
  987MOL0     C30170   2.173  10.070   3.457  0.8153  0.1785  0.2896
  987MOL0     C30171   2.262   9.963   3.438  0.3611 -0.9866 -0.4892
  987MOL0     C30172   2.256   9.851   3.335 -0.1797  0.2623  0.0265
  987MOL0     C30173   2.390   9.829   3.254  0.7724  0.7789  0.0582
  987MOL0     C30174   2.459   9.950   3.185  0.5527  0.4879 -0.4715
  987MOL0     C30175   2.371  10.073   3.139  0.5000 -0.2846  0.2453
  987MOL0     O30176   2.367  10.199   3.211 -0.2663  0.1852 -0.0908
  987MOL0     C30177   2.452  10.303   3.175 -0.6774  0.5864 -0.5718
  987MOL0     C30178   2.571  10.275   3.108 -0.1170 -0.1546 -0.2074
  987MOL0     C30179   2.662  10.373   3.058 -0.0949 -0.0681  0.6422
  987MOL0     C30180   2.621  10.506   3.054  0.0499  0.6196 -1.3231
  987MOL0     C30181   2.689  10.614   2.986 -0.7372  0.9973 -0.0831
  987MOL0     O30182   2.816  10.600   2.944 -0.0358 -0.5271  0.3935
  987MOL0     C30183   2.879  10.708   2.884 -0.8538 -0.0107  1.0528
  987MOL0     C30184   2.991  10.781   2.938 -0.7997 -0.0068  0.0046
  987MOL0     C30185   3.023  10.907   2.888  0.2556  0.2947  0.0639
  987MOL0     C30186   2.950  10.960   2.781  1.2868 -0.0187  0.0775
  987MOL0     O30187   2.977  11.097   2.758 -0.0228  0.0964  0.3391
  987MOL0     C30188   3.084  11.132   2.669 -0.5052  1.0662 -0.4607
  987MOL0     C30189   3.048  11.249   2.584 -0.2008  0.2248  0.3825
  987MOL0     C30190   3.170  11.262   2.484  0.5251 -1.0149 -0.7149
  987MOL0     C30191   3.144  11.347   2.364  0.1364 -0.1307  0.8295
  987MOL0     C30192   3.270  11.377   2.273 -0.0530 -0.8674  0.0584
  987MOL0     C30193   3.375  11.449   2.356 -0.4707  0.1498  0.0753
  987MOL0     C30194   3.327  11.566   2.449 -0.1352  0.8685  0.6387
  987MOL0     C30195   3.437  11.636   2.516  0.9799 -0.1207 -1.1482
  987MOL0    Cl30196   3.544  11.705   2.394 -0.0659  0.1894 -0.4461
  987MOL0     C30197   2.844  10.893   2.726  1.0185 -0.9116  0.3350
  987MOL0     C30198   2.816  10.770   2.766  0.0349 -0.0011 -0.4926
  987MOL0     O30199   2.628  10.715   2.977 -0.1277  0.9177  0.5333
  987MOL0     C30200   2.506  10.539   3.128  0.7483  0.2283 -0.3180
  987MOL0     C30201   2.428  10.430   3.190 -0.0002 -0.7688 -0.5863
  987MOL0     N30202   2.358   9.971   3.536 -0.7143  0.1095  0.5536
  987MOL0     N30203   2.352  10.081   3.598  0.5362  0.2233  0.5467
  987MOL0     C30204   1.409   9.778   3.566  0.5011  0.0711  0.3375
  987MOL0     C30205   1.388   9.642   3.546 -0.6998 -1.2790 -0.4414
  987MOL0     C30206   1.243   9.242   3.350 -1.1884  0.3898 -0.2110
  987MOL0     C30207   1.189   9.162   3.251  0.3765 -0.4021  0.1585
  987MOL0     C30208   1.162   9.027   3.285  0.4360  0.1747  0.5132
  987MOL0     C30209   1.191   8.972   3.407 -0.0556 -0.1312 -0.1910
  987MOL0     O30210   1.190   8.836   3.413  0.1802  0.4818  0.0865
  987MOL0     C30211   1.163   8.775   3.543 -0.1429 -1.1127  0.4155
  987MOL0     C30212   1.113   8.637   3.507 -0.1544 -0.3824  0.5107
  987MOL0     C30213   1.102   8.551   3.635 -0.4852 -0.5664 -0.3194
  987MOL0     C30214   1.017   8.618   3.738 -0.3080  0.1951 -1.2752
  987MOL0     C30215   0.962   8.516   3.823  0.4474  0.6676  0.0069
  987MOL0     C30216   0.914   8.431   3.894 -0.5753 -1.1669 -0.5040
  987MOL0     C30217   1.228   9.055   3.513  0.9130 -0.0935 -0.0284
  987MOL0     C30218   1.256   9.184   3.485  0.2604  0.4669  0.5646
  987MOL0     H30219   1.398   9.635   3.211  2.2244  0.3393  1.4361
  987MOL0     H30220   1.462   9.877   3.252  2.6038 -1.9915  0.7758
  987MOL0     H30221   1.390  10.124   3.329 -0.1435  3.1211  0.9307
  987MOL0     H30222   1.553  10.064   3.296  1.0861 -0.1538  0.7594
  987MOL0     H30223   1.486  10.285   3.494  1.4277  1.5073 -0.5209
  987MOL0     H30224   1.531  10.311   3.327 -0.6154  1.0434  0.6222
  987MOL0     H30225   1.758  10.217   3.382 -1.3637  1.0988 -0.1440
  987MOL0     H30226   1.687  10.156   3.536 -0.5479  0.1403  0.9236
  987MOL0     H30227   1.748  10.445   3.452  0.3662  0.6514  2.1105
  987MOL0     H30228   1.644  10.409   3.586  2.5235 -1.2066  4.8883
  987MOL0     H30229   1.829  10.311   3.699  0.2347 -1.1499 -0.7402
  987MOL0     H30230   1.878  10.469   3.635 -0.0683 -0.8257  1.0261
  987MOL0     H30231   1.995  10.328   3.443 -0.0603 -1.4341 -0.2004
  987MOL0     H30232   1.950  10.189   3.546  3.4192 -0.7687 -0.8036
  987MOL0     H30233   2.104  10.445   3.649 -0.4343  0.0285  0.8470
  987MOL0     H30234   2.088  10.289   3.732  0.1248 -0.9372 -0.7315
  987MOL0     H30235   2.318  10.332   3.590  0.9619  0.2811 -0.8509
  987MOL0     H30236   2.215  10.329   3.450 -0.4945 -2.1379 -0.0986
  987MOL0     H30237   2.086  10.077   3.394  0.1393 -1.1850  1.0324
  987MOL0     H30238   2.170   9.863   3.268 -0.4154 -1.6285 -0.0662
  987MOL0     H30239   2.231   9.767   3.401  1.0358  0.7269  1.1098
  987MOL0     H30240   2.360   9.761   3.174 -1.4571  3.1600 -1.2724
  987MOL0     H30241   2.465   9.783   3.319  0.9122  2.2631  0.9825
  987MOL0     H30242   2.521   9.994   3.264 -0.0368 -0.8321  0.7869
  987MOL0     H30243   2.530   9.921   3.107  0.3227  0.3453 -0.6299
  987MOL0     H30244   2.269  10.033   3.142  0.4230 -0.0464  0.9379
  987MOL0     H30245   2.385  10.098   3.034 -0.6834  0.2649  0.2042
  987MOL0     H30246   2.602  10.177   3.073  2.0040  0.1773  0.5722
  987MOL0     H30247   2.752  10.355   3.001  0.0087  1.5082  0.2467
  987MOL0     H30248   3.038  10.751   3.031 -1.6102  3.3341  1.6581
  987MOL0     H30249   3.113  10.959   2.920  2.1506 -0.9443 -2.8824
  987MOL0     H30250   3.118  11.050   2.604  5.5800  0.8401  2.3256
  987MOL0     H30251   3.173  11.154   2.729 -0.8377 -1.2318  1.0290
  987MOL0     H30252   3.041  11.345   2.636  3.1698  0.1548  1.2282
  987MOL0     H30253   2.952  11.234   2.533  0.2022  2.3430 -1.1576
  987MOL0     H30254   3.196  11.162   2.447 -0.9336 -0.6888 -2.8117
  987MOL0     H30255   3.258  11.300   2.537 -1.1586  0.5193  1.1679
  987MOL0     H30256   3.066  11.297   2.305 -1.8152  5.3258 -1.8721
  987MOL0     H30257   3.100  11.446   2.378 -2.6895 -1.4517  2.0888
  987MOL0     H30258   3.236  11.434   2.186 -0.7300  1.8007  1.9359
  987MOL0     H30259   3.326  11.287   2.246 -0.7955 -1.6147  0.9355
  987MOL0     H30260   3.446  11.482   2.279 -1.4894 -1.9925 -1.8903
  987MOL0     H30261   3.444  11.386   2.414  3.5702  2.3622 -1.8988
  987MOL0     H30262   3.262  11.635   2.395  0.0228  0.4297 -0.1272
  987MOL0     H30263   3.259  11.534   2.528  0.3212 -1.2354  0.2472
  987MOL0     H30264   3.477  11.575   2.598 -2.6144  1.8315  2.4160
  987MOL0     H30265   3.387  11.721   2.563  0.2964 -0.2894 -1.5574
  987MOL0     H30266   2.775  10.945   2.661  2.0133 -1.6581 -1.3828
  987MOL0     H30267   2.727  10.730   2.717 -0.4487  1.2195 -0.6591
  987MOL0     H30268   2.470  10.641   3.134  1.2791  0.4449 -0.7228
  987MOL0     H30269   2.338  10.460   3.242 -0.8481 -1.4212 -1.6315
  987MOL0     H30270   1.408   9.805   3.671  0.3115 -0.6931  0.5363
  987MOL0     H30271   1.390   9.579   3.635  2.6520 -0.5269  0.1368
  987MOL0     H30272   1.163   9.184   3.148  1.9674  0.7766 -0.0363
  987MOL0     H30273   1.133   8.953   3.211  1.1936 -0.8147  1.1729
  987MOL0     H30274   1.096   8.827   3.612 -0.6183 -1.4181  0.1867
  987MOL0     H30275   1.254   8.767   3.603  2.6691 -0.3525 -3.3345
  987MOL0     H30276   1.012   8.654   3.470 -0.2984  1.2252  1.5493
  987MOL0     H30277   1.174   8.579   3.436  0.8328  0.4463  0.6510
  987MOL0     H30278   1.201   8.515   3.661  0.0713 -0.6998 -2.4606
  987MOL0     H30279   1.039   8.472   3.593 -2.4765  0.3335  0.7842
  987MOL0     H30280   1.081   8.692   3.788 -3.5336  2.1932  0.2725
  987MOL0     H30281   0.928   8.666   3.699 -0.2504  1.3632 -0.0642
  987MOL0     H30282   0.864   8.365   3.962 -0.3838  0.7736  1.6685
  987MOL0     H30283   1.249   9.005   3.607  1.0433 -0.5191 -0.2804
  987MOL0     H30284   1.293   9.241   3.570 -1.9501  3.3561 -0.2262
  988MOL0     O30285   9.054   1.284   5.460  0.3163 -0.7568 -0.0030
  988MOL0     C30286   9.016   1.373   5.537 -0.3957  0.7768  0.2253
  988MOL0     O30287   9.090   1.460   5.607  0.6037  0.4676  0.0914
  988MOL0     C30288   9.225   1.449   5.592 -0.1483  0.0061  0.3738
  988MOL0     C30289   9.274   1.341   5.656  0.9799  0.3969 -0.0601
  988MOL0     C30290   9.407   1.321   5.657  0.2055 -0.1632  0.0664
  988MOL0     C30291   9.492   1.389   5.573 -0.0947  0.1112 -0.0083
  988MOL0     O30292   9.628   1.350   5.577  0.7869  0.9596  0.0040
  988MOL0     C30293   9.717   1.406   5.683 -0.1821  0.3243 -0.3830
  988MOL0     C30294   9.863   1.398   5.626  0.6163 -0.6601  0.1343
  988MOL0     C30295   9.934   1.267   5.644 -0.1196  0.7797  0.6166
  988MOL0     C30296   9.854   1.137   5.611  0.1748  0.0142 -0.4920
  988MOL0     C30297   9.928   1.003   5.584  0.5328 -0.5631 -0.6148
  988MOL0     C30298   9.832   0.879   5.577 -1.0230  0.0373 -0.0484
  988MOL0     C30299   9.902   0.746   5.603 -0.7215 -0.7090  0.1033
  988MOL0     C30300   9.801   0.636   5.578  0.7181  0.3372 -0.1151
  988MOL0     N30301   9.870   0.503   5.549  0.1089 -0.0590 -0.0840
  988MOL0     C30302   9.974   0.436   5.611 -0.2031  0.3196 -0.5027
  988MOL0     C30303   9.989   0.315   5.549  1.1217  0.6152  0.3319
  988MOL0     C30304  10.084   0.190   5.556  0.0704 -0.6656  0.4091
  988MOL0     C30305  10.121   0.138   5.693 -0.3005 -0.4626 -0.1332
  988MOL0     C30306  10.198   0.009   5.701 -1.1879  0.5154 -0.6441
  988MOL0     C30307  10.323   0.005   5.613  0.3541  0.0954 -0.1833
  988MOL0     O30308  10.283  -0.039   5.483 -0.3980 -0.2831 -0.6771
  988MOL0     C30309  10.374  -0.019   5.383  0.1417  0.7344 -0.3734
  988MOL0     C30310  10.485  -0.107   5.387  0.3184  0.2926 -0.9021
  988MOL0     C30311  10.574  -0.105   5.277 -0.6561 -0.8315  1.3798
  988MOL0     C30312  10.562  -0.003   5.179  1.1248 -0.8786  0.2050
  988MOL0     C30313  10.655   0.023   5.065 -0.1955  0.8586 -0.5373
  988MOL0     O30314  10.733  -0.080   5.022 -0.1983  0.3208 -0.3129
  988MOL0     C30315  10.840  -0.065   4.945 -0.4246 -0.0936 -0.0525
  988MOL0     C30316  10.915   0.062   4.940  0.4935 -0.0919 -0.7567
  988MOL0     C30317  11.015   0.073   4.844 -0.1483  0.6113  0.3192
  988MOL0     C30318  11.046  -0.036   4.757 -0.4070 -0.6861 -0.1391
  988MOL0     O30319  11.141   0.006   4.676 -0.3871 -1.1144  0.0541
  988MOL0     C30320  11.191  -0.085   4.580  0.1739  0.9519 -0.3130
  988MOL0     C30321  11.332  -0.041   4.542  0.2980  0.0169  0.3197
  988MOL0     C30322  11.398  -0.133   4.450 -1.2061  0.2781  0.7296
  988MOL0     C30323  11.556  -0.118   4.445 -0.1873  0.2574  0.6745
  988MOL0     C30324  11.609  -0.190   4.322 -0.8147 -0.7404 -0.6734
  988MOL0     C30325  11.758  -0.151   4.303  0.1650  0.6851  0.9681
  988MOL0     C30326  11.808  -0.224   4.175  0.1142  0.4151  0.2677
  988MOL0     C30327  11.961  -0.234   4.169 -0.6506 -0.0072  0.0094
  988MOL0    Cl30328  12.040  -0.282   4.325 -0.4730  0.1645  0.3686
  988MOL0     C30329  10.999  -0.160   4.776  0.2171 -0.5054 -0.3265
  988MOL0     C30330  10.890  -0.171   4.868  0.3750 -0.2780 -0.7825
  988MOL0     O30331  10.649   0.135   5.012 -0.4478 -0.2923 -0.2178
  988MOL0     C30332  10.451   0.087   5.187 -0.4411 -0.1500 -0.0446
  988MOL0     C30333  10.361   0.079   5.291 -0.2154  0.6090  0.5870
  988MOL0     N30334   9.888   0.313   5.449  0.0139  0.3270 -0.2756
  988MOL0     N30335   9.810   0.413   5.468  0.6012  0.8912 -0.2742
  988MOL0     C30336   9.447   1.501   5.514 -0.5305  0.0017 -0.2449
  988MOL0     C30337   9.310   1.546   5.524 -0.9322  0.3906  1.1102
  988MOL0     C30338   8.870   1.365   5.563 -1.3741  0.8404 -0.2071
  988MOL0     C30339   8.790   1.339   5.463 -0.3697  0.3481  0.7416
  988MOL0     C30340   8.656   1.309   5.477  0.6488 -0.4569 -0.3821
  988MOL0     C30341   8.604   1.320   5.605  0.7513  0.0449 -0.8501
  988MOL0     O30342   8.466   1.314   5.630  0.1320  0.0548  0.4219
  988MOL0     C30343   8.380   1.406   5.563 -0.5579 -0.0923  0.2169
  988MOL0     C30344   8.279   1.451   5.670  0.5788 -1.0097 -0.2568
  988MOL0     C30345   8.135   1.406   5.633 -0.7484  0.0006  0.0733
  988MOL0     C30346   8.037   1.513   5.676 -0.0947 -0.6544 -0.8205
  988MOL0     C30347   7.903   1.481   5.619  1.8414  0.6347 -0.3880
  988MOL0     C30348   7.807   1.429   5.567 -1.0420  0.9308  0.2180
  988MOL0     C30349   8.685   1.352   5.715  0.3196  0.9103 -0.7500
  988MOL0     C30350   8.824   1.376   5.689  0.1973  0.5113  0.4088
  988MOL0     H30351   9.210   1.271   5.709  1.5567  1.3956  2.0775
  988MOL0     H30352   9.458   1.239   5.706  0.2012 -1.0471 -1.3425
  988MOL0     H30353   9.713   1.351   5.778 -0.1775  0.2308 -0.4376
  988MOL0     H30354   9.692   1.510   5.707  1.3627  0.2052  2.1305
  988MOL0     H30355   9.929   1.470   5.677  0.4347 -0.6632  0.3721
  988MOL0     H30356   9.856   1.429   5.521 -0.3494 -3.7483 -0.8188
  988MOL0     H30357   9.974   1.268   5.746 -2.1486  0.7590  1.4653
  988MOL0     H30358  10.018   1.257   5.575  0.2103 -1.8643  1.3144
  988MOL0     H30359   9.785   1.125   5.695 -0.0356 -0.5604 -0.7387
  988MOL0     H30360   9.796   1.155   5.520  2.1826 -0.4036 -1.9231
  988MOL0     H30361   9.994   0.981   5.668 -0.2984  0.4182  0.3412
  988MOL0     H30362   9.978   0.999   5.487 -0.1061  0.7885 -1.0333
  988MOL0     H30363   9.788   0.884   5.477  0.4177  1.4869 -0.6468
  988MOL0     H30364   9.759   0.886   5.659 -1.5273 -2.6588 -0.1713
  988MOL0     H30365   9.985   0.720   5.536 -0.4698 -0.8278  0.4632
  988MOL0     H30366   9.935   0.738   5.707 -1.5561  1.2599  0.5560
  988MOL0     H30367   9.740   0.657   5.490 -1.3898 -1.5160  0.7866
  988MOL0     H30368   9.747   0.628   5.673  1.5152 -2.9851  0.2000
  988MOL0     H30369  10.028   0.488   5.690  0.0839  2.0154 -1.7695
  988MOL0     H30370  10.182   0.223   5.521  0.2764 -1.6182  0.0612
  988MOL0     H30371  10.052   0.110   5.488  0.1811 -0.1106 -0.3051
  988MOL0     H30372  10.026   0.124   5.745 -0.4480 -0.8771 -0.5110
  988MOL0     H30373  10.166   0.213   5.759  0.6200 -0.9507 -0.1918
  988MOL0     H30374  10.213   0.001   5.809 -3.7361  2.0500 -0.0963
  988MOL0     H30375  10.136  -0.076   5.673  2.2780 -3.0307  1.4892
  988MOL0     H30376  10.401  -0.047   5.671  1.7365  1.8270 -0.4030
  988MOL0     H30377  10.358   0.109   5.615  0.1036  0.2764 -2.7745
  988MOL0     H30378  10.508  -0.184   5.461  0.1509  1.3590  0.3035
  988MOL0     H30379  10.665  -0.165   5.272 -1.6489 -2.3866  1.2356
  988MOL0     H30380  10.914   0.155   4.996  1.6495  0.4383 -1.5828
  988MOL0     H30381  11.068   0.168   4.839  0.1834  0.5184  1.7258
  988MOL0     H30382  11.129  -0.116   4.496  1.9425 -2.6831 -0.4519
  988MOL0     H30383  11.204  -0.184   4.624 -1.0766  0.3488 -1.2428
  988MOL0     H30384  11.391  -0.031   4.634 -1.5759  0.3905  1.5298
  988MOL0     H30385  11.326   0.059   4.499 -1.0828  0.5294  1.6311
  988MOL0     H30386  11.361  -0.113   4.348  1.1774 -0.7709 -0.4128
  988MOL0     H30387  11.366  -0.235   4.471 -0.6873 -0.4548 -1.6694
  988MOL0     H30388  11.582  -0.011   4.439  1.1941 -0.0967  0.0055
  988MOL0     H30389  11.611  -0.151   4.534 -0.9324  0.4680  1.2255
  988MOL0     H30390  11.554  -0.141   4.241  0.9918  0.2779 -1.3496
  988MOL0     H30391  11.600  -0.298   4.333  1.9252 -0.8584  1.8203
  988MOL0     H30392  11.813  -0.192   4.389 -0.0453  2.0551  1.7770
  988MOL0     H30393  11.763  -0.043   4.287  1.1759  0.6604  1.0243
  988MOL0     H30394  11.774  -0.327   4.166 -0.9545  0.5329  2.3867
  988MOL0     H30395  11.771  -0.175   4.085 -0.6935 -2.3349 -1.0196
  988MOL0     H30396  12.005  -0.139   4.138 -2.7270  0.5526 -1.4942
  988MOL0     H30397  11.989  -0.310   4.095 -0.7082  1.2350 -1.3312
  988MOL0     H30398  11.034  -0.238   4.709  2.4119  0.2979 -0.2053
  988MOL0     H30399  10.825  -0.258   4.874 -1.3942  1.1130  2.0821
  988MOL0     H30400  10.439   0.159   5.106 -1.7136  2.6830  2.4728
  988MOL0     H30401  10.269   0.138   5.291 -2.1986 -2.2776  0.3516
  988MOL0     H30402   9.528   1.555   5.466  0.0581  0.2365  0.9772
  988MOL0     H30403   9.275   1.635   5.473  0.1412  1.2348  1.7866
  988MOL0     H30404   8.820   1.351   5.359  3.0365 -0.2819  1.5355
  988MOL0     H30405   8.591   1.293   5.392  0.5323 -0.8760 -0.2195
  988MOL0     H30406   8.321   1.360   5.483 -0.4636 -3.3423  1.8485
  988MOL0     H30407   8.425   1.503   5.539 -0.4847 -0.8436 -3.2511
  988MOL0     H30408   8.317   1.425   5.769  0.1715 -2.1956 -0.3976
  988MOL0     H30409   8.278   1.560   5.683  1.9255 -1.1547  1.3294
  988MOL0     H30410   8.116   1.307   5.675  0.5289 -1.0803 -1.7516
  988MOL0     H30411   8.129   1.407   5.524 -3.1390 -1.0797  0.1384
  988MOL0     H30412   8.030   1.526   5.785  0.2737 -2.7241 -0.5011
  988MOL0     H30413   8.059   1.613   5.638 -0.1893 -0.2847  0.0723
  988MOL0     H30414   7.723   1.398   5.508 -2.4720  1.5512  1.8395
  988MOL0     H30415   8.655   1.345   5.819 -0.4846  1.2549 -0.9495
  988MOL0     H30416   8.893   1.371   5.772  1.5874  1.6171 -0.6438
  989MOL0     O30417   1.305   6.428   9.463  0.0048  0.3608  0.2417
  989MOL0     C30418   1.350   6.534   9.505 -0.0392 -0.2078 -0.3312
  989MOL0     O30419   1.413   6.624   9.421 -0.0174 -0.6519  0.3979
  989MOL0     C30420   1.408   6.613   9.285 -0.0647  0.0686  0.0263
  989MOL0     C30421   1.402   6.732   9.209  0.3112  0.0313  0.6133
  989MOL0     C30422   1.412   6.728   9.073  0.3852 -0.1349 -0.5133
  989MOL0     C30423   1.413   6.605   9.004  0.7628 -0.4217  0.5987
  989MOL0     O30424   1.426   6.628   8.864 -0.4746 -0.6744 -0.3275
  989MOL0     C30425   1.375   6.526   8.782  0.2160 -0.3419 -0.9875
  989MOL0     C30426   1.351   6.561   8.636  0.1191 -0.1608  0.0931
  989MOL0     C30427   1.284   6.709   8.627  0.2133 -0.0530 -0.1911
  989MOL0     C30428   1.258   6.758   8.482  0.2190  0.2454  0.3427
  989MOL0     C30429   1.221   6.905   8.488  0.2172  0.1468  0.3430
  989MOL0     C30430   1.165   6.959   8.351 -0.0526 -0.4196  0.7596
  989MOL0     C30431   1.269   6.988   8.247 -0.4310 -0.1945  0.3521
  989MOL0     C30432   1.211   7.077   8.141 -0.5011  0.4217  0.0925
  989MOL0     N30433   1.120   6.994   8.050  0.1555  0.1907 -0.3692
  989MOL0     C30434   1.134   6.959   7.917  0.4468  0.4681 -0.7418
  989MOL0     C30435   1.032   6.877   7.894  0.1960 -1.1329 -0.2985
  989MOL0     C30436   1.036   6.769   7.784 -0.0167  0.9229  0.2702
  989MOL0     C30437   0.963   6.807   7.657  0.0497 -0.1942 -0.1118
  989MOL0     C30438   0.816   6.817   7.693  0.8080 -0.2008  0.8807
  989MOL0     C30439   0.734   6.842   7.560 -0.4594 -0.0240 -0.7616
  989MOL0     O30440   0.734   6.722   7.483 -0.6446  0.5550 -0.0197
  989MOL0     C30441   0.643   6.695   7.388  0.9013  0.2269  0.2702
  989MOL0     C30442   0.630   6.568   7.335 -0.2949 -0.4013 -0.5038
  989MOL0     C30443   0.515   6.526   7.256 -0.1457  0.5711 -0.1302
  989MOL0     C30444   0.430   6.625   7.205 -0.0240  1.1826 -0.1539
  989MOL0     C30445   0.317   6.592   7.102  0.2525  0.1224  0.7585
  989MOL0     O30446   0.207   6.668   7.105  0.2834  1.0643  0.0755
  989MOL0     C30447   0.098   6.619   7.044 -0.5043  0.1696 -0.4388
  989MOL0     C30448   0.067   6.701   6.931  0.3285  0.3002  0.0025
  989MOL0     C30449  -0.052   6.679   6.865 -0.4232  0.8213 -0.7314
  989MOL0     C30450  -0.151   6.584   6.921 -0.3916  0.3147  0.7378
  989MOL0     O30451  -0.265   6.556   6.848 -0.1938 -0.1188 -0.0589
  989MOL0     C30452  -0.322   6.431   6.822 -0.6217  0.6595 -0.7792
  989MOL0     C30453  -0.479   6.429   6.830  1.0298 -0.3168 -0.5294
  989MOL0     C30454  -0.539   6.312   6.753 -0.2939 -0.1169 -0.2751
  989MOL0     C30455  -0.485   6.171   6.804  0.3729  1.6911  0.2242
  989MOL0     C30456  -0.560   6.034   6.775 -0.0683 -1.5192 -0.1132
  989MOL0     C30457  -0.713   6.044   6.747 -1.1256  0.9266 -0.4404
  989MOL0     C30458  -0.779   6.074   6.876  0.0380 -0.3891  0.5713
  989MOL0     C30459  -0.820   5.942   6.945 -0.6473 -0.3287  0.1218
  989MOL0    Cl30460  -0.900   5.963   7.100  0.0262  0.3500  0.2058
  989MOL0     C30461  -0.116   6.509   7.044  0.8691 -0.2524  0.3319
  989MOL0     C30462   0.002   6.531   7.106  0.6111 -0.0416  0.1789
  989MOL0     O30463   0.329   6.491   7.033 -0.7622 -0.1775  0.4407
  989MOL0     C30464   0.450   6.758   7.242  0.4679 -0.5631 -0.0015
  989MOL0     C30465   0.551   6.787   7.329 -0.7780 -0.6827 -0.0752
  989MOL0     N30466   0.944   6.874   7.999  0.1175 -0.4739 -0.4619
  989MOL0     N30467   0.991   6.959   8.084 -0.0425  1.0715 -0.2828
  989MOL0     C30468   1.419   6.489   9.070  0.0264 -0.0410  0.3135
  989MOL0     C30469   1.424   6.495   9.212 -0.3632 -0.1080 -0.9333
  989MOL0     C30470   1.353   6.558   9.654  0.0227 -0.2246  0.4413
  989MOL0     C30471   1.379   6.684   9.695 -1.3555 -0.0682 -1.0157
  989MOL0     C30472   1.369   6.720   9.832 -0.3032  0.6354 -0.2891
  989MOL0     C30473   1.338   6.622   9.931  0.3998  0.3440  0.4078
  989MOL0     O30474   1.350   6.646  10.062  0.2038  0.7308 -0.9471
  989MOL0     C30475   1.299   6.766  10.131  0.3941  0.5478 -0.5985
  989MOL0     C30476   1.294   6.738  10.287 -0.6878  0.1793  1.1484
  989MOL0     C30477   1.426   6.729  10.366 -0.1529  0.1512 -0.5162
  989MOL0     C30478   1.435   6.843  10.480 -0.8045  0.2669  0.3817
  989MOL0     C30479   1.518   6.950  10.429  0.7152 -0.0985 -0.1052
  989MOL0     C30480   1.590   7.025  10.366 -0.7158  0.5319 -0.9767
  989MOL0     C30481   1.314   6.488   9.882  0.0574  0.4111  0.6307
  989MOL0     C30482   1.312   6.462   9.745  0.3713 -0.3037  0.8839
  989MOL0     H30483   1.388   6.831   9.250  2.1595  0.1458  1.0727
  989MOL0     H30484   1.430   6.820   9.019  0.0115  0.3105  0.1075
  989MOL0     H30485   1.277   6.492   8.820  1.3580 -2.8482 -0.0516
  989MOL0     H30486   1.455   6.451   8.784  2.9715  2.3932 -1.8954
  989MOL0     H30487   1.285   6.491   8.584 -1.5351  0.8593  0.7399
  989MOL0     H30488   1.443   6.566   8.577 -0.1814 -0.7346 -0.4346
  989MOL0     H30489   1.354   6.779   8.674 -0.5080  0.4486  0.1522
  989MOL0     H30490   1.189   6.721   8.679  0.4494  0.7887  0.0687
  989MOL0     H30491   1.351   6.740   8.427  0.8658  2.0319  0.7966
  989MOL0     H30492   1.184   6.695   8.431  1.2497  0.2819 -1.2349
  989MOL0     H30493   1.297   6.971   8.531 -0.9933  1.9272 -0.1441
  989MOL0     H30494   1.138   6.897   8.559 -1.2595  3.8958 -0.7480
  989MOL0     H30495   1.118   7.055   8.376  2.7954  1.1397  0.6275
  989MOL0     H30496   1.095   6.887   8.307  1.4485  0.4449 -3.4817
  989MOL0     H30497   1.351   7.041   8.296 -0.2505 -1.0176  0.9707
  989MOL0     H30498   1.318   6.902   8.199  0.8327  1.5271 -1.6012
  989MOL0     H30499   1.298   7.109   8.083 -0.9133 -1.4194 -1.6661
  989MOL0     H30500   1.160   7.167   8.177  1.0480  0.7459  1.5977
  989MOL0     H30501   1.224   6.979   7.861  2.2674  0.6555  2.0673
  989MOL0     H30502   0.976   6.688   7.827  2.0102 -1.7669 -1.6780
  989MOL0     H30503   1.140   6.742   7.763 -0.0272  0.0431  1.2492
  989MOL0     H30504   0.972   6.721   7.591 -0.2837 -0.6773  0.4626
  989MOL0     H30505   0.989   6.904   7.614 -1.8667  1.4266  2.1373
  989MOL0     H30506   0.779   6.729   7.746 -0.5011 -2.2994 -3.1833
  989MOL0     H30507   0.791   6.898   7.763 -0.1802  0.9309 -0.7128
  989MOL0     H30508   0.769   6.928   7.501 -5.2545  2.1878 -0.8663
  989MOL0     H30509   0.637   6.872   7.599  0.5126  2.8788 -0.3180
  989MOL0     H30510   0.710   6.500   7.362 -1.0098 -0.3583  2.0525
  989MOL0     H30511   0.499   6.429   7.209  3.2289 -0.1634 -0.0192
  989MOL0     H30512   0.132   6.784   6.905 -1.9471  2.4403  0.8086
  989MOL0     H30513  -0.070   6.721   6.766 -0.1906 -0.0598 -1.1574
  989MOL0     H30514  -0.275   6.361   6.891  0.1490  3.0984  1.3185
  989MOL0     H30515  -0.291   6.406   6.720  0.9433  1.7026 -0.5976
  989MOL0     H30516  -0.518   6.513   6.772 -1.3510 -2.7905 -2.8981
  989MOL0     H30517  -0.504   6.434   6.936  0.6835 -0.1159 -0.6192
  989MOL0     H30518  -0.514   6.315   6.647  1.0751 -1.3332 -0.0162
  989MOL0     H30519  -0.647   6.320   6.767  0.0352  2.1387  1.6469
  989MOL0     H30520  -0.385   6.143   6.770 -0.2355 -2.5435  1.3998
  989MOL0     H30521  -0.480   6.175   6.913  0.6302 -1.1361  0.3759
  989MOL0     H30522  -0.526   5.965   6.852 -0.0308  0.1930  1.4671
  989MOL0     H30523  -0.524   6.012   6.674  0.5170 -3.6035  0.5037
  989MOL0     H30524  -0.753   5.948   6.712 -1.7629  1.4608 -1.1965
  989MOL0     H30525  -0.722   6.110   6.661 -1.4950  0.8188 -0.4856
  989MOL0     H30526  -0.704   6.127   6.936  2.2053  1.6226 -3.5033
  989MOL0     H30527  -0.869   6.132   6.852 -0.4694 -2.5999 -3.7557
  989MOL0     H30528  -0.726   5.886   6.954 -1.1011 -1.4082 -1.4094
  989MOL0     H30529  -0.884   5.881   6.881  0.6348 -0.8491 -0.7170
  989MOL0     H30530  -0.180   6.430   7.082  1.7613 -1.7676 -1.1804
  989MOL0     H30531   0.022   6.489   7.204 -0.5739  1.4129  1.0910
  989MOL0     H30532   0.387   6.837   7.202  1.1759 -0.6024 -1.2577
  989MOL0     H30533   0.547   6.888   7.369  0.2389  0.8962 -3.5830
  989MOL0     H30534   1.446   6.396   9.022  2.7512  1.2132 -0.7745
  989MOL0     H30535   1.447   6.401   9.260 -1.5883 -0.9951 -2.0007
  989MOL0     H30536   1.396   6.761   9.620 -0.9762 -1.3582 -2.2756
  989MOL0     H30537   1.380   6.825   9.854 -1.4495  0.8654 -0.7222
  989MOL0     H30538   1.201   6.800  10.096 -0.2343 -0.6533 -0.0858
  989MOL0     H30539   1.360   6.854  10.107 -0.1795  0.2607 -3.5634
  989MOL0     H30540   1.226   6.812  10.330 -2.8373 -1.7745  1.3280
  989MOL0     H30541   1.252   6.638  10.299  0.9195 -0.7502 -0.5467
  989MOL0     H30542   1.505   6.737  10.290  0.3753 -0.0959  0.0046
  989MOL0     H30543   1.429   6.630  10.411 -1.4928 -1.2866 -3.3421
  989MOL0     H30544   1.339   6.876  10.521  0.4163  1.6043  2.3173
  989MOL0     H30545   1.494   6.785  10.552 -1.2402 -0.2323  0.3380
  989MOL0     H30546   1.653   7.096  10.317  0.4382 -0.3170 -0.7598
  989MOL0     H30547   1.295   6.413   9.958  1.1278  0.3276  0.8374
  989MOL0     H30548   1.287   6.364   9.705  1.2219 -1.0727  2.1769
  990MOL0     O30549  10.536   9.653   4.175  0.8462  0.6877 -1.0744
  990MOL0     C30550  10.536   9.573   4.080 -0.2977  0.3013 -0.2447
  990MOL0     O30551  10.627   9.573   3.980  0.4439  0.2110  0.2000
  990MOL0     C30552  10.741   9.637   3.987 -0.2305  0.8292  0.1567
  990MOL0     C30553  10.837   9.603   3.892  0.3144  0.4008 -0.0730
  990MOL0     C30554  10.972   9.655   3.892  0.7087  0.0984 -0.0937
  990MOL0     C30555  11.007   9.757   3.985 -0.9515  0.3786 -0.2198
  990MOL0     O30556  11.123   9.830   3.978  0.1589 -0.3974 -0.1725
  990MOL0     C30557  11.241   9.757   3.982 -0.1891  0.9100  0.8542
  990MOL0     C30558  11.339   9.864   4.035 -0.1810 -0.2266  0.6764
  990MOL0     C30559  11.474   9.806   4.060  0.1129  0.3120  0.9637
  990MOL0     C30560  11.510   9.709   4.182 -0.7596 -0.5789 -0.2956
  990MOL0     C30561  11.661   9.697   4.185  1.3940 -0.3494  0.0869
  990MOL0     C30562  11.721   9.599   4.290  0.5331  0.7526 -0.4428
  990MOL0     C30563  11.700   9.444   4.269 -0.7379  0.0282 -0.7180
  990MOL0     C30564  11.795   9.364   4.359 -0.4542  0.3819  0.4005
  990MOL0     N30565  11.776   9.391   4.504 -0.1406  0.3426 -0.2558
  990MOL0     C30566  11.659   9.350   4.575 -0.3158 -0.2254  0.3466
  990MOL0     C30567  11.657   9.423   4.692 -0.6023  0.2033  0.2577
  990MOL0     C30568  11.553   9.409   4.802 -0.5594  0.0358  1.1496
  990MOL0     C30569  11.589   9.319   4.920 -0.4408  0.0547 -0.4481
  990MOL0     C30570  11.624   9.182   4.862 -0.7562 -0.3452 -0.0947
  990MOL0     C30571  11.511   9.078   4.843  0.2193 -0.5419  0.6044
  990MOL0     O30572  11.402   9.142   4.772 -0.3332  0.7516  0.4519
  990MOL0     C30573  11.278   9.084   4.784 -0.0445 -0.3501 -0.2207
  990MOL0     C30574  11.254   8.967   4.853  0.1834  1.8092  0.4657
  990MOL0     C30575  11.128   8.906   4.871  0.2634 -0.4121  0.2243
  990MOL0     C30576  11.015   8.978   4.825  0.3375  0.6230 -0.0096
  990MOL0     C30577  10.873   8.923   4.849 -0.8590  0.0237 -0.6024
  990MOL0     O30578  10.869   8.818   4.938  0.6223  1.1747  0.1317
  990MOL0     C30579  10.751   8.754   4.958  0.2513  0.4404 -0.8577
  990MOL0     C30580  10.771   8.634   5.038 -0.2284  0.0987  0.1836
  990MOL0     C30581  10.665   8.559   5.069  0.8963  0.4075 -1.0975
  990MOL0     C30582  10.535   8.580   5.022  0.5415  0.2574  0.7127
  990MOL0     O30583  10.427   8.499   5.053  0.3300 -0.3672  0.9470
  990MOL0     C30584  10.469   8.363   5.076 -0.1176  0.0527 -0.0028
  990MOL0     C30585  10.356   8.268   5.044 -1.1932 -0.0860 -0.7345
  990MOL0     C30586  10.403   8.120   5.055 -0.2503  0.6098  0.2101
  990MOL0     C30587  10.290   8.010   5.037  0.1146 -0.0778  0.4552
  990MOL0     C30588  10.343   7.876   5.083 -0.9930  0.2772  0.9814
  990MOL0     C30589  10.232   7.777   5.050  0.5573  0.4954 -0.7142
  990MOL0     C30590  10.293   7.634   5.035  0.2792 -0.6593  0.6556
  990MOL0     C30591  10.184   7.539   4.969  0.5398  0.0048  0.4157
  990MOL0    Cl30592  10.053   7.510   5.076  0.5183  0.0812 -0.1928
  990MOL0     C30593  10.514   8.692   4.945 -0.3649  0.5496 -0.0921
  990MOL0     C30594  10.623   8.777   4.914 -0.4853 -0.4680 -0.5113
  990MOL0     O30595  10.780   8.992   4.801 -0.4508  0.4222 -0.0559
  990MOL0     C30596  11.037   9.107   4.768 -0.9382  0.5272 -0.2944
  990MOL0     C30597  11.166   9.156   4.751 -0.6802  0.6476 -1.2547
  990MOL0     N30598  11.761   9.507   4.691  0.2503 -0.9535  0.0112
  990MOL0     N30599  11.839   9.485   4.590  0.3732 -0.4944 -0.0660
  990MOL0     C30600  10.910   9.789   4.077 -0.2939  0.0922 -0.8839
  990MOL0     C30601  10.781   9.737   4.073 -0.5161  1.5814 -0.2744
  990MOL0     C30602  10.445   9.464   4.079  0.9990 -0.7972 -0.2469
  990MOL0     C30603  10.415   9.402   3.955 -0.2266 -0.1599 -0.4453
  990MOL0     C30604  10.325   9.294   3.963 -0.2212 -0.6897  0.4602
  990MOL0     C30605  10.250   9.264   4.076  0.4100  0.5062  0.0534
  990MOL0     O30606  10.157   9.157   4.074  0.0570 -0.4910 -0.3026
  990MOL0     C30607  10.054   9.172   3.975 -0.7441 -0.0562 -0.1501
  990MOL0     C30608   9.977   9.047   3.989  0.0004  0.0186  0.2246
  990MOL0     C30609   9.885   9.028   3.866  0.1056  1.0478  0.1705
  990MOL0     C30610   9.958   8.972   3.744 -0.6092  0.0238 -0.5762
  990MOL0     C30611   9.899   9.029   3.624 -0.5569  0.8672 -0.3328
  990MOL0     C30612   9.833   9.072   3.526 -0.2467  0.6174  0.8760
  990MOL0     C30613  10.261   9.340   4.188 -0.3897  1.0468  0.5149
  990MOL0     C30614  10.369   9.432   4.191 -0.1018  0.3657  0.3474
  990MOL0     H30615  10.811   9.527   3.820  0.1073  2.0293 -1.7890
  990MOL0     H30616  11.033   9.634   3.805  0.5336  2.5780 -0.9177
  990MOL0     H30617  11.275   9.720   3.885  0.4871  0.9612  1.0714
  990MOL0     H30618  11.233   9.674   4.052  0.8674  1.0640  1.1602
  990MOL0     H30619  11.292   9.919   4.117 -0.0893  1.1405 -0.1683
  990MOL0     H30620  11.353   9.939   3.957  1.1178  1.5411  2.5109
  990MOL0     H30621  11.543   9.890   4.073 -1.1231  1.0981  3.1451
  990MOL0     H30622  11.498   9.742   3.975  0.1235 -1.2292  2.0832
  990MOL0     H30623  11.481   9.759   4.275  0.2462 -2.1624  0.9228
  990MOL0     H30624  11.460   9.614   4.163 -1.9406  0.0593 -0.4420
  990MOL0     H30625  11.697   9.796   4.216  0.7124  0.1394 -0.6221
  990MOL0     H30626  11.695   9.670   4.084 -1.0100  1.6779 -1.4232
  990MOL0     H30627  11.688   9.624   4.391  1.9505 -1.6982  0.7257
  990MOL0     H30628  11.827   9.623   4.293  0.5473  1.0003  3.9817
  990MOL0     H30629  11.601   9.420   4.307 -0.8831  0.6036 -0.7187
  990MOL0     H30630  11.709   9.409   4.166  3.3994  2.2355 -1.3231
  990MOL0     H30631  11.896   9.388   4.326 -0.9738  2.3410  0.0860
  990MOL0     H30632  11.774   9.257   4.349  0.0363  0.1145  2.0155
  990MOL0     H30633  11.591   9.273   4.539 -2.3957  1.3169  0.7714
  990MOL0     H30634  11.472   9.364   4.742  1.8871 -1.9537 -0.9083
  990MOL0     H30635  11.517   9.506   4.837  0.0735  1.7303 -2.4331
  990MOL0     H30636  11.501   9.312   4.986  1.1480 -3.0283  1.6211
  990MOL0     H30637  11.674   9.360   4.975 -1.7570  1.0596  0.9118
  990MOL0     H30638  11.679   9.187   4.768 -1.4941  1.0256 -0.4758
  990MOL0     H30639  11.689   9.132   4.934  0.3939 -0.9718 -1.5221
  990MOL0     H30640  11.476   9.046   4.941 -2.6172 -1.0630 -0.4894
  990MOL0     H30641  11.562   8.994   4.795  3.1839  1.3835  0.0986
  990MOL0     H30642  11.333   8.901   4.885 -1.8952  0.2823  2.8091
  990MOL0     H30643  11.121   8.802   4.901  4.3046 -1.1321 -0.6166
  990MOL0     H30644  10.869   8.598   5.070 -0.2179  0.2987  0.3751
  990MOL0     H30645  10.671   8.476   5.139 -3.1141  0.1228 -0.8819
  990MOL0     H30646  10.500   8.350   5.180  2.1617 -1.1437 -0.7582
  990MOL0     H30647  10.555   8.333   5.015  0.0503 -2.0719  1.1889
  990MOL0     H30648  10.322   8.289   4.942  2.5277  0.6461 -1.9694
  990MOL0     H30649  10.273   8.282   5.113 -3.9952 -2.0944 -3.3862
  990MOL0     H30650  10.452   8.110   5.152  2.4311  3.8253 -0.6073
  990MOL0     H30651  10.470   8.105   4.969 -1.9690  4.1383 -2.0024
  990MOL0     H30652  10.198   8.044   5.085 -1.1678 -2.0195 -0.4988
  990MOL0     H30653  10.275   8.012   4.929  0.3052  2.7925  0.4049
  990MOL0     H30654  10.355   7.865   5.191  0.5719 -0.1363  0.7907
  990MOL0     H30655  10.435   7.852   5.029 -2.0217 -0.1352 -0.6528
  990MOL0     H30656  10.177   7.805   4.959  0.4994  0.7335 -0.6065
  990MOL0     H30657  10.160   7.774   5.132  1.7925 -0.2168  0.3691
  990MOL0     H30658  10.384   7.647   4.975  0.4337  2.5498  1.4395
  990MOL0     H30659  10.320   7.590   5.131  1.0066 -1.4125  0.1282
  990MOL0     H30660  10.230   7.440   4.958 -1.4383 -0.8386 -0.8195
  990MOL0     H30661  10.165   7.567   4.865 -3.9331 -1.0025  0.7633
  990MOL0     H30662  10.412   8.710   4.913  0.5176  1.8500 -2.4152
  990MOL0     H30663  10.600   8.862   4.852  0.2692 -0.8078 -1.2820
  990MOL0     H30664  10.953   9.174   4.747 -2.0486  1.5737  5.7202
  990MOL0     H30665  11.182   9.259   4.720 -1.1188  1.1929  0.2584
  990MOL0     H30666  10.942   9.865   4.147  3.6965 -2.4998  0.4101
  990MOL0     H30667  10.711   9.785   4.140 -0.7688  1.3508 -0.3700
  990MOL0     H30668  10.456   9.422   3.857  1.3804  1.9348  0.5918
  990MOL0     H30669  10.320   9.219   3.885  1.2903 -2.5487  2.0356
  990MOL0     H30670  10.103   9.168   3.877  1.6749 -3.4529  1.0000
  990MOL0     H30671  10.004   9.269   3.983 -1.6872 -0.6502  1.8348
  990MOL0     H30672  10.041   8.960   4.008  0.8282  1.0077  2.2605
  990MOL0     H30673   9.914   9.064   4.077  2.3004  0.8880  1.7971
  990MOL0     H30674   9.842   9.126   3.843  2.0745  2.0506  0.4856
  990MOL0     H30675   9.808   8.959   3.900  0.8739  0.2958  0.4246
  990MOL0     H30676  10.064   8.999   3.751 -0.4121 -0.7383 -0.4537
  990MOL0     H30677   9.956   8.863   3.746 -0.2124  0.0171 -0.5539
  990MOL0     H30678   9.777   9.108   3.443  0.7440  1.8705  0.7208
  990MOL0     H30679  10.190   9.316   4.267 -1.2523  1.2693 -0.1751
  990MOL0     H30680  10.398   9.475   4.287  1.3085  0.2036  0.0171
  991MOL0     O30681   5.103   6.094   9.110  0.7599 -0.5867  0.5753
  991MOL0     C30682   5.120   6.014   9.015  0.2355 -0.3164  0.0641
  991MOL0     O30683   5.228   6.009   8.931  0.0715 -0.3319  0.0703
  991MOL0     C30684   5.349   6.050   8.981  0.3930  0.5076  0.0262
  991MOL0     C30685   5.384   6.115   9.103  0.7764  0.5954  0.6922
  991MOL0     C30686   5.522   6.155   9.125  0.0669 -0.6711  0.3371
  991MOL0     C30687   5.627   6.122   9.039 -0.3015  0.9137 -0.6397
  991MOL0     O30688   5.759   6.142   9.071 -0.1158 -0.0891 -0.1045
  991MOL0     C30689   5.805   6.104   9.202 -0.2208 -0.3022 -0.1893
  991MOL0     C30690   5.930   6.023   9.201  0.1985  0.3857  0.1213
  991MOL0     C30691   5.899   5.890   9.123 -0.0654  0.0066 -0.5248
  991MOL0     C30692   6.000   5.785   9.180  0.2376 -0.2767  0.7459
  991MOL0     C30693   6.020   5.652   9.114  0.4731 -0.2087  0.0427
  991MOL0     C30694   6.027   5.668   8.960 -0.0766  0.5282 -0.1245
  991MOL0     C30695   6.170   5.705   8.930  1.1906 -0.1397  1.1833
  991MOL0     C30696   6.169   5.836   8.845 -1.4837 -0.0204 -0.2991
  991MOL0     N30697   6.296   5.858   8.779  0.0093 -0.0766 -0.1072
  991MOL0     C30698   6.318   5.819   8.646 -0.3055  0.1319 -0.3945
  991MOL0     C30699   6.439   5.878   8.620  0.2838  0.1379  0.3227
  991MOL0     C30700   6.511   5.863   8.485  0.1033 -0.0763 -0.7406
  991MOL0     C30701   6.657   5.856   8.519 -0.3561  0.6197  0.0823
  991MOL0     C30702   6.759   5.820   8.401  0.4272 -0.0108 -1.0344
  991MOL0     C30703   6.793   5.671   8.378  0.6044 -0.8132  0.2875
  991MOL0     O30704   6.860   5.605   8.486 -0.5698 -0.0332 -1.0826
  991MOL0     C30705   6.867   5.469   8.479 -0.5338  0.2058  0.2046
  991MOL0     C30706   6.863   5.395   8.365  0.0115  0.1143  0.5114
  991MOL0     C30707   6.897   5.257   8.373 -0.2812 -1.1159 -0.7014
  991MOL0     C30708   6.920   5.194   8.497 -0.6704  1.0697  0.4028
  991MOL0     C30709   6.936   5.044   8.495 -0.9602  0.2422 -0.3373
  991MOL0     O30710   6.944   4.984   8.612  0.2764 -0.2021  0.4804
  991MOL0     C30711   6.982   4.856   8.621  0.3094  0.0635  0.2108
  991MOL0     C30712   6.885   4.744   8.606 -0.0170 -0.4546  0.1795
  991MOL0     C30713   6.911   4.610   8.637 -0.2983  0.2955  0.7805
  991MOL0     C30714   7.036   4.571   8.676  0.1830  0.1774  0.0095
  991MOL0     O30715   7.075   4.449   8.721 -0.2589  0.1316 -0.6132
  991MOL0     C30716   7.007   4.319   8.703 -0.4352 -0.9090  0.9619
  991MOL0     C30717   7.017   4.289   8.557 -0.1785  0.2507 -0.3006
  991MOL0     C30718   7.157   4.242   8.503 -0.5394 -0.5010  0.5308
  991MOL0     C30719   7.147   4.270   8.354 -0.3033 -0.2014 -0.5174
  991MOL0     C30720   7.274   4.225   8.281  0.0317 -0.0986  0.3606
  991MOL0     C30721   7.304   4.076   8.288 -0.4263 -0.4780 -0.4287
  991MOL0     C30722   7.209   3.980   8.223  0.7285 -0.5123  0.3011
  991MOL0     C30723   7.255   3.835   8.261 -0.2146 -0.3315  0.0260
  991MOL0    Cl30724   7.151   3.721   8.168 -0.0083 -0.0634  0.0403
  991MOL0     C30725   7.136   4.671   8.678 -0.2870 -0.3652  1.3371
  991MOL0     C30726   7.109   4.808   8.654 -0.1750 -1.0804 -1.0492
  991MOL0     O30727   6.962   4.988   8.390  0.3991  0.2559  0.0242
  991MOL0     C30728   6.913   5.277   8.613 -0.7939  1.0037  1.1499
  991MOL0     C30729   6.893   5.416   8.608 -0.6740  0.5178 -1.4460
  991MOL0     N30730   6.481   5.957   8.731 -0.4045  0.9288 -0.2365
  991MOL0     N30731   6.396   5.944   8.827  0.9133 -0.2418 -0.7060
  991MOL0     C30732   5.597   6.047   8.925  0.5112 -0.2439  0.0903
  991MOL0     C30733   5.461   6.009   8.898 -0.5650 -0.0955 -0.2464
  991MOL0     C30734   5.003   5.939   8.978 -0.5656  0.6334 -0.0024
  991MOL0     C30735   5.004   5.873   8.849 -0.3355  0.1444 -0.1280
  991MOL0     C30736   4.903   5.781   8.812  0.6793 -0.7487  0.1664
  991MOL0     C30737   4.798   5.763   8.902 -0.5243 -0.7515 -0.5904
  991MOL0     O30738   4.694   5.691   8.861 -0.5005  0.1256  0.3330
  991MOL0     C30739   4.570   5.702   8.934  0.0263  0.6436 -0.2700
  991MOL0     C30740   4.462   5.665   8.829 -0.7238 -0.1864  0.2350
  991MOL0     C30741   4.320   5.700   8.874  0.0675 -0.4132  0.6007
  991MOL0     C30742   4.286   5.853   8.892 -0.1724 -1.0095 -0.7038
  991MOL0     C30743   4.140   5.872   8.921 -0.3940 -0.6328 -0.0103
  991MOL0     C30744   4.019   5.885   8.934 -0.6547 -0.2492 -0.2914
  991MOL0     C30745   4.806   5.820   9.037  0.2224 -1.2672 -0.4906
  991MOL0     C30746   4.907   5.911   9.071  0.4159  0.6161  0.5465
  991MOL0     H30747   5.313   6.137   9.182 -2.6157 -1.2477 -1.5964
  991MOL0     H30748   5.540   6.209   9.217 -1.8884  3.0739 -1.2788
  991MOL0     H30749   5.721   6.054   9.251 -1.2082  1.1693 -0.3376
  991MOL0     H30750   5.831   6.186   9.269  1.3024 -0.5924 -0.3746
  991MOL0     H30751   5.957   6.003   9.305 -0.0908 -4.1786 -0.4652
  991MOL0     H30752   6.015   6.075   9.155 -0.8754  2.1488  0.0741
  991MOL0     H30753   5.896   5.924   9.019 -2.2994  2.3128  0.1936
  991MOL0     H30754   5.795   5.867   9.143 -0.2018 -0.2895 -1.5252
  991MOL0     H30755   6.101   5.824   9.166  0.3405 -1.4114 -2.3730
  991MOL0     H30756   5.973   5.776   9.286 -2.4624  4.3992  0.6918
  991MOL0     H30757   5.939   5.582   9.136  2.6619 -2.8886  0.1380
  991MOL0     H30758   6.113   5.607   9.148  0.2159  0.0040  1.0593
  991MOL0     H30759   5.952   5.730   8.909 -1.4193 -0.4428  0.5868
  991MOL0     H30760   6.012   5.568   8.916 -1.0757  0.0069  1.3151
  991MOL0     H30761   6.237   5.707   9.016  3.1443 -3.6352 -0.0255
  991MOL0     H30762   6.218   5.627   8.870  1.9465  2.2838 -1.5620
  991MOL0     H30763   6.150   5.917   8.916  1.5876  0.6499 -0.0914
  991MOL0     H30764   6.089   5.834   8.770 -1.5631  2.7521 -0.3876
  991MOL0     H30765   6.273   5.760   8.567  2.9811 -3.3199  0.0359
  991MOL0     H30766   6.494   5.949   8.421  1.3468  0.9496  0.2554
  991MOL0     H30767   6.489   5.770   8.432 -2.3898  1.2497 -2.2101
  991MOL0     H30768   6.660   5.777   8.595  0.2628 -0.6472 -1.2161
  991MOL0     H30769   6.691   5.953   8.558  0.6684  0.2955  0.0251
  991MOL0     H30770   6.724   5.875   8.313 -2.6294  0.2094  0.1743
  991MOL0     H30771   6.850   5.868   8.439 -0.8219  0.1203  2.1266
  991MOL0     H30772   6.855   5.670   8.288 -0.4943  1.1796 -0.5447
  991MOL0     H30773   6.703   5.620   8.344  2.3715 -1.2611 -4.5603
  991MOL0     H30774   6.844   5.426   8.263  1.9243  0.5338  0.2447
  991MOL0     H30775   6.896   5.195   8.284 -0.9696 -0.2586 -1.3069
  991MOL0     H30776   6.787   4.753   8.559  0.3727 -0.6315 -0.6903
  991MOL0     H30777   6.845   4.525   8.623 -0.7780  0.5325  1.5359
  991MOL0     H30778   6.904   4.307   8.739 -0.7418 -0.2620  0.3171
  991MOL0     H30779   7.067   4.242   8.754  0.9854  1.1269  2.5301
  991MOL0     H30780   6.969   4.365   8.494 -0.5517 -2.2090 -3.2242
  991MOL0     H30781   6.950   4.204   8.536 -1.9183  1.7858 -1.2480
  991MOL0     H30782   7.165   4.134   8.516 -1.9758 -0.6033  0.7136
  991MOL0     H30783   7.244   4.300   8.538 -2.1541  0.3810  3.3915
  991MOL0     H30784   7.065   4.219   8.303 -0.4255  0.8462 -1.4018
  991MOL0     H30785   7.130   4.378   8.347 -0.6858 -0.2416 -0.2578
  991MOL0     H30786   7.359   4.277   8.325 -2.2904  2.0962  2.5586
  991MOL0     H30787   7.253   4.254   8.178 -1.5313 -0.2532  0.6111
  991MOL0     H30788   7.311   4.056   8.395  0.2666  1.2584 -0.1143
  991MOL0     H30789   7.403   4.047   8.251 -0.3961 -0.9499  0.0112
  991MOL0     H30790   7.104   3.997   8.244  0.3233 -1.9423 -0.4087
  991MOL0     H30791   7.218   3.983   8.114 -3.7525  2.1029 -0.2397
  991MOL0     H30792   7.262   3.810   8.367 -1.4738  1.9185  0.7189
  991MOL0     H30793   7.359   3.833   8.230  0.4048 -3.4406  1.8595
  991MOL0     H30794   7.234   4.641   8.714  0.3898  0.7636  0.5033
  991MOL0     H30795   7.190   4.879   8.666 -0.3485 -1.3277  2.3479
  991MOL0     H30796   6.921   5.216   8.703  2.9669 -1.0818 -0.3331
  991MOL0     H30797   6.887   5.481   8.694 -0.2093  1.5344 -2.1555
  991MOL0     H30798   5.670   5.986   8.873  1.1662 -2.1072  2.9058
  991MOL0     H30799   5.440   5.956   8.806  1.9536 -1.4036 -0.1439
  991MOL0     H30800   5.078   5.892   8.772  1.1058 -1.3700  0.8292
  991MOL0     H30801   4.913   5.731   8.717 -0.1364  1.3941 -1.1284
  991MOL0     H30802   4.553   5.807   8.961 -0.7629  0.7824 -1.2481
  991MOL0     H30803   4.563   5.638   9.023 -0.4260  0.1709 -0.6436
  991MOL0     H30804   4.488   5.719   8.737 -0.6846  0.9090  0.8629
  991MOL0     H30805   4.489   5.561   8.813  0.9565  0.3613 -0.7798
  991MOL0     H30806   4.299   5.641   8.963 -2.1660 -2.4976 -1.1619
  991MOL0     H30807   4.252   5.664   8.796 -0.9555  1.8706  0.3656
  991MOL0     H30808   4.343   5.900   8.973  0.5776 -2.5844 -0.2782
  991MOL0     H30809   4.311   5.914   8.804  0.8914 -0.0882  0.1864
  991MOL0     H30810   3.914   5.898   8.952 -0.4900  0.3010  0.3335
  991MOL0     H30811   4.742   5.787   9.118  1.4298 -1.6570  0.3329
  991MOL0     H30812   4.908   5.963   9.166 -1.4069 -0.7792  1.3990
  992MOL0     O30813   2.078   8.920   9.939  0.0476  0.3040  0.0356
  992MOL0     C30814   2.192   8.965   9.951 -0.0294  1.1058  0.1991
  992MOL0     O30815   2.219   9.088   9.992  0.0459  0.8051  0.9897
  992MOL0     C30816   2.133   9.197  10.002 -0.4813  0.1913 -0.6242
  992MOL0     C30817   1.995   9.201   9.976 -0.0910 -0.1259  0.6080
  992MOL0     C30818   1.920   9.318   9.989 -0.1716 -0.0582 -0.2206
  992MOL0     C30819   1.968   9.428  10.054 -0.5213  0.2564  0.2583
  992MOL0     O30820   1.875   9.521  10.088  0.1076 -0.3871 -0.8300
  992MOL0     C30821   1.919   9.657  10.132 -0.6514  0.4838  0.2580
  992MOL0     C30822   1.983   9.749  10.025 -0.4723 -0.3994 -0.5883
  992MOL0     C30823   2.017   9.894  10.090 -0.2268 -0.0825 -1.1423
  992MOL0     C30824   2.098   9.970   9.995  1.1662  0.8593  0.9643
  992MOL0     C30825   2.158  10.101  10.043  0.3662 -0.1169 -0.6153
  992MOL0     C30826   2.194  10.104  10.190 -0.3965  0.7271  0.0013
  992MOL0     C30827   2.277  10.239  10.209 -0.2627 -0.0092 -0.1150
  992MOL0     C30828   2.318  10.281  10.349  0.2622  0.2976 -0.0219
  992MOL0     N30829   2.374  10.418  10.338 -0.5479 -0.5882 -0.2797
  992MOL0     C30830   2.322  10.549  10.355  0.5770  0.6775 -0.7517
  992MOL0     C30831   2.434  10.625  10.377 -0.6297 -0.3089  0.0326
  992MOL0     C30832   2.435  10.771  10.423  0.5896  0.5251  1.1029
  992MOL0     C30833   2.355  10.806  10.551  0.1729 -0.3289 -0.5197
  992MOL0     C30834   2.413  10.724  10.677  1.2119 -0.1606 -0.4534
  992MOL0     C30835   2.566  10.749  10.706 -0.2473  0.6448  0.3968
  992MOL0     O30836   2.588  10.876  10.765 -0.5240  0.2416 -0.5902
  992MOL0     C30837   2.711  10.933  10.747  0.7422 -0.2667  0.0928
  992MOL0     C30838   2.842  10.869  10.733 -0.4991  0.7803 -0.0325
  992MOL0     C30839   2.950  10.952  10.720  0.7307  0.1899  0.6706
  992MOL0     C30840   2.938  11.090  10.718  0.1247 -0.4638  0.5659
  992MOL0     C30841   3.057  11.173  10.672  0.8845  0.2856  0.1140
  992MOL0     O30842   3.041  11.307  10.692 -0.5699  0.3003 -0.3205
  992MOL0     C30843   3.158  11.379  10.678 -0.5318 -0.2828 -0.7531
  992MOL0     C30844   3.210  11.457  10.787 -0.3875  0.6059  0.0773
  992MOL0     C30845   3.328  11.526  10.771  0.5533  0.3284 -0.2433
  992MOL0     C30846   3.387  11.543  10.646  0.2136 -0.0045  0.4728
  992MOL0     O30847   3.491  11.631  10.616 -0.7278  0.0612 -0.1845
  992MOL0     C30848   3.541  11.726  10.698  1.1935  0.5267 -0.6577
  992MOL0     C30849   3.627  11.817  10.609  0.9705 -0.2340  0.3441
  992MOL0     C30850   3.647  11.952  10.681  0.2428 -0.4948  0.0670
  992MOL0     C30851   3.710  12.048  10.589  0.2477  0.2155 -0.4969
  992MOL0     C30852   3.741  12.180  10.666  0.0168  1.1214 -0.0268
  992MOL0     C30853   3.829  12.281  10.586  0.5006 -0.3932  0.6584
  992MOL0     C30854   3.834  12.424  10.639 -0.7332 -0.7079 -0.1668
  992MOL0     C30855   3.716  12.520  10.611 -0.0475  0.0140  0.2654
  992MOL0    Cl30856   3.694  12.558  10.442  0.7476  0.0657 -0.1535
  992MOL0     C30857   3.335  11.470  10.538 -0.6290  0.7702  0.8852
  992MOL0     C30858   3.219  11.388  10.552  0.2564  0.4826  0.2904
  992MOL0     O30859   3.156  11.112  10.626 -0.6457  1.0165  0.0187
  992MOL0     C30860   2.815  11.150  10.732 -0.1290  0.1103  0.1835
  992MOL0     C30861   2.700  11.072  10.746 -0.8559 -0.0681 -0.2657
  992MOL0     N30862   2.548  10.537  10.384  0.5266  0.4704 -0.5074
  992MOL0     N30863   2.516  10.414  10.358  0.5770 -1.3242  0.3867
  992MOL0     C30864   2.109   9.434  10.081  1.0728 -0.6384  1.2251
  992MOL0     C30865   2.190   9.314  10.051 -0.1378 -0.8284 -0.2518
  992MOL0     C30866   2.304   8.867   9.952  0.7309 -0.5879 -0.2668
  992MOL0     C30867   2.294   8.742   9.889 -0.8191 -0.1309  0.1530
  992MOL0     C30868   2.401   8.659   9.875  0.2964  0.1865  0.7101
  992MOL0     C30869   2.530   8.692   9.926 -0.1763 -0.3465  0.1233
  992MOL0     O30870   2.632   8.597   9.897  0.2037 -0.2294 -0.2053
  992MOL0     C30871   2.759   8.628   9.955 -0.1327  0.6712 -0.4779
  992MOL0     C30872   2.863   8.529   9.927 -0.8267  0.6793  0.7208
  992MOL0     C30873   2.886   8.436  10.045  0.7737  0.0542  0.0163
  992MOL0     C30874   3.005   8.344  10.016  0.3236 -0.2472  0.1769
  992MOL0     C30875   3.063   8.270  10.134  0.0038 -0.5933 -0.5516
  992MOL0     C30876   3.120   8.226  10.239 -0.2828  0.1280  0.7245
  992MOL0     C30877   2.535   8.805  10.008 -0.5835 -0.2180  0.0279
  992MOL0     C30878   2.424   8.889  10.020 -0.4520  0.7477 -0.6338
  992MOL0     H30879   1.942   9.109   9.953  2.4660 -1.9865  1.7103
  992MOL0     H30880   1.813   9.308   9.971 -0.6426  2.6111  0.7268
  992MOL0     H30881   1.991   9.651  10.214  0.1862  0.2653 -0.4724
  992MOL0     H30882   1.825   9.696  10.170 -0.4686 -0.0534  1.2847
  992MOL0     H30883   1.912   9.769   9.944 -2.4028  1.1140  1.3751
  992MOL0     H30884   2.069   9.703   9.976 -0.1374 -0.0300 -0.3575
  992MOL0     H30885   2.079   9.878  10.178 -1.1553 -1.9086 -0.7725
  992MOL0     H30886   1.928   9.945  10.128 -0.8013 -2.5336  1.1100
  992MOL0     H30887   2.181   9.908   9.960  1.1193 -0.0339  2.3658
  992MOL0     H30888   2.043   9.993   9.903 -0.4275  0.3718  1.7495
  992MOL0     H30889   2.082  10.180  10.033 -0.7118 -1.2413 -1.7648
  992MOL0     H30890   2.247  10.117   9.982  0.7013  2.1821  0.3630
  992MOL0     H30891   2.253  10.015  10.214 -0.2130  0.9830  0.5253
  992MOL0     H30892   2.104  10.108  10.252 -3.3346 -0.6608 -3.7443
  992MOL0     H30893   2.370  10.228  10.153 -1.7110 -1.8071 -2.3505
  992MOL0     H30894   2.208  10.320  10.183  0.9590  0.8382 -0.8078
  992MOL0     H30895   2.399  10.222  10.394 -0.8165 -1.1806  0.0596
  992MOL0     H30896   2.235  10.289  10.419 -2.1609 -0.3672 -2.6274
  992MOL0     H30897   2.216  10.570  10.363  0.5912  0.1720  1.4109
  992MOL0     H30898   2.410  10.833  10.337 -2.9893  2.8245  3.5606
  992MOL0     H30899   2.541  10.795  10.440  1.3434 -1.0631 -0.9624
  992MOL0     H30900   2.252  10.773  10.537  0.6327 -1.6166 -1.0318
  992MOL0     H30901   2.360  10.915  10.559  0.8528 -0.3555 -0.5696
  992MOL0     H30902   2.353  10.763  10.760 -0.6101 -0.5092 -1.5476
  992MOL0     H30903   2.392  10.617  10.670  2.3406 -0.7591  3.2376
  992MOL0     H30904   2.629  10.724  10.620  0.9550 -2.9794  2.1434
  992MOL0     H30905   2.582  10.667  10.777  0.5448  0.5071  0.0608
  992MOL0     H30906   2.857  10.761  10.734  2.3250  1.0899 -0.2236
  992MOL0     H30907   3.045  10.904  10.697 -0.4243 -1.4625 -0.9580
  992MOL0     H30908   3.160  11.447  10.882 -0.7821 -0.4938 -0.2277
  992MOL0     H30909   3.379  11.575  10.853  3.0620 -0.0459 -1.4850
  992MOL0     H30910   3.602  11.682  10.778 -2.9005 -1.0565  1.9261
  992MOL0     H30911   3.465  11.785  10.751  1.1458  0.1550 -0.3123
  992MOL0     H30912   3.573  11.845  10.518  0.3050  1.3767  1.1952
  992MOL0     H30913   3.722  11.771  10.581  1.8242  1.5170  0.2094
  992MOL0     H30914   3.710  11.931  10.767 -0.7928 -0.0843  0.9521
  992MOL0     H30915   3.557  12.000  10.721  0.7355 -0.8314  1.6273
  992MOL0     H30916   3.797  11.995  10.548  0.1930 -2.0650  2.0404
  992MOL0     H30917   3.646  12.066  10.503  0.3170  0.1539 -0.5613
  992MOL0     H30918   3.802  12.147  10.751 -1.0621 -1.6170 -0.1976
  992MOL0     H30919   3.654  12.230  10.710  0.7353 -0.2757  3.3399
  992MOL0     H30920   3.783  12.283  10.486 -4.5907 -0.1645  2.7049
  992MOL0     H30921   3.928  12.237  10.573  1.7951  2.4037  0.2553
  992MOL0     H30922   3.856  12.436  10.746 -2.1431  0.4142  0.0239
  992MOL0     H30923   3.919  12.458  10.579 -3.0336 -0.9255 -3.7884
  992MOL0     H30924   3.731  12.616  10.662 -0.7089 -0.3026  1.0907
  992MOL0     H30925   3.622  12.469  10.633  0.8170 -1.4214  0.7475
  992MOL0     H30926   3.405  11.457  10.456  0.2915 -0.4831  1.8274
  992MOL0     H30927   3.179  11.335  10.466 -0.0109  4.7034 -2.4627
  992MOL0     H30928   2.795  11.257  10.732 -0.4618  0.0561 -0.5442
  992MOL0     H30929   2.607  11.127  10.752 -0.9565 -0.1858 -0.7160
  992MOL0     H30930   2.157   9.526  10.112  0.0648  0.8239 -1.2868
  992MOL0     H30931   2.297   9.317  10.067 -0.5276  0.3212  2.6900
  992MOL0     H30932   2.199   8.728   9.839 -0.2891 -1.0090 -0.6247
  992MOL0     H30933   2.397   8.579   9.802 -1.5771  0.7084  0.1791
  992MOL0     H30934   2.745   8.638  10.063 -0.9001 -0.3946 -0.4578
  992MOL0     H30935   2.780   8.728   9.917  0.3583  0.2922 -1.2363
  992MOL0     H30936   2.843   8.475   9.834 -0.3022  1.3038  0.2375
  992MOL0     H30937   2.959   8.577   9.907 -0.9685  0.8469  0.4431
  992MOL0     H30938   2.799   8.374  10.068  0.0651  1.1441  0.3887
  992MOL0     H30939   2.885   8.493  10.139 -1.4000  1.3736 -0.7491
  992MOL0     H30940   2.967   8.266   9.950 -3.0705 -0.0138  1.6554
  992MOL0     H30941   3.090   8.398   9.973 -0.2001 -0.2006 -0.8334
  992MOL0     H30942   3.172   8.204  10.330  1.1112  1.9500  0.4082
  992MOL0     H30943   2.631   8.825  10.054  1.8168 -2.3531 -3.5404
  992MOL0     H30944   2.432   8.970  10.092  1.6839 -0.5021  0.6662
  993MOL0     O30945   3.572  11.046   2.692 -0.1392 -0.2137  0.0212
  993MOL0     C30946   3.599  10.943   2.632  0.1126 -0.3891  0.2056
  993MOL0     O30947   3.693  10.925   2.539 -0.8711 -0.7438 -0.0672
  993MOL0     C30948   3.769  11.032   2.507 -0.1985 -0.1093  0.5926
  993MOL0     C30949   3.913  11.026   2.514  0.9200  0.1268  0.0262
  993MOL0     C30950   3.983  11.135   2.464  0.0019 -0.7721  0.6784
  993MOL0     C30951   3.925  11.256   2.425  1.6659  0.5161  0.3823
  993MOL0     O30952   4.003  11.370   2.391 -0.1013  0.1107  1.1087
  993MOL0     C30953   3.933  11.483   2.333  0.0958  0.5033 -0.4850
  993MOL0     C30954   4.021  11.614   2.318  1.3122 -0.1832  0.3372
  993MOL0     C30955   4.131  11.596   2.217 -0.3669  0.4352 -0.1514
  993MOL0     C30956   4.246  11.557   2.291 -0.1546 -0.5913  0.0278
  993MOL0     C30957   4.367  11.560   2.197  0.1229  0.2500 -0.5141
  993MOL0     C30958   4.371  11.441   2.096 -0.5571  0.1264 -0.0141
  993MOL0     C30959   4.485  11.461   1.988 -0.5447 -0.2956 -0.4951
  993MOL0     C30960   4.470  11.557   1.868  1.1319 -0.5922  0.5061
  993MOL0     N30961   4.567  11.522   1.766  0.0428 -0.6685  0.4017
  993MOL0     C30962   4.697  11.532   1.788 -1.0237 -0.3739 -0.0029
  993MOL0     C30963   4.754  11.504   1.668  0.4619  0.5667 -0.3552
  993MOL0     C30964   4.894  11.515   1.634 -0.7147  0.6670  0.8235
  993MOL0     C30965   4.921  11.647   1.565 -0.1423  0.8083 -0.8512
  993MOL0     C30966   5.066  11.674   1.584  0.9076 -0.9127  0.7070
  993MOL0     C30967   5.121  11.791   1.510 -0.3173  0.9914 -0.1907
  993MOL0     O30968   5.097  11.781   1.370 -0.2696  0.3951  0.3179
  993MOL0     C30969   5.126  11.885   1.287 -0.1600 -0.0697  0.6310
  993MOL0     C30970   5.224  11.975   1.310 -1.2718 -0.5614 -0.7661
  993MOL0     C30971   5.268  12.082   1.234  0.4655  0.4180  0.3342
  993MOL0     C30972   5.200  12.103   1.118  0.6758 -0.2614  0.9249
  993MOL0     C30973   5.249  12.213   1.020  0.1047  0.0825  0.9681
  993MOL0     O30974   5.368  12.274   1.035 -0.3655 -0.9301 -0.6363
  993MOL0     C30975   5.432  12.342   0.937  0.1273 -0.9815 -0.3149
  993MOL0     C30976   5.477  12.468   0.977 -0.5218 -0.3115 -0.4575
  993MOL0     C30977   5.534  12.554   0.885  0.4381  0.6211  0.7005
  993MOL0     C30978   5.554  12.514   0.747 -0.1910  0.4236 -0.2865
  993MOL0     O30979   5.632  12.590   0.656  0.4556 -0.0529  0.0733
  993MOL0     C30980   5.696  12.702   0.706 -0.3413  0.1026 -0.9110
  993MOL0     C30981   5.784  12.742   0.599 -1.1291 -0.0096 -0.1657
  993MOL0     C30982   5.902  12.651   0.590  0.6463  0.1652  0.2679
  993MOL0     C30983   5.896  12.549   0.479 -0.6960 -0.3755  0.3939
  993MOL0     C30984   6.031  12.474   0.473 -0.7450 -0.0791  0.0399
  993MOL0     C30985   6.007  12.350   0.388  0.3424 -0.3862  0.3838
  993MOL0     C30986   6.140  12.284   0.351  0.1854 -0.8509 -1.2348
  993MOL0     C30987   6.132  12.198   0.224  0.1325 -0.6902  0.5780
  993MOL0    Cl30988   6.112  12.300   0.069  0.0308  0.2777  0.3639
  993MOL0     C30989   5.491  12.394   0.709  0.1828 -0.3375 -0.3627
  993MOL0     C30990   5.439  12.303   0.805  0.5693 -0.3693 -0.2496
  993MOL0     O30991   5.177  12.222   0.917  0.5013 -0.6360 -0.5836
  993MOL0     C30992   5.107  12.005   1.070  0.3326 -1.0385  0.2139
  993MOL0     C30993   5.064  11.905   1.161 -0.7340 -0.2014  0.4855
  993MOL0     N30994   4.652  11.466   1.578  0.2333 -0.7482 -0.1832
  993MOL0     N30995   4.537  11.480   1.638  0.1096  0.2663 -0.5017
  993MOL0     C30996   3.783  11.254   2.426 -0.4621  0.1322 -0.2601
  993MOL0     C30997   3.705  11.149   2.453  0.6488  0.2268 -0.0123
  993MOL0     C30998   3.505  10.831   2.670  0.4229  0.2699  0.4500
  993MOL0     C30999   3.387  10.849   2.745  0.3506  0.4470 -0.6378
  993MOL0     C31000   3.306  10.736   2.769  0.0974  0.4957  0.1871
  993MOL0     C31001   3.334  10.608   2.727  0.7396  0.2668 -0.9558
  993MOL0     O31002   3.255  10.493   2.733  0.2202  0.2723 -0.0090
  993MOL0     C31003   3.120  10.511   2.770 -1.2069  0.4823  0.4486
  993MOL0     C31004   3.031  10.386   2.757  0.5565  0.0404 -0.7095
  993MOL0     C31005   3.076  10.278   2.655 -0.4734  0.7028  0.3175
  993MOL0     C31006   2.960  10.182   2.612  0.3110  0.6301 -0.5475
  993MOL0     C31007   2.892  10.243   2.494 -1.1125 -0.0673  1.3078
  993MOL0     C31008   2.837  10.285   2.396 -0.7307 -0.7035  0.5487
  993MOL0     C31009   3.453  10.593   2.651 -0.1233  0.2526 -0.0546
  993MOL0     C31010   3.527  10.705   2.617 -0.0654 -0.5163 -0.3582
  993MOL0     H31011   3.954  10.944   2.571 -0.7191 -1.1616 -0.5707
  993MOL0     H31012   4.091  11.147   2.463 -0.1203  0.7474 -0.5525
  993MOL0     H31013   3.858  11.521   2.403 -2.8980 -0.8642 -2.7030
  993MOL0     H31014   3.887  11.463   2.236  1.2956 -2.7570 -0.5095
  993MOL0     H31015   4.038  11.654   2.418  0.3926 -3.4162  1.9344
  993MOL0     H31016   3.960  11.690   2.269 -0.5084 -0.3722  2.1793
  993MOL0     H31017   4.152  11.695   2.175  1.5090  0.5991  1.0516
  993MOL0     H31018   4.097  11.526   2.140 -1.7323 -0.2591  1.0410
  993MOL0     H31019   4.271  11.632   2.366  1.2050 -1.9923  1.0381
  993MOL0     H31020   4.235  11.457   2.336 -1.8031 -0.8260 -0.8285
  993MOL0     H31021   4.460  11.557   2.255 -0.0559  0.8305 -0.1921
  993MOL0     H31022   4.373  11.657   2.148  0.6330  1.4311  1.7613
  993MOL0     H31023   4.277  11.420   2.045 -1.4628 -2.2402  2.3701
  993MOL0     H31024   4.401  11.360   2.164  0.3887 -0.3064 -0.9248
  993MOL0     H31025   4.572  11.496   2.044  0.4390 -0.1080 -2.0630
  993MOL0     H31026   4.512  11.362   1.950 -0.5474 -0.0602 -1.1163
  993MOL0     H31027   4.475  11.663   1.896 -0.1668 -0.1792 -0.6841
  993MOL0     H31028   4.373  11.546   1.818  1.5502 -1.8415 -0.0714
  993MOL0     H31029   4.749  11.575   1.874  0.7705 -1.1519 -0.6460
  993MOL0     H31030   4.931  11.435   1.569  0.1146 -0.4906  2.6500
  993MOL0     H31031   4.962  11.508   1.720  2.1594  1.0898 -1.2454
  993MOL0     H31032   4.865  11.727   1.613 -1.1818  0.0296 -0.7382
  993MOL0     H31033   4.903  11.633   1.458 -0.6028  1.6554 -0.8888
  993MOL0     H31034   5.090  11.704   1.686  2.0256  3.1491 -0.5311
  993MOL0     H31035   5.128  11.588   1.556  0.4522 -1.6105  1.8158
  993MOL0     H31036   5.230  11.791   1.523 -0.2112 -0.4696 -0.8933
  993MOL0     H31037   5.094  11.891   1.545 -1.9600  0.1612  1.0281
  993MOL0     H31038   5.267  11.958   1.408 -0.8685  0.4352 -0.7604
  993MOL0     H31039   5.347  12.152   1.262 -0.2010  1.9704 -1.4691
  993MOL0     H31040   5.457  12.504   1.077  1.0602 -1.0305  0.1518
  993MOL0     H31041   5.586  12.639   0.927 -0.5755  1.5754  0.0704
  993MOL0     H31042   5.752  12.678   0.797 -0.4037 -1.3213 -1.2309
  993MOL0     H31043   5.628  12.786   0.722  1.0918  0.8377  2.1927
  993MOL0     H31044   5.821  12.843   0.621 -3.9817  1.2304 -0.6055
  993MOL0     H31045   5.742  12.750   0.499  2.6091 -0.3256 -1.9112
  993MOL0     H31046   5.919  12.596   0.682  0.7995 -0.2253  0.0072
  993MOL0     H31047   5.985  12.722   0.580  2.8461 -1.5602  4.2035
  993MOL0     H31048   5.819  12.473   0.494  1.6740 -3.1721 -0.6127
  993MOL0     H31049   5.879  12.594   0.380  0.8624  1.3846  0.8741
  993MOL0     H31050   6.076  12.456   0.571  1.4009  5.5316  0.4317
  993MOL0     H31051   6.109  12.537   0.430  0.1597 -0.1479  1.5130
  993MOL0     H31052   5.944  12.365   0.299 -2.4325  0.4278  2.3459
  993MOL0     H31053   5.944  12.284   0.448 -0.1394  0.9559  1.4035
  993MOL0     H31054   6.220  12.357   0.335 -1.3664  1.0385 -0.8649
  993MOL0     H31055   6.172  12.209   0.423  1.4373 -2.5530 -3.4177
  993MOL0     H31056   6.042  12.136   0.233 -1.1635  0.9455 -0.5263
  993MOL0     H31057   6.223  12.141   0.206 -0.4872 -0.5472 -4.2082
  993MOL0     H31058   5.499  12.367   0.604  2.7872 -1.5044  0.0352
  993MOL0     H31059   5.404  12.203   0.779  2.4985 -0.4551 -2.9025
  993MOL0     H31060   5.061  12.009   0.971 -0.9680 -1.4764  0.7722
  993MOL0     H31061   4.978  11.845   1.133 -1.5255  1.1897 -0.1908
  993MOL0     H31062   3.730  11.342   2.392 -2.8919 -0.9625  0.5000
  993MOL0     H31063   3.599  11.154   2.431  0.6920  0.6169 -0.1376
  993MOL0     H31064   3.373  10.950   2.782  1.4264  0.6051 -0.6308
  993MOL0     H31065   3.208  10.741   2.815  0.8760  2.4274  1.7525
  993MOL0     H31066   3.085  10.603   2.723  1.4897  2.5777  2.2650
  993MOL0     H31067   3.124  10.530   2.878  1.6324  0.0870  0.5008
  993MOL0     H31068   3.028  10.344   2.859  1.8594  1.3630 -0.0898
  993MOL0     H31069   2.927  10.410   2.735 -0.8920 -0.8591  3.9529
  993MOL0     H31070   3.154  10.218   2.703  0.7710  2.3066  0.3598
  993MOL0     H31071   3.114  10.323   2.563 -3.7859 -0.8244 -2.0409
  993MOL0     H31072   2.988  10.082   2.577 -5.7770 -1.7814  0.3702
  993MOL0     H31073   2.886  10.165   2.690  0.6605  3.1041  0.4203
  993MOL0     H31074   2.797  10.296   2.297  1.5339 -0.3295 -0.4070
  993MOL0     H31075   3.487  10.492   2.634  0.1428 -0.3522  3.3122
  993MOL0     H31076   3.622  10.684   2.568 -1.3266 -3.0747 -1.9165
  994MOL0     O31077  10.445   6.853  10.991 -0.7793 -0.8476 -0.4110
  994MOL0     C31078  10.359   6.939  10.976  0.2439 -1.1368 -0.1248
  994MOL0     O31079  10.323   7.031  11.063  0.3191 -0.0152 -1.1979
  994MOL0     C31080  10.409   7.045  11.171 -1.0265 -0.4182 -0.2545
  994MOL0     C31081  10.445   6.943  11.258 -0.3352 -0.0933 -0.3145
  994MOL0     C31082  10.522   6.959  11.367 -0.4697  0.0242 -0.5383
  994MOL0     C31083  10.557   7.083  11.407  0.0748 -0.2489 -0.1889
  994MOL0     O31084  10.616   7.090  11.532  0.0048  0.3161 -0.1505
  994MOL0     C31085  10.566   7.208  11.615 -0.2632  0.0107  0.7579
  994MOL0     C31086  10.608   7.177  11.750 -0.3244 -0.8373 -0.1061
  994MOL0     C31087  10.756   7.206  11.796  0.9322  0.3504  0.6916
  994MOL0     C31088  10.809   7.104  11.898  0.8275  0.6340 -0.0358
  994MOL0     C31089  10.951   7.152  11.942  0.8112  0.6164  0.1501
  994MOL0     C31090  11.021   7.062  12.045 -0.2449  0.0026 -0.1321
  994MOL0     C31091  11.155   7.127  12.086  0.3176  0.4530 -0.2478
  994MOL0     C31092  11.213   7.016  12.188 -0.0020 -0.2101 -0.3588
  994MOL0     N31093  11.348   7.048  12.241 -0.0398  0.4469  0.2341
  994MOL0     C31094  11.458   7.010  12.160 -0.9381  0.1262 -0.2603
  994MOL0     C31095  11.560   7.043  12.226  0.1852  0.0912  0.2332
  994MOL0     C31096  11.695   7.027  12.177 -0.1332 -0.0802  0.4029
  994MOL0     C31097  11.791   7.130  12.215 -1.1170 -0.6463 -0.1254
  994MOL0     C31098  11.944   7.106  12.198  0.7368 -0.5284  0.2479
  994MOL0     C31099  11.995   7.007  12.304 -0.7693  0.5697 -0.7599
  994MOL0     O31100  12.136   7.008  12.322  0.1648  0.4248 -0.5217
  994MOL0     C31101  12.219   6.956  12.223  1.0312  1.0604 -0.6905
  994MOL0     C31102  12.170   6.871  12.122 -0.3788 -0.0552  0.1389
  994MOL0     C31103  12.257   6.816  12.032 -0.1440 -0.9269 -0.4332
  994MOL0     C31104  12.399   6.844  12.039 -0.0172 -0.0114  0.3025
  994MOL0     C31105  12.494   6.787  11.941 -0.5337  0.0568  0.0258
  994MOL0     O31106  12.631   6.810  11.947  0.4107 -1.2070 -0.4378
  994MOL0     C31107  12.727   6.727  11.894 -0.8217 -0.0336 -0.3200
  994MOL0     C31108  12.711   6.649  11.773 -0.6583  0.2581  0.3899
  994MOL0     C31109  12.818   6.575  11.723 -0.0487 -0.2542  0.8858
  994MOL0     C31110  12.945   6.562  11.797  0.6712 -0.4829 -0.0512
  994MOL0     O31111  13.053   6.484  11.764 -0.5045  0.2829 -0.0536
  994MOL0     C31112  13.090   6.481  11.631  0.4447  0.0941  0.1043
  994MOL0     C31113  13.229   6.407  11.632 -1.2159  0.2989 -0.2108
  994MOL0     C31114  13.255   6.307  11.521  0.1261  0.2850 -0.7998
  994MOL0     C31115  13.155   6.185  11.547 -0.5560 -0.2180 -0.7345
  994MOL0     C31116  13.205   6.050  11.491 -0.3558  0.8074  0.1698
  994MOL0     C31117  13.095   5.942  11.498 -0.0466  0.0430  0.1333
  994MOL0     C31118  13.167   5.818  11.549  0.3369 -1.1071  0.4113
  994MOL0     C31119  13.089   5.693  11.513 -0.0874 -0.9717  0.3590
  994MOL0    Cl31120  13.186   5.542  11.541 -0.0250  0.2495  0.7362
  994MOL0     C31121  12.951   6.633  11.920 -0.3365 -0.6581 -0.1359
  994MOL0     C31122  12.856   6.725  11.951  0.1798  0.1024 -0.4938
  994MOL0     O31123  12.443   6.711  11.859  0.2598 -1.5866  0.5294
  994MOL0     C31124  12.440   6.931  12.130 -0.9499  0.6060  0.1292
  994MOL0     C31125  12.356   6.985  12.230 -0.1611 -0.4608 -0.0920
  994MOL0     N31126  11.520   7.111  12.342 -0.2097 -0.3544  0.1318
  994MOL0     N31127  11.392   7.108  12.353 -0.9475  0.2898 -0.5122
  994MOL0     C31128  10.526   7.193  11.324  0.1491  0.8883  0.1393
  994MOL0     C31129  10.447   7.174  11.202 -0.3197 -0.1703  0.0693
  994MOL0     C31130  10.282   6.933  10.855  0.2907  0.1330  0.1549
  994MOL0     C31131  10.268   6.817  10.784 -0.9082  0.5203  1.6393
  994MOL0     C31132  10.190   6.806  10.669  0.3680  0.5456 -0.5040
  994MOL0     C31133  10.114   6.914  10.615 -0.5625 -0.9149 -0.4419
  994MOL0     O31134  10.054   6.903  10.489 -0.6092  0.8223  0.0037
  994MOL0     C31135  10.013   7.010  10.397  1.0701  0.1529 -0.6172
  994MOL0     C31136  10.132   7.078  10.336  0.4302  0.2234  0.4890
  994MOL0     C31137  10.094   7.149  10.204 -0.8886  0.1117 -0.0415
  994MOL0     C31138  10.218   7.223  10.155 -0.3488 -0.0603 -0.1001
  994MOL0     C31139  10.235   7.353  10.206  0.3491  0.1377 -0.5666
  994MOL0     C31140  10.244   7.444  10.284  0.0290 -0.4212 -0.3267
  994MOL0     C31141  10.119   7.037  10.692 -0.0849 -0.3832  0.4213
  994MOL0     C31142  10.202   7.041  10.809 -1.2281 -0.9471  0.0505
  994MOL0     H31143  10.420   6.838  11.246 -3.3860  0.1432  2.4874
  994MOL0     H31144  10.546   6.882  11.440 -0.1816 -0.3152 -0.9859
  994MOL0     H31145  10.459   7.211  11.594 -0.0144  2.0489 -0.4751
  994MOL0     H31146  10.612   7.297  11.572  0.0017 -0.0043  1.0060
  994MOL0     H31147  10.585   7.070  11.753 -0.8424 -0.7727 -1.3795
  994MOL0     H31148  10.549   7.241  11.817  2.6052  2.7219 -0.5602
  994MOL0     H31149  10.748   7.298  11.854 -0.4564  1.4431 -1.1302
  994MOL0     H31150  10.822   7.208  11.708  0.8602 -3.2275  0.4061
  994MOL0     H31151  10.736   7.111  11.979 -0.9216 -0.8983 -1.3721
  994MOL0     H31152  10.795   7.001  11.862  1.0857  0.6577 -0.2061
  994MOL0     H31153  10.950   7.255  11.978  1.1659  0.4859  0.5413
  994MOL0     H31154  11.007   7.155  11.848  0.9095  1.8795  0.2353
  994MOL0     H31155  11.029   6.958  12.015  0.0203  0.0211 -0.1337
  994MOL0     H31156  10.941   7.053  12.119 -0.2252 -3.5490 -0.3727
  994MOL0     H31157  11.225   7.158  12.008  2.7028  0.0615  1.5953
  994MOL0     H31158  11.133   7.222  12.135  1.0030  1.0751 -1.1308
  994MOL0     H31159  11.221   6.915  12.145  2.0969 -0.3392  0.2201
  994MOL0     H31160  11.147   7.013  12.275 -0.6183  0.6189 -0.7906
  994MOL0     H31161  11.450   6.958  12.065 -1.7347 -0.7482  0.2679
  994MOL0     H31162  11.686   7.021  12.068  0.3001 -4.6933  0.4080
  994MOL0     H31163  11.723   6.932  12.223  2.6500  2.0099  3.4929
  994MOL0     H31164  11.780   7.158  12.321  2.1806  3.0913 -0.5326
  994MOL0     H31165  11.768   7.222  12.160  0.7345  0.3793  0.7181
  994MOL0     H31166  11.959   7.074  12.095  1.6460  1.3113 -0.2286
  994MOL0     H31167  11.984   7.205  12.222 -4.2319  2.1337 -1.0491
  994MOL0     H31168  11.965   6.907  12.270  1.2915  0.5966 -2.9111
  994MOL0     H31169  11.947   7.032  12.399  1.8100  3.9064 -0.1641
  994MOL0     H31170  12.064   6.849  12.126 -0.1987 -0.9960 -0.0536
  994MOL0     H31171  12.217   6.750  11.957  1.9916 -0.5609 -2.0006
  994MOL0     H31172  12.621   6.667  11.715  0.6700 -0.9125 -2.2292
  994MOL0     H31173  12.823   6.525  11.628  1.5904  1.4944 -0.0273
  994MOL0     H31174  13.099   6.582  11.589 -0.5670  0.7878  1.4839
  994MOL0     H31175  13.022   6.423  11.569 -0.5916 -3.1163  3.9000
  994MOL0     H31176  13.239   6.347  11.723 -1.2102  1.6483  0.7143
  994MOL0     H31177  13.300   6.491  11.626 -3.3201  2.0816 -1.6479
  994MOL0     H31178  13.363   6.290  11.520  0.2532  0.8821 -2.9943
  994MOL0     H31179  13.235   6.351  11.422 -1.8098 -1.9401 -1.4752
  994MOL0     H31180  13.135   6.167  11.653 -2.1325  1.8909 -0.5996
  994MOL0     H31181  13.057   6.216  11.510 -0.5658  1.2269  0.3920
  994MOL0     H31182  13.295   6.018  11.546 -0.3594 -0.6306 -0.6290
  994MOL0     H31183  13.234   6.073  11.388 -1.2465  1.6967  0.1018
  994MOL0     H31184  13.055   5.919  11.398 -0.3802  0.2863  0.2096
  994MOL0     H31185  13.016   5.969  11.568  1.9489 -0.4719  2.7565
  994MOL0     H31186  13.266   5.811  11.502  0.6594  0.3695  0.7936
  994MOL0     H31187  13.188   5.817  11.657  2.2984 -2.7466  0.0793
  994MOL0     H31188  13.060   5.688  11.407  2.3010 -3.7626 -0.2789
  994MOL0     H31189  12.995   5.678  11.568  0.1448  0.4931  1.2100
  994MOL0     H31190  13.042   6.616  11.977 -1.7735 -3.1131  1.6371
  994MOL0     H31191  12.860   6.769  12.051  1.0194 -0.4243 -0.2832
  994MOL0     H31192  12.546   6.955  12.127 -1.2446  1.9116 -2.0046
  994MOL0     H31193  12.386   7.058  12.304 -1.7752 -1.4221  1.5907
  994MOL0     H31194  10.556   7.293  11.354  0.1008  0.0725  3.2362
  994MOL0     H31195  10.430   7.262  11.142  3.0000  2.9469  3.1872
  994MOL0     H31196  10.316   6.726  10.818 -0.2535  0.2782  0.1579
  994MOL0     H31197  10.182   6.718  10.606 -0.0201 -0.9072  1.4795
  994MOL0     H31198   9.960   7.084  10.458  2.5874  0.0361  0.9195
  994MOL0     H31199   9.952   6.970  10.316  3.0445  0.5271 -2.3851
  994MOL0     H31200  10.167   7.152  10.408  2.8520  0.9421 -1.2700
  994MOL0     H31201  10.211   7.003  10.324 -1.9786 -2.5134  0.5524
  994MOL0     H31202  10.005   7.209  10.224 -2.6623 -2.5452  0.5575
  994MOL0     H31203  10.067   7.068  10.135 -3.8156 -1.6169  2.8069
  994MOL0     H31204  10.309   7.168  10.180 -0.4260  0.1454  0.6831
  994MOL0     H31205  10.225   7.231  10.046 -2.6374 -0.4610 -0.3412
  994MOL0     H31206  10.228   7.520  10.358 -1.4000 -1.7097  0.7646
  994MOL0     H31207  10.061   7.118  10.648  0.0828 -1.1378 -1.2587
  994MOL0     H31208  10.214   7.137  10.857 -1.7221 -0.6609 -0.3879
  995MOL0     O31209  11.195   3.806   2.071  0.6308  0.5226 -0.1442
  995MOL0     C31210  11.243   3.902   2.130  1.3466 -0.5570  0.6604
  995MOL0     O31211  11.190   4.033   2.121  0.4728  0.7661  0.4419
  995MOL0     C31212  11.079   4.046   2.035 -1.1982 -0.4894  0.3390
  995MOL0     C31213  10.976   4.123   2.077  0.0929  0.7765  0.5615
  995MOL0     C31214  10.876   4.168   1.991  0.7585  0.6127 -0.5471
  995MOL0     C31215  10.869   4.120   1.866  0.3826  0.4618  0.5356
  995MOL0     O31216  10.753   4.155   1.798 -0.0637  0.4313  0.3087
  995MOL0     C31217  10.696   4.283   1.807  0.2140 -0.2555 -0.2610
  995MOL0     C31218  10.622   4.318   1.684  0.6354 -0.5391 -1.2190
  995MOL0     C31219  10.554   4.448   1.700  0.2409  0.1112  0.6218
  995MOL0     C31220  10.552   4.514   1.554 -0.1837 -0.3522  0.4207
  995MOL0     C31221  10.473   4.442   1.446  0.9806 -0.1340  0.2754
  995MOL0     C31222  10.330   4.417   1.496 -0.0099 -0.1115 -0.7155
  995MOL0     C31223  10.226   4.377   1.393  1.1170  0.8354  0.0413
  995MOL0     C31224  10.217   4.477   1.276  1.0781 -0.5759  0.3719
  995MOL0     N31225  10.091   4.463   1.199 -1.5961 -0.1449 -0.4980
  995MOL0     C31226  10.061   4.401   1.080 -0.4479 -0.3093 -0.5201
  995MOL0     C31227   9.929   4.425   1.054 -0.5853 -0.2076 -0.1551
  995MOL0     C31228   9.848   4.386   0.935  0.1110  0.3367  0.9920
  995MOL0     C31229   9.773   4.493   0.855 -0.0320 -0.3268  0.7765
  995MOL0     C31230   9.690   4.443   0.728  0.7503  0.4561 -1.1188
  995MOL0     C31231   9.613   4.564   0.663  0.0423 -0.0980 -0.2631
  995MOL0     O31232   9.719   4.645   0.603  0.4247  0.7524 -0.0960
  995MOL0     C31233   9.681   4.732   0.506 -0.8387  0.2349 -0.2439
  995MOL0     C31234   9.786   4.762   0.420 -0.3547 -0.4095 -0.0040
  995MOL0     C31235   9.767   4.821   0.295 -0.4131  0.6649 -0.5872
  995MOL0     C31236   9.636   4.868   0.251 -0.5091  0.2142 -0.5779
  995MOL0     C31237   9.613   4.947   0.126 -0.3964  0.8101  0.6155
  995MOL0     O31238   9.480   4.962   0.085 -0.1445  0.3323  0.3845
  995MOL0     C31239   9.450   5.008  -0.042 -0.7587  0.0156  0.5416
  995MOL0     C31240   9.432   4.934  -0.156 -0.6433  0.2917 -0.1871
  995MOL0     C31241   9.407   4.988  -0.284  0.0843  1.0539 -0.0664
  995MOL0     C31242   9.406   5.123  -0.287 -0.6710 -0.0753  0.1512
  995MOL0     O31243   9.407   5.196  -0.398  0.6871 -0.0948  0.8907
  995MOL0     C31244   9.522   5.163  -0.482 -0.1110  0.5764 -0.6938
  995MOL0     C31245   9.465   5.117  -0.618  0.6341  1.2055 -0.8410
  995MOL0     C31246   9.576   5.099  -0.713  0.0469 -0.0514 -0.0582
  995MOL0     C31247   9.583   5.201  -0.832  0.8591 -0.8600  0.0019
  995MOL0     C31248   9.712   5.182  -0.907  0.5830 -0.2662  0.6003
  995MOL0     C31249   9.728   5.271  -1.033  0.3534  0.1976 -0.9465
  995MOL0     C31250   9.622   5.247  -1.140 -0.2686 -0.8370 -0.1735
  995MOL0     C31251   9.637   5.360  -1.250  0.3744 -0.0544  0.1040
  995MOL0    Cl31252   9.784   5.362  -1.349 -0.6056  0.2466  0.1722
  995MOL0     C31253   9.426   5.200  -0.177 -0.9250 -0.4384  0.1709
  995MOL0     C31254   9.450   5.148  -0.052  0.3261 -0.3661 -0.1596
  995MOL0     O31255   9.710   4.958   0.059  0.6693  0.8026  0.4460
  995MOL0     C31256   9.536   4.860   0.349  0.2347 -0.9341 -0.9224
  995MOL0     C31257   9.554   4.776   0.470 -0.1734  0.3951  0.5027
  995MOL0     N31258   9.878   4.503   1.162 -0.0059  0.7962 -0.0525
  995MOL0     N31259   9.971   4.508   1.243  0.3417 -0.4902 -0.5429
  995MOL0     C31260  10.969   4.036   1.816  0.1421 -1.0511  0.2825
  995MOL0     C31261  11.071   3.997   1.903 -0.0293 -0.2787 -0.6231
  995MOL0     C31262  11.359   3.879   2.217 -0.2814 -0.5571  0.0699
  995MOL0     C31263  11.388   3.743   2.258  0.4118  0.1610  0.6881
  995MOL0     C31264  11.501   3.709   2.341  0.3639  0.8470 -0.1963
  995MOL0     C31265  11.577   3.810   2.393  0.5914 -0.0348 -1.0061
  995MOL0     O31266  11.685   3.785   2.473 -0.1679 -0.7327  0.4628
  995MOL0     C31267  11.680   3.864   2.595  0.2337 -0.7967 -0.0264
  995MOL0     C31268  11.802   3.864   2.675  0.5575 -0.3685  0.3167
  995MOL0     C31269  11.937   3.814   2.610  0.2309 -0.8897 -0.2703
  995MOL0     C31270  12.055   3.808   2.715  0.0949  0.3644  0.0445
  995MOL0     C31271  12.099   3.948   2.739  0.7767 -0.5282 -0.0372
  995MOL0     C31272  12.123   4.070   2.753 -0.3107  0.4875 -0.3864
  995MOL0     C31273  11.547   3.945   2.343  0.1288 -0.5302  0.3856
  995MOL0     C31274  11.436   3.980   2.270  0.7683  0.3319  0.2980
  995MOL0     H31275  10.983   4.154   2.181 -0.8022  1.1311  0.5265
  995MOL0     H31276  10.795   4.230   2.028  1.5050  1.8650 -0.9404
  995MOL0     H31277  10.782   4.349   1.826 -1.0181  0.1553  5.5673
  995MOL0     H31278  10.620   4.299   1.884 -2.5959 -0.1522 -2.8663
  995MOL0     H31279  10.555   4.234   1.662  2.9598 -3.1366  0.9479
  995MOL0     H31280  10.704   4.327   1.613  3.4714 -0.1593  1.8863
  995MOL0     H31281  10.606   4.525   1.757  1.8910  1.6371 -2.6616
  995MOL0     H31282  10.452   4.434   1.738  0.0415 -1.4923 -0.3952
  995MOL0     H31283  10.511   4.615   1.568  0.3611  0.1141 -1.1054
  995MOL0     H31284  10.656   4.535   1.526  0.0370  0.2427  1.6185
  995MOL0     H31285  10.522   4.352   1.410 -0.2725 -1.5112  1.8728
  995MOL0     H31286  10.464   4.512   1.362 -2.6043  1.0896  1.4869
  995MOL0     H31287  10.288   4.506   1.543  0.6247 -0.6853  0.9827
  995MOL0     H31288  10.338   4.339   1.572 -0.4161  2.0462  1.6507
  995MOL0     H31289  10.260   4.280   1.354  2.5180  1.5320 -0.5756
  995MOL0     H31290  10.131   4.362   1.444  1.2279  0.6423  0.1908
  995MOL0     H31291  10.305   4.467   1.211  3.0472 -1.1670  2.9598
  995MOL0     H31292  10.215   4.573   1.328  3.0360 -2.0351  3.4366
  995MOL0     H31293  10.138   4.368   1.011 -1.1585  1.1269 -2.0703
  995MOL0     H31294   9.772   4.316   0.970 -0.1749  0.0547 -0.1843
  995MOL0     H31295   9.924   4.351   0.865  0.6662  1.0180  1.2477
  995MOL0     H31296   9.841   4.573   0.827 -2.0489  0.2697 -3.1400
  995MOL0     H31297   9.690   4.527   0.918 -0.5692 -0.7733  0.3283
  995MOL0     H31298   9.760   4.401   0.655  0.2588 -2.8729  0.1428
  995MOL0     H31299   9.627   4.360   0.760 -1.4351  1.5480 -2.3106
  995MOL0     H31300   9.560   4.618   0.743  1.9471 -1.2073  1.8503
  995MOL0     H31301   9.541   4.531   0.587  0.0705  1.4018 -0.9829
  995MOL0     H31302   9.884   4.735   0.458 -0.3539 -0.6246 -0.1565
  995MOL0     H31303   9.862   4.843   0.246  0.2625  0.3861  0.5649
  995MOL0     H31304   9.449   4.828  -0.143  1.8565  0.8708  2.0388
  995MOL0     H31305   9.398   4.927  -0.372 -0.7549  0.0466  0.6933
  995MOL0     H31306   9.587   5.093  -0.430  0.0441  2.0383  1.1917
  995MOL0     H31307   9.578   5.256  -0.494  0.0178  0.9379  2.0318
  995MOL0     H31308   9.386   5.182  -0.660 -0.4249  0.3301 -0.2504
  995MOL0     H31309   9.414   5.023  -0.598  3.7098 -0.2494  0.8090
  995MOL0     H31310   9.568   4.997  -0.753 -1.3898 -0.5046  1.2804
  995MOL0     H31311   9.670   5.111  -0.658 -0.4148 -0.2588  0.7929
  995MOL0     H31312   9.498   5.183  -0.898 -0.5131  1.4007  1.0470
  995MOL0     H31313   9.570   5.305  -0.799 -1.0434 -0.7532 -0.9460
  995MOL0     H31314   9.722   5.076  -0.935  0.7966 -0.0058 -0.3628
  995MOL0     H31315   9.789   5.204  -0.832 -0.3006  2.3701  0.8319
  995MOL0     H31316   9.827   5.263  -1.079  0.8379 -0.0634  0.1195
  995MOL0     H31317   9.703   5.369  -0.992 -0.5136 -0.9919  1.5457
  995MOL0     H31318   9.630   5.151  -1.193  1.2534  0.5048 -2.5743
  995MOL0     H31319   9.522   5.239  -1.098  0.5191 -4.5602  1.3639
  995MOL0     H31320   9.625   5.451  -1.190 -1.3551  0.4960 -0.9872
  995MOL0     H31321   9.556   5.353  -1.323 -1.8599  1.7254  2.2372
  995MOL0     H31322   9.437   5.306  -0.197 -1.2596 -0.5959 -0.9088
  995MOL0     H31323   9.463   5.206   0.039  0.0732 -0.0522 -0.3198
  995MOL0     H31324   9.442   4.911   0.332  1.5250  1.9019 -0.1209
  995MOL0     H31325   9.475   4.762   0.543 -1.1899  0.2595 -0.5789
  995MOL0     H31326  10.960   4.008   1.711 -0.4725  3.0636 -0.9184
  995MOL0     H31327  11.160   3.943   1.869  1.0115  1.4774 -0.8036
  995MOL0     H31328  11.330   3.657   2.226  1.2835 -0.9885  2.0379
  995MOL0     H31329  11.521   3.608   2.374 -0.1257  2.1281  4.8501
  995MOL0     H31330  11.607   3.844   2.674  1.7133  2.3577  2.3585
  995MOL0     H31331  11.665   3.969   2.572  0.7805  0.0598  3.1146
  995MOL0     H31332  11.821   3.956   2.731  0.8850 -1.0037  1.2795
  995MOL0     H31333  11.776   3.796   2.757  0.1889  2.6544  2.9310
  995MOL0     H31334  11.965   3.880   2.527 -0.7770  0.7753  0.6582
  995MOL0     H31335  11.912   3.716   2.569 -4.6277  0.2564 -0.6824
  995MOL0     H31336  12.030   3.772   2.815 -1.8768  3.4721  0.8031
  995MOL0     H31337  12.135   3.745   2.674 -0.9526 -1.4366  0.6309
  995MOL0     H31338  12.139   4.174   2.773 -0.2483  0.3114  0.5212
  995MOL0     H31339  11.611   4.030   2.366 -1.1192  0.9921 -1.4455
  995MOL0     H31340  11.424   4.086   2.246 -0.3681 -0.2651 -2.1284
  996MOL0     O31341   6.297   6.355   3.078 -0.5315  0.3748  0.8483
  996MOL0     C31342   6.213   6.310   3.002  0.5049 -0.8572  0.0881
  996MOL0     O31343   6.206   6.197   2.946 -0.0653  0.3981  0.4424
  996MOL0     C31344   6.288   6.098   2.966  0.4796  0.3123 -0.6939
  996MOL0     C31345   6.421   6.083   2.931  0.0963  0.6372  0.5832
  996MOL0     C31346   6.498   5.984   2.985  0.0442  0.1794  1.1175
  996MOL0     C31347   6.452   5.890   3.071  0.6721  0.3949  0.5441
  996MOL0     O31348   6.553   5.808   3.118  0.4121  0.3335 -0.3470
  996MOL0     C31349   6.548   5.771   3.251  0.3129 -0.1746 -0.0352
  996MOL0     C31350   6.691   5.776   3.296 -0.5321 -0.4349 -0.2614
  996MOL0     C31351   6.726   5.928   3.327 -0.8201  0.3870  0.0384
  996MOL0     C31352   6.874   5.946   3.343  0.6264  0.4257 -0.4546
  996MOL0     C31353   6.908   6.057   3.445 -0.6080 -0.1570 -0.3862
  996MOL0     C31354   7.060   6.109   3.436 -0.2690 -0.1373  0.5547
  996MOL0     C31355   7.162   5.994   3.443 -0.0754  0.0681  1.0996
  996MOL0     C31356   7.302   6.059   3.436  0.2538  0.0033 -1.2317
  996MOL0     N31357   7.401   5.954   3.463  0.0800  0.3293 -0.2464
  996MOL0     C31358   7.518   5.935   3.389 -0.0838  0.6337 -0.5418
  996MOL0     C31359   7.585   5.841   3.458 -0.7147 -0.0143 -0.8384
  996MOL0     C31360   7.734   5.804   3.428 -0.5119  0.5390 -0.0178
  996MOL0     C31361   7.769   5.823   3.281 -0.5655  0.3937 -0.8514
  996MOL0     C31362   7.922   5.774   3.253  0.2931 -1.3898 -0.6510
  996MOL0     C31363   7.957   5.788   3.106 -0.3061  0.0996 -0.3031
  996MOL0     O31364   7.875   5.888   3.035 -0.4643  0.7769  1.3164
  996MOL0     C31365   7.883   5.894   2.896 -0.7219  0.0671  0.0409
  996MOL0     C31366   7.956   5.803   2.818 -0.1430 -0.4041  0.5381
  996MOL0     C31367   7.969   5.817   2.678  0.6172 -0.7816 -0.5470
  996MOL0     C31368   7.916   5.935   2.620  0.1904 -0.4708  0.3612
  996MOL0     C31369   7.931   5.965   2.478  0.6574  0.3243  0.7565
  996MOL0     O31370   7.875   6.074   2.422 -0.4926  0.4476  0.2942
  996MOL0     C31371   7.886   6.111   2.292  0.0217  0.6227 -0.2609
  996MOL0     C31372   7.770   6.159   2.225  0.5706 -0.4313 -0.1739
  996MOL0     C31373   7.764   6.172   2.084  0.6725 -0.2992 -0.2675
  996MOL0     C31374   7.878   6.150   2.005  0.3374  0.6075  0.4042
  996MOL0     O31375   7.859   6.189   1.874  0.1705  0.5934 -0.6789
  996MOL0     C31376   7.974   6.187   1.786 -0.2237  0.2309  0.2538
  996MOL0     C31377   7.947   6.230   1.643  0.2842 -0.4054  1.0414
  996MOL0     C31378   7.846   6.130   1.572 -0.8017 -0.0947 -0.1569
  996MOL0     C31379   7.920   5.994   1.548  0.6445 -0.4977 -0.5184
  996MOL0     C31380   7.857   5.916   1.435  0.4940  0.0987 -0.1393
  996MOL0     C31381   7.740   5.830   1.485  0.2582  0.8909  0.5217
  996MOL0     C31382   7.656   5.757   1.373 -0.6730 -0.0325  0.5042
  996MOL0     C31383   7.562   5.651   1.438  0.6721 -0.4712 -0.2692
  996MOL0    Cl31384   7.637   5.490   1.481 -0.2056 -0.5570 -0.4466
  996MOL0     C31385   7.998   6.117   2.071 -0.8126 -0.6678  0.0677
  996MOL0     C31386   8.003   6.097   2.210  0.2560  0.5470 -0.2202
  996MOL0     O31387   7.986   5.874   2.412 -0.6383  0.3021  0.3811
  996MOL0     C31388   7.835   6.014   2.697  0.1884 -0.5571  0.0554
  996MOL0     C31389   7.817   5.998   2.832  0.5675 -0.1968 -0.2463
  996MOL0     N31390   7.515   5.794   3.569  0.0335 -1.2153 -0.4067
  996MOL0     N31391   7.404   5.868   3.572  0.1194 -0.7019  0.7233
  996MOL0     C31392   6.325   5.901   3.113  0.6639  0.2876  0.2332
  996MOL0     C31393   6.238   6.003   3.060 -0.1651  0.3986  0.6901
  996MOL0     C31394   6.109   6.418   2.954  0.0683 -0.3607 -0.5015
  996MOL0     C31395   6.120   6.554   3.008  0.2166  0.5943 -0.4104
  996MOL0     C31396   6.013   6.633   2.979  0.5529  0.5336  0.0118
  996MOL0     C31397   5.906   6.592   2.899 -0.3669  0.4459 -0.2576
  996MOL0     O31398   5.803   6.681   2.876  0.0433 -0.0946  0.3035
  996MOL0     C31399   5.808   6.814   2.934 -0.2068  0.7972  1.1904
  996MOL0     C31400   5.692   6.885   2.867 -0.2429  0.0432  0.8833
  996MOL0     C31401   5.668   7.025   2.940  0.2160  0.3724 -0.3219
  996MOL0     C31402   5.609   7.122   2.834  0.1078  0.0981 -0.7352
  996MOL0     C31403   5.468   7.105   2.787  0.6701 -0.8977  0.0445
  996MOL0     C31404   5.354   7.102   2.736 -0.0579  0.7712  0.8538
  996MOL0     C31405   5.909   6.472   2.834  0.2759  0.1187  0.0846
  996MOL0     C31406   6.006   6.380   2.869 -0.8568 -0.6921  0.5287
  996MOL0     H31407   6.461   6.141   2.848 -3.7208 -1.7242 -3.3040
  996MOL0     H31408   6.600   5.976   2.950  0.3965  1.1319  1.8845
  996MOL0     H31409   6.511   5.669   3.254  1.2916 -0.5361  0.1321
  996MOL0     H31410   6.480   5.839   3.303 -1.0728 -2.6063  1.5014
  996MOL0     H31411   6.754   5.738   3.215 -2.4811 -1.8078 -1.1923
  996MOL0     H31412   6.707   5.704   3.377 -0.1944  0.2676  0.3102
  996MOL0     H31413   6.676   5.947   3.423 -0.7930  0.4520  0.0403
  996MOL0     H31414   6.701   6.001   3.249  1.8974  0.5844 -0.7591
  996MOL0     H31415   6.914   5.847   3.369  0.9163 -0.2778 -3.1889
  996MOL0     H31416   6.914   5.965   3.242  1.2684  0.8161 -0.1363
  996MOL0     H31417   6.893   6.013   3.544 -0.0553 -1.9479 -1.0528
  996MOL0     H31418   6.842   6.143   3.433  2.2753  2.1284 -1.0483
  996MOL0     H31419   7.076   6.179   3.519  2.3339  0.5976 -0.4758
  996MOL0     H31420   7.079   6.169   3.347  0.6394 -3.4147 -1.6334
  996MOL0     H31421   7.156   5.935   3.534  0.8185 -2.1853 -0.2127
  996MOL0     H31422   7.147   5.924   3.360 -0.8499 -0.5321  1.7385
  996MOL0     H31423   7.316   6.138   3.510 -1.7315 -1.2978  0.6581
  996MOL0     H31424   7.317   6.117   3.345 -2.7384 -0.2323 -1.9949
  996MOL0     H31425   7.543   5.983   3.296  1.8905 -2.4596 -1.7780
  996MOL0     H31426   7.754   5.703   3.465  1.6270  2.0952  3.6110
  996MOL0     H31427   7.805   5.867   3.484  1.5625 -0.3129 -1.5739
  996MOL0     H31428   7.757   5.929   3.258 -3.3569  0.7119  1.4990
  996MOL0     H31429   7.708   5.759   3.216 -0.9613 -1.6217  1.3432
  996MOL0     H31430   7.995   5.828   3.315  0.1998 -0.2131 -1.5248
  996MOL0     H31431   7.922   5.667   3.274 -0.9302 -1.4442 -0.8822
  996MOL0     H31432   7.927   5.695   3.056 -2.0237  1.5129 -2.0328
  996MOL0     H31433   8.066   5.799   3.097 -0.1190 -1.8964 -1.1374
  996MOL0     H31434   8.015   5.718   2.851 -0.1678 -0.0765  1.4643
  996MOL0     H31435   8.031   5.747   2.623  0.4867  0.1107 -1.8652
  996MOL0     H31436   7.688   6.197   2.285 -0.4181  0.5727 -2.0709
  996MOL0     H31437   7.683   6.232   2.044  1.8142  2.8739  1.7359
  996MOL0     H31438   8.036   6.097   1.786  1.7472  1.4831 -1.2339
  996MOL0     H31439   8.029   6.272   1.829 -0.1005 -0.5597  1.7112
  996MOL0     H31440   8.040   6.245   1.587 -1.5030  1.7183 -1.5815
  996MOL0     H31441   7.885   6.320   1.638 -1.0351 -1.3465 -0.2978
  996MOL0     H31442   7.820   6.171   1.474 -1.1254  1.5387  0.5701
  996MOL0     H31443   7.754   6.114   1.628 -1.3301 -2.8887 -1.6583
  996MOL0     H31444   8.027   6.002   1.525  0.9123  3.4043  1.2801
  996MOL0     H31445   7.902   5.927   1.633 -1.3109  0.6580  0.0277
  996MOL0     H31446   7.936   5.855   1.389  1.2718  1.8865 -1.2529
  996MOL0     H31447   7.822   5.967   1.345 -0.4870 -0.9313 -0.3636
  996MOL0     H31448   7.669   5.897   1.532 -1.1628 -0.8256  0.9247
  996MOL0     H31449   7.766   5.755   1.561 -0.6387  1.4557  1.4052
  996MOL0     H31450   7.599   5.836   1.323 -1.1948 -1.2557 -0.9079
  996MOL0     H31451   7.725   5.709   1.303 -1.2945  1.0905 -0.9255
  996MOL0     H31452   7.495   5.630   1.354  0.0493 -1.1014  0.3792
  996MOL0     H31453   7.513   5.688   1.528  2.7636  0.7232  0.4552
  996MOL0     H31454   8.089   6.116   2.012  1.8477  2.2980  3.5944
  996MOL0     H31455   8.090   6.049   2.254 -1.5722 -1.2380  1.6879
  996MOL0     H31456   7.795   6.104   2.651  1.9960 -0.9944 -2.5541
  996MOL0     H31457   7.753   6.061   2.893 -0.5589 -1.1840 -0.3718
  996MOL0     H31458   6.274   5.817   3.160 -0.7254  0.3083 -1.1279
  996MOL0     H31459   6.137   6.029   3.091  0.3573  1.2039  1.8038
  996MOL0     H31460   6.204   6.582   3.070  0.2443  1.6253 -0.8947
  996MOL0     H31461   6.017   6.723   3.040  0.7743 -1.6077  3.3785
  996MOL0     H31462   5.900   6.869   2.915  1.4277 -2.6012 -2.0641
  996MOL0     H31463   5.792   6.798   3.041 -0.3543  0.2680  1.0889
  996MOL0     H31464   5.719   6.895   2.761  1.1625  4.2313  1.4374
  996MOL0     H31465   5.599   6.829   2.874 -1.4180  1.8214  0.1489
  996MOL0     H31466   5.766   7.063   2.972 -0.1440  0.6744  0.4443
  996MOL0     H31467   5.613   7.028   3.034  1.0265 -0.3277  0.1933
  996MOL0     H31468   5.615   7.223   2.876  0.7911  0.0910 -0.8122
  996MOL0     H31469   5.670   7.122   2.743 -2.2297  2.2394 -2.4329
  996MOL0     H31470   5.251   7.094   2.707  0.4288 -0.5925 -0.6464
  996MOL0     H31471   5.824   6.446   2.772 -0.0853 -0.7031  0.8906
  996MOL0     H31472   6.011   6.282   2.821  2.6790 -0.9400  1.1409
  997MOL0     O31473   5.185   4.354   5.778  0.4527  0.2998  0.2746
  997MOL0     C31474   5.144   4.276   5.866 -0.2560 -0.2052  0.3865
  997MOL0     O31475   5.170   4.136   5.853 -0.1058  0.3947  0.0332
  997MOL0     C31476   5.283   4.100   5.783  0.2564 -0.1041  0.2645
  997MOL0     C31477   5.269   3.984   5.705  0.0965 -1.7730  0.0735
  997MOL0     C31478   5.384   3.922   5.656  0.6055  0.1181  0.6857
  997MOL0     C31479   5.514   3.960   5.694 -0.4048 -0.6178 -0.3787
  997MOL0     O31480   5.635   3.920   5.645 -0.5383  0.5152 -0.3146
  997MOL0     C31481   5.629   3.843   5.524 -1.0646 -0.3035  0.3156
  997MOL0     C31482   5.774   3.810   5.488 -0.2907  0.4475  0.0178
  997MOL0     C31483   5.799   3.767   5.336  0.0398  0.3304 -0.4434
  997MOL0     C31484   5.938   3.704   5.325 -0.3185 -0.0819 -1.0978
  997MOL0     C31485   6.053   3.794   5.380  0.1986  0.4249  0.2168
  997MOL0     C31486   6.083   3.910   5.288 -0.1080  0.7654 -0.3958
  997MOL0     C31487   6.223   3.969   5.292  0.0456 -0.6322  0.5281
  997MOL0     C31488   6.280   4.027   5.420  0.4558  0.4361 -0.6145
  997MOL0     N31489   6.214   4.150   5.473 -0.2893  1.4042 -1.3003
  997MOL0     C31490   6.130   4.229   5.403  0.2444  0.0734 -0.3932
  997MOL0     C31491   6.102   4.332   5.480  0.1093 -0.3266  0.1269
  997MOL0     C31492   6.002   4.441   5.464  0.5418  0.6826 -0.1054
  997MOL0     C31493   5.873   4.416   5.547 -0.4351 -0.7222  0.2756
  997MOL0     C31494   5.787   4.305   5.482  0.2697 -0.3141  0.0704
  997MOL0     C31495   5.654   4.294   5.554 -0.0597 -0.1040 -0.4907
  997MOL0     O31496   5.580   4.417   5.553  0.4060 -0.3350 -0.3502
  997MOL0     C31497   5.496   4.442   5.446  0.2195  0.4848 -0.9192
  997MOL0     C31498   5.526   4.524   5.350 -0.7933  0.5595 -0.6263
  997MOL0     C31499   5.440   4.551   5.256  0.6972  0.5741  0.2762
  997MOL0     C31500   5.306   4.506   5.256 -0.8377  0.2541  0.1832
  997MOL0     C31501   5.221   4.541   5.144  0.4820 -0.1518 -0.3172
  997MOL0     O31502   5.270   4.648   5.071  0.1415 -0.4962 -0.0742
  997MOL0     C31503   5.182   4.681   4.971 -0.6322  0.0781 -0.5622
  997MOL0     C31504   5.162   4.600   4.867 -0.6452  1.6065 -0.2431
  997MOL0     C31505   5.070   4.621   4.763  0.4599 -0.0808 -0.2479
  997MOL0     C31506   5.022   4.753   4.754  0.0897  0.9444  0.8563
  997MOL0     O31507   4.954   4.790   4.638 -0.2371 -0.6648  0.5921
  997MOL0     C31508   4.999   4.919   4.572 -0.0736  0.7585  0.0034
  997MOL0     C31509   5.148   4.905   4.530  0.2859 -1.0055 -0.2976
  997MOL0     C31510   5.178   4.986   4.405  0.3756 -0.7001 -0.1445
  997MOL0     C31511   5.327   4.965   4.372  0.1366 -0.8489 -0.5189
  997MOL0     C31512   5.369   5.045   4.251  0.1830  0.3369  0.4471
  997MOL0     C31513   5.519   5.038   4.234 -0.0343  0.1596  0.3054
  997MOL0     C31514   5.562   5.098   4.094  0.1275 -0.4224 -0.1784
  997MOL0     C31515   5.715   5.123   4.093 -0.7999  0.3585 -0.8088
  997MOL0    Cl31516   5.784   5.190   3.940  0.6987 -0.0923 -0.0356
  997MOL0     C31517   5.068   4.854   4.845 -0.7986  0.8856 -0.0055
  997MOL0     C31518   5.143   4.815   4.964  0.1579  1.2643 -0.5003
  997MOL0     O31519   5.115   4.476   5.129  0.5595 -0.8249 -1.0411
  997MOL0     C31520   5.264   4.440   5.361 -0.5467  0.7410  0.9134
  997MOL0     C31521   5.356   4.400   5.458 -0.0836 -0.8849 -0.5952
  997MOL0     N31522   6.174   4.320   5.600  0.5442  0.2344  0.4075
  997MOL0     N31523   6.246   4.216   5.589  0.6262 -0.2748 -0.2562
  997MOL0     C31524   5.529   4.074   5.777  0.5120 -0.1662 -0.5086
  997MOL0     C31525   5.408   4.145   5.821 -0.8211  0.2506 -0.1569
  997MOL0     C31526   5.065   4.330   5.975  0.1692  0.6525 -0.2492
  997MOL0     C31527   5.042   4.470   5.998 -0.7200 -0.2120  0.2248
  997MOL0     C31528   4.969   4.511   6.104 -0.4732  0.4792 -0.2516
  997MOL0     C31529   4.918   4.421   6.197  0.4465 -1.4638 -0.4476
  997MOL0     O31530   4.846   4.473   6.306  0.1156  1.0317  0.8131
  997MOL0     C31531   4.739   4.573   6.297  0.3809 -0.4744  0.1725
  997MOL0     C31532   4.601   4.519   6.265  0.0031  0.7072  1.0529
  997MOL0     C31533   4.543   4.458   6.387  0.0903 -0.5430 -0.6994
  997MOL0     C31534   4.397   4.413   6.369  0.7280 -0.0663  0.0775
  997MOL0     C31535   4.394   4.274   6.328 -0.5291  0.5695  1.1822
  997MOL0     C31536   4.409   4.155   6.313  0.1577  0.7809 -0.4569
  997MOL0     C31537   4.938   4.278   6.178  0.0192 -0.3114  0.0963
  997MOL0     C31538   5.029   4.243   6.074 -0.1466  0.1060  0.7006
  997MOL0     H31539   5.178   3.932   5.678  0.2383 -1.9881  0.0033
  997MOL0     H31540   5.372   3.833   5.595 -0.1017 -0.4930  1.6814
  997MOL0     H31541   5.577   3.910   5.455  0.0253  0.2841  0.0470
  997MOL0     H31542   5.580   3.747   5.544 -0.8987 -0.6963 -1.0846
  997MOL0     H31543   5.807   3.739   5.563  3.1503  1.8237  0.0184
  997MOL0     H31544   5.813   3.913   5.486 -0.7445  0.6171 -0.2341
  997MOL0     H31545   5.793   3.860   5.279 -0.2543  2.0657  2.2380
  997MOL0     H31546   5.721   3.700   5.301  0.0404 -1.4727  2.6192
  997MOL0     H31547   5.937   3.611   5.382 -2.1649  2.6062  4.0109
  997MOL0     H31548   5.945   3.681   5.219  0.5519 -2.4326 -0.5884
  997MOL0     H31549   6.132   3.718   5.374 -0.9866 -0.9034 -5.9539
  997MOL0     H31550   6.037   3.827   5.483  1.0183  0.8587  0.2079
  997MOL0     H31551   6.014   3.992   5.310  0.8861  1.7831 -0.9562
  997MOL0     H31552   6.069   3.879   5.184  0.5725  0.2322 -0.3355
  997MOL0     H31553   6.288   3.888   5.258  1.3452  1.3105 -1.9400
  997MOL0     H31554   6.234   4.048   5.217  1.4016  1.6522  2.9601
  997MOL0     H31555   6.383   4.062   5.406  1.7329 -2.1358  1.3698
  997MOL0     H31556   6.280   3.942   5.489  0.2323 -1.2357 -2.5856
  997MOL0     H31557   6.100   4.228   5.299 -1.6393  0.1603  0.1234
  997MOL0     H31558   5.980   4.441   5.357  3.0659 -0.5767 -0.7059
  997MOL0     H31559   6.048   4.535   5.495  0.2509  0.7264  0.2001
  997MOL0     H31560   5.820   4.511   5.554 -1.7222 -1.3674 -0.1667
  997MOL0     H31561   5.905   4.392   5.649 -0.5798 -1.7529  0.0932
  997MOL0     H31562   5.782   4.327   5.374  2.6054  1.1988  0.1998
  997MOL0     H31563   5.840   4.210   5.488  2.9387  1.1250  1.0418
  997MOL0     H31564   5.684   4.279   5.659  0.7316  0.2302 -0.6623
  997MOL0     H31565   5.607   4.203   5.516  0.0457  0.6066 -2.4019
  997MOL0     H31566   5.627   4.563   5.363 -0.6670  0.9344 -2.5144
  997MOL0     H31567   5.494   4.602   5.177  0.7350  0.7337  0.4035
  997MOL0     H31568   5.196   4.498   4.886  2.9990  2.4625 -1.3704
  997MOL0     H31569   5.040   4.545   4.691  1.1132 -1.4689  0.8898
  997MOL0     H31570   4.980   5.010   4.630 -0.4072  1.0564 -0.5726
  997MOL0     H31571   4.929   4.934   4.490 -1.7129  1.4566  1.4491
  997MOL0     H31572   5.168   4.801   4.505  1.3592 -0.3297 -2.6090
  997MOL0     H31573   5.203   4.934   4.620  0.3125  0.1846 -0.6718
  997MOL0     H31574   5.169   5.093   4.424  0.2835  0.2304 -4.4494
  997MOL0     H31575   5.111   4.970   4.321 -0.7927 -0.6999  0.7568
  997MOL0     H31576   5.385   5.006   4.455 -0.8030 -0.5596  0.0184
  997MOL0     H31577   5.359   4.862   4.355  0.6473 -0.3679 -2.7521
  997MOL0     H31578   5.332   5.146   4.269  0.1897  0.0501  2.3314
  997MOL0     H31579   5.313   4.999   4.169 -0.3213 -0.1801  1.0650
  997MOL0     H31580   5.550   4.933   4.230  1.8687  0.6817  0.1390
  997MOL0     H31581   5.560   5.097   4.317  0.8196  0.1339 -0.0816
  997MOL0     H31582   5.537   5.019   4.023  0.0749 -0.2865 -0.3104
  997MOL0     H31583   5.513   5.195   4.085  1.0134  0.1559  0.9222
  997MOL0     H31584   5.758   5.022   4.100 -1.5895 -0.1500 -2.7551
  997MOL0     H31585   5.743   5.177   4.184 -0.2250 -2.9603  1.1480
  997MOL0     H31586   5.037   4.957   4.834  0.6438  1.5134  1.3675
  997MOL0     H31587   5.183   4.889   5.033 -2.8662  2.6436 -0.0703
  997MOL0     H31588   5.167   4.394   5.376 -0.0563  0.1411  2.5353
  997MOL0     H31589   5.336   4.345   5.549 -3.0536  1.6456  0.4989
  997MOL0     H31590   5.622   4.126   5.796  0.1651  0.7144 -1.1499
  997MOL0     H31591   5.418   4.231   5.886  1.0360  0.6227 -0.8918
  997MOL0     H31592   5.084   4.531   5.918  2.8995 -0.7594  1.5224
  997MOL0     H31593   4.953   4.615   6.128  1.6674  0.2615  2.6260
  997MOL0     H31594   4.758   4.651   6.223  2.1948 -1.3815 -0.3844
  997MOL0     H31595   4.746   4.630   6.390  0.1041  2.0978 -1.2945
  997MOL0     H31596   4.540   4.607   6.241  1.3269  0.4861 -4.4679
  997MOL0     H31597   4.602   4.453   6.177  1.6613  1.7837  0.2122
  997MOL0     H31598   4.541   4.535   6.464 -4.4339  0.7749 -1.8116
  997MOL0     H31599   4.616   4.390   6.433 -2.0142 -0.7815  2.5959
  997MOL0     H31600   4.333   4.423   6.457  3.1524 -0.4494  1.9900
  997MOL0     H31601   4.350   4.469   6.288 -1.9073 -0.2215  1.3943
  997MOL0     H31602   4.411   4.049   6.302 -0.1857  0.4771  1.8896
  997MOL0     H31603   4.908   4.196   6.242  0.7655  0.4916  1.5101
  997MOL0     H31604   5.045   4.136   6.067 -1.2098 -0.0702  0.8710
  998MOL0     O31605   3.069   7.846   1.718  0.5683 -0.1784 -0.4123
  998MOL0     C31606   3.125   7.919   1.636 -0.6592  0.3868  0.0886
  998MOL0     O31607   3.086   7.945   1.509  0.0462 -0.1247  0.1837
  998MOL0     C31608   2.970   7.893   1.455 -0.1869 -0.6707 -0.5315
  998MOL0     C31609   2.869   7.975   1.404  0.7168 -1.1074  0.2686
  998MOL0     C31610   2.756   7.922   1.356  0.5299  0.4795  0.7812
  998MOL0     C31611   2.730   7.780   1.343 -0.7600  0.1525 -0.5631
  998MOL0     O31612   2.612   7.748   1.283 -0.7638  0.1331  0.5306
  998MOL0     C31613   2.551   7.620   1.321  0.4686  0.0733  0.9156
  998MOL0     C31614   2.441   7.590   1.218  0.5130  0.0999  0.4991
  998MOL0     C31615   2.312   7.661   1.235  0.7987  0.2021 -0.0069
  998MOL0     C31616   2.307   7.808   1.276 -0.0749  0.4343  0.7968
  998MOL0     C31617   2.172   7.866   1.317  0.4581 -0.9930 -1.0880
  998MOL0     C31618   2.064   7.864   1.216 -0.5154  0.4809  0.9065
  998MOL0     C31619   2.086   7.969   1.115  0.1695 -0.1112  0.1122
  998MOL0     C31620   1.972   8.002   1.016 -0.4361 -0.1834  0.0305
  998MOL0     N31621   2.002   8.126   0.946  0.6964  0.5961  0.2007
  998MOL0     C31622   2.104   8.136   0.860 -1.0453 -0.3040 -0.6711
  998MOL0     C31623   2.118   8.270   0.842 -0.4883 -0.1790  0.0239
  998MOL0     C31624   2.221   8.348   0.756  1.5765 -1.0424 -0.4979
  998MOL0     C31625   2.349   8.272   0.719  0.5472  1.0171 -0.3223
  998MOL0     C31626   2.438   8.363   0.629  0.2573 -0.2241 -0.0981
  998MOL0     C31627   2.576   8.293   0.605  0.2275 -0.8030 -0.1143
  998MOL0     O31628   2.679   8.375   0.544 -0.7404 -0.0582 -0.5674
  998MOL0     C31629   2.730   8.470   0.623 -0.1696  0.0896 -0.0820
  998MOL0     C31630   2.827   8.438   0.720 -0.5513 -0.6727 -0.1529
  998MOL0     C31631   2.891   8.545   0.783 -0.4406  0.2000 -0.2045
  998MOL0     C31632   2.861   8.671   0.749 -0.4539 -0.2786  0.2526
  998MOL0     C31633   2.922   8.788   0.828  0.0644  0.5165 -0.1770
  998MOL0     O31634   2.886   8.913   0.801  0.1222  0.4185  0.5213
  998MOL0     C31635   2.921   9.006   0.891 -0.6113 -0.2122 -0.3054
  998MOL0     C31636   2.962   9.138   0.864  0.0111 -0.2481  1.3597
  998MOL0     C31637   3.000   9.232   0.958  0.2429  0.6463  0.3849
  998MOL0     C31638   3.007   9.199   1.092  0.4084 -0.3867  0.7287
  998MOL0     O31639   3.061   9.291   1.177 -0.0379  0.0992  0.6903
  998MOL0     C31640   3.087   9.256   1.316  0.4317 -0.1184  0.4445
  998MOL0     C31641   2.971   9.273   1.412  1.0309 -0.2892  0.8391
  998MOL0     C31642   2.994   9.245   1.551  0.0178  0.0720 -0.1913
  998MOL0     C31643   3.025   9.091   1.570  0.6134  0.7350  0.5437
  998MOL0     C31644   3.003   9.036   1.706  0.1726 -0.1207 -0.0910
  998MOL0     C31645   3.095   9.098   1.816  0.3756 -1.0878  0.3882
  998MOL0     C31646   3.061   9.057   1.959  0.7943  0.0937  0.5696
  998MOL0     C31647   3.157   9.111   2.059  0.1019 -0.0600  0.8459
  998MOL0    Cl31648   3.154   9.024   2.210  0.1329 -0.4397 -0.2240
  998MOL0     C31649   2.951   9.080   1.129 -0.3762  0.0045 -1.2195
  998MOL0     C31650   2.907   8.984   1.035  0.2366  0.6270  0.8234
  998MOL0     O31651   3.008   8.755   0.918 -0.0745 -0.2141  1.1699
  998MOL0     C31652   2.764   8.702   0.655 -0.0426  0.4768 -0.7640
  998MOL0     C31653   2.695   8.597   0.598  0.7959 -0.2414 -0.6639
  998MOL0     N31654   2.013   8.335   0.897 -0.9512  0.0429 -0.1169
  998MOL0     N31655   1.938   8.248   0.960 -1.2438  0.6665  0.3707
  998MOL0     C31656   2.841   7.700   1.384  0.2736  0.2620  0.3710
  998MOL0     C31657   2.950   7.755   1.455 -0.1697  0.1152 -1.1656
  998MOL0     C31658   3.254   7.980   1.660 -0.1396 -0.1374 -0.3666
  998MOL0     C31659   3.313   8.074   1.578  0.3910  0.3464  0.2636
  998MOL0     C31660   3.433   8.138   1.613 -0.6107 -0.2319 -0.0725
  998MOL0     C31661   3.520   8.086   1.717  0.1942 -0.1470 -0.5541
  998MOL0     O31662   3.649   8.134   1.726  0.0362  0.2939  0.6512
  998MOL0     C31663   3.719   8.109   1.847 -0.4395 -0.2710  0.1903
  998MOL0     C31664   3.658   8.168   1.967  0.2314  0.0462  0.1696
  998MOL0     C31665   3.638   8.323   1.944 -0.7930  0.2841  0.8339
  998MOL0     C31666   3.556   8.378   2.060  0.3789  0.2042 -0.5043
  998MOL0     C31667   3.617   8.352   2.192  0.8001  0.7030  0.2248
  998MOL0     C31668   3.668   8.334   2.294 -0.7733 -1.0793  0.4267
  998MOL0     C31669   3.464   7.988   1.792 -0.1135  0.1935  0.8278
  998MOL0     C31670   3.329   7.942   1.774  0.1184 -0.5817  0.1780
  998MOL0     H31671   2.871   8.084   1.409  1.9856 -1.1259  0.4293
  998MOL0     H31672   2.684   7.984   1.304 -0.4511 -3.5062 -3.2681
  998MOL0     H31673   2.536   7.613   1.430  1.1932 -2.9525  0.9041
  998MOL0     H31674   2.617   7.536   1.301  0.6362 -0.2702  2.7043
  998MOL0     H31675   2.418   7.483   1.219 -2.8615  0.6471  4.0389
  998MOL0     H31676   2.486   7.612   1.121 -0.2609 -0.1852  0.0666
  998MOL0     H31677   2.245   7.612   1.306  2.5742 -0.3254  1.3882
  998MOL0     H31678   2.269   7.672   1.135 -1.4171  2.4399  1.0946
  998MOL0     H31679   2.376   7.813   1.361  1.2479 -1.9567 -0.0220
  998MOL0     H31680   2.349   7.864   1.191  1.8616 -2.8470 -0.6280
  998MOL0     H31681   2.184   7.967   1.357 -2.8359 -1.9395  2.9530
  998MOL0     H31682   2.135   7.802   1.397 -0.0305  0.7996  0.1582
  998MOL0     H31683   1.974   7.878   1.277 -0.1875 -1.0691  1.8154
  998MOL0     H31684   2.058   7.764   1.174  3.5926  0.4376 -0.0147
  998MOL0     H31685   2.113   8.064   1.164  1.1984  1.2034 -2.7552
  998MOL0     H31686   2.174   7.940   1.057 -1.2595  0.6146 -2.5674
  998MOL0     H31687   1.878   8.010   1.071 -0.7697 -0.1790 -0.5371
  998MOL0     H31688   1.978   7.920   0.945  3.3358 -0.1744  0.1377
  998MOL0     H31689   2.172   8.062   0.819 -0.9398  0.2453 -1.4988
  998MOL0     H31690   2.257   8.434   0.814  4.9842 -1.5220 -1.6793
  998MOL0     H31691   2.179   8.415   0.681 -0.4983  0.6148  1.9768
  998MOL0     H31692   2.332   8.186   0.654  1.2507  1.8181 -1.5994
  998MOL0     H31693   2.401   8.229   0.805  0.5375  0.0808 -0.7707
  998MOL0     H31694   2.381   8.379   0.537 -1.4958 -0.7869  0.8463
  998MOL0     H31695   2.454   8.457   0.684  0.6513 -0.6569  0.5384
  998MOL0     H31696   2.563   8.206   0.539 -1.9313 -1.8150  1.5255
  998MOL0     H31697   2.613   8.249   0.698  0.2358 -2.5203 -0.8877
  998MOL0     H31698   2.842   8.331   0.733  2.3396 -0.2057  1.1726
  998MOL0     H31699   2.969   8.522   0.855  1.6209  3.1268 -1.3144
  998MOL0     H31700   2.972   9.162   0.759 -0.4041 -1.0150  1.1390
  998MOL0     H31701   3.032   9.328   0.919  1.9191  0.2825  0.7643
  998MOL0     H31702   3.161   9.324   1.359  1.9078 -1.6837  0.5158
  998MOL0     H31703   3.127   9.154   1.319 -1.2428 -0.7997  0.6785
  998MOL0     H31704   2.892   9.204   1.381 -0.2484  2.4629 -2.7083
  998MOL0     H31705   2.932   9.375   1.412  0.6301 -0.4198 -0.7185
  998MOL0     H31706   2.904   9.279   1.604 -0.2561  2.1701 -1.8543
  998MOL0     H31707   3.076   9.304   1.593 -0.4499 -0.0185  0.8911
  998MOL0     H31708   2.957   9.027   1.514 -2.5263  2.6778  1.8841
  998MOL0     H31709   3.125   9.071   1.531  0.3590  1.3850 -0.4697
  998MOL0     H31710   3.022   8.929   1.697  3.1821  0.3363 -0.2620
  998MOL0     H31711   2.905   9.064   1.745  1.0673  1.6648  1.0658
  998MOL0     H31712   3.074   9.204   1.801 -1.7979 -1.4964  0.2455
  998MOL0     H31713   3.201   9.075   1.800  1.2584  2.0070  1.0257
  998MOL0     H31714   2.960   9.084   1.992  0.3516  3.6212 -2.9496
  998MOL0     H31715   3.079   8.949   1.963 -1.4902 -0.3037  2.3031
  998MOL0     H31716   3.126   9.215   2.073  1.2390  0.5443 -0.7918
  998MOL0     H31717   3.259   9.105   2.020  0.6296 -1.5523  2.3472
  998MOL0     H31718   2.948   9.052   1.233 -2.0622  1.5256 -0.8163
  998MOL0     H31719   2.859   8.893   1.070 -1.7476  0.9445 -0.8771
  998MOL0     H31720   2.729   8.801   0.627 -2.4151  0.3930  1.5557
  998MOL0     H31721   2.618   8.620   0.526  1.5373 -0.3024 -1.4875
  998MOL0     H31722   2.831   7.593   1.377 -1.3688  0.1377  3.2826
  998MOL0     H31723   3.027   7.699   1.507 -0.2058  1.5834  0.5841
  998MOL0     H31724   3.266   8.084   1.480 -1.9599 -2.5527  0.9561
  998MOL0     H31725   3.460   8.210   1.536 -1.3699 -1.8112 -1.9034
  998MOL0     H31726   3.818   8.153   1.836 -1.5733  2.3888 -0.0984
  998MOL0     H31727   3.729   8.000   1.855  0.8411 -0.1854 -0.1493
  998MOL0     H31728   3.563   8.125   2.002  0.8100 -1.5176 -0.1024
  998MOL0     H31729   3.725   8.164   2.054 -1.8777  1.9805  2.0167
  998MOL0     H31730   3.594   8.337   1.845  0.7026 -0.6060  0.0041
  998MOL0     H31731   3.733   8.376   1.950 -1.6631  2.2305 -1.1348
  998MOL0     H31732   3.556   8.488   2.057 -0.5943  0.2997  1.6526
  998MOL0     H31733   3.454   8.339   2.054 -0.3872  2.1329 -0.6488
  998MOL0     H31734   3.717   8.337   2.389  1.5058  0.4776 -0.7130
  998MOL0     H31735   3.528   7.951   1.871  1.0916  0.6954  0.1098
  998MOL0     H31736   3.284   7.881   1.852  2.4920 -0.8306  1.4185
  999MOL0     O31737   7.904   3.145   2.034  0.6596  0.6608 -0.0187
  999MOL0     C31738   7.794   3.103   2.075 -0.8073 -0.4664  1.2532
  999MOL0     O31739   7.680   3.099   1.991 -0.1283 -0.1861 -0.0390
  999MOL0     C31740   7.702   3.141   1.857  0.8129 -0.2975 -0.1482
  999MOL0     C31741   7.656   3.261   1.803  0.5196  1.4190 -0.8830
  999MOL0     C31742   7.678   3.290   1.672  0.3770  0.3367 -0.1272
  999MOL0     C31743   7.737   3.205   1.590  0.1939  0.9245 -0.3509
  999MOL0     O31744   7.741   3.237   1.453 -0.0166 -0.1251 -1.0289
  999MOL0     C31745   7.653   3.148   1.372 -0.1578 -0.5614 -0.0389
  999MOL0     C31746   7.621   3.199   1.233  0.0558  0.0634 -1.3603
  999MOL0     C31747   7.748   3.271   1.180  0.7418 -2.2436  0.9253
  999MOL0     C31748   7.738   3.295   1.032  1.0471 -0.7248 -0.6978
  999MOL0     C31749   7.850   3.380   0.987 -0.4725 -0.6487 -0.1258
  999MOL0     C31750   7.857   3.422   0.841  0.0059  0.6025 -0.3418
  999MOL0     C31751   7.993   3.484   0.804  0.3233 -0.3011  0.6115
  999MOL0     C31752   8.014   3.538   0.656  0.7294 -0.7919 -0.7802
  999MOL0     N31753   8.036   3.438   0.552 -0.6949 -0.3644 -0.3077
  999MOL0     C31754   7.968   3.434   0.437 -0.4510 -0.0241  0.6839
  999MOL0     C31755   8.025   3.340   0.354  0.1101 -0.3205 -0.1455
  999MOL0     C31756   7.998   3.299   0.210  0.0013 -0.4178  0.0001
  999MOL0     C31757   8.121   3.327   0.122  0.3170  0.2672 -0.2341
  999MOL0     C31758   8.132   3.479   0.083 -0.3742  0.3794  0.3921
  999MOL0     C31759   8.266   3.547   0.130  0.6861 -0.5556  0.0622
  999MOL0     O31760   8.281   3.688   0.085  0.3278 -0.9550  0.0529
  999MOL0     C31761   8.307   3.720  -0.043  0.4253 -0.1812 -0.7058
  999MOL0     C31762   8.306   3.854  -0.080 -0.4048  0.0902 -0.8071
  999MOL0     C31763   8.324   3.896  -0.216 -0.5253 -1.7164  0.3775
  999MOL0     C31764   8.359   3.802  -0.315  0.3702  0.9251 -0.5873
  999MOL0     C31765   8.399   3.852  -0.450  0.3039 -1.2542  0.2274
  999MOL0     O31766   8.349   3.975  -0.498 -0.5170 -0.0737  0.1913
  999MOL0     C31767   8.381   3.998  -0.631 -0.1902  0.0156  0.9202
  999MOL0     C31768   8.439   4.116  -0.671  0.3518  0.4964 -0.1916
  999MOL0     C31769   8.450   4.153  -0.802  0.6747  0.2297  0.1154
  999MOL0     C31770   8.430   4.052  -0.907 -0.0937 -0.0285 -0.6254
  999MOL0     O31771   8.456   4.077  -1.039 -0.0005 -0.0088  0.2717
  999MOL0     C31772   8.547   4.190  -1.073 -0.2622  0.6940 -0.4055
  999MOL0     C31773   8.464   4.309  -1.121 -0.0434  0.3080  0.0537
  999MOL0     C31774   8.564   4.431  -1.161 -0.5365 -0.7617 -0.0572
  999MOL0     C31775   8.531   4.508  -1.296 -0.2825 -1.2508  0.0211
  999MOL0     C31776   8.650   4.597  -1.338  0.1362  0.8979  0.4827
  999MOL0     C31777   8.678   4.713  -1.240  0.8256  0.0883 -1.1144
  999MOL0     C31778   8.789   4.794  -1.304  1.1911  0.1603 -0.5745
  999MOL0     C31779   8.840   4.895  -1.210 -0.6053 -0.1394  0.4206
  999MOL0    Cl31780   8.905   5.033  -1.305  0.3208  0.5410  0.9096
  999MOL0     C31781   8.377   3.939  -0.871  0.6049  0.0426  0.2071
  999MOL0     C31782   8.344   3.917  -0.737 -0.0948  0.7765 -0.2173
  999MOL0     O31783   8.485   3.782  -0.503  0.7918 -0.2917  0.1004
  999MOL0     C31784   8.378   3.673  -0.272  0.0518 -0.0336  0.7000
  999MOL0     C31785   8.356   3.630  -0.137 -0.9518 -0.6067  0.6351
  999MOL0     N31786   8.136   3.300   0.427 -0.8031  0.3657 -0.0325
  999MOL0     N31787   8.143   3.357   0.540  0.1077  0.4131  0.1335
  999MOL0     C31788   7.790   3.077   1.638  0.3244 -0.1261 -0.5446
  999MOL0     C31789   7.771   3.052   1.775 -0.2407 -0.2368  0.2610
  999MOL0     C31790   7.781   3.043   2.212 -0.0783  0.2165  0.5619
  999MOL0     C31791   7.890   3.022   2.310  0.2551 -0.2942  0.0972
  999MOL0     C31792   7.853   2.969   2.438  0.3758 -0.3621 -0.0686
  999MOL0     C31793   7.726   2.920   2.464  0.1377 -0.5978 -0.1605
  999MOL0     O31794   7.707   2.839   2.579  0.9759  0.1025  0.5249
  999MOL0     C31795   7.593   2.863   2.659 -0.1306 -0.3373 -0.4316
  999MOL0     C31796   7.607   3.007   2.720 -0.4118 -0.1079  0.2326
  999MOL0     C31797   7.468   3.051   2.780  1.1176  0.1847 -0.4348
  999MOL0     C31798   7.485   3.160   2.881  0.5119 -0.0801  0.0123
  999MOL0     C31799   7.355   3.197   2.936 -0.4749 -0.9206  0.2725
  999MOL0     C31800   7.246   3.240   2.961  0.5888  0.5458 -0.3649
  999MOL0     C31801   7.624   2.937   2.362 -0.1288 -1.0072 -0.9716
  999MOL0     C31802   7.649   3.009   2.246  0.6172  1.0904 -0.5165
  999MOL0     H31803   7.609   3.329   1.874 -0.4096 -0.3971  0.3077
  999MOL0     H31804   7.640   3.384   1.635 -0.2061 -0.4913 -1.6860
  999MOL0     H31805   7.564   3.106   1.420  0.4162  0.6190  2.1797
  999MOL0     H31806   7.717   3.062   1.351  1.2302 -0.9581  4.7420
  999MOL0     H31807   7.539   3.271   1.235 -0.0294 -0.0177  0.9843
  999MOL0     H31808   7.593   3.118   1.165 -2.0444 -0.0127 -0.4715
  999MOL0     H31809   7.838   3.214   1.205  3.0094 -0.0394 -1.5424
  999MOL0     H31810   7.757   3.370   1.225 -0.1830 -1.3176 -0.7966
  999MOL0     H31811   7.744   3.193   0.992  2.4962 -1.4432  1.2268
  999MOL0     H31812   7.639   3.335   1.007 -0.3730 -2.2926  2.0035
  999MOL0     H31813   7.946   3.333   1.013 -1.0264 -0.4343  2.6698
  999MOL0     H31814   7.854   3.476   1.039 -0.7901 -1.3144  1.1702
  999MOL0     H31815   7.769   3.484   0.823  0.2050  0.0092 -4.1083
  999MOL0     H31816   7.843   3.327   0.789 -0.7388  0.6618 -0.2701
  999MOL0     H31817   8.007   3.564   0.878 -0.6239 -1.7384  2.4320
  999MOL0     H31818   8.064   3.407   0.834 -1.6434 -2.3458  0.2328
  999MOL0     H31819   8.096   3.609   0.661 -0.6798  0.9111 -0.6348
  999MOL0     H31820   7.926   3.592   0.619  1.3874 -1.5070 -3.6239
  999MOL0     H31821   7.878   3.493   0.423  0.0234  0.6402  0.4107
  999MOL0     H31822   7.907   3.345   0.170  1.7043  2.3253 -0.9795
  999MOL0     H31823   7.979   3.192   0.215  1.7394 -0.8193 -1.2944
  999MOL0     H31824   8.103   3.266   0.032 -0.4412  1.7799 -1.1496
  999MOL0     H31825   8.203   3.295   0.188 -0.5123 -4.0773 -0.9610
  999MOL0     H31826   8.121   3.480  -0.025 -0.4296 -0.5444  0.3746
  999MOL0     H31827   8.049   3.540   0.120 -1.2472 -1.0072  0.8275
  999MOL0     H31828   8.341   3.475   0.096 -0.5668 -2.4072  1.0141
  999MOL0     H31829   8.254   3.549   0.238  1.1031  0.7235  0.0973
  999MOL0     H31830   8.300   3.930  -0.003  3.0208 -0.7737  0.4872
  999MOL0     H31831   8.321   4.000  -0.246  0.8753 -1.6449  0.4233
  999MOL0     H31832   8.469   4.187  -0.595  4.0316 -0.9844 -0.0440
  999MOL0     H31833   8.489   4.253  -0.817  2.2844 -0.5467 -1.1469
  999MOL0     H31834   8.617   4.159  -1.151 -1.0449  0.9175 -1.2178
  999MOL0     H31835   8.599   4.228  -0.985 -2.8786  2.3837  0.5551
  999MOL0     H31836   8.399   4.332  -1.037  0.8606 -1.0569  1.1847
  999MOL0     H31837   8.404   4.271  -1.204 -2.7144 -1.9604  2.7694
  999MOL0     H31838   8.666   4.392  -1.169  0.1631  0.5210  1.8089
  999MOL0     H31839   8.577   4.500  -1.077  1.6442 -1.3136  0.1243
  999MOL0     H31840   8.513   4.447  -1.385  1.9306 -0.6456 -0.9003
  999MOL0     H31841   8.440   4.568  -1.281  2.9407  4.2938  0.0276
  999MOL0     H31842   8.628   4.645  -1.433  1.7774  1.7342  0.4815
  999MOL0     H31843   8.742   4.544  -1.365  0.7818  1.7832  0.8797
  999MOL0     H31844   8.717   4.671  -1.146 -1.0692 -2.5466 -1.4148
  999MOL0     H31845   8.592   4.779  -1.227 -1.4912 -3.1842  2.1218
  999MOL0     H31846   8.874   4.730  -1.329 -1.0813 -2.4040 -2.2783
  999MOL0     H31847   8.764   4.831  -1.404  0.6613  0.4554 -0.3370
  999MOL0     H31848   8.914   4.856  -1.138 -0.6409  1.8610  1.6019
  999MOL0     H31849   8.763   4.938  -1.145  0.5767 -1.9294  3.2510
  999MOL0     H31850   8.368   3.852  -0.936 -2.3359  0.5847 -0.2428
  999MOL0     H31851   8.297   3.826  -0.700  2.8790 -1.1958 -0.8682
  999MOL0     H31852   8.392   3.595  -0.347 -2.9674  0.6107 -0.6886
  999MOL0     H31853   8.360   3.523  -0.120  1.3552 -0.8810 -1.1703
  999MOL0     H31854   7.848   3.023   1.564 -0.0350 -1.2786 -0.0096
  999MOL0     H31855   7.810   2.960   1.818 -0.5080  0.3760  1.9115
  999MOL0     H31856   7.987   3.061   2.284 -0.2193  0.1616 -1.0832
  999MOL0     H31857   7.922   2.947   2.519 -0.3557  0.5539  0.8472
  999MOL0     H31858   7.590   2.784   2.734  0.9369 -0.5367 -0.5927
  999MOL0     H31859   7.497   2.852   2.606  0.0024 -1.3766 -0.4774
  999MOL0     H31860   7.684   2.995   2.797 -0.8477 -1.5886  0.4734
  999MOL0     H31861   7.627   3.079   2.640 -2.7215 -0.8918 -1.1348
  999MOL0     H31862   7.404   2.976   2.828  0.7093  0.5600 -0.3751
  999MOL0     H31863   7.409   3.077   2.691 -2.3412 -0.4168  1.4715
  999MOL0     H31864   7.544   3.126   2.967  1.6138 -0.0912 -0.7289
  999MOL0     H31865   7.535   3.244   2.833  1.6247 -1.1028 -0.6868
  999MOL0     H31866   7.147   3.279   2.967  0.4179 -0.0895  2.3214
  999MOL0     H31867   7.522   2.901   2.372 -0.2363 -0.8689 -1.5796
  999MOL0     H31868   7.562   3.032   2.184  0.5314  0.5390 -0.6061
 1000MOL0     O31869  11.398   9.763   1.063 -0.4475  0.2527  0.2933
 1000MOL0     C31870  11.442   9.670   0.994  0.4621 -0.0245 -0.2339
 1000MOL0     O31871  11.408   9.655   0.862  0.3157  0.4509  0.0459
 1000MOL0     C31872  11.311   9.735   0.809  0.8798  0.2393  0.5070
 1000MOL0     C31873  11.168   9.697   0.807 -0.0429  0.0309  0.3177
 1000MOL0     C31874  11.084   9.804   0.763  0.4842 -0.1134  0.3491
 1000MOL0     C31875  11.136   9.919   0.695  0.6658  0.0170  0.5386
 1000MOL0     O31876  11.046  10.014   0.654 -0.1431  0.3452 -0.2633
 1000MOL0     C31877  11.070  10.090   0.527  0.1690  0.1435 -0.1820
 1000MOL0     C31878  11.090  10.002   0.403  0.9096  0.4454 -0.3930
 1000MOL0     C31879  11.117  10.088   0.275 -0.5835  0.5644  0.0385
 1000MOL0     C31880  11.119  10.000   0.157 -0.2705  0.0132 -0.3660
 1000MOL0     C31881  11.265   9.959   0.137  0.1040 -0.3446  0.2855
 1000MOL0     C31882  11.276   9.875   0.004  0.4411  0.1741 -0.1177
 1000MOL0     C31883  11.243   9.953  -0.124 -0.3343 -0.6991 -0.1026
 1000MOL0     C31884  11.249   9.864  -0.252  0.8512  0.8862 -0.4716
 1000MOL0     N31885  11.223   9.946  -0.372 -0.4079 -0.0213 -0.0255
 1000MOL0     C31886  11.125  10.044  -0.393 -0.2348 -0.3764  0.0187
 1000MOL0     C31887  11.147  10.083  -0.517 -0.2214  0.5138  0.3806
 1000MOL0     C31888  11.082  10.184  -0.604 -0.2583 -0.6016 -0.3062
 1000MOL0     C31889  10.960  10.130  -0.676  0.2179  0.0683 -0.3598
 1000MOL0     C31890  10.898  10.229  -0.765  0.0914 -0.3224  0.5715
 1000MOL0     C31891  10.804  10.330  -0.682  0.9713  0.1647  0.5956
 1000MOL0     O31892  10.723  10.404  -0.791 -0.1318 -0.3174 -0.8817
 1000MOL0     C31893  10.686  10.533  -0.757  0.1989  0.0362 -0.2232
 1000MOL0     C31894  10.626  10.612  -0.858  0.1119  0.7285 -0.6358
 1000MOL0     C31895  10.595  10.746  -0.837 -0.5627  0.4159 -0.2608
 1000MOL0     C31896  10.604  10.808  -0.709  0.6035  0.6334  0.3831
 1000MOL0     C31897  10.582  10.954  -0.688 -0.2275  0.7084  0.1230
 1000MOL0     O31898  10.528  11.021  -0.797  0.5227 -0.3922 -0.2534
 1000MOL0     C31899  10.500  11.162  -0.787 -0.8591 -0.0913 -0.5729
 1000MOL0     C31900  10.610  11.253  -0.787 -0.1165 -0.3451  0.0852
 1000MOL0     C31901  10.590  11.388  -0.751  0.6144  0.3867  0.9133
 1000MOL0     C31902  10.462  11.430  -0.715  0.6294 -0.1882 -0.1740
 1000MOL0     O31903  10.447  11.563  -0.682  0.5510 -0.7758  0.8295
 1000MOL0     C31904  10.326  11.602  -0.619 -0.7790  0.7884 -0.3877
 1000MOL0     C31905  10.219  11.652  -0.713  0.1485 -0.3356  0.6743
 1000MOL0     C31906  10.259  11.767  -0.795 -0.0119 -0.2422  0.2165
 1000MOL0     C31907  10.322  11.891  -0.715  0.4395 -0.2700 -0.0659
 1000MOL0     C31908  10.237  11.973  -0.616 -0.5297  0.0226  0.8480
 1000MOL0     C31909  10.112  12.038  -0.681 -0.2367  0.5136 -0.4875
 1000MOL0     C31910  10.059  12.120  -0.566  0.5877 -0.8241  0.2244
 1000MOL0     C31911   9.955  12.224  -0.609  0.4989  0.2658  0.2654
 1000MOL0    Cl31912   9.908  12.312  -0.454 -0.4062 -0.1372 -0.2538
 1000MOL0     C31913  10.352  11.337  -0.703 -0.6741 -0.8763  0.5513
 1000MOL0     C31914  10.375  11.200  -0.744  0.9280  0.1323  0.0426
 1000MOL0     O31915  10.607  11.009  -0.573 -0.5998  0.3774  0.2225
 1000MOL0     C31916  10.651  10.721  -0.606  1.0536  0.6657  0.9290
 1000MOL0     C31917  10.690  10.589  -0.629  0.2612  0.2872 -0.0871
 1000MOL0     N31918  11.259  10.017  -0.577 -0.6432  0.2190 -1.0691
 1000MOL0     N31919  11.308   9.945  -0.480 -0.8873  0.2978  0.8351
 1000MOL0     C31920  11.270   9.928   0.669  0.3515 -0.4353 -0.2324
 1000MOL0     C31921  11.353   9.844   0.735 -0.8326  0.7845 -0.2709
 1000MOL0     C31922  11.550   9.587   1.049  0.2877 -0.8925 -0.4558
 1000MOL0     C31923  11.633   9.522   0.957 -0.1904 -0.7729  0.3337
 1000MOL0     C31924  11.725   9.432   0.997 -0.0692 -0.3893  0.8969
 1000MOL0     C31925  11.749   9.406   1.134  0.7761  0.1633  0.2317
 1000MOL0     O31926  11.839   9.302   1.172 -0.3880 -0.7116  0.5374
 1000MOL0     C31927  11.841   9.254   1.305  0.4156  0.4988  0.7720
 1000MOL0     C31928  11.937   9.331   1.395 -0.2381 -0.2543 -0.7970
 1000MOL0     C31929  11.950   9.280   1.541  1.3253 -0.0653  0.8990
 1000MOL0     C31930  12.022   9.144   1.561 -0.0854 -0.0692  0.8737
 1000MOL0     C31931  12.165   9.159   1.529  0.1666  0.6896  0.6332
 1000MOL0     C31932  12.289   9.157   1.535  0.3082 -0.7303  0.4111
 1000MOL0     C31933  11.684   9.491   1.225  0.0161 -0.6474 -0.0234
 1000MOL0     C31934  11.582   9.586   1.186  0.3887  0.4246  0.9823
 1000MOL0     H31935  11.120   9.609   0.847 -2.2409  1.2003  0.4066
 1000MOL0     H31936  10.977   9.816   0.774  0.3809 -0.0258 -0.6268
 1000MOL0     H31937  11.168  10.135   0.547 -0.4442  2.2986 -1.6830
 1000MOL0     H31938  10.994  10.169   0.517  0.1659  0.0319 -1.1168
 1000MOL0     H31939  10.995   9.951   0.384  1.2263 -0.4130  0.2496
 1000MOL0     H31940  11.165   9.929   0.436  0.2497  0.7614  1.9718
 1000MOL0     H31941  11.219  10.123   0.292 -0.3169 -0.6210  1.0077
 1000MOL0     H31942  11.042  10.163   0.250 -2.1451 -0.2725  1.8753
 1000MOL0     H31943  11.055   9.912   0.173  1.4435 -1.0474  1.0494
 1000MOL0     H31944  11.083  10.055   0.070  0.6818  0.2646 -0.6134
 1000MOL0     H31945  11.271   9.891   0.222 -4.6538 -1.4231  0.0261
 1000MOL0     H31946  11.344  10.035   0.130  0.3444 -0.6436 -0.3026
 1000MOL0     H31947  11.203   9.794   0.012 -3.1942  3.0828 -1.1620
 1000MOL0     H31948  11.377   9.836  -0.010  0.7022  0.2284  1.3598
 1000MOL0     H31949  11.145   9.999  -0.115  0.7359  1.7102  0.0568
 1000MOL0     H31950  11.316  10.033  -0.141  2.7737 -3.1124  0.9148
 1000MOL0     H31951  11.170   9.792  -0.231  4.2029 -2.3041  2.9470
 1000MOL0     H31952  11.340   9.803  -0.256  0.2624 -0.3076  2.2491
 1000MOL0     H31953  11.036  10.072  -0.336  0.1392 -0.5451  0.6901
 1000MOL0     H31954  11.160  10.217  -0.674  1.8835  0.3932  2.3881
 1000MOL0     H31955  11.055  10.270  -0.543  1.2781 -1.0233  1.0332
 1000MOL0     H31956  10.906  10.107  -0.584  0.4291  0.0678 -0.2350
 1000MOL0     H31957  10.973  10.034  -0.727 -1.5360 -0.9011  0.9332
 1000MOL0     H31958  10.973  10.287  -0.820 -0.1550 -1.2451 -0.7808
 1000MOL0     H31959  10.825  10.169  -0.820 -0.9224  1.2706  0.0986
 1000MOL0     H31960  10.862  10.401  -0.622 -1.6722  0.7862  2.6098
 1000MOL0     H31961  10.727  10.281  -0.622  0.8736 -0.1234  0.2369
 1000MOL0     H31962  10.612  10.575  -0.960 -1.0267 -0.7499  0.0187
 1000MOL0     H31963  10.555  10.803  -0.921 -2.3734  0.6344  0.6836
 1000MOL0     H31964  10.708  11.227  -0.823 -1.5436 -1.9042 -2.9971
 1000MOL0     H31965  10.671  11.455  -0.777 -0.0279  0.3048 -1.6094
 1000MOL0     H31966  10.344  11.677  -0.541 -1.7369 -1.6497  2.3726
 1000MOL0     H31967  10.294  11.522  -0.551  1.2888 -1.7426 -2.2027
 1000MOL0     H31968  10.123  11.669  -0.663  0.7420 -2.3581  2.6381
 1000MOL0     H31969  10.200  11.571  -0.784  2.8007 -2.1301  1.8611
 1000MOL0     H31970  10.168  11.800  -0.847 -1.1381 -1.2772  1.4635
 1000MOL0     H31971  10.333  11.742  -0.872 -0.1900 -0.2491  0.0454
 1000MOL0     H31972  10.408  11.855  -0.658 -0.0361 -1.5110 -0.1083
 1000MOL0     H31973  10.359  11.956  -0.795 -0.7654 -1.6095 -1.7869
 1000MOL0     H31974  10.309  12.049  -0.585  4.0077 -3.8972  1.1662
 1000MOL0     H31975  10.221  11.901  -0.535 -2.7113  1.4357  1.7475
 1000MOL0     H31976  10.039  11.962  -0.707  1.0502 -0.6259 -0.8995
 1000MOL0     H31977  10.131  12.100  -0.769 -0.4114 -1.2983 -1.8627
 1000MOL0     H31978  10.012  12.060  -0.488 -1.8635  1.3186  0.5375
 1000MOL0     H31979  10.144  12.180  -0.531 -0.7564  2.3778 -1.5524
 1000MOL0     H31980   9.871  12.175  -0.659  0.9539 -1.9413  1.5277
 1000MOL0     H31981  10.008  12.289  -0.679  2.5938 -2.9850 -1.3565
 1000MOL0     H31982  10.252  11.367  -0.672 -0.4258  1.4470 -0.6430
 1000MOL0     H31983  10.291  11.131  -0.741 -0.3669  1.5409 -1.2308
 1000MOL0     H31984  10.668  10.768  -0.510 -0.1558  0.0065  1.4786
 1000MOL0     H31985  10.718  10.527  -0.544 -4.8186 -2.8220 -0.2870
 1000MOL0     H31986  11.324  10.005   0.615 -0.7180  0.1620 -0.4967
 1000MOL0     H31987  11.459   9.861   0.726 -0.4013 -1.4012  0.1097
 1000MOL0     H31988  11.626   9.540   0.850 -0.2326 -1.9729  0.1230
 1000MOL0     H31989  11.778   9.362   0.933  1.0209  0.8972  0.3539
 1000MOL0     H31990  11.868   9.148   1.308 -3.0572 -0.5583 -0.4943
 1000MOL0     H31991  11.740   9.261   1.348  0.2318  0.7654  0.3001
 1000MOL0     H31992  12.029   9.303   1.344 -0.6688 -2.8508 -0.2634
 1000MOL0     H31993  11.916   9.439   1.395 -1.1805 -0.4234 -1.6312
 1000MOL0     H31994  11.847   9.277   1.577  0.1222 -0.5899 -2.2614
 1000MOL0     H31995  12.008   9.356   1.595  1.9184 -0.4320  0.7838
 1000MOL0     H31996  12.012   9.117   1.666 -0.0962  3.4650  1.9131
 1000MOL0     H31997  11.967   9.080   1.491  1.6126 -0.8707  0.2173
 1000MOL0     H31998  12.395   9.159   1.522  0.0187 -2.6794 -3.7932
 1000MOL0     H31999  11.705   9.494   1.332 -1.7293  2.5207  0.3458
 1000MOL0     H32000  11.528   9.654   1.250 -1.7531  1.9465 -2.1844
 1001MOL0     O32001   8.870   7.002  10.943 -0.1273  0.0536  0.2547
 1001MOL0     C32002   8.842   6.882  10.963 -0.5704 -0.3665 -0.8697
 1001MOL0     O32003   8.850   6.811  11.077 -0.1852  0.1331 -0.5873
 1001MOL0     C32004   8.894   6.877  11.185  1.0440 -0.5456 -0.1279
 1001MOL0     C32005   8.814   6.874  11.303 -0.3006  0.8959  0.3367
 1001MOL0     C32006   8.871   6.932  11.418  0.2109 -1.0887 -1.1421
 1001MOL0     C32007   8.996   6.997  11.422 -0.1057  0.4100  0.8368
 1001MOL0     O32008   9.046   7.044  11.538  0.3944 -0.0061  0.0376
 1001MOL0     C32009   9.161   7.127  11.532 -0.1786 -0.0515  0.8841
 1001MOL0     C32010   9.157   7.210  11.656 -0.3671 -0.1641 -0.6713
 1001MOL0     C32011   9.156   7.121  11.781  1.0170  0.0239  0.1630
 1001MOL0     C32012   9.168   7.199  11.913  0.5712 -0.2544  1.1224
 1001MOL0     C32013   9.258   7.125  12.018 -0.8444 -0.7955 -0.7501
 1001MOL0     C32014   9.408   7.123  11.976  0.0090 -0.0192 -0.3597
 1001MOL0     C32015   9.503   7.028  12.050 -0.2149  0.0226  0.2132
 1001MOL0     C32016   9.482   6.878  12.012 -0.1778  0.1012 -1.4624
 1001MOL0     N32017   9.486   6.857  11.874 -0.1686 -0.0028  0.8449
 1001MOL0     C32018   9.589   6.893  11.789  0.5410 -0.0989 -0.6609
 1001MOL0     C32019   9.551   6.856  11.669  0.6470 -0.4601 -0.4550
 1001MOL0     C32020   9.639   6.881  11.550  0.3104 -0.0993 -0.1891
 1001MOL0     C32021   9.576   6.845  11.424 -0.0298  0.2422  0.2050
 1001MOL0     C32022   9.685   6.839  11.314 -0.3358 -0.4757 -0.2685
 1001MOL0     C32023   9.632   6.797  11.182  0.8557  1.0625 -0.4688
 1001MOL0     O32024   9.719   6.837  11.087 -0.2416 -0.0611  0.9519
 1001MOL0     C32025   9.694   6.801  10.955  0.4178 -0.7408  0.5012
 1001MOL0     C32026   9.581   6.722  10.914 -0.2164  0.4153  0.4568
 1001MOL0     C32027   9.550   6.700  10.776 -0.2119  0.5257  0.8519
 1001MOL0     C32028   9.645   6.743  10.679 -0.1707 -0.4815  0.2220
 1001MOL0     C32029   9.616   6.732  10.531 -0.4425  0.3570  0.3794
 1001MOL0     O32030   9.495   6.685  10.504  0.2753 -0.7298  0.2999
 1001MOL0     C32031   9.466   6.635  10.378 -0.1273 -0.5371 -0.5434
 1001MOL0     C32032   9.336   6.600  10.366  0.4464  0.2839 -0.0282
 1001MOL0     C32033   9.278   6.559  10.242 -0.1568  0.5104 -0.4801
 1001MOL0     C32034   9.360   6.541  10.138  0.7412  0.5892 -0.0591
 1001MOL0     O32035   9.293   6.500  10.022  0.1246  0.7626 -0.3580
 1001MOL0     C32036   9.374   6.412   9.945  0.8143  0.2720  0.0443
 1001MOL0     C32037   9.280   6.341   9.828 -0.4653  0.0431  0.1585
 1001MOL0     C32038   9.375   6.293   9.714 -0.4043  0.2860 -0.6297
 1001MOL0     C32039   9.347   6.151   9.659 -0.2472  0.3668 -0.3897
 1001MOL0     C32040   9.463   6.090   9.582  0.5189 -0.2706  1.6284
 1001MOL0     C32041   9.494   5.941   9.613 -0.6877  0.7605  0.1355
 1001MOL0     C32042   9.622   5.888   9.562  0.1984 -0.7271  0.4837
 1001MOL0     C32043   9.730   5.876   9.672  1.1845 -0.0575 -0.3104
 1001MOL0    Cl32044   9.762   6.038   9.754 -0.6584 -0.1095 -0.2784
 1001MOL0     C32045   9.498   6.560  10.145 -0.0663 -0.0923 -0.1852
 1001MOL0     C32046   9.550   6.600  10.265  1.2096  0.2659  0.2506
 1001MOL0     O32047   9.705   6.749  10.454 -0.6594 -0.3752 -0.7126
 1001MOL0     C32048   9.769   6.802  10.721  0.3880 -0.0237 -0.6918
 1001MOL0     C32049   9.789   6.826  10.861  0.0887 -0.0966 -0.8883
 1001MOL0     N32050   9.420   6.809  11.676 -0.2695  0.7412  1.4090
 1001MOL0     N32051   9.390   6.801  11.802  0.3263  0.3721  0.5859
 1001MOL0     C32052   9.067   7.002  11.293  0.6061  0.1944 -0.2867
 1001MOL0     C32053   9.021   6.934  11.182  0.6343  0.5946  0.5264
 1001MOL0     C32054   8.781   6.800  10.853 -0.9191  0.4251  0.5054
 1001MOL0     C32055   8.751   6.861  10.732 -0.8943  0.0961 -0.5423
 1001MOL0     C32056   8.697   6.795  10.625 -0.7582  0.2010 -0.0318
 1001MOL0     C32057   8.680   6.654  10.642  1.0108  0.1351  0.0503
 1001MOL0     O32058   8.621   6.585  10.539  0.4202  0.3057  0.1403
 1001MOL0     C32059   8.623   6.618  10.400 -0.6783 -0.3188  1.4273
 1001MOL0     C32060   8.588   6.503  10.302  0.6507  1.1457  0.0049
 1001MOL0     C32061   8.435   6.488  10.293  0.1158  0.1932  0.3550
 1001MOL0     C32062   8.407   6.374  10.192  0.8786 -0.0981 -1.1438
 1001MOL0     C32063   8.444   6.404  10.056  0.3571 -0.3322 -0.0042
 1001MOL0     C32064   8.480   6.442   9.946  0.0837  1.5782 -0.9171
 1001MOL0     C32065   8.698   6.590  10.758  0.0300 -0.5737  0.0546
 1001MOL0     C32066   8.753   6.659  10.866 -0.3785 -0.4259 -0.1870
 1001MOL0     H32067   8.722   6.816  11.308  0.9158 -1.7059 -3.2387
 1001MOL0     H32068   8.809   6.943  11.506  2.8838  3.1346  0.5144
 1001MOL0     H32069   9.150   7.200  11.451 -1.9175 -1.3039 -0.0724
 1001MOL0     H32070   9.248   7.060  11.533 -0.6135 -0.8225 -2.2183
 1001MOL0     H32071   9.061   7.263  11.664 -1.5729 -2.3709  0.5990
 1001MOL0     H32072   9.246   7.273  11.667 -1.5496  1.4716 -0.1371
 1001MOL0     H32073   9.236   7.046  11.784  0.8615 -0.1270  0.6124
 1001MOL0     H32074   9.056   7.078  11.788 -0.6777  3.7610  1.6298
 1001MOL0     H32075   9.200   7.300  11.885 -1.0154  0.3123  1.2438
 1001MOL0     H32076   9.067   7.218  11.951  0.2567  2.1277 -0.6809
 1001MOL0     H32077   9.221   7.024  12.037 -0.3386 -1.0338 -1.0042
 1001MOL0     H32078   9.232   7.172  12.113  0.8205 -2.1433  0.4176
 1001MOL0     H32079   9.454   7.221  11.988 -1.1731  0.6337 -1.0820
 1001MOL0     H32080   9.416   7.096  11.871  0.6989 -1.6619  0.0857
 1001MOL0     H32081   9.608   7.049  12.028  0.3352 -0.0051  2.5606
 1001MOL0     H32082   9.480   7.051  12.154  0.6514  1.4439  0.1183
 1001MOL0     H32083   9.379   6.856  12.041 -0.0052  1.6388  0.4669
 1001MOL0     H32084   9.553   6.812  12.062 -2.3834 -2.8999 -1.9969
 1001MOL0     H32085   9.679   6.936  11.832 -1.0148  0.2824  2.4425
 1001MOL0     H32086   9.727   6.818  11.566  0.2285  0.2263  1.7238
 1001MOL0     H32087   9.674   6.984  11.541  2.9092 -0.4759  3.6089
 1001MOL0     H32088   9.487   6.904  11.399 -1.5707 -2.9735 -2.6427
 1001MOL0     H32089   9.549   6.740  11.421  3.8620 -0.9047 -0.4619
 1001MOL0     H32090   9.734   6.936  11.301 -1.4801 -0.2076 -3.5795
 1001MOL0     H32091   9.760   6.763  11.339 -0.0417 -0.7195 -1.7940
 1001MOL0     H32092   9.539   6.847  11.152  0.2135  0.5868  0.6661
 1001MOL0     H32093   9.615   6.689  11.186 -0.4154  1.2683  0.2276
 1001MOL0     H32094   9.505   6.690  10.985 -0.8060  1.7133  0.4489
 1001MOL0     H32095   9.463   6.643  10.744 -0.1069  1.6562 -1.7148
 1001MOL0     H32096   9.272   6.636  10.446  3.1061  0.6680  2.0881
 1001MOL0     H32097   9.172   6.535  10.238  0.0938 -0.4655 -2.9543
 1001MOL0     H32098   9.400   6.335  10.018  1.6115  1.8899  1.5470
 1001MOL0     H32099   9.457   6.470   9.903  0.5759 -1.0798 -2.4581
 1001MOL0     H32100   9.212   6.413   9.783  1.0351  1.4446  0.0278
 1001MOL0     H32101   9.226   6.258   9.875 -0.0140  1.5370  3.6569
 1001MOL0     H32102   9.469   6.279   9.768 -0.6690 -1.9291 -0.6411
 1001MOL0     H32103   9.395   6.374   9.643 -1.0557 -1.1847 -2.6112
 1001MOL0     H32104   9.338   6.082   9.743  1.6056 -0.1179 -0.5639
 1001MOL0     H32105   9.249   6.140   9.610  0.2479 -0.5081 -1.2088
 1001MOL0     H32106   9.556   6.144   9.604  1.1477 -2.0607  3.7713
 1001MOL0     H32107   9.437   6.094   9.476 -0.2239  1.4542  1.8485
 1001MOL0     H32108   9.413   5.875   9.581 -0.0908  1.0201 -2.0492
 1001MOL0     H32109   9.498   5.918   9.720  5.0777  0.9074  0.2397
 1001MOL0     H32110   9.605   5.797   9.504 -0.3013 -0.5074  0.2738
 1001MOL0     H32111   9.660   5.962   9.491 -2.1995 -0.6942 -0.8850
 1001MOL0     H32112   9.822   5.842   9.623  0.2680  0.5869 -2.6071
 1001MOL0     H32113   9.695   5.818   9.758  0.9023  0.3281 -0.1613
 1001MOL0     H32114   9.567   6.545  10.063 -0.0578 -1.4684  0.0432
 1001MOL0     H32115   9.655   6.586  10.288  1.4650  1.1492 -0.3269
 1001MOL0     H32116   9.839   6.829  10.642  0.7428  0.0357 -0.3621
 1001MOL0     H32117   9.883   6.878  10.878  0.2498 -0.0967 -1.7459
 1001MOL0     H32118   9.166   7.045  11.283 -0.3176  2.8313  1.0824
 1001MOL0     H32119   9.091   6.920  11.100  1.9051  0.2993  1.6149
 1001MOL0     H32120   8.765   6.968  10.718 -0.2167 -0.0472 -1.0359
 1001MOL0     H32121   8.680   6.851  10.533 -1.4535 -3.6649 -2.4814
 1001MOL0     H32122   8.717   6.658  10.361 -1.4181 -2.4509 -3.2983
 1001MOL0     H32123   8.551   6.698  10.379 -1.9540 -1.7318  0.2012
 1001MOL0     H32124   8.628   6.510  10.201 -1.4804 -1.0688 -1.0761
 1001MOL0     H32125   8.617   6.413  10.356 -3.4069  1.9024  4.0435
 1001MOL0     H32126   8.387   6.576  10.249  2.5039  0.5787 -1.6649
 1001MOL0     H32127   8.390   6.453  10.387 -1.6926  0.6201 -0.3103
 1001MOL0     H32128   8.460   6.285  10.227  2.3387  1.5353  1.0252
 1001MOL0     H32129   8.301   6.348  10.197  0.8616  0.1493  0.0393
 1001MOL0     H32130   8.511   6.472   9.848  2.9872  1.9894  0.0249
 1001MOL0     H32131   8.678   6.483  10.766 -1.5203 -0.4349 -1.3280
 1001MOL0     H32132   8.775   6.610  10.960 -1.3354 -0.8283 -0.1689
 1002MOL0     O32133   3.950  11.075   2.976 -0.2569 -0.6232 -0.0712
 1002MOL0     C32134   3.958  11.134   3.088  0.7887 -0.0978 -0.5578
 1002MOL0     O32135   3.864  11.118   3.193 -0.2363 -0.2603 -0.0591
 1002MOL0     C32136   3.754  11.032   3.183  0.2236 -0.1588 -1.7364
 1002MOL0     C32137   3.743  10.944   3.295  0.4279 -0.2003 -0.6958
 1002MOL0     C32138   3.641  10.847   3.302  0.4290 -0.9029  0.5383
 1002MOL0     C32139   3.559  10.824   3.190 -0.7165  0.0311  0.1957
 1002MOL0     O32140   3.478  10.715   3.188 -0.2162  1.2444  0.0479
 1002MOL0     C32141   3.451  10.637   3.068  0.0928  0.4893 -0.7252
 1002MOL0     C32142   3.352  10.525   3.098 -0.1094  0.5495 -0.4016
 1002MOL0     C32143   3.407  10.446   3.213 -0.8083 -0.6667  0.8310
 1002MOL0     C32144   3.422  10.299   3.171 -0.0197  0.4467 -0.1992
 1002MOL0     C32145   3.316  10.228   3.088  0.3890 -0.0282 -0.0416
 1002MOL0     C32146   3.182  10.222   3.155  0.4934  1.0656  0.0292
 1002MOL0     C32147   3.086  10.115   3.087 -0.6734  0.6210  0.6220
 1002MOL0     C32148   2.947  10.105   3.160  1.0882 -0.4525  0.1874
 1002MOL0     N32149   2.871   9.985   3.112 -0.3238  0.7201  0.1152
 1002MOL0     C32150   2.882   9.849   3.155 -0.2853 -0.1239 -0.0301
 1002MOL0     C32151   2.806   9.783   3.056  0.0583  0.2112  0.1697
 1002MOL0     C32152   2.791   9.636   3.063  0.4979  0.7145 -0.8819
 1002MOL0     C32153   2.645   9.599   3.115  0.1514 -0.4181  0.5018
 1002MOL0     C32154   2.614   9.449   3.097 -0.0176 -0.3706  0.9900
 1002MOL0     C32155   2.703   9.352   3.190  0.4903  0.0819 -0.6389
 1002MOL0     O32156   2.650   9.215   3.187 -0.0929 -0.0399 -0.2707
 1002MOL0     C32157   2.686   9.125   3.085  0.8921 -0.6342  0.7805
 1002MOL0     C32158   2.775   9.147   2.979  0.3049 -0.5424 -0.8167
 1002MOL0     C32159   2.781   9.049   2.877  1.5669  0.2026 -1.0085
 1002MOL0     C32160   2.693   8.939   2.872  0.4055  0.4250  0.1460
 1002MOL0     C32161   2.699   8.833   2.764  0.4607  0.8089 -0.6887
 1002MOL0     O32162   2.641   8.702   2.791 -0.6085  0.3669 -0.4575
 1002MOL0     C32163   2.624   8.608   2.687  0.2910 -0.2885  0.3159
 1002MOL0     C32164   2.608   8.474   2.726  0.7474  0.2124 -0.4552
 1002MOL0     C32165   2.561   8.377   2.629  0.3305  1.0309 -0.7735
 1002MOL0     C32166   2.554   8.408   2.492  0.7491 -0.5924 -0.0962
 1002MOL0     O32167   2.511   8.321   2.386  0.3536  0.6077  0.3600
 1002MOL0     C32168   2.506   8.177   2.415 -0.4813 -0.5946 -0.0986
 1002MOL0     C32169   2.550   8.117   2.277  0.5512 -0.3962 -0.3906
 1002MOL0     C32170   2.699   8.148   2.247 -0.1421 -1.1353 -0.1641
 1002MOL0     C32171   2.754   8.088   2.118  0.8872  0.0375  0.3463
 1002MOL0     C32172   2.880   8.159   2.074  0.9000 -0.3731 -0.8928
 1002MOL0     C32173   2.928   8.077   1.953 -0.1651  0.4138 -0.1210
 1002MOL0     C32174   3.062   8.140   1.919  0.0787  0.7838 -0.3902
 1002MOL0     C32175   3.072   8.272   1.842 -0.2413  1.0577 -0.5806
 1002MOL0    Cl32176   3.245   8.315   1.863  0.0955 -0.7210  0.3075
 1002MOL0     C32177   2.574   8.548   2.457 -0.7353  0.0716  0.2498
 1002MOL0     C32178   2.601   8.648   2.551 -0.8731 -0.0052  0.0917
 1002MOL0     O32179   2.760   8.856   2.664  0.1060 -0.1466  0.4243
 1002MOL0     C32180   2.605   8.920   2.979 -0.2614  0.0730  0.2525
 1002MOL0     C32181   2.601   9.014   3.084  0.4874 -0.0036 -0.0144
 1002MOL0     N32182   2.752   9.875   2.967 -0.1704 -0.5813 -0.6032
 1002MOL0     N32183   2.789   9.991   3.004  0.5287 -0.0879  0.2653
 1002MOL0     C32184   3.568  10.923   3.090  0.5978  0.5314 -0.5076
 1002MOL0     C32185   3.657  11.023   3.082 -0.6302  0.1041  0.6272
 1002MOL0     C32186   4.061  11.231   3.104 -0.4051 -0.4582  0.5360
 1002MOL0     C32187   4.070  11.311   3.219 -0.3245 -0.3838 -0.7312
 1002MOL0     C32188   4.174  11.400   3.246 -0.2474 -0.3366 -0.8376
 1002MOL0     C32189   4.260  11.438   3.147 -1.8880  0.9323  0.4483
 1002MOL0     O32190   4.344  11.548   3.155  0.4994 -0.1201 -0.3786
 1002MOL0     C32191   4.367  11.624   3.034 -0.3487  0.8504  0.2680
 1002MOL0     C32192   4.416  11.769   3.074  1.5584  0.9981 -0.6156
 1002MOL0     C32193   4.553  11.782   3.143  0.1999 -0.4379  0.6407
 1002MOL0     C32194   4.670  11.734   3.059 -0.2761 -0.6098  0.4510
 1002MOL0     C32195   4.706  11.598   3.081 -0.7907 -0.7604 -0.0277
 1002MOL0     C32196   4.751  11.488   3.120  0.5160 -0.8375 -0.0793
 1002MOL0     C32197   4.268  11.354   3.037 -0.3546  0.3900  0.0095
 1002MOL0     C32198   4.172  11.251   3.011 -0.5043  0.4107 -0.1727
 1002MOL0     H32199   3.807  10.970   3.379 -0.7506 -1.3120  0.5716
 1002MOL0     H32200   3.643  10.785   3.391  1.3790  1.7653  2.5109
 1002MOL0     H32201   3.545  10.591   3.036  0.1499 -0.2008  0.3797
 1002MOL0     H32202   3.392  10.695   2.996 -0.6211 -1.5688 -1.8674
 1002MOL0     H32203   3.344  10.461   3.010 -0.5390 -1.6383  1.1563
 1002MOL0     H32204   3.259  10.575   3.125  0.0965  1.7698 -1.8455
 1002MOL0     H32205   3.354  10.461   3.308  2.6655  2.1759  2.5776
 1002MOL0     H32206   3.502  10.490   3.246 -2.1273  2.7387  0.5185
 1002MOL0     H32207   3.505  10.293   3.100  0.0156 -0.5236 -0.0922
 1002MOL0     H32208   3.440  10.236   3.259  0.5733  1.3834  0.3623
 1002MOL0     H32209   3.327  10.120   3.079 -3.9496 -0.6056 -0.6063
 1002MOL0     H32210   3.299  10.278   2.992  1.6343  0.3275 -0.0971
 1002MOL0     H32211   3.132  10.319   3.160 -0.4057  0.6268 -0.3026
 1002MOL0     H32212   3.216  10.198   3.257  4.4288 -0.3851 -1.4618
 1002MOL0     H32213   3.085  10.138   2.980  2.5309  5.6843  1.3444
 1002MOL0     H32214   3.138  10.019   3.102  1.2765  1.1729 -1.8165
 1002MOL0     H32215   2.895  10.200   3.141  1.1948 -0.5775 -0.8030
 1002MOL0     H32216   2.977  10.094   3.264  1.8832 -0.5796 -0.0496
 1002MOL0     H32217   2.940   9.822   3.243 -1.4448  1.0671  1.1574
 1002MOL0     H32218   2.862   9.594   3.135 -0.2549  0.1841 -0.4364
 1002MOL0     H32219   2.816   9.597   2.963 -0.3208  0.5976 -1.0512
 1002MOL0     H32220   2.578   9.669   3.064  0.4939 -0.4071  0.0634
 1002MOL0     H32221   2.641   9.609   3.224  2.2913 -2.3230  0.8475
 1002MOL0     H32222   2.505   9.445   3.111 -0.7321  1.0795 -2.8674
 1002MOL0     H32223   2.630   9.414   2.994 -1.5645 -2.6185  1.4446
 1002MOL0     H32224   2.700   9.386   3.294  0.3843  2.7080 -1.4074
 1002MOL0     H32225   2.810   9.345   3.167  1.0316  0.5964  1.4848
 1002MOL0     H32226   2.832   9.239   2.983 -2.4055  1.2186  1.4750
 1002MOL0     H32227   2.847   9.077   2.794  0.9448  2.5528 -0.7611
 1002MOL0     H32228   2.620   8.449   2.831 -2.7895 -0.8875 -0.1810
 1002MOL0     H32229   2.531   8.280   2.668 -0.9568  2.1226  1.0809
 1002MOL0     H32230   2.403   8.141   2.428 -0.2864 -0.0644  4.5375
 1002MOL0     H32231   2.579   8.136   2.486 -0.1211 -0.5474 -0.4394
 1002MOL0     H32232   2.483   8.156   2.200  1.1910  1.7085  0.0700
 1002MOL0     H32233   2.542   8.008   2.290  3.8226 -0.4090  3.1440
 1002MOL0     H32234   2.753   8.108   2.333  0.6347  3.2329  1.6796
 1002MOL0     H32235   2.715   8.256   2.253 -3.0290 -0.6869  1.3372
 1002MOL0     H32236   2.779   7.985   2.147  0.2945  0.1058  1.1449
 1002MOL0     H32237   2.677   8.084   2.041  1.1797 -1.6246  0.0894
 1002MOL0     H32238   2.945   8.166   2.162  0.1762 -3.2115 -0.0004
 1002MOL0     H32239   2.859   8.262   2.045  1.0964  0.3777  1.4563
 1002MOL0     H32240   2.863   8.064   1.867 -2.4307  0.7383  1.4608
 1002MOL0     H32241   2.940   7.973   1.985 -0.6511 -0.0517 -1.4062
 1002MOL0     H32242   3.106   8.154   2.019 -3.1461  2.2743  0.9640
 1002MOL0     H32243   3.117   8.067   1.859  0.6631  1.3124 -0.5071
 1002MOL0     H32244   3.013   8.340   1.904 -1.5290 -0.5718  0.0338
 1002MOL0     H32245   3.024   8.271   1.744  0.7470  0.4494 -1.0808
 1002MOL0     H32246   2.558   8.576   2.354  2.0703  3.2163  0.4947
 1002MOL0     H32247   2.592   8.753   2.525  1.2836  0.0037 -0.8565
 1002MOL0     H32248   2.522   8.850   2.983  0.5678 -0.8907  1.0592
 1002MOL0     H32249   2.534   8.988   3.166 -2.0395 -0.5164 -2.1304
 1002MOL0     H32250   3.497  10.927   3.009 -0.3342  0.8878  0.3147
 1002MOL0     H32251   3.660  11.099   3.004  1.1386 -1.2021 -0.6530
 1002MOL0     H32252   4.005  11.296   3.305  1.2164 -0.7336  0.4127
 1002MOL0     H32253   4.182  11.451   3.341 -0.2853 -0.6703 -0.6519
 1002MOL0     H32254   4.274  11.622   2.976 -2.2319 -0.7252  3.1216
 1002MOL0     H32255   4.440  11.568   2.975 -1.1638 -1.7158  1.5157
 1002MOL0     H32256   4.425  11.830   2.984 -0.7340  1.1852 -0.7811
 1002MOL0     H32257   4.340  11.817   3.137  1.9093 -2.7212  3.1032
 1002MOL0     H32258   4.552  11.740   3.245 -1.4025  0.6133  1.0955
 1002MOL0     H32259   4.563  11.890   3.157  2.9731 -0.8329  2.6077
 1002MOL0     H32260   4.644  11.755   2.954  0.4351  0.7204  0.5233
 1002MOL0     H32261   4.760  11.784   3.095 -0.7910  2.1860 -1.7713
 1002MOL0     H32262   4.801  11.405   3.168  0.4619  1.2029  3.9309
 1002MOL0     H32263   4.340  11.390   2.965  1.0137  2.4855  2.2709
 1002MOL0     H32264   4.184  11.185   2.925  1.8163  1.6847 -0.9086
 1003MOL0     O32265   8.019   8.426   0.169  0.3425 -0.2786  0.8429
 1003MOL0     C32266   7.927   8.352   0.135 -0.0926  0.6250  0.3148
 1003MOL0     O32267   7.803   8.366   0.187 -0.2082  0.2253 -0.3053
 1003MOL0     C32268   7.767   8.461   0.280 -1.0225  0.6674  0.6805
 1003MOL0     C32269   7.784   8.594   0.265  0.2567 -0.3544 -0.5130
 1003MOL0     C32270   7.732   8.693   0.352  1.4637 -0.8185 -0.8086
 1003MOL0     C32271   7.635   8.651   0.451  0.2586  0.9010 -0.5666
 1003MOL0     O32272   7.569   8.741   0.530 -0.3367  0.5730 -0.7152
 1003MOL0     C32273   7.582   8.886   0.508  0.2301  0.3810  0.2639
 1003MOL0     C32274   7.503   8.966   0.616  0.1890 -0.5515 -0.3647
 1003MOL0     C32275   7.345   8.937   0.619 -0.3979 -0.2388  0.6896
 1003MOL0     C32276   7.266   8.990   0.498 -0.6549 -0.2825  0.0318
 1003MOL0     C32277   7.121   8.969   0.488 -0.0514 -0.0172 -0.3554
 1003MOL0     C32278   7.043   9.037   0.604  0.0554  0.1860  0.3177
 1003MOL0     C32279   7.052   9.190   0.588  0.1751 -0.0425 -0.3269
 1003MOL0     C32280   6.948   9.257   0.680 -1.3136  0.7648  0.3537
 1003MOL0     N32281   6.965   9.407   0.680 -0.0133  0.6283  0.5746
 1003MOL0     C32282   6.905   9.500   0.588 -0.3446  0.4173 -0.4328
 1003MOL0     C32283   6.947   9.622   0.626  0.0271 -0.5652 -0.0825
 1003MOL0     C32284   6.936   9.753   0.577 -0.5869  0.5248 -0.7483
 1003MOL0     C32285   6.822   9.828   0.652  0.7997 -0.5663  0.4906
 1003MOL0     C32286   6.681   9.786   0.608 -0.0981  0.2056 -0.6112
 1003MOL0     C32287   6.573   9.894   0.639 -0.3972  0.1467 -1.4701
 1003MOL0     O32288   6.438   9.856   0.611  0.2867 -0.5634 -0.1585
 1003MOL0     C32289   6.397   9.741   0.671 -0.3689  0.4908 -0.6400
 1003MOL0     C32290   6.413   9.704   0.806  0.6141 -0.1410 -0.4068
 1003MOL0     C32291   6.369   9.581   0.847 -0.1547  0.3084 -0.0699
 1003MOL0     C32292   6.316   9.481   0.761  0.0576 -0.0119 -0.3655
 1003MOL0     C32293   6.282   9.343   0.806 -0.1183  0.0245  0.8570
 1003MOL0     O32294   6.231   9.267   0.703 -1.1144 -0.0349  0.0090
 1003MOL0     C32295   6.247   9.135   0.724 -0.7936  0.9234  1.5063
 1003MOL0     C32296   6.378   9.087   0.727 -0.6127  0.6800 -0.0059
 1003MOL0     C32297   6.400   8.961   0.788  0.8101  0.6368  0.4556
 1003MOL0     C32298   6.292   8.874   0.815 -0.8381 -0.2964 -1.2120
 1003MOL0     O32299   6.322   8.744   0.860  0.5466  0.5860  0.0947
 1003MOL0     C32300   6.249   8.692   0.978  0.2104 -0.1736 -0.1338
 1003MOL0     C32301   6.124   8.603   0.947 -0.5487 -0.6026 -1.0539
 1003MOL0     C32302   6.089   8.518   1.069  1.0443  0.6966  0.2803
 1003MOL0     C32303   5.958   8.452   1.065 -0.5485  0.2283  0.0460
 1003MOL0     C32304   5.947   8.333   1.174  0.8935  0.9064  0.0308
 1003MOL0     C32305   5.831   8.237   1.165 -0.7270  0.1246  0.5918
 1003MOL0     C32306   5.835   8.130   1.276 -0.5991 -0.4807 -0.1373
 1003MOL0     C32307   5.951   8.037   1.248 -0.1007  0.7252  0.2775
 1003MOL0    Cl32308   5.909   7.930   1.109 -0.1146  0.0411  0.2972
 1003MOL0     C32309   6.164   8.914   0.792  0.1573 -0.2972  0.2325
 1003MOL0     C32310   6.144   9.044   0.739  0.4221  0.5695 -0.8724
 1003MOL0     O32311   6.307   9.304   0.914  0.1561 -0.0661 -0.5288
 1003MOL0     C32312   6.293   9.527   0.634  0.4152 -0.5331 -0.0042
 1003MOL0     C32313   6.330   9.658   0.586  0.7020  0.8579 -1.0558
 1003MOL0     N32314   7.028   9.612   0.734 -0.8930 -0.7299  0.1487
 1003MOL0     N32315   7.043   9.484   0.764  0.3670 -0.0947  0.0442
 1003MOL0     C32316   7.615   8.514   0.463  0.2952  0.0595 -0.2804
 1003MOL0     C32317   7.682   8.416   0.380  0.5929 -0.0402 -0.6103
 1003MOL0     C32318   7.961   8.266   0.019  0.3762  0.0560 -0.2266
 1003MOL0     C32319   8.077   8.286  -0.064  0.1828 -0.5155 -0.8470
 1003MOL0     C32320   8.099   8.199  -0.176 -0.0592  0.1212  0.3899
 1003MOL0     C32321   8.007   8.091  -0.204  0.2433 -0.1097  0.0904
 1003MOL0     O32322   8.032   8.010  -0.314 -0.1782 -0.5339 -0.1914
 1003MOL0     C32323   7.967   7.885  -0.331  0.1232  0.2811  0.3916
 1003MOL0     C32324   8.024   7.772  -0.249  0.7526  0.8590 -0.2036
 1003MOL0     C32325   8.161   7.722  -0.309  0.0301  0.7494  0.2158
 1003MOL0     C32326   8.249   7.674  -0.207  0.6002 -0.5248  0.8289
 1003MOL0     C32327   8.198   7.556  -0.129 -0.0127 -0.3255  0.2603
 1003MOL0     C32328   8.159   7.455  -0.079 -0.5683  0.2525  0.2176
 1003MOL0     C32329   7.890   8.085  -0.122  0.1495  0.7289 -0.4556
 1003MOL0     C32330   7.872   8.166  -0.021  1.2092 -0.4990 -0.7032
 1003MOL0     H32331   7.844   8.643   0.189  0.3202  2.0992  1.0190
 1003MOL0     H32332   7.755   8.798   0.338 -1.5996  0.3725  1.8934
 1003MOL0     H32333   7.549   8.926   0.412 -3.1166  2.7128  2.1747
 1003MOL0     H32334   7.689   8.910   0.517 -0.1672  2.3841  0.1910
 1003MOL0     H32335   7.524   9.072   0.599  3.9748 -1.2600 -0.8290
 1003MOL0     H32336   7.551   8.943   0.711  3.2498  0.4046 -1.5706
 1003MOL0     H32337   7.296   8.976   0.708  2.0408 -1.2142  2.5756
 1003MOL0     H32338   7.330   8.829   0.629 -1.1954 -0.4398 -1.9525
 1003MOL0     H32339   7.287   9.097   0.498 -0.3646 -0.3343 -0.3392
 1003MOL0     H32340   7.315   8.950   0.408  0.7871 -0.5180  0.8827
 1003MOL0     H32341   7.097   8.863   0.501  1.2703 -0.1420  1.6926
 1003MOL0     H32342   7.094   9.011   0.391 -1.2520  0.3130  0.0956
 1003MOL0     H32343   7.080   9.008   0.702  0.2501 -0.7259 -0.0137
 1003MOL0     H32344   6.937   9.012   0.591  0.5574 -0.6534 -3.0877
 1003MOL0     H32345   7.146   9.219   0.635 -0.1289  0.6138 -0.1146
 1003MOL0     H32346   7.051   9.234   0.487  4.2795  1.9858  0.2878
 1003MOL0     H32347   6.968   9.228   0.783 -0.0039  2.0958  0.5099
 1003MOL0     H32348   6.848   9.219   0.657 -0.8280  0.7931 -2.0803
 1003MOL0     H32349   6.832   9.486   0.508 -1.9511  0.4358  0.9734
 1003MOL0     H32350   6.930   9.748   0.468 -1.3009  1.2327 -0.7495
 1003MOL0     H32351   7.031   9.807   0.587 -1.1964  1.4935  0.1320
 1003MOL0     H32352   6.835   9.936   0.641  0.0673 -0.4842  0.3420
 1003MOL0     H32353   6.849   9.805   0.755 -0.7782  0.7847  1.2498
 1003MOL0     H32354   6.682   9.781   0.498  1.4593  0.3006 -0.6165
 1003MOL0     H32355   6.662   9.683   0.641  1.7064  0.6120  1.9738
 1003MOL0     H32356   6.576   9.991   0.588  1.0369  0.1119 -1.5153
 1003MOL0     H32357   6.574   9.918   0.746 -4.0533  1.9635 -1.7012
 1003MOL0     H32358   6.471   9.765   0.876  1.3679  0.6441 -1.6710
 1003MOL0     H32359   6.392   9.547   0.947 -0.7271  0.1315  0.0040
 1003MOL0     H32360   6.464   9.150   0.704  0.5679  0.4879  3.3465
 1003MOL0     H32361   6.500   8.924   0.811  1.2878  0.9883 -0.9566
 1003MOL0     H32362   6.222   8.776   1.042  2.0577  0.2526  0.1342
 1003MOL0     H32363   6.320   8.633   1.037  1.4150  1.5348  0.2091
 1003MOL0     H32364   6.156   8.552   0.856 -0.1748  2.6549 -2.9150
 1003MOL0     H32365   6.036   8.664   0.925 -1.1848 -0.1083  2.2262
 1003MOL0     H32366   6.091   8.593   1.149  1.8625  2.2784 -1.1693
 1003MOL0     H32367   6.165   8.439   1.080  1.2589  0.3684 -2.7160
 1003MOL0     H32368   5.875   8.518   1.093  0.7600  0.5415  3.7105
 1003MOL0     H32369   5.940   8.418   0.963 -1.2855 -1.6305  0.7511
 1003MOL0     H32370   5.941   8.383   1.271 -0.1762  0.3367  0.2779
 1003MOL0     H32371   6.039   8.275   1.172  1.3498  1.6088 -2.6298
 1003MOL0     H32372   5.851   8.186   1.071 -2.2991  0.0776  0.2431
 1003MOL0     H32373   5.733   8.285   1.156 -0.7489 -0.3510 -2.8500
 1003MOL0     H32374   5.855   8.180   1.370  1.2058  0.4792 -0.9922
 1003MOL0     H32375   5.746   8.066   1.268  0.5354 -1.9413 -1.9338
 1003MOL0     H32376   5.969   7.978   1.338 -2.1949  0.5766  0.6382
 1003MOL0     H32377   6.047   8.081   1.217  0.0395 -0.0893 -0.4753
 1003MOL0     H32378   6.086   8.838   0.794  1.3425 -1.8852 -3.6944
 1003MOL0     H32379   6.048   9.092   0.749  0.4985  0.5112  0.2414
 1003MOL0     H32380   6.256   9.456   0.559  1.8330  3.0969 -4.6109
 1003MOL0     H32381   6.321   9.689   0.483  1.1599  3.6488 -0.3559
 1003MOL0     H32382   7.553   8.488   0.548  1.9966  2.8618  2.0290
 1003MOL0     H32383   7.658   8.311   0.391  1.9882 -0.3984 -0.9107
 1003MOL0     H32384   8.148   8.366  -0.044  0.0460 -0.9204  1.4836
 1003MOL0     H32385   8.186   8.220  -0.237  0.5191  1.7399  1.6829
 1003MOL0     H32386   7.978   7.845  -0.433 -4.0878  0.4364 -0.2727
 1003MOL0     H32387   7.860   7.893  -0.314  0.0219  1.2058 -0.6193
 1003MOL0     H32388   8.032   7.808  -0.146  2.5265 -0.9276  0.3449
 1003MOL0     H32389   7.950   7.691  -0.243  1.2937  0.4169  0.6975
 1003MOL0     H32390   8.205   7.799  -0.374  1.7429 -0.2962  0.0871
 1003MOL0     H32391   8.135   7.634  -0.368  2.5379 -1.9971  2.8903
 1003MOL0     H32392   8.345   7.642  -0.248  0.4143 -2.3383  1.6946
 1003MOL0     H32393   8.276   7.756  -0.140  0.2472 -1.4960  2.2100
 1003MOL0     H32394   8.134   7.362  -0.033  0.4807 -0.6403 -0.9625
 1003MOL0     H32395   7.814   8.010  -0.142  0.0584  0.1967  1.6715
 1003MOL0     H32396   7.785   8.144   0.040  1.5034  0.4246  0.0873
 1004MOL0     O32397   0.311   9.709   2.635 -0.1563 -0.0666  0.6992
 1004MOL0     C32398   0.260   9.664   2.733  0.5342 -0.9742  0.3601
 1004MOL0     O32399   0.295   9.707   2.864  0.6209  0.9114  0.4733
 1004MOL0     C32400   0.403   9.803   2.867 -0.7678  0.4831  0.9892
 1004MOL0     C32401   0.539   9.768   2.857  0.2445 -0.4326  0.3281
 1004MOL0     C32402   0.635   9.862   2.872  0.9303  1.6187  0.3214
 1004MOL0     C32403   0.603   9.996   2.886 -0.9164 -0.6611 -0.5826
 1004MOL0     O32404   0.709  10.083   2.902  0.0305 -0.5725  1.0125
 1004MOL0     C32405   0.744  10.165   2.787  0.3464  0.3477  1.1610
 1004MOL0     C32406   0.815  10.287   2.835 -0.2747 -0.9000  0.0080
 1004MOL0     C32407   0.870  10.377   2.721 -0.1237  0.4785 -1.2747
 1004MOL0     C32408   0.921  10.515   2.773 -0.1299  0.2529 -1.0418
 1004MOL0     C32409   1.055  10.500   2.851 -0.1552 -0.4890 -0.2332
 1004MOL0     C32410   1.081  10.624   2.926 -0.5026  0.6235  0.0205
 1004MOL0     C32411   1.136  10.733   2.841 -0.4582  0.5505  0.3050
 1004MOL0     C32412   1.175  10.863   2.922  0.3234  0.2627 -0.1951
 1004MOL0     N32413   1.255  10.959   2.840 -0.2151  0.4974  0.6726
 1004MOL0     C32414   1.222  10.997   2.706  0.1659  0.4563 -0.3233
 1004MOL0     C32415   1.304  11.099   2.678 -0.6238 -0.5103 -0.9496
 1004MOL0     C32416   1.319  11.177   2.549  0.4111 -0.4156 -0.8088
 1004MOL0     C32417   1.257  11.318   2.571 -0.0266 -0.2072  0.3776
 1004MOL0     C32418   1.110  11.309   2.558  0.3610 -0.0518  1.2816
 1004MOL0     C32419   1.035  11.370   2.668  0.9967  0.2260 -0.0994
 1004MOL0     O32420   0.894  11.330   2.674 -0.0568 -0.7390 -0.2421
 1004MOL0     C32421   0.806  11.374   2.577 -0.1033 -0.3418 -0.6676
 1004MOL0     C32422   0.789  11.298   2.468 -0.0742 -1.2992 -0.4520
 1004MOL0     C32423   0.700  11.331   2.368 -0.4437  0.1674 -0.0749
 1004MOL0     C32424   0.622  11.444   2.375 -0.9239  0.5296 -0.2579
 1004MOL0     C32425   0.543  11.489   2.263  0.2121  0.1795 -0.5179
 1004MOL0     O32426   0.483  11.606   2.279 -0.2281 -0.0724  0.2826
 1004MOL0     C32427   0.409  11.661   2.174 -0.2826  0.2218  0.0246
 1004MOL0     C32428   0.413  11.635   2.036 -0.4221 -0.6028  1.2066
 1004MOL0     C32429   0.325  11.702   1.943  0.4730  0.0585  0.5685
 1004MOL0     C32430   0.237  11.804   1.995 -0.4673  1.0957 -0.6039
 1004MOL0     O32431   0.152  11.869   1.909  0.1074 -0.2860 -0.1893
 1004MOL0     C32432   0.106  11.995   1.956 -0.2815  0.0825 -0.3744
 1004MOL0     C32433  -0.027  11.963   2.022 -0.1013 -0.1504 -0.5492
 1004MOL0     C32434  -0.115  11.860   1.957 -0.6252 -0.1626  0.0798
 1004MOL0     C32435  -0.223  11.827   2.065 -0.7640 -0.3959  0.2714
 1004MOL0     C32436  -0.343  11.779   2.001  0.3658  1.0075  0.0876
 1004MOL0     C32437  -0.464  11.792   2.094  0.2655 -0.0106 -0.4815
 1004MOL0     C32438  -0.458  11.739   2.242  0.2710 -0.7275  0.9747
 1004MOL0     C32439  -0.406  11.593   2.239 -0.6424  1.1353 -0.2497
 1004MOL0    Cl32440  -0.539  11.494   2.166 -0.1103  0.4290 -0.2875
 1004MOL0     C32441   0.232  11.820   2.130 -0.1595  0.1339  0.0551
 1004MOL0     C32442   0.313  11.753   2.218  1.1883  0.4963 -0.2790
 1004MOL0     O32443   0.536  11.410   2.173 -0.5820 -0.6983  0.5477
 1004MOL0     C32444   0.636  11.522   2.494  0.5452 -0.2112 -0.2133
 1004MOL0     C32445   0.724  11.483   2.591 -0.9947 -0.9193 -0.2592
 1004MOL0     N32446   1.366  11.129   2.801  0.7628 -0.2555  0.2746
 1004MOL0     N32447   1.335  11.056   2.897  0.4019  0.2140 -0.3112
 1004MOL0     C32448   0.462  10.031   2.903  0.4569  0.8668  0.9305
 1004MOL0     C32449   0.368   9.933   2.889  0.0688  0.0928 -0.1529
 1004MOL0     C32450   0.127   9.593   2.715 -0.3864 -0.1764  0.8727
 1004MOL0     C32451   0.067   9.534   2.821 -0.5748  0.0745 -0.2262
 1004MOL0     C32452  -0.067   9.502   2.817  0.7918  0.8703  0.7993
 1004MOL0     C32453  -0.139   9.495   2.698  1.1095 -0.2486  0.1678
 1004MOL0     O32454  -0.261   9.432   2.691  0.2849  0.8980  0.3175
 1004MOL0     C32455  -0.279   9.337   2.584  0.6909  0.1880 -0.0656
 1004MOL0     C32456  -0.381   9.385   2.480 -0.7671 -0.1221 -0.0707
 1004MOL0     C32457  -0.518   9.411   2.530 -0.0817  0.5890 -0.5487
 1004MOL0     C32458  -0.621   9.378   2.432  0.4145  0.1903 -0.7711
 1004MOL0     C32459  -0.650   9.231   2.427 -0.2506  0.2747  0.3981
 1004MOL0     C32460  -0.665   9.111   2.400  0.0194  0.1001 -0.3539
 1004MOL0     C32461  -0.070   9.548   2.587 -0.1542 -1.0147  0.3029
 1004MOL0     C32462   0.056   9.604   2.593 -0.9049  0.7191  0.8211
 1004MOL0     H32463   0.560   9.661   2.853  0.9018 -0.3346  0.9895
 1004MOL0     H32464   0.738   9.831   2.859  1.6821  2.9959  2.4728
 1004MOL0     H32465   0.662  10.182   2.717  0.0253  0.7601  1.6285
 1004MOL0     H32466   0.817  10.106   2.732  0.0068  0.9118  0.0745
 1004MOL0     H32467   0.906  10.249   2.882 -0.6666  0.4760  1.9653
 1004MOL0     H32468   0.750  10.349   2.897  0.3626  2.2056 -2.2192
 1004MOL0     H32469   0.787  10.390   2.652 -0.3697  1.5129 -0.8125
 1004MOL0     H32470   0.956  10.330   2.673  0.8845 -1.3100  1.9797
 1004MOL0     H32471   0.927  10.584   2.689  0.3551 -2.1898 -3.1462
 1004MOL0     H32472   0.834  10.549   2.831 -0.6720 -3.7006  0.8238
 1004MOL0     H32473   1.126  10.464   2.776  0.1888 -0.3278  0.0143
 1004MOL0     H32474   1.044  10.418   2.923 -0.3726  0.1979  0.5349
 1004MOL0     H32475   1.155  10.615   3.005  1.7811  3.2420 -1.6050
 1004MOL0     H32476   0.985  10.656   2.968 -0.8536 -1.4509  0.8881
 1004MOL0     H32477   1.232  10.692   2.807  0.1226  2.5164 -0.5823
 1004MOL0     H32478   1.072  10.769   2.759  0.7778  2.3565  0.0582
 1004MOL0     H32479   1.232  10.827   3.008  2.2854  0.7290 -1.2521
 1004MOL0     H32480   1.096  10.923   2.968  0.8383  0.8742 -0.0929
 1004MOL0     H32481   1.154  10.948   2.637 -1.4997  0.4987  1.2096
 1004MOL0     H32482   1.263  11.123   2.473 -0.6837  0.7296 -0.8620
 1004MOL0     H32483   1.424  11.176   2.518  0.2234 -2.7379 -1.4941
 1004MOL0     H32484   1.296  11.382   2.491 -3.4865 -0.4487 -1.6953
 1004MOL0     H32485   1.292  11.356   2.668 -1.7685 -2.0349  1.8087
 1004MOL0     H32486   1.083  11.357   2.464 -0.8827  2.3293  2.7730
 1004MOL0     H32487   1.077  11.204   2.559  0.0357  0.0502  1.2868
 1004MOL0     H32488   1.048  11.479   2.661 -0.8159  0.6062  1.6221
 1004MOL0     H32489   1.087  11.338   2.759 -2.7651 -5.4570  0.5185
 1004MOL0     H32490   0.829  11.198   2.460 -2.0332 -2.2669  1.1128
 1004MOL0     H32491   0.694  11.265   2.283  3.0516 -1.2166  0.5562
 1004MOL0     H32492   0.486  11.564   1.999 -2.1420 -1.9998  0.3427
 1004MOL0     H32493   0.331  11.690   1.835  3.9235 -0.4949  0.7036
 1004MOL0     H32494   0.090  12.053   1.865 -0.0771 -1.0933 -1.1644
 1004MOL0     H32495   0.161  12.042   2.039 -1.7430 -3.2364  2.7879
 1004MOL0     H32496  -0.081  12.057   2.035  0.2850  0.2321 -1.6420
 1004MOL0     H32497  -0.018  11.937   2.128 -1.4072  2.6838  0.3618
 1004MOL0     H32498  -0.063  11.767   1.931 -0.8679 -0.2235 -0.2022
 1004MOL0     H32499  -0.147  11.907   1.864 -0.2834  0.3972  0.2456
 1004MOL0     H32500  -0.194  11.759   2.146 -0.9505  1.0187  1.5715
 1004MOL0     H32501  -0.246  11.919   2.119 -1.7867 -0.4279 -0.0917
 1004MOL0     H32502  -0.335  11.674   1.971  0.4515  0.4156  2.0231
 1004MOL0     H32503  -0.369  11.825   1.905  0.0092 -0.1957 -0.4221
 1004MOL0     H32504  -0.559  11.753   2.055 -0.8024  0.4500  1.4723
 1004MOL0     H32505  -0.472  11.901   2.089 -0.9509 -0.0907 -0.7099
 1004MOL0     H32506  -0.409  11.808   2.312  1.0378  1.3705 -1.4324
 1004MOL0     H32507  -0.562  11.736   2.274  0.2604  0.2310  1.0784
 1004MOL0     H32508  -0.379  11.558   2.339 -2.6168 -2.2218 -0.7068
 1004MOL0     H32509  -0.313  11.589   2.183  0.2375  2.1669  1.0918
 1004MOL0     H32510   0.168  11.890   2.184  1.1176  1.6015 -0.2365
 1004MOL0     H32511   0.311  11.768   2.326 -1.2098 -0.3061 -0.1455
 1004MOL0     H32512   0.574  11.611   2.503 -0.9276 -0.9269 -2.5013
 1004MOL0     H32513   0.712  11.535   2.686  0.4520 -3.9826  1.7465
 1004MOL0     H32514   0.432  10.131   2.930  1.0119  1.2744  0.0877
 1004MOL0     H32515   0.262   9.952   2.880  0.1048  1.7688  1.9950
 1004MOL0     H32516   0.118   9.529   2.917 -3.2665  2.2947  1.4777
 1004MOL0     H32517  -0.128   9.469   2.901 -2.3298 -0.7355 -1.8785
 1004MOL0     H32518  -0.317   9.244   2.625 -0.0221  0.1661 -0.7409
 1004MOL0     H32519  -0.187   9.310   2.531  0.0974  1.9618 -2.1634
 1004MOL0     H32520  -0.339   9.480   2.445 -2.0502  0.4305 -0.1569
 1004MOL0     H32521  -0.380   9.321   2.392  3.1706  0.6029 -0.7346
 1004MOL0     H32522  -0.529   9.518   2.548 -2.5680 -0.0799  2.9923
 1004MOL0     H32523  -0.537   9.349   2.618 -3.2218  1.0257 -0.8213
 1004MOL0     H32524  -0.718   9.422   2.457 -0.8660 -2.1692 -1.2621
 1004MOL0     H32525  -0.584   9.420   2.338 -3.7054  3.2375 -1.2975
 1004MOL0     H32526  -0.656   9.008   2.370 -1.0206  0.2198 -1.1293
 1004MOL0     H32527  -0.126   9.546   2.494 -1.5044  0.2318  1.0501
 1004MOL0     H32528   0.092   9.662   2.509  0.5935 -0.2202  0.7862
 1005MOL0     O32529   7.777   6.651   7.189  0.5935 -0.6258 -0.3505
 1005MOL0     C32530   7.835   6.593   7.278 -1.2535 -0.2090 -0.6357
 1005MOL0     O32531   7.781   6.534   7.388  0.5131  0.8638 -0.0539
 1005MOL0     C32532   7.674   6.582   7.467  1.1459  0.5314  0.0061
 1005MOL0     C32533   7.599   6.493   7.534  0.7780  0.5781 -0.5498
 1005MOL0     C32534   7.493   6.525   7.617 -0.1530  0.2999 -0.1958
 1005MOL0     C32535   7.451   6.659   7.622 -0.1846 -0.0958 -0.0541
 1005MOL0     O32536   7.362   6.692   7.717  0.6736  0.3135 -0.3872
 1005MOL0     C32537   7.343   6.829   7.760  0.2893  1.0525 -0.3463
 1005MOL0     C32538   7.250   6.828   7.887 -0.0029  0.1330  0.0794
 1005MOL0     C32539   7.236   6.975   7.928 -0.2413  0.1391 -0.9179
 1005MOL0     C32540   7.212   7.001   8.074  0.0681  0.6922 -1.6447
 1005MOL0     C32541   7.320   6.945   8.170 -0.0257  0.0427 -0.0190
 1005MOL0     C32542   7.463   7.003   8.137  0.7158 -0.2549 -0.9613
 1005MOL0     C32543   7.482   7.157   8.113 -1.2546 -0.4627  0.2382
 1005MOL0     C32544   7.630   7.196   8.074 -0.3797  0.2620 -0.9092
 1005MOL0     N32545   7.720   7.187   8.184  0.3898  0.2849  0.4810
 1005MOL0     C32546   7.706   7.266   8.305 -1.0351 -0.6412  1.3123
 1005MOL0     C32547   7.811   7.225   8.389  0.3553 -0.2098  0.7677
 1005MOL0     C32548   7.854   7.283   8.527  0.5672 -0.0092 -0.1757
 1005MOL0     C32549   7.783   7.422   8.541  0.0961 -0.1803 -0.6323
 1005MOL0     C32550   7.859   7.486   8.656  1.3022 -0.4016  0.0388
 1005MOL0     C32551   7.794   7.620   8.691 -0.7662 -0.4273  0.0628
 1005MOL0     O32552   7.658   7.609   8.751 -0.5876 -0.4661 -0.3382
 1005MOL0     C32553   7.587   7.718   8.729  1.2087  0.2081 -0.5360
 1005MOL0     C32554   7.449   7.700   8.716 -0.4656 -0.2777 -0.7970
 1005MOL0     C32555   7.365   7.810   8.688 -1.0707 -0.7708 -0.6329
 1005MOL0     C32556   7.411   7.938   8.678 -0.3093  0.3703 -0.9167
 1005MOL0     C32557   7.308   8.042   8.662  0.3010  0.1962  0.1177
 1005MOL0     O32558   7.354   8.166   8.654 -0.3469  0.1940  0.2545
 1005MOL0     C32559   7.281   8.285   8.630  0.6000 -0.7916  1.1026
 1005MOL0     C32560   7.306   8.413   8.703  0.4230 -0.4772  1.2580
 1005MOL0     C32561   7.236   8.529   8.653  0.4677 -0.4710  0.5810
 1005MOL0     C32562   7.163   8.525   8.540 -0.1993  0.1616  0.1274
 1005MOL0     O32563   7.113   8.646   8.491 -0.3294 -0.2873  0.2397
 1005MOL0     C32564   7.129   8.659   8.347 -0.3371  0.3309  0.5053
 1005MOL0     C32565   7.135   8.804   8.305  0.2493  0.6719 -0.5701
 1005MOL0     C32566   7.230   8.830   8.190 -0.9998 -0.5625 -0.5788
 1005MOL0     C32567   7.246   8.978   8.164  1.1009 -0.1360  0.1538
 1005MOL0     C32568   7.315   9.068   8.270  0.0475 -0.6729 -0.0603
 1005MOL0     C32569   7.365   9.198   8.209 -0.2368  0.0915 -0.5361
 1005MOL0     C32570   7.501   9.198   8.138 -0.5408 -0.4250  0.8784
 1005MOL0     C32571   7.567   9.327   8.132 -0.2982  0.7400 -0.7059
 1005MOL0    Cl32572   7.449   9.444   8.067 -0.2140 -0.7482  0.8358
 1005MOL0     C32573   7.153   8.402   8.467  1.1424 -0.2127  0.6640
 1005MOL0     C32574   7.197   8.291   8.523 -0.5754 -1.2531 -0.4958
 1005MOL0     O32575   7.190   8.013   8.663 -0.0638 -1.1373 -0.2315
 1005MOL0     C32576   7.548   7.960   8.697  0.0993  0.6074  0.4275
 1005MOL0     C32577   7.635   7.849   8.723  0.2114  1.1857 -0.5354
 1005MOL0     N32578   7.873   7.124   8.315 -0.2314  0.6309  0.0552
 1005MOL0     N32579   7.830   7.106   8.198  0.0686 -0.4109  0.0426
 1005MOL0     C32580   7.513   6.753   7.535 -0.6493 -0.2265  0.0072
 1005MOL0     C32581   7.625   6.707   7.457 -0.1470  0.0046 -1.3353
 1005MOL0     C32582   7.981   6.580   7.272  0.4465 -0.6879 -0.3602
 1005MOL0     C32583   8.056   6.517   7.374  0.7595 -0.8663 -1.5614
 1005MOL0     C32584   8.192   6.494   7.366 -1.2815 -1.3704 -0.1671
 1005MOL0     C32585   8.261   6.536   7.249  0.6140 -0.6352  0.2309
 1005MOL0     O32586   8.396   6.505   7.240 -0.5872  0.4699 -0.0376
 1005MOL0     C32587   8.484   6.553   7.130  0.4261  0.3906  0.6507
 1005MOL0     C32588   8.626   6.510   7.171  0.5340 -0.2144  0.8011
 1005MOL0     C32589   8.709   6.520   7.049 -0.4353 -0.5035  0.2972
 1005MOL0     C32590   8.855   6.482   7.082 -0.2056  0.8982 -0.4503
 1005MOL0     C32591   8.852   6.332   7.118 -0.1858 -0.6716  1.0255
 1005MOL0     C32592   8.858   6.219   7.159 -0.3375 -0.5803 -0.2989
 1005MOL0     C32593   8.187   6.605   7.145 -0.3117 -0.7500  0.2047
 1005MOL0     C32594   8.048   6.629   7.159 -0.4709 -0.5393  0.7536
 1005MOL0     H32595   7.648   6.397   7.541 -1.1253 -0.3974 -0.0436
 1005MOL0     H32596   7.442   6.456   7.684 -0.0200  0.6446  0.2670
 1005MOL0     H32597   7.285   6.885   7.686  1.0225  1.6393 -0.4817
 1005MOL0     H32598   7.435   6.884   7.776  0.6832  0.9163 -1.9138
 1005MOL0     H32599   7.289   6.753   7.957 -0.3103 -4.7101 -4.2964
 1005MOL0     H32600   7.156   6.780   7.858  0.5217 -0.3172 -0.9631
 1005MOL0     H32601   7.153   7.018   7.871 -0.3585  1.6754  0.3578
 1005MOL0     H32602   7.329   7.026   7.904  0.3135 -1.6310 -2.8402
 1005MOL0     H32603   7.210   7.110   8.080 -0.2036  0.5951  1.6175
 1005MOL0     H32604   7.113   6.965   8.101 -0.1474  3.0591  1.2408
 1005MOL0     H32605   7.317   6.836   8.167 -2.1825  0.0632 -2.6873
 1005MOL0     H32606   7.293   6.966   8.274  0.0540  0.3193 -0.0520
 1005MOL0     H32607   7.491   6.955   8.042  0.3870  0.6689 -1.5398
 1005MOL0     H32608   7.533   6.969   8.214  1.9672  0.9919 -1.5047
 1005MOL0     H32609   7.428   7.211   8.035 -0.5270 -0.9102 -0.5905
 1005MOL0     H32610   7.467   7.211   8.207 -0.3208 -0.1759  0.2341
 1005MOL0     H32611   7.632   7.300   8.041 -0.4870  0.0472 -1.6052
 1005MOL0     H32612   7.669   7.135   7.992  1.2331  2.4546 -1.8638
 1005MOL0     H32613   7.644   7.352   8.326  1.7889  1.1848  2.9074
 1005MOL0     H32614   7.962   7.288   8.517  0.9828 -1.2230  2.8877
 1005MOL0     H32615   7.821   7.198   8.587  1.2400 -0.1151  0.0504
 1005MOL0     H32616   7.677   7.412   8.564 -0.6923  3.4126 -2.0555
 1005MOL0     H32617   7.785   7.474   8.444  1.3239  0.9044 -0.0481
 1005MOL0     H32618   7.862   7.417   8.740 -1.8902 -6.1368 -3.9091
 1005MOL0     H32619   7.963   7.505   8.625  0.8896  0.2349 -1.0482
 1005MOL0     H32620   7.787   7.684   8.603  0.6056 -0.2114  0.0886
 1005MOL0     H32621   7.865   7.665   8.763  0.1161 -0.6812 -0.6332
 1005MOL0     H32622   7.410   7.599   8.710  0.3056 -0.6786  0.4968
 1005MOL0     H32623   7.257   7.804   8.685 -1.3978  2.2528  1.2928
 1005MOL0     H32624   7.364   8.413   8.795 -1.8495  2.4128  2.8202
 1005MOL0     H32625   7.240   8.626   8.703 -1.0960  1.1559 -2.2202
 1005MOL0     H32626   7.043   8.610   8.300 -2.4886 -0.3067  4.6167
 1005MOL0     H32627   7.210   8.598   8.307 -2.8661 -2.5032 -0.6954
 1005MOL0     H32628   7.154   8.864   8.394  3.0815 -2.4128  1.1522
 1005MOL0     H32629   7.033   8.816   8.268  0.2072  0.3828 -0.5545
 1005MOL0     H32630   7.194   8.769   8.106 -1.4599 -2.9562  1.2293
 1005MOL0     H32631   7.324   8.788   8.228 -2.5520 -1.5390  2.5498
 1005MOL0     H32632   7.301   8.996   8.071 -0.4962 -1.2993 -1.0714
 1005MOL0     H32633   7.147   9.019   8.145  0.9546 -0.7994 -0.5675
 1005MOL0     H32634   7.400   9.009   8.305 -0.5553 -0.5019  1.7878
 1005MOL0     H32635   7.248   9.079   8.355 -0.1440 -1.8169 -0.0428
 1005MOL0     H32636   7.366   9.273   8.289  1.9524  0.3481 -0.7485
 1005MOL0     H32637   7.287   9.232   8.141 -1.8367  0.0199  1.1738
 1005MOL0     H32638   7.567   9.130   8.193  2.7070 -1.5451 -3.7912
 1005MOL0     H32639   7.493   9.163   8.034  0.0892  0.5441  0.4867
 1005MOL0     H32640   7.652   9.311   8.067  0.3956 -0.3666  0.4262
 1005MOL0     H32641   7.590   9.361   8.234  2.3411  2.8188 -1.9016
 1005MOL0     H32642   7.106   8.409   8.370  3.3911  1.3737 -0.4104
 1005MOL0     H32643   7.201   8.205   8.456 -2.4767 -1.9074  0.1558
 1005MOL0     H32644   7.604   8.053   8.697  1.7961 -0.3495 -0.6597
 1005MOL0     H32645   7.738   7.880   8.738 -0.2043  2.2539  0.1809
 1005MOL0     H32646   7.492   6.859   7.527 -0.1277 -0.1380 -0.2257
 1005MOL0     H32647   7.675   6.771   7.385 -2.1630 -0.1728 -2.9732
 1005MOL0     H32648   7.996   6.486   7.458 -0.5580  0.3249 -2.0238
 1005MOL0     H32649   8.248   6.453   7.449 -0.6226  0.6308  0.4299
 1005MOL0     H32650   8.483   6.662   7.125 -1.1820  0.3781  0.3356
 1005MOL0     H32651   8.439   6.511   7.039 -1.9746 -1.6380  2.6265
 1005MOL0     H32652   8.655   6.566   7.261 -1.2969 -2.3857  2.8907
 1005MOL0     H32653   8.622   6.405   7.202 -0.8367  0.1216  1.8633
 1005MOL0     H32654   8.702   6.617   7.000 -0.8154 -2.0767 -3.0069
 1005MOL0     H32655   8.671   6.455   6.970 -3.2369  0.5547  0.6705
 1005MOL0     H32656   8.932   6.501   7.007  2.9676  2.0625  2.8414
 1005MOL0     H32657   8.891   6.537   7.169 -1.0984  1.4599 -0.4241
 1005MOL0     H32658   8.854   6.115   7.188 -5.1708 -0.7567 -0.8674
 1005MOL0     H32659   8.227   6.638   7.050 -0.7589  1.0387  0.5866
 1005MOL0     H32660   8.000   6.677   7.074  0.4335 -1.4258 -0.2935
 1006MOL0     O32661   1.419   5.008   1.366  0.6820  1.1787 -0.8756
 1006MOL0     C32662   1.360   5.085   1.448 -0.5883 -0.9228 -0.2187
 1006MOL0     O32663   1.236   5.065   1.499  0.1429 -0.1067 -0.5322
 1006MOL0     C32664   1.168   4.947   1.478 -0.2531  0.4839 -0.5370
 1006MOL0     C32665   1.235   4.817   1.472  0.9179  0.4011 -0.0460
 1006MOL0     C32666   1.163   4.707   1.430 -1.5160 -0.0767  1.1345
 1006MOL0     C32667   1.028   4.711   1.399  0.5830 -0.3002 -0.5940
 1006MOL0     O32668   0.961   4.601   1.355  0.8810  0.4316  0.0831
 1006MOL0     C32669   0.945   4.603   1.220 -0.4590  0.6886  0.1712
 1006MOL0     C32670   0.803   4.543   1.194 -1.1871 -0.8035  0.0056
 1006MOL0     C32671   0.749   4.565   1.051  0.0601  0.0633 -0.3077
 1006MOL0     C32672   0.700   4.710   1.019  0.1346  0.2328 -0.2226
 1006MOL0     C32673   0.680   4.710   0.864  0.4608 -1.4056  0.0818
 1006MOL0     C32674   0.668   4.858   0.800 -0.1464 -0.1829  0.3795
 1006MOL0     C32675   0.524   4.906   0.805  0.0405  0.0921  0.4123
 1006MOL0     C32676   0.482   4.935   0.943 -0.5734 -0.1705  0.5378
 1006MOL0     N32677   0.368   5.029   0.946 -0.4147  0.7583  0.4422
 1006MOL0     C32678   0.366   5.171   0.976 -0.5842 -0.1165  1.1423
 1006MOL0     C32679   0.240   5.211   0.940 -0.3301 -0.2572  0.0654
 1006MOL0     C32680   0.174   5.355   0.941 -0.3817 -1.2049 -0.6547
 1006MOL0     C32681   0.263   5.473   0.984 -0.4692  0.5120 -0.1874
 1006MOL0     C32682   0.344   5.511   0.868 -0.8816 -0.2648 -1.1230
 1006MOL0     C32683   0.460   5.607   0.894 -0.1970  0.8612  0.6883
 1006MOL0     O32684   0.529   5.577   1.019  0.0215  1.0854 -0.6225
 1006MOL0     C32685   0.624   5.481   1.019  0.3851 -0.6567 -1.0493
 1006MOL0     C32686   0.646   5.424   1.146  0.6699 -0.0967  1.1689
 1006MOL0     C32687   0.745   5.321   1.165  0.0328  0.7445  0.4456
 1006MOL0     C32688   0.806   5.266   1.055 -0.3062  0.4220  0.3816
 1006MOL0     C32689   0.909   5.164   1.073 -0.0460 -0.0685 -0.8315
 1006MOL0     O32690   0.968   5.108   0.959 -0.2444  0.0234 -0.7562
 1006MOL0     C32691   1.070   5.011   0.966  0.8573  0.0070 -0.4184
 1006MOL0     C32692   1.154   5.000   1.085 -0.0906 -0.5953  0.4797
 1006MOL0     C32693   1.249   4.891   1.090  0.1102 -0.6085 -0.5866
 1006MOL0     C32694   1.271   4.815   0.970 -0.2725 -0.0520 -0.7153
 1006MOL0     O32695   1.383   4.738   0.982 -0.5194 -0.1492  0.0618
 1006MOL0     C32696   1.433   4.666   0.869  0.1860 -0.0581  0.4750
 1006MOL0     C32697   1.578   4.607   0.897  0.0182  0.1596  0.9809
 1006MOL0     C32698   1.642   4.549   0.774 -0.1673  0.2692  0.2466
 1006MOL0     C32699   1.567   4.435   0.704 -0.6032 -0.0967 -0.2137
 1006MOL0     C32700   1.561   4.297   0.785  0.2127  0.9885 -0.1622
 1006MOL0     C32701   1.547   4.185   0.682  0.6093 -0.1675 -0.0650
 1006MOL0     C32702   1.403   4.175   0.618  0.0193 -0.5779  0.1016
 1006MOL0     C32703   1.285   4.190   0.727 -0.4054 -0.1758  0.1591
 1006MOL0    Cl32704   1.311   4.075   0.866  0.4107 -0.3457 -0.2642
 1006MOL0     C32705   1.200   4.830   0.859 -0.1991 -0.2937  0.8689
 1006MOL0     C32706   1.094   4.926   0.855 -1.0435 -0.0885  0.1466
 1006MOL0     O32707   0.930   5.131   1.187 -0.9249  0.7587 -0.0528
 1006MOL0     C32708   0.775   5.314   0.923 -0.4950  0.2035  0.5545
 1006MOL0     C32709   0.691   5.424   0.913  0.4638  0.1252 -0.4149
 1006MOL0     N32710   0.180   5.102   0.878 -0.6234  0.0284  0.5907
 1006MOL0     N32711   0.253   4.990   0.892  0.3159  0.4880  0.6835
 1006MOL0     C32712   0.959   4.837   1.407 -0.4095  1.0062 -0.3100
 1006MOL0     C32713   1.026   4.951   1.452 -0.7913 -0.7367 -0.1248
 1006MOL0     C32714   1.437   5.200   1.499  1.4443  0.2045 -1.2798
 1006MOL0     C32715   1.569   5.214   1.465 -0.4937  0.3814  0.1461
 1006MOL0     C32716   1.635   5.332   1.506 -0.0028 -0.2817  0.1285
 1006MOL0     C32717   1.590   5.427   1.594  0.0347 -1.1305  0.5232
 1006MOL0     O32718   1.682   5.532   1.612 -0.5840 -0.3238 -0.9022
 1006MOL0     C32719   1.622   5.658   1.629 -0.5184  0.0954  0.4312
 1006MOL0     C32720   1.717   5.774   1.612  0.1652 -0.0388  1.0347
 1006MOL0     C32721   1.840   5.756   1.691 -1.0257 -0.3061  0.1129
 1006MOL0     C32722   1.935   5.878   1.691  0.1813 -0.1368 -0.3111
 1006MOL0     C32723   1.998   5.921   1.564  0.2797  1.1869 -0.5194
 1006MOL0     C32724   2.037   5.949   1.452  0.9679 -0.6598  0.0408
 1006MOL0     C32725   1.447   5.421   1.621  0.7293  0.0867  0.9380
 1006MOL0     C32726   1.375   5.303   1.574  0.0418  0.8190 -0.5910
 1006MOL0     H32727   1.337   4.798   1.503  0.9776  1.1291  0.2260
 1006MOL0     H32728   1.215   4.611   1.427  1.2124  1.3103 -0.2247
 1006MOL0     H32729   1.015   4.538   1.167 -2.5439 -2.5989  1.1518
 1006MOL0     H32730   0.952   4.706   1.184  0.2822  0.4348 -0.4471
 1006MOL0     H32731   0.747   4.615   1.255  1.4019  1.5078 -0.1293
 1006MOL0     H32732   0.788   4.444   1.236  4.9618 -0.5714  4.0207
 1006MOL0     H32733   0.663   4.498   1.047 -1.0419  1.4880 -3.1924
 1006MOL0     H32734   0.829   4.526   0.988  0.8172 -1.1723  1.3484
 1006MOL0     H32735   0.602   4.734   1.062 -0.4061  0.5424 -1.5680
 1006MOL0     H32736   0.770   4.786   1.053  0.8763 -0.1655 -0.8096
 1006MOL0     H32737   0.588   4.654   0.842 -0.6091  0.1387  0.4167
 1006MOL0     H32738   0.770   4.655   0.835  2.1670 -0.8114  3.7434
 1006MOL0     H32739   0.700   4.848   0.695  1.9344 -2.8202  1.1458
 1006MOL0     H32740   0.736   4.927   0.850 -1.2971  1.0808  0.2590
 1006MOL0     H32741   0.521   5.002   0.752  1.5621  0.0685  0.2348
 1006MOL0     H32742   0.455   4.834   0.759  0.3819  1.6260 -2.7726
 1006MOL0     H32743   0.565   4.987   0.991 -1.5124  1.1628  0.7888
 1006MOL0     H32744   0.439   4.844   0.988 -0.7281 -0.3581  0.0123
 1006MOL0     H32745   0.442   5.234   1.020  1.2231 -1.1543 -0.3323
 1006MOL0     H32746   0.087   5.338   1.005 -0.1683 -1.3457 -0.4001
 1006MOL0     H32747   0.134   5.378   0.842 -0.1783  1.9114 -0.1226
 1006MOL0     H32748   0.320   5.446   1.073  0.7143 -2.3188 -1.6774
 1006MOL0     H32749   0.195   5.552   1.019  1.0118  0.7202  2.4949
 1006MOL0     H32750   0.375   5.422   0.812  1.8668  1.7781 -3.0873
 1006MOL0     H32751   0.271   5.561   0.804 -2.0490 -1.8132 -1.0847
 1006MOL0     H32752   0.422   5.709   0.893  1.6401  1.5759 -0.6052
 1006MOL0     H32753   0.533   5.627   0.816  0.7043  1.2088  1.5940
 1006MOL0     H32754   0.594   5.471   1.229 -1.1956 -0.1236  0.0545
 1006MOL0     H32755   0.769   5.294   1.267 -1.3712  0.9844  0.8601
 1006MOL0     H32756   1.147   5.057   1.177 -0.2903  2.3721 -1.2466
 1006MOL0     H32757   1.316   4.889   1.175  0.1607 -0.4004 -0.6203
 1006MOL0     H32758   1.451   4.724   0.779  0.8852  1.3726  1.5000
 1006MOL0     H32759   1.360   4.585   0.857 -0.1900 -0.2487  3.2919
 1006MOL0     H32760   1.571   4.536   0.980 -2.2024 -0.5394  0.2780
 1006MOL0     H32761   1.635   4.694   0.930 -0.2164  1.2185 -1.1958
 1006MOL0     H32762   1.743   4.524   0.808  1.5870  5.9173  0.1551
 1006MOL0     H32763   1.647   4.630   0.701  0.8072 -0.1177 -0.1313
 1006MOL0     H32764   1.469   4.466   0.666  0.3249  1.9473 -1.0578
 1006MOL0     H32765   1.620   4.410   0.611 -2.6908 -1.6758 -1.0703
 1006MOL0     H32766   1.485   4.301   0.863  0.6508  0.3402  0.3085
 1006MOL0     H32767   1.657   4.283   0.837 -0.4753  1.3138  1.2581
 1006MOL0     H32768   1.567   4.095   0.739  1.2806  0.5757  0.8943
 1006MOL0     H32769   1.633   4.187   0.614  2.0825 -3.7086  1.4728
 1006MOL0     H32770   1.385   4.252   0.542  6.3933  0.3279 -1.0372
 1006MOL0     H32771   1.385   4.076   0.575  4.9570 -3.1164  2.9610
 1006MOL0     H32772   1.201   4.161   0.663  0.5816 -2.3111 -0.2507
 1006MOL0     H32773   1.272   4.297   0.747 -0.5992  0.1200 -1.3769
 1006MOL0     H32774   1.204   4.758   0.778 -3.5087  1.0603 -0.6801
 1006MOL0     H32775   1.024   4.943   0.774 -1.6968 -3.4640 -0.1138
 1006MOL0     H32776   0.820   5.277   0.832  1.3239 -0.9196  1.8445
 1006MOL0     H32777   0.660   5.453   0.814  0.7376 -0.9815 -0.8385
 1006MOL0     H32778   0.853   4.845   1.385 -0.8334 -0.6700  0.9777
 1006MOL0     H32779   0.975   5.046   1.462  1.8758  0.7268  0.7279
 1006MOL0     H32780   1.625   5.142   1.407 -3.3124 -1.4033 -0.5350
 1006MOL0     H32781   1.738   5.341   1.473 -0.0079 -1.6319 -0.3314
 1006MOL0     H32782   1.579   5.662   1.730  0.7348 -1.6529  1.0992
 1006MOL0     H32783   1.539   5.666   1.558  1.4106  0.9540 -1.8589
 1006MOL0     H32784   1.741   5.781   1.505 -1.7994  2.0830  0.6465
 1006MOL0     H32785   1.663   5.865   1.640  0.9364  1.4662 -1.8976
 1006MOL0     H32786   1.899   5.671   1.656 -2.1277 -1.1617  0.2681
 1006MOL0     H32787   1.813   5.741   1.796  2.1743 -0.6473  0.9768
 1006MOL0     H32788   1.876   5.962   1.727 -2.5101 -2.2822  0.6255
 1006MOL0     H32789   2.008   5.850   1.767 -0.7491  0.9724  1.0356
 1006MOL0     H32790   2.058   5.964   1.348 -0.5691  0.2054 -0.1743
 1006MOL0     H32791   1.400   5.497   1.682  0.7760  1.3228 -0.5242
 1006MOL0     H32792   1.272   5.289   1.606 -0.5825  1.2600 -2.2650
 1007MOL0     O32793   5.880   5.644   4.173  0.1107  0.2401  0.4754
 1007MOL0     C32794   5.809   5.594   4.088  0.4882  0.8558  0.5255
 1007MOL0     O32795   5.853   5.540   3.963 -0.9022 -0.3427  0.2017
 1007MOL0     C32796   5.983   5.556   3.927  0.2583 -0.1341  0.7416
 1007MOL0     C32797   6.018   5.640   3.820  0.4824  0.0844  1.0924
 1007MOL0     C32798   6.149   5.673   3.786  0.2213  1.3314  0.3045
 1007MOL0     C32799   6.249   5.633   3.878  0.4155  0.5033  0.2336
 1007MOL0     O32800   6.382   5.660   3.859  0.0086 -1.0509  0.1083
 1007MOL0     C32801   6.418   5.738   3.739  0.5663 -0.0805 -1.1145
 1007MOL0     C32802   6.570   5.728   3.706  0.6224  0.4347 -0.9532
 1007MOL0     C32803   6.644   5.785   3.831  0.0678 -0.3002 -0.1964
 1007MOL0     C32804   6.794   5.816   3.801  0.3697 -1.5266  0.5391
 1007MOL0     C32805   6.864   5.696   3.727 -0.7558 -0.4427 -0.4932
 1007MOL0     C32806   7.004   5.723   3.711 -0.2585  0.3608  0.6900
 1007MOL0     C32807   7.084   5.632   3.625  0.6213  0.6424  0.2135
 1007MOL0     C32808   7.095   5.491   3.690 -0.3665  0.6078 -0.3617
 1007MOL0     N32809   7.213   5.408   3.649  0.7846 -0.1804  1.0736
 1007MOL0     C32810   7.344   5.428   3.688 -0.1568 -0.2422  0.4767
 1007MOL0     C32811   7.410   5.316   3.649 -0.2358 -0.7701 -1.0969
 1007MOL0     C32812   7.557   5.292   3.671 -0.0551 -0.4317  0.4444
 1007MOL0     C32813   7.642   5.409   3.611 -0.5281 -0.4445  0.5152
 1007MOL0     C32814   7.618   5.414   3.462  0.5700 -0.1069  0.0511
 1007MOL0     C32815   7.668   5.290   3.386  1.0483 -0.4857 -0.3013
 1007MOL0     O32816   7.615   5.311   3.249 -0.2643 -0.1628  0.1662
 1007MOL0     C32817   7.658   5.221   3.151 -0.7072 -1.1397 -0.5527
 1007MOL0     C32818   7.769   5.133   3.170 -0.9929  0.5430  1.2455
 1007MOL0     C32819   7.799   5.043   3.073 -0.2779  0.1141  0.6003
 1007MOL0     C32820   7.731   5.035   2.948  0.5227 -0.2969  0.0516
 1007MOL0     C32821   7.767   4.936   2.840  0.3364  0.2277 -0.0470
 1007MOL0     O32822   7.681   4.928   2.738  0.0729 -0.6942  0.1866
 1007MOL0     C32823   7.628   4.802   2.722  0.0368  0.1037 -0.2954
 1007MOL0     C32824   7.566   4.734   2.826 -0.0888 -0.8740  0.0253
 1007MOL0     C32825   7.511   4.607   2.792 -0.0362 -0.6916 -0.1475
 1007MOL0     C32826   7.524   4.554   2.662 -0.3044  0.7497  0.4605
 1007MOL0     O32827   7.458   4.431   2.654 -1.0841 -0.1057 -0.4040
 1007MOL0     C32828   7.407   4.383   2.526 -1.0586 -0.0902 -0.7086
 1007MOL0     C32829   7.322   4.258   2.546  0.5655 -0.5527  0.5083
 1007MOL0     C32830   7.382   4.157   2.625 -0.2460 -0.2086 -0.7792
 1007MOL0     C32831   7.515   4.098   2.581 -0.2897 -0.4175 -0.1345
 1007MOL0     C32832   7.528   3.966   2.653 -0.6378 -0.5315 -0.1738
 1007MOL0     C32833   7.660   3.893   2.631 -0.0320  0.4342  0.6372
 1007MOL0     C32834   7.704   3.864   2.489 -0.1242  0.0793  0.6079
 1007MOL0     C32835   7.847   3.821   2.488 -0.4877 -0.0929 -0.1933
 1007MOL0    Cl32836   7.909   3.810   2.303 -0.0991  0.1663 -0.5682
 1007MOL0     C32837   7.589   4.627   2.561 -0.3162 -0.6088  0.4702
 1007MOL0     C32838   7.642   4.747   2.595  0.2231 -0.2156  0.0726
 1007MOL0     O32839   7.866   4.868   2.845 -0.1635  0.2819  0.0408
 1007MOL0     C32840   7.627   5.120   2.928 -0.0587 -0.8314 -0.3553
 1007MOL0     C32841   7.590   5.217   3.028 -0.2372 -0.3131 -0.2446
 1007MOL0     N32842   7.315   5.240   3.583  0.6322 -0.7283  0.0165
 1007MOL0     N32843   7.198   5.288   3.587  0.5482 -0.3205 -0.1870
 1007MOL0     C32844   6.213   5.531   3.979 -0.6579  0.5106 -0.1635
 1007MOL0     C32845   6.080   5.500   4.011  0.0323 -0.7553 -0.4165
 1007MOL0     C32846   5.659   5.576   4.128 -0.5378  0.3769 -0.5712
 1007MOL0     C32847   5.560   5.533   4.041 -0.8798  0.4472 -0.8250
 1007MOL0     C32848   5.428   5.522   4.084 -1.3218 -0.1559 -0.5365
 1007MOL0     C32849   5.380   5.556   4.208 -0.1820 -0.1306  0.0619
 1007MOL0     O32850   5.249   5.562   4.250  0.3435 -0.0616  0.0370
 1007MOL0     C32851   5.147   5.531   4.157 -0.4175 -0.5303  0.2082
 1007MOL0     C32852   5.115   5.384   4.165 -1.2217 -0.1958 -0.5624
 1007MOL0     C32853   5.034   5.320   4.051 -0.1951  1.3557  0.0636
 1007MOL0     C32854   4.886   5.299   4.060  0.4745 -0.0385 -0.1880
 1007MOL0     C32855   4.862   5.181   4.144 -0.2817 -0.0160 -0.3587
 1007MOL0     C32856   4.838   5.075   4.194 -0.3888 -0.0440 -0.0516
 1007MOL0     C32857   5.477   5.594   4.298 -0.2332  0.4997 -0.3297
 1007MOL0     C32858   5.616   5.600   4.270 -0.4309  0.2947 -0.5269
 1007MOL0     H32859   5.935   5.693   3.774 -0.1857  0.0709  2.2436
 1007MOL0     H32860   6.163   5.718   3.688 -0.6747 -1.6922 -1.3202
 1007MOL0     H32861   6.390   5.844   3.747 -1.9219 -0.5462 -2.6932
 1007MOL0     H32862   6.364   5.699   3.653 -1.3652 -2.2986  0.9662
 1007MOL0     H32863   6.590   5.767   3.606 -1.7603 -3.5942 -3.2686
 1007MOL0     H32864   6.577   5.619   3.697  0.0382  0.2496  0.6310
 1007MOL0     H32865   6.639   5.709   3.910 -1.1958 -1.4345 -1.2892
 1007MOL0     H32866   6.603   5.881   3.863 -0.9400  0.2286 -2.7533
 1007MOL0     H32867   6.811   5.906   3.742  1.9812 -1.9824  0.2317
 1007MOL0     H32868   6.848   5.838   3.893 -1.4626 -2.4222  1.8775
 1007MOL0     H32869   6.821   5.659   3.633  2.8694 -0.4383 -2.3383
 1007MOL0     H32870   6.861   5.621   3.806 -1.6178  1.3126  1.2217
 1007MOL0     H32871   7.054   5.724   3.809  0.2394 -1.8807  0.5120
 1007MOL0     H32872   7.024   5.821   3.666  0.9686 -0.6425 -1.0564
 1007MOL0     H32873   7.043   5.621   3.524  0.7817 -2.0495  0.3899
 1007MOL0     H32874   7.184   5.674   3.611  0.3514  1.4423  0.6124
 1007MOL0     H32875   6.998   5.441   3.684  0.4614 -1.6911  2.9167
 1007MOL0     H32876   7.115   5.511   3.796  1.4711  2.2959 -0.9417
 1007MOL0     H32877   7.385   5.518   3.733 -0.0607  1.4115 -2.6442
 1007MOL0     H32878   7.586   5.192   3.637 -1.6820 -1.5923  2.2689
 1007MOL0     H32879   7.565   5.290   3.781 -3.4750  1.3966  0.8638
 1007MOL0     H32880   7.748   5.411   3.638 -0.1900 -2.8062 -0.3595
 1007MOL0     H32881   7.604   5.498   3.661  1.7052  0.7677  0.1597
 1007MOL0     H32882   7.515   5.439   3.434 -0.2751 -1.6970  1.6025
 1007MOL0     H32883   7.675   5.505   3.441 -1.3688  1.1470 -0.0740
 1007MOL0     H32884   7.639   5.195   3.432  0.3265  0.7039  1.7998
 1007MOL0     H32885   7.777   5.290   3.384  1.0560 -1.3433 -2.4781
 1007MOL0     H32886   7.815   5.119   3.267 -0.4402  2.5600  1.3204
 1007MOL0     H32887   7.881   4.974   3.088  0.0294 -0.0235 -1.3959
 1007MOL0     H32888   7.559   4.777   2.925 -2.6716 -1.4503  0.1738
 1007MOL0     H32889   7.462   4.552   2.872  0.1501 -3.4310 -1.7755
 1007MOL0     H32890   7.490   4.368   2.457 -0.6320  1.8493 -0.6704
 1007MOL0     H32891   7.352   4.469   2.487  0.7260  2.2096  1.5246
 1007MOL0     H32892   7.290   4.212   2.453  0.9630  1.2658 -0.5748
 1007MOL0     H32893   7.230   4.297   2.591  1.1572 -0.0980  1.3662
 1007MOL0     H32894   7.312   4.078   2.653  0.2335 -0.2572  0.3389
 1007MOL0     H32895   7.402   4.202   2.723 -2.5399  3.6589 -1.8695
 1007MOL0     H32896   7.514   4.095   2.472 -0.5382  2.2321 -0.2603
 1007MOL0     H32897   7.604   4.149   2.619 -0.6148  0.6424 -0.7557
 1007MOL0     H32898   7.459   3.885   2.627 -1.4750 -0.5899  2.0517
 1007MOL0     H32899   7.508   3.980   2.759 -1.8131  0.4050 -0.4956
 1007MOL0     H32900   7.671   3.797   2.680 -0.1552  0.5592  0.9113
 1007MOL0     H32901   7.735   3.954   2.681  0.6250  1.9538 -2.0041
 1007MOL0     H32902   7.650   3.779   2.446  0.3903 -0.2586  0.6237
 1007MOL0     H32903   7.685   3.949   2.423  0.9505 -0.1072  0.0369
 1007MOL0     H32904   7.861   3.728   2.543  3.4832  1.3407  1.6480
 1007MOL0     H32905   7.902   3.897   2.544 -4.0040  0.3396  3.0730
 1007MOL0     H32906   7.594   4.604   2.455  0.0759 -0.3509  0.4297
 1007MOL0     H32907   7.692   4.805   2.519  0.3891  2.1581  1.8956
 1007MOL0     H32908   7.568   5.108   2.838  2.7969 -3.7632 -2.0449
 1007MOL0     H32909   7.500   5.271   2.999 -0.4756 -1.1539 -1.1180
 1007MOL0     H32910   6.294   5.499   4.044 -1.9127 -0.4261  1.0161
 1007MOL0     H32911   6.065   5.459   4.110 -0.8108  2.0859  0.7283
 1007MOL0     H32912   5.579   5.513   3.936 -2.8588 -1.6717 -0.8593
 1007MOL0     H32913   5.361   5.485   4.007 -0.5551 -0.0424 -1.2709
 1007MOL0     H32914   5.173   5.574   4.060 -2.1263  2.5164  0.9687
 1007MOL0     H32915   5.060   5.590   4.188 -0.4354 -1.1466  1.3937
 1007MOL0     H32916   5.212   5.337   4.151 -1.4798 -1.8123  2.2700
 1007MOL0     H32917   5.076   5.359   4.265 -0.5054  0.9961  0.0364
 1007MOL0     H32918   5.084   5.224   4.037  0.5280  1.8403 -0.7849
 1007MOL0     H32919   5.046   5.378   3.958  4.2013 -1.6921 -1.5851
 1007MOL0     H32920   4.834   5.387   4.100 -4.0922 -1.3707 -2.4813
 1007MOL0     H32921   4.832   5.269   3.970 -4.1520  1.5194  1.7476
 1007MOL0     H32922   4.810   4.990   4.252  1.4450 -0.3848  0.4066
 1007MOL0     H32923   5.447   5.609   4.401  1.8278 -0.1753  0.4231
 1007MOL0     H32924   5.684   5.616   4.353  0.2470 -2.0675 -0.5634
 1008MOL0     O32925   3.147   2.135   2.442  0.4699 -0.0020  0.1911
 1008MOL0     C32926   3.260   2.133   2.488  0.4231 -0.5276 -0.1282
 1008MOL0     O32927   3.312   2.217   2.587  0.4519  0.8088  0.6859
 1008MOL0     C32928   3.246   2.333   2.644 -0.1891 -0.8864 -0.0654
 1008MOL0     C32929   3.337   2.420   2.715  0.0763 -0.0539 -0.5415
 1008MOL0     C32930   3.289   2.545   2.755 -0.1728 -0.2298 -0.3901
 1008MOL0     C32931   3.155   2.579   2.762 -0.6041  1.6880  0.5298
 1008MOL0     O32932   3.123   2.696   2.823  0.3605 -0.3326 -0.0646
 1008MOL0     C32933   2.994   2.752   2.805 -0.5118  0.5938  0.1887
 1008MOL0     C32934   3.009   2.903   2.831 -0.3514  0.5606 -0.3511
 1008MOL0     C32935   2.881   2.964   2.889  0.4616  0.0140  0.5936
 1008MOL0     C32936   2.840   2.923   3.030  0.1622 -0.6456  0.5002
 1008MOL0     C32937   2.842   3.036   3.130 -0.2290  0.8297  0.5041
 1008MOL0     C32938   2.812   2.987   3.263  0.4898 -0.7937 -0.1187
 1008MOL0     C32939   2.888   2.871   3.307 -0.2768  0.5079 -0.1953
 1008MOL0     C32940   2.876   2.838   3.456  0.1444 -0.3105 -0.8782
 1008MOL0     N32941   2.952   2.714   3.482 -0.5743 -0.5501 -0.2034
 1008MOL0     C32942   3.078   2.718   3.534 -0.3834 -0.9659 -0.3573
 1008MOL0     C32943   3.109   2.587   3.554 -0.9568  0.1657  0.2032
 1008MOL0     C32944   3.237   2.537   3.618 -0.8760  0.2595 -0.7530
 1008MOL0     C32945   3.328   2.448   3.524  0.9637  0.2739 -0.6546
 1008MOL0     C32946   3.435   2.521   3.450 -0.5907 -0.9504  0.6409
 1008MOL0     C32947   3.541   2.551   3.551 -0.7592  0.4275  0.1319
 1008MOL0     O32948   3.520   2.679   3.609  0.0111 -0.2400  0.2088
 1008MOL0     C32949   3.553   2.792   3.534  0.5804  0.8368 -0.2373
 1008MOL0     C32950   3.613   2.795   3.408 -0.3600 -0.1309  0.3361
 1008MOL0     C32951   3.646   2.913   3.338 -0.8026 -0.1401 -0.8926
 1008MOL0     C32952   3.613   3.041   3.387 -0.2620 -0.3320  0.2958
 1008MOL0     C32953   3.622   3.161   3.303 -0.0463  0.2353 -0.2358
 1008MOL0     O32954   3.680   3.141   3.181  0.6465 -0.4460 -0.3512
 1008MOL0     C32955   3.689   3.253   3.100 -0.5766  1.0363 -0.4986
 1008MOL0     C32956   3.778   3.355   3.130  0.1877 -0.5814  0.3658
 1008MOL0     C32957   3.753   3.483   3.077 -0.7124 -0.2518 -0.3307
 1008MOL0     C32958   3.668   3.500   2.969  0.0661 -0.1097  0.4425
 1008MOL0     O32959   3.659   3.622   2.907  0.6827  0.0240 -0.2739
 1008MOL0     C32960   3.537   3.690   2.930  0.3021  0.5269  0.1609
 1008MOL0     C32961   3.564   3.798   3.032  0.3634  0.3459 -0.6751
 1008MOL0     C32962   3.476   3.915   3.018  0.2502  0.1913  0.3631
 1008MOL0     C32963   3.328   3.881   3.033  0.3214 -0.7424 -0.6739
 1008MOL0     C32964   3.238   4.001   2.986 -0.6755  1.1186  0.5452
 1008MOL0     C32965   3.269   4.128   3.056  0.6905 -0.3330 -0.2266
 1008MOL0     C32966   3.226   4.241   2.967  0.5142 -0.3734 -0.0598
 1008MOL0     C32967   3.076   4.269   2.961  0.0607  0.1033 -0.5842
 1008MOL0    Cl32968   3.038   4.438   2.900  0.9319 -0.5440 -0.1706
 1008MOL0     C32969   3.592   3.383   2.929 -0.6347 -0.7994 -0.1071
 1008MOL0     C32970   3.600   3.261   2.996 -0.2388  0.4602  0.2365
 1008MOL0     O32971   3.587   3.267   3.355  0.2148  0.2401 -0.1690
 1008MOL0     C32972   3.555   3.047   3.517 -1.0810  0.2838  1.0270
 1008MOL0     C32973   3.528   2.922   3.586 -0.2191 -0.6084  0.5417
 1008MOL0     N32974   2.997   2.511   3.526 -0.1491  0.2138 -0.5976
 1008MOL0     N32975   2.908   2.588   3.478 -0.0163 -0.8531 -0.8462
 1008MOL0     C32976   3.064   2.492   2.700  0.3590 -0.0823 -0.3850
 1008MOL0     C32977   3.114   2.376   2.631  0.2443  0.0143 -0.0441
 1008MOL0     C32978   3.348   2.031   2.446 -0.3697  0.5304 -0.1848
 1008MOL0     C32979   3.319   1.955   2.333 -0.3270 -1.4283  1.0811
 1008MOL0     C32980   3.401   1.852   2.292 -0.3216 -0.2747 -0.4920
 1008MOL0     C32981   3.534   1.825   2.348  0.4660  1.0016  0.1485
 1008MOL0     O32982   3.628   1.730   2.302  0.2242 -0.2817 -0.4094
 1008MOL0     C32983   3.583   1.642   2.207  0.3281 -1.0013  0.4934
 1008MOL0     C32984   3.697   1.543   2.168  0.3304 -1.5079  0.6093
 1008MOL0     C32985   3.797   1.618   2.079  0.0296  1.1006  0.4871
 1008MOL0     C32986   3.935   1.554   2.098 -0.6311  0.0453  0.9636
 1008MOL0     C32987   4.025   1.581   1.982 -0.6147  0.5861 -0.4199
 1008MOL0     C32988   4.091   1.616   1.891  0.5534  0.0591 -0.0923
 1008MOL0     C32989   3.566   1.906   2.454  0.3360 -0.0176  0.9506
 1008MOL0     C32990   3.469   1.997   2.505  0.7120 -0.4882  1.2179
 1008MOL0     H32991   3.437   2.387   2.741  0.0323 -0.0601 -0.3757
 1008MOL0     H32992   3.362   2.603   2.811  0.3722 -1.1913 -0.0735
 1008MOL0     H32993   2.930   2.712   2.884  3.4217 -2.3109  2.2773
 1008MOL0     H32994   2.944   2.724   2.712 -3.0429  1.8728  1.0584
 1008MOL0     H32995   3.033   2.966   2.745 -2.9583  2.6293  0.2893
 1008MOL0     H32996   3.087   2.917   2.906  1.9856  2.4936 -2.9654
 1008MOL0     H32997   2.799   2.923   2.830  0.4335 -0.4119  0.9302
 1008MOL0     H32998   2.885   3.072   2.868 -2.1042 -0.0312 -0.4820
 1008MOL0     H32999   2.737   2.888   3.025  0.0270 -0.1506 -0.2933
 1008MOL0     H33000   2.909   2.844   3.063  0.3136 -0.0504  1.6294
 1008MOL0     H33001   2.765   3.110   3.107  0.1442  1.0657 -0.0074
 1008MOL0     H33002   2.939   3.086   3.131 -0.4192  1.2088  1.9826
 1008MOL0     H33003   2.705   2.965   3.265 -0.4647  2.9829 -1.0938
 1008MOL0     H33004   2.831   3.064   3.338  1.9705  0.7681 -1.9816
 1008MOL0     H33005   2.847   2.780   3.264  1.7531 -0.4519 -0.2115
 1008MOL0     H33006   2.993   2.883   3.278 -0.2998  1.8807  0.1855
 1008MOL0     H33007   2.772   2.818   3.483  1.1947 -3.8945  1.2123
 1008MOL0     H33008   2.912   2.919   3.521 -1.6130 -0.0784 -0.1288
 1008MOL0     H33009   3.142   2.803   3.554 -0.6297 -1.0255  0.7200
 1008MOL0     H33010   3.213   2.484   3.711  1.0903 -1.3077 -1.0720
 1008MOL0     H33011   3.278   2.630   3.660 -1.9542  0.5469 -0.2967
 1008MOL0     H33012   3.265   2.398   3.451  2.6517  0.5061 -2.3409
 1008MOL0     H33013   3.369   2.361   3.577 -0.2240  0.2960  0.3428
 1008MOL0     H33014   3.479   2.460   3.371 -1.2430  0.7226 -1.1009
 1008MOL0     H33015   3.409   2.609   3.390 -0.0814 -2.4897 -1.9766
 1008MOL0     H33016   3.632   2.556   3.491  0.7395  1.2884  2.3442
 1008MOL0     H33017   3.553   2.479   3.632 -3.0837  0.5684  0.6832
 1008MOL0     H33018   3.640   2.703   3.357 -4.8050  0.0079 -2.7854
 1008MOL0     H33019   3.676   2.899   3.234  3.8775  2.0670 -0.1023
 1008MOL0     H33020   3.850   3.351   3.212  0.1187 -0.6583  0.4227
 1008MOL0     H33021   3.803   3.576   3.103  2.8439 -2.1708  0.2127
 1008MOL0     H33022   3.458   3.623   2.962  1.1812  0.2984  1.9528
 1008MOL0     H33023   3.506   3.737   2.836 -1.2502 -2.5789 -1.0135
 1008MOL0     H33024   3.672   3.817   3.022  1.8515 -4.7231  2.0896
 1008MOL0     H33025   3.551   3.759   3.134  0.5259  1.4715 -0.2050
 1008MOL0     H33026   3.496   3.959   2.920  1.8920 -3.5574 -1.1753
 1008MOL0     H33027   3.504   3.994   3.089  3.3542 -1.1050  0.7807
 1008MOL0     H33028   3.303   3.803   2.960 -1.5752 -1.0863  0.2834
 1008MOL0     H33029   3.298   3.847   3.132  0.2440 -0.8595 -0.7378
 1008MOL0     H33030   3.130   3.982   2.983 -0.8960  2.2567 -2.2020
 1008MOL0     H33031   3.273   4.019   2.884 -1.1732 -0.0951  0.1460
 1008MOL0     H33032   3.378   4.132   3.061  0.9066 -3.4774 -0.4510
 1008MOL0     H33033   3.226   4.137   3.157 -0.6348  3.2357 -0.9944
 1008MOL0     H33034   3.273   4.334   3.002 -3.1550  0.7616  2.4023
 1008MOL0     H33035   3.264   4.223   2.866 -0.5594 -2.3008 -0.1740
 1008MOL0     H33036   3.044   4.279   3.065  1.5901 -2.4046  0.2063
 1008MOL0     H33037   3.022   4.193   2.905  1.3592 -1.1058 -0.2536
 1008MOL0     H33038   3.530   3.395   2.840 -0.6435 -4.1220 -0.6517
 1008MOL0     H33039   3.535   3.176   2.976 -1.5487  1.7532 -1.3628
 1008MOL0     H33040   3.546   3.148   3.557 -1.8215  0.9346 -0.6896
 1008MOL0     H33041   3.481   2.923   3.684  2.6713 -1.8091  2.0736
 1008MOL0     H33042   2.958   2.511   2.691  0.1106 -0.9901  0.4329
 1008MOL0     H33043   3.062   2.295   2.581  0.8832  0.1673 -0.9900
 1008MOL0     H33044   3.226   1.973   2.280 -1.5325 -1.2997  3.0923
 1008MOL0     H33045   3.364   1.794   2.208  1.3612  2.4557 -3.3048
 1008MOL0     H33046   3.548   1.681   2.111  1.7690 -1.6792 -0.3517
 1008MOL0     H33047   3.492   1.597   2.249 -2.6249 -0.1564 -4.3051
 1008MOL0     H33048   3.746   1.499   2.255  0.8134  1.2105  1.8399
 1008MOL0     H33049   3.650   1.457   2.119 -2.6023  0.0405  0.4559
 1008MOL0     H33050   3.796   1.719   2.122 -3.0515  0.9281  1.0777
 1008MOL0     H33051   3.759   1.612   1.976 -0.1643  0.9368  0.5669
 1008MOL0     H33052   3.976   1.589   2.193 -0.4751 -1.8402  1.6324
 1008MOL0     H33053   3.927   1.445   2.103  1.1881 -0.2465 -0.7220
 1008MOL0     H33054   4.150   1.626   1.802 -2.3132 -1.5369 -2.3659
 1008MOL0     H33055   3.664   1.902   2.501  0.2120 -0.2037  1.1939
 1008MOL0     H33056   3.489   2.051   2.597 -0.3637  3.0587 -0.4440
 1009MOL0     O33057   8.443   1.677   2.431 -0.2021  0.4610  0.8634
 1009MOL0     C33058   8.338   1.720   2.397  0.7821 -0.2377  0.8304
 1009MOL0     O33059   8.217   1.703   2.468 -0.2278  0.1098  0.1176
 1009MOL0     C33060   8.233   1.640   2.586 -0.0680  0.0089 -0.1942
 1009MOL0     C33061   8.257   1.715   2.700 -0.5761 -0.1629 -0.0126
 1009MOL0     C33062   8.260   1.650   2.822  1.2060 -0.2015  0.9063
 1009MOL0     C33063   8.209   1.524   2.844  0.2953  0.7663  0.0921
 1009MOL0     O33064   8.199   1.462   2.965 -0.0788  0.6412 -0.1836
 1009MOL0     C33065   8.066   1.467   3.035 -0.0847  0.7807  0.0310
 1009MOL0     C33066   8.026   1.608   3.058  0.0292 -0.0286 -0.6109
 1009MOL0     C33067   7.996   1.633   3.210 -0.0609 -0.9300  0.1901
 1009MOL0     C33068   8.124   1.637   3.294 -0.0521  0.4002  0.0419
 1009MOL0     C33069   8.099   1.735   3.408  0.0062  0.2946 -0.0890
 1009MOL0     C33070   7.988   1.693   3.506  0.7990 -0.6104  0.4269
 1009MOL0     C33071   7.985   1.789   3.634  0.3279 -0.9853  0.0603
 1009MOL0     C33072   7.878   1.747   3.732 -0.4333  0.9139  0.2502
 1009MOL0     N33073   7.745   1.794   3.688 -0.4850 -0.4655 -0.3572
 1009MOL0     C33074   7.705   1.924   3.712  0.0589 -1.8278 -0.3778
 1009MOL0     C33075   7.570   1.918   3.683  1.0374 -1.2151  0.5491
 1009MOL0     C33076   7.461   2.015   3.702 -0.7435  0.7460  0.3389
 1009MOL0     C33077   7.378   2.015   3.578 -0.0194 -0.0780 -0.6540
 1009MOL0     C33078   7.306   2.148   3.570  0.0239  0.8331  0.2165
 1009MOL0     C33079   7.274   2.195   3.437  0.9734  0.1412  0.3322
 1009MOL0     O33080   7.391   2.217   3.354  0.0498  0.0140  0.5968
 1009MOL0     C33081   7.371   2.306   3.255  0.5135  0.0036  0.3650
 1009MOL0     C33082   7.291   2.273   3.141  0.2533 -0.3723 -0.9522
 1009MOL0     C33083   7.279   2.361   3.038  1.0763 -0.0009 -0.4035
 1009MOL0     C33084   7.343   2.488   3.046 -0.0498 -0.1114  0.6000
 1009MOL0     C33085   7.337   2.578   2.933 -0.0356 -0.7733  0.4556
 1009MOL0     O33086   7.240   2.555   2.849  0.0944  0.0204  0.5466
 1009MOL0     C33087   7.233   2.638   2.740 -0.1516 -0.3425  0.4444
 1009MOL0     C33088   7.262   2.574   2.618  0.9789  0.7604  0.6323
 1009MOL0     C33089   7.233   2.644   2.499 -0.0896  0.6724 -0.6133
 1009MOL0     C33090   7.177   2.779   2.509  0.7326  0.8817  0.4604
 1009MOL0     O33091   7.146   2.857   2.404 -0.2102 -0.4074  0.5509
 1009MOL0     C33092   7.208   2.818   2.279  0.1048  0.2274  0.4381
 1009MOL0     C33093   7.185   2.932   2.174 -1.5825  0.3597  0.8306
 1009MOL0     C33094   7.283   2.902   2.055  0.4167 -0.0750  0.2956
 1009MOL0     C33095   7.246   2.964   1.922  0.5264 -0.2985 -1.0490
 1009MOL0     C33096   7.363   2.955   1.819  0.2258  0.4621  0.2813
 1009MOL0     C33097   7.403   2.811   1.780 -0.0176  0.0407 -0.0282
 1009MOL0     C33098   7.507   2.818   1.668  0.2573  0.7137 -0.2257
 1009MOL0     C33099   7.550   2.680   1.615 -0.4643  0.2576  0.8037
 1009MOL0    Cl33100   7.643   2.577   1.728  0.2784  0.3020  0.2986
 1009MOL0     C33101   7.142   2.834   2.633  0.2494  0.1028 -0.1775
 1009MOL0     C33102   7.182   2.766   2.751  0.0439 -0.4222 -0.8415
 1009MOL0     O33103   7.428   2.667   2.926 -0.0777 -0.1432  0.0357
 1009MOL0     C33104   7.416   2.523   3.154 -1.5519 -0.7192 -0.7358
 1009MOL0     C33105   7.432   2.432   3.263  0.9831 -0.4836 -0.2168
 1009MOL0     N33106   7.544   1.797   3.619 -0.7736 -0.0360 -0.0416
 1009MOL0     N33107   7.652   1.727   3.617 -0.3600  0.0934 -0.2661
 1009MOL0     C33108   8.173   1.447   2.726  0.7290  0.3054 -0.9731
 1009MOL0     C33109   8.198   1.508   2.603  1.0784  0.4580  0.2946
 1009MOL0     C33110   8.332   1.813   2.278  0.9354  0.4821 -0.4936
 1009MOL0     C33111   8.434   1.811   2.184 -0.3050  0.3768  0.0222
 1009MOL0     C33112   8.441   1.894   2.077 -0.1716  0.0286  0.7208
 1009MOL0     C33113   8.327   1.970   2.052  0.4633  0.2132  0.2040
 1009MOL0     O33114   8.319   2.032   1.930 -0.0483 -0.6421  0.0905
 1009MOL0     C33115   8.335   1.940   1.823 -0.3507 -0.6961  0.6316
 1009MOL0     C33116   8.229   1.947   1.708  0.7588  0.1135 -0.1234
 1009MOL0     C33117   8.225   2.072   1.625 -0.0784  0.6460  0.6736
 1009MOL0     C33118   8.113   2.070   1.521 -0.2076  0.1453  0.4711
 1009MOL0     C33119   8.081   2.207   1.472 -0.5459  0.2853  0.4239
 1009MOL0     C33120   8.063   2.320   1.442  0.0111 -1.2143  0.3935
 1009MOL0     C33121   8.218   1.979   2.141  0.0935  1.0316 -0.7882
 1009MOL0     C33122   8.217   1.893   2.253  0.3134 -0.6952 -0.9446
 1009MOL0     H33123   8.294   1.817   2.706  0.5521 -0.6624  3.3159
 1009MOL0     H33124   8.312   1.696   2.906  1.5496  0.2328  0.4632
 1009MOL0     H33125   8.077   1.413   3.129  3.1502 -0.5462 -0.9715
 1009MOL0     H33126   7.987   1.421   2.975  0.4248  0.0875 -0.1134
 1009MOL0     H33127   7.942   1.632   2.992  0.4581  0.6872 -0.9090
 1009MOL0     H33128   8.110   1.676   3.046 -1.0030  2.0869  2.6477
 1009MOL0     H33129   7.928   1.550   3.233 -1.3437 -0.3516 -1.3661
 1009MOL0     H33130   7.940   1.726   3.224  0.9817 -0.5355  2.1212
 1009MOL0     H33131   8.158   1.539   3.328 -7.1951 -3.5831 -2.0616
 1009MOL0     H33132   8.205   1.672   3.230 -0.1080 -3.8545 -2.7394
 1009MOL0     H33133   8.091   1.836   3.368 -0.5436  2.1974  4.2550
 1009MOL0     H33134   8.197   1.733   3.457  1.7424  1.5146 -3.1976
 1009MOL0     H33135   7.997   1.588   3.536 -0.6985 -0.9312 -0.1682
 1009MOL0     H33136   7.894   1.702   3.451  0.8119 -1.3439  0.2692
 1009MOL0     H33137   8.085   1.778   3.677  0.0510 -0.2243  0.9150
 1009MOL0     H33138   7.974   1.892   3.599  1.1881 -1.1544 -0.7458
 1009MOL0     H33139   7.896   1.788   3.831  1.1418 -0.4848  0.5878
 1009MOL0     H33140   7.895   1.639   3.733  1.5993  1.1793  2.6606
 1009MOL0     H33141   7.748   2.001   3.775 -3.2525 -2.0018  2.3920
 1009MOL0     H33142   7.510   2.112   3.717 -5.2721  3.1774  1.3515
 1009MOL0     H33143   7.411   2.004   3.799  2.6534 -0.3572  2.1351
 1009MOL0     H33144   7.309   1.931   3.576  1.3474 -1.2422 -0.7168
 1009MOL0     H33145   7.445   2.011   3.491 -1.2612 -1.0701 -1.5995
 1009MOL0     H33146   7.209   2.149   3.621 -0.4534  0.3142 -0.6650
 1009MOL0     H33147   7.359   2.228   3.623 -3.0121  1.6999  2.2175
 1009MOL0     H33148   7.231   2.293   3.462  0.3419  0.0966 -0.5182
 1009MOL0     H33149   7.209   2.130   3.378  2.8859  0.2772 -2.0893
 1009MOL0     H33150   7.227   2.185   3.133  2.2927 -2.0241 -0.0982
 1009MOL0     H33151   7.198   2.346   2.967 -0.8270  3.3238  0.8851
 1009MOL0     H33152   7.307   2.475   2.618  0.2384  0.4190  0.0060
 1009MOL0     H33153   7.255   2.589   2.408 -2.1501 -0.2350 -0.6011
 1009MOL0     H33154   7.158   2.734   2.230 -0.6699  1.7229 -1.4454
 1009MOL0     H33155   7.316   2.802   2.284  0.2551  1.3928  1.5038
 1009MOL0     H33156   7.206   3.030   2.219  1.1625 -1.1830  3.2928
 1009MOL0     H33157   7.089   2.921   2.124 -0.4956 -0.8361 -1.1446
 1009MOL0     H33158   7.286   2.794   2.043  2.3486  0.1040 -1.3764
 1009MOL0     H33159   7.385   2.931   2.080  0.3787 -0.5944  1.0590
 1009MOL0     H33160   7.153   2.927   1.879  0.1961 -0.3066 -0.3377
 1009MOL0     H33161   7.217   3.068   1.937 -0.8958 -1.1420  4.0196
 1009MOL0     H33162   7.454   3.006   1.851  0.1793 -0.1059  1.3761
 1009MOL0     H33163   7.330   3.009   1.730 -1.9038  2.1995  2.0031
 1009MOL0     H33164   7.315   2.757   1.744 -2.2168  3.2504  0.1089
 1009MOL0     H33165   7.440   2.765   1.872  2.0143  4.7688  1.8458
 1009MOL0     H33166   7.465   2.878   1.586  0.9170  0.5375 -0.6994
 1009MOL0     H33167   7.597   2.871   1.701  1.1961  0.1432 -1.7582
 1009MOL0     H33168   7.617   2.704   1.532 -1.3919  4.0776  0.9515
 1009MOL0     H33169   7.460   2.623   1.591  0.4355 -1.2218  0.8308
 1009MOL0     H33170   7.092   2.930   2.628  1.0575  0.5803  0.5627
 1009MOL0     H33171   7.136   2.810   2.839 -0.7905 -0.5272 -1.2080
 1009MOL0     H33172   7.446   2.626   3.170 -1.5550 -0.7680 -0.4045
 1009MOL0     H33173   7.482   2.468   3.353 -0.1438  0.2707  0.1227
 1009MOL0     H33174   8.130   1.347   2.724 -1.0681  1.0328 -3.0165
 1009MOL0     H33175   8.175   1.447   2.516  4.1397 -0.4079 -0.0459
 1009MOL0     H33176   8.502   1.726   2.193 -0.2960  0.3331 -0.4306
 1009MOL0     H33177   8.530   1.904   2.015  0.6689 -1.2091  1.6794
 1009MOL0     H33178   8.322   1.839   1.862  2.9247 -1.3167  0.3386
 1009MOL0     H33179   8.436   1.939   1.783 -0.7422  0.2605 -0.4380
 1009MOL0     H33180   8.246   1.863   1.639 -2.8399 -0.5445 -0.4105
 1009MOL0     H33181   8.127   1.936   1.747 -0.6866 -3.3048 -4.0506
 1009MOL0     H33182   8.321   2.098   1.580 -0.8304  0.3936 -1.1901
 1009MOL0     H33183   8.201   2.151   1.696  0.3327  2.6609 -1.3089
 1009MOL0     H33184   8.140   2.014   1.431 -1.7156  3.9589 -2.6259
 1009MOL0     H33185   8.019   2.031   1.564  1.1545 -0.5996  2.9766
 1009MOL0     H33186   8.071   2.416   1.394  0.8591 -2.1613 -1.4844
 1009MOL0     H33187   8.141   2.052   2.119 -0.5999  0.6148  0.1983
 1009MOL0     H33188   8.130   1.904   2.317  2.1524 -1.3244  1.8045
 1010MOL0     O33189   9.545   5.681   7.344  0.2583  0.0642 -0.1854
 1010MOL0     C33190   9.486   5.766   7.277 -0.7612 -0.3752  1.3388
 1010MOL0     O33191   9.515   5.902   7.265 -0.0111  0.2339 -0.7810
 1010MOL0     C33192   9.631   5.962   7.308 -0.2643  0.6834  0.7580
 1010MOL0     C33193   9.662   6.077   7.258 -0.9575  0.0733  1.2484
 1010MOL0     C33194   9.781   6.144   7.291  0.3351 -0.5921 -0.1931
 1010MOL0     C33195   9.855   6.104   7.399 -0.5594 -0.6108  0.5778
 1010MOL0     O33196   9.981   6.160   7.424 -0.2362 -0.3536 -0.2936
 1010MOL0     C33197   9.980   6.307   7.448  0.5574 -1.0375  0.1569
 1010MOL0     C33198   9.950   6.330   7.591  0.3768  0.1950  0.7051
 1010MOL0     C33199  10.068   6.302   7.682 -0.9365  0.5366 -0.4547
 1010MOL0     C33200  10.023   6.282   7.833  0.4092  0.0150  0.6842
 1010MOL0     C33201   9.977   6.412   7.895 -0.0765 -0.3421  0.3780
 1010MOL0     C33202  10.075   6.536   7.889  0.9197  0.8330 -0.2453
 1010MOL0     C33203  10.221   6.522   7.930 -0.3825 -0.1581 -0.0337
 1010MOL0     C33204  10.239   6.490   8.076  0.8347  0.0242 -0.2026
 1010MOL0     N33205  10.253   6.615   8.155 -0.3200  0.1148 -0.4837
 1010MOL0     C33206  10.155   6.691   8.203  0.5032 -0.6154 -0.1973
 1010MOL0     C33207  10.218   6.795   8.259 -0.5513 -0.7624 -0.1563
 1010MOL0     C33208  10.164   6.911   8.334  0.2894  0.3169 -0.8197
 1010MOL0     C33209  10.015   6.945   8.302  1.2464  0.3247 -0.4427
 1010MOL0     C33210   9.912   6.860   8.386  0.5899  0.7448 -0.2664
 1010MOL0     C33211   9.779   6.856   8.321 -0.3880  1.3409  0.6076
 1010MOL0     O33212   9.772   6.755   8.208  0.1415 -0.6122  0.0710
 1010MOL0     C33213   9.743   6.627   8.243  0.3622  0.2173 -0.3389
 1010MOL0     C33214   9.714   6.530   8.140 -0.8367  0.0541 -0.3416
 1010MOL0     C33215   9.689   6.393   8.182  0.2668 -0.4486  0.8615
 1010MOL0     C33216   9.714   6.347   8.313  0.4490 -0.1430 -0.0454
 1010MOL0     C33217   9.696   6.201   8.342 -0.5089 -0.0448  0.4847
 1010MOL0     O33218   9.729   6.147   8.465 -0.4145 -0.8723 -0.2090
 1010MOL0     C33219   9.729   6.008   8.498  1.3352  0.1035  1.0104
 1010MOL0     C33220   9.623   5.919   8.443  0.1460 -0.6392 -0.2604
 1010MOL0     C33221   9.609   5.787   8.489  0.6616 -0.4053 -0.2961
 1010MOL0     C33222   9.690   5.737   8.594  0.3189  1.0153 -0.1361
 1010MOL0     O33223   9.659   5.605   8.644  0.0758 -1.2104  0.6258
 1010MOL0     C33224   9.666   5.505   8.549 -0.1104 -0.0844 -0.2676
 1010MOL0     C33225   9.715   5.378   8.628  0.4537  0.2778  0.2063
 1010MOL0     C33226   9.863   5.353   8.627 -0.0524  0.2556  0.5426
 1010MOL0     C33227   9.912   5.286   8.752 -0.3956  0.2093 -1.0170
 1010MOL0     C33228  10.062   5.253   8.746  0.3768 -0.2652  0.4523
 1010MOL0     C33229  10.116   5.142   8.654  0.7796  0.0205 -0.0844
 1010MOL0     C33230  10.054   5.000   8.688 -0.2257  1.0131  0.0425
 1010MOL0     C33231  10.085   4.956   8.839 -1.0526  0.3345  0.9539
 1010MOL0    Cl33232  10.269   4.942   8.867 -0.0186  0.8864  0.1319
 1010MOL0     C33233   9.796   5.816   8.636 -0.0653 -0.1434 -0.8083
 1010MOL0     C33234   9.812   5.945   8.588 -0.2250 -0.2810 -0.7077
 1010MOL0     O33235   9.650   6.130   8.249  0.5190 -0.4034 -0.2429
 1010MOL0     C33236   9.729   6.448   8.409 -0.0724  0.1206 -0.3492
 1010MOL0     C33237   9.740   6.588   8.379  0.2767  0.9462 -0.2301
 1010MOL0     N33238  10.356   6.776   8.248 -0.0999  0.2306 -0.1822
 1010MOL0     N33239  10.371   6.664   8.183  0.3521  0.3207 -0.4898
 1010MOL0     C33240   9.820   5.980   7.465 -1.4701 -0.5711  0.1979
 1010MOL0     C33241   9.714   5.910   7.407  1.1691  0.0103 -0.5439
 1010MOL0     C33242   9.364   5.724   7.188  0.5405 -0.5875 -1.1703
 1010MOL0     C33243   9.304   5.812   7.097  0.3245 -0.0514  0.0811
 1010MOL0     C33244   9.211   5.777   6.996  0.6802  0.1028 -0.4358
 1010MOL0     C33245   9.158   5.650   6.994 -0.1174  0.1552 -0.6413
 1010MOL0     O33246   9.049   5.617   6.917  0.0613  0.9738  0.5928
 1010MOL0     C33247   9.019   5.695   6.798  0.5123 -0.6237  0.3884
 1010MOL0     C33248   8.885   5.769   6.778 -0.2387 -0.1355 -0.6577
 1010MOL0     C33249   8.843   5.854   6.892  0.9014  0.1433 -0.9707
 1010MOL0     C33250   8.703   5.915   6.878  0.3142  0.4907 -0.2369
 1010MOL0     C33251   8.696   5.976   6.751 -0.6072 -0.3012  0.3523
 1010MOL0     C33252   8.700   6.027   6.639 -0.1120  0.4042 -0.1334
 1010MOL0     C33253   9.217   5.559   7.086 -0.5097  0.0337  0.3867
 1010MOL0     C33254   9.317   5.590   7.181  0.3569  0.0242  0.5504
 1010MOL0     H33255   9.601   6.126   7.184  0.7690 -0.1164 -0.3790
 1010MOL0     H33256   9.804   6.233   7.233  2.2325  0.3514  1.8785
 1010MOL0     H33257   9.903   6.356   7.388 -2.3938  0.5277  4.7241
 1010MOL0     H33258  10.076   6.352   7.419  0.5823  0.8583  2.8756
 1010MOL0     H33259   9.867   6.263   7.613 -0.5293  0.9445 -0.2965
 1010MOL0     H33260   9.907   6.430   7.605  1.7158  1.7700 -4.2017
 1010MOL0     H33261  10.143   6.380   7.670 -1.4172  1.1536  0.3899
 1010MOL0     H33262  10.112   6.205   7.658 -3.3670 -1.7086  3.0743
 1010MOL0     H33263   9.938   6.213   7.833 -1.9112  2.5327 -2.5235
 1010MOL0     H33264  10.104   6.241   7.895  0.8416  0.1455  0.2163
 1010MOL0     H33265   9.939   6.387   7.994 -0.7958  1.4250  0.5888
 1010MOL0     H33266   9.885   6.446   7.846 -0.6074 -0.9775  0.9259
 1010MOL0     H33267  10.030   6.605   7.961 -0.5765 -0.8207  0.4806
 1010MOL0     H33268  10.058   6.580   7.791 -0.0231 -0.7519 -0.8263
 1010MOL0     H33269  10.269   6.445   7.869 -1.3858  1.8370 -3.6491
 1010MOL0     H33270  10.284   6.607   7.901  1.3979 -0.9730  1.2145
 1010MOL0     H33271  10.324   6.421   8.082  0.0078 -1.0413 -0.3908
 1010MOL0     H33272  10.156   6.444   8.131 -0.4080  2.3209 -0.0331
 1010MOL0     H33273  10.049   6.672   8.209  0.6816 -2.0041 -1.0464
 1010MOL0     H33274  10.241   6.988   8.323  4.4248 -2.9905  1.6786
 1010MOL0     H33275  10.162   6.897   8.443  0.0342  0.9766 -0.7370
 1010MOL0     H33276   9.981   6.922   8.200 -1.2305  3.9014 -0.6015
 1010MOL0     H33277  10.007   7.053   8.312  0.1361  0.2949 -0.9123
 1010MOL0     H33278   9.950   6.759   8.402  0.1466  0.8887  2.0773
 1010MOL0     H33279   9.901   6.892   8.490  0.1464  0.2074 -0.1388
 1010MOL0     H33280   9.763   6.952   8.272  0.5144  0.4097 -1.6516
 1010MOL0     H33281   9.696   6.839   8.390 -0.5858  0.0391  0.0955
 1010MOL0     H33282   9.699   6.579   8.044 -2.3422  1.6298  0.6635
 1010MOL0     H33283   9.672   6.323   8.101 -2.6488  3.4394 -2.3088
 1010MOL0     H33284   9.559   5.939   8.358  1.4365 -1.0674 -1.3661
 1010MOL0     H33285   9.523   5.730   8.455 -0.5865  2.1885 -1.8484
 1010MOL0     H33286   9.722   5.530   8.458 -1.2063  1.0489 -0.6589
 1010MOL0     H33287   9.568   5.471   8.514 -1.8000  1.0865  2.9035
 1010MOL0     H33288   9.679   5.294   8.567 -2.4960  1.1663  0.5870
 1010MOL0     H33289   9.674   5.378   8.729 -0.8148  0.3463 -0.2909
 1010MOL0     H33290   9.909   5.450   8.605 -1.8882  1.8939  3.3612
 1010MOL0     H33291   9.889   5.279   8.551 -0.6653 -1.8188  2.2705
 1010MOL0     H33292   9.882   5.349   8.836 -2.2487 -1.0473 -0.6755
 1010MOL0     H33293   9.867   5.187   8.764  2.5882 -1.4016 -2.0393
 1010MOL0     H33294  10.092   5.247   8.851  0.9329  1.5008  0.4219
 1010MOL0     H33295  10.116   5.339   8.705  0.6238 -0.9641 -0.7298
 1010MOL0     H33296  10.223   5.132   8.674  0.1852 -0.9518  3.4085
 1010MOL0     H33297  10.099   5.169   8.550  1.2923  0.5003 -0.0510
 1010MOL0     H33298   9.946   5.005   8.674 -0.1074  0.7532 -1.1020
 1010MOL0     H33299  10.084   4.923   8.616 -0.6599  1.0874 -0.2188
 1010MOL0     H33300  10.040   4.857   8.850  0.7073 -0.3401  2.7758
 1010MOL0     H33301  10.041   5.018   8.918  0.1993  0.2964  1.7002
 1010MOL0     H33302   9.868   5.769   8.702 -2.5819 -1.8488  0.8919
 1010MOL0     H33303   9.888   6.016   8.619 -1.2352  0.9838 -1.0449
 1010MOL0     H33304   9.753   6.415   8.510 -0.4358  2.3687  0.5330
 1010MOL0     H33305   9.766   6.657   8.458  0.6458  0.3345  0.1986
 1010MOL0     H33306   9.888   5.934   7.536 -0.1160  1.0869  0.0411
 1010MOL0     H33307   9.701   5.814   7.457 -0.8510  0.9037  0.7710
 1010MOL0     H33308   9.331   5.917   7.091 -2.2140  0.6453  0.1166
 1010MOL0     H33309   9.180   5.860   6.933  1.0978  2.6210  2.3859
 1010MOL0     H33310   9.010   5.630   6.710 -1.9789  1.1288 -0.7650
 1010MOL0     H33311   9.106   5.753   6.765  0.7415 -0.9417  0.4269
 1010MOL0     H33312   8.891   5.835   6.691 -1.1889  1.5014  0.4568
 1010MOL0     H33313   8.803   5.698   6.765 -0.0700 -0.5221  0.3094
 1010MOL0     H33314   8.910   5.939   6.911  0.1863  0.3929  0.6316
 1010MOL0     H33315   8.860   5.798   6.984  0.0442 -2.7383 -2.4746
 1010MOL0     H33316   8.636   5.828   6.879 -1.0885  1.5291  0.6499
 1010MOL0     H33317   8.676   5.982   6.961  0.4641  0.8661 -0.4937
 1010MOL0     H33318   8.718   6.061   6.539 -0.4013  1.4867  0.1720
 1010MOL0     H33319   9.185   5.456   7.084 -0.5232 -0.0389  2.6196
 1010MOL0     H33320   9.348   5.524   7.261 -0.2855  1.1448  1.7785
 1011MOL0     O33321  10.392   3.159   1.059  0.4907 -0.2413 -0.3560
 1011MOL0     C33322  10.354   3.047   1.097  0.2189 -0.4176 -0.8026
 1011MOL0     O33323  10.226   3.019   1.132  0.3964  0.5919 -0.0635
 1011MOL0     C33324  10.115   3.110   1.141 -0.1102  0.2851 -0.6147
 1011MOL0     C33325  10.072   3.198   1.036 -0.1509  0.3235 -0.1051
 1011MOL0     C33326   9.994   3.306   1.066 -0.5982  0.9370 -0.4110
 1011MOL0     C33327   9.928   3.313   1.188  0.0574  0.4789  0.6175
 1011MOL0     O33328   9.835   3.395   1.228  0.5907 -0.9073 -0.8343
 1011MOL0     C33329   9.833   3.527   1.164 -0.8701  0.2125 -0.6893
 1011MOL0     C33330   9.711   3.599   1.230  0.4295 -0.3405  1.1535
 1011MOL0     C33331   9.672   3.723   1.153 -0.1063 -0.9503 -0.0268
 1011MOL0     C33332   9.529   3.763   1.205 -0.2414 -0.0482 -0.3491
 1011MOL0     C33333   9.406   3.694   1.142 -0.1208 -0.0641  0.5168
 1011MOL0     C33334   9.268   3.766   1.194 -0.1633 -0.1447 -0.4504
 1011MOL0     C33335   9.161   3.665   1.193 -0.1153  0.1017  0.6075
 1011MOL0     C33336   9.135   3.574   1.321 -0.4496  0.1363  0.2979
 1011MOL0     N33337   8.993   3.514   1.320  0.2546  0.2836 -0.3832
 1011MOL0     C33338   8.960   3.397   1.247  1.3119 -1.0032 -0.6189
 1011MOL0     C33339   8.835   3.371   1.290  1.1261  1.2838 -0.8490
 1011MOL0     C33340   8.753   3.264   1.236 -0.2740  0.2103  0.5219
 1011MOL0     C33341   8.710   3.284   1.092 -0.6372  0.4911 -0.3329
 1011MOL0     C33342   8.658   3.146   1.027 -0.8298 -0.5526  0.3478
 1011MOL0     C33343   8.577   3.051   1.108 -0.0142  0.2239 -0.1405
 1011MOL0     O33344   8.643   2.996   1.222  0.3195 -0.5940  0.4765
 1011MOL0     C33345   8.558   2.961   1.330 -0.0959  0.1422 -0.9484
 1011MOL0     C33346   8.416   2.930   1.317 -0.1972  0.0826 -0.1323
 1011MOL0     C33347   8.344   2.897   1.426  1.0592 -0.3749  0.0709
 1011MOL0     C33348   8.404   2.877   1.553 -0.4636  0.3403 -0.0520
 1011MOL0     C33349   8.312   2.832   1.667  0.1071  0.0051 -0.4438
 1011MOL0     O33350   8.179   2.832   1.644 -0.9359 -0.5530  0.1475
 1011MOL0     C33351   8.098   2.765   1.729  0.4720  0.5629  0.2932
 1011MOL0     C33352   8.054   2.846   1.843  0.4627 -0.0126 -0.2282
 1011MOL0     C33353   7.978   2.787   1.944 -0.0882 -0.5825  0.0802
 1011MOL0     C33354   7.931   2.657   1.923 -0.3062  0.0004 -0.1040
 1011MOL0     O33355   7.857   2.592   2.015 -0.3502 -0.7149 -0.4014
 1011MOL0     C33356   7.876   2.634   2.159  0.1587  0.2636 -0.0754
 1011MOL0     C33357   7.804   2.547   2.265  0.6407  0.4682  0.4242
 1011MOL0     C33358   7.653   2.554   2.265 -0.8776 -1.7302  0.4758
 1011MOL0     C33359   7.598   2.522   2.120  0.4840 -0.2375 -1.3563
 1011MOL0     C33360   7.454   2.484   2.137  0.1404  0.5640 -0.2203
 1011MOL0     C33361   7.397   2.450   2.002 -0.9322  0.9383  1.0546
 1011MOL0     C33362   7.259   2.501   1.977  0.8275  0.1435  0.4885
 1011MOL0     C33363   7.168   2.385   2.008 -0.3512 -1.5857 -0.4708
 1011MOL0    Cl33364   7.182   2.269   1.883 -0.3285  0.7251  0.6971
 1011MOL0     C33365   7.961   2.586   1.803 -0.0568  0.2731  0.1781
 1011MOL0     C33366   8.045   2.638   1.707  0.2887 -0.9176  0.2203
 1011MOL0     O33367   8.368   2.795   1.770 -0.7442  0.1036 -0.0714
 1011MOL0     C33368   8.537   2.921   1.566  0.7784 -0.5786 -0.0930
 1011MOL0     C33369   8.617   2.954   1.458  0.0413 -0.3014  0.1360
 1011MOL0     N33370   8.793   3.466   1.381  0.1801 -0.3151 -0.3688
 1011MOL0     N33371   8.885   3.560   1.384  0.4446 -0.2263 -0.0928
 1011MOL0     C33372   9.951   3.209   1.281 -0.4785 -0.4460 -0.2979
 1011MOL0     C33373  10.045   3.112   1.251  1.3335  0.9629 -0.9110
 1011MOL0     C33374  10.454   2.941   1.115 -0.4670  0.3737 -0.5860
 1011MOL0     C33375  10.593   2.963   1.096 -0.2393 -0.0891  0.1524
 1011MOL0     C33376  10.682   2.865   1.105 -0.1425 -0.2438  1.3223
 1011MOL0     C33377  10.646   2.731   1.122 -0.8996 -0.0106  0.6516
 1011MOL0     O33378  10.761   2.646   1.144  0.0285 -0.1770 -0.4810
 1011MOL0     C33379  10.732   2.522   1.216 -0.6146  0.0340  0.1820
 1011MOL0     C33380  10.860   2.452   1.237 -0.1793  0.5036 -0.3122
 1011MOL0     C33381  10.966   2.446   1.133 -0.0218  0.0770  1.1091
 1011MOL0     C33382  10.912   2.391   1.002  1.4724  0.2302 -0.3891
 1011MOL0     C33383  10.887   2.500   0.912 -1.0369 -0.0343 -0.0908
 1011MOL0     C33384  10.857   2.591   0.839  0.1471  0.5335  0.8998
 1011MOL0     C33385  10.503   2.693   1.132  0.0166 -1.0255  0.1014
 1011MOL0     C33386  10.414   2.806   1.136  0.0793  0.0543  0.1878
 1011MOL0     H33387  10.116   3.191   0.937  1.3103  1.1922  0.4573
 1011MOL0     H33388   9.969   3.376   0.987  1.4188 -0.2759 -2.2582
 1011MOL0     H33389   9.842   3.531   1.055 -0.4638 -0.7694 -0.6981
 1011MOL0     H33390   9.924   3.581   1.191  1.6543 -1.7198 -4.5197
 1011MOL0     H33391   9.732   3.623   1.335  3.2455 -0.4529  0.6977
 1011MOL0     H33392   9.629   3.526   1.236  1.1366 -1.0706  2.2705
 1011MOL0     H33393   9.653   3.694   1.049  1.9727 -3.0285  0.0743
 1011MOL0     H33394   9.732   3.814   1.158 -2.9076  0.9843  3.7488
 1011MOL0     H33395   9.536   3.737   1.311  3.1820  2.0818  0.1048
 1011MOL0     H33396   9.518   3.869   1.184 -1.4455 -0.2214 -0.6386
 1011MOL0     H33397   9.414   3.587   1.163  1.2396 -0.1848 -0.4721
 1011MOL0     H33398   9.426   3.707   1.035  4.5280  0.0648  1.1849
 1011MOL0     H33399   9.244   3.856   1.138 -2.6223  0.5084  1.4527
 1011MOL0     H33400   9.271   3.783   1.303 -1.0107 -0.9366 -0.2920
 1011MOL0     H33401   9.065   3.712   1.168 -0.7180 -2.5014 -2.7381
 1011MOL0     H33402   9.178   3.598   1.108 -0.9178  1.7002 -0.8753
 1011MOL0     H33403   9.153   3.629   1.413  3.2963 -1.4795  0.7165
 1011MOL0     H33404   9.205   3.491   1.330 -0.0619  0.4032 -0.1877
 1011MOL0     H33405   9.023   3.343   1.178  1.9045 -2.3817  0.9196
 1011MOL0     H33406   8.669   3.250   1.304 -2.7588  1.2560 -2.0923
 1011MOL0     H33407   8.801   3.166   1.247  0.5225  0.5620  0.2016
 1011MOL0     H33408   8.786   3.327   1.025 -1.0441  1.7923  0.0084
 1011MOL0     H33409   8.628   3.356   1.093 -1.5617 -0.4575  3.1839
 1011MOL0     H33410   8.594   3.186   0.948  0.6128 -1.8816 -1.5719
 1011MOL0     H33411   8.742   3.093   0.983  0.9416  1.4319  1.1922
 1011MOL0     H33412   8.537   2.977   1.038 -1.2929 -1.3735  2.1784
 1011MOL0     H33413   8.501   3.125   1.136  0.6233  1.8924 -2.5225
 1011MOL0     H33414   8.377   2.915   1.217  0.5000 -2.1480 -0.1475
 1011MOL0     H33415   8.243   2.861   1.407  0.7871  1.1175 -1.5254
 1011MOL0     H33416   8.077   2.952   1.846 -2.4909  0.6976  2.3373
 1011MOL0     H33417   7.959   2.856   2.026  0.1615 -1.0127  0.5079
 1011MOL0     H33418   7.841   2.738   2.163 -0.4289  0.3695 -3.8807
 1011MOL0     H33419   7.980   2.621   2.191 -0.1126  0.1791  0.7874
 1011MOL0     H33420   7.855   2.572   2.358 -0.7455  1.3794  0.9646
 1011MOL0     H33421   7.822   2.441   2.242  1.7243  1.3260 -3.4163
 1011MOL0     H33422   7.625   2.656   2.292 -0.4969 -1.9888  1.9540
 1011MOL0     H33423   7.610   2.490   2.342 -3.1415  0.4832  1.1908
 1011MOL0     H33424   7.585   2.609   2.055 -3.7334 -0.3906 -0.9520
 1011MOL0     H33425   7.656   2.448   2.063 -1.7751 -1.4099 -2.2813
 1011MOL0     H33426   7.401   2.572   2.175 -0.5063  2.7168 -5.3574
 1011MOL0     H33427   7.446   2.398   2.205  0.2066 -0.1522 -1.1044
 1011MOL0     H33428   7.400   2.341   2.012  1.4451  0.6948 -1.2011
 1011MOL0     H33429   7.473   2.459   1.924 -2.6678 -0.7427 -0.9624
 1011MOL0     H33430   7.224   2.587   2.034  1.7803  0.5103  0.5338
 1011MOL0     H33431   7.250   2.526   1.871  4.5030 -3.6410 -0.9939
 1011MOL0     H33432   7.065   2.423   2.015 -0.0077 -0.7360  0.2240
 1011MOL0     H33433   7.169   2.337   2.106 -1.9664 -0.5780  0.0842
 1011MOL0     H33434   7.911   2.490   1.797  0.0184  0.3180 -3.3462
 1011MOL0     H33435   8.072   2.587   1.615 -0.5189 -1.4480  0.2649
 1011MOL0     H33436   8.564   2.902   1.670 -3.4183 -1.7552  1.0039
 1011MOL0     H33437   8.725   2.964   1.469  0.2051  2.9144 -2.7331
 1011MOL0     H33438   9.895   3.225   1.373 -0.4628 -0.0485 -0.3571
 1011MOL0     H33439  10.086   3.035   1.316 -3.4850 -1.1533  0.0650
 1011MOL0     H33440  10.634   3.061   1.071 -0.7195  0.3468  1.0481
 1011MOL0     H33441  10.787   2.892   1.099  0.2983 -1.8024  1.6133
 1011MOL0     H33442  10.651   2.467   1.168 -0.0370 -0.7152  0.0526
 1011MOL0     H33443  10.686   2.556   1.309  1.6070 -0.1470  1.4242
 1011MOL0     H33444  10.902   2.492   1.330  0.4120  0.6277 -0.6257
 1011MOL0     H33445  10.836   2.349   1.265  1.7909  0.5248  1.7778
 1011MOL0     H33446  11.042   2.375   1.165 -0.9147 -1.7631 -0.6153
 1011MOL0     H33447  11.018   2.542   1.119 -1.4458  1.0471  2.1693
 1011MOL0     H33448  10.989   2.321   0.967  0.2442 -2.3099  1.6091
 1011MOL0     H33449  10.829   2.321   1.018  1.3376  0.6614  0.9345
 1011MOL0     H33450  10.821   2.668   0.773 -1.2991 -1.4294 -0.7032
 1011MOL0     H33451  10.479   2.587   1.138 -0.0855 -1.1974 -2.1471
 1011MOL0     H33452  10.307   2.791   1.148 -0.4889  2.5839 -1.0930
 1012MOL0     O33453  11.106   8.852   3.076  0.2254 -0.2139 -0.4337
 1012MOL0     C33454  11.074   8.968   3.034  0.1010 -0.0680 -0.5534
 1012MOL0     O33455  11.158   9.077   3.034 -0.0789 -0.2478  0.5483
 1012MOL0     C33456  11.284   9.068   3.083 -0.2949 -1.2556 -0.4707
 1012MOL0     C33457  11.345   9.182   3.145  0.2693 -0.3708 -0.1829
 1012MOL0     C33458  11.479   9.190   3.183 -0.7750  0.8355  0.2905
 1012MOL0     C33459  11.561   9.077   3.165 -0.0381  0.4172  0.2626
 1012MOL0     O33460  11.696   9.086   3.203 -0.2708  0.0112 -0.9507
 1012MOL0     C33461  11.742   8.980   3.289 -0.4141 -0.1266  0.0151
 1012MOL0     C33462  11.890   8.996   3.333 -0.1082 -0.9662  0.2975
 1012MOL0     C33463  11.984   9.021   3.223  0.7038 -0.2588  0.5103
 1012MOL0     C33464  12.116   8.940   3.233 -0.9299  0.5941 -0.1577
 1012MOL0     C33465  12.225   9.011   3.161 -0.3794  0.1583 -0.2442
 1012MOL0     C33466  12.192   9.039   3.010  1.0054 -0.1747 -0.3015
 1012MOL0     C33467  12.316   9.066   2.942  0.5915  0.6967  0.6642
 1012MOL0     C33468  12.386   8.952   2.883 -0.9937  0.6875  0.2088
 1012MOL0     N33469  12.328   8.922   2.750  0.8401  0.2909 -1.1685
 1012MOL0     C33470  12.389   8.948   2.631 -0.1066  0.4895  0.3957
 1012MOL0     C33471  12.292   8.915   2.538 -0.6830  0.2304  0.7028
 1012MOL0     C33472  12.290   8.944   2.387 -0.3228 -0.0181 -0.2526
 1012MOL0     C33473  12.168   8.880   2.314  0.2602 -0.3380 -0.3318
 1012MOL0     C33474  12.200   8.726   2.286 -0.0762 -0.2807  0.0394
 1012MOL0     C33475  12.100   8.685   2.179  0.6632  0.2795  0.6395
 1012MOL0     O33476  12.110   8.538   2.172 -0.2198  0.2246  0.2666
 1012MOL0     C33477  12.008   8.464   2.229  0.0075 -0.0576  0.3916
 1012MOL0     C33478  11.956   8.481   2.356  0.0949 -0.3285 -0.6174
 1012MOL0     C33479  11.857   8.401   2.411  0.8447 -0.3025  0.5875
 1012MOL0     C33480  11.778   8.330   2.323  0.4354 -0.3920  0.0289
 1012MOL0     C33481  11.653   8.254   2.369 -0.7900  0.2120 -0.1104
 1012MOL0     O33482  11.568   8.213   2.263 -0.6714  0.0161 -0.6531
 1012MOL0     C33483  11.464   8.130   2.268  0.0925 -0.0577 -0.0903
 1012MOL0     C33484  11.378   8.116   2.165 -0.2942 -0.1256  0.4467
 1012MOL0     C33485  11.257   8.041   2.190 -0.0497  0.6224  0.5903
 1012MOL0     C33486  11.231   7.964   2.296 -0.1159 -0.3549  0.3697
 1012MOL0     O33487  11.104   7.907   2.312 -0.2434 -0.3835  0.2736
 1012MOL0     C33488  11.046   7.906   2.437  0.6078  1.0650  0.5255
 1012MOL0     C33489  10.909   7.839   2.447  1.1229 -0.0993 -0.9800
 1012MOL0     C33490  10.779   7.927   2.413  0.3672 -0.2090 -0.1447
 1012MOL0     C33491  10.763   7.980   2.264 -0.0446  0.8936  0.6164
 1012MOL0     C33492  10.648   8.083   2.246  0.1479 -0.5220 -0.2554
 1012MOL0     C33493  10.502   8.026   2.254  0.5057  0.1440  0.2649
 1012MOL0     C33494  10.457   7.914   2.151  0.1121  0.3325  0.4624
 1012MOL0     C33495  10.319   7.852   2.167  0.2456 -0.3856  0.4788
 1012MOL0    Cl33496  10.197   7.946   2.075  0.5330 -0.3940 -0.3348
 1012MOL0     C33497  11.333   7.953   2.384  0.8421 -0.4376 -0.5061
 1012MOL0     C33498  11.435   8.047   2.374 -1.0619 -0.2511 -0.0537
 1012MOL0     O33499  11.624   8.245   2.484  0.6634  0.0467  0.2810
 1012MOL0     C33500  11.814   8.315   2.187 -0.7053  0.6654  0.6921
 1012MOL0     C33501  11.939   8.375   2.140 -0.0500 -0.0636  0.5994
 1012MOL0     N33502  12.201   8.833   2.607 -0.9025 -0.1248 -1.0577
 1012MOL0     N33503  12.212   8.851   2.735  0.6423  0.7868  0.5028
 1012MOL0     C33504  11.510   8.961   3.108 -0.1794 -0.1813  0.1927
 1012MOL0     C33505  11.371   8.960   3.065  0.2120  0.0409 -0.8511
 1012MOL0     C33506  10.949   8.969   2.962  0.1316 -0.0892  0.3129
 1012MOL0     C33507  10.838   8.895   3.007 -0.6206 -0.2415 -0.3853
 1012MOL0     C33508  10.719   8.902   2.944  0.2282  0.4655  0.4354
 1012MOL0     C33509  10.699   8.978   2.828  0.4341 -0.1595 -0.0586
 1012MOL0     O33510  10.572   8.960   2.773 -0.1092 -0.4592 -0.4767
 1012MOL0     C33511  10.548   9.017   2.642 -0.0791 -0.0579  0.1515
 1012MOL0     C33512  10.428   8.943   2.581 -0.4070  0.0521  0.8451
 1012MOL0     C33513  10.395   8.978   2.438  1.3312  0.3110 -0.0017
 1012MOL0     C33514  10.345   9.129   2.429 -0.6945 -0.1551  0.1389
 1012MOL0     C33515  10.252   9.148   2.316  0.6812 -0.5608 -0.2550
 1012MOL0     C33516  10.175   9.178   2.229  0.3238 -0.0532  0.0461
 1012MOL0     C33517  10.809   9.053   2.780 -0.6529 -0.0050 -0.4641
 1012MOL0     C33518  10.926   9.057   2.857 -0.6900  0.9088 -0.2863
 1012MOL0     H33519  11.275   9.258   3.180  1.4405 -0.7170  3.3259
 1012MOL0     H33520  11.513   9.276   3.240  0.6692 -1.3105  2.9064
 1012MOL0     H33521  11.762   8.888   3.232 -0.3218 -1.0306  1.4719
 1012MOL0     H33522  11.681   8.957   3.376 -1.4841 -1.6655 -1.0822
 1012MOL0     H33523  11.922   8.898   3.371  0.2806 -0.9334  0.0557
 1012MOL0     H33524  11.900   9.066   3.416  2.6416 -0.3131 -0.4810
 1012MOL0     H33525  11.991   9.130   3.215  1.6227 -0.1353  2.6165
 1012MOL0     H33526  11.932   9.007   3.127  0.0276  1.8322  0.5158
 1012MOL0     H33527  12.159   8.938   3.334  0.7301  4.2546 -0.6326
 1012MOL0     H33528  12.104   8.840   3.191 -2.5430  1.9008 -3.1039
 1012MOL0     H33529  12.317   8.952   3.162  0.3768  1.1089 -3.0836
 1012MOL0     H33530  12.247   9.105   3.212 -3.2299 -0.1175  1.6688
 1012MOL0     H33531  12.119   9.120   3.001  2.1389  0.8179 -0.9543
 1012MOL0     H33532  12.141   8.952   2.967 -1.2770  0.7106  0.4783
 1012MOL0     H33533  12.293   9.134   2.860  0.1235 -2.3101 -1.8850
 1012MOL0     H33534  12.386   9.122   3.005  0.2757  4.5641 -2.0613
 1012MOL0     H33535  12.386   8.866   2.950  0.8227  0.8260  0.4358
 1012MOL0     H33536  12.489   8.991   2.876  0.0179 -1.4871  1.8193
 1012MOL0     H33537  12.486   8.997   2.625  0.3667 -0.5012 -0.1763
 1012MOL0     H33538  12.380   8.909   2.337 -0.5040 -0.8483 -0.0133
 1012MOL0     H33539  12.277   9.051   2.368  0.2391  0.2192  0.6670
 1012MOL0     H33540  12.170   8.932   2.218  2.0176 -1.3215 -0.8785
 1012MOL0     H33541  12.070   8.884   2.362 -0.3563  2.1571 -1.6724
 1012MOL0     H33542  12.295   8.704   2.236 -1.6847 -5.0143 -1.4405
 1012MOL0     H33543  12.197   8.674   2.382  0.6787  0.0779  0.2728
 1012MOL0     H33544  12.129   8.734   2.085 -1.8279  0.3975 -0.1438
 1012MOL0     H33545  11.996   8.713   2.194  0.1297  1.0180 -3.2085
 1012MOL0     H33546  11.982   8.562   2.423 -1.3829 -1.3068  1.2157
 1012MOL0     H33547  11.828   8.412   2.515  2.1880  2.2983  0.7675
 1012MOL0     H33548  11.379   8.160   2.066 -0.7952 -0.3373  0.3436
 1012MOL0     H33549  11.183   8.039   2.111  1.1610  2.9660 -0.7398
 1012MOL0     H33550  11.042   8.011   2.467  1.9000  1.2362  0.1615
 1012MOL0     H33551  11.115   7.850   2.501 -0.9524  0.2198  1.5619
 1012MOL0     H33552  10.907   7.806   2.551  2.2787 -0.3200 -1.0089
 1012MOL0     H33553  10.913   7.751   2.382  1.3099  0.9092 -2.3908
 1012MOL0     H33554  10.787   8.011   2.482  3.0660 -1.1018  0.7639
 1012MOL0     H33555  10.700   7.858   2.444  1.5078 -1.3991  0.2429
 1012MOL0     H33556  10.854   8.031   2.231  0.5058  0.3761  1.3204
 1012MOL0     H33557  10.746   7.892   2.201 -1.1363  1.0125  0.7271
 1012MOL0     H33558  10.651   8.121   2.144 -0.1003  0.4229  0.0796
 1012MOL0     H33559  10.673   8.168   2.310 -2.7941  1.0024 -0.9703
 1012MOL0     H33560  10.430   8.108   2.247  0.9005  0.4598 -0.2388
 1012MOL0     H33561  10.478   7.980   2.351  1.7057  0.4299  0.7084
 1012MOL0     H33562  10.454   7.954   2.049 -0.6493  1.3030  0.8580
 1012MOL0     H33563  10.523   7.827   2.143  0.5504  0.7690 -1.0024
 1012MOL0     H33564  10.288   7.847   2.272  0.6677  0.3207  0.6443
 1012MOL0     H33565  10.321   7.746   2.141  1.9516  0.1390 -1.8293
 1012MOL0     H33566  11.317   7.894   2.473  2.8864 -1.7817 -0.9464
 1012MOL0     H33567  11.497   8.035   2.463  0.5708 -1.1381 -1.2665
 1012MOL0     H33568  11.765   8.257   2.110  1.4298 -0.2348 -0.0575
 1012MOL0     H33569  11.959   8.358   2.035  0.0981 -0.5693  0.7067
 1012MOL0     H33570  11.568   8.872   3.086 -1.9054 -1.0055 -1.2026
 1012MOL0     H33571  11.340   8.866   3.021 -2.0074 -0.9790  2.4691
 1012MOL0     H33572  10.840   8.830   3.095 -2.3890  4.0859  3.2300
 1012MOL0     H33573  10.628   8.862   2.987  0.7214 -1.8314 -0.5338
 1012MOL0     H33574  10.636   9.000   2.579 -1.2131  0.9172 -1.7755
 1012MOL0     H33575  10.521   9.121   2.661  3.2098  0.7121  1.2570
 1012MOL0     H33576  10.445   8.836   2.566 -1.1087 -0.0095  0.4056
 1012MOL0     H33577  10.348   8.953   2.654 -0.3434 -0.1864  0.9468
 1012MOL0     H33578  10.312   8.917   2.399 -0.4108  1.3374  1.8934
 1012MOL0     H33579  10.479   8.968   2.370 -0.2639  2.9995 -2.6068
 1012MOL0     H33580  10.276   9.155   2.510 -1.8946  0.1939 -0.9676
 1012MOL0     H33581  10.431   9.196   2.439 -0.1630 -0.9386  0.9600
 1012MOL0     H33582  10.107   9.180   2.147  1.2693  2.3590 -0.7905
 1012MOL0     H33583  10.797   9.116   2.692  1.8014 -0.4900 -1.2195
 1012MOL0     H33584  11.007   9.112   2.810 -2.1898  2.4679 -1.1560
 1013MOL0     O33585   1.453   3.625   7.179 -0.0288  1.2978  0.3531
 1013MOL0     C33586   1.495   3.629   7.292 -0.7430  0.7224  0.7579
 1013MOL0     O33587   1.439   3.567   7.399 -0.1487 -0.3413 -0.1591
 1013MOL0     C33588   1.316   3.512   7.391 -0.1526  0.9822 -0.1492
 1013MOL0     C33589   1.264   3.489   7.519 -0.4541  0.1610  1.0694
 1013MOL0     C33590   1.137   3.429   7.545 -0.2757 -0.4628 -0.6352
 1013MOL0     C33591   1.063   3.397   7.441 -0.6667  0.0767 -0.1864
 1013MOL0     O33592   0.932   3.362   7.458 -0.1890  0.0556  0.6449
 1013MOL0     C33593   0.832   3.360   7.352  0.0999  0.1322  0.1048
 1013MOL0     C33594   0.686   3.352   7.395  0.3618 -0.1767  0.0329
 1013MOL0     C33595   0.649   3.429   7.519  0.5654 -0.0770  0.2121
 1013MOL0     C33596   0.498   3.410   7.550 -0.6020  1.0127  0.0706
 1013MOL0     C33597   0.409   3.472   7.446  0.2726 -0.0530 -0.6730
 1013MOL0     C33598   0.273   3.511   7.499  0.5053  0.4184 -0.0034
 1013MOL0     C33599   0.284   3.634   7.594  0.5293 -0.0385  0.4547
 1013MOL0     C33600   0.152   3.683   7.650 -0.5451  0.3374  0.6451
 1013MOL0     N33601   0.053   3.746   7.553 -0.4348 -1.1713  0.1629
 1013MOL0     C33602   0.077   3.771   7.423  0.7067 -0.4047  0.3981
 1013MOL0     C33603  -0.033   3.845   7.388 -0.6615  0.4860 -0.2003
 1013MOL0     C33604  -0.041   3.916   7.253  0.4305  0.5654  0.2888
 1013MOL0     C33605  -0.013   4.070   7.258  0.4808 -1.1758 -0.2174
 1013MOL0     C33606  -0.112   4.153   7.344  0.0779  0.0716 -0.3024
 1013MOL0     C33607  -0.086   4.308   7.358  1.2937 -0.4020  0.6569
 1013MOL0     O33608  -0.057   4.382   7.230  0.7377 -0.2998  0.1491
 1013MOL0     C33609   0.009   4.505   7.232 -0.5160  0.0546  0.3637
 1013MOL0     C33610   0.088   4.546   7.123  0.4336 -0.7688  1.2452
 1013MOL0     C33611   0.181   4.650   7.125  0.6996  1.0841  0.2091
 1013MOL0     C33612   0.193   4.731   7.238 -0.1209  0.9333  0.0399
 1013MOL0     C33613   0.293   4.847   7.234 -0.1783 -0.8516 -0.9799
 1013MOL0     O33614   0.351   4.898   7.125 -0.3331 -0.3860 -0.5383
 1013MOL0     C33615   0.431   5.015   7.125  0.8257  0.2799  0.4271
 1013MOL0     C33616   0.411   5.097   7.014 -0.4124 -0.5616  0.4054
 1013MOL0     C33617   0.478   5.216   7.010  0.3107 -0.2947  0.1685
 1013MOL0     C33618   0.569   5.259   7.110  0.6888 -0.2357  1.1737
 1013MOL0     O33619   0.645   5.373   7.093 -0.7746 -0.4101 -0.8462
 1013MOL0     C33620   0.635   5.444   6.976  0.7036 -0.3927  0.1780
 1013MOL0     C33621   0.724   5.562   6.980  0.2637 -0.5961 -0.1185
 1013MOL0     C33622   0.763   5.638   6.850  0.0779  0.8073  0.1952
 1013MOL0     C33623   0.812   5.777   6.874 -0.6585 -0.0403 -1.1957
 1013MOL0     C33624   0.847   5.861   6.756  0.2364  0.5607 -0.5600
 1013MOL0     C33625   0.887   6.001   6.795 -0.7265 -0.7968 -0.1043
 1013MOL0     C33626   0.948   6.077   6.675 -0.0981  0.3513  0.4752
 1013MOL0     C33627   0.897   6.219   6.673  0.8891  0.9513 -0.2536
 1013MOL0    Cl33628   0.933   6.285   6.839 -0.3464  0.5616  0.4222
 1013MOL0     C33629   0.596   5.169   7.213 -0.5943 -0.5589 -0.0435
 1013MOL0     C33630   0.523   5.050   7.228  1.2382  1.2069 -0.9054
 1013MOL0     O33631   0.314   4.899   7.350 -0.8710  0.3171  0.0645
 1013MOL0     C33632   0.115   4.691   7.349  0.5411 -0.2401 -0.7376
 1013MOL0     C33633   0.027   4.580   7.352  0.6561 -0.0835 -0.1321
 1013MOL0     N33634  -0.131   3.838   7.488  0.5206 -0.5185  0.8022
 1013MOL0     N33635  -0.078   3.767   7.586  0.1160 -1.3393  1.0441
 1013MOL0     C33636   1.119   3.402   7.310 -0.0913 -0.0899  0.2898
 1013MOL0     C33637   1.245   3.461   7.287  1.0140 -0.6985  0.4507
 1013MOL0     C33638   1.620   3.706   7.323 -0.3267 -0.1585  0.1927
 1013MOL0     C33639   1.708   3.758   7.225  0.2614  0.2963 -0.1506
 1013MOL0     C33640   1.812   3.851   7.269  0.0586  0.6914 -0.2720
 1013MOL0     C33641   1.837   3.881   7.406 -0.2534  0.5011  1.2164
 1013MOL0     O33642   1.942   3.960   7.445 -0.4759  0.8282  0.4536
 1013MOL0     C33643   2.037   4.000   7.338  0.6288  0.8532 -0.3640
 1013MOL0     C33644   2.132   3.890   7.292 -0.8092  0.6195 -0.4503
 1013MOL0     C33645   2.197   3.918   7.150 -0.0820  0.5129  0.1943
 1013MOL0     C33646   2.111   3.869   7.033  0.0167  0.6459 -0.4251
 1013MOL0     C33647   2.061   3.734   7.047 -0.0125  0.9277  0.2348
 1013MOL0     C33648   2.050   3.610   7.038 -0.4380 -0.2019  0.4291
 1013MOL0     C33649   1.752   3.826   7.498  0.7561  0.5148 -0.2388
 1013MOL0     C33650   1.633   3.762   7.453 -0.9246  0.3215 -0.3376
 1013MOL0     H33651   1.334   3.510   7.600 -0.1574  1.5000  0.4716
 1013MOL0     H33652   1.091   3.408   7.641 -0.8356  2.0148 -0.2867
 1013MOL0     H33653   0.840   3.275   7.283 -2.6670  0.5436 -0.8433
 1013MOL0     H33654   0.837   3.458   7.306  1.0944  0.3429  0.6350
 1013MOL0     H33655   0.662   3.247   7.418 -1.0293  0.6492  2.8365
 1013MOL0     H33656   0.625   3.385   7.311  0.8613  0.4081 -0.1091
 1013MOL0     H33657   0.668   3.537   7.511  0.5661 -0.2054 -2.1750
 1013MOL0     H33658   0.705   3.385   7.602  0.9016  0.6480  0.3804
 1013MOL0     H33659   0.471   3.305   7.532  0.1171  1.3622 -3.9509
 1013MOL0     H33660   0.478   3.438   7.654 -0.6641  0.7561  0.1302
 1013MOL0     H33661   0.388   3.392   7.374  1.3678  0.1880 -1.2830
 1013MOL0     H33662   0.466   3.547   7.391 -0.9380  0.8406 -0.7584
 1013MOL0     H33663   0.227   3.422   7.543  2.7873  0.7635  3.4682
 1013MOL0     H33664   0.212   3.527   7.410  1.8764  2.7278 -0.6117
 1013MOL0     H33665   0.358   3.621   7.673 -0.6150  0.1400  1.5953
 1013MOL0     H33666   0.320   3.704   7.518 -2.1916  0.8708 -0.1379
 1013MOL0     H33667   0.177   3.745   7.736  0.1037  0.0902  0.6396
 1013MOL0     H33668   0.107   3.592   7.691  1.1158  0.0789  2.0059
 1013MOL0     H33669   0.164   3.750   7.361  0.8245  1.9692 -0.3326
 1013MOL0     H33670  -0.142   3.889   7.222 -0.3221  1.3089  1.9395
 1013MOL0     H33671   0.023   3.875   7.175 -1.1387  0.3746 -0.9487
 1013MOL0     H33672  -0.010   4.118   7.160  1.7569  0.9251  0.7828
 1013MOL0     H33673   0.090   4.086   7.290  0.2204 -0.3203  0.2244
 1013MOL0     H33674  -0.214   4.135   7.310 -0.8095  3.5402  0.2171
 1013MOL0     H33675  -0.088   4.128   7.448  0.0680  3.7196  0.7134
 1013MOL0     H33676  -0.010   4.318   7.436  1.7380 -0.9070  0.2966
 1013MOL0     H33677  -0.182   4.340   7.400 -0.7285 -4.2887 -0.4396
 1013MOL0     H33678   0.070   4.484   7.036 -2.8311  0.2541  1.0553
 1013MOL0     H33679   0.249   4.665   7.042 -0.0419  2.4096 -0.1902
 1013MOL0     H33680   0.348   5.059   6.934  1.2615 -2.8678  0.0828
 1013MOL0     H33681   0.445   5.288   6.936 -1.3777 -1.0416  0.1610
 1013MOL0     H33682   0.532   5.481   6.969  1.0278  0.3753 -0.8908
 1013MOL0     H33683   0.665   5.387   6.888 -0.8957 -0.4701 -0.3613
 1013MOL0     H33684   0.814   5.526   7.031 -0.2114 -2.4716 -0.5068
 1013MOL0     H33685   0.675   5.634   7.046  0.3151 -0.2157 -0.4933
 1013MOL0     H33686   0.677   5.646   6.782 -1.9145 -3.7460  1.8066
 1013MOL0     H33687   0.840   5.581   6.797 -0.3853  1.3571 -1.1130
 1013MOL0     H33688   0.730   5.821   6.932  1.0007 -0.0984  1.4052
 1013MOL0     H33689   0.904   5.763   6.932  0.8549  0.5681 -3.3221
 1013MOL0     H33690   0.759   5.870   6.692  1.4028 -0.6692 -2.4451
 1013MOL0     H33691   0.932   5.814   6.705  1.6588  2.2386  0.1382
 1013MOL0     H33692   0.957   6.008   6.880 -3.1874 -0.4455  2.0178
 1013MOL0     H33693   0.801   6.053   6.839  0.9852  0.5461  1.8950
 1013MOL0     H33694   1.057   6.086   6.669 -0.2217  4.0038  1.3793
 1013MOL0     H33695   0.916   6.027   6.583  0.7681 -0.0165  0.3625
 1013MOL0     H33696   0.788   6.206   6.664  0.8977  0.9446 -0.3507
 1013MOL0     H33697   0.941   6.273   6.589  1.5500  0.1943 -0.4008
 1013MOL0     H33698   0.680   5.191   7.279  3.6352 -1.6006 -4.5354
 1013MOL0     H33699   0.529   4.991   7.319  0.7361  2.9448  0.3252
 1013MOL0     H33700   0.126   4.746   7.442 -0.8777  0.8382 -1.1841
 1013MOL0     H33701  -0.031   4.562   7.442 -0.6820  2.5836 -0.3454
 1013MOL0     H33702   1.046   3.372   7.235  0.4169  1.9806 -1.1195
 1013MOL0     H33703   1.276   3.464   7.183  1.4720 -3.0987  0.4575
 1013MOL0     H33704   1.711   3.731   7.120  0.2181  0.2594 -0.1424
 1013MOL0     H33705   1.857   3.892   7.179  0.4127 -1.7330 -1.2913
 1013MOL0     H33706   2.096   4.082   7.380 -2.9846  0.9667  5.7850
 1013MOL0     H33707   1.990   4.046   7.251 -1.4778 -1.5986 -0.6387
 1013MOL0     H33708   2.214   3.905   7.364 -0.7383  1.3977 -0.6806
 1013MOL0     H33709   2.084   3.792   7.294 -1.2424  0.6796  4.0102
 1013MOL0     H33710   2.293   3.867   7.147 -0.8772 -1.3008  2.5539
 1013MOL0     H33711   2.215   4.026   7.142  1.5806  0.7154  4.2369
 1013MOL0     H33712   2.028   3.939   7.022  0.3847  1.2508  0.5234
 1013MOL0     H33713   2.170   3.885   6.942 -1.3067  2.1275 -1.0541
 1013MOL0     H33714   2.040   3.507   7.012  0.7026 -0.0968 -0.4956
 1013MOL0     H33715   1.781   3.832   7.603  4.8054 -2.0358 -0.9921
 1013MOL0     H33716   1.557   3.745   7.530 -3.5310 -0.5988 -2.9242
 1014MOL0     O33717   5.450   3.092   5.496  0.4756 -0.2155 -0.9885
 1014MOL0     C33718   5.508   3.032   5.405 -0.0660 -1.0172 -0.6636
 1014MOL0     O33719   5.633   3.060   5.361 -0.3454  0.8649  0.7810
 1014MOL0     C33720   5.706   3.161   5.422 -0.0011  0.0553 -1.2366
 1014MOL0     C33721   5.779   3.128   5.533 -0.5177  0.3114 -0.1771
 1014MOL0     C33722   5.841   3.227   5.600 -0.3758  0.6280  0.0177
 1014MOL0     C33723   5.823   3.358   5.566  0.4318  0.4074 -0.0236
 1014MOL0     O33724   5.879   3.463   5.637 -0.6224 -0.3188  0.2439
 1014MOL0     C33725   5.921   3.452   5.772  0.1529 -0.2265 -0.0311
 1014MOL0     C33726   5.930   3.579   5.856 -0.2137 -0.5593 -0.2072
 1014MOL0     C33727   6.035   3.686   5.799 -0.1831  0.0538  0.0328
 1014MOL0     C33728   6.011   3.821   5.865  0.1345 -0.8198  0.8625
 1014MOL0     C33729   6.091   3.945   5.812 -0.0942  0.4938  0.2027
 1014MOL0     C33730   6.072   4.064   5.898 -0.7751  0.5267  0.1070
 1014MOL0     C33731   5.939   4.146   5.881 -0.3684  0.3412 -0.9962
 1014MOL0     C33732   5.936   4.270   5.978  0.3500  0.8792  0.0868
 1014MOL0     N33733   5.924   4.233   6.114  0.0871 -0.4835  0.5539
 1014MOL0     C33734   5.806   4.168   6.160 -0.8338  0.4803  0.4702
 1014MOL0     C33735   5.816   4.151   6.300 -0.0508  0.7457  1.5572
 1014MOL0     C33736   5.717   4.084   6.390 -0.1445  0.6609  0.0756
 1014MOL0     C33737   5.731   3.931   6.379 -0.2774 -0.5631 -0.0432
 1014MOL0     C33738   5.874   3.869   6.390 -0.4415 -0.4234 -0.3366
 1014MOL0     C33739   5.876   3.714   6.372 -0.5466 -0.8062  0.1782
 1014MOL0     O33740   5.785   3.657   6.465 -0.6018 -1.1402 -0.3618
 1014MOL0     C33741   5.773   3.529   6.472  0.5500  0.1301 -0.7904
 1014MOL0     C33742   5.818   3.432   6.385  0.4822  0.5028 -0.7329
 1014MOL0     C33743   5.792   3.292   6.416  0.4160 -0.0539  0.1664
 1014MOL0     C33744   5.731   3.255   6.548 -0.4313  0.1014  0.8504
 1014MOL0     C33745   5.705   3.114   6.587  0.3330  0.0236  0.2253
 1014MOL0     O33746   5.768   3.018   6.516 -0.2703  0.2585 -0.2217
 1014MOL0     C33747   5.732   2.887   6.540  0.2072 -0.4719  0.5195
 1014MOL0     C33748   5.774   2.824   6.655  0.3913  0.2563 -0.4353
 1014MOL0     C33749   5.723   2.701   6.692 -0.4057  0.2600  0.4692
 1014MOL0     C33750   5.648   2.627   6.600  0.4401  0.2006  0.3115
 1014MOL0     O33751   5.613   2.495   6.615  0.2249  0.9701 -0.7287
 1014MOL0     C33752   5.616   2.441   6.749  0.3051  1.0327  0.4152
 1014MOL0     C33753   5.509   2.340   6.766  0.0415  0.5733 -0.5968
 1014MOL0     C33754   5.515   2.322   6.923 -0.7468 -0.4949  0.6375
 1014MOL0     C33755   5.575   2.191   6.959  0.6306  0.2946  0.1147
 1014MOL0     C33756   5.538   2.145   7.103 -0.4552  0.4308 -0.1917
 1014MOL0     C33757   5.395   2.075   7.091  0.1800 -0.6250 -0.5563
 1014MOL0     C33758   5.362   1.994   7.214  0.1425  0.8551 -0.0023
 1014MOL0     C33759   5.259   1.885   7.189  0.1062  0.6412 -0.0756
 1014MOL0    Cl33760   5.296   1.785   7.052  0.4835 -0.0876 -0.3698
 1014MOL0     C33761   5.623   2.678   6.473 -0.1881  0.2805 -0.8853
 1014MOL0     C33762   5.660   2.809   6.439 -1.2638  0.5211 -0.2432
 1014MOL0     O33763   5.646   3.085   6.688  0.6076 -1.2082 -0.3035
 1014MOL0     C33764   5.698   3.355   6.631  0.3111 -0.2139 -0.2582
 1014MOL0     C33765   5.719   3.488   6.592  0.0637  0.1344 -0.4028
 1014MOL0     N33766   5.946   4.200   6.329 -0.1906  0.8859  0.3129
 1014MOL0     N33767   6.010   4.234   6.220 -0.4319 -1.2129  0.1144
 1014MOL0     C33768   5.744   3.388   5.453 -0.1856 -0.1613 -0.1070
 1014MOL0     C33769   5.681   3.292   5.376  0.2835  0.0501  0.1258
 1014MOL0     C33770   5.439   2.936   5.322 -0.2185 -0.0273 -0.3490
 1014MOL0     C33771   5.493   2.875   5.216  0.0785  0.7362  0.4952
 1014MOL0     C33772   5.422   2.788   5.138 -0.2368 -0.2595  0.1626
 1014MOL0     C33773   5.283   2.770   5.165 -0.3566  0.0521  0.2107
 1014MOL0     O33774   5.195   2.692   5.088 -0.1821  0.1613  0.4674
 1014MOL0     C33775   5.243   2.564   5.042 -0.3314  0.7994 -0.2923
 1014MOL0     C33776   5.249   2.549   4.892 -0.3183  0.5643  0.2543
 1014MOL0     C33777   5.333   2.422   4.859 -1.1325  0.1942  0.1633
 1014MOL0     C33778   5.319   2.380   4.712  0.0879 -0.0138  0.4859
 1014MOL0     C33779   5.195   2.312   4.689  0.4959  0.1394  1.2809
 1014MOL0     C33780   5.096   2.249   4.656 -1.8882 -0.1810 -0.5524
 1014MOL0     C33781   5.229   2.835   5.269  0.0542 -1.2588 -0.5363
 1014MOL0     C33782   5.304   2.918   5.350 -0.4655  0.0806  0.3326
 1014MOL0     H33783   5.787   3.026   5.570 -0.8399  1.4055  3.2616
 1014MOL0     H33784   5.902   3.205   5.687 -2.4575  1.1385  1.7154
 1014MOL0     H33785   6.022   3.409   5.769  0.6898  0.6692  2.3925
 1014MOL0     H33786   5.857   3.376   5.819 -0.6368  0.1720 -0.4460
 1014MOL0     H33787   5.964   3.546   5.954 -2.8373 -0.4625  0.8031
 1014MOL0     H33788   5.831   3.620   5.877  0.1530 -1.2018  3.4887
 1014MOL0     H33789   6.018   3.706   5.692  0.9119 -1.3849 -0.4452
 1014MOL0     H33790   6.142   3.668   5.812 -0.3133  0.2736  1.5514
 1014MOL0     H33791   5.908   3.856   5.856  1.0416  1.8928 -0.1424
 1014MOL0     H33792   6.023   3.819   5.973  0.4199  0.9719  0.8932
 1014MOL0     H33793   6.060   3.968   5.710 -1.3454  1.0220  0.6762
 1014MOL0     H33794   6.197   3.918   5.819 -0.2422 -0.0317  0.4437
 1014MOL0     H33795   6.159   4.131   5.895  1.6352 -2.3293  1.4295
 1014MOL0     H33796   6.066   4.021   5.998 -0.0779 -2.7140 -1.1092
 1014MOL0     H33797   5.944   4.177   5.776  2.3695  1.9747 -0.4706
 1014MOL0     H33798   5.851   4.082   5.894  0.1608 -0.4257 -1.1064
 1014MOL0     H33799   5.851   4.332   5.947  0.0930 -0.6697 -2.6788
 1014MOL0     H33800   6.033   4.319   5.975  1.4289 -1.1919 -2.2682
 1014MOL0     H33801   5.710   4.133   6.124  0.4939 -2.2661 -0.6560
 1014MOL0     H33802   5.616   4.115   6.361 -0.9205 -0.3201  1.6128
 1014MOL0     H33803   5.745   4.117   6.491  0.6208 -0.0116  0.0944
 1014MOL0     H33804   5.696   3.895   6.281 -0.0650 -0.9293  0.0120
 1014MOL0     H33805   5.663   3.887   6.453 -0.2779 -0.0014  0.2957
 1014MOL0     H33806   5.940   3.910   6.313  1.1951 -0.5516  0.9228
 1014MOL0     H33807   5.913   3.886   6.491 -0.6694 -2.6146  0.1841
 1014MOL0     H33808   5.980   3.689   6.395  0.0910  1.1120 -0.4309
 1014MOL0     H33809   5.855   3.688   6.268  1.9663 -1.2175 -0.2809
 1014MOL0     H33810   5.874   3.459   6.296 -0.3514  0.6642 -1.2205
 1014MOL0     H33811   5.823   3.212   6.349  0.6761 -1.9501  2.3833
 1014MOL0     H33812   5.835   2.876   6.728  1.5314  1.9424 -2.5012
 1014MOL0     H33813   5.756   2.650   6.783  1.2219 -3.6303 -2.0154
 1014MOL0     H33814   5.604   2.524   6.819 -2.1809  1.9979 -1.0481
 1014MOL0     H33815   5.711   2.387   6.763  0.0745  1.0211  2.0715
 1014MOL0     H33816   5.547   2.253   6.712 -0.4151  0.2087 -0.3364
 1014MOL0     H33817   5.411   2.375   6.733 -0.1782 -2.1679 -3.2815
 1014MOL0     H33818   5.411   2.316   6.958 -1.1447 -0.5427 -0.5174
 1014MOL0     H33819   5.567   2.401   6.978 -0.0295 -1.5164  1.4560
 1014MOL0     H33820   5.543   2.117   6.885  0.1474  0.3024  0.3070
 1014MOL0     H33821   5.683   2.200   6.952  0.4960  1.1646 -1.2457
 1014MOL0     H33822   5.536   2.229   7.173 -1.3127 -1.4831  2.2110
 1014MOL0     H33823   5.617   2.085   7.150 -0.8850  1.8834  2.5758
 1014MOL0     H33824   5.394   2.015   7.000  1.1657 -1.6191  0.0530
 1014MOL0     H33825   5.320   2.154   7.085  0.8404  0.1801  1.0659
 1014MOL0     H33826   5.451   1.949   7.260  2.1826  1.3573 -3.1435
 1014MOL0     H33827   5.310   2.042   7.297 -2.0623 -2.4561  0.7439
 1014MOL0     H33828   5.169   1.937   7.154 -2.5866 -2.8906  0.9850
 1014MOL0     H33829   5.228   1.830   7.278  1.2998  2.3877  1.4650
 1014MOL0     H33830   5.571   2.610   6.406 -0.1626  1.4209 -2.1050
 1014MOL0     H33831   5.625   2.852   6.346 -4.0671 -0.8837  0.0853
 1014MOL0     H33832   5.645   3.326   6.722 -1.0631 -1.1570 -1.3191
 1014MOL0     H33833   5.682   3.558   6.666  0.9320  0.5849 -0.3829
 1014MOL0     H33834   5.723   3.492   5.432 -0.7252 -0.4286 -0.9273
 1014MOL0     H33835   5.631   3.299   5.279  2.9558 -5.3023 -2.0842
 1014MOL0     H33836   5.600   2.875   5.198 -0.0462 -1.3049 -0.5435
 1014MOL0     H33837   5.473   2.741   5.054  0.2556 -1.2271  0.9768
 1014MOL0     H33838   5.166   2.490   5.066  0.0305 -0.7141 -3.2971
 1014MOL0     H33839   5.343   2.547   5.083  0.6186  1.1563 -2.3277
 1014MOL0     H33840   5.144   2.536   4.861 -0.5957 -0.7540  1.6420
 1014MOL0     H33841   5.296   2.631   4.838 -2.3621  1.5086 -0.1929
 1014MOL0     H33842   5.323   2.345   4.936  0.0167  1.5319  1.7355
 1014MOL0     H33843   5.437   2.456   4.863 -1.0394 -0.1387  0.7068
 1014MOL0     H33844   5.331   2.466   4.646 -2.0379 -0.2748 -0.3095
 1014MOL0     H33845   5.402   2.310   4.696  0.2120 -0.0511  1.2515
 1014MOL0     H33846   5.018   2.182   4.627 -0.9074 -2.0163  0.8618
 1014MOL0     H33847   5.128   2.810   5.302 -1.1680  0.9381 -2.3720
 1014MOL0     H33848   5.263   2.953   5.445 -0.1868  0.2163  0.4031
 1015MOL0     O33849   8.073   2.700   6.739  0.0306  0.1539 -0.1772
 1015MOL0     C33850   8.049   2.783   6.649 -1.0382 -0.6349 -0.6923
 1015MOL0     O33851   8.075   2.758   6.512 -0.4686 -0.3724 -0.8595
 1015MOL0     C33852   8.120   2.644   6.453  0.0774 -0.0368  0.6963
 1015MOL0     C33853   8.121   2.650   6.308  0.1775  0.0955 -0.6775
 1015MOL0     C33854   8.161   2.542   6.228  0.3610 -0.0114 -0.1051
 1015MOL0     C33855   8.168   2.419   6.287 -0.3278  0.1724  0.0266
 1015MOL0     O33856   8.173   2.301   6.212  0.5183  0.6892 -0.2322
 1015MOL0     C33857   8.181   2.307   6.067  0.8929 -0.4574  0.7304
 1015MOL0     C33858   8.086   2.194   6.027 -0.4891  0.1920  0.2740
 1015MOL0     C33859   7.940   2.233   6.072  0.0540  0.3199  0.8148
 1015MOL0     C33860   7.822   2.152   6.002 -0.0293  0.0637 -0.0074
 1015MOL0     C33861   7.841   1.999   6.023  0.3718 -0.1126 -0.5740
 1015MOL0     C33862   7.741   1.911   5.954 -0.1345  1.3798  0.5678
 1015MOL0     C33863   7.772   1.764   5.990  0.8570 -1.1761 -0.1858
 1015MOL0     C33864   7.668   1.677   5.926 -0.1364  1.0504 -0.8182
 1015MOL0     N33865   7.681   1.532   5.979  0.1319 -0.9937  0.1211
 1015MOL0     C33866   7.783   1.435   5.958  0.1959  0.6306  0.9280
 1015MOL0     C33867   7.743   1.325   6.029 -0.5157  0.2852 -1.0090
 1015MOL0     C33868   7.816   1.197   6.057 -0.3315  0.5851  0.5519
 1015MOL0     C33869   7.906   1.151   5.940 -0.8587 -0.3195 -0.0981
 1015MOL0     C33870   7.805   1.107   5.828 -0.7082 -0.1962 -0.2610
 1015MOL0     C33871   7.875   1.095   5.700 -0.0195 -0.6092  1.0843
 1015MOL0     O33872   7.990   1.006   5.696  0.3803  0.1539  0.4161
 1015MOL0     C33873   7.976   0.868   5.650 -0.2522 -0.5662  0.4681
 1015MOL0     C33874   7.853   0.812   5.611 -0.3832  0.6626 -0.5619
 1015MOL0     C33875   7.840   0.685   5.560 -0.7112 -0.2437 -0.0183
 1015MOL0     C33876   7.955   0.610   5.561  0.1804  0.2536  0.3657
 1015MOL0     C33877   7.953   0.472   5.507 -0.4393 -0.6198 -0.1049
 1015MOL0     O33878   8.071   0.418   5.470 -1.5321  0.2380  0.6179
 1015MOL0     C33879   8.087   0.324   5.369  0.2954  0.4389 -0.7295
 1015MOL0     C33880   7.987   0.287   5.281 -0.7856 -0.0899 -0.5055
 1015MOL0     C33881   8.024   0.182   5.191  0.3485  0.7509 -0.1916
 1015MOL0     C33882   8.151   0.131   5.178  0.0708  0.4987 -0.2276
 1015MOL0     O33883   8.198   0.056   5.069  0.4093  0.4011 -0.3993
 1015MOL0     C33884   8.165  -0.081   5.068 -0.1893 -0.0646 -0.8568
 1015MOL0     C33885   8.067  -0.118   4.957 -0.6638  0.2914  0.6804
 1015MOL0     C33886   8.125  -0.143   4.817  0.9594 -0.1076  0.3423
 1015MOL0     C33887   8.020  -0.196   4.713  0.6430 -0.2649  0.2038
 1015MOL0     C33888   8.015  -0.118   4.579 -0.8330 -0.4436  0.5530
 1015MOL0     C33889   7.966  -0.202   4.462 -0.4382 -0.4090  0.1314
 1015MOL0     C33890   7.998  -0.123   4.332 -0.4937 -0.0143 -0.4012
 1015MOL0     C33891   8.004  -0.205   4.216 -0.0903 -0.0878  0.3554
 1015MOL0    Cl33892   7.850  -0.290   4.167  0.2137  0.0208 -0.2493
 1015MOL0     C33893   8.249   0.173   5.264 -0.3854  0.1392 -0.9231
 1015MOL0     C33894   8.215   0.266   5.361 -0.3338 -0.1318 -0.0586
 1015MOL0     O33895   7.848   0.412   5.508 -0.4018 -0.6815  0.5425
 1015MOL0     C33896   8.085   0.664   5.595  0.0202  0.2469 -0.8976
 1015MOL0     C33897   8.088   0.792   5.646  0.0365 -1.0358 -0.0303
 1015MOL0     N33898   7.618   1.354   6.085  0.3071 -0.1272 -0.1619
 1015MOL0     N33899   7.584   1.471   6.050  0.0710 -0.1919 -0.4085
 1015MOL0     C33900   8.179   2.403   6.433 -0.6478 -0.0443  0.3928
 1015MOL0     C33901   8.144   2.513   6.510  0.5086 -0.4019  0.4517
 1015MOL0     C33902   7.965   2.906   6.668 -0.1918  0.2084 -0.2164
 1015MOL0     C33903   7.885   2.964   6.576 -0.0740 -1.3883  0.6056
 1015MOL0     C33904   7.809   3.078   6.612 -0.0299  0.1600  0.3128
 1015MOL0     C33905   7.808   3.128   6.745 -0.1583 -0.0154 -0.3971
 1015MOL0     O33906   7.714   3.221   6.780  0.4670  0.3769 -0.3133
 1015MOL0     C33907   7.656   3.302   6.682  0.8812 -0.9040  0.4691
 1015MOL0     C33908   7.584   3.426   6.740  1.0186 -0.2415 -0.0289
 1015MOL0     C33909   7.658   3.499   6.857 -0.3991  0.3157  1.7418
 1015MOL0     C33910   7.566   3.592   6.953  0.4616  0.0453 -0.7881
 1015MOL0     C33911   7.454   3.503   7.005 -0.9150  0.5966 -0.5762
 1015MOL0     C33912   7.379   3.423   7.052 -0.0084  0.2781  0.4154
 1015MOL0     C33913   7.895   3.066   6.835  0.3814 -1.0515 -0.8112
 1015MOL0     C33914   7.975   2.964   6.794 -0.1682  0.1750  0.1616
 1015MOL0     H33915   8.103   2.739   6.248  2.1921  0.4116 -0.8840
 1015MOL0     H33916   8.174   2.563   6.123  2.0562  0.5049  0.1815
 1015MOL0     H33917   8.283   2.289   6.033  2.5757  2.6156  3.5602
 1015MOL0     H33918   8.144   2.396   6.017 -0.3635  0.1027  2.5496
 1015MOL0     H33919   8.129   2.105   6.074 -0.1878 -0.1825 -0.6821
 1015MOL0     H33920   8.072   2.180   5.920 -0.5872 -0.1118  0.3251
 1015MOL0     H33921   7.923   2.336   6.040  0.5739 -0.2888 -1.6334
 1015MOL0     H33922   7.909   2.220   6.176 -1.0875  1.5755  0.6689
 1015MOL0     H33923   7.727   2.188   6.041  0.3292 -1.2385  2.2018
 1015MOL0     H33924   7.812   2.172   5.895 -0.2410 -3.5598 -0.7848
 1015MOL0     H33925   7.825   1.977   6.128  1.6138  0.2646 -0.2899
 1015MOL0     H33926   7.945   1.990   5.990  1.3964  3.1726  1.3404
 1015MOL0     H33927   7.739   1.930   5.846  4.5478  1.9413  0.3810
 1015MOL0     H33928   7.645   1.947   5.990 -0.4222  1.6602 -0.4301
 1015MOL0     H33929   7.870   1.737   5.951  1.6900  1.2903  0.0506
 1015MOL0     H33930   7.749   1.762   6.097 -0.8310  1.0392 -0.4314
 1015MOL0     H33931   7.697   1.673   5.820  0.2721  2.2362 -0.7662
 1015MOL0     H33932   7.565   1.714   5.934 -0.5034  0.5236 -2.6698
 1015MOL0     H33933   7.879   1.442   5.907 -0.5116  1.3019 -0.3387
 1015MOL0     H33934   7.752   1.113   6.084 -0.0304  1.2850  3.9075
 1015MOL0     H33935   7.889   1.206   6.138 -1.8131 -1.9781  2.3050
 1015MOL0     H33936   7.980   1.076   5.971 -0.2079  0.2578 -0.2281
 1015MOL0     H33937   7.970   1.234   5.908 -0.0795 -0.8854 -0.0535
 1015MOL0     H33938   7.748   1.019   5.862 -1.2891 -0.2698 -1.3801
 1015MOL0     H33939   7.728   1.181   5.804 -1.1275 -0.4023  0.3835
 1015MOL0     H33940   7.912   1.190   5.660 -2.1824 -1.0353 -2.4330
 1015MOL0     H33941   7.806   1.075   5.617  2.9640 -0.0751 -1.7122
 1015MOL0     H33942   7.762   0.871   5.616  0.0273  1.2362  3.1881
 1015MOL0     H33943   7.742   0.653   5.525 -1.3209  3.4346 -2.2793
 1015MOL0     H33944   7.881   0.313   5.281 -0.9556 -0.6591 -1.9891
 1015MOL0     H33945   7.954   0.142   5.118 -0.3308  3.6536 -1.2720
 1015MOL0     H33946   8.116  -0.116   5.159  0.9236 -1.6111 -0.8163
 1015MOL0     H33947   8.255  -0.140   5.050  1.3355  1.5055  1.1470
 1015MOL0     H33948   7.996  -0.035   4.953 -0.0096  1.0417  2.9709
 1015MOL0     H33949   8.011  -0.206   4.991  4.0307 -3.0065  0.8197
 1015MOL0     H33950   8.212  -0.209   4.820  0.7024 -0.4411  0.5755
 1015MOL0     H33951   8.155  -0.043   4.784 -4.8191  1.8466 -0.2351
 1015MOL0     H33952   8.030  -0.304   4.698  1.4802 -0.0139 -1.1390
 1015MOL0     H33953   7.919  -0.178   4.750  0.2376  1.7284 -1.7249
 1015MOL0     H33954   8.116  -0.087   4.550 -0.5857 -1.4502  0.2650
 1015MOL0     H33955   7.960  -0.026   4.600  2.6355  1.5122  1.9075
 1015MOL0     H33956   7.863  -0.236   4.475 -0.2948 -0.2454  1.9216
 1015MOL0     H33957   8.025  -0.294   4.468 -0.2577 -0.2264  1.4600
 1015MOL0     H33958   7.931  -0.037   4.322  0.5857  1.2790  2.4594
 1015MOL0     H33959   8.098  -0.081   4.345 -0.5003 -0.1004 -0.0592
 1015MOL0     H33960   8.095  -0.265   4.213 -0.0417  0.0211 -0.4994
 1015MOL0     H33961   8.024  -0.140   4.131 -1.3680 -1.9965 -1.5183
 1015MOL0     H33962   8.344   0.120   5.260  0.4714  1.4636  0.8189
 1015MOL0     H33963   8.297   0.301   5.422  1.2038 -2.0162 -0.9123
 1015MOL0     H33964   8.173   0.601   5.582  0.8468  1.2991 -0.5549
 1015MOL0     H33965   8.190   0.825   5.661 -0.0622 -0.1344 -1.2257
 1015MOL0     H33966   8.192   2.302   6.469  0.6044 -0.1968 -0.4155
 1015MOL0     H33967   8.158   2.497   6.617 -5.3956 -5.2086  1.0558
 1015MOL0     H33968   7.879   2.921   6.477  3.1049 -2.3660  0.7014
 1015MOL0     H33969   7.748   3.113   6.530 -2.4315  0.1729  1.9895
 1015MOL0     H33970   7.593   3.243   6.614 -1.0899  1.8477 -0.2607
 1015MOL0     H33971   7.733   3.340   6.615  0.7301 -2.4576 -0.6419
 1015MOL0     H33972   7.568   3.509   6.671 -0.1077 -1.4218 -1.2610
 1015MOL0     H33973   7.476   3.411   6.756  0.7714  1.6484  0.3005
 1015MOL0     H33974   7.733   3.565   6.813 -1.3176 -1.0276 -2.2749
 1015MOL0     H33975   7.718   3.432   6.920  1.4378  2.1084  2.0041
 1015MOL0     H33976   7.625   3.615   7.043 -1.5615  1.2998  0.3099
 1015MOL0     H33977   7.528   3.682   6.904 -1.9680 -0.3416  0.2346
 1015MOL0     H33978   7.295   3.361   7.079 -1.7956  1.8562 -1.2198
 1015MOL0     H33979   7.895   3.096   6.940 -2.2594 -0.8953 -0.7879
 1015MOL0     H33980   8.043   2.929   6.871 -1.9929 -4.1531  0.0859
 1016MOL0     O33981   6.118  10.053   8.409 -0.5859 -0.4593 -0.2114
 1016MOL0     C33982   6.197  10.141   8.444  0.0822  0.4375 -0.0486
 1016MOL0     O33983   6.215  10.193   8.575  0.7952 -0.2525 -0.0789
 1016MOL0     C33984   6.142  10.141   8.675 -0.5544 -0.4177  0.5992
 1016MOL0     C33985   6.204  10.049   8.760 -0.4487 -0.1107  0.0024
 1016MOL0     C33986   6.122   9.975   8.854 -0.1257  0.5406  0.8280
 1016MOL0     C33987   5.983   9.991   8.855  0.7766 -0.0052  0.4756
 1016MOL0     O33988   5.901   9.923   8.950  0.0688 -0.3603  0.4716
 1016MOL0     C33989   5.816  10.015   9.027 -0.1474 -0.1761  1.0491
 1016MOL0     C33990   5.695   9.924   9.037  0.8505  0.6870 -1.4047
 1016MOL0     C33991   5.574   9.978   9.109 -0.1895  0.1827 -0.7606
 1016MOL0     C33992   5.450   9.877   9.091 -0.0596  0.4362 -0.9635
 1016MOL0     C33993   5.329   9.916   9.172  0.1709 -0.9847  1.0319
 1016MOL0     C33994   5.207   9.833   9.171 -0.8338 -1.1641  0.5104
 1016MOL0     C33995   5.148   9.827   9.033  0.1396  0.0778  0.7629
 1016MOL0     C33996   5.006   9.758   9.034  0.5561 -0.4314 -0.9425
 1016MOL0     N33997   4.891   9.800   9.124 -0.5856  0.0523  0.2080
 1016MOL0     C33998   4.869   9.787   9.261 -1.0398 -0.7120  0.0317
 1016MOL0     C33999   4.741   9.832   9.288 -0.8242  0.5367  0.4944
 1016MOL0     C34000   4.674   9.819   9.419  0.1432  0.2929  0.7192
 1016MOL0     C34001   4.641   9.671   9.448  0.3267 -0.2065 -0.1587
 1016MOL0     C34002   4.550   9.603   9.346  0.6938 -0.8097 -0.1351
 1016MOL0     C34003   4.589   9.458   9.315  0.4740 -0.6264 -0.9024
 1016MOL0     O34004   4.559   9.371   9.428 -0.6568  0.1767 -0.3434
 1016MOL0     C34005   4.582   9.233   9.397 -0.4339 -0.2215 -0.2216
 1016MOL0     C34006   4.534   9.139   9.492  0.6467 -1.1055  1.1731
 1016MOL0     C34007   4.566   9.010   9.483  0.1957  0.3056  0.1916
 1016MOL0     C34008   4.640   8.952   9.380  0.1047  0.2070  0.4570
 1016MOL0     C34009   4.635   8.807   9.369  0.3184 -0.3188  0.3854
 1016MOL0     O34010   4.561   8.736   9.457 -0.0826 -0.2049  0.3578
 1016MOL0     C34011   4.541   8.606   9.455  0.4412  0.6156 -0.3665
 1016MOL0     C34012   4.604   8.511   9.373 -0.6926 -0.0479  0.9608
 1016MOL0     C34013   4.574   8.375   9.375 -0.4142  0.0151  0.4443
 1016MOL0     C34014   4.486   8.323   9.466  0.3911 -0.0459  0.3984
 1016MOL0     O34015   4.451   8.186   9.452  0.1818 -0.6170  0.3785
 1016MOL0     C34016   4.367   8.120   9.554 -0.3562 -0.5549  0.8520
 1016MOL0     C34017   4.381   7.966   9.578  0.3616  0.1204  0.0859
 1016MOL0     C34018   4.350   7.876   9.455  0.2560 -0.0151  0.4475
 1016MOL0     C34019   4.206   7.839   9.450  0.4967  0.7451  0.5653
 1016MOL0     C34020   4.136   7.844   9.303  0.6489 -0.2563 -0.3149
 1016MOL0     C34021   3.976   7.821   9.320 -0.0585 -0.1666  0.8999
 1016MOL0     C34022   3.934   7.848   9.176  0.9224  0.9925  0.4918
 1016MOL0     C34023   3.816   7.765   9.129 -0.2112 -1.4595  0.5428
 1016MOL0    Cl34024   3.695   7.792   9.256  0.0919 -0.1608 -0.0100
 1016MOL0     C34025   4.419   8.416   9.541 -0.4485 -0.4756  1.0214
 1016MOL0     C34026   4.436   8.558   9.535  0.7752  0.3384  0.4879
 1016MOL0     O34027   4.705   8.768   9.277 -1.0895 -0.0986  0.2632
 1016MOL0     C34028   4.690   9.041   9.278 -1.0703  0.2508  0.3649
 1016MOL0     C34029   4.661   9.183   9.291 -0.3711  0.6469  0.3180
 1016MOL0     N34030   4.699   9.892   9.171  0.2807  0.5783 -0.4805
 1016MOL0     N34031   4.786   9.867   9.083 -0.0826  0.1910 -0.2804
 1016MOL0     C34032   5.926  10.073   8.756  0.4528 -0.2352 -0.2812
 1016MOL0     C34033   6.004  10.156   8.679 -0.2159  0.2651  0.0852
 1016MOL0     C34034   6.289  10.189   8.342  0.6639 -0.5657 -0.7685
 1016MOL0     C34035   6.280  10.145   8.208 -0.4788 -0.5613  0.4806
 1016MOL0     C34036   6.373  10.184   8.117 -0.3532 -0.4173  0.9258
 1016MOL0     C34037   6.467  10.284   8.145 -1.0452 -0.4923 -0.5792
 1016MOL0     O34038   6.542  10.329   8.042  0.0920  0.2070 -0.0114
 1016MOL0     C34039   6.673  10.393   8.061  0.0699 -0.8146 -1.2205
 1016MOL0     C34040   6.793  10.308   8.091 -0.5667  0.3477  0.4761
 1016MOL0     C34041   6.898  10.323   7.979 -0.2061  0.1572 -0.5552
 1016MOL0     C34042   7.030  10.240   8.008 -0.6561  0.4667 -0.2285
 1016MOL0     C34043   7.102  10.285   8.124 -0.1385  0.2022 -1.0438
 1016MOL0     C34044   7.174  10.345   8.204  0.1982 -0.9222 -0.2590
 1016MOL0     C34045   6.473  10.332   8.272  0.5418 -0.7009 -0.4966
 1016MOL0     C34046   6.386  10.285   8.374 -0.4120  0.7991 -0.1417
 1016MOL0     H34047   6.311  10.037   8.770 -0.4245  0.9636  1.4264
 1016MOL0     H34048   6.162   9.906   8.927 -1.7228  0.7988  2.0163
 1016MOL0     H34049   5.784  10.109   8.982  3.4347  0.8498  0.2868
 1016MOL0     H34050   5.862  10.048   9.120 -1.1761  2.2457  0.7604
 1016MOL0     H34051   5.722   9.833   9.091  3.2582  1.1951 -1.6235
 1016MOL0     H34052   5.654   9.899   8.938  0.5434 -1.3152 -0.8174
 1016MOL0     H34053   5.549  10.075   9.065  0.2441  1.3473  1.3678
 1016MOL0     H34054   5.594   9.991   9.216  2.4346 -0.6552 -1.0707
 1016MOL0     H34055   5.424   9.877   8.985 -0.4625 -0.8509 -0.8862
 1016MOL0     H34056   5.480   9.775   9.118  0.7700  0.5218 -1.5443
 1016MOL0     H34057   5.306  10.016   9.136 -0.4382 -0.8822  1.6938
 1016MOL0     H34058   5.356   9.935   9.276 -0.7198 -0.4675  1.1822
 1016MOL0     H34059   5.131   9.877   9.235  1.1158  2.9973  0.2973
 1016MOL0     H34060   5.229   9.734   9.211  0.8648 -1.1707 -0.3199
 1016MOL0     H34061   5.146   9.923   8.979  1.3861 -1.6518 -2.6853
 1016MOL0     H34062   5.222   9.773   8.973  1.4269  1.7768  0.7207
 1016MOL0     H34063   5.017   9.654   9.068  1.3958  0.2958  1.1340
 1016MOL0     H34064   4.978   9.756   8.928 -0.0705  0.6671 -0.8089
 1016MOL0     H34065   4.934   9.752   9.341 -1.8191  0.0894  1.0439
 1016MOL0     H34066   4.586   9.885   9.416 -1.3724 -1.6525 -1.9538
 1016MOL0     H34067   4.738   9.858   9.498 -0.2077  0.8655  0.7260
 1016MOL0     H34068   4.592   9.665   9.546  1.0304 -0.9587  0.1622
 1016MOL0     H34069   4.732   9.609   9.446  2.2006  2.3719 -0.2851
 1016MOL0     H34070   4.447   9.621   9.378  0.7993 -1.0193  0.3229
 1016MOL0     H34071   4.562   9.646   9.246  1.8304 -0.4550  0.1508
 1016MOL0     H34072   4.697   9.460   9.297  1.2866 -1.7029  2.8884
 1016MOL0     H34073   4.532   9.435   9.225 -0.6764 -2.1289  0.1524
 1016MOL0     H34074   4.456   9.181   9.555 -1.7491  1.1877 -2.9280
 1016MOL0     H34075   4.525   8.950   9.565 -2.5758  2.0093  0.1909
 1016MOL0     H34076   4.684   8.547   9.309  0.2366 -1.6904  1.1316
 1016MOL0     H34077   4.618   8.303   9.307  0.0117  0.7934 -0.1120
 1016MOL0     H34078   4.263   8.144   9.529 -0.1314  0.1057  0.5153
 1016MOL0     H34079   4.394   8.163   9.651 -1.6616  3.3689 -0.3281
 1016MOL0     H34080   4.321   7.950   9.668  1.8244 -0.4019  1.0057
 1016MOL0     H34081   4.485   7.937   9.598  0.2436 -3.1998 -3.2021
 1016MOL0     H34082   4.405   7.786   9.484  0.3110  0.2935  1.3530
 1016MOL0     H34083   4.386   7.916   9.360 -4.5682  1.6456 -0.9712
 1016MOL0     H34084   4.207   7.736   9.488 -0.0027  0.2385 -0.7486
 1016MOL0     H34085   4.145   7.891   9.524  0.1161 -1.1801  1.6862
 1016MOL0     H34086   4.181   7.766   9.241 -1.1619 -0.0800 -1.9397
 1016MOL0     H34087   4.153   7.942   9.257 -4.3844  2.1176  2.1244
 1016MOL0     H34088   3.935   7.898   9.386 -1.6567 -0.0527 -0.1472
 1016MOL0     H34089   3.945   7.724   9.362 -0.3181  0.5654  2.4495
 1016MOL0     H34090   3.911   7.954   9.165  0.4577  0.8290 -0.2050
 1016MOL0     H34091   4.021   7.842   9.110  0.9874  0.0708  0.6525
 1016MOL0     H34092   3.855   7.663   9.123  0.3666 -1.2307  0.3189
 1016MOL0     H34093   3.790   7.812   9.034  2.3101 -0.6526  0.1633
 1016MOL0     H34094   4.336   8.381   9.602  0.6137 -1.8132  1.7642
 1016MOL0     H34095   4.375   8.620   9.599  1.4415  0.1259  1.3579
 1016MOL0     H34096   4.726   9.008   9.181 -2.2025  1.5905 -0.5590
 1016MOL0     H34097   4.681   9.242   9.202  0.2750 -1.9438 -1.3556
 1016MOL0     H34098   5.819  10.090   8.746  0.5672 -0.0148 -1.2735
 1016MOL0     H34099   5.948  10.212   8.604 -2.7054 -2.5710 -0.3529
 1016MOL0     H34100   6.206  10.072   8.176 -0.0053 -0.1657 -1.6720
 1016MOL0     H34101   6.358  10.162   8.012  1.4173 -1.2975  0.8080
 1016MOL0     H34102   6.670  10.479   8.128  2.4249 -0.6204 -1.2631
 1016MOL0     H34103   6.685  10.435   7.961  3.5239  0.0989 -0.5734
 1016MOL0     H34104   6.842  10.337   8.185  0.8053 -0.3296  0.0002
 1016MOL0     H34105   6.762  10.205   8.109 -0.0138  0.5342  2.7683
 1016MOL0     H34106   6.918  10.430   7.971  1.2771  0.3171  3.3425
 1016MOL0     H34107   6.856  10.288   7.884  2.1905 -0.3483 -1.4919
 1016MOL0     H34108   7.008  10.133   8.021 -0.2935  0.5286  1.0326
 1016MOL0     H34109   7.104  10.246   7.928 -2.3122  3.4561 -1.7026
 1016MOL0     H34110   7.235  10.401   8.272  0.6001 -0.7902 -0.7244
 1016MOL0     H34111   6.535  10.416   8.302  1.7780 -1.8830  0.4062
 1016MOL0     H34112   6.393  10.344   8.465  4.2471 -0.6832  0.7130
 1017MOL0     O34113  10.891   8.709   9.109  0.3583  0.8142  0.1131
 1017MOL0     C34114  10.975   8.794   9.091  0.2801 -0.3322 -0.0488
 1017MOL0     O34115  11.094   8.774   9.011 -0.1549 -0.6256 -0.4143
 1017MOL0     C34116  11.112   8.651   8.955 -0.7756  0.9841 -0.8338
 1017MOL0     C34117  11.210   8.570   9.012  0.1535  0.0500  0.7175
 1017MOL0     C34118  11.246   8.439   8.951  0.4784 -0.7028 -0.8671
 1017MOL0     C34119  11.171   8.399   8.843  0.0268  1.1837 -0.4098
 1017MOL0     O34120  11.204   8.274   8.788  0.3941 -0.2784 -1.6085
 1017MOL0     C34121  11.105   8.183   8.758  0.5044  0.0827  0.2626
 1017MOL0     C34122  11.055   8.189   8.611  0.7449  0.1630  0.5816
 1017MOL0     C34123  11.071   8.062   8.513 -0.0490 -0.1337  0.4551
 1017MOL0     C34124  11.086   8.115   8.369 -0.0280 -0.0686  0.0301
 1017MOL0     C34125  11.072   8.025   8.242 -0.1488 -0.3700 -0.0524
 1017MOL0     C34126  10.929   7.972   8.239  0.3358  0.0332  0.6155
 1017MOL0     C34127  10.894   7.917   8.104  0.0215 -0.7221  0.9806
 1017MOL0     C34128  10.739   7.924   8.082  0.0476 -0.7486  0.3854
 1017MOL0     N34129  10.695   8.057   8.042 -0.3242  0.6756 -0.6134
 1017MOL0     C34130  10.653   8.156   8.131  0.4713 -0.0083 -0.0715
 1017MOL0     C34131  10.655   8.277   8.062 -0.7035  0.1857  0.7779
 1017MOL0     C34132  10.661   8.422   8.096  0.9011  0.4679 -1.9791
 1017MOL0     C34133  10.542   8.453   8.188 -0.3822 -0.7023 -0.0484
 1017MOL0     C34134  10.523   8.603   8.189  1.0034 -0.0756 -0.0463
 1017MOL0     C34135  10.413   8.655   8.281 -0.0200  0.4998  0.1910
 1017MOL0     O34136  10.406   8.801   8.304 -0.4468 -0.7524 -0.0402
 1017MOL0     C34137  10.382   8.890   8.197 -0.6647 -1.3638 -0.4433
 1017MOL0     C34138  10.470   8.979   8.145 -0.5631  0.0768 -1.0095
 1017MOL0     C34139  10.431   9.076   8.053  0.4582  0.3689 -1.1491
 1017MOL0     C34140  10.308   9.077   7.997  0.0342  1.0020 -0.4321
 1017MOL0     C34141  10.276   9.199   7.912 -0.6664 -0.1247  0.2904
 1017MOL0     O34142  10.375   9.295   7.893 -0.5198  0.5078 -0.9591
 1017MOL0     C34143  10.338   9.401   7.817 -0.4067 -0.2094 -0.2970
 1017MOL0     C34144  10.334   9.377   7.681 -0.1111 -1.2473 -0.0880
 1017MOL0     C34145  10.289   9.485   7.596 -0.8078 -0.0602 -0.3440
 1017MOL0     C34146  10.270   9.612   7.653  0.2391  0.2772 -0.3373
 1017MOL0     O34147  10.214   9.719   7.586 -0.6196 -0.7577  0.5037
 1017MOL0     C34148  10.123   9.681   7.479  0.3782  0.3643  0.3961
 1017MOL0     C34149  10.045   9.811   7.430  0.8328  0.0808  0.5181
 1017MOL0     C34150  10.133   9.887   7.331 -0.7140  0.4718 -0.5941
 1017MOL0     C34151  10.068  10.023   7.301 -0.4730 -0.2248 -0.5969
 1017MOL0     C34152  10.163  10.099   7.199  0.3690  0.4042  1.4270
 1017MOL0     C34153  10.289  10.127   7.260 -0.0478 -0.1040  0.2098
 1017MOL0     C34154  10.305  10.206   7.381 -0.1696 -0.7843 -0.6149
 1017MOL0     C34155  10.242  10.347   7.369  0.2265  0.3634 -0.7741
 1017MOL0    Cl34156  10.245  10.404   7.543 -0.0470 -0.2146  0.0242
 1017MOL0     C34157  10.288   9.634   7.793 -0.6084  0.2095  0.6449
 1017MOL0     C34158  10.323   9.529   7.875 -0.2126  0.0143  0.8815
 1017MOL0     O34159  10.155   9.208   7.879  0.4791 -0.6405  0.5047
 1017MOL0     C34160  10.216   8.983   8.044  0.5156  1.0893  0.5991
 1017MOL0     C34161  10.255   8.893   8.141  0.3912  0.5330 -0.0466
 1017MOL0     N34162  10.702   8.244   7.934 -0.4177  1.0424  0.8295
 1017MOL0     N34163  10.714   8.108   7.927 -0.3145 -0.4433  0.6003
 1017MOL0     C34164  11.066   8.479   8.792  0.1722  0.1336 -0.6353
 1017MOL0     C34165  11.031   8.597   8.849  0.3817  0.0286 -0.6028
 1017MOL0     C34166  10.948   8.934   9.145  0.9624  0.6691 -0.8098
 1017MOL0     C34167  10.815   8.967   9.165  0.1331  0.0141  0.1197
 1017MOL0     C34168  10.773   9.092   9.187  0.4164  0.8380 -0.5467
 1017MOL0     C34169  10.856   9.196   9.218  0.2752 -0.5480 -0.0807
 1017MOL0     O34170  10.828   9.315   9.264 -0.2195  0.5055  0.4335
 1017MOL0     C34171  10.690   9.353   9.308 -0.1836 -0.1522 -0.0549
 1017MOL0     C34172  10.596   9.391   9.194 -0.9594 -0.2351  0.1395
 1017MOL0     C34173  10.451   9.415   9.240  0.3142 -0.8695 -0.8288
 1017MOL0     C34174  10.368   9.481   9.130 -0.3970 -0.3924  0.0386
 1017MOL0     C34175  10.240   9.542   9.169  0.4804 -0.2427  1.4313
 1017MOL0     C34176  10.133   9.592   9.184  0.1821  0.3898 -0.1026
 1017MOL0     C34177  10.987   9.170   9.188 -0.1717  1.1996  0.5021
 1017MOL0     C34178  11.034   9.039   9.154 -0.6183 -0.0481  0.2306
 1017MOL0     H34179  11.292   8.602   9.076  0.2800 -0.7789  0.9860
 1017MOL0     H34180  11.331   8.379   8.981  0.5495 -0.6542 -0.9709
 1017MOL0     H34181  11.015   8.189   8.819 -0.4825  0.4503 -1.1729
 1017MOL0     H34182  11.151   8.085   8.774  2.5468  0.9467  0.0643
 1017MOL0     H34183  11.098   8.281   8.570  1.4021 -0.4225 -0.0594
 1017MOL0     H34184  10.946   8.198   8.606  0.8051  0.2379 -1.6273
 1017MOL0     H34185  10.998   7.983   8.532 -0.7160  0.0282 -1.2203
 1017MOL0     H34186  11.172   8.024   8.534 -0.2273 -1.7534 -1.3264
 1017MOL0     H34187  11.029   8.208   8.359 -0.6084  0.0434  3.3370
 1017MOL0     H34188  11.189   8.150   8.351 -0.8592  2.7110  0.2140
 1017MOL0     H34189  11.143   7.942   8.253 -0.0859 -0.4654 -1.0741
 1017MOL0     H34190  11.104   8.086   8.157  2.0678  0.6126  1.4098
 1017MOL0     H34191  10.856   8.050   8.259  1.5375  1.7847 -1.3141
 1017MOL0     H34192  10.904   7.901   8.318 -0.6876  1.0671  1.2414
 1017MOL0     H34193  10.923   7.981   8.020 -2.9024  1.8295  1.7053
 1017MOL0     H34194  10.932   7.816   8.091  0.9151 -0.6491  2.7086
 1017MOL0     H34195  10.695   7.882   8.173 -5.0292  0.3251 -1.2519
 1017MOL0     H34196  10.687   7.871   8.002 -2.2437  0.8190  0.7434
 1017MOL0     H34197  10.615   8.141   8.232 -0.4769  1.4042 -0.1803
 1017MOL0     H34198  10.657   8.470   7.998  0.5539  0.1599 -2.1181
 1017MOL0     H34199  10.751   8.452   8.151  1.5324  0.1189 -2.7850
 1017MOL0     H34200  10.564   8.426   8.291  0.8923  1.1782  0.2314
 1017MOL0     H34201  10.445   8.417   8.152 -0.3988  1.1539 -2.0769
 1017MOL0     H34202  10.614   8.658   8.215 -0.6634  2.0080  1.6768
 1017MOL0     H34203  10.501   8.630   8.085  1.3817  1.5059  0.2654
 1017MOL0     H34204  10.422   8.597   8.373  4.3970  0.2901 -0.1983
 1017MOL0     H34205  10.316   8.626   8.240 -0.3639 -0.6046  1.6924
 1017MOL0     H34206  10.564   8.983   8.199 -0.0871 -0.6914 -1.7480
 1017MOL0     H34207  10.497   9.158   8.026  0.3226 -0.0040 -2.7464
 1017MOL0     H34208  10.337   9.273   7.652 -1.9899 -1.0481 -1.1916
 1017MOL0     H34209  10.266   9.453   7.495  1.1672 -0.1946 -0.8058
 1017MOL0     H34210  10.050   9.611   7.522 -1.2238  0.0808 -2.5618
 1017MOL0     H34211  10.164   9.640   7.386  0.0609  2.0567 -0.5273
 1017MOL0     H34212  10.015   9.873   7.515 -2.4333 -0.6395  0.0127
 1017MOL0     H34213   9.963   9.776   7.367  0.3232  3.5641 -0.9968
 1017MOL0     H34214  10.149   9.832   7.238 -0.4743  0.6713 -0.6724
 1017MOL0     H34215  10.233   9.893   7.376 -1.8295  1.2844  1.9755
 1017MOL0     H34216   9.968   9.996   7.265  0.2745 -1.9461 -1.4945
 1017MOL0     H34217  10.059  10.084   7.392  0.7171  0.5461 -0.9723
 1017MOL0     H34218  10.109  10.187   7.162  0.5333  0.1464  0.5491
 1017MOL0     H34219  10.192  10.032   7.118  2.3410  1.3359  1.3194
 1017MOL0     H34220  10.343  10.177   7.179 -2.5963 -0.8306 -2.0968
 1017MOL0     H34221  10.341  10.033   7.281 -0.9053 -0.7105 -0.2936
 1017MOL0     H34222  10.266  10.151   7.467  1.8208 -0.1643  0.7508
 1017MOL0     H34223  10.412  10.222   7.396  0.0731 -1.8406 -1.0786
 1017MOL0     H34224  10.143  10.342   7.323 -1.2465  1.7392  1.9771
 1017MOL0     H34225  10.291  10.421   7.306 -2.8552  1.4825 -2.0470
 1017MOL0     H34226  10.264   9.735   7.826 -1.3659  0.9194 -1.8203
 1017MOL0     H34227  10.342   9.552   7.979 -2.6549  2.6622  0.8591
 1017MOL0     H34228  10.116   8.978   8.004 -0.4700  0.4070  2.9442
 1017MOL0     H34229  10.183   8.825   8.186  0.3868 -0.2118 -1.1496
 1017MOL0     H34230  11.009   8.441   8.708 -0.3243 -1.7399  0.5068
 1017MOL0     H34231  10.949   8.657   8.808 -0.2103  1.0616  1.9070
 1017MOL0     H34232  10.738   8.891   9.154  0.3612 -0.1551 -0.3432
 1017MOL0     H34233  10.667   9.110   9.204  0.7289  2.2854 -0.0116
 1017MOL0     H34234  10.690   9.431   9.385  1.4496 -1.6781  1.5701
 1017MOL0     H34235  10.643   9.267   9.357 -0.3991 -0.5884 -1.0175
 1017MOL0     H34236  10.633   9.482   9.145 -1.2389  0.7593  1.6985
 1017MOL0     H34237  10.608   9.318   9.114 -0.1804  0.6219 -0.5475
 1017MOL0     H34238  10.467   9.480   9.327  1.3226 -1.1566 -0.7866
 1017MOL0     H34239  10.411   9.323   9.285  0.0881  0.2910  1.5198
 1017MOL0     H34240  10.413   9.571   9.087  0.1569 -0.2611  0.8535
 1017MOL0     H34241  10.340   9.397   9.066  1.3113  1.1748 -3.0204
 1017MOL0     H34242  10.054   9.663   9.199  1.2797  1.3972  1.2067
 1017MOL0     H34243  11.067   9.238   9.216  1.0457  0.8319 -1.7825
 1017MOL0     H34244  11.140   9.026   9.138 -0.8754 -1.9593 -0.2454
 1018MOL0     O34245   4.754   1.916   2.955  1.1470 -0.2385  0.3910
 1018MOL0     C34246   4.868   1.884   2.928 -0.8807 -0.1613  0.7702
 1018MOL0     O34247   4.986   1.918   2.988  0.2671  0.4572 -0.1287
 1018MOL0     C34248   4.970   1.997   3.100  0.5595 -0.2717  0.1306
 1018MOL0     C34249   5.014   1.952   3.222 -0.6044  0.7559 -0.2567
 1018MOL0     C34250   5.014   2.027   3.342  0.2731  0.6608  0.3734
 1018MOL0     C34251   4.972   2.156   3.331  0.3332  0.4726 -0.8123
 1018MOL0     O34252   4.990   2.234   3.448  0.2625 -0.2192  0.5709
 1018MOL0     C34253   5.118   2.256   3.497 -0.2288 -0.5876 -0.0347
 1018MOL0     C34254   5.119   2.389   3.566 -0.6235 -0.1112 -0.0873
 1018MOL0     C34255   5.121   2.508   3.477 -0.1586 -0.4731 -0.3178
 1018MOL0     C34256   5.160   2.634   3.551  0.0617 -0.1309 -0.3431
 1018MOL0     C34257   5.164   2.760   3.454  0.0257  1.1423 -0.5528
 1018MOL0     C34258   5.181   2.881   3.534  0.5676  0.2617 -0.2717
 1018MOL0     C34259   5.158   3.004   3.443 -0.3702 -0.8909 -0.0032
 1018MOL0     C34260   5.167   3.134   3.517 -0.0965 -0.9419  0.8790
 1018MOL0     N34261   5.185   3.243   3.418 -0.2351  0.6036  0.1215
 1018MOL0     C34262   5.289   3.246   3.325  0.7005  0.3715 -0.0238
 1018MOL0     C34263   5.255   3.352   3.245 -0.3913  0.2293  0.4017
 1018MOL0     C34264   5.319   3.394   3.114 -0.7638  0.2100  0.5132
 1018MOL0     C34265   5.450   3.480   3.147  1.2924 -0.3389  0.2754
 1018MOL0     C34266   5.475   3.585   3.025  0.3536  0.1793  0.6220
 1018MOL0     C34267   5.586   3.691   3.058 -0.0043  0.2920  0.0615
 1018MOL0     O34268   5.712   3.626   3.080  0.3744  0.1417  0.0921
 1018MOL0     C34269   5.819   3.702   3.122  0.3300 -0.8872  0.0369
 1018MOL0     C34270   5.838   3.839   3.108  0.4840  0.8776 -0.2026
 1018MOL0     C34271   5.953   3.900   3.162  0.5129 -0.0187 -0.2937
 1018MOL0     C34272   6.049   3.824   3.230 -0.1655  0.5915  0.8312
 1018MOL0     C34273   6.155   3.890   3.300 -0.2570  0.1250  0.3648
 1018MOL0     O34274   6.207   3.839   3.414  0.1771  0.8603  0.5019
 1018MOL0     C34275   6.298   3.905   3.500 -0.1711 -0.3635  0.0280
 1018MOL0     C34276   6.347   3.823   3.599 -0.9677 -0.0097  0.1138
 1018MOL0     C34277   6.432   3.876   3.697 -0.0462 -0.2507 -0.1072
 1018MOL0     C34278   6.463   4.007   3.712 -0.3159 -0.2785  0.3900
 1018MOL0     O34279   6.537   4.065   3.815  0.3937 -1.1527 -0.4477
 1018MOL0     C34280   6.558   3.990   3.937  0.3166  0.3120 -0.7397
 1018MOL0     C34281   6.612   4.095   4.033  0.3126  0.5086  0.7987
 1018MOL0     C34282   6.712   4.043   4.132 -0.1500 -0.5385  0.2985
 1018MOL0     C34283   6.770   4.153   4.213 -0.1964 -1.1603 -0.8289
 1018MOL0     C34284   6.878   4.098   4.305  0.3772  0.2139  0.1406
 1018MOL0     C34285   6.907   4.183   4.429 -1.2500 -0.1658 -0.7658
 1018MOL0     C34286   6.965   4.318   4.386  0.1103 -0.3202  0.0704
 1018MOL0     C34287   6.966   4.416   4.499  0.5081  0.3296  0.2959
 1018MOL0    Cl34288   7.065   4.370   4.633 -0.1283 -0.1378 -0.2916
 1018MOL0     C34289   6.408   4.097   3.627  0.0225  0.4178  0.7273
 1018MOL0     C34290   6.332   4.046   3.514  0.2522 -0.9035  0.4537
 1018MOL0     O34291   6.195   3.999   3.244 -0.1270 -0.0891  0.7937
 1018MOL0     C34292   6.036   3.689   3.238  0.5445  0.8160  0.4918
 1018MOL0     C34293   5.926   3.631   3.178 -0.2941  0.4136 -0.6911
 1018MOL0     N34294   5.133   3.402   3.292  0.8812 -0.0595  0.1554
 1018MOL0     N34295   5.095   3.336   3.397 -0.4947 -0.1218 -0.1998
 1018MOL0     C34296   4.917   2.206   3.211  0.6700  0.8220  0.2983
 1018MOL0     C34297   4.911   2.125   3.097  0.3836  0.2311 -0.5267
 1018MOL0     C34298   4.863   1.805   2.805 -1.5339  0.2113 -0.1323
 1018MOL0     C34299   4.750   1.746   2.740  0.2445  0.2735 -0.0178
 1018MOL0     C34300   4.769   1.678   2.624  0.1587 -0.5823  0.0136
 1018MOL0     C34301   4.891   1.673   2.561  0.2506  0.0490  1.0814
 1018MOL0     O34302   4.900   1.623   2.433 -0.2947  0.0562  0.4285
 1018MOL0     C34303   4.982   1.508   2.423  0.3059  0.1234  0.4517
 1018MOL0     C34304   4.949   1.431   2.297  0.2180  1.0798 -0.2914
 1018MOL0     C34305   5.017   1.297   2.294 -0.0823 -0.6607  1.1880
 1018MOL0     C34306   5.015   1.242   2.155  0.4459  0.5884 -0.7180
 1018MOL0     C34307   5.112   1.296   2.062  0.5774 -0.3667  0.5099
 1018MOL0     C34308   5.185   1.357   1.985  0.0505  0.9995  0.6808
 1018MOL0     C34309   5.000   1.741   2.613 -0.5392 -0.4159  0.1949
 1018MOL0     C34310   4.987   1.800   2.739  0.6860  0.1515 -0.3169
 1018MOL0     H34311   5.050   1.849   3.218  3.1935  1.9962 -2.2824
 1018MOL0     H34312   5.039   1.976   3.435 -0.6389 -0.1533  0.1889
 1018MOL0     H34313   5.194   2.261   3.419 -0.3594 -2.1148 -0.2873
 1018MOL0     H34314   5.140   2.175   3.567 -5.4706 -0.7106  1.9703
 1018MOL0     H34315   5.211   2.393   3.625 -1.0444  1.0531  0.5306
 1018MOL0     H34316   5.040   2.402   3.640 -0.8206 -0.1081 -0.2982
 1018MOL0     H34317   5.020   2.505   3.436 -0.3092 -0.7913  0.0590
 1018MOL0     H34318   5.192   2.496   3.395  0.4307 -0.0103  0.1214
 1018MOL0     H34319   5.095   2.639   3.639  3.3533 -1.6636  2.4000
 1018MOL0     H34320   5.261   2.636   3.594 -0.8032  1.7487  1.8149
 1018MOL0     H34321   5.067   2.759   3.403 -0.7530 -1.0484  0.8229
 1018MOL0     H34322   5.239   2.764   3.375 -2.2830  1.7621 -2.8522
 1018MOL0     H34323   5.286   2.881   3.567 -0.0001  1.0748  1.6632
 1018MOL0     H34324   5.104   2.890   3.612 -0.5582  1.9401 -1.5326
 1018MOL0     H34325   5.230   3.010   3.361  0.7649  1.5856  1.0611
 1018MOL0     H34326   5.056   3.006   3.404  0.2929 -0.9634 -1.8506
 1018MOL0     H34327   5.259   3.140   3.577  0.2539 -2.1107  0.4896
 1018MOL0     H34328   5.085   3.152   3.588 -0.0624  1.1910  0.4421
 1018MOL0     H34329   5.377   3.184   3.330 -0.7138 -1.8283 -1.0701
 1018MOL0     H34330   5.245   3.451   3.057 -0.8404  1.1379  1.5196
 1018MOL0     H34331   5.348   3.306   3.055  0.2682 -1.1182  2.8709
 1018MOL0     H34332   5.535   3.421   3.180  0.0058 -1.7165  1.2499
 1018MOL0     H34333   5.441   3.537   3.240  2.3364  0.2370  0.0361
 1018MOL0     H34334   5.495   3.532   2.932 -1.9576 -0.7634  0.5886
 1018MOL0     H34335   5.380   3.634   2.999 -0.7351 -1.4310  1.3888
 1018MOL0     H34336   5.552   3.742   3.148 -3.7565 -1.3457 -0.2405
 1018MOL0     H34337   5.591   3.761   2.974 -2.9499 -1.1056 -1.4453
 1018MOL0     H34338   5.752   3.887   3.062 -1.1421 -0.3864  1.3171
 1018MOL0     H34339   5.970   4.007   3.165  0.7233 -0.0360  2.7852
 1018MOL0     H34340   6.325   3.717   3.589  3.4059 -1.0476 -0.5532
 1018MOL0     H34341   6.476   3.799   3.759  0.8040  1.5769  1.6954
 1018MOL0     H34342   6.629   3.909   3.921  2.4099  1.6748  1.1954
 1018MOL0     H34343   6.463   3.959   3.982  0.6534 -0.6810 -0.6902
 1018MOL0     H34344   6.529   4.128   4.096 -0.1111  1.7256 -0.3680
 1018MOL0     H34345   6.642   4.182   3.975  0.5108 -0.5625 -0.7643
 1018MOL0     H34346   6.796   3.979   4.100  0.5490  0.3194  0.3672
 1018MOL0     H34347   6.653   3.982   4.202  2.7754 -2.7947  1.0164
 1018MOL0     H34348   6.807   4.230   4.145 -0.0414  0.9079  1.4760
 1018MOL0     H34349   6.695   4.205   4.273 -1.6737  0.8399 -4.1251
 1018MOL0     H34350   6.969   4.073   4.249 -0.3238 -1.9237 -0.1249
 1018MOL0     H34351   6.837   4.002   4.338 -1.0175  0.5053 -0.6652
 1018MOL0     H34352   6.983   4.138   4.494 -1.2603  2.5730  1.2783
 1018MOL0     H34353   6.815   4.198   4.485  0.1290 -0.8392  1.8234
 1018MOL0     H34354   7.066   4.286   4.359  1.6492 -0.6467  5.2948
 1018MOL0     H34355   6.908   4.369   4.308 -2.5457  1.1620  2.7815
 1018MOL0     H34356   6.868   4.441   4.540  1.4993  2.9027  1.3395
 1018MOL0     H34357   6.997   4.508   4.448 -1.1944  0.4986 -0.5010
 1018MOL0     H34358   6.412   4.205   3.631 -1.2923  0.6049 -1.3693
 1018MOL0     H34359   6.285   4.117   3.447  1.7451 -0.7886 -0.5117
 1018MOL0     H34360   6.102   3.613   3.278 -2.4856 -2.7187 -0.6739
 1018MOL0     H34361   5.915   3.524   3.192 -0.3998  0.6659  1.6838
 1018MOL0     H34362   4.870   2.304   3.213 -1.2502 -0.0329 -0.4890
 1018MOL0     H34363   4.856   2.162   3.010  0.7462 -0.7550 -1.1960
 1018MOL0     H34364   4.656   1.730   2.790 -1.3491 -2.9818 -3.5512
 1018MOL0     H34365   4.681   1.632   2.580 -0.6636  0.7516  0.2449
 1018MOL0     H34366   4.966   1.447   2.512 -0.3310  1.1588  1.0701
 1018MOL0     H34367   5.084   1.546   2.419  0.2053  0.3212 -0.5382
 1018MOL0     H34368   4.842   1.419   2.281  0.2904  1.4988 -1.1343
 1018MOL0     H34369   4.984   1.492   2.213 -3.5548  3.8877 -0.0805
 1018MOL0     H34370   4.975   1.233   2.371 -1.7628 -2.1668 -0.8518
 1018MOL0     H34371   5.124   1.302   2.317 -0.4497  1.9729  2.7813
 1018MOL0     H34372   5.035   1.135   2.158 -0.2184  0.4726 -0.2616
 1018MOL0     H34373   4.914   1.248   2.114 -0.3024 -0.9426  0.8002
 1018MOL0     H34374   5.263   1.390   1.919 -1.1997 -0.5504 -1.7247
 1018MOL0     H34375   5.093   1.743   2.556  0.4148  4.8877  1.4344
 1018MOL0     H34376   5.072   1.829   2.800 -1.2731 -0.2159  2.8279
 1019MOL0     O34377   7.642   7.125  10.958 -0.8949  0.2906  1.2573
 1019MOL0     C34378   7.554   7.153  10.884 -0.2127 -1.1549  0.2573
 1019MOL0     O34379   7.533   7.113  10.759  0.1849 -0.0466 -0.8955
 1019MOL0     C34380   7.603   7.011  10.706  0.2869  0.1986 -0.1906
 1019MOL0     C34381   7.577   6.879  10.742  0.0275  0.0973 -0.0518
 1019MOL0     C34382   7.658   6.777  10.687  0.3725  0.2786  0.0975
 1019MOL0     C34383   7.762   6.798  10.600  1.2205 -0.1478 -0.7626
 1019MOL0     O34384   7.827   6.693  10.553 -0.1464  0.4185  0.2884
 1019MOL0     C34385   7.893   6.704  10.430 -0.7922 -0.0707 -0.3818
 1019MOL0     C34386   7.916   6.565  10.381 -0.6908 -0.5268 -0.3994
 1019MOL0     C34387   8.012   6.540  10.263 -0.1445  0.4661  0.0856
 1019MOL0     C34388   7.962   6.592  10.129  0.1139  0.2166  0.4144
 1019MOL0     C34389   8.033   6.531  10.006 -0.7182  0.2719 -0.0268
 1019MOL0     C34390   8.017   6.613   9.879  0.1312 -0.2734  1.7096
 1019MOL0     C34391   8.112   6.564   9.772 -0.2078 -0.2453  0.6172
 1019MOL0     C34392   8.097   6.413   9.725  0.6600  0.4202 -0.5894
 1019MOL0     N34393   7.979   6.401   9.634 -0.6518  0.1661  1.1445
 1019MOL0     C34394   7.847   6.417   9.657  0.0931 -0.4288 -0.3728
 1019MOL0     C34395   7.787   6.396   9.537 -0.1238  0.3769  0.5572
 1019MOL0     C34396   7.646   6.386   9.481 -0.0016 -0.2782 -0.2872
 1019MOL0     C34397   7.543   6.478   9.540  0.2011 -0.1581 -0.6694
 1019MOL0     C34398   7.402   6.457   9.478 -0.4276  0.0814 -0.8584
 1019MOL0     C34399   7.290   6.551   9.536 -0.0332  0.2864  0.1121
 1019MOL0     O34400   7.319   6.692   9.500  0.2151 -0.6479 -0.0606
 1019MOL0     C34401   7.317   6.799   9.596  0.3687  0.9205 -0.0190
 1019MOL0     C34402   7.352   6.924   9.538  0.0489 -0.3454  0.4739
 1019MOL0     C34403   7.367   7.039   9.617 -0.1349  0.4028 -0.3362
 1019MOL0     C34404   7.342   7.028   9.758  0.3002  0.4310  1.2371
 1019MOL0     C34405   7.355   7.148   9.848 -0.6857 -0.7026  0.1020
 1019MOL0     O34406   7.300   7.140   9.979  0.0613 -0.8740 -0.4952
 1019MOL0     C34407   7.295   7.246  10.069  0.3691  0.1007  0.3898
 1019MOL0     C34408   7.405   7.339  10.091  0.1244  0.6723 -0.3497
 1019MOL0     C34409   7.413   7.429  10.205 -0.0992 -0.0247  0.0205
 1019MOL0     C34410   7.306   7.429  10.295 -0.3095  0.7142  0.2077
 1019MOL0     O34411   7.278   7.510  10.403  0.5202  0.2446 -0.4044
 1019MOL0     C34412   7.393   7.546  10.475  0.1893 -0.0801 -0.2294
 1019MOL0     C34413   7.400   7.695  10.510  0.7047 -0.7008 -0.3022
 1019MOL0     C34414   7.428   7.781  10.386 -0.2394 -0.5747  0.0833
 1019MOL0     C34415   7.586   7.778  10.368 -0.2344  0.3114  0.1841
 1019MOL0     C34416   7.639   7.873  10.260 -0.4086  0.0639 -0.4191
 1019MOL0     C34417   7.788   7.872  10.246 -0.5284 -0.6384 -0.2742
 1019MOL0     C34418   7.850   8.000  10.314 -0.1265 -0.5319 -0.0161
 1019MOL0     C34419   7.860   8.106  10.207 -0.7947  0.4494  0.7952
 1019MOL0    Cl34420   7.953   8.256  10.255  0.1409 -0.0818  0.0106
 1019MOL0     C34421   7.201   7.339  10.268  0.1886 -0.9394 -0.2581
 1019MOL0     C34422   7.195   7.243  10.171 -0.3504 -0.6955  0.2330
 1019MOL0     O34423   7.423   7.239   9.813  0.1479 -0.5015 -0.0627
 1019MOL0     C34424   7.289   6.902   9.812 -0.1954 -0.4192 -1.1890
 1019MOL0     C34425   7.287   6.787   9.730 -0.9712  0.3389 -0.2379
 1019MOL0     N34426   7.888   6.375   9.443  0.4958 -0.1145  0.6716
 1019MOL0     N34427   8.002   6.378   9.500  0.2521 -0.1160  0.5710
 1019MOL0     C34428   7.793   6.931  10.569 -0.8674 -0.6046 -0.2943
 1019MOL0     C34429   7.715   7.038  10.624  0.0013  0.3578  0.6393
 1019MOL0     C34430   7.455   7.254  10.937  0.6869 -0.8208  0.5334
 1019MOL0     C34431   7.443   7.280  11.073  0.0282 -0.3941  0.0591
 1019MOL0     C34432   7.366   7.393  11.115  0.3567  0.2678 -0.1828
 1019MOL0     C34433   7.303   7.475  11.027 -0.8072  0.3763 -1.4422
 1019MOL0     O34434   7.221   7.577  11.075  0.1933  0.6180  0.4094
 1019MOL0     C34435   7.288   7.685  11.144 -0.1157  0.7300  0.0093
 1019MOL0     C34436   7.212   7.815  11.114  0.2957 -0.0239  0.0460
 1019MOL0     C34437   7.277   7.942  11.161 -0.4097 -0.4884  0.2023
 1019MOL0     C34438   7.304   7.943  11.316 -0.4096 -1.3540  0.2133
 1019MOL0     C34439   7.232   8.052  11.383 -0.6474 -0.5478  1.2653
 1019MOL0     C34440   7.178   8.123  11.460  0.0821  0.3227 -0.5527
 1019MOL0     C34441   7.307   7.438  10.894 -0.1020 -0.8468  0.8234
 1019MOL0     C34442   7.377   7.330  10.849  1.3238 -0.9240  0.8413
 1019MOL0     H34443   7.501   6.855  10.815 -2.1863 -1.9994 -2.8166
 1019MOL0     H34444   7.638   6.672  10.708  4.6660 -1.0158 -1.2767
 1019MOL0     H34445   7.992   6.745  10.449 -0.6136 -0.2799 -0.8629
 1019MOL0     H34446   7.844   6.758  10.349 -1.2738 -1.9837 -1.4120
 1019MOL0     H34447   7.817   6.521  10.365 -1.8256  2.2117 -1.4031
 1019MOL0     H34448   7.962   6.517  10.467 -0.2559  0.6256  0.0284
 1019MOL0     H34449   8.034   6.433  10.264  0.7395  0.6439  0.9720
 1019MOL0     H34450   8.114   6.575  10.282  1.3304 -2.7187 -1.2700
 1019MOL0     H34451   7.854   6.575  10.125 -0.0492  0.8530  1.5625
 1019MOL0     H34452   7.971   6.701  10.125 -1.1480  0.3213 -3.2783
 1019MOL0     H34453   7.991   6.433   9.979 -4.7968  0.9223  2.9382
 1019MOL0     H34454   8.139   6.535  10.034 -0.9836 -0.7434  1.2559
 1019MOL0     H34455   8.043   6.718   9.895 -0.4136  0.5397 -1.7919
 1019MOL0     H34456   7.912   6.612   9.846  0.7827  0.1528 -0.5957
 1019MOL0     H34457   8.095   6.621   9.681 -0.7423  1.2634  1.6254
 1019MOL0     H34458   8.214   6.574   9.809  0.1991 -2.9322  0.4069
 1019MOL0     H34459   8.104   6.343   9.809 -0.2261 -1.4207 -1.9808
 1019MOL0     H34460   8.184   6.381   9.669  2.2421  1.9173  0.8903
 1019MOL0     H34461   7.802   6.449   9.750  0.3284  1.1510 -0.7716
 1019MOL0     H34462   7.615   6.281   9.482  1.3636 -0.6951 -0.5039
 1019MOL0     H34463   7.637   6.410   9.375  0.9068 -2.6539 -0.9591
 1019MOL0     H34464   7.566   6.583   9.519 -1.7691  0.6363  0.7862
 1019MOL0     H34465   7.541   6.473   9.649 -0.5497 -3.1110 -0.7261
 1019MOL0     H34466   7.399   6.474   9.370  0.9427  1.3329 -0.7367
 1019MOL0     H34467   7.368   6.355   9.500 -2.4766  0.5802 -1.4999
 1019MOL0     H34468   7.281   6.523   9.642  0.6154 -4.0465 -0.7909
 1019MOL0     H34469   7.196   6.522   9.489  2.3344 -3.6573 -2.7782
 1019MOL0     H34470   7.347   6.931   9.430 -0.3802 -0.8916  0.4550
 1019MOL0     H34471   7.377   7.136   9.569  3.9357 -0.2192 -1.0332
 1019MOL0     H34472   7.493   7.336  10.028  1.6053  1.2820  1.5838
 1019MOL0     H34473   7.506   7.486  10.203  1.5793 -2.6199 -0.4707
 1019MOL0     H34474   7.486   7.527  10.421 -0.4138  1.0114 -1.7192
 1019MOL0     H34475   7.371   7.489  10.566 -3.1133  0.3160 -0.6418
 1019MOL0     H34476   7.482   7.698  10.582  0.1727 -3.4728  0.5166
 1019MOL0     H34477   7.309   7.734  10.557  0.4440 -1.6590  0.0180
 1019MOL0     H34478   7.405   7.887  10.404  1.4910 -0.1609 -0.0211
 1019MOL0     H34479   7.370   7.748  10.299 -0.1719 -0.0148 -0.1752
 1019MOL0     H34480   7.636   7.800  10.463 -1.7775  5.1191  0.1688
 1019MOL0     H34481   7.607   7.677  10.332 -2.8710  0.5442 -2.4292
 1019MOL0     H34482   7.598   7.973  10.280 -2.2857 -0.7579  0.0596
 1019MOL0     H34483   7.594   7.852  10.162 -2.6782  0.9225  0.3783
 1019MOL0     H34484   7.814   7.869  10.140  1.0427  1.3277 -0.0104
 1019MOL0     H34485   7.837   7.789  10.298 -1.9244  0.4864  3.1354
 1019MOL0     H34486   7.799   8.028  10.406  0.6895 -3.3000  1.3901
 1019MOL0     H34487   7.948   7.969  10.351  0.5594 -0.3211 -1.5685
 1019MOL0     H34488   7.764   8.142  10.169 -0.0224  0.6210 -1.0869
 1019MOL0     H34489   7.921   8.068  10.124 -0.4444  2.9060 -0.1568
 1019MOL0     H34490   7.116   7.326  10.334 -0.6068  0.0577 -1.0604
 1019MOL0     H34491   7.116   7.169  10.177 -1.1021  0.2292  3.0858
 1019MOL0     H34492   7.262   6.888   9.916  1.3957 -1.8037 -0.9280
 1019MOL0     H34493   7.249   6.691   9.762  0.6334  0.3928  2.0305
 1019MOL0     H34494   7.879   6.950  10.506  0.6391 -1.5229  1.3680
 1019MOL0     H34495   7.746   7.140  10.601 -2.3593  0.8368 -0.7308
 1019MOL0     H34496   7.486   7.218  11.151  3.0123 -1.2447 -2.0683
 1019MOL0     H34497   7.363   7.419  11.220  4.7179  0.7733 -0.0040
 1019MOL0     H34498   7.392   7.690  11.111 -0.1900  1.1298 -0.1714
 1019MOL0     H34499   7.306   7.658  11.248  3.1402  3.1089  0.2269
 1019MOL0     H34500   7.207   7.822  11.005  0.9696  0.8191  0.0542
 1019MOL0     H34501   7.111   7.820  11.155 -0.1685  2.1542 -1.2321
 1019MOL0     H34502   7.214   8.028  11.136  1.2236  0.3977 -1.0386
 1019MOL0     H34503   7.365   7.969  11.102 -1.2156 -0.1472 -0.8732
 1019MOL0     H34504   7.285   7.849  11.369  1.8315 -0.9126  2.0112
 1019MOL0     H34505   7.411   7.958  11.336 -0.9050  0.4508  1.9200
 1019MOL0     H34506   7.129   8.187  11.531 -0.8686  0.6909 -1.5252
 1019MOL0     H34507   7.268   7.486  10.805  0.7369 -2.1217 -0.2620
 1019MOL0     H34508   7.385   7.313  10.742 -0.9660  1.0023  0.2833
 1020MOL0     O34509   0.112   9.182   7.315 -0.7501  0.6918 -0.5554
 1020MOL0     C34510   0.232   9.147   7.345  1.1258 -1.0763  0.0852
 1020MOL0     O34511   0.293   9.147   7.468 -0.4614 -0.0045  0.3612
 1020MOL0     C34512   0.216   9.190   7.571 -0.6637  0.5114 -0.1490
 1020MOL0     C34513   0.157   9.313   7.579  0.1476 -0.3336  0.5150
 1020MOL0     C34514   0.091   9.368   7.690  0.1910  0.2085  0.6272
 1020MOL0     C34515   0.084   9.292   7.800  0.2588  0.3514  0.6502
 1020MOL0     O34516   0.021   9.328   7.914  0.6247  0.4562 -0.3173
 1020MOL0     C34517  -0.058   9.448   7.920 -0.2351  1.4149  0.1458
 1020MOL0     C34518  -0.077   9.499   8.063 -0.0217 -1.0620  1.0695
 1020MOL0     C34519  -0.142   9.636   8.064 -0.2700  0.3896 -0.3992
 1020MOL0     C34520  -0.173   9.704   8.197 -0.2379 -0.6228 -0.3919
 1020MOL0     C34521  -0.200   9.855   8.180 -0.1293 -0.4276  0.0571
 1020MOL0     C34522  -0.294   9.927   8.282  0.4778 -0.4158 -0.0528
 1020MOL0     C34523  -0.286   9.883   8.432 -0.1713 -0.7015 -0.5005
 1020MOL0     C34524  -0.406   9.785   8.463 -0.4946 -0.2910 -0.1918
 1020MOL0     N34525  -0.449   9.777   8.602 -0.1930 -0.3854  0.5437
 1020MOL0     C34526  -0.503   9.881   8.672 -0.2221 -0.5624 -0.4709
 1020MOL0     C34527  -0.508   9.835   8.800 -0.5905  0.2258  0.4577
 1020MOL0     C34528  -0.560   9.900   8.928  0.6469 -0.4195  0.3782
 1020MOL0     C34529  -0.559  10.054   8.923 -0.1586  0.4032 -0.0955
 1020MOL0     C34530  -0.637  10.102   9.048 -0.0361 -0.4882 -0.1129
 1020MOL0     C34531  -0.643  10.255   9.071  0.7593 -0.4242  0.3103
 1020MOL0     O34532  -0.721  10.328   8.975  0.3284  0.1842  0.3341
 1020MOL0     C34533  -0.735  10.463   8.987 -0.5022 -0.6958  0.3247
 1020MOL0     C34534  -0.648  10.556   9.054  0.3470  0.5639  0.0753
 1020MOL0     C34535  -0.668  10.693   9.032  0.3763  0.1212 -0.7994
 1020MOL0     C34536  -0.776  10.747   8.954 -0.1181  0.5549 -0.1400
 1020MOL0     C34537  -0.781  10.895   8.929  0.2337 -0.1870 -0.0885
 1020MOL0     O34538  -0.873  10.945   8.837  0.7256  0.3490 -0.1774
 1020MOL0     C34539  -0.889  11.076   8.823  0.2211 -0.0998  0.9919
 1020MOL0     C34540  -0.784  11.169   8.770  0.2506 -0.1123 -0.5934
 1020MOL0     C34541  -0.817  11.308   8.757  0.3391 -0.3973 -0.4030
 1020MOL0     C34542  -0.950  11.348   8.782 -1.0106 -0.5966 -0.9921
 1020MOL0     O34543  -0.988  11.481   8.772  1.0101 -0.2097  0.7028
 1020MOL0     C34544  -0.927  11.574   8.858 -1.0890 -0.2432 -0.4750
 1020MOL0     C34545  -0.939  11.723   8.825  0.2583  0.4163 -0.2174
 1020MOL0     C34546  -0.880  11.766   8.691 -0.1731  0.0101 -0.0527
 1020MOL0     C34547  -0.927  11.909   8.670 -0.7578 -0.9423  0.4925
 1020MOL0     C34548  -0.890  11.958   8.539 -0.8262 -0.1522 -0.0029
 1020MOL0     C34549  -0.739  11.989   8.523  0.4169 -1.4792  0.7793
 1020MOL0     C34550  -0.705  11.984   8.370 -0.9718  0.4392  0.2290
 1020MOL0     C34551  -0.571  12.044   8.334  0.7100  0.2771  0.6631
 1020MOL0    Cl34552  -0.437  11.939   8.394 -0.2414  0.1885 -0.2254
 1020MOL0     C34553  -1.039  11.255   8.834  0.0684  0.5213 -0.0510
 1020MOL0     C34554  -1.013  11.125   8.851 -0.5306  0.5833  0.0620
 1020MOL0     O34555  -0.703  10.967   8.984  0.3770 -0.4943  0.0032
 1020MOL0     C34556  -0.869  10.650   8.903 -0.5556 -0.6813 -0.8864
 1020MOL0     C34557  -0.836  10.522   8.919  0.0265  0.4329  0.1240
 1020MOL0     N34558  -0.456   9.700   8.800 -0.8641 -0.6204 -0.3102
 1020MOL0     N34559  -0.423   9.676   8.680 -1.1246 -0.0977  0.3147
 1020MOL0     C34560   0.147   9.162   7.803 -0.7753 -0.2816  0.3776
 1020MOL0     C34561   0.213   9.115   7.694 -0.2147  0.3218  0.3071
 1020MOL0     C34562   0.324   9.100   7.241  0.3154  1.2612  0.3787
 1020MOL0     C34563   0.443   9.045   7.267 -0.4907  1.1731 -0.1439
 1020MOL0     C34564   0.532   8.987   7.169  0.1220 -1.0679 -1.1316
 1020MOL0     C34565   0.483   8.992   7.034 -0.2318  0.4254  0.2401
 1020MOL0     O34566   0.554   8.950   6.919  0.4008 -0.5990  0.1049
 1020MOL0     C34567   0.681   8.903   6.935 -0.7384 -0.3535 -0.1629
 1020MOL0     C34568   0.759   8.871   6.803 -0.1784  0.2464  0.7632
 1020MOL0     C34569   0.677   8.788   6.703 -0.4859 -0.2314  0.0440
 1020MOL0     C34570   0.761   8.725   6.591 -0.1004  0.2741 -0.0725
 1020MOL0     C34571   0.681   8.673   6.486 -0.2392  0.3472 -0.0354
 1020MOL0     C34572   0.605   8.616   6.413  0.2238  0.3409  0.1273
 1020MOL0     C34573   0.358   9.041   7.008 -0.4026 -0.0005  0.1160
 1020MOL0     C34574   0.276   9.096   7.110 -0.0684  0.6023 -0.0370
 1020MOL0     H34575   0.177   9.377   7.494 -0.1220  0.0921  0.7690
 1020MOL0     H34576   0.071   9.474   7.679 -1.9118 -0.1288  0.8814
 1020MOL0     H34577  -0.153   9.426   7.871 -0.4319 -0.9915  1.4817
 1020MOL0     H34578  -0.008   9.524   7.858 -2.3718  0.5926 -2.8369
 1020MOL0     H34579   0.017   9.503   8.118  2.1060 -1.9123 -2.2538
 1020MOL0     H34580  -0.148   9.434   8.116  0.2287 -1.4335  0.9567
 1020MOL0     H34581  -0.232   9.629   8.001 -1.9657 -1.5401  2.0406
 1020MOL0     H34582  -0.065   9.694   8.013 -0.1553 -0.5990 -1.3873
 1020MOL0     H34583  -0.265   9.656   8.232 -0.5421  0.6903  0.6719
 1020MOL0     H34584  -0.094   9.687   8.271 -2.4694  2.1217  2.9018
 1020MOL0     H34585  -0.252   9.860   8.084 -1.6757 -1.6362  0.7860
 1020MOL0     H34586  -0.111   9.916   8.163 -1.0236  0.1376 -3.1866
 1020MOL0     H34587  -0.394   9.895   8.252 -0.5684  0.5745  2.1572
 1020MOL0     H34588  -0.277  10.035   8.280 -0.9886 -0.1719 -1.2563
 1020MOL0     H34589  -0.188   9.841   8.453 -0.2898 -0.0685  1.5308
 1020MOL0     H34590  -0.306   9.971   8.495 -1.3164 -0.8622 -0.6143
 1020MOL0     H34591  -0.386   9.683   8.429 -1.2466 -0.8890  1.0724
 1020MOL0     H34592  -0.492   9.825   8.409  2.7456  3.1467 -3.3931
 1020MOL0     H34593  -0.532   9.983   8.647 -1.7228 -1.3316 -2.1445
 1020MOL0     H34594  -0.486   9.866   9.001 -0.0017 -1.9008  0.3835
 1020MOL0     H34595  -0.661   9.865   8.949  0.1952  0.8832  0.5177
 1020MOL0     H34596  -0.602  10.092   8.830  1.5672  1.4560 -0.5177
 1020MOL0     H34597  -0.460  10.099   8.935 -0.4166  0.9052  0.1826
 1020MOL0     H34598  -0.742  10.091   9.020  0.6036 -0.4549 -2.7947
 1020MOL0     H34599  -0.619  10.052   9.144  0.3151 -1.2143 -0.5424
 1020MOL0     H34600  -0.541  10.296   9.079  0.2251  0.5407  4.0061
 1020MOL0     H34601  -0.680  10.289   9.168  1.2220  0.3862  0.2168
 1020MOL0     H34602  -0.555  10.526   9.102 -0.1221 -0.1467  0.5782
 1020MOL0     H34603  -0.589  10.746   9.085  0.7833 -2.5775  1.5067
 1020MOL0     H34604  -0.680  11.147   8.749 -0.0161 -3.1653  0.8112
 1020MOL0     H34605  -0.749  11.379   8.711  2.1512 -3.0479 -2.0315
 1020MOL0     H34606  -0.819  11.557   8.847 -0.5434  0.9063  2.2273
 1020MOL0     H34607  -0.939  11.557   8.965 -1.3353 -0.7725 -0.5857
 1020MOL0     H34608  -0.885  11.785   8.897  3.0447 -2.2624  0.1940
 1020MOL0     H34609  -1.045  11.752   8.831 -0.2973 -1.7877  2.0658
 1020MOL0     H34610  -0.914  11.715   8.601 -0.4030  1.4456 -0.8033
 1020MOL0     H34611  -0.771  11.758   8.699 -0.2782 -3.9056 -0.6285
 1020MOL0     H34612  -1.035  11.907   8.688 -0.9474  0.9907 -0.2658
 1020MOL0     H34613  -0.884  11.966   8.753 -1.0941 -0.3175  0.2379
 1020MOL0     H34614  -0.949  12.047   8.514 -0.8629  0.7772  3.0545
 1020MOL0     H34615  -0.921  11.880   8.469  1.4715 -0.6500 -0.5359
 1020MOL0     H34616  -0.680  11.918   8.580 -0.9511 -3.2107  0.1450
 1020MOL0     H34617  -0.717  12.091   8.558 -0.2608 -0.8650 -0.4837
 1020MOL0     H34618  -0.698  11.877   8.346 -1.0778  0.1027  1.6226
 1020MOL0     H34619  -0.783  12.020   8.302  0.7830 -1.1924 -2.9022
 1020MOL0     H34620  -0.565  12.145   8.375 -1.9618  0.0941  1.7410
 1020MOL0     H34621  -0.564  12.050   8.225 -0.4969 -0.0092  0.5490
 1020MOL0     H34622  -1.138  11.291   8.858  0.8052  2.2945  0.5159
 1020MOL0     H34623  -1.085  11.047   8.877  0.4630  0.5660  3.1490
 1020MOL0     H34624  -0.958  10.672   8.845 -0.7664 -0.5241 -0.5130
 1020MOL0     H34625  -0.886  10.442   8.865 -0.7387 -0.0695  1.5215
 1020MOL0     H34626   0.173   9.120   7.899 -2.1949  3.1147  2.4092
 1020MOL0     H34627   0.271   9.023   7.698 -1.3939 -0.4344  4.1352
 1020MOL0     H34628   0.489   9.050   7.365 -0.5071 -0.7140 -0.0021
 1020MOL0     H34629   0.628   8.942   7.193 -0.5405 -2.1287 -0.4064
 1020MOL0     H34630   0.664   8.816   7.000  0.9115  0.1404  1.0084
 1020MOL0     H34631   0.741   8.977   6.989 -2.5491 -0.0179  1.5111
 1020MOL0     H34632   0.801   8.961   6.758  0.1407  1.2528  2.9674
 1020MOL0     H34633   0.844   8.805   6.822 -1.3460 -3.1465 -3.9522
 1020MOL0     H34634   0.609   8.856   6.650 -3.2721 -0.5220  2.9622
 1020MOL0     H34635   0.634   8.700   6.751  1.1467  0.2623  2.6300
 1020MOL0     H34636   0.823   8.797   6.538 -0.9569  1.1785  0.1264
 1020MOL0     H34637   0.819   8.637   6.620 -1.0045 -0.4523 -0.4057
 1020MOL0     H34638   0.549   8.563   6.339 -1.0122  0.2195  1.1067
 1020MOL0     H34639   0.338   9.040   6.901  0.1277 -0.9589  0.0098
 1020MOL0     H34640   0.180   9.134   7.078  0.8290  0.7975 -2.6870
 1021MOL0     O34641   7.699   1.345  10.690 -0.5994 -0.5444 -0.5072
 1021MOL0     C34642   7.742   1.374  10.803  1.0120  0.2612  0.0935
 1021MOL0     O34643   7.752   1.510  10.843 -0.2604  0.5518  0.2406
 1021MOL0     C34644   7.803   1.606  10.760  0.5333 -0.3300  0.2619
 1021MOL0     C34645   7.846   1.591  10.622 -0.4790  0.7509  0.3462
 1021MOL0     C34646   7.893   1.701  10.558 -0.3077 -0.6626 -0.4732
 1021MOL0     C34647   7.917   1.820  10.628  0.5859  0.2762  0.2818
 1021MOL0     O34648   7.974   1.921  10.563 -0.3213  0.6357  0.0060
 1021MOL0     C34649   8.112   1.934  10.590  0.0580  0.5561 -0.2360
 1021MOL0     C34650   8.207   1.939  10.464  0.2453  1.1993 -0.5774
 1021MOL0     C34651   8.211   2.087  10.410 -0.7383 -0.0645 -1.6307
 1021MOL0     C34652   8.303   2.178  10.495  0.3639  0.3617  0.8084
 1021MOL0     C34653   8.240   2.321  10.514 -0.4200 -0.0174  0.2043
 1021MOL0     C34654   8.244   2.391  10.385 -0.8107 -0.3011 -0.4704
 1021MOL0     C34655   8.239   2.543  10.404  0.3763 -0.5071 -0.6826
 1021MOL0     C34656   8.164   2.621  10.294  0.5317 -0.5741 -0.5761
 1021MOL0     N34657   8.250   2.634  10.176  0.6922  0.6546 -0.3899
 1021MOL0     C34658   8.250   2.551  10.062  0.1813 -0.5489 -0.8732
 1021MOL0     C34659   8.340   2.609   9.983  0.2578 -0.8534  0.3333
 1021MOL0     C34660   8.397   2.555   9.858  0.6161 -0.3125 -0.6462
 1021MOL0     C34661   8.496   2.445   9.896  0.4924 -0.5346  0.2902
 1021MOL0     C34662   8.543   2.363   9.776 -0.0777 -0.4754 -0.4480
 1021MOL0     C34663   8.567   2.219   9.824 -0.0801 -0.7636 -0.4567
 1021MOL0     O34664   8.686   2.208   9.912  0.1285  0.0593  0.0785
 1021MOL0     C34665   8.729   2.084   9.929 -0.2516  0.6167  0.7002
 1021MOL0     C34666   8.857   2.040   9.877  0.4480 -0.2798 -0.1609
 1021MOL0     C34667   8.891   1.907   9.892  0.2248  0.1422 -0.2617
 1021MOL0     C34668   8.803   1.816   9.954 -0.9302  0.2643  0.3738
 1021MOL0     C34669   8.861   1.686   9.975 -0.1057  0.8903 -0.2671
 1021MOL0     O34670   8.799   1.577   9.925 -0.7761  0.3504  0.4551
 1021MOL0     C34671   8.839   1.449   9.938  0.5959  0.3936 -1.2589
 1021MOL0     C34672   8.844   1.387  10.070 -0.0208 -0.3157  0.2298
 1021MOL0     C34673   8.857   1.248  10.080 -0.1347 -0.9528 -0.9331
 1021MOL0     C34674   8.863   1.168   9.970 -0.3782  0.4055  0.2251
 1021MOL0     O34675   8.888   1.026   9.958  0.1349 -0.5530 -0.3039
 1021MOL0     C34676   8.962   0.949  10.064 -0.5962  0.2011 -1.0361
 1021MOL0     C34677   9.001   0.811  10.022 -0.2519  0.7725 -0.1746
 1021MOL0     C34678   9.131   0.826   9.936 -0.2969  0.1049 -0.2062
 1021MOL0     C34679   9.227   0.703   9.935  0.3553 -0.1856  0.1357
 1021MOL0     C34680   9.341   0.705   9.825  0.7706 -0.7426 -0.1371
 1021MOL0     C34681   9.299   0.687   9.684  0.1357 -0.2466  0.3750
 1021MOL0     C34682   9.433   0.679   9.598  0.1994  0.1803 -0.3448
 1021MOL0     C34683   9.401   0.701   9.450 -0.3872 -0.7767  1.3876
 1021MOL0    Cl34684   9.303   0.851   9.413 -0.3068  0.0016 -0.3122
 1021MOL0     C34685   8.849   1.228   9.847  1.0978  0.0894  0.4562
 1021MOL0     C34686   8.841   1.368   9.825  0.0434 -0.5675  0.0578
 1021MOL0     O34687   8.965   1.687  10.035 -0.8334  1.1024  0.0796
 1021MOL0     C34688   8.681   1.859   9.995  0.8733  0.3644 -0.0228
 1021MOL0     C34689   8.641   1.995   9.991  0.1526  1.0908 -0.2585
 1021MOL0     N34690   8.386   2.723  10.043 -0.9262  0.6217 -0.5629
 1021MOL0     N34691   8.340   2.734  10.164 -0.4744  1.1228 -0.2718
 1021MOL0     C34692   7.875   1.828  10.761  0.7540  0.8252 -0.2155
 1021MOL0     C34693   7.815   1.733  10.826  0.3618 -0.0589  0.0310
 1021MOL0     C34694   7.745   1.268  10.907  0.5281 -0.7916  1.3020
 1021MOL0     C34695   7.794   1.294  11.042  0.5830  1.0543  0.2884
 1021MOL0     C34696   7.811   1.190  11.127 -0.7483  0.7027  0.3520
 1021MOL0     C34697   7.793   1.061  11.085  0.7730 -0.3087  0.0138
 1021MOL0     O34698   7.821   0.965  11.177  0.2103 -0.1431  0.2062
 1021MOL0     C34699   7.764   0.836  11.173 -0.0393  0.5152  0.3373
 1021MOL0     C34700   7.788   0.759  11.309  0.1707  0.4068  0.6802
 1021MOL0     C34701   7.932   0.774  11.374  0.7029  0.5353 -0.0658
 1021MOL0     C34702   7.928   0.675  11.494  0.1302 -0.7577  0.8764
 1021MOL0     C34703   8.040   0.717  11.572  0.9514  0.1399 -0.7264
 1021MOL0     C34704   8.130   0.732  11.647  1.0292 -0.0163 -0.0214
 1021MOL0     C34705   7.758   1.036  10.951 -0.5054 -0.1704 -0.4364
 1021MOL0     C34706   7.718   1.138  10.863 -0.7775  0.3389  0.2846
 1021MOL0     H34707   7.820   1.505  10.562 -0.7689  0.8856  0.2759
 1021MOL0     H34708   7.906   1.707  10.451 -0.4453 -1.1353 -0.5158
 1021MOL0     H34709   8.147   1.866  10.668 -2.6725  1.9862  2.4293
 1021MOL0     H34710   8.128   2.031  10.638  0.2296 -0.8721  2.8316
 1021MOL0     H34711   8.158   1.868  10.397 -0.8030  3.3048 -2.1683
 1021MOL0     H34712   8.304   1.891  10.478 -1.1150 -1.9263 -1.1370
 1021MOL0     H34713   8.105   2.106  10.425 -0.4366 -0.2253  1.3495
 1021MOL0     H34714   8.231   2.086  10.303  1.5146 -1.3304 -1.2753
 1021MOL0     H34715   8.325   2.137  10.594 -0.8768  0.6170  1.2100
 1021MOL0     H34716   8.392   2.182  10.433 -0.1198 -2.1782 -0.1967
 1021MOL0     H34717   8.302   2.379  10.584  1.4554  0.5036 -1.7548
 1021MOL0     H34718   8.137   2.308  10.547 -0.7078 -4.1731 -1.7805
 1021MOL0     H34719   8.163   2.370  10.315 -1.1000 -0.2760 -0.1414
 1021MOL0     H34720   8.339   2.377  10.331 -0.0029 -1.4709  1.1751
 1021MOL0     H34721   8.199   2.571  10.502 -2.1864  1.6056 -2.1714
 1021MOL0     H34722   8.340   2.583  10.416 -0.1715  0.9410 -0.6777
 1021MOL0     H34723   8.143   2.717  10.341  0.5737 -1.6410  1.8267
 1021MOL0     H34724   8.070   2.575  10.264 -0.5221 -0.7544  2.6145
 1021MOL0     H34725   8.200   2.457  10.043 -1.9719  0.3190  0.2061
 1021MOL0     H34726   8.447   2.630   9.796 -0.2486 -0.3127 -1.3620
 1021MOL0     H34727   8.319   2.522   9.788 -1.2232 -1.6099  1.8558
 1021MOL0     H34728   8.430   2.388   9.961 -1.5235  2.6572  1.2686
 1021MOL0     H34729   8.586   2.479   9.947  1.2413  1.9862 -2.4396
 1021MOL0     H34730   8.467   2.359   9.697  0.6147  0.8034 -1.2169
 1021MOL0     H34731   8.637   2.401   9.735  0.7094 -1.1056  0.7190
 1021MOL0     H34732   8.581   2.147   9.743 -1.3610 -1.1072 -0.3819
 1021MOL0     H34733   8.484   2.184   9.886  0.0154 -1.0576 -0.4958
 1021MOL0     H34734   8.915   2.127   9.847 -2.0655  0.9462 -1.8059
 1021MOL0     H34735   8.991   1.887   9.854  1.0758 -1.3673  2.5163
 1021MOL0     H34736   8.829   1.452  10.155 -1.9821  1.0668 -1.0624
 1021MOL0     H34737   8.867   1.213  10.183  2.1526 -0.8435 -1.0697
 1021MOL0     H34738   8.914   0.937  10.161  1.9639 -1.9337  0.0973
 1021MOL0     H34739   9.055   1.005  10.081  1.3742 -3.1617  0.1083
 1021MOL0     H34740   8.922   0.764   9.962  0.7621 -0.2324 -0.7440
 1021MOL0     H34741   9.023   0.747  10.108 -0.7734 -0.4971 -0.9491
 1021MOL0     H34742   9.190   0.911   9.971 -1.8706  0.1564  2.6195
 1021MOL0     H34743   9.106   0.844   9.831  1.5291 -1.8413 -1.0232
 1021MOL0     H34744   9.267   0.702  10.037 -1.0221  0.1440  0.6894
 1021MOL0     H34745   9.173   0.608   9.925  0.7897 -0.6355  1.7538
 1021MOL0     H34746   9.410   0.626   9.855  1.9577  0.4455  0.3583
 1021MOL0     H34747   9.396   0.799   9.827 -1.4849  0.6828 -0.5973
 1021MOL0     H34748   9.236   0.772   9.655  0.4437 -0.0166  0.3676
 1021MOL0     H34749   9.247   0.592   9.671  4.0642 -2.6100  0.3876
 1021MOL0     H34750   9.497   0.759   9.636 -0.5151  0.7441 -0.3067
 1021MOL0     H34751   9.472   0.579   9.621  0.1956  0.3330  0.3351
 1021MOL0     H34752   9.352   0.612   9.408  0.8463 -0.6696 -0.4065
 1021MOL0     H34753   9.502   0.713   9.411 -2.0391 -0.7119 -3.5986
 1021MOL0     H34754   8.848   1.169   9.756 -2.2363  1.2002 -0.3826
 1021MOL0     H34755   8.834   1.422   9.731  2.4244  1.0622  0.7305
 1021MOL0     H34756   8.616   1.789  10.046  1.7179 -1.4083 -1.3207
 1021MOL0     H34757   8.556   2.039  10.044  1.2582  3.3844 -0.2617
 1021MOL0     H34758   7.898   1.914  10.823 -2.7401 -0.2527  2.9449
 1021MOL0     H34759   7.782   1.747  10.929  1.1798 -0.0891  0.2975
 1021MOL0     H34760   7.813   1.399  11.060 -1.1040  2.1830 -3.5046
 1021MOL0     H34761   7.816   1.199  11.235 -0.4153  0.4426  0.3622
 1021MOL0     H34762   7.818   0.770  11.105  2.1616  0.2114  2.2671
 1021MOL0     H34763   7.657   0.855  11.160  0.0399  2.3714  2.0152
 1021MOL0     H34764   7.714   0.789  11.383  0.4858 -1.1703  1.7020
 1021MOL0     H34765   7.779   0.654  11.277 -2.4373  1.2020 -1.5213
 1021MOL0     H34766   7.938   0.880  11.398 -1.3755  0.8319 -0.6350
 1021MOL0     H34767   8.015   0.744  11.309  1.4825  2.2264  0.0987
 1021MOL0     H34768   7.837   0.683  11.556 -0.1057  0.2410  0.4195
 1021MOL0     H34769   7.938   0.570  11.466 -1.2670 -0.8860  0.7916
 1021MOL0     H34770   8.224   0.754  11.695  1.0609 -0.2807  0.0399
 1021MOL0     H34771   7.732   0.937  10.913 -4.8171  0.8155 -0.5890
 1021MOL0     H34772   7.670   1.115  10.768 -0.1740  1.3595 -0.2956
 1022MOL0     O34773   5.588   9.922   2.965 -0.1464 -0.1694 -0.7263
 1022MOL0     C34774   5.565  10.000   2.872  0.3007 -0.3661 -0.1031
 1022MOL0     O34775   5.642  10.117   2.848 -0.5126  0.4688  0.5561
 1022MOL0     C34776   5.684  10.164   2.965 -1.1530  0.6797 -1.0450
 1022MOL0     C34777   5.819  10.193   2.989 -0.4131 -0.5628  0.2137
 1022MOL0     C34778   5.857  10.262   3.109  0.7877  0.3833 -0.0525
 1022MOL0     C34779   5.763  10.292   3.210 -0.4726  0.5576  0.8519
 1022MOL0     O34780   5.818  10.317   3.340 -0.6080 -0.7595  0.1199
 1022MOL0     C34781   5.735  10.369   3.445  0.0672  0.2245  0.5403
 1022MOL0     C34782   5.731  10.518   3.447 -0.8124  0.6109  1.2534
 1022MOL0     C34783   5.632  10.575   3.542  0.4004 -0.3224  0.8595
 1022MOL0     C34784   5.681  10.704   3.609 -0.3219 -0.9407 -0.2100
 1022MOL0     C34785   5.583  10.768   3.718 -0.7403  0.0811  0.4742
 1022MOL0     C34786   5.531  10.666   3.821 -0.3523 -0.2806 -1.4159
 1022MOL0     C34787   5.629  10.639   3.931  0.4593  0.4505 -0.4411
 1022MOL0     C34788   5.588  10.525   4.018  0.2080  0.5046 -0.2211
 1022MOL0     N34789   5.663  10.508   4.142 -0.1861  0.7483 -0.9519
 1022MOL0     C34790   5.656  10.590   4.249 -0.9626 -0.4972 -0.2878
 1022MOL0     C34791   5.717  10.538   4.344  0.3194 -0.4318 -0.0164
 1022MOL0     C34792   5.736  10.597   4.484  0.4622 -0.0751 -0.2971
 1022MOL0     C34793   5.686  10.748   4.494 -0.7247  0.7245 -0.2287
 1022MOL0     C34794   5.681  10.803   4.643 -0.0884  0.2566  0.0796
 1022MOL0     C34795   5.815  10.863   4.696 -0.0339  0.1612 -0.0075
 1022MOL0     O34796   5.827  10.999   4.653 -0.2070 -0.2199  0.3480
 1022MOL0     C34797   5.915  11.041   4.555 -0.7728  1.1254 -0.4490
 1022MOL0     C34798   5.936  11.177   4.525 -0.6333 -0.0139  0.1471
 1022MOL0     C34799   6.039  11.220   4.443 -1.1890 -0.3730 -0.0910
 1022MOL0     C34800   6.136  11.126   4.395 -0.7130  0.1264 -0.4032
 1022MOL0     C34801   6.245  11.175   4.301  0.3114  0.5018  0.0093
 1022MOL0     O34802   6.227  11.308   4.257 -0.2078 -0.5297 -0.3693
 1022MOL0     C34803   6.304  11.365   4.160 -0.8821 -0.2495  0.2320
 1022MOL0     C34804   6.273  11.495   4.127  0.6526  0.4538 -0.0791
 1022MOL0     C34805   6.325  11.564   4.022  0.1523 -0.0866  0.3946
 1022MOL0     C34806   6.429  11.514   3.944  0.0872  0.2254  0.5792
 1022MOL0     O34807   6.487  11.590   3.847  0.7198 -0.3105  1.0402
 1022MOL0     C34808   6.520  11.540   3.716 -1.1645  0.1245  0.1102
 1022MOL0     C34809   6.411  11.439   3.662  0.9706  1.0704 -0.1913
 1022MOL0     C34810   6.281  11.509   3.625 -0.8559  0.2119  0.9243
 1022MOL0     C34811   6.188  11.402   3.567 -0.2180  0.1921  0.2904
 1022MOL0     C34812   6.037  11.442   3.570 -0.7019  0.0172  0.9995
 1022MOL0     C34813   5.986  11.442   3.719 -0.2705  0.4589  0.4070
 1022MOL0     C34814   5.985  11.303   3.797 -0.4393  0.2408 -0.0089
 1022MOL0     C34815   5.930  11.305   3.943  0.9947  0.0330 -0.9877
 1022MOL0    Cl34816   5.927  11.145   4.006 -0.7679 -0.0980  0.0918
 1022MOL0     C34817   6.470  11.385   3.979  0.3637 -0.9573 -0.3697
 1022MOL0     C34818   6.411  11.311   4.082 -0.0871 -0.4643  0.6331
 1022MOL0     O34819   6.326  11.093   4.252  0.7900 -0.7834  0.1452
 1022MOL0     C34820   6.122  10.987   4.422 -0.2295 -0.6247  0.4245
 1022MOL0     C34821   6.017  10.954   4.498 -0.0390  1.1142  0.0995
 1022MOL0     N34822   5.768  10.412   4.311 -0.5731  0.5242  1.5864
 1022MOL0     N34823   5.729  10.395   4.187  0.6716 -0.0200 -0.4103
 1022MOL0     C34824   5.628  10.261   3.183 -0.9565 -0.0455 -0.1292
 1022MOL0     C34825   5.591  10.202   3.066 -0.0247  0.0110 -0.4458
 1022MOL0     C34826   5.467   9.955   2.777 -0.6552  0.0801 -0.4083
 1022MOL0     C34827   5.395   9.835   2.782 -0.4332  0.5006 -0.0671
 1022MOL0     C34828   5.290   9.796   2.691  0.5091 -0.2644 -0.1879
 1022MOL0     C34829   5.260   9.896   2.593 -0.1973 -0.3797 -0.0365
 1022MOL0     O34830   5.156   9.861   2.511 -0.1564  1.1781 -0.2575
 1022MOL0     C34831   5.151   9.930   2.388  0.1706 -0.0756 -1.1701
 1022MOL0     C34832   5.070   9.839   2.299 -0.4939 -0.7167  0.0977
 1022MOL0     C34833   5.105   9.691   2.294  1.5672 -0.1067  1.7006
 1022MOL0     C34834   5.017   9.630   2.180  0.7658  0.1657 -0.6699
 1022MOL0     C34835   4.881   9.576   2.222 -0.0752 -0.5618  0.3117
 1022MOL0     C34836   4.776   9.546   2.274  0.4205 -0.7196  0.0212
 1022MOL0     C34837   5.338  10.015   2.584 -0.1202 -1.0308  0.6424
 1022MOL0     C34838   5.439  10.044   2.672  0.2686 -0.9961  0.5123
 1022MOL0     H34839   5.900  10.174   2.919 -2.1197 -0.2185 -2.0028
 1022MOL0     H34840   5.963  10.286   3.115  0.4596  1.9804 -0.3244
 1022MOL0     H34841   5.788  10.340   3.536  0.0140  2.0869  1.2184
 1022MOL0     H34842   5.631  10.336   3.447  0.4137 -1.1763  4.8043
 1022MOL0     H34843   5.703  10.553   3.347  2.1733  0.3719  0.2170
 1022MOL0     H34844   5.831  10.559   3.466 -0.4334  0.6439 -0.6316
 1022MOL0     H34845   5.602  10.502   3.617  1.7239 -0.3594  1.3945
 1022MOL0     H34846   5.538  10.600   3.492  0.0474 -0.0195  1.6509
 1022MOL0     H34847   5.780  10.689   3.654 -1.7795 -1.7458  2.9907
 1022MOL0     H34848   5.694  10.784   3.536 -3.2614  0.5236  0.7162
 1022MOL0     H34849   5.498  10.802   3.658 -0.1676  1.6451  0.4914
 1022MOL0     H34850   5.623  10.851   3.777  0.2899  0.3001 -0.4994
 1022MOL0     H34851   5.499  10.572   3.776  0.2393 -0.5258 -1.3210
 1022MOL0     H34852   5.438  10.709   3.861  0.6611 -2.2835  3.7999
 1022MOL0     H34853   5.733  10.630   3.897  2.0704 -1.1201  4.1528
 1022MOL0     H34854   5.616  10.731   3.989 -1.6415  1.3257 -2.1582
 1022MOL0     H34855   5.594  10.436   3.954  2.2875  0.2957  0.1856
 1022MOL0     H34856   5.486  10.545   4.049  1.0994  2.7391  1.5661
 1022MOL0     H34857   5.599  10.681   4.231  1.4424  1.1039 -0.1854
 1022MOL0     H34858   5.839  10.600   4.519  1.2232  2.5460 -2.4514
 1022MOL0     H34859   5.674  10.543   4.556 -1.0785  2.8101  0.7372
 1022MOL0     H34860   5.586  10.759   4.453 -1.8748 -1.8645  1.6027
 1022MOL0     H34861   5.755  10.802   4.428 -0.1950 -0.5120 -0.7179
 1022MOL0     H34862   5.596  10.872   4.652 -0.3215  0.1590 -1.2271
 1022MOL0     H34863   5.655  10.718   4.707  2.0678 -0.2470  0.3817
 1022MOL0     H34864   5.902  10.799   4.675 -1.5235 -2.4971  1.3962
 1022MOL0     H34865   5.806  10.860   4.805 -0.4412 -1.3633 -0.0574
 1022MOL0     H34866   5.867  11.244   4.574 -1.5444 -0.5769 -0.3421
 1022MOL0     H34867   6.037  11.326   4.422 -0.3443  0.2808  2.6677
 1022MOL0     H34868   6.193  11.539   4.186 -0.4207  1.0295 -1.8568
 1022MOL0     H34869   6.294  11.662   3.988  0.1964  0.8223  2.7825
 1022MOL0     H34870   6.614  11.486   3.730  0.2932  2.2460 -1.0361
 1022MOL0     H34871   6.543  11.627   3.654  1.0657 -0.4625  0.0206
 1022MOL0     H34872   6.386  11.355   3.728 -1.9347 -0.8799 -3.4511
 1022MOL0     H34873   6.457  11.383   3.580 -1.2901 -1.7341  0.2695
 1022MOL0     H34874   6.302  11.592   3.557 -0.3077  0.2657  1.1576
 1022MOL0     H34875   6.246  11.563   3.713  1.6814  3.4761  0.1186
 1022MOL0     H34876   6.214  11.385   3.462  0.0213  2.4852 -0.0651
 1022MOL0     H34877   6.199  11.304   3.615  0.6605  1.0392  1.8889
 1022MOL0     H34878   5.965  11.386   3.510 -2.5754  0.2016  2.9584
 1022MOL0     H34879   6.037  11.544   3.532 -0.2929 -1.3530 -3.2288
 1022MOL0     H34880   5.888  11.490   3.724 -0.1513  1.3122 -3.0124
 1022MOL0     H34881   6.049  11.510   3.778 -0.2210 -1.8482  3.2301
 1022MOL0     H34882   5.934  11.228   3.736 -0.3659 -2.5363  3.0843
 1022MOL0     H34883   6.091  11.277   3.810 -0.7939 -1.4054 -0.3057
 1022MOL0     H34884   5.824  11.331   3.934  0.5530 -1.8479 -1.6219
 1022MOL0     H34885   5.980  11.384   4.000  2.7986 -1.9280  0.3058
 1022MOL0     H34886   6.565  11.351   3.937  0.3061 -3.2502  1.1756
 1022MOL0     H34887   6.450  11.211   4.094  3.0244  0.1312 -2.8015
 1022MOL0     H34888   6.200  10.923   4.380 -2.2175 -2.4007 -0.7817
 1022MOL0     H34889   6.002  10.848   4.515  0.9868  1.3153  2.7742
 1022MOL0     H34890   5.548  10.278   3.254 -1.8495 -1.3267 -0.7848
 1022MOL0     H34891   5.488  10.172   3.055 -0.3650  1.4115 -1.3420
 1022MOL0     H34892   5.406   9.771   2.869  0.3746 -0.1565 -0.6242
 1022MOL0     H34893   5.230   9.706   2.701 -1.2470  1.1276  4.3828
 1022MOL0     H34894   5.250   9.953   2.348  1.2532 -1.7503  0.3657
 1022MOL0     H34895   5.095  10.022   2.404 -3.2596 -2.3091  0.8762
 1022MOL0     H34896   4.965   9.843   2.331 -0.3253  0.6153  0.5173
 1022MOL0     H34897   5.082   9.897   2.207 -1.7437  1.7397  1.4098
 1022MOL0     H34898   5.075   9.655   2.393  0.3504  0.3548  1.5122
 1022MOL0     H34899   5.214   9.681   2.290  1.5851  0.2381  1.2727
 1022MOL0     H34900   4.994   9.718   2.120  1.9192  0.6183 -0.4611
 1022MOL0     H34901   5.082   9.551   2.140  0.4826 -1.0163  1.0636
 1022MOL0     H34902   4.697   9.507   2.335 -0.8933  0.0753 -1.1269
 1022MOL0     H34903   5.315  10.074   2.496 -0.3937 -1.8155  0.1796
 1022MOL0     H34904   5.485  10.142   2.667 -0.0657 -0.8996 -3.0422
 1023MOL0     O34905   5.066   9.677   9.516 -0.3125 -0.8376 -0.5706
 1023MOL0     C34906   5.146   9.590   9.549 -0.0472  0.2540  0.2234
 1023MOL0     O34907   5.126   9.487   9.643  0.4938  0.0816  0.7458
 1023MOL0     C34908   4.998   9.476   9.694  0.1417 -0.5091  0.5496
 1023MOL0     C34909   4.905   9.394   9.625 -0.5935  0.1866 -0.2640
 1023MOL0     C34910   4.773   9.378   9.674 -0.8549  0.0782 -0.1360
 1023MOL0     C34911   4.733   9.460   9.775 -0.5162 -0.7282 -0.6892
 1023MOL0     O34912   4.605   9.462   9.816  0.4650  0.5160  0.5070
 1023MOL0     C34913   4.533   9.344   9.857 -0.7611  0.4916  0.4298
 1023MOL0     C34914   4.397   9.382   9.875  0.6136  0.3078  1.0177
 1023MOL0     C34915   4.371   9.515   9.952  0.3831  0.4710  0.4717
 1023MOL0     C34916   4.219   9.558   9.951 -0.8375  0.0487  0.0876
 1023MOL0     C34917   4.204   9.696  10.010  0.3015  0.5758 -0.1695
 1023MOL0     C34918   4.237   9.802   9.898 -0.0420 -0.5584  0.1148
 1023MOL0     C34919   4.168   9.935   9.902 -0.1405  0.3292 -0.7486
 1023MOL0     C34920   4.232  10.045   9.817 -0.3858 -0.7690  0.3094
 1023MOL0     N34921   4.262   9.996   9.674 -0.4216 -0.0005  0.0759
 1023MOL0     C34922   4.173  10.026   9.569  0.0972 -1.0834  0.0238
 1023MOL0     C34923   4.251  10.031   9.455  0.1887  0.2536 -0.5499
 1023MOL0     C34924   4.199  10.067   9.322  0.0465 -0.2700 -0.3313
 1023MOL0     C34925   4.107   9.973   9.253  0.8794 -0.2157 -0.7902
 1023MOL0     C34926   4.164   9.829   9.221  0.0053 -0.6955  0.4095
 1023MOL0     C34927   4.290   9.822   9.123  0.0385  0.1285  0.0894
 1023MOL0     O34928   4.248   9.846   8.989  0.0000 -0.4546  0.9833
 1023MOL0     C34929   4.330   9.833   8.879  0.0962 -0.0266 -0.3360
 1023MOL0     C34930   4.283   9.843   8.746 -0.1728  0.5626  0.2056
 1023MOL0     C34931   4.367   9.823   8.633  0.8541 -0.1802 -0.2434
 1023MOL0     C34932   4.508   9.793   8.652  0.4626 -0.4413  0.2212
 1023MOL0     C34933   4.584   9.764   8.528  0.5028 -0.7544  0.4169
 1023MOL0     O34934   4.547   9.825   8.411 -0.0196  0.3631 -0.1465
 1023MOL0     C34935   4.628   9.804   8.298  0.3932 -0.5476  0.2095
 1023MOL0     C34936   4.686   9.919   8.229  0.0351 -0.1612 -0.6809
 1023MOL0     C34937   4.764   9.903   8.116 -0.9803  0.2083 -0.0453
 1023MOL0     C34938   4.790   9.780   8.060  0.8325  0.9865  1.5264
 1023MOL0     O34939   4.880   9.769   7.965 -0.7004  0.7120  0.5001
 1023MOL0     C34940   4.869   9.651   7.877  0.0148  0.1408  0.1441
 1023MOL0     C34941   4.985   9.645   7.771 -0.3688  0.5152  0.3909
 1023MOL0     C34942   4.975   9.520   7.686  0.9981 -0.0125  0.3281
 1023MOL0     C34943   4.836   9.483   7.634 -0.1994 -0.6017  0.7385
 1023MOL0     C34944   4.856   9.378   7.523 -0.1105  0.0570 -0.3500
 1023MOL0     C34945   4.907   9.242   7.576 -0.1708  0.7299 -0.8468
 1023MOL0     C34946   4.802   9.177   7.672 -0.9054  0.3502  0.3135
 1023MOL0     C34947   4.828   9.026   7.686  0.8231 -0.2854  0.5519
 1023MOL0    Cl34948   4.920   8.938   7.559 -0.1046  0.5309  0.0721
 1023MOL0     C34949   4.734   9.668   8.132  0.6152 -0.2624  0.0572
 1023MOL0     C34950   4.645   9.681   8.238  0.2098  0.0545 -0.1141
 1023MOL0     O34951   4.671   9.680   8.539  0.3424  0.4970  0.6982
 1023MOL0     C34952   4.558   9.800   8.787  0.3986  0.1845 -0.3418
 1023MOL0     C34953   4.472   9.813   8.894  0.0652  0.0157  0.1122
 1023MOL0     N34954   4.382  10.013   9.489 -0.2950 -0.0683  0.4577
 1023MOL0     N34955   4.387   9.985   9.618 -0.0013 -0.2402  0.4140
 1023MOL0     C34956   4.822   9.531   9.852  0.3242  0.3256 -0.4108
 1023MOL0     C34957   4.957   9.538   9.814  1.0960 -0.0645  0.1753
 1023MOL0     C34958   5.281   9.594   9.494  0.0524  0.7424 -0.0315
 1023MOL0     C34959   5.338   9.714   9.451  0.2514  0.7721  0.3911
 1023MOL0     C34960   5.475   9.709   9.403 -0.2504  0.1210 -0.3173
 1023MOL0     C34961   5.550   9.592   9.394  0.1235  0.6486  0.3959
 1023MOL0     O34962   5.675   9.609   9.346  0.3539  0.1304 -0.0895
 1023MOL0     C34963   5.740   9.487   9.320 -0.1303  0.0249 -0.4764
 1023MOL0     C34964   5.845   9.523   9.221 -0.7502 -0.1374 -0.3267
 1023MOL0     C34965   5.939   9.645   9.262  0.2874 -0.3377 -0.1097
 1023MOL0     C34966   6.056   9.654   9.166  1.5168 -0.0516  0.0127
 1023MOL0     C34967   6.113   9.790   9.189 -1.0748 -0.4823 -0.3406
 1023MOL0     C34968   6.146   9.905   9.217  0.3310 -0.5969  1.2174
 1023MOL0     C34969   5.488   9.474   9.442  0.5331  0.9785 -0.0085
 1023MOL0     C34970   5.360   9.477   9.498 -0.3351 -0.5695 -0.2412
 1023MOL0     H34971   4.953   9.335   9.548 -2.1618  0.4604 -1.5154
 1023MOL0     H34972   4.706   9.310   9.622  1.6605 -1.7055 -1.2135
 1023MOL0     H34973   4.575   9.319   9.955  0.6712  0.6288 -0.1362
 1023MOL0     H34974   4.552   9.274   9.776 -1.5050 -1.1997  1.6571
 1023MOL0     H34975   4.339   9.304   9.926  3.2729 -2.6413 -0.1017
 1023MOL0     H34976   4.343   9.391   9.780 -2.2957 -4.4397  1.8747
 1023MOL0     H34977   4.430   9.585   9.893 -0.5131 -1.0281 -2.4335
 1023MOL0     H34978   4.404   9.500  10.055  0.7444 -0.6470  0.2094
 1023MOL0     H34979   4.170   9.557   9.854 -3.1729 -2.2665  1.1575
 1023MOL0     H34980   4.166   9.487  10.016 -0.3196 -1.2894 -0.9114
 1023MOL0     H34981   4.266   9.707  10.100 -0.9717 -1.7602  1.0612
 1023MOL0     H34982   4.101   9.717  10.039 -0.4255 -2.8615  0.0790
 1023MOL0     H34983   4.201   9.761   9.803  0.2388 -2.4606  0.7817
 1023MOL0     H34984   4.345   9.813   9.884 -0.2318  0.5011 -0.5471
 1023MOL0     H34985   4.068   9.931   9.857  0.9079  2.4123 -3.4862
 1023MOL0     H34986   4.155   9.968  10.006 -1.4409 -4.3491  0.8410
 1023MOL0     H34987   4.320  10.086   9.868 -3.4439  4.2750  2.2658
 1023MOL0     H34988   4.164  10.130   9.808 -0.7521 -1.2125 -1.4714
 1023MOL0     H34989   4.065  10.035   9.576  0.1868  2.6709 -1.0394
 1023MOL0     H34990   4.276  10.087   9.248  0.5379 -0.5611  0.0908
 1023MOL0     H34991   4.156  10.167   9.321  1.6809  0.5115  1.2871
 1023MOL0     H34992   4.107  10.018   9.153  1.8327  1.9842  0.1283
 1023MOL0     H34993   4.005   9.977   9.294  1.9005 -0.4364  1.9915
 1023MOL0     H34994   4.200   9.794   9.318 -1.6810  1.8528  2.0906
 1023MOL0     H34995   4.079   9.765   9.196 -1.8625  1.2083  1.5450
 1023MOL0     H34996   4.336   9.722   9.122  1.9377  0.9537 -0.2002
 1023MOL0     H34997   4.357   9.899   9.162  1.3842 -1.5654  1.3266
 1023MOL0     H34998   4.181   9.879   8.736 -1.5595 -0.5828  6.1244
 1023MOL0     H34999   4.327   9.836   8.534  0.4652 -3.7097 -0.6844
 1023MOL0     H35000   4.652  10.018   8.260 -1.6517 -0.5751 -1.0874
 1023MOL0     H35001   4.799   9.994   8.068  1.1797 -1.1646 -1.2496
 1023MOL0     H35002   4.772   9.646   7.827  0.9985  2.3110 -2.2141
 1023MOL0     H35003   4.873   9.571   7.951 -0.6522  1.7259  1.9727
 1023MOL0     H35004   5.077   9.651   7.830 -0.6892 -2.4817  1.4071
 1023MOL0     H35005   4.979   9.731   7.704 -0.9221  0.4864  0.3982
 1023MOL0     H35006   5.006   9.432   7.743 -1.9851 -1.9005 -0.6931
 1023MOL0     H35007   5.039   9.533   7.598  1.7106 -1.1392  0.6637
 1023MOL0     H35008   4.764   9.458   7.713 -0.4490  2.5981  1.6696
 1023MOL0     H35009   4.787   9.572   7.592  0.7186 -0.8062 -0.8485
 1023MOL0     H35010   4.922   9.431   7.453 -2.1608  3.1818 -0.1282
 1023MOL0     H35011   4.760   9.366   7.472 -0.2289  1.4054 -0.4832
 1023MOL0     H35012   5.010   9.243   7.613  0.5293  0.3701 -2.6780
 1023MOL0     H35013   4.903   9.163   7.501  1.4254 -2.8663  2.4895
 1023MOL0     H35014   4.804   9.232   7.766  2.3526  2.2749 -0.7090
 1023MOL0     H35015   4.705   9.190   7.624 -0.3022  1.9633 -0.5650
 1023MOL0     H35016   4.728   8.981   7.686 -0.1189  1.6962  0.3801
 1023MOL0     H35017   4.866   9.018   7.788 -0.1102 -1.0477  0.8499
 1023MOL0     H35018   4.754   9.564   8.108  0.8676  0.1994 -1.8983
 1023MOL0     H35019   4.586   9.597   8.276  1.3949 -1.2883 -1.1137
 1023MOL0     H35020   4.663   9.781   8.808  0.5867  2.4054  1.0321
 1023MOL0     H35021   4.523   9.802   8.989 -1.1776  1.0035  0.9258
 1023MOL0     H35022   4.788   9.603   9.925 -2.8663 -0.8813 -0.5553
 1023MOL0     H35023   5.027   9.606   9.862  2.2275 -0.2228 -1.1785
 1023MOL0     H35024   5.287   9.810   9.444  1.6633  1.5381  0.1825
 1023MOL0     H35025   5.518   9.796   9.355 -3.8202  2.0901 -0.2913
 1023MOL0     H35026   5.670   9.414   9.279 -2.3640  1.5742  0.4139
 1023MOL0     H35027   5.778   9.444   9.413 -2.1693  0.9530  0.8599
 1023MOL0     H35028   5.894   9.427   9.203  1.3467  1.1945 -2.1823
 1023MOL0     H35029   5.806   9.542   9.121  1.0488 -0.5165 -1.1392
 1023MOL0     H35030   5.977   9.637   9.364  0.6442  1.7959 -0.0150
 1023MOL0     H35031   5.871   9.731   9.250  0.4289 -0.5224 -2.6429
 1023MOL0     H35032   6.126   9.574   9.192  1.2139 -1.4688 -3.0270
 1023MOL0     H35033   6.019   9.632   9.065 -1.8937  1.8067  0.6996
 1023MOL0     H35034   6.177  10.005   9.239 -0.9796  0.1642 -0.2281
 1023MOL0     H35035   5.547   9.383   9.443  2.4089  2.1003 -1.2111
 1023MOL0     H35036   5.313   9.384   9.528 -3.5259  0.5003 -1.4801
 1024MOL0     O35037   9.046   0.565   2.781 -0.5798  0.0154 -0.0505
 1024MOL0     C35038   8.970   0.659   2.826 -1.1113  0.3973 -0.4157
 1024MOL0     O35039   9.005   0.788   2.825  0.3727 -1.2880 -0.3021
 1024MOL0     C35040   9.134   0.829   2.804 -0.1117  0.0257 -0.4952
 1024MOL0     C35041   9.191   0.805   2.690  0.1901  0.0308  0.7714
 1024MOL0     C35042   9.331   0.832   2.672  0.8238  0.4249 -0.8985
 1024MOL0     C35043   9.407   0.901   2.770  0.1981  0.5364  0.7665
 1024MOL0     O35044   9.541   0.916   2.747  0.0138 -0.3530  0.0987
 1024MOL0     C35045   9.617   0.795   2.766  0.4057  0.3671  1.0071
 1024MOL0     C35046   9.769   0.814   2.752 -0.4130 -0.3420 -0.6254
 1024MOL0     C35047   9.820   0.855   2.610 -0.4196 -0.4044  0.3177
 1024MOL0     C35048   9.801   0.736   2.517  0.1718  0.1846 -0.4350
 1024MOL0     C35049   9.852   0.752   2.374  0.4803 -0.6308  0.5642
 1024MOL0     C35050   9.874   0.625   2.292 -0.3374  0.1856  0.7004
 1024MOL0     C35051   9.944   0.650   2.152 -0.6145 -0.0428 -0.0933
 1024MOL0     C35052   9.876   0.752   2.067 -0.4805 -0.2798  0.3895
 1024MOL0     N35053   9.924   0.741   1.925  1.0126  0.0925 -0.3361
 1024MOL0     C35054  10.034   0.680   1.884  0.5301 -0.1587  0.2859
 1024MOL0     C35055  10.019   0.667   1.749 -0.5037  0.3483  0.5981
 1024MOL0     C35056  10.125   0.636   1.648 -0.2213 -0.4521  0.3644
 1024MOL0     C35057  10.200   0.508   1.680 -0.6431  0.3671 -0.5227
 1024MOL0     C35058  10.112   0.385   1.649 -0.2186 -0.0700  0.3641
 1024MOL0     C35059  10.093   0.335   1.503 -1.2895  0.0011  0.0621
 1024MOL0     O35060  10.221   0.345   1.446 -0.2979 -0.2188 -0.1802
 1024MOL0     C35061  10.260   0.242   1.366  0.1849 -0.1725  0.4665
 1024MOL0     C35062  10.315   0.134   1.429 -0.7365  0.2373 -0.6294
 1024MOL0     C35063  10.371   0.024   1.359  0.6530 -0.2223  0.0784
 1024MOL0     C35064  10.361   0.022   1.218 -0.4208 -0.1737 -0.9549
 1024MOL0     C35065  10.406  -0.094   1.142 -0.0308 -0.3185 -0.2490
 1024MOL0     O35066  10.457  -0.195   1.223  0.6738 -0.2699 -0.5355
 1024MOL0     C35067  10.530  -0.298   1.171  1.1254  0.4965  0.0966
 1024MOL0     C35068  10.651  -0.329   1.237  0.0376  0.1326 -0.4008
 1024MOL0     C35069  10.724  -0.438   1.195  0.3596  0.2760  0.3129
 1024MOL0     C35070  10.685  -0.520   1.091  0.2842  0.8062  0.3322
 1024MOL0     O35071  10.744  -0.633   1.053  0.2610 -0.1468 -0.3893
 1024MOL0     C35072  10.791  -0.710   1.171 -0.1274  0.5781  0.3638
 1024MOL0     C35073  10.758  -0.856   1.144  0.7264  0.3383 -0.5615
 1024MOL0     C35074  10.768  -0.946   1.263  0.2014 -0.1701 -0.1679
 1024MOL0     C35075  10.911  -0.993   1.281 -0.0553  0.0221  0.3497
 1024MOL0     C35076  10.914  -1.093   1.399  1.1020 -0.3512  0.4977
 1024MOL0     C35077  10.894  -1.031   1.544 -0.3921 -0.4072 -0.9412
 1024MOL0     C35078  11.037  -1.004   1.600 -0.7855 -1.4946 -0.2724
 1024MOL0     C35079  11.031  -0.893   1.706 -0.1983 -1.0148 -0.2524
 1024MOL0    Cl35080  11.023  -0.736   1.621  0.1307 -0.3786  0.0982
 1024MOL0     C35081  10.573  -0.481   1.019  0.5942  0.1641 -0.7474
 1024MOL0     C35082  10.495  -0.372   1.057 -1.4450  0.2442 -0.2922
 1024MOL0     O35083  10.416  -0.092   1.017  0.0923  0.7080 -0.6240
 1024MOL0     C35084  10.296   0.128   1.153 -0.2594 -0.8029 -0.8112
 1024MOL0     C35085  10.247   0.238   1.228 -0.1218 -0.5599  0.9103
 1024MOL0     N35086   9.891   0.704   1.720 -0.0713  0.3098 -0.4567
 1024MOL0     N35087   9.828   0.748   1.824 -0.0522  0.5685  0.0409
 1024MOL0     C35088   9.346   0.927   2.892 -0.4777  0.2533 -0.0049
 1024MOL0     C35089   9.209   0.888   2.908  0.8737 -0.1740  0.0811
 1024MOL0     C35090   8.831   0.613   2.870  0.5920  0.5932  0.5120
 1024MOL0     C35091   8.782   0.480   2.845  0.1124 -0.5111  0.3159
 1024MOL0     C35092   8.655   0.450   2.891  0.4902  0.7139 -0.2391
 1024MOL0     C35093   8.572   0.540   2.969 -0.1892  0.3901 -0.8280
 1024MOL0     O35094   8.445   0.510   3.018 -0.4865 -0.3967  0.4218
 1024MOL0     C35095   8.402   0.375   3.009  0.0980 -0.3769 -0.2509
 1024MOL0     C35096   8.266   0.374   3.087 -0.2316 -0.5745 -0.7765
 1024MOL0     C35097   8.156   0.401   2.984 -0.2705 -0.5283 -0.9502
 1024MOL0     C35098   8.028   0.414   3.061 -0.0350 -0.2812 -0.4710
 1024MOL0     C35099   7.982   0.284   3.116 -0.6827  0.0629 -1.0493
 1024MOL0     C35100   7.949   0.173   3.165 -0.6268 -0.1763  0.6844
 1024MOL0     C35101   8.625   0.659   2.993  0.5874 -0.6340  0.2474
 1024MOL0     C35102   8.744   0.710   2.935 -0.0874  0.2364  0.3912
 1024MOL0     H35103   9.126   0.752   2.620  2.4410 -0.9211 -0.7281
 1024MOL0     H35104   9.379   0.808   2.577 -1.2530  0.5166 -2.0317
 1024MOL0     H35105   9.583   0.728   2.687 -0.3490  1.6752  0.1667
 1024MOL0     H35106   9.594   0.760   2.866  2.7448 -2.7617  0.6003
 1024MOL0     H35107   9.817   0.723   2.788 -1.4786 -1.3162 -1.6145
 1024MOL0     H35108   9.802   0.894   2.819  4.3949 -0.6070 -2.2903
 1024MOL0     H35109   9.927   0.872   2.600 -0.2591  0.6851  3.0731
 1024MOL0     H35110   9.766   0.945   2.579  0.2988 -0.1836 -0.3213
 1024MOL0     H35111   9.860   0.653   2.559  1.2712  0.3399 -1.6166
 1024MOL0     H35112   9.696   0.708   2.523  0.4562 -0.6175  1.8088
 1024MOL0     H35113   9.953   0.794   2.381  0.5532 -0.5425 -0.7980
 1024MOL0     H35114   9.790   0.825   2.322  1.4501 -0.6961 -0.7141
 1024MOL0     H35115   9.787   0.560   2.277  1.2601 -1.1188 -5.1000
 1024MOL0     H35116   9.937   0.567   2.360 -0.3192  2.0937  2.4183
 1024MOL0     H35117  10.045   0.690   2.162 -0.0924 -1.2609 -0.2653
 1024MOL0     H35118   9.941   0.551   2.105  0.7384 -0.5075  0.7196
 1024MOL0     H35119   9.905   0.846   2.114 -0.0756 -0.3203  0.2193
 1024MOL0     H35120   9.767   0.753   2.072 -0.7625 -0.1927 -3.3919
 1024MOL0     H35121  10.128   0.659   1.934  0.5699 -0.6978 -0.0076
 1024MOL0     H35122  10.200   0.715   1.644  0.7788 -1.2826  1.5840
 1024MOL0     H35123  10.076   0.627   1.551  2.1347  1.0470 -1.0624
 1024MOL0     H35124  10.225   0.509   1.786  1.9053  0.0306 -1.0604
 1024MOL0     H35125  10.293   0.516   1.623 -0.9784  1.7880 -0.9200
 1024MOL0     H35126  10.167   0.306   1.701  1.8076  1.4819  0.7009
 1024MOL0     H35127  10.018   0.402   1.701  0.8338  0.7127  2.1083
 1024MOL0     H35128  10.028   0.398   1.442 -0.4781 -0.4838 -1.3573
 1024MOL0     H35129  10.061   0.231   1.497  2.4660 -1.2224 -2.2105
 1024MOL0     H35130  10.308   0.146   1.537  2.2940 -2.6922  0.0605
 1024MOL0     H35131  10.427  -0.057   1.404  0.5784 -0.6284 -0.5377
 1024MOL0     H35132  10.669  -0.259   1.318 -2.5223 -0.4733  0.8085
 1024MOL0     H35133  10.816  -0.453   1.250  0.8247  0.4488 -0.4061
 1024MOL0     H35134  10.751  -0.690   1.271 -1.3296 -1.7960  0.4472
 1024MOL0     H35135  10.899  -0.701   1.183 -0.1582 -0.3500  1.6298
 1024MOL0     H35136  10.816  -0.907   1.066  0.3093 -2.0853  0.6185
 1024MOL0     H35137  10.651  -0.858   1.117  1.1167  2.4703 -2.5704
 1024MOL0     H35138  10.705  -1.032   1.237  1.0581 -1.1350  0.8423
 1024MOL0     H35139  10.713  -0.910   1.350 -4.3001 -3.4347 -1.2334
 1024MOL0     H35140  10.947  -1.044   1.191  5.3746 -0.2669  2.3129
 1024MOL0     H35141  10.977  -0.909   1.304 -1.3664  1.0307  0.5626
 1024MOL0     H35142  11.002  -1.158   1.398  1.0844 -0.3826 -0.7918
 1024MOL0     H35143  10.823  -1.155   1.397 -0.3585  1.2766  4.8057
 1024MOL0     H35144  10.831  -1.099   1.602  1.1709 -1.9451 -0.9517
 1024MOL0     H35145  10.841  -0.936   1.535  2.0991  1.1975  0.2227
 1024MOL0     H35146  11.070  -1.098   1.645 -1.8630 -0.8381  2.0685
 1024MOL0     H35147  11.112  -0.977   1.526 -2.1154 -0.8675 -1.4318
 1024MOL0     H35148  11.124  -0.895   1.764  0.5510  3.8872 -0.7818
 1024MOL0     H35149  10.936  -0.888   1.759 -0.0363 -2.4275  0.1970
 1024MOL0     H35150  10.550  -0.550   0.938  0.0378 -0.2361 -0.2556
 1024MOL0     H35151  10.405  -0.343   1.004 -0.4583 -0.1766 -2.2746
 1024MOL0     H35152  10.276   0.122   1.047 -0.0542 -2.1958 -0.7819
 1024MOL0     H35153  10.216   0.333   1.184 -2.8881 -1.4975  0.6724
 1024MOL0     H35154   9.401   0.975   2.972 -1.9735  1.6960  0.2104
 1024MOL0     H35155   9.149   0.910   2.996 -1.0917 -1.4186 -0.8835
 1024MOL0     H35156   8.837   0.401   2.795 -0.0572 -0.0629 -0.5934
 1024MOL0     H35157   8.630   0.346   2.869  1.8222 -0.8122  4.2352
 1024MOL0     H35158   8.477   0.312   3.059  2.9393  1.3154 -2.0727
 1024MOL0     H35159   8.379   0.338   2.909 -1.1041 -1.3212  0.3451
 1024MOL0     H35160   8.259   0.272   3.126 -1.4277 -0.2677 -0.1329
 1024MOL0     H35161   8.270   0.441   3.173 -1.0874 -1.2176 -0.2144
 1024MOL0     H35162   8.154   0.317   2.915 -0.3172 -3.1491  1.9962
 1024MOL0     H35163   8.175   0.500   2.941  1.3778 -0.5929 -0.4701
 1024MOL0     H35164   8.045   0.489   3.139 -1.4264  1.0975 -1.4473
 1024MOL0     H35165   7.951   0.463   3.002 -1.8897  0.4925  2.3854
 1024MOL0     H35166   7.909   0.080   3.199 -1.9241  0.2401  0.3846
 1024MOL0     H35167   8.567   0.729   3.052 -1.3903 -1.6271 -0.4333
 1024MOL0     H35168   8.775   0.813   2.950  0.3678 -0.1601  2.5483
  11.44907  11.44907  11.44907
